Title
82341
    1SAPS     N    1   5.545   1.591  11.019 -0.3830 -0.0529 -0.3257
    1SAPS   HN1    2   5.490   1.519  10.967 -2.3359 -0.6878  2.4149
    1SAPS   HN2    3   5.542   1.562  11.119 -1.9998 -2.9101 -1.0858
    1SAPS   HN3    4   5.516   1.691  11.014 -0.1549  0.1362  1.6052
    1SAPS   C12    5   5.689   1.592  10.972 -0.6259  0.7564 -0.0033
    1SAPS  H12A    6   5.700   1.584  10.865 -0.8385 -0.1184  0.0356
    1SAPS   C13    7   5.776   1.723  11.015  0.1878  0.4751 -0.2232
    1SAPS  O13A    8   5.703   1.818  11.052  0.2461 -0.3755 -0.8002
    1SAPS  O13B    9   5.883   1.744  10.950 -0.2716  0.3095  0.0458
    1SAPS   C11   10   5.767   1.465  11.038  0.2489  0.6035 -0.4435
    1SAPS  H11A   11   5.773   1.478  11.148 -0.2302  0.1916 -0.3643
    1SAPS  H11B   12   5.869   1.458  10.995 -0.0181 -2.4492 -0.8061
    1SAPS     P   13   5.749   1.216  10.963  0.1069  0.0701 -0.6167
    1SAPS   O13   14   5.815   1.131  11.067 -0.1717 -0.1176  0.0678
    1SAPS   O14   15   5.647   1.140  10.886 -0.1588 -0.1791  0.0146
    1SAPS   O12   16   5.689   1.348  11.017 -0.5500 -0.3439 -0.4577
    1SAPS   O11   17   5.857   1.257  10.857  0.0008 -0.1230 -0.4039
    1SAPS    C1   18   5.821   1.289  10.723 -1.2182  0.4922  0.3742
    1SAPS    HA   19   5.713   1.296  10.700 -0.9995 -1.8023 -1.8350
    1SAPS    HB   20   5.873   1.383  10.693  0.8738 -0.4813  0.7804
    1SAPS    C2   21   5.866   1.178  10.621 -0.1176 -0.9359  0.1354
    1SAPS    HS   22   5.806   1.087  10.639  0.2421 -1.6554 -2.0013
    1SAPS   O21   23   6.003   1.152  10.633  0.3527  0.5875 -0.3598
    1SAPS   C21   24   6.036   1.055  10.715 -0.8777  0.0101  0.1586
    1SAPS   O22   25   5.966   0.977  10.781 -0.2441 -0.1610  0.1520
    1SAPS   C22   26   6.186   1.045  10.713 -0.4658  0.0043 -0.1884
    1SAPS   H2R   27   6.231   1.134  10.663 -0.0917 -1.2031 -2.0940
    1SAPS   H2S   28   6.219   1.033  10.819 -1.3309 -1.6891 -0.0880
    1SAPS    C3   29   5.831   1.222  10.474  0.5380  0.2494 -0.3657
    1SAPS    HX   30   5.860   1.327  10.452 -1.8975  1.2663  0.9550
    1SAPS    HY   31   5.721   1.233  10.476  0.6461  1.3620  0.1923
    1SAPS   O31   32   5.881   1.139  10.363 -0.6772 -0.3586  0.0086
    1SAPS   C31   33   6.012   1.162  10.324  0.6227  0.2322  0.3995
    1SAPS   O32   34   6.088   1.244  10.363 -0.6967  0.0364 -0.7490
    1SAPS   C32   35   6.036   1.054  10.211  0.1202 -0.4337  0.3745
    1SAPS   H2X   36   5.941   0.998  10.196 -0.3024  0.4415 -0.3221
    1SAPS   H2Y   37   6.110   0.979  10.248 -0.3894 -1.3850 -0.4770
    1SAPS   C23   38   6.229   0.919  10.635 -0.0644 -0.0874  0.0641
    1SAPS   H3R   39   6.160   0.872  10.562 -1.4469  2.3803 -0.3373
    1SAPS   H3S   40   6.238   0.846  10.719  2.5459  1.6521  1.4379
    1SAPS   C24   41   6.376   0.926  10.580  0.5220  0.0149  0.0743
    1SAPS   H4R   42   6.409   0.821  10.569 -0.2262 -0.3934  1.5095
    1SAPS   H4S   43   6.452   0.967  10.650 -0.4981  0.1318  1.1462
    1SAPS   C25   44   6.372   0.999  10.446  0.4895 -0.0525 -0.8630
    1SAPS   H5R   45   6.341   1.105  10.451 -2.5662 -0.7447 -2.4615
    1SAPS   C26   46   6.395   0.938  10.328  0.0004 -0.6934 -0.8153
    1SAPS   H6R   47   6.402   0.990  10.231  1.8780  0.2650 -0.2183
    1SAPS   C27   48   6.428   0.796  10.298  0.0301  0.0715 -0.0790
    1SAPS   H7R   49   6.500   0.754  10.372  0.8498 -0.4726 -1.1543
    1SAPS   H7S   50   6.486   0.789  10.203 -0.8677  1.8632 -0.8148
    1SAPS   C28   51   6.319   0.688  10.300 -0.0476 -0.4054 -0.2739
    1SAPS   H8R   52   6.294   0.647  10.399  1.1746  2.3650  1.3241
    1SAPS   C29   53   6.245   0.644  10.193  0.1474 -0.2765  0.1045
    1SAPS   H9R   54   6.184   0.553  10.206  1.5725 -1.0975  1.3908
    1SAPS  C210   55   6.257   0.709  10.055 -0.6144  0.6504  0.2412
    1SAPS  H10R   56   6.323   0.799  10.046  0.5515 -0.2720 -0.7358
    1SAPS  H10S   57   6.158   0.751  10.028 -0.7482 -0.4135 -1.0163
    1SAPS  C211   58   6.308   0.606   9.963  0.0442 -1.0874  0.1391
    1SAPS  H11R   59   6.392   0.548  10.004  1.1910  0.9523  0.8087
    1SAPS  C212   60   6.281   0.601   9.834 -0.4282  0.0550  0.2977
    1SAPS  H12R   61   6.301   0.513   9.770 -1.0014 -0.2104  0.4740
    1SAPS  C213   62   6.174   0.687   9.772  0.8844  1.0769  0.0629
    1SAPS  H13R   63   6.225   0.746   9.693 -0.6038  0.2489 -1.5823
    1SAPS  H13S   64   6.135   0.767   9.839 -0.8344  0.7168 -0.4800
    1SAPS  C214   65   6.063   0.608   9.699 -0.1862  0.3791 -0.8554
    1SAPS  H14R   66   5.965   0.597   9.747 -0.7900  3.3618 -1.2455
    1SAPS  C215   67   6.070   0.550   9.573 -0.0667  0.2268 -0.3419
    1SAPS  H15R   68   5.984   0.496   9.532 -0.1255  0.6026 -0.7141
    1SAPS  C216   69   6.199   0.556   9.486 -0.0625  0.1014 -0.3580
    1SAPS  H16R   70   6.259   0.465   9.505  3.3897  2.6674  2.2927
    1SAPS  H16S   71   6.264   0.644   9.506 -0.1786 -0.4337  2.7421
    1SAPS  C217   72   6.165   0.566   9.332  0.0325 -0.4265  0.5524
    1SAPS  H17R   73   6.073   0.504   9.320  0.7540 -1.2784 -0.8318
    1SAPS  H17S   74   6.241   0.503   9.280 -1.2594 -2.1709  0.6694
    1SAPS  C218   75   6.141   0.713   9.288  0.2092  0.2441  0.5677
    1SAPS  H18R   76   6.079   0.762   9.367  0.5616  0.2016  0.8730
    1SAPS  H18S   77   6.095   0.711   9.187 -0.0675 -1.7824  0.6919
    1SAPS  C219   78   6.265   0.792   9.254 -0.4234  0.0374 -0.9755
    1SAPS  H19R   79   6.312   0.818   9.352 -1.8247 -0.9381 -0.0151
    1SAPS  H19S   80   6.245   0.886   9.199  3.4027  0.6982 -1.5340
    1SAPS  C220   81   6.378   0.717   9.177  0.2827  0.3315  0.7591
    1SAPS  H20R   82   6.457   0.790   9.147  0.3217 -0.8763 -2.4365
    1SAPS  H20S   83   6.328   0.681   9.085 -0.3394 -1.6626  1.8134
    1SAPS  H20T   84   6.416   0.627   9.230  0.5338 -0.5253 -0.8176
    1SAPS   C33   85   6.071   1.126  10.077  0.1703  0.6945  0.3363
    1SAPS   H3X   86   6.098   1.045  10.005 -0.3156 -0.4707  1.4267
    1SAPS   H3Y   87   6.166   1.182  10.092  0.4948  0.8322 -1.8232
    1SAPS   C34   88   5.968   1.226  10.020  0.0002  0.3020 -0.1908
    1SAPS   H4X   89   6.022   1.273   9.935 -1.3141  0.9430 -0.7148
    1SAPS   H4Y   90   5.940   1.309  10.088 -0.4371 -0.7211  0.9264
    1SAPS   C35   91   5.843   1.158   9.963 -0.1710  0.0468  1.0460
    1SAPS   H5X   92   5.756   1.165  10.031 -0.1416 -0.1238  1.1001
    1SAPS   H5Y   93   5.860   1.049   9.950 -0.9757  0.2167 -2.6033
    1SAPS   C36   94   5.807   1.207   9.820 -0.0609  0.7102  0.2124
    1SAPS   H6X   95   5.836   1.314   9.815  1.0572  0.4734  1.3398
    1SAPS   H6Y   96   5.701   1.185   9.793  0.4063  0.7319 -1.8242
    1SAPS   C37   97   5.894   1.146   9.704 -0.0594  0.0365  0.0980
    1SAPS   H7X   98   5.862   1.040   9.710 -0.6274  0.1090 -1.1989
    1SAPS   H7Y   99   5.994   1.161   9.750 -0.8001  2.0990  1.1528
    1SAPS   C38  100   5.888   1.198   9.564  0.6437  0.0619  0.2125
    1SAPS   H8X  101   5.787   1.173   9.526  1.3450  1.9088 -3.3023
    1SAPS   H8Y  102   5.950   1.146   9.488  0.8335 -0.3545  0.6408
    1SAPS   C39  103   5.896   1.350   9.547  0.7436  0.2458  0.1024
    1SAPS   H9X  104   5.824   1.389   9.622 -0.2712 -1.1111 -0.1159
    1SAPS   H9Y  105   5.866   1.373   9.442 -1.8278  4.4145  1.5034
    1SAPS  C310  106   6.039   1.399   9.573  0.5461  0.0310  0.1315
    1SAPS  H10X  107   6.108   1.325   9.528  0.0007 -1.9697  2.3625
    1SAPS  H10Y  108   6.048   1.404   9.684 -1.3939  1.1941  0.2884
    1SAPS  C311  109   6.053   1.545   9.525  0.0821 -1.1834  0.4396
    1SAPS  H11X  110   5.953   1.591   9.540 -0.5316 -1.9937 -0.9498
    1SAPS  H11Y  111   6.075   1.552   9.416  2.4340  1.2452  0.9687
    1SAPS  C312  112   6.164   1.626   9.597  0.6485 -0.0476 -0.8445
    1SAPS  H12X  113   6.194   1.708   9.529 -0.1308 -1.1680 -2.6395
    1SAPS  H12Y  114   6.252   1.559   9.604  0.9091  0.4497  1.1295
    1SAPS  C313  115   6.125   1.688   9.739  0.0288  0.0398 -0.3987
    1SAPS  H13X  116   6.015   1.705   9.736 -0.3009 -1.3504  2.0476
    1SAPS  H13Y  117   6.179   1.785   9.735 -1.6176  0.9667 -1.9221
    1SAPS  C314  118   6.169   1.608   9.861  0.8963 -0.5211 -0.5348
    1SAPS  H14X  119   6.279   1.626   9.852  0.8550  0.4154  0.6617
    1SAPS  H14Y  120   6.150   1.499   9.860  0.4982 -0.5078 -3.2502
    1SAPS  C315  121   6.112   1.671   9.990  0.2219  0.7892 -0.3343
    1SAPS  H15X  122   6.004   1.646   9.989  0.1788  0.8281  1.0694
    1SAPS  H15Y  123   6.120   1.782   9.984  4.1328  0.6006 -1.3954
    1SAPS  C316  124   6.185   1.610  10.107  0.5237  0.4505 -0.1904
    1SAPS  H16X  125   6.293   1.631  10.093  0.9234 -0.1140  1.8047
    1SAPS  H16Y  126   6.179   1.499  10.104 -0.8052  0.5089 -1.4872
    1SAPS  C317  127   6.144   1.667  10.243 -0.0366 -0.0212  0.2695
    1SAPS  H17X  128   6.035   1.689  10.250  0.7258  4.8717  0.1525
    1SAPS  H17Y  129   6.186   1.770  10.248  1.2208 -0.5667  1.7639
    1SAPS  C318  130   6.183   1.583  10.365  0.4950  0.2457  0.6990
    1SAPS  H18X  131   6.142   1.629  10.457 -3.2633 -0.5563 -0.3868
    1SAPS  H18Y  132   6.292   1.566  10.373  0.7170  0.4244 -1.3948
    1SAPS  H18Z  133   6.143   1.480  10.352 -2.4901  1.5400 -1.9903
    2SAPS     N  134   4.382   6.015  11.232 -0.3036  0.0995 -0.0943
    2SAPS   HN1  135   4.326   6.074  11.167  0.5138 -0.7038 -1.5905
    2SAPS   HN2  136   4.342   5.919  11.239  2.5405 -1.2627 -1.0140
    2SAPS   HN3  137   4.382   6.066  11.322  0.3866  2.0845 -1.1604
    2SAPS   C12  138   4.523   5.996  11.190  0.2614  0.0634 -0.1404
    2SAPS  H12A  139   4.585   6.082  11.208 -0.7065  1.1908 -1.9271
    2SAPS   C13  140   4.588   5.874  11.271 -0.0937  0.0369  0.4051
    2SAPS  O13A  141   4.525   5.809  11.354 -0.0158 -0.2627  0.9133
    2SAPS  O13B  142   4.716   5.879  11.261 -0.4273 -0.5683  0.1140
    2SAPS   C11  143   4.524   5.960  11.041  0.9470  0.2602  0.5963
    2SAPS  H11A  144   4.627   5.941  11.003 -0.2715 -2.3538 -1.7493
    2SAPS  H11B  145   4.477   6.047  10.990 -0.0394  0.5639  1.9615
    2SAPS     P  146   4.449   5.760  10.881  0.0147  0.0455  0.0511
    2SAPS   O13  147   4.589   5.724  10.865 -0.7744 -0.7404  0.3622
    2SAPS   O14  148   4.351   5.642  10.889 -0.1291  0.0518 -0.1836
    2SAPS   O12  149   4.430   5.854  11.015 -0.2558 -0.4709 -0.3130
    2SAPS   O11  150   4.417   5.867  10.769  0.4700  0.2268 -0.2032
    2SAPS    C1  151   4.290   5.910  10.747  0.6243  0.2121 -0.1040
    2SAPS    HA  152   4.220   5.904  10.833 -0.3227 -0.9015 -0.9110
    2SAPS    HB  153   4.305   6.018  10.726  4.1041 -0.1019  0.2893
    2SAPS    C2  154   4.228   5.845  10.617  0.2720 -0.5545  0.4027
    2SAPS    HS  155   4.213   5.738  10.644 -0.2596  0.3228  4.1619
    2SAPS   O21  156   4.316   5.864  10.501 -0.4426 -0.1429 -0.1818
    2SAPS   C21  157   4.402   5.763  10.474 -0.4039 -0.1294  0.1534
    2SAPS   O22  158   4.397   5.651  10.520  0.0996 -0.5223  0.4827
    2SAPS   C22  159   4.515   5.807  10.378 -0.3665  0.1634 -0.1391
    2SAPS   H2R  160   4.485   5.796  10.271  1.4398 -1.9682 -0.5061
    2SAPS   H2S  161   4.529   5.914  10.402  0.0680  0.8244 -2.9838
    2SAPS    C3  162   4.084   5.895  10.580 -0.3196  0.5296  0.7523
    2SAPS    HX  163   4.088   6.005  10.587 -1.6363  0.7014 -0.6261
    2SAPS    HY  164   4.010   5.872  10.659 -2.0970 -0.2638 -1.0457
    2SAPS   O31  165   4.038   5.846  10.443 -0.1328 -0.0554 -0.1409
    2SAPS   C31  166   4.001   5.724  10.431  0.5436 -0.1918 -0.1916
    2SAPS   O32  167   3.990   5.645  10.528  0.6836 -0.7089  0.5943
    2SAPS   C32  168   3.960   5.685  10.292 -0.2301 -0.0543  0.1134
    2SAPS   H2X  169   3.960   5.775  10.227 -0.4112 -0.7511 -0.8713
    2SAPS   H2Y  170   3.864   5.629  10.285  0.7995 -2.0353  1.0561
    2SAPS   C23  171   4.646   5.745  10.412 -0.1588  0.0827 -0.5564
    2SAPS   H3R  172   4.654   5.636  10.395 -1.5243 -0.5092  2.0050
    2SAPS   H3S  173   4.662   5.733  10.521  0.2100  0.7261 -0.5341
    2SAPS   C24  174   4.762   5.814  10.337 -0.9400 -0.0523  0.9887
    2SAPS   H4R  175   4.752   5.924  10.350  2.8808  0.5690 -0.1266
    2SAPS   H4S  176   4.731   5.804  10.231  0.8770 -1.4473  0.5499
    2SAPS   C25  177   4.910   5.782  10.341  0.4443 -0.3766  0.2328
    2SAPS   H5R  178   4.968   5.830  10.421  0.4617  1.5479 -0.8525
    2SAPS   C26  179   4.982   5.700  10.258 -0.1207  0.6884 -1.0028
    2SAPS   H6R  180   5.091   5.696  10.273  0.0613  2.1563 -1.7413
    2SAPS   C27  181   4.928   5.620  10.145 -0.2062 -0.4001 -0.1322
    2SAPS   H7R  182   4.819   5.639  10.136 -0.0901 -0.6500 -2.9000
    2SAPS   H7S  183   4.928   5.513  10.175 -1.2495 -1.0312 -2.1927
    2SAPS   C28  184   5.008   5.648  10.021  0.0565 -0.6852 -0.0448
    2SAPS   H8R  185   5.036   5.751   9.995 -0.3172 -0.9573 -1.6108
    2SAPS   C29  186   5.031   5.565   9.915 -0.0539  0.2621  0.2249
    2SAPS   H9R  187   5.085   5.591   9.823  1.8327 -2.4400  0.4423
    2SAPS  C210  188   4.982   5.423   9.901 -0.1260 -0.2642 -0.3871
    2SAPS  H10R  189   4.907   5.403   9.980 -0.8534  1.5962 -0.5609
    2SAPS  H10S  190   5.070   5.356   9.909  0.3434  0.3928  0.0220
    2SAPS  C211  191   4.911   5.418   9.770 -0.6865  0.0751  0.3226
    2SAPS  H11R  192   4.806   5.385   9.776  0.2462 -2.9321  2.4458
    2SAPS  C212  193   4.961   5.421   9.644 -0.0709 -0.1406 -0.2026
    2SAPS  H12R  194   4.883   5.408   9.568 -1.4802 -0.7824  1.3076
    2SAPS  C213  195   5.109   5.434   9.589  0.3933 -1.6163 -0.7208
    2SAPS  H13R  196   5.162   5.485   9.673 -1.2065 -2.1900  0.6875
    2SAPS  H13S  197   5.123   5.505   9.505  1.5022 -0.5275  0.3329
    2SAPS  C214  198   5.175   5.303   9.568 -0.4535 -0.0866  0.7764
    2SAPS  H14R  199   5.169   5.240   9.658  0.1074 -0.0529  0.8399
    2SAPS  C215  200   5.230   5.259   9.446 -0.1761 -0.1487  0.1544
    2SAPS  H15R  201   5.276   5.159   9.434  1.5232  0.4895  1.0580
    2SAPS  C216  202   5.221   5.331   9.311 -0.2471  0.0396 -0.8527
    2SAPS  H16R  203   5.309   5.323   9.244 -1.7674  1.5756 -3.2000
    2SAPS  H16S  204   5.210   5.441   9.328 -1.5142 -0.2388  0.4298
    2SAPS  C217  205   5.112   5.284   9.224  0.4045 -0.0428 -0.2824
    2SAPS  H17R  206   5.020   5.300   9.285 -0.2030 -0.8205 -0.9713
    2SAPS  H17S  207   5.119   5.175   9.205  1.1567  0.0174 -0.3693
    2SAPS  C218  208   5.088   5.371   9.097  0.0271 -0.1249 -0.4892
    2SAPS  H18R  209   5.084   5.473   9.140  1.1041  0.1140 -0.9274
    2SAPS  H18S  210   4.987   5.336   9.068  0.1773 -1.3449  0.3854
    2SAPS  C219  211   5.188   5.341   8.992 -0.3914  0.9032  0.3746
    2SAPS  H19R  212   5.290   5.362   9.030 -1.0891  1.6811  1.9207
    2SAPS  H19S  213   5.186   5.412   8.906  0.1897 -1.3698 -1.5996
    2SAPS  C220  214   5.177   5.201   8.933 -0.4616  0.5504 -0.2904
    2SAPS  H20R  215   5.249   5.178   8.852  1.9181 -2.6281  2.4340
    2SAPS  H20S  216   5.074   5.174   8.899 -0.1993 -1.3869  0.2986
    2SAPS  H20T  217   5.191   5.127   9.015  1.6547  0.9872 -0.2067
    2SAPS   C33  218   4.070   5.590  10.241  0.0424 -0.1480  0.2010
    2SAPS   H3X  219   4.028   5.529  10.159  0.1393  0.0825 -0.0241
    2SAPS   H3Y  220   4.107   5.527  10.324  0.2383 -0.1269  0.1320
    2SAPS   C34  221   4.181   5.667  10.171 -0.2612 -0.0673  0.1406
    2SAPS   H4X  222   4.226   5.744  10.238 -1.9336  0.8284  0.2966
    2SAPS   H4Y  223   4.137   5.720  10.084  0.9934  2.3248  0.8662
    2SAPS   C35  224   4.296   5.572  10.126  0.0770 -0.2251 -0.0447
    2SAPS   H5X  225   4.245   5.489  10.072 -1.3272  1.3948 -1.2941
    2SAPS   H5Y  226   4.347   5.532  10.217 -0.2180 -1.7368 -0.5188
    2SAPS   C36  227   4.398   5.631  10.033  0.6383 -0.0768  0.0859
    2SAPS   H6X  228   4.426   5.726  10.084 -1.8449 -0.2801  1.9904
    2SAPS   H6Y  229   4.351   5.658   9.936 -0.5615  0.1755  0.7244
    2SAPS   C37  230   4.520   5.547  10.024 -0.3079  0.2190 -0.6844
    2SAPS   H7X  231   4.498   5.442   9.995  0.0137  0.5937 -2.3750
    2SAPS   H7Y  232   4.567   5.549  10.124  0.4591  0.3478 -1.0398
    2SAPS   C38  233   4.617   5.607   9.926 -0.5082 -0.5484 -0.0542
    2SAPS   H8X  234   4.715   5.554   9.920 -0.2107  0.1260 -1.5797
    2SAPS   H8Y  235   4.643   5.710   9.960  0.5604 -1.1185  0.9475
    2SAPS   C39  236   4.574   5.631   9.781 -0.1982  0.2907 -0.4249
    2SAPS   H9X  237   4.668   5.648   9.725  2.1346 -1.7880  2.5444
    2SAPS   H9Y  238   4.512   5.723   9.786  1.1660  1.1775  3.0612
    2SAPS  C310  239   4.510   5.504   9.716  0.1099  1.1021  0.1640
    2SAPS  H10X  240   4.439   5.464   9.791  0.9791  1.5963  1.2826
    2SAPS  H10Y  241   4.581   5.421   9.695 -0.4267  0.8185 -0.5628
    2SAPS  C311  242   4.439   5.525   9.582  0.1132  0.0811  0.3720
    2SAPS  H11X  243   4.410   5.426   9.541  0.4046  0.5278 -0.9744
    2SAPS  H11Y  244   4.511   5.569   9.510  1.1020 -1.6601  0.2480
    2SAPS  C312  245   4.316   5.615   9.594 -0.1361  0.5285  0.1740
    2SAPS  H12X  246   4.274   5.657   9.501  2.3235  0.1949 -1.1736
    2SAPS  H12Y  247   4.337   5.707   9.652 -2.2214  1.0929  0.1140
    2SAPS  C313  248   4.198   5.541   9.657 -0.4505 -0.0358  0.0364
    2SAPS  H13X  249   4.216   5.518   9.764  0.1998  1.5533  0.3137
    2SAPS  H13Y  250   4.173   5.451   9.598  2.4000 -1.6799  1.1381
    2SAPS  C314  251   4.078   5.641   9.649  0.5941  0.8225 -0.5546
    2SAPS  H14X  252   3.986   5.580   9.664  2.9944 -2.8688  0.5269
    2SAPS  H14Y  253   4.073   5.682   9.546 -1.9568 -0.5862 -1.0935
    2SAPS  C315  254   4.078   5.751   9.750 -0.1172 -0.3442  0.2976
    2SAPS  H15X  255   4.167   5.813   9.724 -0.4072 -0.3077 -0.6242
    2SAPS  H15Y  256   4.091   5.704   9.850  3.1799 -1.5565 -0.5565
    2SAPS  C316  257   3.957   5.849   9.733 -0.1338 -0.9713  0.4658
    2SAPS  H16X  258   3.962   5.888   9.628  1.5798 -0.1054  0.8183
    2SAPS  H16Y  259   3.979   5.924   9.812  2.5289 -1.3847  0.2036
    2SAPS  C317  260   3.819   5.796   9.756 -0.7289 -0.4302  0.1331
    2SAPS  H17X  261   3.786   5.717   9.685 -2.5126  0.9922 -0.7153
    2SAPS  H17Y  262   3.754   5.885   9.747  1.9714  1.7098  0.5250
    2SAPS  C318  263   3.806   5.752   9.904  0.1132 -0.0709  0.2224
    2SAPS  H18X  264   3.872   5.664   9.921  0.4074  0.3564  1.3777
    2SAPS  H18Y  265   3.701   5.728   9.932 -0.0659  0.2724 -0.1506
    2SAPS  H18Z  266   3.837   5.827   9.979 -3.8143  1.6761  0.3445
    3SAPS     N  267   4.985   2.672  11.210  1.0455  0.5609  0.3014
    3SAPS   HN1  268   4.910   2.709  11.148  0.4635  1.8809  1.7264
    3SAPS   HN2  269   5.030   2.598  11.151 -0.9601 -0.1075 -0.4941
    3SAPS   HN3  270   4.945   2.629  11.296 -1.3221  0.8892 -0.5433
    3SAPS   C12  271   5.086   2.772  11.251  0.3540  0.4979  0.0911
    3SAPS  H12A  272   5.038   2.853  11.304  2.0761  0.5991  1.6013
    3SAPS   C13  273   5.204   2.723  11.327  0.2531  0.3492 -0.3015
    3SAPS  O13A  274   5.225   2.597  11.354  0.0951 -0.5968  0.3440
    3SAPS  O13B  275   5.276   2.815  11.376  0.7753 -0.0161 -0.0036
    3SAPS   C11  276   5.142   2.832  11.127  0.1892 -0.3772  0.1571
    3SAPS  H11A  277   5.171   2.752  11.056  2.3641  0.6631 -0.1964
    3SAPS  H11B  278   5.230   2.898  11.139 -0.5657  1.0411 -1.7142
    3SAPS     P  279   5.085   2.982  10.919 -0.0571  0.4883  0.1226
    3SAPS   O13  280   5.075   3.130  10.932 -0.1616  0.6508 -0.0675
    3SAPS   O14  281   5.214   2.919  10.880 -0.1038 -0.1003  0.4836
    3SAPS   O12  282   5.041   2.913  11.059 -0.1582  0.0828  0.0789
    3SAPS   O11  283   4.970   2.932  10.814  0.3886 -0.2472 -1.0339
    3SAPS    C1  284   4.936   2.794  10.800  0.0502  0.5683  0.5740
    3SAPS    HA  285   4.947   2.727  10.888 -2.3720 -1.6651 -0.6920
    3SAPS    HB  286   4.828   2.786  10.776  0.2744 -3.1165  0.1736
    3SAPS    C2  287   5.013   2.732  10.682  0.6721  0.4672  0.1160
    3SAPS    HS  288   5.122   2.748  10.699  0.5947 -1.0447  2.3513
    3SAPS   O21  289   4.958   2.787  10.559  0.4008 -0.5094  0.4676
    3SAPS   C21  290   5.050   2.814  10.463  0.0223  0.3804 -0.2445
    3SAPS   O22  291   5.169   2.796  10.476 -0.1253 -0.8537 -0.2660
    3SAPS   C22  292   4.989   2.879  10.345  0.1261 -0.3647  0.3027
    3SAPS   H2R  293   4.903   2.811  10.325 -0.1216  0.2384 -0.7883
    3SAPS   H2S  294   4.952   2.979  10.378  1.5469  0.2348  0.1280
    3SAPS    C3  295   4.990   2.580  10.674  0.4354  0.4232  0.5349
    3SAPS    HX  296   4.881   2.558  10.676  0.3965  0.5344 -0.2497
    3SAPS    HY  297   5.019   2.539  10.773 -1.0649 -2.6354 -0.1867
    3SAPS   O31  298   5.053   2.518  10.557 -0.0833 -0.1939 -0.5100
    3SAPS   C31  299   4.975   2.504  10.447 -0.7663  0.5260  1.0326
    3SAPS   O32  300   4.861   2.533  10.436 -0.0122 -0.7737  0.4873
    3SAPS   C32  301   5.066   2.439  10.342  0.0460 -0.1800 -0.2352
    3SAPS   H2X  302   5.104   2.344  10.384  1.1184  0.8423  1.2043
    3SAPS   H2Y  303   5.157   2.497  10.317 -0.4552 -0.2761 -2.5320
    3SAPS   C23  304   5.082   2.888  10.225 -0.0168 -0.2598 -0.3516
    3SAPS   H3R  305   5.117   2.786  10.202  1.6186 -0.1538  1.4403
    3SAPS   H3S  306   5.173   2.941  10.260  0.7804 -2.0048  0.2763
    3SAPS   C24  307   5.005   2.940  10.102 -0.4558  0.3154  0.5532
    3SAPS   H4R  308   4.955   3.036  10.130  2.7745  2.1779  0.4090
    3SAPS   H4S  309   4.920   2.870  10.085  0.7582 -0.6258 -2.1283
    3SAPS   C25  310   5.091   2.947   9.981 -0.4063 -0.5934 -0.1404
    3SAPS   H5R  311   5.200   2.938   9.994 -0.6612 -3.2812  0.6038
    3SAPS   C26  312   5.040   2.968   9.861 -0.3970 -0.0902  0.1478
    3SAPS   H6R  313   5.104   2.975   9.772  0.5234  1.1757  0.8785
    3SAPS   C27  314   4.892   2.995   9.832  0.4993  0.7320  0.4466
    3SAPS   H7R  315   4.855   3.040   9.926 -1.4962 -0.7158  0.4152
    3SAPS   H7S  316   4.829   2.904   9.827  1.0983  0.2993  0.6237
    3SAPS   C28  317   4.861   3.090   9.713  0.6496  0.3947 -0.1332
    3SAPS   H8R  318   4.902   3.192   9.714  1.4198  0.0880  1.2337
    3SAPS   C29  319   4.787   3.059   9.599  0.1129  0.4267  0.2704
    3SAPS   H9R  320   4.769   3.138   9.524 -0.8302 -1.2233 -1.3042
    3SAPS  C210  321   4.723   2.928   9.551  0.0520  0.3529  0.1146
    3SAPS  H10R  322   4.621   2.926   9.596  0.8043  1.6768  2.0448
    3SAPS  H10S  323   4.779   2.838   9.586  0.1659  0.7860  1.0674
    3SAPS  C211  324   4.695   2.915   9.396  0.2257  0.4548 -0.1806
    3SAPS  H11R  325   4.597   2.953   9.363  1.2622  1.9088 -1.7838
    3SAPS  C212  326   4.773   2.867   9.293  0.2231 -0.5465  0.1580
    3SAPS  H12R  327   4.737   2.882   9.190  0.6780  1.6119  0.2749
    3SAPS  C213  328   4.908   2.808   9.318 -0.1468 -0.0449  0.4644
    3SAPS  H13R  329   4.926   2.773   9.422 -2.1579 -0.7598  0.6213
    3SAPS  H13S  330   4.987   2.885   9.310  0.6760 -0.4706  3.4212
    3SAPS  C214  331   4.933   2.689   9.230  0.5735  0.5638 -0.5788
    3SAPS  H14R  332   4.926   2.594   9.285 -0.8533  1.7234  1.3300
    3SAPS  C215  333   4.978   2.688   9.101  0.3613  1.1814 -0.1160
    3SAPS  H15R  334   5.000   2.591   9.053 -1.8666 -0.0125  1.1058
    3SAPS  C216  335   4.994   2.803   9.015 -0.0912  0.4409 -0.1098
    3SAPS  H16R  336   5.096   2.804   8.972  0.1949 -1.5111  0.4247
    3SAPS  H16S  337   4.986   2.900   9.068 -0.1945 -0.1932  1.0689
    3SAPS  C217  338   4.894   2.798   8.903  0.0569  0.3123  0.5724
    3SAPS  H17R  339   4.872   2.900   8.863  1.1835  0.9346  1.4570
    3SAPS  H17S  340   4.800   2.755   8.942 -0.7011  2.8980  1.8286
    3SAPS  C218  341   4.951   2.718   8.780  0.4765 -0.3739  0.9913
    3SAPS  H18R  342   4.955   2.609   8.804  2.4007 -0.4890  0.2807
    3SAPS  H18S  343   5.053   2.752   8.756  0.9123 -0.9856  1.9272
    3SAPS  C219  344   4.862   2.730   8.656 -0.8957 -0.3741 -0.1254
    3SAPS  H19R  345   4.920   2.689   8.571  1.5421  1.9022  0.2830
    3SAPS  H19S  346   4.857   2.840   8.638  0.5046  0.3205  3.0794
    3SAPS  C220  347   4.717   2.674   8.663  0.8444 -0.5792  0.5381
    3SAPS  H20R  348   4.678   2.647   8.563  1.1693  1.0319 -0.0624
    3SAPS  H20S  349   4.653   2.742   8.724  0.3532  0.6128 -1.2070
    3SAPS  H20T  350   4.710   2.577   8.716 -2.4083 -0.8623 -0.2009
    3SAPS   C33  351   4.996   2.433  10.210  0.7573  0.4447 -0.2628
    3SAPS   H3X  352   4.958   2.534  10.185  1.5248  0.2725 -2.3687
    3SAPS   H3Y  353   4.904   2.371  10.210 -0.6204  2.4164 -0.4425
    3SAPS   C34  354   5.083   2.392  10.095 -0.6600 -0.2450  0.1178
    3SAPS   H4X  355   5.132   2.293  10.107 -0.3511  0.0366  1.3884
    3SAPS   H4Y  356   5.159   2.473  10.087 -0.5202 -0.4482 -0.6731
    3SAPS   C35  357   5.008   2.391   9.962  0.2986  0.1467 -0.4801
    3SAPS   H5X  358   4.922   2.323   9.978  1.5325 -0.8910  2.4640
    3SAPS   H5Y  359   5.075   2.349   9.884 -0.7837 -0.3178 -1.1965
    3SAPS   C36  360   4.971   2.533   9.924  0.0347 -0.0659  0.1691
    3SAPS   H6X  361   5.059   2.601   9.927  1.6075 -2.0492  0.6966
    3SAPS   H6Y  362   4.891   2.567   9.993 -1.3140  1.3703 -1.9707
    3SAPS   C37  363   4.895   2.545   9.790 -0.2199  0.0808 -0.0061
    3SAPS   H7X  364   4.836   2.639   9.784  0.0389  0.4965  2.8107
    3SAPS   H7Y  365   4.820   2.464   9.800 -1.2286  1.1771  1.8196
    3SAPS   C38  366   4.966   2.524   9.662  1.0242  0.5486  0.2037
    3SAPS   H8X  367   5.049   2.458   9.695 -0.9051 -2.7844 -1.1868
    3SAPS   H8Y  368   5.002   2.620   9.618  2.3806 -1.3994 -3.2858
    3SAPS   C39  369   4.882   2.446   9.561  0.7306  0.3454  0.7103
    3SAPS   H9X  370   4.877   2.338   9.586  1.5403  0.1311 -0.0031
    3SAPS   H9Y  371   4.939   2.455   9.465  3.2551 -0.7319  2.0151
    3SAPS  C310  372   4.739   2.503   9.532 -0.8349 -0.0799  0.3071
    3SAPS  H10X  373   4.755   2.611   9.511  1.1968 -0.1073  1.4347
    3SAPS  H10Y  374   4.681   2.498   9.626  0.3112  0.1968  1.0528
    3SAPS  C311  375   4.674   2.443   9.408  0.7570 -0.6517 -0.5328
    3SAPS  H11X  376   4.683   2.332   9.407 -0.0897 -0.8456  2.3497
    3SAPS  H11Y  377   4.731   2.489   9.325 -1.1483  0.4836 -1.2783
    3SAPS  C312  378   4.530   2.487   9.393 -0.0196 -0.1485 -0.7021
    3SAPS  H12X  379   4.523   2.597   9.406  0.2273 -0.3663  1.7184
    3SAPS  H12Y  380   4.478   2.427   9.470  2.0797 -2.8786 -1.2815
    3SAPS  C313  381   4.477   2.456   9.255 -0.2111 -0.4900 -0.4942
    3SAPS  H13X  382   4.367   2.468   9.244 -0.6352 -2.6481  0.8065
    3SAPS  H13Y  383   4.500   2.351   9.228 -1.2570 -0.7541 -0.4155
    3SAPS  C314  384   4.545   2.551   9.153 -0.0341 -0.2321 -0.5350
    3SAPS  H14X  385   4.644   2.583   9.191 -0.1253  0.6232 -1.0079
    3SAPS  H14Y  386   4.492   2.647   9.166  0.6022  0.0155  0.3377
    3SAPS  C315  387   4.546   2.518   9.007  0.2432  0.0113 -0.3225
    3SAPS  H15X  388   4.627   2.443   8.990 -0.0485 -1.0471  2.4189
    3SAPS  H15Y  389   4.565   2.613   8.952 -1.2877  1.3039  1.2740
    3SAPS  C316  390   4.416   2.467   8.950 -0.3788  1.2888  0.7238
    3SAPS  H16X  391   4.341   2.548   8.946 -0.8119  0.8796  0.2976
    3SAPS  H16Y  392   4.371   2.387   9.012  2.7066 -1.8058 -0.6809
    3SAPS  C317  393   4.432   2.408   8.805  0.6393  0.1585 -0.0271
    3SAPS  H17X  394   4.496   2.317   8.810 -1.3307 -1.2919  0.1721
    3SAPS  H17Y  395   4.483   2.481   8.738  1.5230 -1.3513 -1.0699
    3SAPS  C318  396   4.296   2.347   8.742  0.0185 -0.0021 -0.9370
    3SAPS  H18X  397   4.314   2.330   8.634  0.2127 -0.2210 -0.8714
    3SAPS  H18Y  398   4.205   2.410   8.753 -0.5199 -0.6058 -1.8301
    3SAPS  H18Z  399   4.284   2.244   8.782  1.9528  0.3499  0.6783
    4SAPS     N  400   3.073   3.584  10.852 -0.4940 -0.2260 -0.1528
    4SAPS   HN1  401   3.117   3.532  10.773  3.5251 -0.7948  2.1788
    4SAPS   HN2  402   3.007   3.654  10.813 -0.6611 -0.2191  0.1367
    4SAPS   HN3  403   3.144   3.637  10.907 -0.9549 -0.9457  1.1842
    4SAPS   C12  404   2.999   3.491  10.952  0.1272 -0.5612  0.7395
    4SAPS  H12A  405   2.905   3.461  10.909  0.8642 -0.3886 -1.0664
    4SAPS   C13  406   3.083   3.374  10.996  0.4486  0.7367  0.2686
    4SAPS  O13A  407   3.206   3.367  10.968 -0.3424  0.4387 -0.1387
    4SAPS  O13B  408   3.037   3.301  11.088 -0.4682 -0.2332  0.5651
    4SAPS   C11  409   2.969   3.571  11.080  0.6559 -0.5523 -0.6052
    4SAPS  H11A  410   3.062   3.621  11.116 -1.2110  1.9416  1.1308
    4SAPS  H11B  411   2.929   3.508  11.162 -0.8145 -0.3109 -1.1119
    4SAPS     P  412   2.818   3.759  11.169 -0.1172 -0.0974  0.2230
    4SAPS   O13  413   2.695   3.694  11.211  0.5705  0.2911  0.2228
    4SAPS   O14  414   2.918   3.780  11.273 -0.4754  0.7194  0.4294
    4SAPS   O12  415   2.874   3.675  11.054  1.2082  0.0491  0.4201
    4SAPS   O11  416   2.800   3.892  11.092  0.3430 -0.0939 -0.0171
    4SAPS    C1  417   2.690   3.914  10.999  0.1969 -0.4348 -0.0433
    4SAPS    HA  418   2.595   3.865  11.027  0.7817 -0.8804  1.2148
    4SAPS    HB  419   2.669   4.023  10.999 -0.4278 -0.5396 -0.8387
    4SAPS    C2  420   2.727   3.890  10.845  0.9041  0.3276 -0.0643
    4SAPS    HS  421   2.739   3.780  10.852 -0.7944  0.2161  1.9370
    4SAPS   O21  422   2.841   3.970  10.799 -0.0352  0.2206  0.0161
    4SAPS   C21  423   2.938   3.894  10.737  0.3066  0.4411 -0.5143
    4SAPS   O22  424   2.934   3.772  10.734 -0.6332 -0.0005 -0.3891
    4SAPS   C22  425   3.047   3.988  10.675  0.4060  0.2126  0.1036
    4SAPS   H2R  426   3.005   4.091  10.672 -2.0756 -0.7398 -1.0255
    4SAPS   H2S  427   3.130   3.977  10.748 -0.0930  1.7458  0.9473
    4SAPS    C3  428   2.598   3.925  10.760 -0.1568  0.1222 -0.5719
    4SAPS    HX  429   2.582   4.035  10.765 -0.2724  0.1395 -1.3522
    4SAPS    HY  430   2.509   3.884  10.812  0.4896  2.2721  2.5938
    4SAPS   O31  431   2.625   3.881  10.622 -0.1286 -0.1572 -0.1723
    4SAPS   C31  432   2.597   3.755  10.605 -0.2001  0.2375 -0.1670
    4SAPS   O32  433   2.555   3.680  10.686  0.1748 -0.1401 -0.1773
    4SAPS   C32  434   2.640   3.711  10.464  0.2063  0.8334 -0.3808
    4SAPS   H2X  435   2.612   3.781  10.382 -3.0636  0.2304  0.0950
    4SAPS   H2Y  436   2.566   3.629  10.452  2.1103 -1.5694  2.7655
    4SAPS   C23  437   3.102   3.942  10.534 -0.6191 -0.2365 -0.0928
    4SAPS   H3R  438   3.133   3.836  10.542 -5.1312 -1.7826 -0.1920
    4SAPS   H3S  439   3.191   4.004  10.511 -0.7291 -1.2188 -3.7854
    4SAPS   C24  440   3.012   3.960  10.415  0.6971  0.1909  0.0644
    4SAPS   H4R  441   2.914   3.907  10.420  0.9873 -0.5007 -1.1505
    4SAPS   H4S  442   3.064   3.906  10.333 -0.0070 -0.0473 -0.2286
    4SAPS   C25  443   2.997   4.108  10.377 -0.0518 -0.3055  0.3031
    4SAPS   H5R  444   3.019   4.168  10.467  0.5720 -1.5935  1.0268
    4SAPS   C26  445   2.974   4.154  10.256 -0.7882  0.8489  0.1830
    4SAPS   H6R  446   2.958   4.263  10.250 -1.9690  0.7552  1.0939
    4SAPS   C27  447   2.962   4.066  10.134  0.5627 -0.6852 -0.4828
    4SAPS   H7R  448   2.860   4.089  10.097  0.3810  0.1100  0.4876
    4SAPS   H7S  449   2.947   3.960  10.164  0.1029 -2.0851 -4.9822
    4SAPS   C28  450   3.063   4.088  10.027  0.0423  0.1788 -0.3092
    4SAPS   H8R  451   3.159   4.117  10.072 -1.2095  0.4504  2.4184
    4SAPS   C29  452   3.041   4.082   9.893 -0.1480 -0.4090 -1.2953
    4SAPS   H9R  453   3.131   4.104   9.835 -0.2101 -1.4639 -1.8090
    4SAPS  C210  454   2.915   4.053   9.825  0.1209 -0.4603  0.2772
    4SAPS  H10R  455   2.832   4.011   9.885 -0.7391 -0.0358 -0.5842
    4SAPS  H10S  456   2.929   3.973   9.749 -1.3608  0.7123 -1.3112
    4SAPS  C211  457   2.863   4.174   9.757 -0.4183 -0.2213  1.0604
    4SAPS  H11R  458   2.794   4.230   9.822 -0.7488 -0.4600  0.9179
    4SAPS  C212  459   2.892   4.221   9.626 -0.1990 -0.0955 -1.3333
    4SAPS  H12R  460   2.839   4.311   9.591 -0.5808 -0.7464 -2.4982
    4SAPS  C213  461   2.980   4.156   9.520 -0.3475 -0.4782  0.4337
    4SAPS  H13R  462   3.022   4.059   9.553 -2.3788 -0.9794  1.6860
    4SAPS  H13S  463   3.068   4.223   9.512  1.0540 -2.4033 -1.1263
    4SAPS  C214  464   2.916   4.144   9.386  0.3335  0.1676 -0.7792
    4SAPS  H14R  465   2.807   4.131   9.393  0.1822  1.4335 -0.6351
    4SAPS  C215  466   2.991   4.141   9.270  0.0563 -0.7870 -0.2221
    4SAPS  H15R  467   2.945   4.149   9.171 -1.7401  1.7573  0.7114
    4SAPS  C216  468   3.143   4.153   9.262  0.0279  0.0306  0.2258
    4SAPS  H16R  469   3.176   4.140   9.367  0.5864 -1.1522 -0.0876
    4SAPS  H16S  470   3.158   4.260   9.235  0.4866  0.1137  0.8087
    4SAPS  C217  471   3.206   4.046   9.176  0.1834  0.3747  0.4279
    4SAPS  H17R  472   3.164   3.947   9.204  2.5320 -1.4092 -1.8295
    4SAPS  H17S  473   3.316   4.049   9.187  0.0570  0.4532  1.8730
    4SAPS  C218  474   3.179   4.056   9.024 -0.8868 -0.4527 -0.3336
    4SAPS  H18R  475   3.069   4.056   9.012 -0.8095  0.6955 -1.1899
    4SAPS  H18S  476   3.213   3.962   8.975 -0.7773 -0.9422  0.6541
    4SAPS  C219  477   3.255   4.174   8.948 -0.2208 -0.7180  0.8915
    4SAPS  H19R  478   3.363   4.147   8.945  0.4477  1.6687  1.4960
    4SAPS  H19S  479   3.240   4.259   9.018 -0.8652 -0.6846  0.7138
    4SAPS  C220  480   3.206   4.201   8.809  0.4937 -0.4063  0.5375
    4SAPS  H20R  481   3.242   4.302   8.781 -0.3740 -0.3258 -0.3307
    4SAPS  H20S  482   3.096   4.206   8.803  0.3548  0.6133  2.9741
    4SAPS  H20T  483   3.248   4.130   8.734  0.6964  2.0154 -1.7810
    4SAPS   C33  484   2.779   3.644  10.460 -0.2518  0.5602 -0.2997
    4SAPS   H3X  485   2.800   3.565  10.535  0.9867 -0.6630 -1.8713
    4SAPS   H3Y  486   2.859   3.717  10.487  0.1647 -0.5516  1.6953
    4SAPS   C34  487   2.798   3.588  10.316 -0.1658 -0.2007 -0.3523
    4SAPS   H4X  488   2.712   3.525  10.286 -0.6854 -0.4705  1.5559
    4SAPS   H4Y  489   2.893   3.531  10.321  0.5747  0.2977 -4.7085
    4SAPS   C35  490   2.816   3.698  10.209 -0.1577 -0.4173 -0.1665
    4SAPS   H5X  491   2.926   3.711  10.205 -0.4014  2.8122  1.0017
    4SAPS   H5Y  492   2.775   3.791  10.254  2.4693 -0.1997  1.9723
    4SAPS   C36  493   2.761   3.650  10.078  0.4304  0.4139  0.1946
    4SAPS   H6X  494   2.654   3.624  10.095  0.7757 -1.7680 -0.6385
    4SAPS   H6Y  495   2.807   3.550  10.063  0.9643  0.5616  0.8082
    4SAPS   C37  496   2.786   3.740   9.958  0.0569 -0.1108 -0.1104
    4SAPS   H7X  497   2.892   3.771   9.953 -0.1849  0.5973 -1.7923
    4SAPS   H7Y  498   2.721   3.830   9.965 -0.4814 -0.4669 -0.3798
    4SAPS   C38  499   2.740   3.663   9.822 -0.8952 -1.3053 -0.6028
    4SAPS   H8X  500   2.634   3.628   9.829 -1.3152 -0.0596 -0.3799
    4SAPS   H8Y  501   2.807   3.576   9.806  0.7742  0.0007 -0.9863
    4SAPS   C39  502   2.753   3.759   9.705 -0.0896  0.0912  0.2464
    4SAPS   H9X  503   2.861   3.783   9.696 -0.3037  1.1687  0.3522
    4SAPS   H9Y  504   2.689   3.847   9.730 -1.2045 -0.9299  1.1114
    4SAPS  C310  505   2.714   3.700   9.574  0.5025 -0.2563  0.0481
    4SAPS  H10X  506   2.608   3.666   9.572  1.0257 -1.9404 -0.2972
    4SAPS  H10Y  507   2.780   3.612   9.565 -0.1965 -1.2144  3.0947
    4SAPS  C311  508   2.735   3.802   9.468  0.4906 -0.0685 -0.5243
    4SAPS  H11X  509   2.845   3.822   9.468  0.2876  1.1671  0.5990
    4SAPS  H11Y  510   2.676   3.893   9.490  1.9199  1.0390 -1.0468
    4SAPS  C312  511   2.697   3.752   9.324 -0.1879 -0.6660 -0.1277
    4SAPS  H12X  512   2.599   3.703   9.340 -0.4810 -0.4222 -1.0983
    4SAPS  H12Y  513   2.777   3.675   9.313 -0.0470 -0.6711  0.7935
    4SAPS  C313  514   2.692   3.865   9.218 -0.1065 -0.1399 -1.0210
    4SAPS  H13X  515   2.779   3.933   9.210 -0.4726  0.7655  1.6418
    4SAPS  H13Y  516   2.607   3.927   9.255 -0.5918 -1.4636  0.2167
    4SAPS  C314  517   2.661   3.809   9.079 -0.4122  0.7503 -0.2846
    4SAPS  H14X  518   2.578   3.736   9.088 -0.3608  0.9542  4.1103
    4SAPS  H14Y  519   2.739   3.736   9.050 -1.2875 -0.6712  0.7969
    4SAPS  C315  520   2.632   3.906   8.965 -0.0529 -0.7504 -0.7644
    4SAPS  H15X  521   2.549   3.973   8.996 -0.0304 -0.3524 -1.5335
    4SAPS  H15Y  522   2.593   3.853   8.875 -0.4779  0.0770 -1.0797
    4SAPS  C316  523   2.746   4.005   8.931 -0.1389  0.1487 -0.2397
    4SAPS  H16X  524   2.838   3.944   8.921  2.1491  3.2475  0.2760
    4SAPS  H16Y  525   2.748   4.081   9.012  0.1234  1.4940 -1.4541
    4SAPS  C317  526   2.728   4.083   8.796 -0.5162  0.8506  0.2727
    4SAPS  H17X  527   2.811   4.156   8.784 -0.1838  0.3739 -0.4141
    4SAPS  H17Y  528   2.630   4.136   8.801 -0.6405  0.5390  1.6048
    4SAPS  C318  529   2.741   3.998   8.666 -0.1321  0.5066 -0.0784
    4SAPS  H18X  530   2.645   3.950   8.636  0.0070  1.2162 -1.7712
    4SAPS  H18Y  531   2.816   3.917   8.668 -0.1287  0.4193 -1.9966
    4SAPS  H18Z  532   2.769   4.075   8.590  3.8143  3.0165  3.4488
    5SAPS     N  533   4.236   1.045  11.189  0.1033 -0.0515  0.9161
    5SAPS   HN1  534   4.321   1.009  11.237  0.1006 -0.6559  0.4722
    5SAPS   HN2  535   4.154   0.983  11.198  0.1229  0.1253  2.6132
    5SAPS   HN3  536   4.248   1.064  11.087 -0.2079 -1.2240  0.6526
    5SAPS   C12  537   4.205   1.182  11.243 -0.2418  0.4903 -0.7303
    5SAPS  H12A  538   4.118   1.218  11.189 -2.0471 -1.0993  0.9335
    5SAPS   C13  539   4.159   1.187  11.393 -0.3421 -0.4345  0.6253
    5SAPS  O13A  540   4.159   1.083  11.465  0.6597  0.5037  0.2275
    5SAPS  O13B  541   4.144   1.299  11.450 -0.6151 -0.4168  0.1007
    5SAPS   C11  542   4.329   1.265  11.216 -0.3275 -0.3176  0.1023
    5SAPS  H11A  543   4.415   1.233  11.279 -1.2972  1.0162  2.2112
    5SAPS  H11B  544   4.301   1.367  11.248 -0.0923 -0.4968  0.9090
    5SAPS     P  545   4.473   1.370  11.041 -0.3014 -0.2633 -0.3363
    5SAPS   O13  546   4.457   1.502  11.110  0.0644  0.4645 -0.7382
    5SAPS   O14  547   4.597   1.302  11.077 -0.1336  0.4386 -0.1497
    5SAPS   O12  548   4.357   1.271  11.076 -0.6194  0.3452  0.3870
    5SAPS   O11  549   4.459   1.397  10.886 -0.4738  0.1754  0.4017
    5SAPS    C1  550   4.337   1.382  10.819 -0.1272 -0.1206 -0.3918
    5SAPS    HA  551   4.249   1.383  10.887  0.7867 -0.8368  0.8302
    5SAPS    HB  552   4.332   1.462  10.742  1.3917  1.7094  1.3093
    5SAPS    C2  553   4.336   1.246  10.749 -0.2784  0.8231 -0.0207
    5SAPS    HS  554   4.327   1.172  10.831  0.2441 -1.5387 -1.9660
    5SAPS   O21  555   4.456   1.219  10.675 -0.0626 -0.5542  0.9260
    5SAPS   C21  556   4.485   1.282  10.562 -0.1868  1.1256  0.0338
    5SAPS   O22  557   4.431   1.385  10.520 -0.7338 -0.2224  0.3977
    5SAPS   C22  558   4.601   1.210  10.489  0.3845 -0.6201 -0.1948
    5SAPS   H2R  559   4.692   1.214  10.553  1.3018 -1.4144 -1.4140
    5SAPS   H2S  560   4.572   1.103  10.477  0.1815 -0.6599  0.5970
    5SAPS    C3  561   4.216   1.209  10.659  0.9734  0.2442  0.0747
    5SAPS    HX  562   4.221   1.286  10.579  0.3241 -1.7244 -1.9712
    5SAPS    HY  563   4.120   1.209  10.715  0.3931  1.4187 -0.8711
    5SAPS   O31  564   4.239   1.074  10.601 -0.1762 -0.2613  0.4807
    5SAPS   C31  565   4.189   1.061  10.480  0.2353 -0.2500  0.4417
    5SAPS   O32  566   4.103   1.140  10.433  0.1122 -0.0739 -0.1113
    5SAPS   C32  567   4.256   0.947  10.413  0.0460  0.3298  0.3242
    5SAPS   H2X  568   4.251   0.860  10.482 -1.2631 -0.5100 -0.7851
    5SAPS   H2Y  569   4.362   0.978  10.408  0.9122 -2.3827  0.2175
    5SAPS   C23  570   4.627   1.284  10.360 -0.5909 -0.0153 -0.3687
    5SAPS   H3R  571   4.660   1.390  10.368 -1.5555  0.2396  0.4623
    5SAPS   H3S  572   4.527   1.280  10.312  0.5633  0.4850 -3.0073
    5SAPS   C24  573   4.709   1.206  10.254  0.2813 -0.4740 -0.0931
    5SAPS   H4R  574   4.802   1.183  10.310  2.1575  1.5015 -2.1628
    5SAPS   H4S  575   4.740   1.271  10.169  0.5819 -0.3037  0.1436
    5SAPS   C25  576   4.639   1.075  10.208  0.0159  0.1101  0.2772
    5SAPS   H5R  577   4.641   0.988  10.275  3.8903 -2.1147 -2.2803
    5SAPS   C26  578   4.595   1.040  10.081  0.2069  0.1779  0.1614
    5SAPS   H6R  579   4.549   0.941  10.066  0.0030  0.4594 -1.1998
    5SAPS   C27  580   4.594   1.117   9.958 -0.1112 -0.3548 -0.4601
    5SAPS   H7R  581   4.676   1.078   9.894  0.9486  0.0218  0.6328
    5SAPS   H7S  582   4.621   1.225   9.965  1.5212 -0.7519 -0.1214
    5SAPS   C28  583   4.462   1.107   9.880 -0.0145  0.0910  0.0849
    5SAPS   H8R  584   4.371   1.113   9.941 -0.9146 -0.4564 -1.1567
    5SAPS   C29  585   4.442   1.093   9.749  1.2421  0.6316 -0.4489
    5SAPS   H9R  586   4.344   1.084   9.701  0.5199  0.4052  1.0334
    5SAPS  C210  587   4.547   1.096   9.647 -0.5875 -0.4033 -0.9438
    5SAPS  H10R  588   4.653   1.100   9.680 -1.0510  0.2000  0.5865
    5SAPS  H10S  589   4.526   1.180   9.577 -0.7201  0.6717  0.3336
    5SAPS  C211  590   4.531   0.966   9.574 -0.9287 -0.3087 -0.4753
    5SAPS  H11R  591   4.542   0.876   9.637  0.7290  0.5348  0.5103
    5SAPS  C212  592   4.523   0.948   9.444  0.1758 -0.5575  0.1595
    5SAPS  H12R  593   4.513   0.848   9.399  1.4265 -0.4712 -0.3458
    5SAPS  C213  594   4.522   1.049   9.333 -0.2696  0.2005  0.3777
    5SAPS  H13R  595   4.559   1.000   9.241 -1.3483 -0.4495  0.2708
    5SAPS  H13S  596   4.588   1.133   9.364 -1.2738  0.9756  0.4498
    5SAPS  C214  597   4.390   1.109   9.302 -0.0300 -0.4608  0.1685
    5SAPS  H14R  598   4.309   1.066   9.363  0.8142  0.6619  2.1825
    5SAPS  C215  599   4.369   1.202   9.211  0.1535 -0.6324 -0.2429
    5SAPS  H15R  600   4.269   1.247   9.205 -0.3028 -1.4280  1.0417
    5SAPS  C216  601   4.471   1.254   9.113  0.1089  0.2422 -0.5448
    5SAPS  H16R  602   4.440   1.220   9.011  0.1717 -3.2064  0.4447
    5SAPS  H16S  603   4.556   1.184   9.131 -0.1920 -0.1172 -0.4955
    5SAPS  C217  604   4.502   1.400   9.113  0.1279 -0.0036 -0.0204
    5SAPS  H17R  605   4.517   1.439   9.216  2.6029  1.4196 -0.8225
    5SAPS  H17S  606   4.424   1.458   9.058  0.4128 -1.8996 -2.6227
    5SAPS  C218  607   4.625   1.429   9.030 -0.1823 -0.3309 -0.2222
    5SAPS  H18R  608   4.702   1.355   9.063 -2.8503 -2.6565  1.2873
    5SAPS  H18S  609   4.600   1.404   8.925  2.3565  0.1215 -0.9994
    5SAPS  C219  610   4.679   1.572   9.040  0.3104 -0.6913  0.2921
    5SAPS  H19R  611   4.725   1.602   9.136  2.4168 -1.7310 -0.3366
    5SAPS  H19S  612   4.600   1.648   9.018 -0.0490 -1.0120  0.4701
    5SAPS  C220  613   4.796   1.582   8.939  0.8852  0.8617 -0.7021
    5SAPS  H20R  614   4.746   1.577   8.840 -3.3374 -1.5069  1.2645
    5SAPS  H20S  615   4.876   1.507   8.951 -1.5401 -1.6980  0.6082
    5SAPS  H20T  616   4.839   1.683   8.954  1.2439  0.6635 -0.3845
    5SAPS   C33  617   4.193   0.913  10.275 -0.1523  1.0160  0.4376
    5SAPS   H3X  618   4.271   0.848  10.228 -0.1702  2.5574 -1.9105
    5SAPS   H3Y  619   4.183   1.002  10.209 -0.6235  0.6776  0.0563
    5SAPS   C34  620   4.070   0.819  10.283 -0.7789 -0.1957 -0.3718
    5SAPS   H4X  621   3.983   0.886  10.300 -0.2512  0.6512 -0.9249
    5SAPS   H4Y  622   4.084   0.738  10.358 -1.9351 -1.7588 -1.7919
    5SAPS   C35  623   4.045   0.763  10.141  0.0313  0.4728  0.1574
    5SAPS   H5X  624   3.950   0.706  10.151 -0.0926  0.6087 -0.2240
    5SAPS   H5Y  625   4.132   0.704  10.106 -0.9208 -1.1518  0.4456
    5SAPS   C36  626   4.011   0.870  10.031 -0.1193 -0.1800 -0.9128
    5SAPS   H6X  627   4.102   0.932  10.015  0.4677 -1.3821 -2.5464
    5SAPS   H6Y  628   3.929   0.933  10.071 -0.5725 -2.7798  2.8568
    5SAPS   C37  629   3.979   0.801   9.892 -0.9764  0.3995  0.2178
    5SAPS   H7X  630   3.897   0.728   9.907  0.9690 -1.7005  1.1566
    5SAPS   H7Y  631   4.067   0.739   9.863 -0.9381  0.7700 -0.4889
    5SAPS   C38  632   3.956   0.906   9.778  0.4900 -1.0047  0.5873
    5SAPS   H8X  633   4.038   0.981   9.780 -1.1154  0.8424 -0.1082
    5SAPS   H8Y  634   3.871   0.972   9.803  0.9279 -0.5220  0.8119
    5SAPS   C39  635   3.958   0.847   9.635  0.3577 -0.1940  0.6919
    5SAPS   H9X  636   3.874   0.775   9.637  2.2474 -2.5315  0.4894
    5SAPS   H9Y  637   4.048   0.787   9.609 -1.4884 -1.9063 -2.2687
    5SAPS  C310  638   3.957   0.957   9.522  0.1257 -0.0181 -0.2913
    5SAPS  H10X  639   4.051   1.016   9.532  1.1686 -1.3700 -1.6481
    5SAPS  H10Y  640   3.875   1.030   9.534  0.5588  0.2657  1.1769
    5SAPS  C311  641   3.960   0.908   9.379  0.4715 -0.7730 -0.0387
    5SAPS  H11X  642   3.868   0.845   9.377 -1.2477  1.5882 -0.4534
    5SAPS  H11Y  643   4.042   0.837   9.357  0.1367 -0.9256 -0.8440
    5SAPS  C312  644   3.960   1.032   9.286  0.1895 -0.2804 -0.3576
    5SAPS  H12X  645   4.057   1.082   9.302 -0.1291  0.4724 -0.7087
    5SAPS  H12Y  646   3.878   1.096   9.326 -0.7450 -1.4787 -0.2747
    5SAPS  C313  647   3.930   0.995   9.141 -0.3976  1.0245  0.3386
    5SAPS  H13X  648   3.852   0.916   9.139 -1.3923  1.9751 -1.6767
    5SAPS  H13Y  649   4.014   0.940   9.094 -0.0676  0.1497  1.8844
    5SAPS  C314  650   3.897   1.116   9.059  0.3980 -0.2065  0.3487
    5SAPS  H14X  651   3.963   1.199   9.095 -0.6127  0.9222 -0.3377
    5SAPS  H14Y  652   3.797   1.153   9.090  0.4300 -1.4624  2.1072
    5SAPS  C315  653   3.901   1.088   8.914 -0.9257 -0.1909  0.7209
    5SAPS  H15X  654   3.829   1.010   8.878 -0.1101 -0.9943  0.7833
    5SAPS  H15Y  655   3.998   1.037   8.896  0.2909  1.6253  1.8274
    5SAPS  C316  656   3.878   1.216   8.834 -0.2996  0.0740 -0.1354
    5SAPS  H16X  657   3.970   1.276   8.847 -0.4190  0.2308 -0.0080
    5SAPS  H16Y  658   3.788   1.271   8.869 -0.3651  0.5408 -1.0101
    5SAPS  C317  659   3.861   1.207   8.675  0.8270  0.5897  0.6580
    5SAPS  H17X  660   3.953   1.197   8.613 -0.9155 -0.9976 -1.8341
    5SAPS  H17Y  661   3.797   1.295   8.653  0.4725  0.1524 -0.1118
    5SAPS  C318  662   3.772   1.087   8.622  0.1589  0.1174  0.1765
    5SAPS  H18X  663   3.750   1.089   8.513  0.6030  1.0668  0.0915
    5SAPS  H18Y  664   3.679   1.064   8.680 -0.3989 -1.1804 -1.1731
    5SAPS  H18Z  665   3.827   0.991   8.633 -0.4480 -0.0932  1.7661
    6SAPS     N  666   3.793   0.595  11.016 -0.1297  0.3743 -0.0812
    6SAPS   HN1  667   3.797   0.554  11.111  4.6640  1.3015  0.3980
    6SAPS   HN2  668   3.701   0.630  10.982 -0.4145 -0.3604 -0.0920
    6SAPS   HN3  669   3.826   0.524  10.948  0.8843 -0.5508  1.3177
    6SAPS   C12  670   3.900   0.695  11.019  0.2162 -0.7548 -0.2228
    6SAPS  H12A  671   3.893   0.753  10.928 -1.8497 -0.7663 -0.1127
    6SAPS   C13  672   3.911   0.798  11.128 -0.1312  0.4089  0.7040
    6SAPS  O13A  673   3.821   0.817  11.210  0.1573 -0.7397 -0.5432
    6SAPS  O13B  674   4.012   0.871  11.125 -0.4843 -0.0865 -0.2811
    6SAPS   C11  675   4.039   0.619  11.016  0.0551  0.1399  0.1980
    6SAPS  H11A  676   4.069   0.600  11.121 -0.6424 -0.5736  0.2756
    6SAPS  H11B  677   4.117   0.686  10.975  0.6861 -0.7446 -0.0532
    6SAPS     P  678   4.146   0.423  10.873 -0.3599  0.3474 -0.1360
    6SAPS   O13  679   4.261   0.515  10.860 -0.1394 -0.1780 -0.8083
    6SAPS   O14  680   4.163   0.298  10.951  0.0303 -0.3114  0.1764
    6SAPS   O12  681   4.027   0.507  10.936 -0.1486  0.8095 -1.0518
    6SAPS   O11  682   4.086   0.385  10.731  0.2854 -0.7937 -0.5040
    6SAPS    C1  683   3.960   0.316  10.719 -0.5956  1.0309  0.2935
    6SAPS    HA  684   3.959   0.235  10.795 -0.4886  1.8040  1.1396
    6SAPS    HB  685   3.876   0.388  10.730 -2.0124 -0.4661 -0.4530
    6SAPS    C2  686   3.949   0.245  10.580 -0.0601 -0.0606 -0.4270
    6SAPS    HS  687   4.031   0.171  10.567 -0.1364  0.0393 -1.5046
    6SAPS   O21  688   3.934   0.350  10.475  0.4989  0.6995 -0.1177
    6SAPS   C21  689   3.988   0.321  10.357 -0.1563  0.3132  0.7792
    6SAPS   O22  690   4.049   0.221  10.337  0.0728  1.2074 -0.2201
    6SAPS   C22  691   3.955   0.421  10.254  0.5643  0.7917 -0.3347
    6SAPS   H2R  692   3.936   0.521  10.299 -3.1716 -0.1280  0.4860
    6SAPS   H2S  693   4.046   0.435  10.193 -0.0530  0.2477 -1.4009
    6SAPS    C3  694   3.822   0.152  10.581 -0.4694 -0.2911  0.5573
    6SAPS    HX  695   3.744   0.226  10.608 -0.3431  0.0903 -0.0890
    6SAPS    HY  696   3.821   0.074  10.660 -0.2069 -0.4436  0.4125
    6SAPS   O31  697   3.807   0.100  10.454 -0.2835 -0.3458 -0.3366
    6SAPS   C31  698   3.703   0.021  10.435 -0.6098  0.2476 -0.1553
    6SAPS   O32  699   3.624  -0.011  10.518  0.4317  0.4979 -0.3466
    6SAPS   C32  700   3.719  -0.038  10.296  0.3252  0.3487 -0.3188
    6SAPS   H2X  701   3.816  -0.093  10.292 -0.1218 -0.6954  1.6213
    6SAPS   H2Y  702   3.720   0.049  10.228  0.6209  0.5425 -0.0683
    6SAPS   C23  703   3.829   0.371  10.179 -1.3411 -0.0679  0.0995
    6SAPS   H3R  704   3.741   0.436  10.199 -0.6463  1.1791 -0.7430
    6SAPS   H3S  705   3.793   0.267  10.198 -2.4711 -0.1326 -2.0549
    6SAPS   C24  706   3.845   0.358  10.024 -0.4360 -0.4393  0.1945
    6SAPS   H4R  707   3.878   0.455   9.980  1.4298 -1.7306 -1.4370
    6SAPS   H4S  708   3.741   0.340   9.990 -1.2564 -2.1528  3.2660
    6SAPS   C25  709   3.933   0.249   9.978 -0.2527 -0.5371  0.2717
    6SAPS   H5R  710   4.000   0.202  10.051 -1.7723 -0.0955  2.0032
    6SAPS   C26  711   3.934   0.192   9.858 -0.2781  0.1774  0.7554
    6SAPS   H6R  712   4.008   0.115   9.836 -1.2948 -0.1061 -2.2170
    6SAPS   C27  713   3.860   0.238   9.734  1.1148 -1.0620 -0.1716
    6SAPS   H7R  714   3.764   0.291   9.752  2.7804  2.1325 -0.0020
    6SAPS   H7S  715   3.842   0.154   9.664  0.6671 -0.4141 -0.8432
    6SAPS   C28  716   3.948   0.343   9.665  0.8381  0.4976 -0.2836
    6SAPS   H8R  717   3.981   0.420   9.736  0.9846  0.2874 -0.1245
    6SAPS   C29  718   3.985   0.346   9.538  0.0236  0.1805 -0.5312
    6SAPS   H9R  719   4.053   0.429   9.515 -0.2019  0.7364  0.7437
    6SAPS  C210  720   3.946   0.242   9.435  0.0553 -0.1572  0.2364
    6SAPS  H10R  721   3.852   0.192   9.466  1.2952 -0.9736  2.9134
    6SAPS  H10S  722   4.036   0.176   9.433 -0.2283 -0.5472  0.1781
    6SAPS  C211  723   3.929   0.316   9.306  0.2173  0.3546 -0.1680
    6SAPS  H11R  724   3.843   0.383   9.306  0.7319  1.0291 -0.0711
    6SAPS  C212  725   4.001   0.305   9.190  0.0208 -0.1394  0.5381
    6SAPS  H12R  726   3.976   0.371   9.106 -0.9169  1.0985  1.7328
    6SAPS  C213  727   4.121   0.215   9.175 -0.0307  0.6568  1.3217
    6SAPS  H13R  728   4.150   0.171   9.272  3.7667 -0.9190 -0.3201
    6SAPS  H13S  729   4.206   0.277   9.139  0.3184 -1.4378 -1.8750
    6SAPS  C214  730   4.096   0.101   9.084  0.7349  0.5091 -0.1533
    6SAPS  H14R  731   4.002   0.096   9.028  0.0612  1.7112  0.7953
    6SAPS  C215  732   4.193   0.024   9.040 -0.2743 -0.0699 -0.5683
    6SAPS  H15R  733   4.166  -0.053   8.966  0.2222 -0.0478 -0.7741
    6SAPS  C216  734   4.336   0.028   9.079  0.2348 -0.5433  0.4030
    6SAPS  H16R  735   4.345   0.065   9.183 -0.7399 -2.1314  1.0812
    6SAPS  H16S  736   4.390   0.099   9.013  0.1350  0.1257  1.0259
    6SAPS  C217  737   4.416  -0.102   9.064 -0.0295 -0.6168 -0.2059
    6SAPS  H17R  738   4.387  -0.179   9.139 -1.0918  0.5107  0.5696
    6SAPS  H17S  739   4.521  -0.079   9.090 -0.4908 -0.4120  1.6390
    6SAPS  C218  740   4.395  -0.168   8.921  0.0875 -0.5626  0.1041
    6SAPS  H18R  741   4.360  -0.093   8.847 -1.8684 -0.2802  1.2302
    6SAPS  H18S  742   4.304  -0.231   8.913  1.2320 -2.1276 -1.0570
    6SAPS  C219  743   4.519  -0.231   8.875  0.0398  1.1216 -0.5397
    6SAPS  H19R  744   4.537  -0.308   8.954  0.8842  2.8750  1.0540
    6SAPS  H19S  745   4.607  -0.163   8.882  1.1735 -0.3357  0.1238
    6SAPS  C220  746   4.513  -0.305   8.752  0.1859 -0.0679  0.6212
    6SAPS  H20R  747   4.416  -0.356   8.737  1.3135 -2.3798  0.8523
    6SAPS  H20S  748   4.591  -0.384   8.742 -0.2915 -0.3723 -1.2097
    6SAPS  H20T  749   4.514  -0.239   8.662 -1.3587 -3.2778 -1.9679
    6SAPS   C33  750   3.610  -0.149  10.254  0.3899 -0.9085 -0.7017
    6SAPS   H3X  751   3.509  -0.106  10.238  0.5334 -1.0150 -2.0633
    6SAPS   H3Y  752   3.607  -0.231  10.329  1.5317 -2.4156 -2.1934
    6SAPS   C34  753   3.656  -0.217  10.128 -0.4337  0.9363  0.0968
    6SAPS   H4X  754   3.627  -0.325  10.122  0.6841  0.5468  1.3280
    6SAPS   H4Y  755   3.767  -0.223  10.127 -0.2802  3.1779  0.2430
    6SAPS   C35  756   3.612  -0.143  10.007  0.5615  0.2445  0.1276
    6SAPS   H5X  757   3.652  -0.040  10.015  2.4471 -0.4506  0.0264
    6SAPS   H5Y  758   3.504  -0.144   9.979  0.8803  0.4738 -1.1853
    6SAPS   C36  759   3.687  -0.202   9.885  0.1519  0.0602 -0.3541
    6SAPS   H6X  760   3.671  -0.312   9.883 -1.2685  0.2446 -0.2006
    6SAPS   H6Y  761   3.793  -0.176   9.905  0.9238 -3.1733  0.3277
    6SAPS   C37  762   3.643  -0.148   9.747  0.8153 -0.3775 -0.1244
    6SAPS   H7X  763   3.644  -0.037   9.750 -2.8447 -0.1800 -1.0858
    6SAPS   H7Y  764   3.542  -0.177   9.711  0.5683  1.9863 -1.4900
    6SAPS   C38  765   3.735  -0.199   9.644  0.0620  0.0420 -0.3385
    6SAPS   H8X  766   3.720  -0.307   9.625 -1.5423  0.3321 -0.8896
    6SAPS   H8Y  767   3.838  -0.181   9.679  0.4545 -0.3314 -1.2676
    6SAPS   C39  768   3.738  -0.109   9.508 -0.2169  0.6479  0.7626
    6SAPS   H9X  769   3.775  -0.006   9.528 -0.2779  1.5442 -3.0902
    6SAPS   H9Y  770   3.635  -0.091   9.469  1.2243  1.2500 -3.1699
    6SAPS  C310  771   3.831  -0.160   9.391 -0.7180  0.2098  0.1599
    6SAPS  H10X  772   3.809  -0.092   9.306  2.9724  1.2930 -0.0590
    6SAPS  H10Y  773   3.797  -0.263   9.365 -0.8733  0.5934 -1.2486
    6SAPS  C311  774   3.979  -0.169   9.427 -0.1666 -0.7576  0.3283
    6SAPS  H11X  775   3.983  -0.226   9.522 -0.6010 -0.9195  0.2486
    6SAPS  H11Y  776   4.014  -0.068   9.457 -0.6097 -1.0109  1.7618
    6SAPS  C312  777   4.069  -0.236   9.324  0.2956 -0.0239 -0.1961
    6SAPS  H12X  778   4.176  -0.219   9.351 -0.3654  2.0848  1.3182
    6SAPS  H12Y  779   4.050  -0.198   9.221 -2.2355 -2.8087 -0.8884
    6SAPS  C313  780   4.056  -0.385   9.294  0.1645  0.5730  0.0232
    6SAPS  H13X  781   3.954  -0.407   9.254  0.5110  1.8851 -1.7335
    6SAPS  H13Y  782   4.077  -0.442   9.386  0.1184 -3.1673 -2.0883
    6SAPS  C314  783   4.157  -0.427   9.185  0.1471  0.4277 -0.0082
    6SAPS  H14X  784   4.250  -0.366   9.187 -0.8544  2.0633 -0.6251
    6SAPS  H14Y  785   4.099  -0.407   9.092  0.1464  1.3614  0.1815
    6SAPS  C315  786   4.178  -0.583   9.195 -0.6104 -0.0129 -0.4727
    6SAPS  H15X  787   4.079  -0.632   9.206  0.2473 -1.9938 -1.2193
    6SAPS  H15Y  788   4.231  -0.601   9.291 -0.5057  3.1933  0.1922
    6SAPS  C316  789   4.248  -0.630   9.069  0.3601  0.0713  0.2910
    6SAPS  H16X  790   4.207  -0.572   8.984  0.5802 -0.3414 -0.1024
    6SAPS  H16Y  791   4.232  -0.740   9.058 -1.7249  0.2705  0.7992
    6SAPS  C317  792   4.402  -0.605   9.080 -0.2988 -0.0148 -0.1308
    6SAPS  H17X  793   4.438  -0.655   9.172 -1.2714  2.5948  1.7922
    6SAPS  H17Y  794   4.416  -0.495   9.074  1.6823 -0.1818  0.6850
    6SAPS  C318  795   4.479  -0.674   8.965  0.1279  0.2543  0.4277
    6SAPS  H18X  796   4.444  -0.780   8.960 -1.0411  0.6404  0.1935
    6SAPS  H18Y  797   4.588  -0.672   8.989  0.0172 -2.2019  1.4628
    6SAPS  H18Z  798   4.454  -0.634   8.865  0.4631  1.4011  0.7932
    7SAPS     N  799   1.039   3.181  10.970  0.9622 -0.3355  0.2190
    7SAPS   HN1  800   0.999   3.259  10.914  0.8195 -0.2460  0.4435
    7SAPS   HN2  801   1.128   3.217  11.011 -0.0267  0.5559  1.6652
    7SAPS   HN3  802   1.066   3.106  10.903 -0.9612  0.2587 -1.3059
    7SAPS   C12  803   0.953   3.140  11.086  0.9698 -0.0114  0.6163
    7SAPS  H12A  804   0.988   3.044  11.121 -2.4355 -2.1037 -1.2104
    7SAPS   C13  805   0.922   3.246  11.196 -0.0739  0.3248  0.0008
    7SAPS  O13A  806   0.973   3.365  11.186 -0.5342 -0.4596 -0.3115
    7SAPS  O13B  807   0.855   3.212  11.299 -0.4807 -0.0691 -0.5116
    7SAPS   C11  808   0.816   3.087  11.023  0.1331 -0.2785 -0.3160
    7SAPS  H11A  809   0.740   3.042  11.091  1.3522 -3.1652 -0.7187
    7SAPS  H11B  810   0.844   2.997  10.964 -0.9842 -0.2482 -0.9263
    7SAPS     P  811   0.600   3.202  10.937 -0.3914  0.0029  0.3961
    7SAPS   O13  812   0.555   3.060  10.934 -0.8612  0.1182 -0.6237
    7SAPS   O14  813   0.549   3.307  11.031 -0.8358 -0.3116  0.2804
    7SAPS   O12  814   0.755   3.192  10.944  0.4376  0.0315 -0.2034
    7SAPS   O11  815   0.585   3.254  10.783  0.4887  0.1866 -0.3065
    7SAPS    C1  816   0.666   3.367  10.745  0.2321 -0.0588  0.1839
    7SAPS    HA  817   0.713   3.416  10.833  1.6946  0.9456 -1.0956
    7SAPS    HB  818   0.744   3.341  10.670  1.2151  1.6395  0.5529
    7SAPS    C2  819   0.580   3.476  10.680  0.1869 -0.2660  0.1402
    7SAPS    HS  820   0.499   3.504  10.750 -0.6339  2.6745 -1.8016
    7SAPS   O21  821   0.535   3.429  10.556 -0.2445 -0.0124  0.2114
    7SAPS   C21  822   0.416   3.470  10.526  0.2674 -0.5366 -0.1777
    7SAPS   O22  823   0.356   3.556  10.589  0.5572 -0.3569  0.3738
    7SAPS   C22  824   0.359   3.392  10.406  0.1289  0.6924 -0.8811
    7SAPS   H2R  825   0.450   3.355  10.354  0.8593  2.2306 -0.7406
    7SAPS   H2S  826   0.302   3.305  10.447  0.7800  0.3182 -0.7535
    7SAPS    C3  827   0.656   3.608  10.647  0.5181 -0.7568 -0.0605
    7SAPS    HX  828   0.737   3.577  10.578 -0.3597  1.0706 -2.0086
    7SAPS    HY  829   0.702   3.634  10.745  3.3415 -0.2445 -1.4298
    7SAPS   O31  830   0.573   3.726  10.603  0.2048  0.3004  0.0137
    7SAPS   C31  831   0.633   3.838  10.580 -0.7357  0.2351  0.1805
    7SAPS   O32  832   0.753   3.862  10.596 -0.2971  0.1436  0.8893
    7SAPS   C32  833   0.526   3.934  10.530 -1.6100  0.2304 -0.3791
    7SAPS   H2X  834   0.582   4.028  10.508 -0.1750  0.3528  3.2100
    7SAPS   H2Y  835   0.450   3.941  10.609 -0.9522 -1.9403  0.5336
    7SAPS   C23  836   0.277   3.473  10.302  0.7974 -0.6281  0.0531
    7SAPS   H3R  837   0.324   3.573  10.310  0.0124 -0.3209  1.1580
    7SAPS   H3S  838   0.178   3.483  10.351  0.7920 -1.2246  0.1732
    7SAPS   C24  839   0.266   3.420  10.158 -0.4117  0.1562 -0.6921
    7SAPS   H4R  840   0.364   3.403  10.109 -0.5315  0.6165 -1.1002
    7SAPS   H4S  841   0.210   3.498  10.103 -0.7262  0.1103 -0.4392
    7SAPS   C25  842   0.199   3.291  10.171  0.0472  0.0045  0.6563
    7SAPS   H5R  843   0.258   3.217  10.227  1.0251  1.5551  1.7410
    7SAPS   C26  844   0.085   3.260  10.104 -0.3780 -0.2779  0.2739
    7SAPS   H6R  845   0.034   3.162  10.111  0.6282 -0.8310  0.0789
    7SAPS   C27  846   0.004   3.347  10.015  0.4339 -0.3302  0.8902
    7SAPS   H7R  847   0.042   3.334   9.912  1.7455 -2.6996  1.5777
    7SAPS   H7S  848   0.025   3.454  10.037 -0.0249  0.0391 -0.4008
    7SAPS   C28  849  -0.142   3.311  10.003 -0.0947  0.7529 -0.2512
    7SAPS   H8R  850  -0.209   3.342  10.085  0.7296  0.2061  0.6414
    7SAPS   C29  851  -0.205   3.274   9.887  0.6188  0.0478 -0.2666
    7SAPS   H9R  852  -0.313   3.252   9.887  1.0095 -2.2518 -1.8732
    7SAPS  C210  853  -0.147   3.262   9.747  0.3030  0.5799 -0.1973
    7SAPS  H10R  854  -0.109   3.360   9.712  0.4558  0.8750  0.7674
    7SAPS  H10S  855  -0.230   3.235   9.677 -1.1068  1.4941  1.0532
    7SAPS  C211  856  -0.029   3.170   9.735  0.2230  0.0411  0.3811
    7SAPS  H11R  857   0.014   3.134   9.830  1.7430  1.9899  0.4850
    7SAPS  C212  858   0.018   3.129   9.616 -0.2345  0.2564 -0.3820
    7SAPS  H12R  859   0.105   3.062   9.620  0.5369  1.3086  1.0480
    7SAPS  C213  860  -0.035   3.172   9.485 -0.1635 -0.1173 -0.0079
    7SAPS  H13R  861   0.034   3.248   9.442  1.2567 -1.6085 -0.4424
    7SAPS  H13S  862  -0.128   3.232   9.499  1.0864  1.3895  2.3671
    7SAPS  C214  863  -0.069   3.049   9.405  0.9451 -0.2554  0.7504
    7SAPS  H14R  864  -0.127   2.979   9.466  2.0155  1.1005  3.4960
    7SAPS  C215  865  -0.031   3.025   9.276  0.4009 -0.0421  0.2684
    7SAPS  H15R  866  -0.073   2.938   9.223  0.6396  0.8227 -1.3982
    7SAPS  C216  867   0.046   3.118   9.184 -0.1817 -0.6055  0.2018
    7SAPS  H16R  868   0.093   3.210   9.225 -0.0422 -0.4319 -0.3264
    7SAPS  H16S  869  -0.022   3.152   9.103  2.0789 -0.4279 -1.7606
    7SAPS  C217  870   0.171   3.045   9.111  0.5669 -0.4195 -0.7103
    7SAPS  H17R  871   0.134   2.954   9.059 -1.8516  0.5812 -0.8554
    7SAPS  H17S  872   0.250   3.020   9.185 -1.5387 -0.4482  1.6790
    7SAPS  C218  873   0.238   3.133   8.998  0.3826  0.1546  0.0718
    7SAPS  H18R  874   0.250   3.238   9.032  1.9766  0.9287 -2.5152
    7SAPS  H18S  875   0.173   3.136   8.908  1.0505 -0.6439 -0.4589
    7SAPS  C219  876   0.385   3.097   8.966  0.4131 -0.3113 -0.8408
    7SAPS  H19R  877   0.434   3.108   9.065 -0.6804 -2.0731 -0.0629
    7SAPS  H19S  878   0.434   3.174   8.902 -1.5880  0.7017 -1.2154
    7SAPS  C220  879   0.404   2.955   8.914  0.7254 -0.0402 -0.0172
    7SAPS  H20R  880   0.312   2.938   8.854  0.3325  1.3570  0.1474
    7SAPS  H20S  881   0.415   2.887   9.001 -1.4264  0.7219  0.9332
    7SAPS  H20T  882   0.490   2.933   8.847  2.2341  0.8094  1.5365
    7SAPS   C33  883   0.458   3.882  10.406  0.4348  0.6044 -0.6913
    7SAPS   H3X  884   0.393   3.795  10.430 -0.0628  1.0030 -0.5616
    7SAPS   H3Y  885   0.531   3.848  10.330 -1.4240 -1.9807 -1.4685
    7SAPS   C34  886   0.372   3.992  10.342 -0.2881  0.0564 -0.8612
    7SAPS   H4X  887   0.433   4.078  10.307  0.2817  0.3838  0.8273
    7SAPS   H4Y  888   0.308   4.017  10.430  0.3087 -1.6697  0.0978
    7SAPS   C35  889   0.295   3.933  10.222  0.4473 -0.1879  0.3286
    7SAPS   H5X  890   0.210   4.001  10.199 -0.1216 -1.0219 -0.1069
    7SAPS   H5Y  891   0.254   3.831  10.241  0.7607 -0.8472 -2.2183
    7SAPS   C36  892   0.370   3.919  10.091 -0.0924 -0.3586 -0.7218
    7SAPS   H6X  893   0.481   3.923  10.103  0.2013  0.8806 -3.1677
    7SAPS   H6Y  894   0.341   4.004  10.025 -0.1750 -1.9477 -2.8355
    7SAPS   C37  895   0.347   3.784  10.022  0.1420  0.5825 -0.0892
    7SAPS   H7X  896   0.237   3.768  10.013  0.5171 -1.9077 -1.1537
    7SAPS   H7Y  897   0.385   3.704  10.089  0.3260  1.4721  0.9047
    7SAPS   C38  898   0.420   3.766   9.895  0.6342  0.3597  0.4185
    7SAPS   H8X  899   0.399   3.665   9.853 -0.7146  1.2152 -1.0725
    7SAPS   H8Y  900   0.531   3.773   9.902  0.6274 -0.4179  1.5460
    7SAPS   C39  901   0.370   3.858   9.784  0.1409  0.3900 -0.1655
    7SAPS   H9X  902   0.399   3.962   9.807  0.2612  0.0353  1.3901
    7SAPS   H9Y  903   0.260   3.847   9.770  0.4874 -4.2901 -1.0949
    7SAPS  C310  904   0.433   3.823   9.649  0.2694 -1.0456 -0.1385
    7SAPS  H10X  905   0.431   3.713   9.634  0.1251 -0.8733 -1.5263
    7SAPS  H10Y  906   0.537   3.859   9.636  0.5206 -1.4502  0.6902
    7SAPS  C311  907   0.351   3.881   9.523  0.1267  0.1986  0.6927
    7SAPS  H11X  908   0.335   3.987   9.551  3.5816  1.2005 -0.6934
    7SAPS  H11Y  909   0.258   3.820   9.509  0.3518 -0.0062  0.0439
    7SAPS  C312  910   0.431   3.877   9.394 -0.5834 -0.0860  0.0975
    7SAPS  H12X  911   0.476   3.776   9.387  1.4217  0.5038  2.6257
    7SAPS  H12Y  912   0.515   3.948   9.414 -1.7961  1.4639 -0.0521
    7SAPS  C313  913   0.343   3.913   9.268 -0.4460 -0.1836  0.0026
    7SAPS  H13X  914   0.306   4.017   9.283  2.6919  1.0290  0.0412
    7SAPS  H13Y  915   0.269   3.830   9.262 -1.3646  0.6467 -0.3157
    7SAPS  C314  916   0.428   3.918   9.137  0.3231 -0.4639  0.1828
    7SAPS  H14X  917   0.466   3.815   9.119  1.5093  0.3031 -2.1166
    7SAPS  H14Y  918   0.511   3.991   9.149  0.6878 -0.9834  0.8587
    7SAPS  C315  919   0.342   3.971   9.021  0.1664 -0.3514 -0.0852
    7SAPS  H15X  920   0.306   4.071   9.055 -0.9438 -1.8533  3.5799
    7SAPS  H15Y  921   0.256   3.903   9.005 -1.6696  1.5933  1.0876
    7SAPS  C316  922   0.426   3.986   8.893 -0.3825  0.7338  0.2006
    7SAPS  H16X  923   0.509   3.912   8.892 -1.0724 -0.1213  1.8865
    7SAPS  H16Y  924   0.474   4.085   8.880 -0.8144  0.7064 -1.9882
    7SAPS  C317  925   0.336   3.978   8.762  0.1647 -0.3356  0.5658
    7SAPS  H17X  926   0.249   4.046   8.774 -2.6222 -3.0638 -2.3280
    7SAPS  H17Y  927   0.292   3.876   8.759 -0.8017  0.0835 -0.1842
    7SAPS  C318  928   0.410   4.024   8.632 -0.1485 -0.0059  0.3048
    7SAPS  H18X  929   0.502   3.963   8.621  0.7460  0.4714  3.8303
    7SAPS  H18Y  930   0.438   4.131   8.640  0.9324 -0.2596 -0.0371
    7SAPS  H18Z  931   0.329   4.009   8.558 -0.0660  0.6118  0.0892
    8SAPS     N  932   4.164   2.578  11.717  0.3086  0.0498  0.3691
    8SAPS   HN1  933   4.177   2.672  11.675 -0.0534  0.0452  0.2409
    8SAPS   HN2  934   4.083   2.582  11.782  0.3974  1.2199  0.4274
    8SAPS   HN3  935   4.259   2.575  11.758 -0.8606  2.4829  3.7750
    8SAPS   C12  936   4.124   2.492  11.597 -0.1676 -0.5357  0.5058
    8SAPS  H12A  937   4.200   2.504  11.521 -1.6199 -2.8709 -1.4654
    8SAPS   C13  938   4.111   2.341  11.634  0.0446  0.2285  0.1024
    8SAPS  O13A  939   4.134   2.297  11.751  0.1412  0.0535 -0.4474
    8SAPS  O13B  940   4.067   2.260  11.549  0.4110 -0.2489 -0.2548
    8SAPS   C11  941   3.998   2.547  11.530  0.3710 -0.0243 -0.2608
    8SAPS  H11A  942   3.918   2.553  11.607  0.6421  4.1305 -0.1161
    8SAPS  H11B  943   3.962   2.477  11.452  1.2221 -0.3536 -0.3798
    8SAPS     P  944   3.898   2.761  11.445 -0.0891  0.2903 -0.4355
    8SAPS   O13  945   3.807   2.762  11.556  1.1132 -0.1910 -0.0734
    8SAPS   O14  946   3.939   2.896  11.392  0.3775 -0.0557  0.4253
    8SAPS   O12  947   4.029   2.677  11.480 -0.7211  0.5540 -0.4524
    8SAPS   O11  948   3.829   2.679  11.336 -0.2642  0.4224 -0.3891
    8SAPS    C1  949   3.900   2.630  11.223  0.1863  0.3295 -0.2610
    8SAPS    HA  950   4.011   2.629  11.233  0.0740 -0.9868  1.1506
    8SAPS    HB  951   3.877   2.522  11.213 -1.0929  0.7337 -2.3789
    8SAPS    C2  952   3.857   2.693  11.093  0.2462  0.2440 -0.5572
    8SAPS    HS  953   3.908   2.636  11.013  0.6891 -1.7432  1.0681
    8SAPS   O21  954   3.891   2.830  11.096  0.2057 -0.4612  0.1381
    8SAPS   C21  955   4.008   2.869  11.063 -0.3552  0.0732  0.0873
    8SAPS   O22  956   4.101   2.796  11.028  0.3908  0.6108  0.1327
    8SAPS   C22  957   4.002   3.019  11.052 -0.2013  0.1775 -0.6348
    8SAPS   H2R  958   3.907   3.050  11.002  0.7515  3.2052 -0.8058
    8SAPS   H2S  959   3.998   3.057  11.156  2.6583  2.3615 -1.1944
    8SAPS    C3  960   3.706   2.680  11.054 -0.1477  0.3107  0.1766
    8SAPS    HX  961   3.635   2.726  11.126 -1.2998  0.0728 -0.7862
    8SAPS    HY  962   3.685   2.570  11.054  1.3802 -0.0158  1.1896
    8SAPS   O31  963   3.690   2.730  10.923  0.1217  0.0609  0.0855
    8SAPS   C31  964   3.657   2.866  10.919 -0.1746  0.0771 -0.2959
    8SAPS   O32  965   3.626   2.933  11.014  0.8757  0.3099 -0.4094
    8SAPS   C32  966   3.640   2.902  10.776  0.1661 -0.6847  0.3206
    8SAPS   H2X  967   3.555   2.973  10.761 -0.1481 -1.6093 -3.2171
    8SAPS   H2Y  968   3.612   2.813  10.716 -2.6536 -0.2029  0.7630
    8SAPS   C23  969   4.125   3.088  10.983  0.9985  0.4971  0.2685
    8SAPS   H3R  970   4.216   3.042  11.027  0.3165  0.4022  1.6535
    8SAPS   H3S  971   4.124   3.199  10.994  2.0671  0.4169  1.3500
    8SAPS   C24  972   4.107   3.070  10.829 -0.0464  0.2259  0.5749
    8SAPS   H4R  973   4.006   3.109  10.806 -0.2354  0.4266  1.6745
    8SAPS   H4S  974   4.120   2.961  10.810  2.9479  0.4052  1.1306
    8SAPS   C25  975   4.209   3.148  10.751 -0.7132  0.3844 -0.2329
    8SAPS   H5R  976   4.309   3.139  10.798 -1.3668 -0.2650  1.0917
    8SAPS   C26  977   4.186   3.221  10.637 -0.1426  0.0501 -1.0224
    8SAPS   H6R  978   4.267   3.283  10.596 -1.8146  1.5276 -2.2209
    8SAPS   C27  979   4.049   3.227  10.569  0.5082  0.0871 -0.2646
    8SAPS   H7R  980   3.973   3.249  10.647  0.8593 -0.7853  0.3374
    8SAPS   H7S  981   4.034   3.135  10.509 -0.9927 -0.1580  0.4389
    8SAPS   C28  982   4.044   3.342  10.477 -0.3334 -0.5167 -0.5858
    8SAPS   H8R  983   4.103   3.431  10.502  2.4413 -1.9306 -1.6712
    8SAPS   C29  984   3.980   3.344  10.358  0.0773 -0.3853  0.6771
    8SAPS   H9R  985   3.975   3.435  10.297 -3.6431 -2.1717 -2.0820
    8SAPS  C210  986   3.901   3.227  10.290 -0.2827 -0.2391 -0.3263
    8SAPS  H10R  987   3.967   3.144  10.258  0.0534 -0.4777  0.9513
    8SAPS  H10S  988   3.873   3.271  10.192 -2.0503 -2.1775 -0.7408
    8SAPS  C211  989   3.783   3.176  10.372 -0.8035 -0.4479 -0.3330
    8SAPS  H11R  990   3.790   3.188  10.481  0.7186 -0.4718 -0.4167
    8SAPS  C212  991   3.676   3.121  10.314  0.2516  0.6087  0.6895
    8SAPS  H12R  992   3.600   3.075  10.380  1.1280 -0.6124  0.8881
    8SAPS  C213  993   3.653   3.093  10.168  0.0418 -0.1535  0.4805
    8SAPS  H13R  994   3.554   3.046  10.152  0.2017  0.2111 -1.9089
    8SAPS  H13S  995   3.746   3.043  10.133  1.3122  2.1906  0.3237
    8SAPS  C214  996   3.628   3.221  10.084  0.1814  0.9120  0.0669
    8SAPS  H14R  997   3.575   3.296  10.145 -1.5034  0.3125 -0.6009
    8SAPS  C215  998   3.646   3.235   9.952  0.6426 -0.5835 -0.2328
    8SAPS  H15R  999   3.627   3.333   9.907  2.3440  0.7495  1.7192
    8SAPS  C216 1000   3.698   3.129   9.860  0.0021  0.8645  0.1632
    8SAPS  H16R 1001   3.639   3.036   9.875  0.4286  0.7374  1.1811
    8SAPS  H16S 1002   3.806   3.107   9.879 -0.5330 -1.4554  0.8223
    8SAPS  C217 1003   3.682   3.172   9.713  0.2400  0.2282 -0.2042
    8SAPS  H17R 1004   3.746   3.262   9.703  0.5920 -0.0030 -0.0233
    8SAPS  H17S 1005   3.574   3.190   9.695  0.1687 -0.0932 -0.1043
    8SAPS  C218 1006   3.723   3.066   9.611  0.5112 -0.1404 -0.2861
    8SAPS  H18R 1007   3.657   2.981   9.639  1.1864 -0.9635 -1.1186
    8SAPS  H18S 1008   3.822   3.026   9.640  0.5638  0.4205  0.3239
    8SAPS  C219 1009   3.705   3.093   9.462  0.4300  0.6648  0.0102
    8SAPS  H19R 1010   3.768   3.181   9.440 -1.1449  2.2063  1.4117
    8SAPS  H19S 1011   3.601   3.123   9.436  0.2264 -0.3549 -0.4105
    8SAPS  C220 1012   3.751   2.975   9.370  0.1258  0.2852  0.1972
    8SAPS  H20R 1013   3.837   2.931   9.425  0.0725  2.0661  1.7874
    8SAPS  H20S 1014   3.795   3.005   9.272 -0.0841 -0.7605 -0.2314
    8SAPS  H20T 1015   3.676   2.894   9.358  1.4984 -1.2240  1.4588
    8SAPS   C33 1016   3.767   2.964  10.714 -0.0602 -0.0569  0.7956
    8SAPS   H3X 1017   3.798   3.044  10.784 -0.0328 -0.5191  1.3145
    8SAPS   H3Y 1018   3.744   2.997  10.610  1.5159 -1.1334  0.0493
    8SAPS   C34 1019   3.884   2.858  10.701 -0.6519  0.8217 -0.3015
    8SAPS   H4X 1020   3.915   2.823  10.802 -2.0274 -2.3261 -0.8407
    8SAPS   H4Y 1021   3.973   2.907  10.657 -0.6670 -2.1196 -4.1975
    8SAPS   C35 1022   3.848   2.728  10.611  0.5248 -0.5863  0.3874
    8SAPS   H5X 1023   3.759   2.683  10.660 -0.7942  0.9710 -0.4744
    8SAPS   H5Y 1024   3.927   2.651  10.601  0.1068 -1.2275  1.7863
    8SAPS   C36 1025   3.804   2.769  10.469  0.1466  0.5092  0.7161
    8SAPS   H6X 1026   3.883   2.832  10.422  0.9399 -0.9502  0.0231
    8SAPS   H6Y 1027   3.704   2.816  10.460 -0.9401 -1.9247 -1.3619
    8SAPS   C37 1028   3.786   2.645  10.376  0.6931  0.2688 -0.0932
    8SAPS   H7X 1029   3.692   2.594  10.407 -0.7452  2.6578 -0.2805
    8SAPS   H7Y 1030   3.868   2.571  10.385 -0.4426 -0.8969  1.2547
    8SAPS   C38 1031   3.796   2.695  10.230  0.1244  0.1706 -0.0860
    8SAPS   H8X 1032   3.902   2.713  10.203 -0.3060  0.3771 -1.6860
    8SAPS   H8Y 1033   3.726   2.779  10.211  2.1998  2.3152  1.2130
    8SAPS   C39 1034   3.752   2.582  10.140 -0.5806 -0.4868  0.5032
    8SAPS   H9X 1035   3.649   2.553  10.172 -0.7541 -0.0247  0.3756
    8SAPS   H9Y 1036   3.816   2.491  10.147 -1.0040 -1.2020 -3.0118
    8SAPS  C310 1037   3.759   2.628   9.993  0.1792 -0.3694  0.1521
    8SAPS  H10X 1038   3.757   2.533   9.933  0.6852  0.2444 -0.8655
    8SAPS  H10Y 1039   3.852   2.687   9.983  0.4199 -0.5901  1.0428
    8SAPS  C311 1040   3.633   2.704   9.952  0.3409  0.3908  0.0496
    8SAPS  H11X 1041   3.641   2.802  10.004  0.7087  0.2999  0.1664
    8SAPS  H11Y 1042   3.544   2.651   9.993  2.2799 -1.8567  1.5409
    8SAPS  C312 1043   3.629   2.745   9.806  0.0735  0.4277  1.1687
    8SAPS  H12X 1044   3.728   2.793   9.795 -0.3302  1.3417  1.4030
    8SAPS  H12Y 1045   3.550   2.823   9.805 -2.7032 -2.2085 -0.2331
    8SAPS  C313 1046   3.596   2.640   9.703  0.8939 -0.2126  0.1400
    8SAPS  H13X 1047   3.493   2.605   9.723  0.1550  0.7596 -1.7589
    8SAPS  H13Y 1048   3.666   2.555   9.720  0.9795 -0.7191 -2.4534
    8SAPS  C314 1049   3.599   2.682   9.560  0.1001 -0.3251 -0.5305
    8SAPS  H14X 1050   3.688   2.743   9.533 -0.9617  2.5452  1.8505
    8SAPS  H14Y 1051   3.515   2.753   9.544  2.3850  3.0337  1.0758
    8SAPS  C315 1052   3.585   2.554   9.474  0.0711 -0.1008 -1.0745
    8SAPS  H15X 1053   3.488   2.505   9.496  0.8838 -0.8186  1.1947
    8SAPS  H15Y 1054   3.670   2.487   9.501  0.7486  0.9768 -0.4757
    8SAPS  C316 1055   3.578   2.583   9.321 -0.7672 -0.0098  0.3137
    8SAPS  H16X 1056   3.574   2.691   9.298  1.7468 -0.4755 -3.0282
    8SAPS  H16Y 1057   3.482   2.541   9.282  0.0830 -0.6583 -1.1779
    8SAPS  C317 1058   3.702   2.532   9.244 -0.2510 -0.0165 -0.2932
    8SAPS  H17X 1059   3.718   2.425   9.267  0.6536 -0.2824 -1.9812
    8SAPS  H17Y 1060   3.788   2.594   9.279  0.6216  0.2816 -2.7547
    8SAPS  C318 1061   3.698   2.545   9.088 -0.3501  0.0482 -0.6605
    8SAPS  H18X 1062   3.715   2.646   9.047  1.1585  0.0880  0.0018
    8SAPS  H18Y 1063   3.613   2.491   9.041 -0.8250  1.4465 -1.4401
    8SAPS  H18Z 1064   3.784   2.489   9.045  0.1011  0.4846 -0.3350
    9SAPS     N 1065   1.931   6.374   6.396  0.2235  0.2920 -0.5599
    9SAPS   HN1 1066   1.892   6.289   6.443 -0.0535  1.3682  1.2314
    9SAPS   HN2 1067   1.896   6.449   6.459 -1.0490 -0.0110 -0.8661
    9SAPS   HN3 1068   1.885   6.399   6.306  1.7083  1.6106 -0.9878
    9SAPS   C12 1069   2.083   6.371   6.373 -0.3599  0.5176  0.6172
    9SAPS  H12A 1070   2.132   6.399   6.465  1.9690 -0.4067 -0.2649
    9SAPS   C13 1071   2.146   6.232   6.341  0.5214  0.1308 -0.4120
    9SAPS  O13A 1072   2.079   6.126   6.348  0.5145  0.8354 -0.1676
    9SAPS  O13B 1073   2.269   6.231   6.318  0.4078  0.7895  0.1089
    9SAPS   C11 1074   2.120   6.468   6.262 -0.2024 -0.1154 -0.2500
    9SAPS  H11A 1075   2.069   6.443   6.166 -0.5895 -0.8294  0.1297
    9SAPS  H11B 1076   2.227   6.468   6.235 -0.2714  0.9476 -0.5667
    9SAPS     P 1077   2.172   6.684   6.408  0.0858  0.1131  0.3725
    9SAPS   O13 1078   2.186   6.598   6.525  0.4885 -0.6304 -0.7701
    9SAPS   O14 1079   2.300   6.739   6.346  0.1222  0.0895 -0.5097
    9SAPS   O12 1080   2.091   6.605   6.298 -0.2557  0.2182 -0.1144
    9SAPS   O11 1081   2.067   6.798   6.419  0.1526  0.4735 -0.8591
    9SAPS    C1 1082   2.098   6.934   6.453  0.7174  0.4884 -0.3189
    9SAPS    HA 1083   2.203   6.956   6.427  1.3495 -2.1145 -0.2557
    9SAPS    HB 1084   2.041   7.000   6.385  1.6196 -0.6339 -2.2398
    9SAPS    C2 1085   2.061   6.972   6.597 -0.1464  0.4135  0.2635
    9SAPS    HS 1086   2.098   7.074   6.619  2.8358 -0.3506 -0.7754
    9SAPS   O21 1087   2.127   6.879   6.695  0.2079 -1.3072 -0.7238
    9SAPS   C21 1088   2.257   6.884   6.699  0.1919 -0.1286 -0.2222
    9SAPS   O22 1089   2.328   6.955   6.631 -0.4219 -0.0031  0.2047
    9SAPS   C22 1090   2.308   6.791   6.808 -0.3511 -0.5516 -0.0827
    9SAPS   H2R 1091   2.238   6.821   6.888 -0.7278  2.1972 -1.3236
    9SAPS   H2S 1092   2.277   6.685   6.794  1.3344 -1.0018 -0.6982
    9SAPS    C3 1093   1.912   6.965   6.620 -0.2716  0.1027  0.7513
    9SAPS    HX 1094   1.887   6.860   6.591 -0.9362 -0.5101  3.3018
    9SAPS    HY 1095   1.857   7.027   6.546 -1.8572  1.9486  3.2975
    9SAPS   O31 1096   1.876   6.988   6.753  0.3531 -0.5418  0.6542
    9SAPS   C31 1097   1.853   7.118   6.777  0.8531 -0.1525 -0.4435
    9SAPS   O32 1098   1.888   7.206   6.703  0.3866  0.2543 -0.5211
    9SAPS   C32 1099   1.773   7.127   6.905 -0.2031 -0.5004 -0.1597
    9SAPS   H2X 1100   1.834   7.076   6.983 -1.5679  3.1373  3.6679
    9SAPS   H2Y 1101   1.676   7.074   6.887 -0.3691 -0.2027 -0.1460
    9SAPS   C23 1102   2.457   6.814   6.848  1.0016  0.0557  0.4228
    9SAPS   H3R 1103   2.478   6.923   6.843 -0.0694  0.3290  1.3965
    9SAPS   H3S 1104   2.519   6.762   6.772  1.6533  0.8308  0.4158
    9SAPS   C24 1105   2.486   6.767   6.999  0.3590  0.5509 -0.2471
    9SAPS   H4R 1106   2.420   6.826   7.066 -1.1513 -1.0919 -0.1842
    9SAPS   H4S 1107   2.588   6.789   7.036  1.6284 -0.3729 -2.9042
    9SAPS   C25 1108   2.432   6.630   7.030 -0.0563  0.1476 -0.0900
    9SAPS   H5R 1109   2.499   6.555   6.987 -0.1065 -0.0744  0.2157
    9SAPS   C26 1110   2.331   6.582   7.105 -1.3616 -0.1389  0.9512
    9SAPS   H6R 1111   2.331   6.474   7.127  1.3312  0.1894  3.1307
    9SAPS   C27 1112   2.243   6.660   7.194  1.2344  0.7148 -0.0552
    9SAPS   H7R 1113   2.190   6.739   7.136 -1.0598  0.2617  1.3113
    9SAPS   H7S 1114   2.301   6.713   7.273 -0.5788 -0.1080  1.9232
    9SAPS   C28 1115   2.145   6.566   7.266  0.4220  0.4567 -0.1899
    9SAPS   H8R 1116   2.064   6.520   7.207  1.5887 -0.2532 -1.3214
    9SAPS   C29 1117   2.150   6.523   7.392  0.0648  0.5758 -0.3649
    9SAPS   H9R 1118   2.087   6.445   7.437  0.4131  0.3140 -0.3199
    9SAPS  C210 1119   2.257   6.553   7.494  0.4315 -0.3219  0.4341
    9SAPS  H10R 1120   2.238   6.644   7.555  0.4226 -0.4423  0.6129
    9SAPS  H10S 1121   2.350   6.575   7.439  0.6615  1.0072  1.2888
    9SAPS  C211 1122   2.281   6.432   7.579  0.1714  0.6286  0.2055
    9SAPS  H11R 1123   2.345   6.351   7.542 -0.7208 -0.9297  1.8795
    9SAPS  C212 1124   2.234   6.403   7.697 -0.2773 -0.0724  0.3887
    9SAPS  H12R 1125   2.274   6.314   7.748 -1.9271 -1.4976 -0.6683
    9SAPS  C213 1126   2.139   6.491   7.780 -0.1952 -0.4089 -0.4907
    9SAPS  H13R 1127   2.058   6.439   7.836  1.2132 -0.1644  1.9380
    9SAPS  H13S 1128   2.094   6.568   7.715  0.6962  0.3370 -0.2467
    9SAPS  C214 1129   2.217   6.561   7.883  0.1248  0.0973 -0.1651
    9SAPS  H14R 1130   2.257   6.659   7.852  0.4148 -0.1350 -0.5237
    9SAPS  C215 1131   2.254   6.519   8.007 -0.6885  0.0922 -0.1005
    9SAPS  H15R 1132   2.313   6.592   8.066 -0.3526  2.1791 -2.8242
    9SAPS  C216 1133   2.215   6.390   8.072 -0.1571 -0.0821 -0.1291
    9SAPS  H16R 1134   2.306   6.329   8.089 -0.2262  0.2101  1.4560
    9SAPS  H16S 1135   2.145   6.327   8.013  0.0729 -0.1514 -0.3328
    9SAPS  C217 1136   2.159   6.411   8.218  0.4241 -0.1380  0.8435
    9SAPS  H17R 1137   2.058   6.456   8.222  0.9381  1.0177  1.1023
    9SAPS  H17S 1138   2.225   6.489   8.262  0.0630  1.1575 -0.8153
    9SAPS  C218 1139   2.148   6.285   8.304  0.7540  0.6953 -0.8070
    9SAPS  H18R 1140   2.247   6.237   8.310  0.3006 -0.0940  1.5916
    9SAPS  H18S 1141   2.075   6.209   8.270 -2.0891  1.2034  3.2742
    9SAPS  C219 1142   2.104   6.313   8.449  0.5321  0.2467 -0.3834
    9SAPS  H19R 1143   1.996   6.333   8.437  0.3071  1.0102  2.2606
    9SAPS  H19S 1144   2.164   6.400   8.483 -0.9372  1.3463 -0.5537
    9SAPS  C220 1145   2.118   6.192   8.542  0.4040  0.3701 -0.6798
    9SAPS  H20R 1146   2.061   6.110   8.494  1.0747 -0.4780 -0.0562
    9SAPS  H20S 1147   2.057   6.211   8.633  0.9115  0.4206 -0.3457
    9SAPS  H20T 1148   2.222   6.172   8.576  0.2151 -1.8760 -1.3106
    9SAPS   C33 1149   1.720   7.264   6.954 -0.3851  0.3608  0.8401
    9SAPS   H3X 1150   1.625   7.292   6.904 -0.3255  0.1579  0.6134
    9SAPS   H3Y 1151   1.795   7.343   6.931 -0.7485  0.0720 -1.6334
    9SAPS   C34 1152   1.672   7.269   7.100  0.0763  0.1726 -0.9075
    9SAPS   H4X 1153   1.586   7.201   7.115  0.3902 -0.0114  0.1306
    9SAPS   H4Y 1154   1.631   7.372   7.113 -3.1613 -1.0897 -0.2106
    9SAPS   C35 1155   1.780   7.261   7.205 -0.0076 -0.2852 -0.5371
    9SAPS   H5X 1156   1.854   7.342   7.186 -0.5013 -0.0501 -1.5450
    9SAPS   H5Y 1157   1.823   7.159   7.197  0.3278 -0.0843 -1.3872
    9SAPS   C36 1158   1.708   7.281   7.340 -0.4909 -0.1779  0.5366
    9SAPS   H6X 1159   1.622   7.210   7.339 -0.7164 -0.0051 -2.6380
    9SAPS   H6Y 1160   1.664   7.383   7.343  2.1994  1.0283  2.6015
    9SAPS   C37 1161   1.795   7.272   7.468  0.4505  0.5320 -0.3489
    9SAPS   H7X 1162   1.877   7.345   7.450 -0.4817  1.4281 -1.0858
    9SAPS   H7Y 1163   1.827   7.166   7.477 -0.6096  0.1496 -1.0029
    9SAPS   C38 1164   1.722   7.325   7.584  0.1153  0.4444  0.0909
    9SAPS   H8X 1165   1.621   7.278   7.579  0.2190  0.2823 -0.6978
    9SAPS   H8Y 1166   1.707   7.432   7.557  1.5735  0.7767  0.5157
    9SAPS   C39 1167   1.792   7.311   7.718 -0.8554 -0.8998 -0.4489
    9SAPS   H9X 1168   1.723   7.352   7.795  1.1054 -0.5554  1.2457
    9SAPS   H9Y 1169   1.886   7.370   7.734 -1.6988  0.4308 -0.1795
    9SAPS  C310 1170   1.829   7.163   7.748  0.1599 -0.3074 -0.0914
    9SAPS  H10X 1171   1.927   7.151   7.699 -0.2253  2.3434 -1.7104
    9SAPS  H10Y 1172   1.751   7.099   7.701 -0.7973  0.2990  0.6189
    9SAPS  C311 1173   1.816   7.127   7.898 -0.4939  0.2935  0.2104
    9SAPS  H11X 1174   1.723   7.170   7.940 -1.7151  0.6544 -2.6083
    9SAPS  H11Y 1175   1.903   7.182   7.942 -0.4005  0.7076 -0.4774
    9SAPS  C312 1176   1.809   6.979   7.934 -0.2369 -0.6661  0.3568
    9SAPS  H12X 1177   1.849   6.920   7.849 -2.8671 -0.2642 -1.2726
    9SAPS  H12Y 1178   1.703   6.946   7.935 -0.9686  1.5501  1.0122
    9SAPS  C313 1179   1.862   6.946   8.076  0.0087  0.0234 -0.1660
    9SAPS  H13X 1180   1.814   6.853   8.113  0.4487 -0.4272 -0.7109
    9SAPS  H13Y 1181   1.830   7.031   8.141  0.5496 -1.2764  1.8780
    9SAPS  C314 1182   2.017   6.932   8.075 -0.1218 -0.4412 -0.6566
    9SAPS  H14X 1183   2.054   7.026   8.029  1.9614 -0.7395  0.3123
    9SAPS  H14Y 1184   2.048   6.853   8.004  1.3789  0.2368 -0.7965
    9SAPS  C315 1185   2.090   6.904   8.212  0.8785 -0.5521  0.3477
    9SAPS  H15X 1186   2.142   6.987   8.264 -0.4635  0.1240  0.6662
    9SAPS  H15Y 1187   2.176   6.843   8.179  2.3118  1.1116  0.8880
    9SAPS  C316 1188   2.016   6.820   8.315  0.8116 -0.3097  0.5278
    9SAPS  H16X 1189   1.960   6.744   8.257 -2.9264  1.9260  0.8667
    9SAPS  H16Y 1190   1.941   6.886   8.364  0.7693 -0.1233  0.2161
    9SAPS  C317 1191   2.120   6.763   8.411 -0.6185  0.1439 -0.0058
    9SAPS  H17X 1192   2.187   6.846   8.442 -0.2709 -0.0003 -0.3726
    9SAPS  H17Y 1193   2.180   6.691   8.353  0.9232  0.6485  0.9041
    9SAPS  C318 1194   2.063   6.678   8.526  0.3576  0.0188  0.0620
    9SAPS  H18X 1195   1.973   6.728   8.568 -0.7106 -1.8330  0.0654
    9SAPS  H18Y 1196   2.147   6.664   8.596  1.0125  0.2137 -0.6673
    9SAPS  H18Z 1197   2.024   6.584   8.480 -0.1003 -0.0005  0.4829
   10SAPS     N 1198   1.361   1.196   6.295  0.1545  0.2806 -0.1904
   10SAPS   HN1 1199   1.392   1.217   6.199  2.4176  1.7187  0.7697
   10SAPS   HN2 1200   1.259   1.206   6.313 -0.0617 -0.6828 -0.8085
   10SAPS   HN3 1201   1.409   1.264   6.358 -2.0857  2.4617 -0.6849
   10SAPS   C12 1202   1.400   1.049   6.330 -0.1108  0.1518  0.0189
   10SAPS  H12A 1203   1.407   1.037   6.437  0.6433 -2.1470 -0.2494
   10SAPS   C13 1204   1.308   0.944   6.273  0.2677  0.3467 -0.5912
   10SAPS  O13A 1205   1.207   0.980   6.203  0.2496 -1.0594  0.0215
   10SAPS  O13B 1206   1.323   0.821   6.294 -0.4014  0.1331  0.0961
   10SAPS   C11 1207   1.537   1.020   6.273 -0.1252 -0.4686 -0.1910
   10SAPS  H11A 1208   1.533   1.038   6.163 -0.4081 -0.0397 -0.1112
   10SAPS  H11B 1209   1.557   0.911   6.283  1.2428 -0.0321  2.6766
   10SAPS     P 1210   1.758   1.035   6.414  0.3547  0.0076 -0.1472
   10SAPS   O13 1211   1.836   0.969   6.304  0.2809 -0.3240  0.3575
   10SAPS   O14 1212   1.829   1.132   6.493  0.1960 -0.7482 -0.0145
   10SAPS   O12 1213   1.634   1.107   6.343  0.1927  0.8964  0.0141
   10SAPS   O11 1214   1.692   0.926   6.502 -0.2603  0.0364 -0.0800
   10SAPS    C1 1215   1.753   0.798   6.524  0.2261 -0.6462  1.1818
   10SAPS    HA 1216   1.682   0.722   6.484 -1.3706  1.3416  0.0259
   10SAPS    HB 1217   1.844   0.778   6.465 -0.3247  0.0846  0.0469
   10SAPS    C2 1218   1.778   0.773   6.676  0.0247  0.7092 -0.4602
   10SAPS    HS 1219   1.795   0.663   6.682  0.4424  0.8568  1.8257
   10SAPS   O21 1220   1.665   0.810   6.761 -0.3640  0.4689  0.0871
   10SAPS   C21 1221   1.548   0.752   6.736  0.5165  0.3675  0.1398
   10SAPS   O22 1222   1.518   0.662   6.655 -0.2374  0.0952 -0.0862
   10SAPS   C22 1223   1.449   0.836   6.819  0.8900 -0.1678  0.3157
   10SAPS   H2R 1224   1.442   0.936   6.771 -1.2702  0.6690  2.2270
   10SAPS   H2S 1225   1.353   0.784   6.798  1.5675 -1.3752  0.1347
   10SAPS    C3 1226   1.902   0.844   6.730  0.3985  0.2750 -0.2016
   10SAPS    HX 1227   1.880   0.952   6.744 -0.2376 -0.0812  1.7393
   10SAPS    HY 1228   1.977   0.846   6.647 -0.7183 -0.2582 -1.2466
   10SAPS   O31 1229   1.939   0.788   6.855 -0.0528 -0.0927 -0.2307
   10SAPS   C31 1230   2.000   0.873   6.942 -0.0418  0.6228  0.5083
   10SAPS   O32 1231   2.068   0.970   6.909  0.1471  0.3788  0.2783
   10SAPS   C32 1232   1.958   0.834   7.082 -0.8654  0.1517 -0.2675
   10SAPS   H2X 1233   2.044   0.774   7.118 -0.7284 -0.4124 -1.4710
   10SAPS   H2Y 1234   1.875   0.761   7.080 -0.7233 -0.0519  0.7496
   10SAPS   C23 1235   1.474   0.819   6.972  1.1278  0.5938  0.1490
   10SAPS   H3R 1236   1.565   0.874   7.002  2.0911 -0.2031 -1.2218
   10SAPS   H3S 1237   1.493   0.715   7.006  0.7836  0.9241  1.4034
   10SAPS   C24 1238   1.349   0.866   7.052  1.1243  0.3108  0.9544
   10SAPS   H4R 1239   1.331   0.973   7.027  0.0017 -0.6548 -3.2131
   10SAPS   H4S 1240   1.375   0.850   7.159 -0.5299 -0.0384  1.3388
   10SAPS   C25 1241   1.213   0.795   7.031 -0.0405  0.6740 -0.9667
   10SAPS   H5R 1242   1.190   0.781   6.924 -1.2059 -1.0580 -0.5191
   10SAPS   C26 1243   1.131   0.754   7.129  0.4091  0.3581 -0.0733
   10SAPS   H6R 1244   1.050   0.691   7.089  0.0607  2.0822 -2.2691
   10SAPS   C27 1245   1.147   0.760   7.285 -0.0756  0.1064  0.6910
   10SAPS   H7R 1246   1.242   0.715   7.323  0.8962 -0.1204 -1.7861
   10SAPS   H7S 1247   1.074   0.689   7.329  0.2312 -0.6594 -0.0035
   10SAPS   C28 1248   1.114   0.898   7.339  0.1913 -0.5074  0.2953
   10SAPS   H8R 1249   1.023   0.941   7.294  1.7467  0.8846 -1.7238
   10SAPS   C29 1250   1.155   0.952   7.450 -0.0271  0.4777  0.0472
   10SAPS   H9R 1251   1.129   1.052   7.486 -0.2748  0.0263  1.1920
   10SAPS  C210 1252   1.250   0.882   7.554  0.2566 -0.0254 -0.0469
   10SAPS  H10R 1253   1.335   0.946   7.584 -1.0081  0.8959  1.8117
   10SAPS  H10S 1254   1.300   0.795   7.506 -1.1544 -0.5188 -0.7080
   10SAPS  C211 1255   1.184   0.847   7.688 -0.0451 -0.0262  0.2455
   10SAPS  H11R 1256   1.084   0.805   7.670  0.2236 -0.7415  0.3963
   10SAPS  C212 1257   1.213   0.869   7.817 -0.3406  0.3239 -0.3633
   10SAPS  H12R 1258   1.142   0.834   7.893  0.6631  1.5314  1.1880
   10SAPS  C213 1259   1.339   0.933   7.873 -0.2337  0.2512 -0.6742
   10SAPS  H13R 1260   1.310   0.993   7.962 -1.1654 -0.9615 -0.1291
   10SAPS  H13S 1261   1.384   0.990   7.789  0.4887 -1.7491 -1.7106
   10SAPS  C214 1262   1.444   0.830   7.911  0.4428  0.1012 -0.3092
   10SAPS  H14R 1263   1.456   0.758   7.829 -0.3428 -0.5141  0.1004
   10SAPS  C215 1264   1.492   0.799   8.036  0.1764  0.3295  0.4025
   10SAPS  H15R 1265   1.568   0.721   8.054 -0.2525 -0.6145 -1.5550
   10SAPS  C216 1266   1.450   0.869   8.171  0.0907  0.2570  0.6558
   10SAPS  H16R 1267   1.376   0.950   8.154  0.1484 -0.1222 -1.7378
   10SAPS  H16S 1268   1.538   0.918   8.219 -0.6534  1.8613  0.4456
   10SAPS  C217 1269   1.387   0.771   8.277  0.3747  0.1021 -0.3650
   10SAPS  H17R 1270   1.292   0.722   8.247  0.6830  0.3825 -1.8901
   10SAPS  H17S 1271   1.354   0.831   8.364  1.0880 -1.8639  1.3361
   10SAPS  C218 1272   1.494   0.673   8.330  0.3865 -0.7003  0.5197
   10SAPS  H18R 1273   1.583   0.737   8.345  0.9631 -1.1262 -0.9579
   10SAPS  H18S 1274   1.526   0.601   8.252  1.2113 -0.4459  0.6150
   10SAPS  C219 1275   1.460   0.593   8.458 -0.1295  0.1160  0.5964
   10SAPS  H19R 1276   1.360   0.550   8.437 -0.2389  1.1188 -1.1132
   10SAPS  H19S 1277   1.453   0.663   8.544  0.3342 -0.8786  1.4694
   10SAPS  C220 1278   1.566   0.487   8.489  0.5228  0.3112 -0.1127
   10SAPS  H20R 1279   1.569   0.407   8.413 -0.2033  1.8698 -1.8757
   10SAPS  H20S 1280   1.534   0.438   8.584 -1.4712 -1.0439 -1.4197
   10SAPS  H20T 1281   1.669   0.524   8.506  0.8365  0.5557 -2.2726
   10SAPS   C33 1282   1.924   0.953   7.168 -0.1571 -0.9087 -0.5259
   10SAPS   H3X 1283   1.861   1.029   7.117  1.1286  0.1260 -0.6321
   10SAPS   H3Y 1284   2.021   0.997   7.201 -0.1206 -0.4258 -1.2430
   10SAPS   C34 1285   1.838   0.909   7.289  0.1962  0.1908  0.3936
   10SAPS   H4X 1286   1.886   0.829   7.349 -0.2929  1.0050  1.9221
   10SAPS   H4Y 1287   1.745   0.868   7.245  0.4974  0.8573 -0.9238
   10SAPS   C35 1288   1.805   1.013   7.399 -0.7092 -0.4599  0.2566
   10SAPS   H5X 1289   1.739   1.093   7.358  1.4004  0.3187 -1.8243
   10SAPS   H5Y 1290   1.905   1.061   7.408 -0.7904  0.1562 -1.7436
   10SAPS   C36 1291   1.742   0.973   7.533  0.1380 -0.3300  0.2189
   10SAPS   H6X 1292   1.646   0.919   7.519 -0.4121  1.1304 -2.4069
   10SAPS   H6Y 1293   1.697   1.063   7.580 -0.9937 -0.7163 -0.0807
   10SAPS   C37 1294   1.838   0.918   7.640  0.5216 -1.3997  0.0167
   10SAPS   H7X 1295   1.909   0.997   7.669 -0.2102 -1.3920  1.9742
   10SAPS   H7Y 1296   1.894   0.826   7.613  2.7334 -0.7293  2.0607
   10SAPS   C38 1297   1.766   0.906   7.780 -0.1077 -0.1113  0.0847
   10SAPS   H8X 1298   1.683   0.832   7.774 -0.1766 -0.0051 -0.3612
   10SAPS   H8Y 1299   1.723   1.007   7.797 -0.6751 -0.3983  0.3631
   10SAPS   C39 1300   1.863   0.885   7.895  0.0669  0.3233 -0.2062
   10SAPS   H9X 1301   1.962   0.935   7.880  0.8879 -0.2673  2.6995
   10SAPS   H9Y 1302   1.876   0.779   7.923 -0.0103  0.3026 -0.2494
   10SAPS  C310 1303   1.809   0.962   8.020  0.2749 -0.0642  0.7249
   10SAPS  H10X 1304   1.698   0.956   8.033  0.0145  1.4078 -0.5968
   10SAPS  H10Y 1305   1.823   1.068   7.993 -2.9364  0.0436 -1.0611
   10SAPS  C311 1306   1.885   0.941   8.152 -0.3272  0.3052 -1.0174
   10SAPS  H11X 1307   1.858   1.027   8.216 -1.0055 -1.0471  0.5845
   10SAPS  H11Y 1308   1.993   0.952   8.130 -0.9002  1.1236 -3.9735
   10SAPS  C312 1309   1.853   0.814   8.235  0.1971  0.3227  0.0070
   10SAPS  H12X 1310   1.810   0.736   8.168  0.5406  0.6372 -0.5877
   10SAPS  H12Y 1311   1.784   0.843   8.317  1.3208  0.3920  0.9464
   10SAPS  C313 1312   1.980   0.747   8.292 -0.8051  0.5077 -0.2908
   10SAPS  H13X 1313   2.032   0.812   8.366  1.8764 -1.3861 -0.3707
   10SAPS  H13Y 1314   2.051   0.741   8.207 -0.5002  0.1745 -0.0135
   10SAPS  C314 1315   1.952   0.610   8.356 -0.2006  0.0327  0.0822
   10SAPS  H14X 1316   1.934   0.536   8.275  0.8147  2.1111 -2.1824
   10SAPS  H14Y 1317   1.855   0.620   8.409  0.2079 -1.0610  1.0634
   10SAPS  C315 1318   2.071   0.548   8.431 -0.1937 -0.6457  0.2739
   10SAPS  H15X 1319   2.038   0.455   8.482 -1.3449  0.4001  1.5229
   10SAPS  H15Y 1320   2.096   0.624   8.508  2.1384  0.4742 -1.4528
   10SAPS  C316 1321   2.202   0.534   8.335  0.0597  0.8480  0.4346
   10SAPS  H16X 1322   2.249   0.627   8.298  1.4151 -0.2190 -0.6388
   10SAPS  H16Y 1323   2.175   0.475   8.245 -0.6519  1.5589  0.1738
   10SAPS  C317 1324   2.307   0.447   8.401 -0.9101  0.3056 -0.6518
   10SAPS  H17X 1325   2.264   0.356   8.448 -2.0467  1.0216 -0.2581
   10SAPS  H17Y 1326   2.357   0.505   8.482 -2.7866  1.0302  0.0452
   10SAPS  C318 1327   2.411   0.401   8.296 -0.1955  0.6322 -0.6990
   10SAPS  H18X 1328   2.503   0.390   8.356  0.2598  1.1698 -1.2791
   10SAPS  H18Y 1329   2.419   0.472   8.211 -2.9179  1.1919 -0.5968
   10SAPS  H18Z 1330   2.376   0.302   8.258 -0.1698 -0.4712  1.9801
   11SAPS     N 1331   0.962   2.974   5.868  0.1884 -0.2461  0.0512
   11SAPS   HN1 1332   0.957   3.061   5.925  0.7397 -0.4312  0.3915
   11SAPS   HN2 1333   0.869   2.950   5.828  0.6257 -2.5318  0.2644
   11SAPS   HN3 1334   1.000   2.889   5.914 -2.3161 -1.2978  0.3135
   11SAPS   C12 1335   1.057   3.009   5.745 -0.6790 -0.0757 -0.4161
   11SAPS  H12A 1336   1.061   2.913   5.696 -1.4563 -1.7870  2.6015
   11SAPS   C13 1337   1.005   3.130   5.654 -0.2120  0.3768  0.1982
   11SAPS  O13A 1338   0.898   3.184   5.678  1.1657  0.0736  0.8340
   11SAPS  O13B 1339   1.077   3.167   5.560 -1.0943 -0.6468 -0.2134
   11SAPS   C11 1340   1.206   3.031   5.796 -0.8880 -0.5678  0.2336
   11SAPS  H11A 1341   1.266   3.043   5.703 -1.9148  0.3056 -0.3473
   11SAPS  H11B 1342   1.244   2.942   5.850  2.3894  0.3361 -0.3343
   11SAPS     P 1343   1.328   3.239   5.875 -0.1530  0.2065 -0.1788
   11SAPS   O13 1344   1.444   3.180   5.803 -0.1856 -0.2690  0.3344
   11SAPS   O14 1345   1.264   3.365   5.827 -0.1354 -0.2463  0.0222
   11SAPS   O12 1346   1.208   3.141   5.888  0.0373  0.0132 -0.0732
   11SAPS   O11 1347   1.362   3.240   6.031 -0.1151  0.0105 -0.1093
   11SAPS    C1 1348   1.413   3.118   6.087 -0.3633 -0.2238  0.7798
   11SAPS    HA 1349   1.329   3.047   6.108  0.0802 -1.0905 -0.3021
   11SAPS    HB 1350   1.493   3.068   6.030 -0.6649  0.4006 -0.2065
   11SAPS    C2 1351   1.478   3.141   6.222 -0.0393  0.1824  0.3459
   11SAPS    HS 1352   1.525   3.043   6.245 -2.1287 -0.9827 -0.0926
   11SAPS   O21 1353   1.381   3.184   6.323  0.5166  0.6538  0.2269
   11SAPS   C21 1354   1.310   3.095   6.380 -0.1434 -0.3921 -0.8263
   11SAPS   O22 1355   1.310   2.977   6.354  0.1516 -0.1283 -0.2757
   11SAPS   C22 1356   1.219   3.142   6.491  1.1578  0.5316  0.2224
   11SAPS   H2R 1357   1.271   3.205   6.567 -0.5430  0.9780  1.0566
   11SAPS   H2S 1358   1.140   3.207   6.448  2.0491  1.0895 -0.6126
   11SAPS    C3 1359   1.586   3.244   6.215 -0.3505  0.3874 -0.6638
   11SAPS    HX 1360   1.540   3.344   6.196 -0.0649  0.4669 -0.9490
   11SAPS    HY 1361   1.651   3.215   6.130  0.8983  1.5274 -0.1367
   11SAPS   O31 1362   1.679   3.248   6.329 -0.2336  0.4333 -0.0165
   11SAPS   C31 1363   1.749   3.357   6.334 -0.1894  0.6267 -0.2424
   11SAPS   O32 1364   1.742   3.450   6.259  0.8481  0.1599  0.6538
   11SAPS   C32 1365   1.848   3.347   6.454 -0.6066 -0.1466 -0.0330
   11SAPS   H2X 1366   1.946   3.304   6.423  1.4935  2.8481  1.9833
   11SAPS   H2Y 1367   1.805   3.273   6.525 -0.7189  0.6055  0.6984
   11SAPS   C23 1368   1.155   3.032   6.579 -0.1391  0.2953  0.1391
   11SAPS   H3R 1369   1.240   2.981   6.629  1.0674  1.9679 -0.1194
   11SAPS   H3S 1370   1.095   2.966   6.513 -0.2639 -1.0145  1.5083
   11SAPS   C24 1371   1.047   3.087   6.678  0.4409  0.2678  0.1396
   11SAPS   H4R 1372   0.981   3.144   6.610 -0.2637  1.3396  1.6636
   11SAPS   H4S 1373   1.097   3.163   6.741  0.3544  1.8105 -1.5784
   11SAPS   C25 1374   0.957   2.998   6.768 -0.0546  0.3829  0.5966
   11SAPS   H5R 1375   0.852   3.004   6.736 -0.0092  0.1893  0.4105
   11SAPS   C26 1376   1.000   2.905   6.863 -0.3853  0.5468  0.5113
   11SAPS   H6R 1377   0.925   2.841   6.912 -0.6499  0.6056  0.1794
   11SAPS   C27 1378   1.143   2.874   6.913 -0.2535 -0.2174  0.1435
   11SAPS   H7R 1379   1.176   2.953   6.984  2.0858 -2.2387  1.4746
   11SAPS   H7S 1380   1.221   2.889   6.835  1.0690  0.1222  1.4857
   11SAPS   C28 1381   1.146   2.735   6.976  0.8372  0.6138  0.2545
   11SAPS   H8R 1382   1.151   2.655   6.901  1.1667  1.2454 -0.4081
   11SAPS   C29 1383   1.139   2.699   7.106 -0.7382  0.1876 -0.2433
   11SAPS   H9R 1384   1.135   2.590   7.123  0.3048  0.3260  1.0908
   11SAPS  C210 1385   1.118   2.781   7.229 -0.4087 -0.0652  0.6579
   11SAPS  H10R 1386   1.046   2.722   7.290 -0.1475  0.9011  1.9414
   11SAPS  H10S 1387   1.069   2.877   7.201  1.5820  0.8172  0.0423
   11SAPS  C211 1388   1.248   2.818   7.294  0.0523  0.0546 -1.1467
   11SAPS  H11R 1389   1.301   2.883   7.223  0.0538 -0.8706 -2.0081
   11SAPS  C212 1390   1.289   2.796   7.425  0.1482 -0.6834 -0.0090
   11SAPS  H12R 1391   1.385   2.836   7.461 -0.6140  0.9556  0.2930
   11SAPS  C213 1392   1.211   2.718   7.531  1.0682 -0.5377  0.3536
   11SAPS  H13R 1393   1.278   2.660   7.597  1.3595 -0.9578 -0.2934
   11SAPS  H13S 1394   1.148   2.638   7.484  1.1570 -0.0527 -0.6273
   11SAPS  C214 1395   1.111   2.801   7.607 -0.1524 -0.4142 -0.1692
   11SAPS  H14R 1396   1.043   2.853   7.538 -0.1377 -2.0660 -1.4926
   11SAPS  C215 1397   1.093   2.802   7.737 -0.1538  0.1099 -1.0349
   11SAPS  H15R 1398   1.026   2.880   7.776  0.1810  0.2032 -0.6431
   11SAPS  C216 1399   1.159   2.735   7.859  0.1056 -0.3449 -0.5187
   11SAPS  H16R 1400   1.230   2.659   7.821  1.7482  0.7011  0.3435
   11SAPS  H16S 1401   1.079   2.673   7.905  0.9094 -3.6773 -3.2384
   11SAPS  C217 1402   1.234   2.824   7.953 -0.5401 -0.3766  0.4192
   11SAPS  H17R 1403   1.182   2.915   7.992 -2.0520 -0.8329 -0.4645
   11SAPS  H17S 1404   1.310   2.873   7.888  1.0496  0.0269  2.4631
   11SAPS  C218 1405   1.312   2.744   8.057  0.1554  0.6027 -0.0036
   11SAPS  H18R 1406   1.393   2.683   8.009  0.1617  0.2304  0.4746
   11SAPS  H18S 1407   1.252   2.687   8.130 -1.1443 -0.8396 -2.0964
   11SAPS  C219 1408   1.407   2.819   8.154  0.0918 -0.0315  0.4641
   11SAPS  H19R 1409   1.335   2.858   8.229 -0.3885  1.8063 -0.8750
   11SAPS  H19S 1410   1.454   2.908   8.105  0.5821 -0.8246 -0.5510
   11SAPS  C220 1411   1.513   2.737   8.226  0.4549  0.2443  0.7271
   11SAPS  H20R 1412   1.577   2.689   8.147 -0.7314 -1.9850  1.0341
   11SAPS  H20S 1413   1.470   2.655   8.287 -2.1876 -0.4139 -1.8029
   11SAPS  H20T 1414   1.577   2.811   8.278 -0.4196  1.5185  0.0352
   11SAPS   C33 1415   1.894   3.478   6.517 -0.2066  0.7073 -0.3406
   11SAPS   H3X 1416   1.903   3.550   6.433  2.3747 -1.7706 -2.4295
   11SAPS   H3Y 1417   1.993   3.465   6.565  0.3904  2.3266 -1.0696
   11SAPS   C34 1418   1.794   3.529   6.620  0.7059  0.7254  0.3314
   11SAPS   H4X 1419   1.692   3.495   6.590  0.4656 -1.1518  2.9478
   11SAPS   H4Y 1420   1.807   3.638   6.634  0.0693  1.1527 -1.9635
   11SAPS   C35 1421   1.819   3.470   6.763  0.5758 -0.4849  0.1673
   11SAPS   H5X 1422   1.915   3.520   6.786 -0.0613  1.3859 -0.9714
   11SAPS   H5Y 1423   1.838   3.361   6.753  1.3047 -0.6635  2.8871
   11SAPS   C36 1424   1.711   3.520   6.858  0.3581  0.3709 -0.0567
   11SAPS   H6X 1425   1.609   3.499   6.819  0.7860 -1.2358 -0.3624
   11SAPS   H6Y 1426   1.717   3.629   6.882  0.7794  1.0292 -2.8265
   11SAPS   C37 1427   1.742   3.454   6.992  0.1653 -0.1875  0.1569
   11SAPS   H7X 1428   1.850   3.470   7.012  0.2737  2.6733 -2.0978
   11SAPS   H7Y 1429   1.719   3.345   6.995 -1.0860  0.0907  1.4517
   11SAPS   C38 1430   1.654   3.509   7.103  0.5498  0.3102  0.1825
   11SAPS   H8X 1431   1.547   3.490   7.085  0.5329  1.9937 -1.8645
   11SAPS   H8Y 1432   1.669   3.619   7.102  1.1567  0.2345 -0.0103
   11SAPS   C39 1433   1.690   3.458   7.243 -0.1205 -0.3029  0.3678
   11SAPS   H9X 1434   1.799   3.469   7.258  0.0666 -1.1297 -0.3052
   11SAPS   H9Y 1435   1.654   3.352   7.241  2.4547 -1.2423 -1.6487
   11SAPS  C310 1436   1.614   3.533   7.353  0.5105 -0.0556 -0.1438
   11SAPS  H10X 1437   1.507   3.511   7.335 -0.6271  3.5664  1.1512
   11SAPS  H10Y 1438   1.618   3.643   7.335 -2.6517  0.1679  0.0793
   11SAPS  C311 1439   1.658   3.499   7.498  0.0187  0.0337 -0.8455
   11SAPS  H11X 1440   1.767   3.522   7.494 -0.1347  0.6993 -1.4255
   11SAPS  H11Y 1441   1.635   3.393   7.521  1.1552 -0.0471  0.0370
   11SAPS  C312 1442   1.581   3.593   7.592 -0.4107  0.0300 -0.1477
   11SAPS  H12X 1443   1.476   3.570   7.565 -1.0748  1.5384  0.9545
   11SAPS  H12Y 1444   1.612   3.699   7.580  0.5864 -0.0910  1.1818
   11SAPS  C313 1445   1.609   3.552   7.740 -0.3803 -0.4329 -0.6879
   11SAPS  H13X 1446   1.599   3.445   7.767 -0.5703 -0.6502 -1.5904
   11SAPS  H13Y 1447   1.543   3.612   7.807 -0.8229 -0.2309 -1.2942
   11SAPS  C314 1448   1.751   3.596   7.775 -0.4128  0.5382  0.0215
   11SAPS  H14X 1449   1.751   3.706   7.757 -1.1329  0.9989  2.4279
   11SAPS  H14Y 1450   1.832   3.558   7.709  0.1159  2.1617 -0.3101
   11SAPS  C315 1451   1.793   3.568   7.924  0.1785 -0.3481  0.0022
   11SAPS  H15X 1452   1.820   3.466   7.959 -1.6884 -0.6713  0.5855
   11SAPS  H15Y 1453   1.715   3.600   7.996  0.3762  1.0478 -0.3744
   11SAPS  C316 1454   1.922   3.641   7.962 -0.0793  0.2095 -0.0289
   11SAPS  H16X 1455   1.910   3.744   7.921  0.5752 -0.4417 -1.9631
   11SAPS  H16Y 1456   2.000   3.596   7.898  1.0316  1.2108  0.5852
   11SAPS  C317 1457   1.962   3.629   8.107  0.3438 -0.0498 -0.7002
   11SAPS  H17X 1458   1.973   3.526   8.147 -2.7582 -0.1351  0.1698
   11SAPS  H17Y 1459   1.882   3.681   8.164  0.5477 -1.2008  0.6962
   11SAPS  C318 1460   2.093   3.704   8.146 -0.3925 -0.7823  0.9696
   11SAPS  H18X 1461   2.097   3.722   8.255  0.0213  0.1456  0.8110
   11SAPS  H18Y 1462   2.109   3.802   8.094  0.0921 -0.4334  1.7640
   11SAPS  H18Z 1463   2.170   3.628   8.122  0.5929  0.4906 -0.0847
   12SAPS     N 1464   1.512   4.012   6.342 -0.6110 -0.3973  0.0488
   12SAPS   HN1 1465   1.423   3.962   6.364  0.5504 -3.3765 -1.4109
   12SAPS   HN2 1466   1.589   3.944   6.326 -0.8266 -0.2928 -1.6221
   12SAPS   HN3 1467   1.532   4.059   6.432  1.1418  2.1109 -1.5350
   12SAPS   C12 1468   1.504   4.112   6.235 -0.0938  0.7499  0.4611
   12SAPS  H12A 1469   1.593   4.172   6.244 -1.0066  1.8011  4.1308
   12SAPS   C13 1470   1.479   4.060   6.087  0.4726 -0.9815 -0.2945
   12SAPS  O13A 1471   1.454   3.939   6.067 -0.0930  0.6982  0.0318
   12SAPS  O13B 1472   1.468   4.144   5.999  0.2670  0.0344 -0.1417
   12SAPS   C11 1473   1.376   4.197   6.272 -0.0270  0.2594  0.2068
   12SAPS  H11A 1474   1.291   4.130   6.296 -0.9020  1.1228 -0.3844
   12SAPS  H11B 1475   1.352   4.267   6.189 -0.8927  0.0146  0.2438
   12SAPS     P 1476   1.307   4.331   6.487 -0.0082  0.1371  0.0928
   12SAPS   O13 1477   1.378   4.406   6.596  0.4325  0.0573  0.0968
   12SAPS   O14 1478   1.203   4.408   6.405 -0.2148  0.0449  0.1996
   12SAPS   O12 1479   1.416   4.281   6.381 -0.2907  0.3227  0.0003
   12SAPS   O11 1480   1.235   4.201   6.534 -0.6211  0.5490 -0.3856
   12SAPS    C1 1481   1.273   4.112   6.636  0.2185 -0.3270  0.0827
   12SAPS    HA 1482   1.333   4.032   6.587  0.1617  0.0929 -0.6903
   12SAPS    HB 1483   1.343   4.153   6.712 -2.0148  0.6189  1.7251
   12SAPS    C2 1484   1.161   4.034   6.701  0.4588 -0.3513  0.3897
   12SAPS    HS 1485   1.094   4.009   6.616  0.8926  2.8481 -1.0529
   12SAPS   O21 1486   1.083   4.109   6.802 -0.2118 -0.7288 -0.9131
   12SAPS   C21 1487   0.959   4.081   6.812  0.4131  0.3117 -0.2256
   12SAPS   O22 1488   0.902   3.991   6.747  0.0514 -0.0128  0.6653
   12SAPS   C22 1489   0.899   4.170   6.909 -0.1385  0.7043 -0.5265
   12SAPS   H2R 1490   0.975   4.199   6.985  1.4442 -2.1437 -0.8927
   12SAPS   H2S 1491   0.880   4.268   6.859  1.4722  1.7107  0.7252
   12SAPS    C3 1492   1.210   3.905   6.776  0.0211 -0.4115  0.3205
   12SAPS    HX 1493   1.243   3.825   6.707 -0.1527 -1.5584  1.5233
   12SAPS    HY 1494   1.122   3.870   6.834 -0.9604  0.7157 -0.4343
   12SAPS   O31 1495   1.307   3.924   6.878 -0.2481 -0.2121 -0.3271
   12SAPS   C31 1496   1.430   3.887   6.863 -0.5099 -0.2739 -0.6452
   12SAPS   O32 1497   1.473   3.840   6.760  0.4302 -0.3655 -0.2649
   12SAPS   C32 1498   1.495   3.889   6.996  1.0022 -0.0694  0.3187
   12SAPS   H2X 1499   1.601   3.853   6.991  0.8823 -0.3894  0.0032
   12SAPS   H2Y 1500   1.442   3.817   7.061  1.3850  1.3149  2.2522
   12SAPS   C23 1501   0.778   4.110   6.981  0.4992  0.0693 -0.2058
   12SAPS   H3R 1502   0.806   4.031   7.054 -0.3771 -0.0755 -0.0151
   12SAPS   H3S 1503   0.710   4.055   6.914  1.6159 -1.5844 -0.0332
   12SAPS   C24 1504   0.691   4.226   7.039  0.2657  0.2167  0.0184
   12SAPS   H4R 1505   0.589   4.197   7.071  0.0123  1.7224  0.6524
   12SAPS   H4S 1506   0.669   4.299   6.958 -0.4092  0.5813  0.5259
   12SAPS   C25 1507   0.767   4.285   7.154 -0.2132  1.0688  0.3822
   12SAPS   H5R 1508   0.874   4.263   7.161 -0.2414  0.8854  0.2463
   12SAPS   C26 1509   0.717   4.361   7.257  0.1186  0.6144  0.4740
   12SAPS   H6R 1510   0.788   4.393   7.335 -0.5518 -0.2351  1.4572
   12SAPS   C27 1511   0.574   4.404   7.278 -0.1997 -0.0869 -0.0039
   12SAPS   H7R 1512   0.542   4.469   7.195 -1.4404  1.8879  1.9255
   12SAPS   H7S 1513   0.568   4.465   7.371 -0.7524 -0.1668  0.0148
   12SAPS   C28 1514   0.465   4.303   7.288 -0.5070  0.0902 -0.2080
   12SAPS   H8R 1515   0.444   4.245   7.197 -2.5764  1.1555 -0.4730
   12SAPS   C29 1516   0.409   4.251   7.398  0.3272  0.0279  0.2963
   12SAPS   H9R 1517   0.323   4.185   7.378  0.2751  0.8706 -2.8476
   12SAPS  C210 1518   0.451   4.282   7.537 -0.5041  0.2300  0.3245
   12SAPS  H10R 1519   0.417   4.198   7.601  0.9899 -1.5056 -1.0815
   12SAPS  H10S 1520   0.391   4.370   7.570 -1.5723 -0.1340 -0.5693
   12SAPS  C211 1521   0.593   4.299   7.587 -0.2607 -0.1679 -0.9247
   12SAPS  H11R 1522   0.671   4.319   7.512  0.6364  0.2207  0.0806
   12SAPS  C212 1523   0.624   4.301   7.716 -0.2665  0.0791 -0.5300
   12SAPS  H12R 1524   0.732   4.315   7.733 -0.1469 -0.9806 -0.3836
   12SAPS  C213 1525   0.542   4.277   7.840 -0.0050 -0.3060  0.2435
   12SAPS  H13R 1526   0.433   4.279   7.820 -0.1601  0.4759  1.1281
   12SAPS  H13S 1527   0.558   4.366   7.904 -2.0691  1.7645 -1.9107
   12SAPS  C214 1528   0.589   4.151   7.908 -0.0865 -0.8366  0.0084
   12SAPS  H14R 1529   0.640   4.073   7.849 -0.6961 -0.6795 -0.7380
   12SAPS  C215 1530   0.565   4.129   8.034 -0.6158  0.8369 -0.5435
   12SAPS  H15R 1531   0.604   4.043   8.090 -1.5270  1.2248  0.7215
   12SAPS  C216 1532   0.488   4.219   8.126 -0.2870 -0.0997 -0.0244
   12SAPS  H16R 1533   0.445   4.158   8.208 -0.0781  0.6251  0.6348
   12SAPS  H16S 1534   0.398   4.252   8.070  1.0808 -1.4469 -3.2815
   12SAPS  C217 1535   0.561   4.346   8.173  0.1811  0.3903  0.1235
   12SAPS  H17R 1536   0.480   4.421   8.180  0.9667  1.1905  0.9398
   12SAPS  H17S 1537   0.631   4.379   8.093 -2.5418 -0.5853 -2.8804
   12SAPS  C218 1538   0.615   4.335   8.316  0.6594 -0.3628  0.0093
   12SAPS  H18R 1539   0.701   4.265   8.315 -0.3660 -1.6492 -0.6957
   12SAPS  H18S 1540   0.544   4.289   8.388 -1.9280  0.0278 -2.1486
   12SAPS  C219 1541   0.660   4.474   8.370  0.3714  0.2678 -0.0726
   12SAPS  H19R 1542   0.574   4.544   8.362  0.5525  0.7222  1.6317
   12SAPS  H19S 1543   0.744   4.512   8.309 -0.2106  1.0686 -0.3852
   12SAPS  C220 1544   0.700   4.479   8.517  0.0493 -0.2515  0.2253
   12SAPS  H20R 1545   0.773   4.401   8.549  0.4060  0.0694  0.1993
   12SAPS  H20S 1546   0.608   4.469   8.578  0.7640  1.9225  1.7502
   12SAPS  H20T 1547   0.739   4.581   8.532  2.3576 -1.4711  3.8361
   12SAPS   C33 1548   1.492   4.037   7.053 -0.3526 -0.2624 -0.5709
   12SAPS   H3X 1549   1.390   4.055   7.093 -0.6390  0.7491 -1.7112
   12SAPS   H3Y 1550   1.511   4.103   6.966  0.2219 -1.7293 -1.5956
   12SAPS   C34 1551   1.598   4.066   7.165 -0.1822 -0.2003  0.3753
   12SAPS   H4X 1552   1.595   4.169   7.208 -1.4411 -0.2369  0.4304
   12SAPS   H4Y 1553   1.699   4.068   7.120  0.1829  3.1681  1.0299
   12SAPS   C35 1554   1.590   3.972   7.286 -0.0057 -0.4192 -0.0515
   12SAPS   H5X 1555   1.686   3.960   7.339 -1.0570 -1.7276  1.6640
   12SAPS   H5Y 1556   1.556   3.873   7.250 -3.1310  0.3900  0.3584
   12SAPS   C36 1557   1.492   4.029   7.389  0.5064 -0.2156  0.1735
   12SAPS   H6X 1558   1.388   4.025   7.352  1.1359 -0.0619 -1.7048
   12SAPS   H6Y 1559   1.502   4.139   7.400 -0.9493  0.2936 -2.6108
   12SAPS   C37 1560   1.502   3.960   7.519  1.4917 -0.1603 -0.4515
   12SAPS   H7X 1561   1.609   3.959   7.546  1.8083 -0.3570 -1.6481
   12SAPS   H7Y 1562   1.466   3.858   7.493 -1.9773  1.3367 -2.1984
   12SAPS   C38 1563   1.410   4.004   7.636 -0.5967 -0.1857 -0.4410
   12SAPS   H8X 1564   1.303   4.004   7.606 -0.9034  1.0886  0.5416
   12SAPS   H8Y 1565   1.435   4.111   7.652 -0.2092 -0.0432 -1.8645
   12SAPS   C39 1566   1.427   3.907   7.759 -0.3083 -0.2157 -0.0299
   12SAPS   H9X 1567   1.432   3.802   7.726 -0.3212 -0.1173 -0.3451
   12SAPS   H9Y 1568   1.349   3.923   7.837  1.6107  1.9529  1.6034
   12SAPS  C310 1569   1.560   3.945   7.831  0.4751 -0.0441 -0.2192
   12SAPS  H10X 1570   1.578   4.053   7.816 -2.0769  0.0464 -4.2902
   12SAPS  H10Y 1571   1.645   3.893   7.780  0.8834  2.2752 -2.0778
   12SAPS  C311 1572   1.553   3.908   7.980  0.2750 -0.1515  0.4209
   12SAPS  H11X 1573   1.541   3.798   7.995 -1.3739  0.0176  0.4830
   12SAPS  H11Y 1574   1.470   3.958   8.034 -0.4060  0.5176 -1.1783
   12SAPS  C312 1575   1.684   3.939   8.047 -0.5471 -0.1674  0.0374
   12SAPS  H12X 1576   1.702   4.049   8.036 -2.0704  0.2838  1.6411
   12SAPS  H12Y 1577   1.776   3.897   7.999 -0.7152  1.4345 -1.8525
   12SAPS  C313 1578   1.688   3.891   8.196  0.0635 -0.5118 -0.0036
   12SAPS  H13X 1579   1.691   3.780   8.193  0.0480 -0.5121 -0.0128
   12SAPS  H13Y 1580   1.586   3.912   8.237  0.2235  1.0696 -0.3186
   12SAPS  C314 1581   1.795   3.955   8.284 -0.0627 -0.4727  0.1759
   12SAPS  H14X 1582   1.784   4.065   8.271 -0.7655 -0.6038 -0.4419
   12SAPS  H14Y 1583   1.892   3.919   8.245  1.3053  0.7588  2.2746
   12SAPS  C315 1584   1.793   3.915   8.425 -0.5115  0.8981 -0.1942
   12SAPS  H15X 1585   1.695   3.896   8.473  0.2739  0.2726  1.2172
   12SAPS  H15Y 1586   1.846   3.994   8.481  2.0534 -2.0214  1.8207
   12SAPS  C316 1587   1.870   3.784   8.453 -0.2256  0.2784 -0.0088
   12SAPS  H16X 1588   1.978   3.797   8.432  0.0314 -0.8314  0.5541
   12SAPS  H16Y 1589   1.842   3.698   8.387  3.7145 -0.4340 -1.0330
   12SAPS  C317 1590   1.867   3.721   8.589  0.9053  0.1911 -0.5526
   12SAPS  H17X 1591   1.763   3.737   8.626  0.6295 -1.3546 -0.5902
   12SAPS  H17Y 1592   1.940   3.768   8.659  0.2256 -0.4461  0.6101
   12SAPS  C318 1593   1.914   3.571   8.603  0.3350  1.1186  0.0119
   12SAPS  H18X 1594   2.024   3.559   8.592 -0.0183 -3.0286 -0.4067
   12SAPS  H18Y 1595   1.860   3.508   8.529 -4.5291  4.4840  0.1583
   12SAPS  H18Z 1596   1.887   3.521   8.698  0.9935 -1.7303 -1.1954
   13SAPS     N 1597   2.127   2.062   6.108  0.9533 -0.2700  0.3241
   13SAPS   HN1 1598   2.093   2.003   6.186  0.2125  1.9532  1.7524
   13SAPS   HN2 1599   2.108   2.011   6.019 -0.4013  1.5132 -0.4542
   13SAPS   HN3 1600   2.229   2.074   6.126  0.9088 -1.0296  1.1216
   13SAPS   C12 1601   2.062   2.200   6.098 -0.1474  0.0468 -0.1640
   13SAPS  H12A 1602   2.095   2.264   6.178 -1.2728  0.1975  0.2054
   13SAPS   C13 1603   2.081   2.278   5.967 -0.2238  0.3170 -0.2485
   13SAPS  O13A 1604   2.122   2.214   5.870  0.4987 -0.0776 -0.0372
   13SAPS  O13B 1605   2.059   2.400   5.959 -0.0309  0.5191  0.1153
   13SAPS   C11 1606   1.907   2.183   6.130  0.1342  0.5350 -0.1137
   13SAPS  H11A 1607   1.866   2.123   6.045  0.1491 -1.5937  1.2970
   13SAPS  H11B 1608   1.861   2.284   6.127  0.1617  0.5268 -1.9098
   13SAPS     P 1609   1.762   2.032   6.288  0.1325  0.0849 -0.1947
   13SAPS   O13 1610   1.698   2.023   6.158  0.1184 -0.3348 -0.0444
   13SAPS   O14 1611   1.800   1.901   6.348  0.1492  0.0598  0.2764
   13SAPS   O12 1612   1.892   2.116   6.255 -0.5296 -0.5377 -0.1006
   13SAPS   O11 1613   1.683   2.120   6.385  0.2131  0.2192  0.7311
   13SAPS    C1 1614   1.750   2.176   6.500 -0.1422 -0.4314 -0.0600
   13SAPS    HA 1615   1.668   2.181   6.574  0.2683  0.2747  0.3510
   13SAPS    HB 1616   1.835   2.112   6.535  0.6103  1.0511  0.9209
   13SAPS    C2 1617   1.795   2.316   6.461 -0.3403 -0.6233  1.1322
   13SAPS    HS 1618   1.866   2.321   6.375 -2.9365  1.5420 -1.0746
   13SAPS   O21 1619   1.826   2.387   6.583  0.6538  0.3752  0.0155
   13SAPS   C21 1620   1.946   2.419   6.600 -0.4392  0.0068  0.8021
   13SAPS   O22 1621   2.036   2.417   6.516  0.5801  0.4143  0.0620
   13SAPS   C22 1622   1.973   2.462   6.741  0.3909  0.0512  0.2786
   13SAPS   H2R 1623   1.903   2.401   6.803 -0.7520  1.5756  0.5448
   13SAPS   H2S 1624   2.079   2.433   6.754  1.3791  2.9624 -0.6392
   13SAPS    C3 1625   1.678   2.388   6.392 -0.2203  0.5632 -0.3927
   13SAPS    HX 1626   1.589   2.380   6.458  0.7461 -1.1063  0.7777
   13SAPS    HY 1627   1.659   2.338   6.295  1.2463  2.0987 -1.5305
   13SAPS   O31 1628   1.716   2.524   6.361 -0.2347  0.0473  0.2462
   13SAPS   C31 1629   1.659   2.622   6.438  0.1233 -0.3744 -1.2457
   13SAPS   O32 1630   1.580   2.604   6.531 -0.1772  0.4661  0.4765
   13SAPS   C32 1631   1.731   2.753   6.396 -0.1534 -0.7414  0.2241
   13SAPS   H2X 1632   1.726   2.765   6.285 -0.4568 -1.7476  0.1252
   13SAPS   H2Y 1633   1.838   2.752   6.427  0.4679  1.1015 -1.5538
   13SAPS   C23 1634   1.948   2.619   6.775  0.2965  0.0352  0.5030
   13SAPS   H3R 1635   1.840   2.641   6.766 -0.0475 -2.0310 -1.6010
   13SAPS   H3S 1636   2.014   2.682   6.711  2.3517 -2.5053 -0.0515
   13SAPS   C24 1637   2.002   2.645   6.915 -0.4721 -1.2140 -0.4832
   13SAPS   H4R 1638   1.995   2.756   6.916 -2.6060 -1.2728 -2.2433
   13SAPS   H4S 1639   2.105   2.606   6.933 -0.9079 -1.2024  2.6554
   13SAPS   C25 1640   1.912   2.602   7.026 -0.3025 -0.1541 -0.4528
   13SAPS   H5R 1641   1.835   2.677   7.049 -1.6014 -1.6632  0.2485
   13SAPS   C26 1642   1.933   2.503   7.112  0.0090  0.0570  0.5724
   13SAPS   H6R 1643   1.867   2.483   7.198  0.0141  0.8795  0.7777
   13SAPS   C27 1644   2.045   2.410   7.105 -0.5514  0.1515  0.1605
   13SAPS   H7R 1645   2.088   2.400   7.003 -2.1929  1.1273 -0.6701
   13SAPS   H7S 1646   2.010   2.312   7.143  2.4231 -0.1815  2.4586
   13SAPS   C28 1647   2.158   2.449   7.202  0.5128 -0.4615 -0.0725
   13SAPS   H8R 1648   2.245   2.498   7.154  1.2505 -1.0304  0.6568
   13SAPS   C29 1649   2.165   2.424   7.340  0.4354 -0.4810 -0.5509
   13SAPS   H9R 1650   2.250   2.450   7.405 -0.1487  1.0464 -0.3640
   13SAPS  C210 1651   2.056   2.356   7.423 -0.3850 -0.0871  0.7924
   13SAPS  H10R 1652   2.106   2.269   7.471  3.1023  1.2068 -0.1912
   13SAPS  H10S 1653   1.969   2.323   7.363 -1.2414  2.3038  0.5996
   13SAPS  C211 1654   1.988   2.445   7.526 -0.4307  0.3359 -0.8464
   13SAPS  H11R 1655   1.904   2.507   7.492  1.2736  2.1275 -2.0507
   13SAPS  C212 1656   2.022   2.456   7.657  0.1299 -0.1545  0.3841
   13SAPS  H12R 1657   1.970   2.530   7.720 -2.0964 -1.4962  0.2226
   13SAPS  C213 1658   2.138   2.394   7.729  0.1506 -0.9889 -0.6939
   13SAPS  H13R 1659   2.213   2.355   7.657  1.0205 -1.2555  0.3153
   13SAPS  H13S 1660   2.103   2.301   7.780 -0.1584 -0.7221 -0.4206
   13SAPS  C214 1661   2.216   2.492   7.819  0.0837  0.3081  0.0489
   13SAPS  H14R 1662   2.204   2.599   7.796  1.0017  0.4931  0.3762
   13SAPS  C215 1663   2.297   2.446   7.914 -0.1878 -0.3134 -0.1150
   13SAPS  H15R 1664   2.360   2.519   7.967 -1.0103 -0.8325  1.6993
   13SAPS  C216 1665   2.333   2.302   7.941 -0.2028  0.2490 -0.1114
   13SAPS  H16R 1666   2.369   2.259   7.845  1.0753 -2.2761  1.4034
   13SAPS  H16S 1667   2.247   2.242   7.978 -0.7810  0.5984 -0.8591
   13SAPS  C217 1668   2.450   2.284   8.040  0.4480 -0.3762  0.1640
   13SAPS  H17R 1669   2.544   2.331   8.004 -1.1364  0.7855 -2.8795
   13SAPS  H17S 1670   2.462   2.174   8.025 -0.4489 -0.4114 -0.3963
   13SAPS  C218 1671   2.427   2.322   8.181  0.5929 -0.4542  0.1394
   13SAPS  H18R 1672   2.338   2.264   8.213  1.4097 -1.0716  1.3624
   13SAPS  H18S 1673   2.417   2.432   8.186  1.8227 -0.4025  2.7045
   13SAPS  C219 1674   2.544   2.307   8.283 -0.0134  0.2532 -0.5890
   13SAPS  H19R 1675   2.518   2.353   8.381 -1.6524  0.4900 -1.0980
   13SAPS  H19S 1676   2.625   2.357   8.226  1.5666 -1.0222  0.4412
   13SAPS  C220 1677   2.579   2.164   8.311 -0.6191  0.3340  0.0435
   13SAPS  H20R 1678   2.594   2.110   8.215 -1.0042  1.7027 -0.8165
   13SAPS  H20S 1679   2.497   2.107   8.361  0.7194 -0.7201  1.1352
   13SAPS  H20T 1680   2.672   2.146   8.369 -0.8371  1.0863  0.6433
   13SAPS   C33 1681   1.661   2.881   6.454 -0.2215 -0.2090 -0.3705
   13SAPS   H3X 1682   1.551   2.875   6.445 -0.2907  1.2126 -0.6720
   13SAPS   H3Y 1683   1.695   2.970   6.397 -0.6395 -0.5683 -1.1976
   13SAPS   C34 1684   1.686   2.911   6.600 -0.2297 -0.6052 -0.7005
   13SAPS   H4X 1685   1.795   2.921   6.618 -0.3922  1.1494 -0.4801
   13SAPS   H4Y 1686   1.660   2.821   6.660 -0.8479 -0.4412 -0.7175
   13SAPS   C35 1687   1.617   3.041   6.644 -0.4228  0.4412 -0.4669
   13SAPS   H5X 1688   1.508   3.023   6.660 -0.0764  0.0179  1.7361
   13SAPS   H5Y 1689   1.628   3.119   6.567 -0.2676 -0.6192 -1.5483
   13SAPS   C36 1690   1.674   3.073   6.785  0.3233 -0.3512 -0.1944
   13SAPS   H6X 1691   1.614   3.159   6.820  0.8123  1.2862 -3.0445
   13SAPS   H6Y 1692   1.779   3.109   6.777  0.2301 -0.3345 -1.6415
   13SAPS   C37 1693   1.664   2.960   6.889 -0.1230 -0.0756  0.0812
   13SAPS   H7X 1694   1.743   2.884   6.872 -0.8492 -0.7780 -0.1945
   13SAPS   H7Y 1695   1.566   2.908   6.878 -0.6854  0.7234  1.0810
   13SAPS   C38 1696   1.672   3.022   7.035 -0.3606  0.1465 -0.3278
   13SAPS   H8X 1697   1.629   3.124   7.049 -1.4492 -0.3674  0.2392
   13SAPS   H8Y 1698   1.779   3.028   7.062 -0.6711 -0.7917  1.2398
   13SAPS   C39 1699   1.599   2.939   7.145  0.0860 -0.4303 -0.1069
   13SAPS   H9X 1700   1.603   2.829   7.132  0.0373 -0.4948  0.4260
   13SAPS   H9Y 1701   1.492   2.969   7.142 -0.2148 -1.5260 -2.3725
   13SAPS  C310 1702   1.647   2.969   7.292 -0.2697 -0.3454  0.2680
   13SAPS  H10X 1703   1.574   2.934   7.368 -3.4610  1.9319 -1.4973
   13SAPS  H10Y 1704   1.651   3.079   7.305  0.1505 -0.1575 -1.2537
   13SAPS  C311 1705   1.784   2.917   7.329  0.2813 -0.6567 -0.8510
   13SAPS  H11X 1706   1.852   2.919   7.241  0.5889  2.1404 -0.6209
   13SAPS  H11Y 1707   1.773   2.813   7.367  0.1204 -0.2053  0.3929
   13SAPS  C312 1708   1.841   2.997   7.450  0.4181  0.3202  0.5683
   13SAPS  H12X 1709   1.911   2.935   7.510  0.0706 -0.5063  0.1302
   13SAPS  H12Y 1710   1.758   3.026   7.519 -0.5850  2.0270 -1.2426
   13SAPS  C313 1711   1.910   3.124   7.398  0.3543 -0.6774  0.3337
   13SAPS  H13X 1712   1.848   3.167   7.316  2.6941 -0.3108 -1.3652
   13SAPS  H13Y 1713   2.012   3.085   7.376  0.5770 -0.0006  0.1263
   13SAPS  C314 1714   1.931   3.234   7.506 -0.0269  0.0607 -0.0885
   13SAPS  H14X 1715   1.835   3.273   7.547  0.6998  2.2362 -0.3337
   13SAPS  H14Y 1716   1.980   3.321   7.457  1.3935 -0.7310 -0.1387
   13SAPS  C315 1717   2.021   3.174   7.617  0.0350 -0.1656 -0.3116
   13SAPS  H15X 1718   2.123   3.160   7.577  1.1793  0.8275  2.0341
   13SAPS  H15Y 1719   1.981   3.077   7.655 -1.6859  0.4044 -0.5600
   13SAPS  C316 1720   2.037   3.281   7.731  0.5950  0.1479 -0.6238
   13SAPS  H16X 1721   1.938   3.293   7.779 -0.0704 -3.7360 -0.7379
   13SAPS  H16Y 1722   2.074   3.379   7.693  3.2262 -1.1701 -1.6954
   13SAPS  C317 1723   2.125   3.239   7.837 -0.0032 -0.3161 -0.2775
   13SAPS  H17X 1724   2.229   3.235   7.800  0.6051 -0.4584  1.3335
   13SAPS  H17Y 1725   2.098   3.133   7.855 -0.6155 -0.6362 -2.7866
   13SAPS  C318 1726   2.117   3.321   7.971  0.1898  0.4043  1.3320
   13SAPS  H18X 1727   2.175   3.264   8.046 -0.0095 -1.2892  0.2668
   13SAPS  H18Y 1728   2.010   3.340   7.995  0.3137  2.4195  0.4740
   13SAPS  H18Z 1729   2.159   3.421   7.948 -1.2721  0.2234 -3.2638
   14SAPS     N 1730   0.794   3.430   6.015 -0.4492  0.4171 -0.5810
   14SAPS   HN1 1731   0.859   3.398   6.090  3.0619 -1.7024 -4.1668
   14SAPS   HN2 1732   0.867   3.425   5.942  1.4141 -0.9264  1.2690
   14SAPS   HN3 1733   0.761   3.524   6.046 -0.7232  0.0011  0.4349
   14SAPS   C12 1734   0.706   3.323   6.000  0.1912 -0.4900 -0.0745
   14SAPS  H12A 1735   0.672   3.314   5.898  0.7496 -0.2794 -0.2852
   14SAPS   C13 1736   0.772   3.185   6.025 -0.2299 -1.0211 -0.2594
   14SAPS  O13A 1737   0.888   3.187   6.073 -0.6330  0.4457 -0.3945
   14SAPS  O13B 1738   0.698   3.081   6.015  1.0303 -0.0066  0.5358
   14SAPS   C11 1739   0.582   3.330   6.091 -0.5359  0.1457  0.4139
   14SAPS  H11A 1740   0.607   3.307   6.197 -1.1610  0.9379  0.7432
   14SAPS  H11B 1741   0.522   3.243   6.056  0.2397  0.0660 -0.7766
   14SAPS     P 1742   0.380   3.465   6.152 -0.3739  0.0589  0.5696
   14SAPS   O13 1743   0.327   3.602   6.153  0.5964  0.0226 -0.8648
   14SAPS   O14 1744   0.284   3.367   6.097  1.0161  0.1736  0.1489
   14SAPS   O12 1745   0.512   3.455   6.070 -0.3441  0.2414 -0.3611
   14SAPS   O11 1746   0.428   3.425   6.296 -0.2303 -0.5156 -0.5290
   14SAPS    C1 1747   0.496   3.527   6.374  0.0416 -0.0628 -0.0844
   14SAPS    HA 1748   0.566   3.469   6.439 -1.8841 -2.6496 -0.1649
   14SAPS    HB 1749   0.559   3.590   6.308 -0.0307 -0.6475 -0.7203
   14SAPS    C2 1750   0.405   3.607   6.467 -0.3864 -0.0725  0.3446
   14SAPS    HS 1751   0.337   3.672   6.408  1.6141  1.3705 -0.4440
   14SAPS   O21 1752   0.501   3.689   6.542 -0.2723  0.6689  0.3606
   14SAPS   C21 1753   0.448   3.794   6.604  0.4782  0.1132  0.1010
   14SAPS   O22 1754   0.341   3.845   6.571 -0.2618  0.5111 -0.3028
   14SAPS   C22 1755   0.534   3.844   6.717 -0.0219  0.4267  0.1920
   14SAPS   H2R 1756   0.614   3.778   6.756 -0.2350  1.2479  2.1106
   14SAPS   H2S 1757   0.576   3.935   6.668 -2.0853 -0.0429 -2.6841
   14SAPS    C3 1758   0.320   3.502   6.557 -0.0392 -0.5291  0.4562
   14SAPS    HX 1759   0.397   3.433   6.597  1.4007  0.8570  0.1319
   14SAPS    HY 1760   0.250   3.448   6.489 -0.4922 -0.4791  0.8723
   14SAPS   O31 1761   0.252   3.565   6.666 -0.8253 -0.6885  0.1998
   14SAPS   C31 1762   0.143   3.624   6.638 -0.2015  0.1899  1.0353
   14SAPS   O32 1763   0.093   3.631   6.527  0.1439 -0.0008 -0.2323
   14SAPS   C32 1764   0.072   3.675   6.761 -0.7089  0.3293  0.4360
   14SAPS   H2X 1765   0.008   3.759   6.728 -2.1038 -0.5811  0.7296
   14SAPS   H2Y 1766   0.141   3.707   6.841  0.1372 -2.0221  0.7447
   14SAPS   C23 1767   0.440   3.887   6.834  0.6261  0.2446  0.4874
   14SAPS   H3R 1768   0.348   3.943   6.808  2.0813  2.3581 -0.4228
   14SAPS   H3S 1769   0.506   3.957   6.890 -0.2113  1.1898  0.3153
   14SAPS   C24 1770   0.420   3.773   6.929  1.0331  0.2627  0.1325
   14SAPS   H4R 1771   0.516   3.725   6.957  0.2974 -1.9330 -0.8116
   14SAPS   H4S 1772   0.358   3.700   6.872  0.3113  1.5795 -0.8332
   14SAPS   C25 1773   0.351   3.822   7.050  0.1672  0.4671  0.2764
   14SAPS   H5R 1774   0.247   3.854   7.032  0.5256  0.1700 -2.8370
   14SAPS   C26 1775   0.407   3.835   7.172  0.1551  0.2483  0.5194
   14SAPS   H6R 1776   0.349   3.885   7.250 -0.0723  0.4207  0.2444
   14SAPS   C27 1777   0.544   3.801   7.213 -0.0002  0.3196  0.0733
   14SAPS   H7R 1778   0.608   3.763   7.131 -0.2472  1.2826 -0.5825
   14SAPS   H7S 1779   0.520   3.711   7.274 -3.1200  1.5243  0.8068
   14SAPS   C28 1780   0.616   3.911   7.280 -0.0837 -0.2852 -1.0496
   14SAPS   H8R 1781   0.644   4.003   7.228  0.9259  0.7339  1.1461
   14SAPS   C29 1782   0.664   3.906   7.402  0.0934 -0.1407  0.2242
   14SAPS   H9R 1783   0.723   3.993   7.434  2.8823 -2.3970  1.7646
   14SAPS  C210 1784   0.662   3.790   7.492 -0.6050  0.5885 -0.5388
   14SAPS  H10R 1785   0.761   3.791   7.541 -0.5147  1.3617 -0.7209
   14SAPS  H10S 1786   0.663   3.692   7.440  0.6774 -0.3995  1.2420
   14SAPS  C211 1787   0.544   3.788   7.590  0.4982  0.5816  0.9078
   14SAPS  H11R 1788   0.446   3.803   7.542  0.9997  1.1743  0.0365
   14SAPS  C212 1789   0.550   3.784   7.721  0.5581 -0.2067  0.4082
   14SAPS  H12R 1790   0.454   3.768   7.772  1.0169 -0.8538  1.0896
   14SAPS  C213 1791   0.676   3.765   7.806  0.1974  0.4885 -0.1064
   14SAPS  H13R 1792   0.731   3.857   7.834  0.4265 -0.3122  2.3060
   14SAPS  H13S 1793   0.750   3.703   7.750 -0.7373 -0.0359 -0.7984
   14SAPS  C214 1794   0.637   3.687   7.927 -0.0082 -0.4030 -0.1675
   14SAPS  H14R 1795   0.538   3.639   7.930 -1.0652  1.6308 -0.5101
   14SAPS  C215 1796   0.719   3.662   8.030 -0.4166  0.4382 -0.5620
   14SAPS  H15R 1797   0.684   3.594   8.109  3.2811 -2.0922 -0.8149
   14SAPS  C216 1798   0.862   3.712   8.050  0.0371  0.3436  0.0372
   14SAPS  H16R 1799   0.909   3.732   7.951  0.0698  0.7976  0.1431
   14SAPS  H16S 1800   0.922   3.629   8.092  1.1221  2.2281  2.4865
   14SAPS  C217 1801   0.878   3.833   8.143 -0.4778  0.4544 -0.2637
   14SAPS  H17R 1802   0.798   3.910   8.131 -0.4667  0.5650  0.3380
   14SAPS  H17S 1803   0.977   3.877   8.120 -0.3641 -0.0757 -0.8194
   14SAPS  C218 1804   0.889   3.803   8.300  0.1904  0.0278 -0.1516
   14SAPS  H18R 1805   0.918   3.902   8.342 -0.7576 -0.1892  1.0851
   14SAPS  H18S 1806   0.983   3.745   8.313  1.6440  1.9720 -1.3916
   14SAPS  C219 1807   0.762   3.751   8.372 -0.0274  0.4739  0.6128
   14SAPS  H19R 1808   0.775   3.738   8.482  1.5727 -0.3233  0.3516
   14SAPS  H19S 1809   0.740   3.651   8.330  2.6350  1.3116 -3.3456
   14SAPS  C220 1810   0.634   3.839   8.353  0.4446  0.0707  0.3298
   14SAPS  H20R 1811   0.584   3.828   8.255  0.0745  0.7576  0.4303
   14SAPS  H20S 1812   0.663   3.946   8.369 -1.7352  0.4648  2.0687
   14SAPS  H20T 1813   0.560   3.810   8.431  1.3960 -0.4237  1.0714
   14SAPS   C33 1814  -0.031   3.563   6.800 -0.4543 -0.0938 -0.2481
   14SAPS   H3X 1815  -0.105   3.558   6.717  1.5747  1.9311 -2.3187
   14SAPS   H3Y 1816  -0.097   3.596   6.883  0.7423  0.5300  0.4888
   14SAPS   C34 1817   0.026   3.428   6.858 -0.5312  0.7133 -0.5200
   14SAPS   H4X 1818   0.075   3.368   6.778  0.4650  0.6103  0.1487
   14SAPS   H4Y 1819  -0.063   3.369   6.890  1.8544 -3.0195 -0.1751
   14SAPS   C35 1820   0.113   3.446   6.989  0.0608 -0.0733  0.4527
   14SAPS   H5X 1821   0.211   3.490   6.957 -1.4343  1.3693 -2.6217
   14SAPS   H5Y 1822   0.113   3.347   7.039  1.1943  0.1642  0.9560
   14SAPS   C36 1823   0.047   3.537   7.093 -0.1548  0.1388 -0.6042
   14SAPS   H6X 1824  -0.059   3.504   7.103  0.2009 -0.7359  0.5844
   14SAPS   H6Y 1825   0.054   3.642   7.056  1.5264  0.4956  0.5778
   14SAPS   C37 1826   0.122   3.534   7.228  0.5215  0.7279  0.0095
   14SAPS   H7X 1827   0.070   3.614   7.284 -1.5243 -0.8039  0.4024
   14SAPS   H7Y 1828   0.229   3.564   7.222  0.9455 -0.1846  2.0965
   14SAPS   C38 1829   0.102   3.401   7.310  0.2182  0.3081  0.3180
   14SAPS   H8X 1830   0.193   3.341   7.292  0.4652  1.0369 -1.0522
   14SAPS   H8Y 1831   0.015   3.340   7.279  0.8255 -0.9963  1.1074
   14SAPS   C39 1832   0.086   3.420   7.459  0.0538  0.0443  0.2391
   14SAPS   H9X 1833   0.030   3.333   7.499 -0.1255 -0.9785 -2.0797
   14SAPS   H9Y 1834   0.028   3.513   7.477 -1.5934 -0.8189 -0.4120
   14SAPS  C310 1835   0.220   3.437   7.534 -0.3138 -0.4094  0.4873
   14SAPS  H10X 1836   0.273   3.531   7.508 -1.7097  0.1812 -0.2786
   14SAPS  H10Y 1837   0.287   3.350   7.516 -0.0075  0.0473 -0.6931
   14SAPS  C311 1838   0.188   3.426   7.693 -0.6842  0.5870 -0.3382
   14SAPS  H11X 1839   0.141   3.326   7.691  1.9491 -0.7564  0.6466
   14SAPS  H11Y 1840   0.114   3.504   7.724  0.4053  1.1351  0.9794
   14SAPS  C312 1841   0.320   3.409   7.775 -0.4091  0.0606  0.0077
   14SAPS  H12X 1842   0.365   3.510   7.773 -0.4025  0.2453  3.1818
   14SAPS  H12Y 1843   0.391   3.339   7.726 -2.5931 -1.1921 -1.5461
   14SAPS  C313 1844   0.294   3.371   7.929  0.5851 -0.5879  0.8001
   14SAPS  H13X 1845   0.246   3.272   7.916 -2.1584  0.6753  0.7249
   14SAPS  H13Y 1846   0.225   3.444   7.976  0.9442 -1.4641  2.8204
   14SAPS  C314 1847   0.426   3.376   8.010  0.2097 -0.3424 -0.2820
   14SAPS  H14X 1848   0.460   3.478   8.035  1.4012 -0.2886 -2.0085
   14SAPS  H14Y 1849   0.507   3.350   7.940  0.2687  0.4183 -0.5018
   14SAPS  C315 1850   0.420   3.307   8.148  0.2400  0.2701  0.3974
   14SAPS  H15X 1851   0.380   3.204   8.139 -2.7543  1.0942  2.6276
   14SAPS  H15Y 1852   0.330   3.345   8.201 -0.7694 -0.9986 -0.3551
   14SAPS  C316 1853   0.543   3.293   8.242 -0.1957 -0.9808 -0.5085
   14SAPS  H16X 1854   0.632   3.276   8.178 -0.2718 -0.2222 -0.8242
   14SAPS  H16Y 1855   0.543   3.195   8.294  1.2518 -1.2384 -0.9609
   14SAPS  C317 1856   0.548   3.410   8.333  0.5642  0.3814  0.0691
   14SAPS  H17X 1857   0.448   3.429   8.378  0.1952  2.5164 -1.5322
   14SAPS  H17Y 1858   0.571   3.501   8.274 -0.1382 -0.8481 -2.2303
   14SAPS  C318 1859   0.656   3.391   8.439 -0.9699 -1.0132 -0.5926
   14SAPS  H18X 1860   0.659   3.489   8.492 -2.0822 -1.9355  1.2402
   14SAPS  H18Y 1861   0.751   3.382   8.381  0.9391  1.2196  1.9324
   14SAPS  H18Z 1862   0.634   3.309   8.510 -2.7240 -0.0642  0.0037
   15SAPS     N 1863   2.223   2.544   6.104 -0.3912  0.4468 -0.2118
   15SAPS   HN1 1864   2.182   2.494   6.022  0.7079  0.3509 -0.7213
   15SAPS   HN2 1865   2.243   2.477   6.180  3.0953  1.0774 -0.4388
   15SAPS   HN3 1866   2.148   2.611   6.132  0.5845  0.6989  1.9694
   15SAPS   C12 1867   2.356   2.599   6.050  0.3248  0.3222  0.2040
   15SAPS  H12A 1868   2.409   2.650   6.129  0.3329  4.5710 -2.2538
   15SAPS   C13 1869   2.454   2.489   5.997 -0.4452  0.0974 -0.1779
   15SAPS  O13A 1870   2.426   2.364   6.006  0.3049 -0.3976 -0.9885
   15SAPS  O13B 1871   2.563   2.527   5.942  0.1851  0.0618 -0.2770
   15SAPS   C11 1872   2.332   2.699   5.937 -0.2482 -0.2491 -0.0900
   15SAPS  H11A 1873   2.287   2.647   5.850 -1.7879 -1.1887  1.1937
   15SAPS  H11B 1874   2.426   2.743   5.897  0.7172 -1.4458  0.7753
   15SAPS     P 1875   2.297   2.941   6.043 -0.1041 -0.3289  0.0974
   15SAPS   O13 1876   2.444   2.961   6.019  0.0704 -0.4551 -0.0257
   15SAPS   O14 1877   2.211   3.053   5.999  0.2746 -0.3922  0.4529
   15SAPS   O12 1878   2.245   2.810   5.974 -0.5488  0.4927 -0.0359
   15SAPS   O11 1879   2.271   2.914   6.198 -0.1222  0.4464 -0.2226
   15SAPS    C1 1880   2.377   2.926   6.296 -0.2093  0.2469 -0.5591
   15SAPS    HA 1881   2.471   2.875   6.265 -0.9457 -0.4855 -1.6503
   15SAPS    HB 1882   2.405   3.033   6.295 -0.9902  0.4640 -1.4563
   15SAPS    C2 1883   2.341   2.854   6.431  0.3189  0.3180 -0.0430
   15SAPS    HS 1884   2.289   2.758   6.412  1.4244 -0.3159  0.0855
   15SAPS   O21 1885   2.265   2.946   6.510  0.3181 -0.1201  0.2899
   15SAPS   C21 1886   2.142   2.910   6.538 -0.0319  0.1395  0.2958
   15SAPS   O22 1887   2.093   2.802   6.509  0.3022 -0.4736  0.3694
   15SAPS   C22 1888   2.065   3.030   6.606  0.1157  0.5236 -0.1698
   15SAPS   H2R 1889   1.997   3.052   6.521  1.8710 -1.1001 -2.0813
   15SAPS   H2S 1890   1.999   2.997   6.690  1.2116  0.2740  0.6174
   15SAPS    C3 1891   2.478   2.827   6.500  0.4297  0.3296 -0.2563
   15SAPS    HX 1892   2.525   2.926   6.518  0.8674  0.0725  0.0325
   15SAPS    HY 1893   2.544   2.785   6.421  1.3615  0.8105  0.2568
   15SAPS   O31 1894   2.467   2.744   6.621 -0.0181  0.5689  0.5043
   15SAPS   C31 1895   2.451   2.612   6.604  0.2063 -0.0804  0.4912
   15SAPS   O32 1896   2.434   2.553   6.499 -0.0667  0.4796  0.0988
   15SAPS   C32 1897   2.465   2.536   6.732  0.3597 -0.1731 -0.5029
   15SAPS   H2X 1898   2.413   2.594   6.811  0.2726 -1.7719  0.6738
   15SAPS   H2Y 1899   2.575   2.536   6.744  0.2948 -0.2075  0.1526
   15SAPS   C23 1900   2.149   3.155   6.639  0.5501  0.6796 -0.1170
   15SAPS   H3R 1901   2.082   3.244   6.635 -0.7166 -0.0401  2.8460
   15SAPS   H3S 1902   2.226   3.164   6.560  1.0702 -0.7727  0.1968
   15SAPS   C24 1903   2.210   3.137   6.776 -0.1583  0.1960 -0.5211
   15SAPS   H4R 1904   2.287   3.218   6.782  1.2242 -1.0009 -1.3616
   15SAPS   H4S 1905   2.271   3.046   6.791  0.2642  0.7142  1.1195
   15SAPS   C25 1906   2.116   3.164   6.898  0.5501 -0.0364  0.2175
   15SAPS   H5R 1907   2.036   3.233   6.867  0.8855  0.2089 -0.1095
   15SAPS   C26 1908   2.121   3.116   7.026  0.3031  0.9081  0.5592
   15SAPS   H6R 1909   2.035   3.140   7.089 -0.8517  0.3901 -0.7654
   15SAPS   C27 1910   2.225   3.027   7.093  0.4973  0.2525  0.9089
   15SAPS   H7R 1911   2.291   3.084   7.161 -2.5905  2.3365  2.3913
   15SAPS   H7S 1912   2.292   2.988   7.013 -1.3315 -1.3918  0.0736
   15SAPS   C28 1913   2.164   2.908   7.170  0.2968 -0.0327 -0.0705
   15SAPS   H8R 1914   2.067   2.875   7.128  0.4307 -0.1735 -0.2711
   15SAPS   C29 1915   2.205   2.848   7.283  0.1710 -0.0608 -0.1860
   15SAPS   H9R 1916   2.143   2.769   7.328  0.3036 -0.5037 -0.7795
   15SAPS  C210 1917   2.326   2.881   7.355 -0.1764  0.3427 -0.5139
   15SAPS  H10R 1918   2.301   2.976   7.408  0.1276 -0.3778  0.9581
   15SAPS  H10S 1919   2.420   2.897   7.298  0.9071 -1.5565  0.6696
   15SAPS  C211 1920   2.353   2.777   7.463 -0.8992  0.4016 -0.3391
   15SAPS  H11R 1921   2.404   2.686   7.428 -0.1463  1.3261 -1.7284
   15SAPS  C212 1922   2.350   2.787   7.596 -0.2112 -0.2138 -0.6810
   15SAPS  H12R 1923   2.374   2.699   7.658 -1.8082  1.6624  2.9345
   15SAPS  C213 1924   2.320   2.908   7.678 -0.3805  1.0320  0.1015
   15SAPS  H13R 1925   2.266   2.987   7.622 -3.2013  0.1261  1.3531
   15SAPS  H13S 1926   2.423   2.945   7.702  0.4641 -0.2464 -1.3594
   15SAPS  C214 1927   2.242   2.891   7.805 -0.0495  0.2044 -0.3288
   15SAPS  H14R 1928   2.137   2.865   7.788  0.1231  0.2565 -1.5596
   15SAPS  C215 1929   2.306   2.897   7.927  0.7021 -0.1073  0.7128
   15SAPS  H15R 1930   2.244   2.883   8.017  0.1167 -0.8570  0.2061
   15SAPS  C216 1931   2.450   2.923   7.954 -0.4281 -0.5112 -0.7101
   15SAPS  H16R 1932   2.453   3.033   7.965 -1.1527 -0.7466  2.7613
   15SAPS  H16S 1933   2.512   2.898   7.865  1.0325  0.8118 -0.1101
   15SAPS  C217 1934   2.507   2.837   8.064 -0.5288  0.5813 -0.1040
   15SAPS  H17R 1935   2.617   2.849   8.063 -0.0254 -2.8811  0.3558
   15SAPS  H17S 1936   2.482   2.729   8.051  2.4563 -0.4933  2.1388
   15SAPS  C218 1937   2.442   2.864   8.202 -0.0871 -0.0940  0.5000
   15SAPS  H18R 1938   2.331   2.857   8.201 -0.0694 -0.5470  1.1802
   15SAPS  H18S 1939   2.460   2.971   8.224 -1.2020  0.3377 -0.5869
   15SAPS  C219 1940   2.494   2.784   8.324 -0.2361 -0.2106  0.2986
   15SAPS  H19R 1941   2.595   2.830   8.336 -0.6372  2.0486 -3.4504
   15SAPS  H19S 1942   2.506   2.678   8.291 -0.0883  0.1383 -0.8307
   15SAPS  C220 1943   2.397   2.784   8.437  0.6878 -0.0529  0.2152
   15SAPS  H20R 1944   2.426   2.719   8.521 -0.0257 -0.5830  0.0668
   15SAPS  H20S 1945   2.296   2.750   8.405  0.0112  1.8527  0.1942
   15SAPS  H20T 1946   2.373   2.887   8.473  2.6403  0.7758 -0.6998
   15SAPS   C33 1947   2.411   2.394   6.722  0.2144 -0.7885  0.3768
   15SAPS   H3X 1948   2.474   2.322   6.665  1.2392 -0.3558  0.9342
   15SAPS   H3Y 1949   2.311   2.388   6.673 -0.7338 -1.2535  2.2907
   15SAPS   C34 1950   2.371   2.330   6.860  0.0254  0.2783 -0.1199
   15SAPS   H4X 1951   2.337   2.228   6.833  0.1303  0.0533  0.5940
   15SAPS   H4Y 1952   2.282   2.388   6.893 -0.8361 -1.4566  0.7115
   15SAPS   C35 1953   2.484   2.326   6.950  0.1731 -0.2145  0.5761
   15SAPS   H5X 1954   2.533   2.423   6.972 -0.4786 -0.0980  1.5566
   15SAPS   H5Y 1955   2.554   2.256   6.899  0.1012  2.0546 -2.9867
   15SAPS   C36 1956   2.448   2.259   7.078  0.3945 -0.4796  0.1070
   15SAPS   H6X 1957   2.380   2.174   7.056 -0.7707 -0.4294  3.0478
   15SAPS   H6Y 1958   2.395   2.333   7.142  1.8401 -1.1054  2.1400
   15SAPS   C37 1959   2.567   2.207   7.155 -0.3372  0.1905  0.3371
   15SAPS   H7X 1960   2.647   2.284   7.164 -0.7233  0.5563  0.6762
   15SAPS   H7Y 1961   2.606   2.123   7.094 -1.3529 -0.4176  0.4861
   15SAPS   C38 1962   2.521   2.163   7.291 -0.5121 -0.1438  0.4412
   15SAPS   H8X 1963   2.441   2.087   7.285  0.6106 -1.2204 -1.7061
   15SAPS   H8Y 1964   2.469   2.246   7.344 -1.4006  1.9321 -3.3349
   15SAPS   C39 1965   2.636   2.111   7.381  0.4261 -0.8389 -0.3643
   15SAPS   H9X 1966   2.713   2.192   7.382  0.4686 -0.8827  0.1655
   15SAPS   H9Y 1967   2.682   2.022   7.334 -4.7284 -3.2373 -1.5692
   15SAPS  C310 1968   2.610   2.076   7.525 -0.0089 -0.7367  0.1596
   15SAPS  H10X 1969   2.576   1.970   7.532  0.3721 -0.7653  3.3316
   15SAPS  H10Y 1970   2.538   2.144   7.577  0.3676 -0.4695  0.3366
   15SAPS  C311 1971   2.741   2.074   7.609  0.7339 -0.5612 -0.3514
   15SAPS  H11X 1972   2.787   2.175   7.611 -0.2366 -0.1050  1.6991
   15SAPS  H11Y 1973   2.816   2.008   7.560  0.6595 -1.3859  0.6038
   15SAPS  C312 1974   2.718   2.030   7.752  0.1752  0.2610  0.1575
   15SAPS  H12X 1975   2.667   1.932   7.766 -2.5760  1.7677  1.6514
   15SAPS  H12Y 1976   2.655   2.101   7.809 -1.4562 -0.7129 -0.3622
   15SAPS  C313 1977   2.846   2.023   7.843  0.9662  0.5885  0.3363
   15SAPS  H13X 1978   2.894   2.123   7.842 -0.1477  1.1492  1.0711
   15SAPS  H13Y 1979   2.909   1.945   7.796  2.4689  0.8822  1.7553
   15SAPS  C314 1980   2.819   1.981   7.994  0.2904 -1.1371  0.4045
   15SAPS  H14X 1981   2.786   1.875   8.000 -0.3972 -0.8852  1.1755
   15SAPS  H14Y 1982   2.741   2.055   8.021  1.3595  0.1064  0.1621
   15SAPS  C315 1983   2.950   1.993   8.073  0.1690  0.4266 -0.5254
   15SAPS  H15X 1984   3.014   2.061   8.012  0.2817  1.0640  0.2753
   15SAPS  H15Y 1985   2.990   1.890   8.081 -3.1508 -1.1729 -2.3292
   15SAPS  C316 1986   2.946   2.042   8.216  0.4174 -0.8424  0.6205
   15SAPS  H16X 1987   2.873   1.988   8.280 -0.2242  0.1981  0.7959
   15SAPS  H16Y 1988   2.905   2.145   8.206  1.1556 -0.5263  0.8452
   15SAPS  C317 1989   3.074   2.067   8.292 -0.2115 -0.0918  0.0799
   15SAPS  H17X 1990   3.043   2.123   8.382  2.9117 -0.4192  1.4964
   15SAPS  H17Y 1991   3.139   2.145   8.247 -1.8147  1.2336 -0.0409
   15SAPS  C318 1992   3.141   1.938   8.339 -0.6355  0.3220 -0.2566
   15SAPS  H18X 1993   3.196   1.892   8.254  2.9588  3.0755  0.3103
   15SAPS  H18Y 1994   3.059   1.875   8.380 -1.0979  2.4755  2.3780
   15SAPS  H18Z 1995   3.211   1.949   8.424 -0.5226 -0.7884 -0.2027
   16SAPS     N 1996   3.090   5.793   6.421  0.5733 -0.2328 -0.7463
   16SAPS   HN1 1997   3.083   5.766   6.521  1.5722  0.8608 -0.3578
   16SAPS   HN2 1998   3.098   5.897   6.419 -0.7420 -0.1156 -1.2208
   16SAPS   HN3 1999   3.001   5.788   6.367  0.5916  2.3405 -1.1495
   16SAPS   C12 2000   3.177   5.711   6.341 -0.3599  0.5671 -0.5811
   16SAPS  H12A 2001   3.160   5.607   6.363  2.2275  0.0707 -0.6039
   16SAPS   C13 2002   3.167   5.732   6.188 -1.0828 -0.4302  0.2886
   16SAPS  O13A 2003   3.078   5.808   6.133 -0.1438 -0.5734 -0.3694
   16SAPS  O13B 2004   3.238   5.655   6.119  0.2178 -0.0087 -0.1122
   16SAPS   C11 2005   3.329   5.745   6.374  0.3333  0.2265 -0.1807
   16SAPS  H11A 2006   3.359   5.850   6.352  1.8872  0.4534  2.6497
   16SAPS  H11B 2007   3.384   5.675   6.308  1.4309  2.3938 -1.6699
   16SAPS     P 2008   3.493   5.710   6.574  0.0389  0.2745 -0.4587
   16SAPS   O13 2009   3.539   5.571   6.578 -0.2978 -0.2460  0.3111
   16SAPS   O14 2010   3.567   5.805   6.494  0.2810  0.0424 -0.0865
   16SAPS   O12 2011   3.349   5.694   6.503 -0.4550  0.3306 -0.4174
   16SAPS   O11 2012   3.459   5.759   6.723 -0.1980 -0.1242 -0.6579
   16SAPS    C1 2013   3.333   5.824   6.747 -0.1693 -0.0453  0.0428
   16SAPS    HA 2014   3.371   5.923   6.782  2.2921 -1.1092  0.6518
   16SAPS    HB 2015   3.268   5.836   6.658  0.2922  0.2209 -0.2680
   16SAPS    C2 2016   3.260   5.740   6.853 -0.1265 -0.3607 -0.1068
   16SAPS    HS 2017   3.156   5.774   6.873 -0.3052 -0.3905 -0.9398
   16SAPS   O21 2018   3.340   5.741   6.974 -0.1741  0.3218 -0.8129
   16SAPS   C21 2019   3.337   5.849   7.051  0.5357 -0.3945  0.1960
   16SAPS   O22 2020   3.284   5.956   7.024 -0.2133  0.0738  0.3668
   16SAPS   C22 2021   3.409   5.817   7.185  0.7146 -0.6069 -0.2562
   16SAPS   H2R 2022   3.381   5.715   7.219  0.6741 -0.1876  1.0506
   16SAPS   H2S 2023   3.516   5.821   7.156  0.8408 -0.1386  0.2488
   16SAPS    C3 2024   3.254   5.599   6.797  0.1327 -0.4192  0.4028
   16SAPS    HX 2025   3.354   5.551   6.793  0.0861 -0.4711 -0.2470
   16SAPS    HY 2026   3.209   5.619   6.697  0.7628  0.5314  0.2954
   16SAPS   O31 2027   3.154   5.530   6.875 -0.1187  0.6110  0.4328
   16SAPS   C31 2028   3.167   5.401   6.906  0.3626 -0.2288  0.0400
   16SAPS   O32 2029   3.254   5.322   6.872  0.0290  0.5535 -0.3570
   16SAPS   C32 2030   3.053   5.350   6.991  0.4532 -0.5947  0.0870
   16SAPS   H2X 2031   3.001   5.276   6.927  0.3253 -0.3412 -0.1046
   16SAPS   H2Y 2032   2.974   5.425   7.009 -0.0759 -1.3334  0.9317
   16SAPS   C23 2033   3.385   5.914   7.306 -0.0354  0.1011 -0.1152
   16SAPS   H3R 2034   3.298   5.891   7.370 -0.3671 -0.0912 -0.6264
   16SAPS   H3S 2035   3.372   6.019   7.270  0.8537 -0.2054 -1.4121
   16SAPS   C24 2036   3.500   5.915   7.399  0.2333  1.0043 -0.0468
   16SAPS   H4R 2037   3.487   5.996   7.474 -1.0344  0.7488  0.0294
   16SAPS   H4S 2038   3.593   5.939   7.343 -0.9335  1.2863 -1.9675
   16SAPS   C25 2039   3.526   5.779   7.450 -0.2372 -0.3070 -0.0630
   16SAPS   H5R 2040   3.603   5.734   7.385  1.0922  2.4885 -0.5613
   16SAPS   C26 2041   3.463   5.713   7.545 -0.8179  0.1736 -0.2206
   16SAPS   H6R 2042   3.497   5.612   7.573 -0.7798  0.3781  0.5069
   16SAPS   C27 2043   3.354   5.766   7.637  0.4301 -0.3006 -0.9604
   16SAPS   H7R 2044   3.322   5.865   7.597 -0.4942 -0.8916 -1.7243
   16SAPS   H7S 2045   3.398   5.785   7.737  1.4973 -0.1291 -1.4535
   16SAPS   C28 2046   3.238   5.674   7.640 -0.3183  0.2901  0.7992
   16SAPS   H8R 2047   3.245   5.597   7.563  2.0992  0.0147  1.2284
   16SAPS   C29 2048   3.140   5.667   7.737 -0.1058 -0.0376  0.2045
   16SAPS   H9R 2049   3.056   5.598   7.718  1.0996 -1.6018  0.3431
   16SAPS  C210 2050   3.144   5.749   7.866  0.2105 -0.6265  0.1460
   16SAPS  H10R 2051   3.168   5.854   7.841  0.2556 -0.1729  1.9968
   16SAPS  H10S 2052   3.232   5.717   7.925 -0.4058  0.2073  1.5456
   16SAPS  C211 2053   3.015   5.745   7.946 -0.0268 -0.6998  0.5958
   16SAPS  H11R 2054   2.931   5.763   7.877  1.2791 -0.9617 -1.1408
   16SAPS  C212 2055   2.983   5.688   8.065 -0.3307 -0.2573  0.6385
   16SAPS  H12R 2056   2.878   5.699   8.097 -0.4484  0.7718 -0.0220
   16SAPS  C213 2057   3.071   5.609   8.167 -0.3022  0.4754 -0.0064
   16SAPS  H13R 2058   3.177   5.643   8.167  0.1710 -0.8203  2.1589
   16SAPS  H13S 2059   3.069   5.499   8.154  0.0785  0.4564  0.0725
   16SAPS  C214 2060   3.016   5.651   8.304  0.2873  0.0379  0.6930
   16SAPS  H14R 2061   2.942   5.732   8.306  1.2792  1.2034 -3.0152
   16SAPS  C215 2062   3.034   5.582   8.420  0.0158  0.0251  0.3722
   16SAPS  H15R 2063   2.971   5.612   8.506 -1.6425  0.5590 -0.9690
   16SAPS  C216 2064   3.128   5.471   8.451  0.0317  0.4407  1.0739
   16SAPS  H16R 2065   3.183   5.511   8.538  0.7146 -1.0599  1.3677
   16SAPS  H16S 2066   3.202   5.455   8.369 -3.3391 -0.2465 -2.1066
   16SAPS  C217 2067   3.059   5.338   8.491  1.1414 -0.1228 -0.8526
   16SAPS  H17R 2068   3.011   5.290   8.403  1.4786 -1.2766 -0.4314
   16SAPS  H17S 2069   2.973   5.351   8.561  1.8889 -4.6867  1.2986
   16SAPS  C218 2070   3.168   5.243   8.547  0.4683  0.2681 -0.2824
   16SAPS  H18R 2071   3.256   5.258   8.481 -0.0539  1.2461 -0.7775
   16SAPS  H18S 2072   3.129   5.138   8.551 -1.5714  1.0202  2.1812
   16SAPS  C219 2073   3.197   5.271   8.692 -0.2109  0.1280 -0.3256
   16SAPS  H19R 2074   3.094   5.266   8.733 -0.6557 -1.9755 -1.5193
   16SAPS  H19S 2075   3.236   5.374   8.703  0.2960  0.0442 -1.2577
   16SAPS  C220 2076   3.297   5.180   8.759 -0.2359 -0.2909 -0.0788
   16SAPS  H20R 2077   3.333   5.233   8.849  1.1074  0.6728 -1.1534
   16SAPS  H20S 2078   3.386   5.173   8.693  1.0712 -1.4917  1.7081
   16SAPS  H20T 2079   3.255   5.079   8.781 -1.5833  0.0093 -1.1367
   16SAPS   C33 2080   3.102   5.282   7.117 -0.1167 -0.2030 -0.3560
   16SAPS   H3X 2081   3.199   5.329   7.144 -0.2924 -0.4491  0.7460
   16SAPS   H3Y 2082   3.121   5.175   7.096 -0.4539 -1.1458  3.4765
   16SAPS   C34 2083   3.008   5.297   7.235 -0.1449 -0.0089  0.2877
   16SAPS   H4X 2084   2.898   5.285   7.227 -0.2898  0.9577  0.6982
   16SAPS   H4Y 2085   3.015   5.397   7.284 -0.7742 -0.8802  2.2861
   16SAPS   C35 2086   3.055   5.197   7.351 -0.6644 -0.0113 -0.1734
   16SAPS   H5X 2087   3.166   5.193   7.356 -0.6441 -1.9443 -1.2235
   16SAPS   H5Y 2088   3.013   5.095   7.338 -1.5675  0.2407  0.6382
   16SAPS   C36 2089   3.008   5.246   7.485 -0.1289  0.3588  0.2350
   16SAPS   H6X 2090   2.899   5.268   7.487 -0.4351 -1.0749  0.3375
   16SAPS   H6Y 2091   3.063   5.341   7.498 -1.0205  0.9009  0.1187
   16SAPS   C37 2092   3.051   5.145   7.595 -0.0007  0.2184  0.1646
   16SAPS   H7X 2093   3.159   5.119   7.587  0.5925  1.7664  2.1868
   16SAPS   H7Y 2094   2.988   5.055   7.580  1.8454 -0.9305 -1.1320
   16SAPS   C38 2095   3.022   5.196   7.736 -0.3023  0.1376  0.0216
   16SAPS   H8X 2096   2.919   5.233   7.754  0.1515  0.7689  1.5008
   16SAPS   H8Y 2097   3.089   5.279   7.764 -0.1091  0.2735 -0.8063
   16SAPS   C39 2098   3.057   5.097   7.849  0.0522 -0.1790  0.1657
   16SAPS   H9X 2099   3.167   5.104   7.865 -0.1209 -1.5868  2.4477
   16SAPS   H9Y 2100   3.043   4.989   7.828 -2.2326 -0.3908  2.3694
   16SAPS  C310 2101   2.977   5.113   7.981 -0.0659 -0.2798  1.1822
   16SAPS  H10X 2102   2.879   5.065   7.963 -0.0909  0.0718  0.3431
   16SAPS  H10Y 2103   2.960   5.222   7.996 -1.6478 -0.6898  2.7008
   16SAPS  C311 2104   3.040   5.046   8.104 -0.2899 -0.8117  0.1966
   16SAPS  H11X 2105   3.137   5.099   8.112 -1.4627  1.5579 -0.4577
   16SAPS  H11Y 2106   3.052   4.936   8.094 -0.7556 -0.6487 -2.9591
   16SAPS  C312 2107   2.962   5.083   8.236  0.4974  0.9946  0.7327
   16SAPS  H12X 2108   2.956   5.194   8.228  0.4100  0.9083 -0.5416
   16SAPS  H12Y 2109   3.027   5.051   8.320  0.2667 -2.2693 -0.2190
   16SAPS  C313 2110   2.818   5.032   8.241 -0.2395  0.1465  0.0800
   16SAPS  H13X 2111   2.818   4.921   8.239 -0.8067  0.1475 -0.3352
   16SAPS  H13Y 2112   2.762   5.070   8.152  1.5670  0.1315 -1.1135
   16SAPS  C314 2113   2.742   5.064   8.376 -0.3558  0.2553 -0.4071
   16SAPS  H14X 2114   2.728   5.173   8.387  0.5649  0.3632 -0.1837
   16SAPS  H14Y 2115   2.809   5.036   8.460  0.9252 -3.5734 -2.4514
   16SAPS  C315 2116   2.614   4.981   8.388 -0.2179  0.2608 -0.0841
   16SAPS  H15X 2117   2.581   4.996   8.493  1.0322 -0.5537  0.4587
   16SAPS  H15Y 2118   2.629   4.871   8.377  0.9231  0.2582  1.2524
   16SAPS  C316 2119   2.502   5.022   8.296  0.4860  0.3973  0.3858
   16SAPS  H16X 2120   2.519   4.988   8.192  1.0938 -1.2591  0.9777
   16SAPS  H16Y 2121   2.498   5.133   8.297 -0.8522  0.3722 -0.1737
   16SAPS  C317 2122   2.362   4.978   8.347 -0.1581 -0.5345 -0.7083
   16SAPS  H17X 2123   2.330   5.037   8.436  0.8126  0.4495 -0.9887
   16SAPS  H17Y 2124   2.374   4.875   8.387 -2.8196 -0.8875 -0.5905
   16SAPS  C318 2125   2.256   4.996   8.243 -0.1704 -1.0142  0.4653
   16SAPS  H18X 2126   2.157   4.981   8.292 -1.2896 -0.5673 -1.5366
   16SAPS  H18Y 2127   2.274   4.936   8.151  1.4137 -0.4725  0.4081
   16SAPS  H18Z 2128   2.252   5.100   8.205  1.4668 -0.6179  1.3099
   17SAPC     N 2129   0.962   0.852  10.938  0.5131  0.4163  0.7415
   17SAPC   C12 2130   1.049   0.813  11.062  0.4769  0.2940  0.1908
   17SAPC  H12A 2131   0.993   0.791  11.152 -1.7414  0.6600 -1.0290
   17SAPC  H12B 2132   1.120   0.890  11.083 -0.1712  0.5295  1.6227
   17SAPC   C13 2133   0.874   0.955  10.990  1.0320 -0.4091 -0.1971
   17SAPC  H13A 2134   0.803   0.906  11.055  1.2706  0.0356  0.4079
   17SAPC  H13B 2135   0.931   1.028  11.044  0.0163  0.3261 -0.0885
   17SAPC  H13C 2136   0.825   0.999  10.904  2.8387 -1.0264 -1.6225
   17SAPC   C14 2137   1.059   0.905  10.844 -0.8631  0.4064  0.9891
   17SAPC  H14A 2138   1.144   0.838  10.843 -0.1212  1.1892  3.3785
   17SAPC  H14B 2139   1.020   0.916  10.744 -0.8693 -1.8780  0.6912
   17SAPC  H14C 2140   1.089   1.005  10.871  1.1163  0.2041 -0.2822
   17SAPC   C15 2141   0.893   0.730  10.888 -0.6565  0.6039  0.4550
   17SAPC  H15A 2142   0.963   0.651  10.866 -1.5510  0.7581 -3.9507
   17SAPC  H15B 2143   0.827   0.705  10.970  0.5641  0.8774  1.5397
   17SAPC  H15C 2144   0.839   0.749  10.796  1.1790 -0.7013 -0.9684
   17SAPC   C11 2145   1.133   0.684  11.057  0.3941  0.3501  0.0628
   17SAPC  H11A 2146   1.059   0.601  11.052 -0.6144  1.2308  0.0386
   17SAPC  H11B 2147   1.179   0.665  11.156 -0.2128  1.6277  0.6044
   17SAPC     P 2148   1.382   0.739  10.983  0.4136  0.3867  0.2836
   17SAPC   O13 2149   1.377   0.867  11.053  0.4851 -0.0584 -0.5179
   17SAPC   O14 2150   1.467   0.637  11.041  0.5143 -0.0570  0.1059
   17SAPC   O12 2151   1.229   0.685  10.959 -0.1544  0.3959 -0.4313
   17SAPC   O11 2152   1.433   0.756  10.837  0.2235  0.0333  0.5085
   17SAPC    C1 2153   1.431   0.646  10.744 -0.7310  0.5982 -0.7219
   17SAPC    HA 2154   1.515   0.577  10.764 -0.6674  0.8049 -0.2623
   17SAPC    HB 2155   1.339   0.585  10.758  0.1723 -0.3958  1.2700
   17SAPC    C2 2156   1.442   0.690  10.596 -0.1866 -0.0762  0.1116
   17SAPC    HS 2157   1.519   0.768  10.577  0.0844 -0.3819 -0.0443
   17SAPC   O21 2158   1.307   0.732  10.564 -0.1742  0.2848 -0.0061
   17SAPC   C21 2159   1.297   0.858  10.524  0.3057 -0.8209  0.7110
   17SAPC   O22 2160   1.388   0.933  10.496 -0.0579 -0.0552 -0.5000
   17SAPC   C22 2161   1.152   0.890  10.511  0.7814 -0.4210 -0.2503
   17SAPC   H2R 2162   1.087   0.801  10.500  0.0608 -0.0380  0.8562
   17SAPC   H2S 2163   1.117   0.953  10.595  2.3810  1.8335 -1.1392
   17SAPC    C3 2164   1.480   0.562  10.521 -0.0628  0.2941  0.7060
   17SAPC    HX 2165   1.403   0.488  10.550 -0.8195  0.9172  0.3234
   17SAPC    HY 2166   1.582   0.519  10.533 -0.3660 -1.5826 -2.3545
   17SAPC   O31 2167   1.465   0.586  10.383  0.0337 -0.3915  0.0458
   17SAPC   C31 2168   1.566   0.645  10.319 -0.0759 -0.0290  0.5890
   17SAPC   O32 2169   1.673   0.680  10.368 -0.4164  0.4592 -0.2896
   17SAPC   C32 2170   1.529   0.652  10.167  0.3570 -0.4068 -0.2745
   17SAPC   H2X 2171   1.419   0.648  10.151  0.2104 -1.9276  0.9086
   17SAPC   H2Y 2172   1.571   0.568  10.109  1.8581 -0.6177  1.0669
   17SAPC   C23 2173   1.128   0.988  10.391 -0.3093 -0.1545  0.0108
   17SAPC   H3R 2174   1.205   1.069  10.393 -0.5850  0.1147  2.5003
   17SAPC   H3S 2175   1.035   1.047  10.402  0.3520  1.3209 -1.6100
   17SAPC   C24 2176   1.144   0.923  10.254  0.1724  0.0935  0.7407
   17SAPC   H4R 2177   1.078   0.834  10.250  1.6205 -1.0227  0.7081
   17SAPC   H4S 2178   1.252   0.898  10.240  0.3326  0.6787  0.9267
   17SAPC   C25 2179   1.111   1.018  10.133 -0.5229 -0.7102 -0.5379
   17SAPC   H5R 2180   1.098   1.122  10.166  1.7021 -1.3006  2.6849
   17SAPC   C26 2181   1.086   0.984  10.007 -0.1253  0.2635  0.3969
   17SAPC   H6R 2182   1.068   1.061   9.931 -1.4369 -0.2552  0.1537
   17SAPC   C27 2183   1.076   0.856   9.932  0.1740  0.3618 -0.1442
   17SAPC   H7R 2184   1.081   0.771  10.003  0.0124  0.5190  0.0551
   17SAPC   H7S 2185   1.167   0.844   9.870 -1.1898 -0.3626 -2.1208
   17SAPC   C28 2186   0.957   0.843   9.842 -0.6319 -0.4261  0.0917
   17SAPC   H8R 2187   0.867   0.829   9.903 -2.8601  2.8775 -2.1812
   17SAPC   C29 2188   0.946   0.850   9.705 -0.4269 -0.4208 -0.1078
   17SAPC   H9R 2189   0.845   0.832   9.666 -1.2442 -0.5908  1.9557
   17SAPC  C210 2190   1.058   0.869   9.599  0.3639  0.1411 -1.1076
   17SAPC  H10R 2191   1.134   0.944   9.629 -0.1378  0.9532 -1.8098
   17SAPC  H10S 2192   1.011   0.901   9.503 -1.2279 -0.2840 -0.4963
   17SAPC  C211 2193   1.137   0.739   9.581 -0.1383 -0.3185 -0.1752
   17SAPC  H11R 2194   1.151   0.676   9.670  0.4226 -0.6794 -0.5159
   17SAPC  C212 2195   1.203   0.706   9.467  0.0094  0.0333  0.4122
   17SAPC  H12R 2196   1.259   0.611   9.469 -1.1630 -0.6737  1.1912
   17SAPC  C213 2197   1.209   0.776   9.336  0.5047 -0.4100  0.1991
   17SAPC  H13R 2198   1.303   0.750   9.283 -0.8427 -1.2563 -1.9233
   17SAPC  H13S 2199   1.204   0.886   9.351  1.8573 -0.1291 -1.1503
   17SAPC  C214 2200   1.093   0.749   9.244  0.1951 -0.0050 -0.2781
   17SAPC  H14R 2201   1.023   0.674   9.283 -0.6699 -0.7341 -3.0325
   17SAPC  C215 2202   1.081   0.792   9.122 -0.1503  0.1752  1.3384
   17SAPC  H15R 2203   0.993   0.781   9.057  0.1410 -0.9118  1.1206
   17SAPC  C216 2204   1.187   0.877   9.055 -0.4306 -1.0041  0.2897
   17SAPC  H16R 2205   1.253   0.928   9.127 -2.8500  1.5397  0.8796
   17SAPC  H16S 2206   1.137   0.955   8.994 -2.1980 -0.1696  2.6472
   17SAPC  C217 2207   1.274   0.782   8.968 -0.2474  0.2549 -0.0608
   17SAPC  H17R 2208   1.210   0.722   8.900 -1.7619  3.8271 -2.0360
   17SAPC  H17S 2209   1.334   0.719   9.036  1.8265 -0.6226 -2.5528
   17SAPC  C218 2210   1.375   0.847   8.882  0.6050 -0.0593 -0.2869
   17SAPC  H18R 2211   1.430   0.919   8.946  0.4981 -0.0405 -0.2158
   17SAPC  H18S 2212   1.320   0.893   8.796  1.3690 -2.2539 -2.0284
   17SAPC  C219 2213   1.470   0.751   8.815  0.2421 -0.1244  0.1795
   17SAPC  H19R 2214   1.529   0.819   8.751 -1.6530 -1.7689 -3.6575
   17SAPC  H19S 2215   1.409   0.693   8.742  0.4240 -0.4072  0.2524
   17SAPC  C220 2216   1.550   0.676   8.914 -0.1078  0.8170 -0.1550
   17SAPC  H20R 2217   1.596   0.738   8.994  0.5739  0.0478  0.0558
   17SAPC  H20S 2218   1.631   0.612   8.874 -1.2795 -1.2860  0.6773
   17SAPC  H20T 2219   1.486   0.602   8.967  1.5434 -0.5466  0.0211
   17SAPC   C33 2220   1.577   0.782  10.103 -0.1411 -0.7229  0.0271
   17SAPC   H3X 2221   1.687   0.798  10.095 -0.4350  1.6278 -0.1682
   17SAPC   H3Y 2222   1.553   0.861  10.178 -0.1745 -1.4335  0.7732
   17SAPC   C34 2223   1.510   0.805   9.965 -0.5353  0.4036  0.6558
   17SAPC   H4X 2224   1.401   0.812   9.986 -0.5945 -0.5873  0.7185
   17SAPC   H4Y 2225   1.534   0.726   9.890  0.7313  2.3440 -1.0923
   17SAPC   C35 2226   1.576   0.926   9.903  0.4650 -0.5851 -0.1252
   17SAPC   H5X 2227   1.685   0.910   9.915  0.4443 -0.2271  0.6657
   17SAPC   H5Y 2228   1.546   1.017   9.960 -1.2252 -0.5463 -1.0219
   17SAPC   C36 2229   1.539   0.955   9.759 -0.2473 -0.1187  0.9177
   17SAPC   H6X 2230   1.564   1.059   9.732  2.3275 -0.8563  0.1276
   17SAPC   H6Y 2231   1.432   0.932   9.742 -0.5086  2.3144 -1.2481
   17SAPC   C37 2232   1.636   0.879   9.659  0.3966  0.2464 -0.1260
   17SAPC   H7X 2233   1.611   0.772   9.648 -0.9787  0.3323  1.7087
   17SAPC   H7Y 2234   1.742   0.878   9.692  0.1615  1.1719  0.7293
   17SAPC   C38 2235   1.647   0.951   9.522 -0.5681  0.6403  0.6235
   17SAPC   H8X 2236   1.681   1.056   9.524 -0.0398  0.4704  0.7580
   17SAPC   H8Y 2237   1.545   0.950   9.477 -0.6123 -0.0960  0.7200
   17SAPC   C39 2238   1.737   0.861   9.429  0.6030  0.0135 -0.0127
   17SAPC   H9X 2239   1.709   0.755   9.448 -2.1064  0.8337  1.1965
   17SAPC   H9Y 2240   1.845   0.874   9.449  0.6541 -1.6007  0.8745
   17SAPC  C310 2241   1.705   0.883   9.279 -0.5960  0.7850  0.2405
   17SAPC  H10X 2242   1.603   0.849   9.251  0.1250 -1.7562  0.4250
   17SAPC  H10Y 2243   1.770   0.818   9.216 -1.8537  1.1002 -1.4751
   17SAPC  C311 2244   1.727   1.021   9.219 -0.2524 -0.4434 -0.3481
   17SAPC  H11X 2245   1.836   1.035   9.202  0.3897 -0.1706  3.1313
   17SAPC  H11Y 2246   1.700   1.093   9.300  1.2433  0.5796 -0.7075
   17SAPC  C312 2247   1.633   1.058   9.100 -0.0549  0.2071 -0.2543
   17SAPC  H12X 2248   1.525   1.057   9.124 -1.4153  1.8892 -5.0916
   17SAPC  H12Y 2249   1.647   0.971   9.033 -0.3231  1.5267 -2.1287
   17SAPC  C313 2250   1.674   1.178   9.023  0.5679 -0.1654  0.1229
   17SAPC  H13X 2251   1.783   1.195   9.032  0.7002 -1.1960  0.5228
   17SAPC  H13Y 2252   1.641   1.271   9.075  1.5961 -0.6025  1.6329
   17SAPC  C314 2253   1.636   1.169   8.875  0.0710 -0.2366  0.8745
   17SAPC  H14X 2254   1.648   1.269   8.829  0.9674  0.4726  2.5475
   17SAPC  H14Y 2255   1.532   1.131   8.871 -0.3772  0.8296  2.0364
   17SAPC  C315 2256   1.737   1.084   8.796 -0.4593 -0.7300  0.7865
   17SAPC  H15X 2257   1.727   0.980   8.833 -0.6267 -0.2498  2.1202
   17SAPC  H15Y 2258   1.842   1.116   8.809 -0.4189  0.5521 -1.9148
   17SAPC  C316 2259   1.707   1.066   8.638 -0.6140  0.3746  0.6223
   17SAPC  H16X 2260   1.702   1.166   8.591 -0.3112  0.3624  0.5625
   17SAPC  H16Y 2261   1.611   1.012   8.624  0.3386 -0.8342 -1.8310
   17SAPC  C317 2262   1.814   0.969   8.579  0.1235 -0.1525 -0.0432
   17SAPC  H17X 2263   1.912   0.990   8.627 -0.0073  1.0842 -0.2747
   17SAPC  H17Y 2264   1.828   0.970   8.469 -1.0235 -0.7551 -0.2128
   17SAPC  C318 2265   1.771   0.824   8.614  0.7257 -0.4608 -0.3969
   17SAPC  H18X 2266   1.739   0.807   8.719 -0.0793  4.5499  0.3709
   17SAPC  H18Y 2267   1.693   0.773   8.554  1.5567 -1.7957 -0.3837
   17SAPC  H18Z 2268   1.862   0.763   8.596  0.9892 -0.1013 -0.2713
   18SAPC     N 2269   0.743   6.710  10.938  0.7289  0.3056 -0.2036
   18SAPC   C12 2270   0.854   6.756  10.844  0.2444 -0.2448 -0.0899
   18SAPC  H12A 2271   0.851   6.864  10.843  1.3040 -0.1830 -1.7546
   18SAPC  H12B 2272   0.824   6.713  10.749 -0.0326 -0.5882  0.1514
   18SAPC   C13 2273   0.742   6.560  10.950 -0.5695  0.0949 -0.3220
   18SAPC  H13A 2274   0.712   6.516  10.856  0.7884 -2.5799  0.3760
   18SAPC  H13B 2275   0.842   6.521  10.963 -1.7952 -2.8983  1.3477
   18SAPC  H13C 2276   0.673   6.529  11.027 -0.4976 -0.6243 -0.5407
   18SAPC   C14 2277   0.757   6.774  11.074 -0.0292  0.2924 -0.2972
   18SAPC  H14A 2278   0.662   6.780  11.126 -0.2501 -0.3371 -0.6143
   18SAPC  H14B 2279   0.829   6.724  11.136  0.3519 -0.7291 -1.5254
   18SAPC  H14C 2280   0.780   6.878  11.054 -0.6820  0.5707  0.3577
   18SAPC   C15 2281   0.607   6.762  10.903  1.4688  0.1671  0.9891
   18SAPC  H15A 2282   0.568   6.718  10.813  0.1047  1.9015  0.7049
   18SAPC  H15B 2283   0.544   6.735  10.987  1.8571  3.0541  2.3137
   18SAPC  H15C 2284   0.611   6.869  10.892  1.2348  0.1198  0.4110
   18SAPC   C11 2285   1.000   6.710  10.877  0.4728 -0.0941  0.7983
   18SAPC  H11A 2286   1.026   6.731  10.983 -0.4746  1.9759  0.6692
   18SAPC  H11B 2287   1.062   6.778  10.815 -0.3729  0.5420  0.6320
   18SAPC     P 2288   1.155   6.506  10.805 -0.2885 -0.1932  0.0454
   18SAPC   O13 2289   1.267   6.533  10.894 -0.2445  0.1252 -0.0003
   18SAPC   O14 2290   1.135   6.362  10.769  0.5354  0.0298  0.1526
   18SAPC   O12 2291   1.015   6.569  10.858 -0.1275  0.2108  0.1438
   18SAPC   O11 2292   1.193   6.583  10.670 -0.3846  0.1679 -0.1542
   18SAPC    C1 2293   1.096   6.612  10.568 -0.7145 -1.0843 -0.5596
   18SAPC    HA 2294   1.040   6.518  10.547  0.8966 -2.2536  0.1466
   18SAPC    HB 2295   1.026   6.690  10.603  1.0348  0.7159 -0.8564
   18SAPC    C2 2296   1.176   6.681  10.454  0.3647  0.5916  0.2129
   18SAPC    HS 2297   1.209   6.780  10.491 -2.2684  1.4106  0.6346
   18SAPC   O21 2298   1.091   6.688  10.331 -0.0790 -0.9923 -0.0991
   18SAPC   C21 2299   1.029   6.800  10.314 -0.1127  0.2036  0.2658
   18SAPC   O22 2300   1.031   6.894  10.393  0.2903 -0.0521 -0.3665
   18SAPC   C22 2301   0.962   6.799  10.182 -0.2027 -0.4883 -0.0753
   18SAPC   H2R 2302   0.942   6.905  10.156  0.1411  0.3318  2.6487
   18SAPC   H2S 2303   1.035   6.756  10.110 -0.9357 -0.6947 -0.6964
   18SAPC    C3 2304   1.297   6.593  10.414 -0.2709  0.3656  0.4203
   18SAPC    HX 2305   1.261   6.491  10.389 -0.7711  0.1634  1.8725
   18SAPC    HY 2306   1.369   6.581  10.498 -2.5279  2.0976  2.7608
   18SAPC   O31 2307   1.355   6.650  10.293 -0.4491  0.2506  0.1531
   18SAPC   C31 2308   1.413   6.767  10.307 -0.0057  0.3211  0.1416
   18SAPC   O32 2309   1.418   6.826  10.416 -0.1639  0.2498 -0.7166
   18SAPC   C32 2310   1.455   6.808  10.163  0.6504  0.2129  0.0490
   18SAPC   H2X 2311   1.563   6.787  10.153  0.5730 -0.5753  0.8152
   18SAPC   H2Y 2312   1.438   6.918  10.159  2.0278  0.4534  0.4895
   18SAPC   C23 2313   0.824   6.737  10.179  0.1907 -0.2358  0.4112
   18SAPC   H3R 2314   0.758   6.766  10.264  2.0894 -2.8652  2.9801
   18SAPC   H3S 2315   0.831   6.626  10.182  0.5044 -0.2054  0.7740
   18SAPC   C24 2316   0.748   6.755  10.042  1.0320  0.1024 -0.4390
   18SAPC   H4R 2317   0.743   6.864  10.026 -0.2036  0.3417  1.3472
   18SAPC   H4S 2318   0.640   6.732  10.051  1.2376 -0.4345  0.9941
   18SAPC   C25 2319   0.805   6.677   9.927 -0.3460  0.1099 -0.1143
   18SAPC   H5R 2320   0.788   6.568   9.927  1.9920 -0.3168  0.8983
   18SAPC   C26 2321   0.883   6.729   9.831  0.4826  0.1109 -0.5557
   18SAPC   H6R 2322   0.925   6.666   9.751  2.0821 -0.8625  0.9713
   18SAPC   C27 2323   0.926   6.876   9.825 -0.1168  1.0039 -0.7753
   18SAPC   H7R 2324   1.030   6.876   9.784  0.3350 -1.2450  0.1994
   18SAPC   H7S 2325   0.939   6.906   9.931  0.9399 -1.3179 -0.1970
   18SAPC   C28 2326   0.832   6.962   9.750 -0.3111 -1.1602  0.1530
   18SAPC   H8R 2327   0.730   6.925   9.736 -0.8034  0.9091 -2.5142
   18SAPC   C29 2328   0.863   7.080   9.689 -0.4225 -0.3185  0.5518
   18SAPC   H9R 2329   0.789   7.117   9.617  1.9462 -0.0663 -1.9089
   18SAPC  C210 2330   0.997   7.153   9.695 -0.1725 -0.9144 -0.0890
   18SAPC  H10R 2331   1.024   7.136   9.802  0.4210  0.6239  0.0278
   18SAPC  H10S 2332   0.989   7.264   9.688  2.0370 -0.8011 -1.9408
   18SAPC  C211 2333   1.091   7.102   9.587 -0.2763  0.2708  0.2173
   18SAPC  H11R 2334   1.042   7.071   9.493 -1.0944 -0.5113  0.8904
   18SAPC  C212 2335   1.218   7.076   9.598  0.0838  0.2741  0.1350
   18SAPC  H12R 2336   1.269   7.044   9.506  0.9308  2.4866 -0.2276
   18SAPC  C213 2337   1.300   7.090   9.719 -0.3967  0.3148  0.5831
   18SAPC  H13R 2338   1.401   7.064   9.679 -0.0856  0.8888  0.9879
   18SAPC  H13S 2339   1.280   7.005   9.788 -0.1556 -1.6759 -1.6327
   18SAPC  C214 2340   1.294   7.220   9.790  0.5972  0.0180 -0.4051
   18SAPC  H14R 2341   1.278   7.311   9.729 -0.4009  2.2456  2.9294
   18SAPC  C215 2342   1.304   7.240   9.923  0.0548  0.3594 -0.3726
   18SAPC  H15R 2343   1.303   7.344   9.959 -0.5958  0.6620 -1.2193
   18SAPC  C216 2344   1.317   7.135  10.032 -0.0988 -0.1734  0.1948
   18SAPC  H16R 2345   1.385   7.168  10.114 -0.2742  1.0418 -0.1272
   18SAPC  H16S 2346   1.364   7.042   9.994 -1.5077 -1.1574  0.8049
   18SAPC  C217 2347   1.180   7.075  10.076 -0.0088 -0.0128 -0.2093
   18SAPC  H17R 2348   1.200   6.985  10.138  1.3039 -0.2344 -0.8944
   18SAPC  H17S 2349   1.132   7.039   9.982 -0.9026 -1.1295  0.6531
   18SAPC  C218 2350   1.096   7.168  10.156  0.2517 -0.4733  0.4295
   18SAPC  H18R 2351   1.010   7.108  10.192 -2.3234  2.0973 -0.9190
   18SAPC  H18S 2352   1.069   7.254  10.091 -0.7600 -1.4412 -0.4681
   18SAPC  C219 2353   1.159   7.219  10.279  0.2832  0.4878 -0.3422
   18SAPC  H19R 2354   1.251   7.279  10.261 -0.1136  1.0972 -0.3754
   18SAPC  H19S 2355   1.194   7.143  10.352 -1.1760 -0.7781 -0.9067
   18SAPC  C220 2356   1.052   7.292  10.353 -0.4835  0.4464 -0.2832
   18SAPC  H20R 2357   1.031   7.395  10.316  1.6344  0.4173 -1.7125
   18SAPC  H20S 2358   1.075   7.306  10.461 -1.6458  0.5537 -0.0416
   18SAPC  H20T 2359   0.959   7.232  10.357 -0.1078 -0.3316 -2.1787
   18SAPC   C33 2360   1.370   6.745  10.045 -0.3185 -0.3240  0.2822
   18SAPC   H3X 2361   1.268   6.789  10.044 -0.6314 -1.0279  0.7832
   18SAPC   H3Y 2362   1.366   6.636  10.062 -2.1464 -0.0513  1.8469
   18SAPC   C34 2363   1.433   6.782   9.899 -0.0052  0.2444 -0.3683
   18SAPC   H4X 2364   1.527   6.725   9.886 -1.0034 -1.8445  0.9118
   18SAPC   H4Y 2365   1.450   6.890   9.884  2.1306 -0.0859 -0.7135
   18SAPC   C35 2366   1.337   6.729   9.791  0.3791 -0.0440 -0.0653
   18SAPC   H5X 2367   1.247   6.793   9.780 -0.8304 -1.7818 -0.7053
   18SAPC   H5Y 2368   1.305   6.624   9.811  1.3762 -0.2571  0.4884
   18SAPC   C36 2369   1.410   6.737   9.655 -0.0985 -0.1534  0.7505
   18SAPC   H6X 2370   1.491   6.661   9.651  0.5374  0.5829 -1.2043
   18SAPC   H6Y 2371   1.458   6.834   9.631 -1.6466  0.0624 -1.7765
   18SAPC   C37 2372   1.315   6.710   9.539 -0.1987 -0.1722  0.1858
   18SAPC   H7X 2373   1.235   6.786   9.528 -0.8487  0.3042  5.4750
   18SAPC   H7Y 2374   1.262   6.615   9.560 -1.2720  0.3689 -0.0487
   18SAPC   C38 2375   1.404   6.708   9.410  0.0137  0.6315  0.0776
   18SAPC   H8X 2376   1.478   6.626   9.419 -1.0923 -0.2043  2.0207
   18SAPC   H8Y 2377   1.451   6.807   9.390  2.3377 -0.1884  1.1299
   18SAPC   C39 2378   1.318   6.683   9.280  0.2517 -0.1721  0.0076
   18SAPC   H9X 2379   1.266   6.779   9.260  0.0300 -0.4371 -0.7159
   18SAPC   H9Y 2380   1.241   6.606   9.302 -2.8156  3.0084  1.2233
   18SAPC  C310 2381   1.407   6.643   9.160  0.5863  0.6779  0.5968
   18SAPC  H10X 2382   1.476   6.575   9.215  0.7859 -0.3845 -0.9075
   18SAPC  H10Y 2383   1.465   6.737   9.146  1.2571  1.0570  4.7045
   18SAPC  C311 2384   1.331   6.592   9.036  0.0205 -0.3724  0.3692
   18SAPC  H11X 2385   1.309   6.676   8.968  0.8864  0.1555  0.7378
   18SAPC  H11Y 2386   1.227   6.559   9.061  0.0417 -1.4973 -0.9378
   18SAPC  C312 2387   1.406   6.493   8.949 -0.2558  0.3256  0.1240
   18SAPC  H12X 2388   1.420   6.404   9.015 -0.0884 -0.8733 -1.4682
   18SAPC  H12Y 2389   1.504   6.520   8.905  0.3031 -0.8857  0.5799
   18SAPC  C313 2390   1.333   6.439   8.825  0.3206  0.0786 -0.2266
   18SAPC  H13X 2391   1.244   6.380   8.857  1.4510 -3.5753 -3.1808
   18SAPC  H13Y 2392   1.404   6.370   8.776 -0.4222 -0.9710  0.1187
   18SAPC  C314 2393   1.294   6.540   8.710  0.3883  0.4280 -0.2756
   18SAPC  H14X 2394   1.207   6.593   8.755  0.9623 -0.4878  2.1074
   18SAPC  H14Y 2395   1.270   6.481   8.620 -0.4996  0.9056 -0.3580
   18SAPC  C315 2396   1.408   6.635   8.675  0.6324 -0.8800  0.0372
   18SAPC  H15X 2397   1.478   6.579   8.609  2.1286 -0.7228  1.4400
   18SAPC  H15Y 2398   1.467   6.668   8.763  0.8786 -0.5034 -0.2662
   18SAPC  C316 2399   1.355   6.762   8.614  0.4663 -0.0563 -0.6362
   18SAPC  H16X 2400   1.316   6.828   8.695  1.1546  0.7842 -0.9758
   18SAPC  H16Y 2401   1.269   6.735   8.550 -1.5774 -0.6816  2.1512
   18SAPC  C317 2402   1.445   6.847   8.530  0.1318  0.2550 -0.5856
   18SAPC  H17X 2403   1.528   6.871   8.600 -1.5387 -1.3208  2.0764
   18SAPC  H17Y 2404   1.392   6.938   8.494 -0.2836  0.3941  0.3508
   18SAPC  C318 2405   1.505   6.776   8.410  0.6955  0.2264  0.3864
   18SAPC  H18X 2406   1.583   6.699   8.429  1.4078 -0.0166 -2.9121
   18SAPC  H18Y 2407   1.552   6.856   8.348 -0.3855  0.1164 -0.5860
   18SAPC  H18Z 2408   1.422   6.736   8.349  0.6013  0.3239  0.4494
   19SAPC     N 2409   1.583   1.707  11.219 -0.3456  0.1110  0.1526
   19SAPC   C12 2410   1.468   1.675  11.130  0.4332  0.0476 -0.3218
   19SAPC  H12A 2411   1.374   1.693  11.179 -0.5204 -0.4539 -1.9096
   19SAPC  H12B 2412   1.465   1.572  11.099  1.9049  0.1334 -0.8623
   19SAPC   C13 2413   1.719   1.676  11.150  0.2586 -0.2675  0.7100
   19SAPC  H13A 2414   1.726   1.568  11.151 -2.7297 -0.5474  0.9931
   19SAPC  H13B 2415   1.721   1.716  11.049 -0.8997 -0.7056  0.4907
   19SAPC  H13C 2416   1.797   1.709  11.217 -1.0276  1.5721  1.3774
   19SAPC   C14 2417   1.591   1.847  11.258  0.6421 -0.5198 -0.2388
   19SAPC  H14A 2418   1.665   1.868  11.333  0.9235 -0.4592 -0.5288
   19SAPC  H14B 2419   1.599   1.913  11.173 -0.7482 -1.0786 -0.8323
   19SAPC  H14C 2420   1.494   1.873  11.299 -0.1007 -1.0606 -1.5626
   19SAPC   C15 2421   1.569   1.608  11.331 -0.1607  0.4311 -0.6478
   19SAPC  H15A 2422   1.636   1.630  11.414 -1.2689  2.0660 -0.1442
   19SAPC  H15B 2423   1.469   1.608  11.372  0.4850  1.2852  1.0341
   19SAPC  H15C 2424   1.578   1.506  11.297 -1.0578 -0.5658  1.9064
   19SAPC   C11 2425   1.456   1.754  10.995 -0.6077  0.1852 -0.3968
   19SAPC  H11A 2426   1.537   1.757  10.920 -0.0485  0.0378  0.1902
   19SAPC  H11B 2427   1.439   1.860  11.023 -0.5297  0.6920 -2.1434
   19SAPC     P 2428   1.346   1.570  10.847  0.3220  0.0037  0.3375
   19SAPC   O13 2429   1.486   1.544  10.812 -0.6919  0.5394  0.2524
   19SAPC   O14 2430   1.275   1.466  10.929 -0.2491 -0.3198 -0.0211
   19SAPC   O12 2431   1.337   1.707  10.929 -0.1117  0.2067 -0.2941
   19SAPC   O11 2432   1.265   1.600  10.712 -0.0175  0.1928  0.1622
   19SAPC    C1 2433   1.169   1.707  10.700 -0.2623 -0.0928 -0.2022
   19SAPC    HA 2434   1.101   1.719  10.788 -1.7827  0.6229 -1.4255
   19SAPC    HB 2435   1.229   1.801  10.702 -0.9517  0.3527  0.2604
   19SAPC    C2 2436   1.078   1.691  10.575 -0.1745  0.3647  0.1481
   19SAPC    HS 2437   1.015   1.600  10.588  1.4092 -0.7163  0.5027
   19SAPC   O21 2438   1.162   1.677  10.458 -0.1246  0.2581 -0.2818
   19SAPC   C21 2439   1.205   1.554  10.422 -0.3521 -0.4006  0.5083
   19SAPC   O22 2440   1.158   1.453  10.450  0.4922 -0.0215  0.3874
   19SAPC   C22 2441   1.316   1.572  10.329 -0.3056 -0.3025  0.4104
   19SAPC   H2R 2442   1.273   1.631  10.246  0.3876  2.2138  1.7357
   19SAPC   H2S 2443   1.384   1.649  10.373  1.2183 -0.7422 -1.0561
   19SAPC    C3 2444   0.980   1.813  10.560 -0.9277  0.0002  0.1545
   19SAPC    HX 2445   1.046   1.897  10.530 -1.3219  0.7283  1.2683
   19SAPC    HY 2446   0.938   1.832  10.661 -1.3627 -0.7298  0.1137
   19SAPC   O31 2447   0.871   1.787  10.466 -0.0356 -0.0796 -0.1043
   19SAPC   C31 2448   0.797   1.901  10.440  0.3263  0.2609 -0.2875
   19SAPC   O32 2449   0.813   2.003  10.505 -0.5741  0.4423 -0.3679
   19SAPC   C32 2450   0.710   1.881  10.315 -0.0259  0.7852 -0.7468
   19SAPC   H2X 2451   0.666   1.783  10.345  2.8334 -0.5773 -0.6656
   19SAPC   H2Y 2452   0.785   1.858  10.236 -0.0324  1.2895 -0.8960
   19SAPC   C23 2453   1.396   1.452  10.283  0.5412 -0.3955 -0.8141
   19SAPC   H3R 2454   1.325   1.370  10.257 -0.9838  0.7167 -0.2992
   19SAPC   H3S 2455   1.450   1.403  10.367  0.4585 -1.7023 -1.4954
   19SAPC   C24 2456   1.474   1.489  10.161 -0.3340  0.3521 -0.7283
   19SAPC   H4R 2457   1.406   1.521  10.080  1.8809  0.3140 -2.6884
   19SAPC   H4S 2458   1.521   1.398  10.120 -2.2855 -1.0377 -0.0644
   19SAPC   C25 2459   1.572   1.596  10.176  0.2764 -0.3958  0.1617
   19SAPC   H5R 2460   1.621   1.609  10.273 -0.0499 -1.6465  0.5134
   19SAPC   C26 2461   1.596   1.692  10.093 -1.2755 -0.8635 -0.2293
   19SAPC   H6R 2462   1.678   1.760  10.123 -0.6908 -0.4309 -2.5509
   19SAPC   C27 2463   1.547   1.717   9.958 -0.5109  0.1015  0.0523
   19SAPC   H7R 2464   1.531   1.615   9.916  0.3426  0.5926 -1.5398
   19SAPC   H7S 2465   1.638   1.746   9.901  0.7792 -0.2944  1.8463
   19SAPC   C28 2466   1.439   1.811   9.931 -0.3709  0.6110 -0.3474
   19SAPC   H8R 2467   1.398   1.866  10.017  0.1065 -0.1704  0.3966
   19SAPC   C29 2468   1.368   1.811   9.825 -0.0863  0.0031  0.6073
   19SAPC   H9R 2469   1.274   1.868   9.826  0.0700  0.2829 -0.2070
   19SAPC  C210 2470   1.402   1.739   9.697 -0.3095 -0.2989  0.2361
   19SAPC  H10R 2471   1.397   1.629   9.702  0.7836 -0.5488 -2.4826
   19SAPC  H10S 2472   1.505   1.760   9.661 -0.5463 -1.5769 -1.2650
   19SAPC  C211 2473   1.301   1.779   9.584 -0.5390  0.2655  0.4488
   19SAPC  H11R 2474   1.216   1.708   9.583 -2.6381  2.5515 -2.6267
   19SAPC  C212 2475   1.317   1.878   9.491 -0.0788  0.4028  0.8902
   19SAPC  H12R 2476   1.233   1.903   9.425  0.5460  0.6633  0.1829
   19SAPC  C213 2477   1.429   1.979   9.492  0.2244  0.1206 -0.0467
   19SAPC  H13R 2478   1.463   2.001   9.596 -1.0721 -0.5662  0.5385
   19SAPC  H13S 2479   1.385   2.076   9.460  0.0521  0.0221 -0.1075
   19SAPC  C214 2480   1.536   1.937   9.394 -0.0911  0.1041  0.2648
   19SAPC  H14R 2481   1.624   1.881   9.429 -1.0561 -0.9151  1.1331
   19SAPC  C215 2482   1.528   1.953   9.260  0.6312 -0.2260 -0.4315
   19SAPC  H15R 2483   1.606   1.907   9.198  0.6055  2.3945 -2.6098
   19SAPC  C216 2484   1.417   2.025   9.187 -0.4676  0.3010 -0.0644
   19SAPC  H16R 2485   1.482   2.060   9.104 -0.8236  0.3885 -0.3090
   19SAPC  H16S 2486   1.377   2.103   9.254 -2.3177 -2.5795  2.4533
   19SAPC  C217 2487   1.310   1.937   9.118 -0.8639  0.8626 -0.0875
   19SAPC  H17R 2488   1.265   1.870   9.194  1.6838 -0.9234 -0.0355
   19SAPC  H17S 2489   1.365   1.871   9.047  1.6932  2.0236  0.6882
   19SAPC  C218 2490   1.200   2.020   9.054  0.5615 -0.1246  0.4931
   19SAPC  H18R 2491   1.247   2.069   8.965 -1.2138  0.3311 -0.2366
   19SAPC  H18S 2492   1.187   2.108   9.121  1.8059  1.9814 -1.8323
   19SAPC  C219 2493   1.075   1.949   9.010  0.7486  0.3607 -0.3938
   19SAPC  H19R 2494   1.090   1.878   8.925 -2.1653 -0.2054 -0.5394
   19SAPC  H19S 2495   1.016   2.033   8.968 -1.4894 -1.1829 -0.5315
   19SAPC  C220 2496   0.996   1.880   9.123  0.4314  0.6034  0.2115
   19SAPC  H20R 2497   1.027   1.776   9.148 -0.5008  0.8669  2.8052
   19SAPC  H20S 2498   0.891   1.874   9.088  1.1958 -1.7593 -2.0206
   19SAPC  H20T 2499   0.999   1.931   9.222  1.2140  0.3654  0.3183
   19SAPC   C33 2500   0.612   1.996  10.276 -0.2782 -0.7400  0.9438
   19SAPC   H3X 2501   0.666   2.093  10.272 -3.1173  0.8754 -0.7230
   19SAPC   H3Y 2502   0.533   1.994  10.353  0.6979 -0.3872  1.9895
   19SAPC   C34 2503   0.552   1.978  10.136  0.0872  0.1220  0.0182
   19SAPC   H4X 2504   0.470   1.904  10.131  1.2336 -1.1214 -3.6544
   19SAPC   H4Y 2505   0.624   1.920  10.074  0.3150 -0.3383  0.6993
   19SAPC   C35 2506   0.508   2.101  10.068 -0.6989 -0.5126  0.5087
   19SAPC   H5X 2507   0.465   2.077   9.968  1.6132  0.4577 -0.8016
   19SAPC   H5Y 2508   0.590   2.175  10.055  0.4414 -2.0935 -1.9634
   19SAPC   C36 2509   0.403   2.179  10.148  0.4235  0.5968  0.4262
   19SAPC   H6X 2510   0.452   2.226  10.235 -2.2202  1.0788  1.7410
   19SAPC   H6Y 2511   0.328   2.105  10.183  0.9173 -1.3732 -2.3679
   19SAPC   C37 2512   0.317   2.280  10.068 -1.1993 -0.3853 -0.0871
   19SAPC   H7X 2513   0.383   2.368  10.049 -0.1824 -0.5500  2.2948
   19SAPC   H7Y 2514   0.231   2.316  10.127 -0.1383  3.4933 -0.6490
   19SAPC   C38 2515   0.246   2.230   9.937  0.1786 -0.3134  0.4407
   19SAPC   H8X 2516   0.179   2.147   9.966 -0.5744 -0.5773 -1.8363
   19SAPC   H8Y 2517   0.322   2.183   9.870  0.0159 -1.0872  0.7825
   19SAPC   C39 2518   0.185   2.348   9.872  0.0876  0.9026 -0.4223
   19SAPC   H9X 2519   0.264   2.413   9.828  0.5543 -0.7774 -2.2414
   19SAPC   H9Y 2520   0.121   2.396   9.949 -1.2140 -0.2590 -0.7499
   19SAPC  C310 2521   0.088   2.296   9.762  0.6993 -0.7655  0.6753
   19SAPC  H10X 2522   0.022   2.382   9.739 -0.8455 -1.5642  1.9587
   19SAPC  H10Y 2523   0.017   2.222   9.803 -0.5047 -1.1807 -1.9658
   19SAPC  C311 2524   0.145   2.237   9.633  0.0032 -0.4557  0.7129
   19SAPC  H11X 2525   0.209   2.151   9.665 -1.3197 -1.8061 -0.1304
   19SAPC  H11Y 2526   0.214   2.310   9.587 -0.2605 -0.7298 -0.1286
   19SAPC  C312 2527   0.043   2.208   9.516  0.0312 -0.0875 -0.5590
   19SAPC  H12X 2528  -0.024   2.294   9.495 -2.4468 -1.4003  1.4884
   19SAPC  H12Y 2529  -0.008   2.115   9.547  0.8961  0.2895  2.3380
   19SAPC  C313 2530   0.111   2.178   9.381 -0.3824 -0.0601 -0.4784
   19SAPC  H13X 2531   0.199   2.119   9.415  0.7469  1.9569  0.3153
   19SAPC  H13Y 2532   0.163   2.268   9.340 -1.1838  1.4690  1.6740
   19SAPC  C314 2533   0.019   2.114   9.284  0.9346  0.2758 -0.1441
   19SAPC  H14X 2534  -0.082   2.155   9.303 -0.0696 -1.7260 -0.8716
   19SAPC  H14Y 2535   0.014   2.008   9.319  1.2240  0.6850  1.1706
   19SAPC  C315 2536   0.059   2.138   9.136 -0.5996  0.3795  0.3360
   19SAPC  H15X 2537   0.159   2.093   9.122 -1.0112 -0.0618 -1.4470
   19SAPC  H15Y 2538   0.063   2.249   9.132 -0.0067  0.4431  1.9820
   19SAPC  C316 2539  -0.035   2.082   9.037 -0.1012 -0.1162 -0.0377
   19SAPC  H16X 2540  -0.136   2.120   9.066  0.4557  2.6091 -1.3495
   19SAPC  H16Y 2541  -0.021   1.973   9.055  1.9329  0.5074  2.7475
   19SAPC  C317 2542   0.002   2.124   8.900 -0.0453 -0.5620 -0.1809
   19SAPC  H17X 2543  -0.019   2.230   8.873  1.5620  0.0284  0.7091
   19SAPC  H17Y 2544  -0.057   2.066   8.827 -1.2740  0.1805  0.1951
   19SAPC  C318 2545   0.147   2.097   8.867  0.4561 -0.4131  0.3118
   19SAPC  H18X 2546   0.195   2.018   8.928  2.7691  1.9016  1.7003
   19SAPC  H18Y 2547   0.207   2.190   8.882  0.0950 -0.2808  0.9446
   19SAPC  H18Z 2548   0.161   2.067   8.761 -3.8685 -2.1107  0.0431
   20SAPC     N 2549   1.793   5.920  11.154  0.1421  0.4633 -0.4180
   20SAPC   C12 2550   1.726   5.965  11.022  0.7738 -0.4996 -0.0246
   20SAPC  H12A 2551   1.620   5.960  11.043  0.3384  0.9088 -1.6968
   20SAPC  H12B 2552   1.741   5.894  10.942  1.8911  0.4234 -0.6550
   20SAPC   C13 2553   1.942   5.934  11.146 -0.0369  0.5658 -0.5247
   20SAPC  H13A 2554   1.984   5.855  11.086  1.0563  1.3180 -0.7865
   20SAPC  H13B 2555   1.971   6.027  11.098  0.8242  0.9988  0.7777
   20SAPC  H13C 2556   1.995   5.940  11.239 -2.7088 -0.3922  1.1731
   20SAPC   C14 2557   1.745   6.005  11.267 -0.3665  0.4317  0.2040
   20SAPC  H14A 2558   1.644   5.984  11.300 -0.4715 -0.0265 -0.3791
   20SAPC  H14B 2559   1.818   5.990  11.345  0.2803  3.0877  0.1862
   20SAPC  H14C 2560   1.742   6.110  11.245  3.3522  0.5418 -0.3296
   20SAPC   C15 2561   1.749   5.776  11.182  0.0526  0.2141 -1.2397
   20SAPC  H15A 2562   1.797   5.745  11.274 -1.3037  1.2241 -0.1489
   20SAPC  H15B 2563   1.645   5.778  11.211  0.7697 -1.1167  1.9016
   20SAPC  H15C 2564   1.770   5.705  11.104 -0.7062 -0.0668 -1.2005
   20SAPC   C11 2565   1.747   6.110  10.982  0.2845 -0.0602 -0.9396
   20SAPC  H11A 2566   1.688   6.117  10.888 -1.9527 -3.2862  0.0194
   20SAPC  H11B 2567   1.855   6.122  10.963  0.9588 -1.2517  1.6681
   20SAPC     P 2568   1.595   6.316  11.051 -0.1491 -0.0917  0.1608
   20SAPC   O13 2569   1.479   6.287  11.135  0.0647  0.1150 -0.2645
   20SAPC   O14 2570   1.660   6.450  11.068 -0.0636 -0.3861 -0.0621
   20SAPC   O12 2571   1.708   6.209  11.077  0.6721  0.4631  0.1754
   20SAPC   O11 2572   1.546   6.308  10.900 -0.6545  0.1370 -0.0925
   20SAPC    C1 2573   1.603   6.387  10.800 -0.0994  0.5025 -0.4141
   20SAPC    HA 2574   1.565   6.492  10.806  0.2957  0.7509 -1.8001
   20SAPC    HB 2575   1.713   6.397  10.808 -0.2551  2.0885  0.0817
   20SAPC    C2 2576   1.568   6.327  10.661  0.2865  0.2773  0.4990
   20SAPC    HS 2577   1.457   6.330  10.660  0.2916  1.3878 -1.0137
   20SAPC   O21 2578   1.619   6.194  10.653 -0.2662  0.2511 -0.1560
   20SAPC   C21 2579   1.538   6.114  10.581  0.0656 -0.6621  0.6886
   20SAPC   O22 2580   1.423   6.145  10.544 -0.1749  0.2083 -0.2070
   20SAPC   C22 2581   1.613   5.981  10.552  0.0735 -0.5087  0.3789
   20SAPC   H2R 2582   1.716   6.008  10.520  0.1362 -1.5504 -0.3417
   20SAPC   H2S 2583   1.626   5.920  10.644  0.5732 -1.3312 -0.2272
   20SAPC    C3 2584   1.609   6.417  10.541 -0.5610 -0.3425  0.4864
   20SAPC    HX 2585   1.719   6.431  10.543 -0.3798 -1.6292  0.4541
   20SAPC    HY 2586   1.566   6.519  10.552 -0.6960 -0.3198 -0.1721
   20SAPC   O31 2587   1.570   6.354  10.414  0.3292  0.1186  0.2363
   20SAPC   C31 2588   1.616   6.414  10.307  0.2626 -0.1525  0.1974
   20SAPC   O32 2589   1.685   6.514  10.309 -0.3122  1.0088  0.0136
   20SAPC   C32 2590   1.583   6.327  10.180  0.3536 -0.1026  0.7310
   20SAPC   H2X 2591   1.517   6.247  10.218  0.9148 -0.4249  1.0498
   20SAPC   H2Y 2592   1.678   6.279  10.148  0.5282 -0.3897  1.6409
   20SAPC   C23 2593   1.556   5.905  10.435 -0.0767 -0.3485  0.2650
   20SAPC   H3R 2594   1.567   5.957  10.337  2.1886 -3.1703 -1.1377
   20SAPC   H3S 2595   1.448   5.884  10.445 -0.4781 -0.3016 -2.9097
   20SAPC   C24 2596   1.625   5.769  10.420  0.4634  0.6064  0.0555
   20SAPC   H4R 2597   1.620   5.719  10.519  1.5781 -0.1937 -0.2693
   20SAPC   H4S 2598   1.735   5.774  10.408  0.9760 -2.2049  2.4354
   20SAPC   C25 2599   1.561   5.676  10.315  0.1239  0.2123  0.1369
   20SAPC   H5R 2600   1.501   5.588  10.342 -0.7144  0.3112 -1.3183
   20SAPC   C26 2601   1.567   5.693  10.177 -0.9823 -0.3019  0.1047
   20SAPC   H6R 2602   1.508   5.628  10.110 -1.3176  0.2461 -0.1342
   20SAPC   C27 2603   1.643   5.802  10.103 -0.2070 -0.2315 -0.7507
   20SAPC   H7R 2604   1.721   5.751  10.042 -0.5795 -0.7303 -0.8214
   20SAPC   H7S 2605   1.709   5.855  10.175 -0.1113 -0.4997 -0.6399
   20SAPC   C28 2606   1.545   5.894  10.035  0.1293 -0.2152 -0.2878
   20SAPC   H8R 2607   1.497   5.963  10.106  3.6886  0.4247  1.6978
   20SAPC   C29 2608   1.514   5.901   9.904  0.2163  1.0094  0.5265
   20SAPC   H9R 2609   1.454   5.988   9.873  0.6585  1.3800  0.7046
   20SAPC  C210 2610   1.564   5.806   9.793 -0.1096  0.2857 -0.0901
   20SAPC  H10R 2611   1.486   5.726   9.789 -1.0137  1.1671 -0.5445
   20SAPC  H10S 2612   1.660   5.752   9.805 -0.6197 -0.8753 -1.0168
   20SAPC  C211 2613   1.571   5.882   9.662 -1.0207  0.9904  0.6157
   20SAPC  H11R 2614   1.612   5.983   9.673 -1.8284  1.6896 -2.0926
   20SAPC  C212 2615   1.525   5.854   9.532 -0.4622  0.2858 -0.2836
   20SAPC  H12R 2616   1.542   5.928   9.453 -1.2685  0.0414 -0.6867
   20SAPC  C213 2617   1.443   5.739   9.493 -0.0117  0.1321  0.2731
   20SAPC  H13R 2618   1.389   5.776   9.404 -1.1448  0.4483  1.0699
   20SAPC  H13S 2619   1.384   5.729   9.587  1.1294  0.2736  1.0217
   20SAPC  C214 2620   1.534   5.624   9.450 -0.3435 -0.3856 -0.0681
   20SAPC  H14R 2621   1.642   5.643   9.457 -0.0619 -2.1441  1.0164
   20SAPC  C215 2622   1.497   5.503   9.407  0.5294  0.3541 -0.0478
   20SAPC  H15R 2623   1.567   5.422   9.382  1.2665  0.6294  1.0835
   20SAPC  C216 2624   1.354   5.453   9.392 -0.1923  0.4633 -0.0074
   20SAPC  H16R 2625   1.271   5.527   9.391  1.1907  2.2329  3.1011
   20SAPC  H16S 2626   1.328   5.401   9.486  0.4711  2.2934  1.2415
   20SAPC  C217 2627   1.349   5.352   9.272 -0.4171 -0.3699  0.8136
   20SAPC  H17R 2628   1.265   5.280   9.279 -0.1177 -0.7667  0.3804
   20SAPC  H17S 2629   1.441   5.290   9.267  0.1153  0.4993 -1.3413
   20SAPC  C218 2630   1.334   5.426   9.131  0.2201  0.7833  0.3567
   20SAPC  H18R 2631   1.405   5.511   9.136  2.7294 -0.9950 -2.1207
   20SAPC  H18S 2632   1.232   5.471   9.140  0.3667  1.0470  0.7408
   20SAPC  C219 2633   1.377   5.346   9.009  0.5021 -0.7330  0.3847
   20SAPC  H19R 2634   1.325   5.404   8.930  0.3839  0.1582  1.0948
   20SAPC  H19S 2635   1.340   5.242   9.004 -0.9404 -0.1773 -1.5554
   20SAPC  C220 2636   1.527   5.354   8.989  0.2142 -0.1667 -0.8022
   20SAPC  H20R 2637   1.555   5.449   8.939  0.8536  1.2221  2.0200
   20SAPC  H20S 2638   1.559   5.261   8.936  0.6611 -0.8362  0.5852
   20SAPC  H20T 2639   1.577   5.350   9.088 -0.7322  0.8786 -0.2606
   20SAPC   C33 2640   1.518   6.399  10.055  0.3444  0.3359  0.1632
   20SAPC   H3X 2641   1.574   6.489  10.022 -1.6409  1.7181  0.4369
   20SAPC   H3Y 2642   1.419   6.433  10.092 -0.4491 -0.4073 -1.1926
   20SAPC   C34 2643   1.504   6.299   9.935 -0.0629 -0.0267 -0.2378
   20SAPC   H4X 2644   1.457   6.203   9.964 -2.2487  0.0109 -3.1836
   20SAPC   H4Y 2645   1.608   6.264   9.914 -1.2365 -2.3489 -2.9019
   20SAPC   C35 2646   1.435   6.349   9.814 -0.6902  0.1722  0.6875
   20SAPC   H5X 2647   1.495   6.436   9.780 -0.9327 -0.4786 -1.5559
   20SAPC   H5Y 2648   1.329   6.373   9.834 -0.6448  1.1982 -0.2558
   20SAPC   C36 2649   1.438   6.239   9.700 -0.9893 -0.6277  0.0467
   20SAPC   H6X 2650   1.359   6.163   9.711 -3.0055  1.6325  2.4588
   20SAPC   H6Y 2651   1.541   6.198   9.699  0.1319  1.9562  0.7851
   20SAPC   C37 2652   1.414   6.302   9.558 -0.5193  0.0684 -0.0527
   20SAPC   H7X 2653   1.486   6.386   9.551 -1.2844  0.8595  1.2207
   20SAPC   H7Y 2654   1.309   6.338   9.567 -0.6612 -0.7151  1.7862
   20SAPC   C38 2655   1.432   6.202   9.441  0.3331  0.1366 -0.1320
   20SAPC   H8X 2656   1.369   6.112   9.459 -1.0104  0.8998 -0.8261
   20SAPC   H8Y 2657   1.541   6.188   9.427  0.9531  4.3078 -0.9006
   20SAPC   C39 2658   1.396   6.263   9.307  0.4125 -0.5978 -0.0025
   20SAPC   H9X 2659   1.470   6.340   9.277  0.6136 -1.5339 -2.1444
   20SAPC   H9Y 2660   1.294   6.306   9.317  0.1491 -1.1086 -0.4057
   20SAPC  C310 2661   1.388   6.160   9.194 -0.7688  0.1945  0.5956
   20SAPC  H10X 2662   1.485   6.107   9.198  0.3068  2.1386  2.8619
   20SAPC  H10Y 2663   1.371   6.197   9.091  3.9205 -0.3538 -0.6085
   20SAPC  C311 2664   1.269   6.067   9.219  0.6490  0.4048 -0.3243
   20SAPC  H11X 2665   1.175   6.107   9.264 -0.4627 -1.4233 -0.9154
   20SAPC  H11Y 2666   1.294   5.985   9.289 -2.9666 -1.2340 -0.7338
   20SAPC  C312 2667   1.225   5.991   9.088  0.4173 -0.5132  0.2843
   20SAPC  H12X 2668   1.179   6.074   9.030 -0.7083 -0.7589  0.7790
   20SAPC  H12Y 2669   1.143   5.917   9.104  1.4374 -1.6515  0.3647
   20SAPC  C313 2670   1.347   5.925   9.020  0.1345 -0.0170 -0.4433
   20SAPC  H13X 2671   1.413   5.881   9.098  1.5835 -1.3633 -2.3099
   20SAPC  H13Y 2672   1.411   5.993   8.960  1.3271 -0.7505 -0.0542
   20SAPC  C314 2673   1.302   5.825   8.917 -0.5943  0.4657 -0.5021
   20SAPC  H14X 2674   1.249   5.872   8.831 -0.2365 -3.3631 -3.0688
   20SAPC  H14Y 2675   1.228   5.751   8.956 -0.3373  0.5842  0.2134
   20SAPC  C315 2676   1.427   5.757   8.858 -0.1465  0.4372  0.8128
   20SAPC  H15X 2677   1.461   5.671   8.920 -1.8721 -2.3090 -1.7951
   20SAPC  H15Y 2678   1.512   5.825   8.836  0.4042  0.0111  1.5691
   20SAPC  C316 2679   1.385   5.689   8.722 -0.1319 -0.2068 -0.3258
   20SAPC  H16X 2680   1.355   5.763   8.645 -0.5293 -1.0782 -1.0297
   20SAPC  H16Y 2681   1.293   5.633   8.750 -0.3070 -1.2298 -2.7158
   20SAPC  C317 2682   1.481   5.598   8.656  0.2403  0.0862 -0.1973
   20SAPC  H17X 2683   1.513   5.509   8.715  0.5406 -0.3783 -1.0483
   20SAPC  H17Y 2684   1.577   5.641   8.621 -0.3598  1.6025 -0.0475
   20SAPC  C318 2685   1.416   5.547   8.527 -0.7538  0.0448 -1.6283
   20SAPC  H18X 2686   1.312   5.523   8.559 -0.0793  1.5707  2.3143
   20SAPC  H18Y 2687   1.468   5.458   8.486  3.4249  1.7854 -0.6398
   20SAPC  H18Z 2688   1.409   5.636   8.461 -0.8627  0.3527 -1.2069
   21SAPC     N 2689   3.062   4.960  11.282 -0.4414 -0.1018 -0.4324
   21SAPC   C12 2690   2.944   4.972  11.189 -0.0587 -0.1718 -0.1815
   21SAPC  H12A 2691   2.872   5.041  11.230  0.4667 -0.1513  0.7206
   21SAPC  H12B 2692   2.895   4.877  11.174 -0.9430  0.1571  0.5628
   21SAPC   C13 2693   3.128   5.092  11.308 -0.0094  0.2451  0.4164
   21SAPC  H13A 2694   3.195   5.086  11.393 -0.4105 -1.9576  0.6219
   21SAPC  H13B 2695   3.185   5.112  11.218 -0.0011 -0.7265  0.2007
   21SAPC  H13C 2696   3.056   5.169  11.331  0.3536 -0.2104  3.4293
   21SAPC   C14 2697   3.024   4.898  11.419  0.0878  0.2436 -0.5577
   21SAPC  H14A 2698   2.988   4.798  11.396  1.1463 -0.3944  0.4540
   21SAPC  H14B 2699   3.114   4.894  11.478 -1.0903  0.7168  1.3872
   21SAPC  H14C 2700   2.952   4.952  11.479  0.6104  1.4523 -0.9894
   21SAPC   C15 2701   3.170   4.869  11.232  0.5713  0.1196  0.6017
   21SAPC  H15A 2702   3.128   4.770  11.234 -0.2963  0.4431 -0.4162
   21SAPC  H15B 2703   3.197   4.884  11.129 -1.0447 -1.4473 -0.1018
   21SAPC  H15C 2704   3.261   4.863  11.289  0.1990 -1.5065  1.0668
   21SAPC   C11 2705   2.979   5.017  11.043 -0.2179  0.4360 -0.4732
   21SAPC  H11A 2706   2.889   5.015  10.978 -0.9385 -1.6173  0.4925
   21SAPC  H11B 2707   3.048   4.947  10.992 -0.3524  0.2536 -0.4085
   21SAPC     P 2708   2.955   5.277  11.042 -0.2599 -0.1421 -0.0845
   21SAPC   O13 2709   2.848   5.282  11.146  0.1970 -0.1277  0.3640
   21SAPC   O14 2710   3.051   5.387  11.050 -0.0086 -0.1847  0.3590
   21SAPC   O12 2711   3.040   5.143  11.037  0.0645 -0.1575 -0.2038
   21SAPC   O11 2712   2.888   5.280  10.899 -0.4882  0.2148 -0.3223
   21SAPC    C1 2713   2.967   5.240  10.781 -0.0998  0.1680 -0.4305
   21SAPC    HA 2714   2.967   5.323  10.708  0.9896  0.8255  0.2795
   21SAPC    HB 2715   3.076   5.233  10.804 -0.2553  1.9476  1.0674
   21SAPC    C2 2716   2.934   5.104  10.709 -0.1022 -0.5979  0.0362
   21SAPC    HS 2717   2.950   5.025  10.786  2.1171 -0.6529 -0.4039
   21SAPC   O21 2718   3.030   5.104  10.591  0.1337 -0.5687  0.1246
   21SAPC   C21 2719   3.085   4.990  10.570 -1.0174 -0.6786 -0.3305
   21SAPC   O22 2720   3.068   4.887  10.634  0.1382  0.3818  0.0454
   21SAPC   C22 2721   3.181   5.001  10.456  0.4458  0.0334  0.1173
   21SAPC   H2R 2722   3.147   5.077  10.382  0.7393 -0.6010 -0.6799
   21SAPC   H2S 2723   3.280   5.033  10.494 -0.1327  0.3248  1.4431
   21SAPC    C3 2724   2.780   5.102  10.668  0.8732 -0.8161 -0.1910
   21SAPC    HX 2725   2.752   5.204  10.633 -2.2666 -1.3103  0.5555
   21SAPC    HY 2726   2.735   5.083  10.768  0.5781  1.6064  0.1984
   21SAPC   O31 2727   2.751   4.994  10.577 -0.1810 -0.3311  0.0088
   21SAPC   C31 2728   2.741   5.035  10.448 -0.1729 -0.0903  0.1934
   21SAPC   O32 2729   2.730   5.149  10.409 -0.1335  0.3552 -0.9723
   21SAPC   C32 2730   2.757   4.909  10.366 -0.2390  0.3415 -0.1294
   21SAPC   H2X 2731   2.669   4.848  10.394  0.5982 -0.6223  0.4799
   21SAPC   H2Y 2732   2.853   4.858  10.390  0.9840  1.3967 -2.4105
   21SAPC   C23 2733   3.203   4.859  10.386  0.5401  0.2135 -0.6465
   21SAPC   H3R 2734   3.104   4.817  10.358  0.1324  0.0024  1.0028
   21SAPC   H3S 2735   3.239   4.788  10.463  3.6724 -0.8728 -2.8744
   21SAPC   C24 2736   3.312   4.858  10.280  0.0991  0.2477 -0.8115
   21SAPC   H4R 2737   3.323   4.755  10.240 -2.4598 -0.2486 -0.4157
   21SAPC   H4S 2738   3.408   4.882  10.331 -1.2515  0.5918  1.7694
   21SAPC   C25 2739   3.284   4.953  10.166 -0.1642 -0.1170 -0.3514
   21SAPC   H5R 2740   3.267   5.056  10.200 -0.1079 -0.6629  1.4190
   21SAPC   C26 2741   3.300   4.923  10.035  0.0380 -0.4658 -0.4114
   21SAPC   H6R 2742   3.278   5.003   9.963  2.7657  0.3480 -0.4385
   21SAPC   C27 2743   3.340   4.795   9.980 -0.4861 -0.3305 -0.4314
   21SAPC   H7R 2744   3.296   4.709  10.035 -1.6214 -0.7241 -1.8987
   21SAPC   H7S 2745   3.451   4.786   9.979 -0.3648  1.0492 -1.0549
   21SAPC   C28 2746   3.299   4.790   9.833  0.6288  0.1172 -0.0433
   21SAPC   H8R 2747   3.379   4.828   9.768  1.2239 -1.1853 -0.1230
   21SAPC   C29 2748   3.186   4.736   9.775  0.5384  0.2539 -0.3497
   21SAPC   H9R 2749   3.167   4.744   9.667 -0.9636  1.9731  0.0014
   21SAPC  C210 2750   3.079   4.680   9.865  0.0461 -0.1029 -0.2253
   21SAPC  H10R 2751   2.981   4.692   9.813 -0.0389 -0.7790 -0.2348
   21SAPC  H10S 2752   3.055   4.741   9.954 -0.0395  1.4406 -1.2717
   21SAPC  C211 2753   3.099   4.536   9.900  0.2655  1.0079 -0.8031
   21SAPC  H11R 2754   3.178   4.476   9.853  0.2837 -0.5179  1.0742
   21SAPC  C212 2755   3.028   4.475  10.002  0.1955  0.1358 -0.4677
   21SAPC  H12R 2756   3.047   4.369  10.023  3.1575  0.3627 -1.6165
   21SAPC  C213 2757   2.919   4.544  10.075  1.0541  0.3227  0.6663
   21SAPC  H13R 2758   2.829   4.479  10.066  0.5214  1.3104 -1.7711
   21SAPC  H13S 2759   2.896   4.640  10.024  2.7491 -0.2072 -1.1916
   21SAPC  C214 2760   2.951   4.588  10.215 -0.4325 -0.9740  0.2971
   21SAPC  H14R 2761   3.051   4.633  10.223  0.7082 -2.9973 -1.4554
   21SAPC  C215 2762   2.871   4.585  10.323 -0.2308  0.8776  0.0892
   21SAPC  H15R 2763   2.921   4.608  10.419 -2.8094  2.3279  1.2077
   21SAPC  C216 2764   2.733   4.528  10.339  0.9693 -0.0040  0.0590
   21SAPC  H16R 2765   2.681   4.506  10.244 -0.8023  2.1972  0.4141
   21SAPC  H16S 2766   2.665   4.600  10.391 -1.5309  0.7041 -3.7630
   21SAPC  C217 2767   2.723   4.384  10.404  0.0437  0.0833 -0.2751
   21SAPC  H17R 2768   2.752   4.298  10.339 -0.2085 -0.0886 -0.1608
   21SAPC  H17S 2769   2.616   4.373  10.430 -0.5064 -2.4244 -3.0142
   21SAPC  C218 2770   2.802   4.377  10.529 -0.3897  0.3741 -0.4281
   21SAPC  H18R 2771   2.788   4.476  10.577  1.2535  0.3503  0.1644
   21SAPC  H18S 2772   2.913   4.369  10.518 -0.2744  2.3226 -1.1225
   21SAPC  C219 2773   2.757   4.272  10.639 -0.0960  0.2564 -0.5384
   21SAPC  H19R 2774   2.767   4.170  10.595  0.1884  0.4083 -0.8290
   21SAPC  H19S 2775   2.650   4.296  10.659  0.1947  1.5042 -0.4406
   21SAPC  C220 2776   2.828   4.306  10.776 -0.6796  0.3370  0.2935
   21SAPC  H20R 2777   2.800   4.233  10.855  1.3331 -1.9201 -0.9440
   21SAPC  H20S 2778   2.804   4.409  10.811  0.1466 -0.0080  1.9850
   21SAPC  H20T 2779   2.938   4.301  10.762 -0.4269 -0.6694  2.2742
   21SAPC   C33 2780   2.753   4.940  10.214  0.9340  0.3898  0.0643
   21SAPC   H3X 2781   2.673   5.015  10.191  0.3303  0.6574  2.6830
   21SAPC   H3Y 2782   2.715   4.844  10.174  0.1921  1.5175 -2.0890
   21SAPC   C34 2783   2.878   4.978  10.147  0.6805  0.4099 -0.1445
   21SAPC   H4X 2784   2.955   4.903  10.173 -1.3952 -1.8721 -0.2937
   21SAPC   H4Y 2785   2.916   5.081  10.170  1.6829  0.5252 -2.0655
   21SAPC   C35 2786   2.867   4.976   9.988 -0.1845  0.6913 -0.2270
   21SAPC   H5X 2787   2.777   5.035   9.960 -0.5687  0.5665  0.7083
   21SAPC   H5Y 2788   2.863   4.877   9.937 -1.0071  0.8913 -0.5749
   21SAPC   C36 2789   2.982   5.045   9.926  0.1083  0.2279  0.1103
   21SAPC   H6X 2790   3.077   4.990   9.941 -1.1197 -1.8521  0.6836
   21SAPC   H6Y 2791   2.990   5.150   9.964  1.0268  0.6797 -1.2723
   21SAPC   C37 2792   2.964   5.073   9.769 -0.4296  0.9858  0.2787
   21SAPC   H7X 2793   2.972   4.983   9.705  0.3078  0.1800  1.4561
   21SAPC   H7Y 2794   3.057   5.128   9.743 -1.0426  0.8524 -2.4994
   21SAPC   C38 2795   2.847   5.162   9.741  0.5594  0.3254 -0.1292
   21SAPC   H8X 2796   2.852   5.238   9.822  0.6132 -0.1073  0.2781
   21SAPC   H8Y 2797   2.753   5.104   9.755  1.1588 -1.5421 -2.9828
   21SAPC   C39 2798   2.848   5.221   9.591  0.3597 -0.0053 -0.9524
   21SAPC   H9X 2799   2.945   5.274   9.591  0.2050  0.4316  1.9366
   21SAPC   H9Y 2800   2.762   5.292   9.594  0.5264  0.1977 -0.9793
   21SAPC  C310 2801   2.837   5.119   9.476 -0.3454 -0.0121 -0.6497
   21SAPC  H10X 2802   2.753   5.047   9.488 -0.6615  0.0810 -2.1433
   21SAPC  H10Y 2803   2.935   5.068   9.488  0.7375  1.9469 -0.6950
   21SAPC  C311 2804   2.824   5.194   9.345  0.1571  0.0192  0.0399
   21SAPC  H11X 2805   2.849   5.301   9.360 -0.1931  0.0571  0.4030
   21SAPC  H11Y 2806   2.716   5.193   9.318 -0.3069 -1.6790  1.7515
   21SAPC  C312 2807   2.915   5.131   9.239 -0.9193 -0.6368  0.4879
   21SAPC  H12X 2808   2.886   5.169   9.139  0.1809 -0.4624  0.2255
   21SAPC  H12Y 2809   2.894   5.023   9.223 -0.2396 -0.8575  1.0456
   21SAPC  C313 2810   3.069   5.144   9.250  0.4053  0.2980 -0.1247
   21SAPC  H13X 2811   3.107   5.089   9.339 -0.2203 -0.8481 -0.5493
   21SAPC  H13Y 2812   3.088   5.249   9.281  0.7192 -0.1014  1.0927
   21SAPC  C314 2813   3.152   5.110   9.122  0.1663  0.6344  1.6336
   21SAPC  H14X 2814   3.248   5.164   9.115  0.8965 -0.8509 -0.9611
   21SAPC  H14Y 2815   3.090   5.149   9.038  0.5660 -0.9457  0.5719
   21SAPC  C315 2816   3.196   4.970   9.084 -0.4675  1.0073 -0.2274
   21SAPC  H15X 2817   3.263   4.961   8.995  0.2272 -1.6450  0.4822
   21SAPC  H15Y 2818   3.109   4.901   9.076  0.2056 -0.0887  1.3027
   21SAPC  C316 2819   3.277   4.902   9.200  0.2194 -0.5627 -0.1912
   21SAPC  H16X 2820   3.284   4.795   9.172  1.1664 -0.5490 -0.0310
   21SAPC  H16Y 2821   3.217   4.907   9.293  0.8130  1.2728  0.1316
   21SAPC  C317 2822   3.410   4.965   9.224 -0.9044  0.0039  0.3884
   21SAPC  H17X 2823   3.418   5.074   9.203  0.9157  0.0981  1.3379
   21SAPC  H17Y 2824   3.484   4.910   9.161 -2.0136 -0.0004 -0.9362
   21SAPC  C318 2825   3.449   4.957   9.369 -0.0144 -0.3966 -0.2725
   21SAPC  H18X 2826   3.375   5.000   9.440  0.3373  0.7976 -0.6135
   21SAPC  H18Y 2827   3.536   5.020   9.396 -0.4357 -0.4103  1.2679
   21SAPC  H18Z 2828   3.456   4.853   9.407  0.1437 -0.5848 -0.8145
   22SAPC     N 2829   1.788   4.153  11.509  0.2343  0.7429 -0.1659
   22SAPC   C12 2830   1.777   4.038  11.411  0.6324 -0.1112 -0.6640
   22SAPC  H12A 2831   1.687   3.983  11.435  2.6745 -2.7567  1.6344
   22SAPC  H12B 2832   1.848   3.963  11.440  0.2373  0.1228  1.0151
   22SAPC   C13 2833   1.754   4.115  11.654  1.5523 -0.0447 -0.4180
   22SAPC  H13A 2834   1.773   4.197  11.722 -0.9569 -0.4478  0.9022
   22SAPC  H13B 2835   1.647   4.101  11.651  1.2761  1.8737 -0.2675
   22SAPC  H13C 2836   1.796   4.021  11.688 -0.4005 -0.3137  1.4715
   22SAPC   C14 2837   1.920   4.215  11.496 -0.6419  0.2598 -0.2734
   22SAPC  H14A 2838   1.928   4.252  11.395 -0.1609 -0.8256 -0.6432
   22SAPC  H14B 2839   1.926   4.295  11.568 -2.1894 -0.3959  0.6522
   22SAPC  H14C 2840   1.985   4.130  11.513 -0.6978 -0.0132 -1.3594
   22SAPC   C15 2841   1.690   4.258  11.474 -0.1815 -0.1980  0.2594
   22SAPC  H15A 2842   1.586   4.228  11.479  0.5104 -2.6816  0.8688
   22SAPC  H15B 2843   1.710   4.340  11.541 -0.6285 -0.0691  0.2379
   22SAPC  H15C 2844   1.696   4.288  11.370 -0.3286 -1.0617 -0.0069
   22SAPC   C11 2845   1.790   4.067  11.263 -0.5975  0.5693 -0.3076
   22SAPC  H11A 2846   1.735   4.156  11.227  1.4569  2.0624  0.0929
   22SAPC  H11B 2847   1.754   3.984  11.199 -1.6492  0.6225  0.1916
   22SAPC     P 2848   2.031   3.979  11.219  0.0657 -0.0553  0.1784
   22SAPC   O13 2849   2.147   4.026  11.137 -0.1068  0.1251  0.5215
   22SAPC   O14 2850   2.057   3.913  11.347 -0.1192  0.4237 -0.6587
   22SAPC   O12 2851   1.929   4.093  11.231 -0.2210 -0.3934  0.2121
   22SAPC   O11 2852   1.948   3.878  11.132  0.3971  0.3196  0.1954
   22SAPC    C1 2853   1.956   3.861  10.988 -0.7225 -0.0069 -0.1171
   22SAPC    HA 2854   2.065   3.859  10.968 -0.1778  1.0392  2.3481
   22SAPC    HB 2855   1.913   3.764  10.954 -1.2033  0.1624 -0.0017
   22SAPC    C2 2856   1.888   3.976  10.901 -0.7424  1.0073 -0.1702
   22SAPC    HS 2857   1.938   4.065  10.943 -1.8654  1.0544  1.1591
   22SAPC   O21 2858   1.753   3.987  10.935  0.5875  0.2151  0.4780
   22SAPC   C21 2859   1.707   4.110  10.921  0.7181  0.0227  0.1962
   22SAPC   O22 2860   1.763   4.209  10.876 -0.3298 -0.0061 -0.2298
   22SAPC   C22 2861   1.564   4.108  10.974  0.5267  0.4401  0.7561
   22SAPC   H2R 2862   1.520   4.007  10.959  0.0918  0.6861  0.3586
   22SAPC   H2S 2863   1.556   4.129  11.083 -0.6771  0.6981  0.6331
   22SAPC    C3 2864   1.916   3.958  10.751  0.1758 -0.7611 -0.6616
   22SAPC    HX 2865   1.863   4.038  10.694 -0.4726 -1.1060 -0.5480
   22SAPC    HY 2866   1.865   3.873  10.701 -0.4879  1.0994 -3.4177
   22SAPC   O31 2867   2.051   3.950  10.721 -0.0971 -0.1341  0.1889
   22SAPC   C31 2868   2.117   4.071  10.697 -0.1947  0.5648 -0.1940
   22SAPC   O32 2869   2.062   4.178  10.696  0.0485  0.1027 -0.4312
   22SAPC   C32 2870   2.262   4.036  10.662 -0.0957 -0.3190  0.4478
   22SAPC   H2X 2871   2.267   3.961  10.580  0.5058 -0.0253  0.2095
   22SAPC   H2Y 2872   2.305   3.979  10.747  0.3625 -0.3523  0.1977
   22SAPC   C23 2873   1.474   4.199  10.885 -0.3590  0.1618 -0.5280
   22SAPC   H3R 2874   1.526   4.297  10.877 -1.4738  0.9292  1.0931
   22SAPC   H3S 2875   1.373   4.206  10.930  0.0283 -2.6608  0.9917
   22SAPC   C24 2876   1.452   4.136  10.741 -0.0619  0.6759  0.5738
   22SAPC   H4R 2877   1.451   4.025  10.741 -1.4383  0.6662  0.4874
   22SAPC   H4S 2878   1.542   4.168  10.684 -0.4363  1.1590  0.2401
   22SAPC   C25 2879   1.315   4.162  10.682 -0.3159 -0.1074  0.1083
   22SAPC   H5R 2880   1.229   4.125  10.739 -0.0824 -0.0798  0.4812
   22SAPC   C26 2881   1.287   4.244  10.585 -0.7532 -0.4988  0.1294
   22SAPC   H6R 2882   1.180   4.258  10.564 -0.5894 -2.3687 -2.4298
   22SAPC   C27 2883   1.390   4.330  10.507  0.9132 -0.0482  0.5878
   22SAPC   H7R 2884   1.442   4.271  10.428 -0.4040 -1.2266  0.5408
   22SAPC   H7S 2885   1.465   4.369  10.579  2.6192 -1.5154 -0.3150
   22SAPC   C28 2886   1.312   4.438  10.439 -0.3910  0.0176  0.3523
   22SAPC   H8R 2887   1.261   4.507  10.507 -1.5066 -1.8890  1.5328
   22SAPC   C29 2888   1.301   4.467  10.308 -0.1339  0.3052  0.0240
   22SAPC   H9R 2889   1.242   4.559  10.294 -2.0280 -0.4812  2.2563
   22SAPC  C210 2890   1.357   4.395  10.187 -0.0620 -0.3167 -0.3343
   22SAPC  H10R 2891   1.273   4.329  10.156 -1.7841  1.6113 -0.0614
   22SAPC  H10S 2892   1.443   4.328  10.208 -0.3437 -0.3938  0.6339
   22SAPC  C211 2893   1.383   4.490  10.079 -0.9916 -0.0596  0.0317
   22SAPC  H11R 2894   1.372   4.596  10.109 -2.0000  0.1980 -1.1598
   22SAPC  C212 2895   1.428   4.452   9.957 -0.6210 -0.6537 -0.0780
   22SAPC  H12R 2896   1.444   4.531   9.883  1.2752  0.3496  1.3085
   22SAPC  C213 2897   1.446   4.319   9.896  0.3097 -0.3587 -0.1277
   22SAPC  H13R 2898   1.356   4.295   9.835  0.2714 -0.3436 -0.0769
   22SAPC  H13S 2899   1.444   4.248   9.981 -0.1842  0.1329  0.2806
   22SAPC  C214 2900   1.569   4.285   9.824  0.1341  0.0550  0.6272
   22SAPC  H14R 2901   1.624   4.202   9.870 -0.1162 -0.5306 -0.1309
   22SAPC  C215 2902   1.613   4.341   9.707 -0.3312  0.5593 -0.2650
   22SAPC  H15R 2903   1.707   4.300   9.668 -0.3191  0.2319  0.1066
   22SAPC  C216 2904   1.541   4.446   9.630  0.3153  0.4057  0.4157
   22SAPC  H16R 2905   1.579   4.549   9.643  0.7494  0.3604 -0.3967
   22SAPC  H16S 2906   1.436   4.462   9.663  0.8722  0.6964  2.1412
   22SAPC  C217 2907   1.540   4.419   9.477 -0.1498  0.7247  0.1988
   22SAPC  H17R 2908   1.478   4.327   9.469  0.2170  0.5029 -0.1201
   22SAPC  H17S 2909   1.642   4.387   9.446 -0.3020 -0.6275  1.0293
   22SAPC  C218 2910   1.475   4.525   9.389 -0.6506 -0.2390 -0.4455
   22SAPC  H18R 2911   1.376   4.545   9.437  0.1899  1.5114  0.6625
   22SAPC  H18S 2912   1.461   4.486   9.286  1.8806 -1.2681 -0.4567
   22SAPC  C219 2913   1.566   4.651   9.376  1.3854 -0.4090 -0.6559
   22SAPC  H19R 2914   1.665   4.620   9.338  1.8935  1.5784 -1.0366
   22SAPC  H19S 2915   1.577   4.704   9.472 -0.5170 -1.6123  0.2959
   22SAPC  C220 2916   1.502   4.750   9.276 -0.4439  0.1312  0.7574
   22SAPC  H20R 2917   1.411   4.802   9.312 -1.0540  1.3739 -2.2835
   22SAPC  H20S 2918   1.484   4.700   9.178 -2.4216  0.9310  0.6743
   22SAPC  H20T 2919   1.571   4.831   9.243 -0.2113 -1.2539 -2.5838
   22SAPC   C33 2920   2.348   4.160  10.613  0.2559 -0.1290 -0.3071
   22SAPC   H3X 2921   2.452   4.122  10.603 -0.8673 -3.5325 -0.6623
   22SAPC   H3Y 2922   2.352   4.232  10.697 -0.7358  0.5414 -0.8104
   22SAPC   C34 2923   2.303   4.230  10.487 -0.6176 -0.3164  0.2709
   22SAPC   H4X 2924   2.350   4.327  10.462 -0.1513 -0.2139  1.4998
   22SAPC   H4Y 2925   2.199   4.257  10.512 -0.5423  1.3437 -1.0023
   22SAPC   C35 2926   2.304   4.143  10.356  0.0592 -0.3522 -0.4082
   22SAPC   H5X 2927   2.254   4.196  10.273 -0.5029 -1.0855 -0.5537
   22SAPC   H5Y 2928   2.240   4.053  10.365  0.8826 -1.2399 -2.6223
   22SAPC   C36 2929   2.445   4.097  10.319 -0.4838  1.1793 -0.9745
   22SAPC   H6X 2930   2.484   4.034  10.402  1.0312  1.8584 -1.1262
   22SAPC   H6Y 2931   2.513   4.184  10.303  1.7692 -0.4129 -0.5076
   22SAPC   C37 2932   2.441   4.011  10.193 -0.4700 -0.8818  0.5925
   22SAPC   H7X 2933   2.399   3.909  10.200 -0.9358 -0.6527  1.2853
   22SAPC   H7Y 2934   2.549   3.989  10.178 -0.5307 -1.3801  0.8783
   22SAPC   C38 2935   2.375   4.068  10.067 -0.1664  0.0164  0.0639
   22SAPC   H8X 2936   2.382   4.178  10.056  1.4908 -0.0024  0.6192
   22SAPC   H8Y 2937   2.270   4.033  10.063 -0.7570  1.6818  0.4209
   22SAPC   C39 2938   2.441   4.013   9.933  0.5609  0.0592  0.6070
   22SAPC   H9X 2939   2.436   3.902   9.934 -2.2840  0.0615 -1.2438
   22SAPC   H9Y 2940   2.543   4.054   9.947 -0.1441  2.2577 -0.2558
   22SAPC  C310 2941   2.370   4.057   9.806  0.3775  0.2148  0.7377
   22SAPC  H10X 2942   2.262   4.033   9.818  0.6241 -0.6546  1.2303
   22SAPC  H10Y 2943   2.419   4.012   9.717 -1.4137  1.6361 -1.0678
   22SAPC  C311 2944   2.380   4.208   9.787 -0.0526  0.7317 -0.9118
   22SAPC  H11X 2945   2.487   4.229   9.806  0.0475  0.1882 -0.8832
   22SAPC  H11Y 2946   2.299   4.253   9.850  1.2770  0.8680  0.7730
   22SAPC  C312 2947   2.346   4.259   9.644 -0.0398  0.8601 -0.7374
   22SAPC  H12X 2948   2.332   4.369   9.640 -0.1688  0.8385 -0.8820
   22SAPC  H12Y 2949   2.249   4.215   9.613 -0.0827  1.0673 -0.9042
   22SAPC  C313 2950   2.452   4.220   9.539 -0.3776 -0.0294 -0.4974
   22SAPC  H13X 2951   2.461   4.110   9.528  2.7739 -0.2464  2.4567
   22SAPC  H13Y 2952   2.550   4.252   9.582 -1.2296  1.1163  0.6711
   22SAPC  C314 2953   2.429   4.298   9.410  0.2307  0.0991 -0.2823
   22SAPC  H14X 2954   2.409   4.406   9.429  0.7121  0.3935 -1.3815
   22SAPC  H14Y 2955   2.345   4.247   9.359  0.6866 -0.3102 -0.6385
   22SAPC  C315 2956   2.544   4.273   9.315 -0.8776 -0.5772  0.7044
   22SAPC  H15X 2957   2.543   4.166   9.285 -1.7727  0.0935 -1.8716
   22SAPC  H15Y 2958   2.639   4.296   9.368  0.6341  0.7009 -2.2989
   22SAPC  C316 2959   2.545   4.352   9.187 -0.3403 -0.2244  0.1372
   22SAPC  H16X 2960   2.649   4.348   9.147 -0.4937 -3.2360 -0.1546
   22SAPC  H16Y 2961   2.513   4.455   9.215 -0.4005 -0.0908 -0.4015
   22SAPC  C317 2962   2.448   4.303   9.074 -0.4193  0.2233 -0.4122
   22SAPC  H17X 2963   2.474   4.201   9.039 -0.0217 -0.0463  0.6457
   22SAPC  H17Y 2964   2.465   4.364   8.982  1.6390 -2.6905 -2.1335
   22SAPC  C318 2965   2.300   4.325   9.108 -1.3980 -0.5546  0.6444
   22SAPC  H18X 2966   2.283   4.387   9.198  0.3896 -0.7182  1.1249
   22SAPC  H18Y 2967   2.252   4.225   9.119 -2.0655 -0.1762  1.2383
   22SAPC  H18Z 2968   2.247   4.373   9.022 -1.5471 -1.0623  0.4485
   23SAPC     N 2969   5.508   3.162  10.899 -0.2581  0.2055  0.0470
   23SAPC   C12 2970   5.375   3.225  10.860 -0.1394 -0.1105  0.9027
   23SAPC  H12A 2971   5.304   3.233  10.941 -1.3756 -0.6057 -0.0894
   23SAPC  H12B 2972   5.335   3.170  10.776  0.0564 -0.5983  1.1283
   23SAPC   C13 2973   5.577   3.115  10.776 -0.7353  0.5824  0.5355
   23SAPC  H13A 2974   5.507   3.054  10.722 -0.2246 -0.1045  0.6367
   23SAPC  H13B 2975   5.615   3.193  10.712 -1.5903 -0.1752 -0.9313
   23SAPC  H13C 2976   5.666   3.065  10.810 -0.2938  1.0820  0.1305
   23SAPC   C14 2977   5.609   3.241  10.977 -0.1208 -0.6204 -0.3578
   23SAPC  H14A 2978   5.585   3.263  11.080  0.6200  0.2726 -0.3582
   23SAPC  H14B 2979   5.708   3.197  10.980  0.1143 -0.0703  1.2498
   23SAPC  H14C 2980   5.623   3.341  10.940 -0.1022 -0.5468 -0.1531
   23SAPC   C15 2981   5.483   3.038  10.965  0.1090 -0.0063 -0.5082
   23SAPC  H15A 2982   5.395   2.982  10.935  0.2668 -0.6092  0.1383
   23SAPC  H15B 2983   5.555   2.964  10.938 -0.3262 -0.2345 -1.0633
   23SAPC  H15C 2984   5.497   3.041  11.072 -2.3615 -0.9069 -0.0808
   23SAPC   C11 2985   5.373   3.375  10.817  0.0659  0.3525 -0.9442
   23SAPC  H11A 2986   5.266   3.405  10.806 -0.7675 -0.6463  2.8751
   23SAPC  H11B 2987   5.431   3.378  10.723  0.4196 -0.9903 -0.7938
   23SAPC     P 2988   5.368   3.526  11.029 -0.0610  0.3189 -0.0352
   23SAPC   O13 2989   5.280   3.423  11.093 -0.1637  0.0787 -0.5046
   23SAPC   O14 2990   5.467   3.593  11.115 -0.3746 -0.0044 -0.0806
   23SAPC   O12 2991   5.443   3.463  10.906 -0.3902  0.7019  0.4371
   23SAPC   O11 2992   5.284   3.634  10.962 -0.1291 -0.2547 -0.4953
   23SAPC    C1 2993   5.333   3.715  10.857  0.3097 -0.1549 -0.2862
   23SAPC    HA 2994   5.440   3.701  10.832  0.0366 -0.2153 -1.4616
   23SAPC    HB 2995   5.278   3.691  10.764 -1.8713  0.8901  0.6717
   23SAPC    C2 2996   5.304   3.859  10.886  0.5953 -0.8688  0.2262
   23SAPC    HS 2997   5.365   3.880  10.977 -1.0660 -0.7332  1.3481
   23SAPC   O21 2998   5.165   3.865  10.905  0.0105 -0.2232 -0.0126
   23SAPC   C21 2999   5.101   3.971  10.945 -0.1339  0.0055  0.9597
   23SAPC   O22 3000   5.149   4.079  10.978 -0.5811 -0.1874  0.2809
   23SAPC   C22 3001   4.950   3.936  10.955  0.3212  0.4614 -0.7618
   23SAPC   H2R 3002   4.936   3.828  10.933 -0.5029  0.3187  0.4101
   23SAPC   H2S 3003   4.928   3.939  11.063 -1.1137 -1.1956 -0.9543
   23SAPC    C3 3004   5.353   3.957  10.777  0.3739 -0.7234 -0.6826
   23SAPC    HX 3005   5.464   3.957  10.772  0.6103 -1.8729  2.6050
   23SAPC    HY 3006   5.333   4.057  10.821 -1.6504 -1.7999  0.9905
   23SAPC   O31 3007   5.276   3.961  10.656  0.3428 -0.5373 -0.3429
   23SAPC   C31 3008   5.327   3.904  10.549 -0.3718  0.3757 -0.3755
   23SAPC   O32 3009   5.434   3.847  10.543 -0.0848  0.5261 -0.1709
   23SAPC   C32 3010   5.234   3.916  10.424 -0.0929 -0.1724  0.4071
   23SAPC   H2X 3011   5.211   4.024  10.412  0.2519 -0.2629 -1.3652
   23SAPC   H2Y 3012   5.143   3.862  10.457 -0.9833  1.5706  0.9108
   23SAPC   C23 3013   4.861   4.025  10.882  0.0527  1.0623  0.2768
   23SAPC   H3R 3014   4.872   4.126  10.926 -0.6949  0.4239  2.0114
   23SAPC   H3S 3015   4.755   3.992  10.885  0.7290 -1.6620 -1.7722
   23SAPC   C24 3016   4.883   4.024  10.726  0.2992 -0.4181 -0.0554
   23SAPC   H4R 3017   4.988   4.052  10.702 -0.4298  1.7497 -0.9775
   23SAPC   H4S 3018   4.815   4.107  10.696  0.6678 -0.0093  0.2219
   23SAPC   C25 3019   4.849   3.902  10.641  0.9026  0.1693 -0.4723
   23SAPC   H5R 3020   4.875   3.804  10.684  1.5770  1.8936  3.4620
   23SAPC   C26 3021   4.797   3.890  10.515  0.4547  1.0194 -0.5959
   23SAPC   H6R 3022   4.790   3.789  10.473 -1.3435  1.5314 -1.6693
   23SAPC   C27 3023   4.760   4.005  10.421  1.0449  0.2521  0.3421
   23SAPC   H7R 3024   4.790   4.101  10.467 -1.1198 -0.1755  2.8648
   23SAPC   H7S 3025   4.651   4.015  10.409  1.2146  0.6467 -1.0580
   23SAPC   C28 3026   4.825   4.003  10.284 -0.7067  0.1587 -0.0547
   23SAPC   H8R 3027   4.904   4.079  10.278  0.1426 -0.6170  0.8205
   23SAPC   C29 3028   4.806   3.916  10.180  0.1502 -0.3776 -0.1423
   23SAPC   H9R 3029   4.867   3.929  10.090 -0.3821 -0.2845 -0.4938
   23SAPC  C210 3030   4.703   3.806  10.180  0.4622 -0.0919 -0.4450
   23SAPC  H10R 3031   4.642   3.810  10.273  1.8162 -1.9262  0.5891
   23SAPC  H10S 3032   4.760   3.710  10.183  3.3282  1.4935 -0.4487
   23SAPC  C211 3033   4.615   3.825  10.059 -0.0277 -0.1913 -0.5193
   23SAPC  H11R 3034   4.540   3.905  10.053  1.5096  1.2582 -1.5891
   23SAPC  C212 3035   4.627   3.741   9.960 -0.7462  0.2605 -0.3703
   23SAPC  H12R 3036   4.568   3.755   9.868 -2.1319  0.7600  0.5739
   23SAPC  C213 3037   4.722   3.621   9.959  0.2659  0.3515  0.4470
   23SAPC  H13R 3038   4.828   3.637   9.985  1.1628 -2.8159 -0.7962
   23SAPC  H13S 3039   4.723   3.584   9.855 -0.0430  1.9890 -0.1755
   23SAPC  C214 3040   4.674   3.501  10.042  0.1980  0.1476 -0.3584
   23SAPC  H14R 3041   4.568   3.498  10.073  0.1965  1.5334 -0.1631
   23SAPC  C215 3042   4.747   3.401  10.090  0.6536 -0.0894  0.5444
   23SAPC  H15R 3043   4.683   3.335  10.149 -2.5518  2.6560  0.4195
   23SAPC  C216 3044   4.894   3.373  10.076  0.5535 -0.8184 -0.5812
   23SAPC  H16R 3045   4.941   3.473  10.080 -0.0466 -0.5338 -0.5959
   23SAPC  H16S 3046   4.930   3.331   9.980 -1.4515  2.2970 -2.8632
   23SAPC  C217 3047   4.943   3.303  10.210  0.0475  0.6548  0.4733
   23SAPC  H17R 3048   5.053   3.289  10.205 -0.0885 -0.6225  0.5267
   23SAPC  H17S 3049   4.893   3.204  10.224 -0.3620  0.8334  0.2961
   23SAPC  C218 3050   4.908   3.374  10.340  0.1280 -0.2770 -0.4202
   23SAPC  H18R 3051   4.939   3.311  10.426 -1.6219  0.0725  0.5218
   23SAPC  H18S 3052   4.798   3.384  10.356  0.1387  0.7581 -0.8840
   23SAPC  C219 3053   4.979   3.510  10.355  0.8073  0.1367 -0.8039
   23SAPC  H19R 3054   4.907   3.579  10.305 -0.8747 -0.5286  0.6020
   23SAPC  H19S 3055   5.072   3.508  10.295 -0.1295  1.7974 -2.4278
   23SAPC  C220 3056   5.027   3.544  10.496  0.3759 -0.1002 -0.1480
   23SAPC  H20R 3057   5.111   3.478  10.527  1.6999  1.5192 -0.0918
   23SAPC  H20S 3058   4.950   3.523  10.573 -0.9179 -0.1070 -1.4112
   23SAPC  H20T 3059   5.052   3.652  10.509  0.1610 -0.2225  1.5028
   23SAPC   C33 3060   5.285   3.859  10.294 -0.0730  1.0305 -0.3901
   23SAPC   H3X 3061   5.327   3.757  10.308  0.2898  1.0048 -1.5721
   23SAPC   H3Y 3062   5.372   3.925  10.270 -0.1946  0.9206 -1.1633
   23SAPC   C34 3063   5.186   3.843  10.178 -0.6926 -0.2235  0.7510
   23SAPC   H4X 3064   5.147   3.946  10.162 -1.6844 -0.8202 -0.8951
   23SAPC   H4Y 3065   5.104   3.773  10.206 -1.1237 -0.3441 -0.7430
   23SAPC   C35 3066   5.259   3.799  10.048 -0.4511 -0.3307 -0.2492
   23SAPC   H5X 3067   5.304   3.698  10.056  1.7860  0.4936 -1.5026
   23SAPC   H5Y 3068   5.334   3.881  10.042 -2.7666  2.1080  1.6690
   23SAPC   C36 3069   5.175   3.822   9.923  0.1368 -0.0655  0.3687
   23SAPC   H6X 3070   5.237   3.860   9.839  2.2005 -0.7212  1.5232
   23SAPC   H6Y 3071   5.110   3.910   9.944  0.9505  0.5027  0.5592
   23SAPC   C37 3072   5.112   3.690   9.875  0.1305 -0.3742 -1.1613
   23SAPC   H7X 3073   5.019   3.671   9.933  1.0542 -1.2814  0.0913
   23SAPC   H7Y 3074   5.170   3.602   9.911  0.1355 -0.7911 -2.1552
   23SAPC   C38 3075   5.092   3.676   9.723  0.3417 -0.3995 -0.2406
   23SAPC   H8X 3076   5.187   3.707   9.673  0.2800 -0.5454 -0.4511
   23SAPC   H8Y 3077   5.027   3.755   9.679  0.2709 -1.1659 -1.5820
   23SAPC   C39 3078   5.041   3.538   9.686 -0.7495 -0.6075 -0.2082
   23SAPC   H9X 3079   4.972   3.497   9.763 -0.3683 -2.1996 -0.6597
   23SAPC   H9Y 3080   5.121   3.461   9.673  0.9767  0.9191  0.8520
   23SAPC  C310 3081   4.963   3.549   9.550  0.0501  0.2767 -0.3764
   23SAPC  H10X 3082   5.035   3.589   9.476  1.8267 -2.0826 -0.0405
   23SAPC  H10Y 3083   4.882   3.625   9.553 -0.0755  0.1467 -0.4197
   23SAPC  C311 3084   4.902   3.420   9.502  0.7328 -0.0529 -0.0212
   23SAPC  H11X 3085   4.811   3.399   9.562  0.6613 -0.1743 -0.1670
   23SAPC  H11Y 3086   4.985   3.346   9.502  2.1270  1.4336  1.3826
   23SAPC  C312 3087   4.852   3.424   9.349 -0.2746 -0.1422 -0.3246
   23SAPC  H12X 3088   4.946   3.430   9.289 -1.3246 -0.6219 -2.0740
   23SAPC  H12Y 3089   4.798   3.520   9.335  0.0196  0.2141  0.8080
   23SAPC  C313 3090   4.783   3.305   9.303  0.2823  0.7518  0.1663
   23SAPC  H13X 3091   4.699   3.280   9.372 -1.1689  1.5522 -1.2551
   23SAPC  H13Y 3092   4.848   3.216   9.316 -1.4740 -0.8380 -1.2654
   23SAPC  C314 3093   4.745   3.302   9.149 -0.5641  0.0943 -0.3013
   23SAPC  H14X 3094   4.828   3.358   9.102 -0.9140 -0.3605 -1.4850
   23SAPC  H14Y 3095   4.648   3.355   9.136 -0.6422  0.1120  0.3019
   23SAPC  C315 3096   4.744   3.160   9.093  0.2057  0.4205  0.3502
   23SAPC  H15X 3097   4.655   3.101   9.125 -0.5422  0.5630 -1.3309
   23SAPC  H15Y 3098   4.829   3.096   9.124 -0.8507 -2.7798 -2.6376
   23SAPC  C316 3099   4.724   3.154   8.940  0.4470  0.3512 -0.7709
   23SAPC  H16X 3100   4.639   3.222   8.916  0.6455  0.8774 -0.0330
   23SAPC  H16Y 3101   4.702   3.048   8.918 -1.4040  0.9972 -2.3130
   23SAPC  C317 3102   4.846   3.193   8.868 -0.0379  1.1677 -0.0612
   23SAPC  H17X 3103   4.925   3.130   8.914 -1.9298  1.0004  3.3104
   23SAPC  H17Y 3104   4.877   3.298   8.886 -0.1338  0.7392  3.3480
   23SAPC  C318 3105   4.838   3.165   8.721 -0.1078  0.8556 -0.4467
   23SAPC  H18X 3106   4.764   3.238   8.681 -2.9289 -1.7831 -0.3899
   23SAPC  H18Y 3107   4.799   3.063   8.702  0.2135  0.7208 -0.3920
   23SAPC  H18Z 3108   4.931   3.176   8.661 -0.3322  0.0469 -0.9592
   24SAPC     N 3109   6.479   4.240  11.511  0.3268  0.2270  0.6136
   24SAPC   C12 3110   6.558   4.180  11.397 -0.2067  0.5375  0.6997
   24SAPC  H12A 3111   6.617   4.100  11.438 -1.0953 -0.7984 -0.5303
   24SAPC  H12B 3112   6.635   4.241  11.353 -0.6709  1.1506  0.7173
   24SAPC   C13 3113   6.403   4.366  11.473 -0.6419  0.0679 -0.1844
   24SAPC  H13A 3114   6.347   4.342  11.384 -0.1803 -0.6050 -0.3070
   24SAPC  H13B 3115   6.329   4.391  11.547  0.4109 -1.7426  1.5985
   24SAPC  H13C 3116   6.467   4.452  11.458 -1.2839  0.5128 -0.3894
   24SAPC   C14 3117   6.388   4.138  11.567 -0.2989 -0.4647  0.2049
   24SAPC  H14A 3118   6.346   4.167  11.662  1.0865  1.0051  0.4118
   24SAPC  H14B 3119   6.305   4.114  11.502 -0.7196  0.1377  0.5163
   24SAPC  H14C 3120   6.437   4.042  11.577  0.7491 -0.0802 -1.0377
   24SAPC   C15 3121   6.579   4.279  11.626  0.6738 -0.5002  0.1100
   24SAPC  H15A 3122   6.514   4.278  11.713 -1.3032 -1.6189 -1.2980
   24SAPC  H15B 3123   6.657   4.205  11.637  0.9645 -0.4380 -1.3279
   24SAPC  H15C 3124   6.623   4.376  11.608 -0.3137 -0.2203 -0.8835
   24SAPC   C11 3125   6.475   4.123  11.269  0.8401 -0.1208 -0.9266
   24SAPC  H11A 3126   6.390   4.062  11.306  0.7640  1.4221  1.7015
   24SAPC  H11B 3127   6.531   4.046  11.212  1.7808 -1.9750  2.2407
   24SAPC     P 3128   6.504   4.294  11.074 -0.5284 -0.0958 -0.2823
   24SAPC   O13 3129   6.443   4.421  11.038  0.4275 -0.3050 -0.5985
   24SAPC   O14 3130   6.643   4.304  11.130 -0.2283  0.3001  0.0235
   24SAPC   O12 3131   6.415   4.222  11.181 -0.2798 -0.0547 -0.0544
   24SAPC   O11 3132   6.494   4.197  10.949 -0.2015  0.0274  0.0713
   24SAPC    C1 3133   6.369   4.147  10.902 -0.3343  0.4764  0.8291
   24SAPC    HA 3134   6.368   4.036  10.916  0.0894  0.2728 -0.6118
   24SAPC    HB 3135   6.282   4.183  10.960 -0.9282  0.9087 -0.3134
   24SAPC    C2 3136   6.354   4.178  10.753 -0.0850 -0.6088  0.6410
   24SAPC    HS 3137   6.269   4.117  10.717  0.2921 -1.7251  1.5733
   24SAPC   O21 3138   6.472   4.153  10.672  0.4370  0.5397  0.0745
   24SAPC   C21 3139   6.517   4.034  10.653 -0.2571  0.6412  0.4874
   24SAPC   O22 3140   6.456   3.931  10.689  1.0537 -0.2930 -0.2405
   24SAPC   C22 3141   6.640   4.026  10.562 -0.2457  0.3242  0.4219
   24SAPC   H2R 3142   6.645   4.119  10.502  2.0884 -0.2685 -0.4228
   24SAPC   H2S 3143   6.730   4.025  10.627  0.1058 -0.3517 -0.0558
   24SAPC    C3 3144   6.326   4.333  10.729  0.7446  0.0076  0.3441
   24SAPC    HX 3145   6.419   4.378  10.769  1.3938  0.8334 -1.9413
   24SAPC    HY 3146   6.241   4.365  10.793  0.7815 -0.5849  0.6906
   24SAPC   O31 3147   6.310   4.367  10.589 -0.1497 -0.2544 -0.0581
   24SAPC   C31 3148   6.384   4.464  10.536 -0.3659  0.1034 -0.7157
   24SAPC   O32 3149   6.472   4.527  10.595 -0.2944  0.6647 -0.1378
   24SAPC   C32 3150   6.372   4.451  10.386 -0.1414 -0.4274 -0.1483
   24SAPC   H2X 3151   6.446   4.515  10.333  1.4748 -3.6820 -2.1247
   24SAPC   H2Y 3152   6.270   4.487  10.362  0.0809 -0.0045 -0.4737
   24SAPC   C23 3153   6.628   3.907  10.457 -0.0509  0.0318  0.2728
   24SAPC   H3R 3154   6.529   3.887  10.409  0.2406 -3.2665  0.8388
   24SAPC   H3S 3155   6.644   3.812  10.513 -1.5406 -1.4305 -1.6256
   24SAPC   C24 3156   6.743   3.917  10.352  0.3992  0.8054  0.4029
   24SAPC   H4R 3157   6.840   3.942  10.398 -0.8536  1.0082  3.1132
   24SAPC   H4S 3158   6.724   4.004  10.286 -2.1643  0.3209  0.3752
   24SAPC   C25 3159   6.746   3.783  10.282  0.3627  0.3076 -0.1449
   24SAPC   H5R 3160   6.794   3.700  10.337  2.5722  1.3828 -0.3639
   24SAPC   C26 3161   6.712   3.754  10.160  0.6762  0.8697 -0.3377
   24SAPC   H6R 3162   6.692   3.649  10.132 -1.7785  1.4634 -1.0575
   24SAPC   C27 3163   6.655   3.856  10.069  0.0009 -0.0682 -0.4779
   24SAPC   H7R 3164   6.736   3.925  10.036 -0.6307  0.9047 -0.0634
   24SAPC   H7S 3165   6.573   3.909  10.123  1.7225  0.6498  1.5683
   24SAPC   C28 3166   6.580   3.794   9.952  0.1401 -0.4245 -0.1940
   24SAPC   H8R 3167   6.473   3.779   9.967  0.5308 -0.4494  3.2352
   24SAPC   C29 3168   6.625   3.752   9.832 -0.3353  0.2648 -0.5404
   24SAPC   H9R 3169   6.552   3.708   9.762 -1.3474 -0.4911  0.9431
   24SAPC  C210 3170   6.768   3.764   9.789  0.2531 -0.4220  0.5639
   24SAPC  H10R 3171   6.829   3.827   9.858 -0.3212  0.6782  0.0845
   24SAPC  H10S 3172   6.779   3.819   9.693 -0.0472  0.8743  1.2484
   24SAPC  C211 3173   6.835   3.628   9.784 -0.0464 -0.0557  0.0396
   24SAPC  H11R 3174   6.853   3.584   9.883  0.6477  0.8524  0.3239
   24SAPC  C212 3175   6.863   3.555   9.671  0.7497  0.6240 -0.5977
   24SAPC  H12R 3176   6.895   3.450   9.680 -2.1269 -0.6247 -3.0517
   24SAPC  C213 3177   6.830   3.586   9.531  0.0071 -0.2523  0.3669
   24SAPC  H13R 3178   6.870   3.498   9.476  1.1526 -0.3753  1.3731
   24SAPC  H13S 3179   6.885   3.670   9.485  0.5567 -1.0211 -0.4162
   24SAPC  C214 3180   6.682   3.589   9.499  0.1273  0.6921  0.4196
   24SAPC  H14R 3181   6.615   3.597   9.586  2.2871  0.1789  2.2426
   24SAPC  C215 3182   6.636   3.587   9.371  0.3134 -0.1121  0.0484
   24SAPC  H15R 3183   6.529   3.602   9.351  0.3151 -1.9330 -1.6038
   24SAPC  C216 3184   6.713   3.580   9.242 -0.3140  0.0764 -0.1144
   24SAPC  H16R 3185   6.821   3.584   9.266 -0.7643  2.8910  1.8263
   24SAPC  H16S 3186   6.694   3.679   9.197 -1.0978  0.7639  1.6260
   24SAPC  C217 3187   6.685   3.462   9.150 -0.1168 -0.0821 -0.9126
   24SAPC  H17R 3188   6.707   3.365   9.200 -1.2837 -0.2955 -0.7866
   24SAPC  H17S 3189   6.757   3.471   9.065 -1.0298 -0.0721 -1.6969
   24SAPC  C218 3190   6.540   3.453   9.097 -0.5456 -0.1601  0.1893
   24SAPC  H18R 3191   6.525   3.531   9.020  1.8999  0.4455  0.2624
   24SAPC  H18S 3192   6.468   3.459   9.182 -1.5988  2.9235 -0.7840
   24SAPC  C219 3193   6.501   3.315   9.030  0.3598 -0.3316  0.2481
   24SAPC  H19R 3194   6.391   3.300   9.015  0.4719 -0.4477 -0.5010
   24SAPC  H19S 3195   6.538   3.231   9.093  1.6552  0.0680  0.0363
   24SAPC  C220 3196   6.577   3.299   8.893  0.3003  0.3209 -0.3189
   24SAPC  H20R 3197   6.532   3.212   8.841 -1.5363 -0.5825  2.5589
   24SAPC  H20S 3198   6.685   3.281   8.910  0.4983  1.2024 -0.5803
   24SAPC  H20T 3199   6.566   3.394   8.837  4.6409 -0.3465 -2.6966
   24SAPC   C33 3200   6.397   4.317  10.329 -0.1423  0.3313  0.3162
   24SAPC   H3X 3201   6.320   4.249  10.371 -1.4591  0.3521 -1.8564
   24SAPC   H3Y 3202   6.497   4.280  10.359 -0.4514 -1.3565 -0.6091
   24SAPC   C34 3203   6.368   4.322  10.175  0.5160  0.1434 -0.1311
   24SAPC   H4X 3204   6.448   4.377  10.121 -1.0761  0.3123 -2.4911
   24SAPC   H4Y 3205   6.273   4.365  10.136  1.3007  0.8756 -1.3193
   24SAPC   C35 3206   6.368   4.180  10.108  0.4291  0.3249  0.0344
   24SAPC   H5X 3207   6.290   4.112  10.147 -1.2136  0.3888 -2.8190
   24SAPC   H5Y 3208   6.472   4.143  10.121  0.0935 -0.6514  0.0065
   24SAPC   C36 3209   6.337   4.181   9.955  0.0411  0.3210 -0.5050
   24SAPC   H6X 3210   6.402   4.250   9.897  0.7550 -1.8896 -2.4891
   24SAPC   H6Y 3211   6.230   4.212   9.953 -0.1106  0.1622  1.8042
   24SAPC   C37 3212   6.345   4.048   9.881  0.2545  0.6414  0.8992
   24SAPC   H7X 3213   6.288   3.970   9.935  1.2296 -0.7670 -0.0319
   24SAPC   H7Y 3214   6.452   4.016   9.874 -0.0922 -0.3630  0.0452
   24SAPC   C38 3215   6.291   4.048   9.734  0.6335 -0.2323 -0.3954
   24SAPC   H8X 3216   6.336   4.139   9.689 -0.9065  0.5060 -0.5065
   24SAPC   H8Y 3217   6.181   4.069   9.737  0.7862  0.6959 -0.7075
   24SAPC   C39 3218   6.313   3.923   9.649  0.4021 -0.1400 -0.2981
   24SAPC   H9X 3219   6.256   3.837   9.688 -0.9876  0.4567 -0.9622
   24SAPC   H9Y 3220   6.422   3.903   9.638  0.6165 -0.4303  1.8089
   24SAPC  C310 3221   6.263   3.952   9.508  0.2409  0.3440  0.3625
   24SAPC  H10X 3222   6.313   4.042   9.467  1.2531 -0.2960  0.1642
   24SAPC  H10Y 3223   6.155   3.975   9.498 -0.1795 -0.7800  1.9194
   24SAPC  C311 3224   6.298   3.833   9.424 -0.4546  0.2250 -0.2927
   24SAPC  H11X 3225   6.262   3.743   9.477 -1.5020  0.7573 -0.0760
   24SAPC  H11Y 3226   6.408   3.820   9.421 -0.4465  0.1218  0.4236
   24SAPC  C312 3227   6.251   3.838   9.282  0.2587 -0.9386 -0.3708
   24SAPC  H12X 3228   6.282   3.930   9.228  0.6502 -1.3973 -0.9315
   24SAPC  H12Y 3229   6.140   3.840   9.287  0.2939  1.7624  1.8823
   24SAPC  C313 3230   6.298   3.724   9.202  0.0201  0.0909  0.8511
   24SAPC  H13X 3231   6.281   3.621   9.240  0.3913 -0.8034 -1.2673
   24SAPC  H13Y 3232   6.400   3.741   9.161 -0.8028  2.1065 -0.4834
   24SAPC  C314 3233   6.206   3.718   9.078  0.3417 -0.4955 -0.3528
   24SAPC  H14X 3234   6.207   3.820   9.033  0.1267 -0.2023  0.2864
   24SAPC  H14Y 3235   6.104   3.696   9.118 -0.4146 -2.4632 -3.0284
   24SAPC  C315 3236   6.232   3.616   8.968 -0.9121 -0.7760  0.5470
   24SAPC  H15X 3237   6.134   3.582   8.927 -0.4516 -2.1090  0.4982
   24SAPC  H15Y 3238   6.269   3.524   9.018 -1.0025 -0.6676  0.8117
   24SAPC  C316 3239   6.325   3.669   8.856  0.1557 -0.7721 -0.8553
   24SAPC  H16X 3240   6.430   3.680   8.890  0.2402 -1.7089 -0.7933
   24SAPC  H16Y 3241   6.279   3.763   8.817  0.6735  0.0895  0.5161
   24SAPC  C317 3242   6.350   3.575   8.732  0.1326  0.2879  0.4010
   24SAPC  H17X 3243   6.257   3.550   8.676  2.1774 -3.0586 -1.9096
   24SAPC  H17Y 3244   6.397   3.481   8.769  0.6565  0.0195 -0.9181
   24SAPC  C318 3245   6.450   3.637   8.633  0.7426  0.1285 -0.8790
   24SAPC  H18X 3246   6.484   3.565   8.557  1.3674  0.2855 -0.7557
   24SAPC  H18Y 3247   6.539   3.665   8.693  0.6876  0.2058 -0.8318
   24SAPC  H18Z 3248   6.414   3.733   8.591  0.1695  0.2509 -0.1486
   25SAPC     N 3249   1.408   1.760   6.190 -0.1692 -0.7614  0.0596
   25SAPC   C12 3250   1.281   1.678   6.157  0.1480  0.1740  0.3312
   25SAPC  H12A 3251   1.235   1.710   6.065  1.9304 -1.1273 -1.0787
   25SAPC  H12B 3252   1.215   1.695   6.241  0.2426  0.5506  0.3302
   25SAPC   C13 3253   1.505   1.734   6.084 -1.2931  0.3867  0.6057
   25SAPC  H13A 3254   1.540   1.633   6.091  3.1627  1.5993 -1.1047
   25SAPC  H13B 3255   1.455   1.740   5.989 -3.0535 -0.7424  1.3953
   25SAPC  H13C 3256   1.591   1.799   6.093 -1.5868  0.6648  1.6074
   25SAPC   C14 3257   1.377   1.905   6.193  0.1585 -0.3164  0.1747
   25SAPC  H14A 3258   1.295   1.920   6.261  1.5333  1.0949  1.6109
   25SAPC  H14B 3259   1.459   1.960   6.237  0.6753 -1.2907  0.4873
   25SAPC  H14C 3260   1.338   1.935   6.097  0.7159  0.6516  0.2346
   25SAPC   C15 3261   1.475   1.719   6.318  0.3215  0.5264  0.0857
   25SAPC  H15A 3262   1.418   1.756   6.402 -0.6024 -0.5201 -0.0698
   25SAPC  H15B 3263   1.490   1.612   6.324  0.5277  0.6507  3.4978
   25SAPC  H15C 3264   1.574   1.760   6.331 -0.6441  2.8031  0.8663
   25SAPC   C11 3265   1.283   1.530   6.160  0.4697  0.3448  0.2349
   25SAPC  H11A 3266   1.312   1.486   6.258  1.0606  2.9540  1.3269
   25SAPC  H11B 3267   1.354   1.494   6.082 -0.0723 -0.7262  0.2262
   25SAPC     P 3268   1.045   1.414   6.212 -0.2054  0.3182 -0.0007
   25SAPC   O13 3269   0.911   1.417   6.149  0.2661 -1.0090  0.0335
   25SAPC   O14 3270   1.100   1.279   6.254  0.0440 -0.1205  0.0043
   25SAPC   O12 3271   1.156   1.481   6.106  0.1797 -0.3889 -0.4291
   25SAPC   O11 3272   1.036   1.508   6.342 -0.1311 -0.2035 -0.1521
   25SAPC    C1 3273   0.972   1.474   6.460 -0.2504  0.3525 -0.3141
   25SAPC    HA 3274   0.911   1.560   6.496  0.3132 -0.5740  3.2276
   25SAPC    HB 3275   0.904   1.390   6.437 -0.9819  0.7653  0.3124
   25SAPC    C2 3276   1.074   1.442   6.575  0.3035  0.6019  0.8839
   25SAPC    HS 3277   1.109   1.339   6.551 -1.2109  0.1337  0.5475
   25SAPC   O21 3278   1.015   1.453   6.701 -0.6684  0.0865  0.3538
   25SAPC   C21 3279   1.065   1.373   6.788  0.2148  0.7855 -0.2614
   25SAPC   O22 3280   1.149   1.283   6.763 -0.0065 -0.1723  0.5219
   25SAPC   C22 3281   1.000   1.385   6.917 -0.1247 -0.4121 -0.7349
   25SAPC   H2R 3282   0.986   1.492   6.943 -2.7823 -0.7725 -0.3349
   25SAPC   H2S 3283   0.895   1.349   6.904 -0.8321  1.3408 -0.2102
   25SAPC    C3 3284   1.194   1.543   6.566 -0.5374  0.0434  0.2422
   25SAPC    HX 3285   1.158   1.646   6.589 -0.6991 -0.0308  0.3167
   25SAPC    HY 3286   1.230   1.539   6.461 -0.0738  1.2462  0.3339
   25SAPC   O31 3287   1.303   1.503   6.659 -0.6460  0.1667 -0.4580
   25SAPC   C31 3288   1.378   1.406   6.627 -0.6021 -0.1471 -0.0285
   25SAPC   O32 3289   1.372   1.342   6.524 -0.3380 -0.0844  0.3901
   25SAPC   C32 3290   1.475   1.383   6.741  0.4215  0.1067 -0.3272
   25SAPC   H2X 3291   1.422   1.411   6.834 -0.7486 -0.4157 -0.8215
   25SAPC   H2Y 3292   1.561   1.453   6.732 -0.0777  1.2640  2.8613
   25SAPC   C23 3293   1.068   1.302   7.032  0.0394  0.4454 -0.5187
   25SAPC   H3R 3294   1.173   1.338   7.030 -0.0869  0.8132 -0.7533
   25SAPC   H3S 3295   1.075   1.195   7.006  0.0693  0.4433 -0.5019
   25SAPC   C24 3296   0.991   1.341   7.162  0.5658 -0.7103 -0.8211
   25SAPC   H4R 3297   0.981   1.450   7.179 -0.6213 -0.9164 -0.1253
   25SAPC   H4S 3298   1.053   1.310   7.248 -1.3905 -1.2367  0.4426
   25SAPC   C25 3299   0.866   1.263   7.171  0.4572  0.2221 -0.1001
   25SAPC   H5R 3300   0.851   1.205   7.079 -0.4378  0.5754 -0.1821
   25SAPC   C26 3301   0.762   1.276   7.249 -0.2041  0.3983  0.1473
   25SAPC   H6R 3302   0.670   1.222   7.222 -0.7909  0.9200  1.0556
   25SAPC   C27 3303   0.758   1.370   7.363  0.2267 -0.5120  0.2943
   25SAPC   H7R 3304   0.698   1.463   7.347  1.8809  0.7557  1.1710
   25SAPC   H7S 3305   0.861   1.407   7.381  1.1399 -1.6197 -2.1658
   25SAPC   C28 3306   0.711   1.290   7.490  0.3267 -0.4045  0.2011
   25SAPC   H8R 3307   0.608   1.251   7.493  0.2583 -0.2066  0.5277
   25SAPC   C29 3308   0.778   1.252   7.602  0.4673 -0.5876  0.0835
   25SAPC   H9R 3309   0.720   1.202   7.681  0.6379  0.0780  0.6476
   25SAPC  C210 3310   0.916   1.300   7.646 -0.2839  0.0061  0.2982
   25SAPC  H10R 3311   0.971   1.350   7.563 -1.3876  0.9236  0.0897
   25SAPC  H10S 3312   0.981   1.211   7.660 -0.4146 -0.2813 -0.8029
   25SAPC  C211 3313   0.913   1.402   7.755 -0.7492 -0.6770 -0.7801
   25SAPC  H11R 3314   0.862   1.493   7.721  1.6601  1.1552  0.1780
   25SAPC  C212 3315   0.968   1.391   7.877  0.0937 -0.0210 -0.2137
   25SAPC  H12R 3316   0.960   1.474   7.948 -1.1537 -2.0438  2.1854
   25SAPC  C213 3317   1.028   1.262   7.932  0.0700  0.4381  0.1210
   25SAPC  H13R 3318   1.125   1.297   7.972 -0.2632 -0.5906  1.9677
   25SAPC  H13S 3319   1.043   1.186   7.853  0.2470  1.0764 -0.4665
   25SAPC  C214 3320   0.935   1.197   8.036 -0.0355  0.5034 -0.6345
   25SAPC  H14R 3321   0.841   1.175   7.983  0.6224 -0.7193 -1.3666
   25SAPC  C215 3322   0.975   1.165   8.164  0.6631 -0.3962  0.1258
   25SAPC  H15R 3323   0.899   1.136   8.238 -1.3904  0.0838 -1.7174
   25SAPC  C216 3324   1.103   1.184   8.238  0.8283 -0.0446 -0.7849
   25SAPC  H16R 3325   1.150   1.285   8.236  1.0119  0.0174  2.1890
   25SAPC  H16S 3326   1.177   1.118   8.187 -0.0771 -0.5409 -1.4820
   25SAPC  C217 3327   1.105   1.141   8.390  0.8797  0.0352  0.4052
   25SAPC  H17R 3328   1.071   1.035   8.386 -1.0869  0.6655 -1.8930
   25SAPC  H17S 3329   1.046   1.205   8.459  2.9738  1.0376  1.3683
   25SAPC  C218 3330   1.241   1.140   8.451  0.3321  0.1402 -0.2335
   25SAPC  H18R 3331   1.282   1.243   8.445  1.9015 -0.4754 -0.6148
   25SAPC  H18S 3332   1.302   1.084   8.377 -0.8286 -0.3008 -0.8640
   25SAPC  C219 3333   1.260   1.078   8.590  0.3893  0.1093  0.0250
   25SAPC  H19R 3334   1.370   1.064   8.600  0.2928 -0.5451  0.2081
   25SAPC  H19S 3335   1.227   0.972   8.594 -0.1061  0.2969  1.1958
   25SAPC  C220 3336   1.194   1.146   8.708  0.5253 -0.2075 -0.3573
   25SAPC  H20R 3337   1.085   1.122   8.703  0.3066  0.2822  1.4622
   25SAPC  H20S 3338   1.220   1.254   8.711  0.8166 -0.2530 -1.1563
   25SAPC  H20T 3339   1.233   1.096   8.799  1.2405  0.9540 -0.0141
   25SAPC   C33 3340   1.539   1.242   6.733  0.2081  0.3978  0.0278
   25SAPC   H3X 3341   1.595   1.247   6.637 -0.4455  2.0623 -0.2974
   25SAPC   H3Y 3342   1.461   1.163   6.736 -1.0695  1.6135 -0.1516
   25SAPC   C34 3343   1.633   1.206   6.850 -0.3843  0.4365  0.1518
   25SAPC   H4X 3344   1.716   1.279   6.853  1.0933 -0.8072 -3.8602
   25SAPC   H4Y 3345   1.668   1.107   6.813  0.6704  0.5299  0.8559
   25SAPC   C35 3346   1.564   1.184   6.986  0.7618  0.6988  0.1537
   25SAPC   H5X 3347   1.625   1.114   7.048  0.3803  0.6693  0.4995
   25SAPC   H5Y 3348   1.464   1.140   6.971  1.4542 -1.1932  0.8211
   25SAPC   C36 3349   1.562   1.307   7.077 -0.2472  0.2769 -0.0284
   25SAPC   H6X 3350   1.507   1.398   7.045  0.0569  0.1834 -0.8270
   25SAPC   H6Y 3351   1.666   1.342   7.095 -0.1038 -0.1841  0.0601
   25SAPC   C37 3352   1.494   1.276   7.216  0.1399  0.0386 -0.2164
   25SAPC   H7X 3353   1.562   1.200   7.259  1.3151  1.0241 -0.2778
   25SAPC   H7Y 3354   1.398   1.220   7.209  0.2670 -0.3380  0.8244
   25SAPC   C38 3355   1.478   1.411   7.277 -0.3069  0.1431 -0.2538
   25SAPC   H8X 3356   1.376   1.453   7.263 -0.4160 -0.4444 -1.3192
   25SAPC   H8Y 3357   1.542   1.494   7.239 -0.6002  1.4057  1.8486
   25SAPC   C39 3358   1.506   1.403   7.429 -0.2287 -0.2175 -0.0733
   25SAPC   H9X 3359   1.478   1.498   7.479  0.1461  1.2824 -2.5204
   25SAPC   H9Y 3360   1.612   1.395   7.461 -0.1907  1.1017  0.1761
   25SAPC  C310 3361   1.425   1.295   7.501 -0.1550 -0.1009 -0.1983
   25SAPC  H10X 3362   1.439   1.199   7.447  0.4223  0.5968 -1.3376
   25SAPC  H10Y 3363   1.316   1.315   7.495 -0.6235 -2.2362  0.3304
   25SAPC  C311 3364   1.468   1.269   7.649  0.7075  0.2521  0.5549
   25SAPC  H11X 3365   1.564   1.216   7.633  0.1405 -0.9227  0.9563
   25SAPC  H11Y 3366   1.410   1.188   7.698  1.3792  0.3379  1.5219
   25SAPC  C312 3367   1.484   1.373   7.757 -0.6444  0.0484 -0.3566
   25SAPC  H12X 3368   1.385   1.420   7.779 -1.4392 -1.9372  0.5271
   25SAPC  H12Y 3369   1.551   1.451   7.716 -1.1590 -0.5995 -2.5697
   25SAPC  C313 3370   1.547   1.319   7.886  0.7894 -0.6030  0.5308
   25SAPC  H13X 3371   1.605   1.226   7.867  0.7990 -0.6206  0.6484
   25SAPC  H13Y 3372   1.469   1.284   7.957 -0.4750  0.8268 -0.0871
   25SAPC  C314 3373   1.634   1.426   7.948 -0.0619  0.2296  0.4071
   25SAPC  H14X 3374   1.596   1.531   7.951  0.6109  0.5198 -0.5609
   25SAPC  H14Y 3375   1.734   1.428   7.899  0.2321 -1.6092  0.8692
   25SAPC  C315 3376   1.678   1.390   8.089  0.2226  0.5193 -0.1392
   25SAPC  H15X 3377   1.733   1.294   8.078  0.9153  0.8853  0.0799
   25SAPC  H15Y 3378   1.586   1.359   8.143 -0.2475 -0.8817 -1.6451
   25SAPC  C316 3379   1.777   1.487   8.148  0.0842  0.3890  0.1591
   25SAPC  H16X 3380   1.741   1.592   8.137  0.7788  0.4680 -1.5581
   25SAPC  H16Y 3381   1.866   1.478   8.082 -0.7549  0.6163 -1.0328
   25SAPC  C317 3382   1.811   1.450   8.294 -0.0784  0.1176 -0.1238
   25SAPC  H17X 3383   1.720   1.485   8.349  0.6548  1.8926  0.0226
   25SAPC  H17Y 3384   1.903   1.507   8.316 -1.1144  1.0133  2.2192
   25SAPC  C318 3385   1.835   1.300   8.318  0.3020  0.3479  0.6205
   25SAPC  H18X 3386   1.746   1.239   8.293  1.2159 -1.4726  1.6018
   25SAPC  H18Y 3387   1.844   1.281   8.427 -1.6028 -0.1699  0.7186
   25SAPC  H18Z 3388   1.924   1.270   8.259 -0.7541  2.2427 -2.1724
   26SAPC     N 3389   6.126   2.519   6.592  0.1150 -0.7333 -0.1016
   26SAPC   C12 3390   6.110   2.504   6.441  0.0530 -0.0987 -0.6427
   26SAPC  H12A 3391   6.044   2.424   6.413  0.3076 -0.9056  0.9296
   26SAPC  H12B 3392   6.207   2.477   6.403  0.4010 -0.2531  0.3251
   26SAPC   C13 3393   6.000   2.468   6.655 -0.3216  0.6962 -0.2522
   26SAPC  H13A 3394   5.913   2.523   6.624  0.7031  1.1684 -2.4488
   26SAPC  H13B 3395   5.978   2.366   6.626  0.4258  0.5244 -0.2311
   26SAPC  H13C 3396   6.006   2.465   6.763  0.0195  5.0946  0.0377
   26SAPC   C14 3397   6.235   2.426   6.637 -0.2766  0.2555  0.4070
   26SAPC  H14A 3398   6.335   2.449   6.602  0.8665 -1.0725  2.5310
   26SAPC  H14B 3399   6.241   2.411   6.744 -2.4703  0.8595  0.6436
   26SAPC  H14C 3400   6.213   2.325   6.606 -0.2729 -0.4759  2.5741
   26SAPC   C15 3401   6.156   2.658   6.638  0.6163 -0.8678  0.0347
   26SAPC  H15A 3402   6.175   2.664   6.745  0.3190 -0.1636  0.0560
   26SAPC  H15B 3403   6.234   2.706   6.582  0.4513  1.0904  1.3694
   26SAPC  H15C 3404   6.073   2.727   6.629  1.1389 -0.3542 -1.0194
   26SAPC   C11 3405   6.065   2.634   6.361 -0.5545 -0.2362 -0.3507
   26SAPC  H11A 3406   6.075   2.604   6.255  2.9459 -4.1649  0.8174
   26SAPC  H11B 3407   6.126   2.726   6.376 -1.3957  0.7627 -2.6676
   26SAPC     P 3408   5.844   2.782   6.374  0.1151 -0.0517  0.2089
   26SAPC   O13 3409   5.934   2.899   6.353 -0.2475 -0.3523 -0.3711
   26SAPC   O14 3410   5.737   2.748   6.271  0.1463  0.1946  0.2147
   26SAPC   O12 3411   5.931   2.650   6.399 -0.1831 -0.1392  0.3217
   26SAPC   O11 3412   5.785   2.795   6.518 -0.1353 -0.1755 -0.0120
   26SAPC    C1 3413   5.689   2.893   6.558 -0.1278 -0.8615 -0.4874
   26SAPC    HA 3414   5.683   2.975   6.483  0.0112 -1.6952 -1.4255
   26SAPC    HB 3415   5.596   2.834   6.570 -0.1949 -1.5379 -3.4304
   26SAPC    C2 3416   5.724   2.965   6.693 -0.5092  0.5206  0.4790
   26SAPC    HS 3417   5.814   3.028   6.677  0.6772 -0.7814  1.7177
   26SAPC   O21 3418   5.757   2.867   6.792  0.4688  0.7492 -0.0666
   26SAPC   C21 3419   5.888   2.840   6.817  0.0567 -0.1952  1.0089
   26SAPC   O22 3420   5.986   2.876   6.754 -0.1368 -0.0974 -0.1378
   26SAPC   C22 3421   5.890   2.767   6.953  0.4360 -0.1555  0.1995
   26SAPC   H2R 3422   5.796   2.708   6.961 -0.6280  1.3737 -0.6028
   26SAPC   H2S 3423   5.975   2.697   6.942  0.6708  0.5490 -4.5200
   26SAPC    C3 3424   5.611   3.060   6.750 -0.2591 -0.7612  0.3891
   26SAPC    HX 3425   5.516   3.002   6.739  0.7853 -2.9136  1.9740
   26SAPC    HY 3426   5.602   3.157   6.697 -1.1590 -0.3984  1.1763
   26SAPC   O31 3427   5.617   3.079   6.891 -0.3467  0.1610 -0.4812
   26SAPC   C31 3428   5.677   3.190   6.937  1.3014 -0.2930  0.4053
   26SAPC   O32 3429   5.715   3.287   6.865  0.5777  0.3012  0.4725
   26SAPC   C32 3430   5.693   3.189   7.085  1.1735 -0.1047  0.5426
   26SAPC   H2X 3431   5.728   3.091   7.125 -1.8550 -1.6552 -0.2802
   26SAPC   H2Y 3432   5.589   3.188   7.125  0.1289  1.8591 -1.8637
   26SAPC   C23 3433   5.914   2.868   7.066 -0.7660 -0.0210 -0.2212
   26SAPC   H3R 3434   5.854   2.960   7.049 -2.5338 -0.8712  1.1008
   26SAPC   H3S 3435   6.023   2.882   7.078 -0.7602  2.0109 -2.1733
   26SAPC   C24 3436   5.860   2.823   7.203 -0.4036 -0.2899  0.3401
   26SAPC   H4R 3437   5.749   2.814   7.199 -0.3309 -1.4801  0.5181
   26SAPC   H4S 3438   5.872   2.907   7.275  0.1712  1.5154 -1.7583
   26SAPC   C25 3439   5.924   2.698   7.266 -0.2819 -0.2362  0.7211
   26SAPC   H5R 3440   5.932   2.617   7.191  2.4762  0.8858 -0.3153
   26SAPC   C26 3441   5.969   2.690   7.393  0.5362 -0.6090  0.5758
   26SAPC   H6R 3442   6.006   2.598   7.441 -0.8815 -1.3628  0.3061
   26SAPC   C27 3443   5.966   2.799   7.491 -0.3429  0.0126 -0.0633
   26SAPC   H7R 3444   5.978   2.899   7.444 -2.5082  0.3605  0.0442
   26SAPC   H7S 3445   6.039   2.797   7.575 -0.7809  2.5551  0.4693
   26SAPC   C28 3446   5.830   2.813   7.553 -0.5983 -0.4252  0.4420
   26SAPC   H8R 3447   5.746   2.829   7.485  0.6315 -0.3822 -1.1248
   26SAPC   C29 3448   5.810   2.814   7.686 -0.4803  0.1101 -0.0444
   26SAPC   H9R 3449   5.711   2.844   7.724  0.3637 -0.5179  2.8317
   26SAPC  C210 3450   5.899   2.797   7.807  1.1504  0.2712  0.1067
   26SAPC  H10R 3451   5.953   2.701   7.789 -0.7097 -0.8418  0.1446
   26SAPC  H10S 3452   5.834   2.790   7.897 -4.6178  5.2968 -2.9337
   26SAPC  C211 3453   6.001   2.902   7.828  0.7002 -0.2584 -0.5041
   26SAPC  H11R 3454   6.029   2.970   7.747 -0.1300 -0.7211 -1.1891
   26SAPC  C212 3455   6.044   2.935   7.956  0.0102  0.1139 -0.3769
   26SAPC  H12R 3456   6.119   3.014   7.971  1.8177 -1.8118  1.2334
   26SAPC  C213 3457   6.015   2.870   8.098  0.4329  0.0941  0.3604
   26SAPC  H13R 3458   6.103   2.807   8.126 -0.2121 -1.0077 -0.0317
   26SAPC  H13S 3459   5.938   2.792   8.082  0.4913  0.0072  0.5037
   26SAPC  C214 3460   5.967   2.977   8.192 -0.9007 -0.2176 -0.3406
   26SAPC  H14R 3461   5.932   3.073   8.151  1.0496  0.1747 -1.2094
   26SAPC  C215 3462   5.944   2.962   8.325 -0.0510  0.1350  0.2715
   26SAPC  H15R 3463   5.907   3.047   8.384  1.1088  0.7631  0.1252
   26SAPC  C216 3464   5.956   2.830   8.406 -0.1427 -0.1119  0.1463
   26SAPC  H16R 3465   5.898   2.748   8.357  1.5101  1.0353 -4.2305
   26SAPC  H16S 3466   5.911   2.847   8.506 -1.3434 -0.5943 -0.2853
   26SAPC  C217 3467   6.104   2.782   8.433  0.2513 -0.1261 -0.1927
   26SAPC  H17R 3468   6.157   2.860   8.492  0.5665 -0.6947  0.2848
   26SAPC  H17S 3469   6.163   2.778   8.339  1.4678 -0.8700  0.5693
   26SAPC  C218 3470   6.101   2.648   8.508 -0.0095  0.1949  0.1269
   26SAPC  H18R 3471   6.059   2.577   8.434 -2.5325  0.8381  0.8344
   26SAPC  H18S 3472   6.026   2.647   8.590  1.1995 -1.7050  1.2869
   26SAPC  C219 3473   6.241   2.620   8.567 -0.3471 -0.3195 -0.3955
   26SAPC  H19R 3474   6.283   2.718   8.599 -1.7145  0.6296 -1.3984
   26SAPC  H19S 3475   6.296   2.578   8.480 -2.4800 -2.9006 -0.6440
   26SAPC  C220 3476   6.255   2.513   8.685 -0.3664 -0.2244 -0.4197
   26SAPC  H20R 3477   6.361   2.482   8.679 -0.4273 -0.9548  1.7812
   26SAPC  H20S 3478   6.191   2.427   8.659  0.6807 -1.2113  0.1698
   26SAPC  H20T 3479   6.233   2.551   8.787  0.4407 -3.0677  0.9108
   26SAPC   C33 3480   5.754   3.313   7.147  0.0778  0.1595 -0.3706
   26SAPC   H3X 3481   5.698   3.399   7.105 -0.2222  0.2605  0.2330
   26SAPC   H3Y 3482   5.863   3.323   7.128  0.0487 -0.5429 -1.0004
   26SAPC   C34 3483   5.743   3.313   7.299 -0.0203 -0.2668 -1.0108
   26SAPC   H4X 3484   5.642   3.340   7.336  0.3555  1.9539 -1.4643
   26SAPC   H4Y 3485   5.807   3.397   7.335 -1.3838  0.2505  0.2937
   26SAPC   C35 3486   5.788   3.186   7.384  0.0192 -0.2340  0.0118
   26SAPC   H5X 3487   5.880   3.138   7.343  2.0137  2.2057  1.3468
   26SAPC   H5Y 3488   5.711   3.107   7.375  1.7327 -1.8308 -1.7675
   26SAPC   C36 3489   5.817   3.216   7.535  0.0513 -0.6219 -0.1653
   26SAPC   H6X 3490   5.910   3.277   7.542 -1.1636  1.2277  0.8447
   26SAPC   H6Y 3491   5.838   3.118   7.582  1.9983 -0.9813 -1.6391
   26SAPC   C37 3492   5.688   3.291   7.597  0.4298 -0.1641 -0.0958
   26SAPC   H7X 3493   5.596   3.233   7.570 -0.4857  1.9674 -1.7719
   26SAPC   H7Y 3494   5.690   3.390   7.547 -0.4987  0.1620  0.4760
   26SAPC   C38 3495   5.697   3.305   7.751 -0.3997  0.4267  0.1952
   26SAPC   H8X 3496   5.618   3.377   7.782 -0.7818  1.5119 -2.9365
   26SAPC   H8Y 3497   5.791   3.342   7.796 -0.8197  2.2653 -0.3680
   26SAPC   C39 3498   5.662   3.167   7.820 -0.0220  0.0231  0.4530
   26SAPC   H9X 3499   5.708   3.093   7.752  1.1320  2.1397 -1.2189
   26SAPC   H9Y 3500   5.554   3.144   7.820  0.1926 -2.2058 -4.6434
   26SAPC  C310 3501   5.706   3.150   7.963 -0.3013  0.3300 -0.1174
   26SAPC  H10X 3502   5.808   3.193   7.972 -0.5196  1.0791 -1.0785
   26SAPC  H10Y 3503   5.717   3.044   7.995 -0.4395  0.6033  0.8622
   26SAPC  C311 3504   5.618   3.222   8.073 -0.6185  0.1874 -0.0323
   26SAPC  H11X 3505   5.641   3.185   8.175 -1.6896  1.1568  0.5831
   26SAPC  H11Y 3506   5.508   3.208   8.058 -0.6288 -0.6029  0.6806
   26SAPC  C312 3507   5.648   3.373   8.094  0.0733  0.3212 -0.2988
   26SAPC  H12X 3508   5.589   3.434   8.023  2.3741  0.3988 -2.2662
   26SAPC  H12Y 3509   5.754   3.382   8.062 -0.7572  2.6445 -2.7061
   26SAPC  C313 3510   5.634   3.419   8.239  0.3764 -0.5009 -0.3559
   26SAPC  H13X 3511   5.688   3.349   8.306  0.9599  1.1271  0.9377
   26SAPC  H13Y 3512   5.526   3.415   8.266  0.9528 -0.3684  2.1447
   26SAPC  C314 3513   5.702   3.558   8.263 -0.2919  0.3692  0.5917
   26SAPC  H14X 3514   5.643   3.641   8.218  0.5161  0.1139 -1.0045
   26SAPC  H14Y 3515   5.801   3.566   8.213  0.1174  3.2794  1.6653
   26SAPC  C315 3516   5.741   3.594   8.408  0.5005 -0.2109 -0.3812
   26SAPC  H15X 3517   5.782   3.696   8.423 -0.1534 -0.1268  0.9790
   26SAPC  H15Y 3518   5.814   3.512   8.429 -1.3330 -1.5199  1.2088
   26SAPC  C316 3519   5.620   3.578   8.495  0.1824  0.1191 -0.3414
   26SAPC  H16X 3520   5.641   3.554   8.601  0.0162 -1.8158 -0.7158
   26SAPC  H16Y 3521   5.553   3.497   8.459  0.7090 -0.4994  0.0669
   26SAPC  C317 3522   5.536   3.706   8.489 -0.1339  0.3268  0.0146
   26SAPC  H17X 3523   5.511   3.730   8.384  0.2768  0.0964 -0.1409
   26SAPC  H17Y 3524   5.598   3.792   8.522  2.2617 -0.6761 -1.5501
   26SAPC  C318 3525   5.406   3.705   8.577 -0.3982  0.3172 -0.3521
   26SAPC  H18X 3526   5.342   3.617   8.556 -1.2549  0.7603  0.3562
   26SAPC  H18Y 3527   5.348   3.796   8.551 -0.2089  0.4853 -0.1857
   26SAPC  H18Z 3528   5.445   3.704   8.681 -1.6706  2.0737  0.1964
   27SAPC     N 3529   4.394   4.387   6.592  0.1743 -0.0586  0.6135
   27SAPC   C12 3530   4.489   4.449   6.692  0.5350 -0.5544 -0.8340
   27SAPC  H12A 3531   4.541   4.533   6.647  0.2797  0.8159  1.2992
   27SAPC  H12B 3532   4.576   4.386   6.705  0.7354  0.2961  2.9846
   27SAPC   C13 3533   4.282   4.485   6.562 -0.6180 -0.1594 -1.1698
   27SAPC  H13A 3534   4.312   4.561   6.492 -0.8091  0.0342 -1.0429
   27SAPC  H13B 3535   4.194   4.437   6.522 -0.8104 -0.4493 -0.4203
   27SAPC  H13C 3536   4.254   4.527   6.657 -3.1902  0.0038 -1.9300
   27SAPC   C14 3537   4.469   4.350   6.475  0.0307  0.0772 -0.6557
   27SAPC  H14A 3538   4.509   4.438   6.426  0.2607  1.0464  1.2030
   27SAPC  H14B 3539   4.556   4.292   6.504  0.3303  0.3896 -0.9118
   27SAPC  H14C 3540   4.414   4.289   6.405  2.7080 -3.4263 -0.0043
   27SAPC   C15 3541   4.329   4.256   6.640  0.5200 -0.0972 -0.2061
   27SAPC  H15A 3542   4.267   4.211   6.563 -0.8952  0.1025  0.7807
   27SAPC  H15B 3543   4.404   4.187   6.674  0.5108  0.6010  1.2911
   27SAPC  H15C 3544   4.251   4.274   6.712 -3.2063 -2.4422 -3.2428
   27SAPC   C11 3545   4.443   4.482   6.834  0.1599 -0.7445  0.3289
   27SAPC  H11A 3546   4.350   4.542   6.836  0.4153 -0.2959 -0.6264
   27SAPC  H11B 3547   4.525   4.547   6.870 -0.9416  2.1610 -2.0066
   27SAPC     P 3548   4.467   4.347   7.051 -0.1044  0.2819 -0.2174
   27SAPC   O13 3549   4.613   4.328   7.070 -0.1386 -0.2576  0.1511
   27SAPC   O14 3550   4.406   4.468   7.107  0.0943 -0.0240 -0.8114
   27SAPC   O12 3551   4.431   4.359   6.899 -0.0367 -0.3149  0.7956
   27SAPC   O11 3552   4.381   4.222   7.095 -0.1379  0.5633  0.0239
   27SAPC    C1 3553   4.343   4.109   7.014 -0.3986 -0.4612  0.0270
   27SAPC    HA 3554   4.323   4.146   6.911 -1.2556 -1.0095 -0.0120
   27SAPC    HB 3555   4.433   4.044   7.009 -0.9165 -1.2682  0.9523
   27SAPC    C2 3556   4.220   4.043   7.078  0.2772  0.2617 -0.3848
   27SAPC    HS 3557   4.135   4.114   7.072 -0.3856 -0.3908  0.9443
   27SAPC   O21 3558   4.254   4.002   7.211 -0.3340  0.2027 -0.4243
   27SAPC   C21 3559   4.214   4.080   7.306  0.4029  0.4582  0.0373
   27SAPC   O22 3560   4.143   4.178   7.299  0.2252  0.8188  0.1382
   27SAPC   C22 3561   4.282   4.034   7.433  0.0398  0.2911  0.2234
   27SAPC   H2R 3562   4.237   3.935   7.454 -3.5206  1.4013 -1.3001
   27SAPC   H2S 3563   4.392   4.033   7.415 -0.1847 -0.7434 -1.2993
   27SAPC    C3 3564   4.191   3.912   7.006  0.3317  0.0613  0.1580
   27SAPC    HX 3565   4.278   3.847   7.030  0.7159  0.4236 -0.2461
   27SAPC    HY 3566   4.179   3.920   6.896 -0.1111 -0.9842  0.1144
   27SAPC   O31 3567   4.070   3.852   7.056  0.2234 -0.0842  0.2893
   27SAPC   C31 3568   4.045   3.734   7.020  0.5699 -0.2179  0.3555
   27SAPC   O32 3569   4.102   3.667   6.932  0.5454 -0.5586 -0.0061
   27SAPC   C32 3570   3.930   3.685   7.109  0.3740  0.1928 -0.0581
   27SAPC   H2X 3571   3.898   3.590   7.061  1.1240 -0.7565  1.2374
   27SAPC   H2Y 3572   3.849   3.759   7.095 -0.7757 -1.3072 -1.7255
   27SAPC   C23 3573   4.254   4.120   7.552  0.1930 -0.4656 -0.4892
   27SAPC   H3R 3574   4.150   4.143   7.584  0.6597 -1.1630  1.6962
   27SAPC   H3S 3575   4.310   4.212   7.524  0.3899 -0.5683 -0.4347
   27SAPC   C24 3576   4.319   4.064   7.681 -0.1208  0.2278 -0.0283
   27SAPC   H4R 3577   4.405   4.004   7.645  0.7644  1.9607 -0.9013
   27SAPC   H4S 3578   4.250   3.995   7.735  0.1878 -0.0499  0.0100
   27SAPC   C25 3579   4.361   4.168   7.772 -0.9009 -0.0496 -0.1721
   27SAPC   H5R 3580   4.412   4.249   7.718 -1.2670 -1.7415 -3.2615
   27SAPC   C26 3581   4.337   4.175   7.906  0.1753 -0.1695 -0.0204
   27SAPC   H6R 3582   4.390   4.253   7.963  1.5452 -0.0766 -1.3555
   27SAPC   C27 3583   4.257   4.080   7.990  0.0447  0.5288  0.2117
   27SAPC   H7R 3584   4.183   4.029   7.924 -1.1121  1.6528  0.5995
   27SAPC   H7S 3585   4.189   4.133   8.060 -0.4432  0.1473  0.0400
   27SAPC   C28 3586   4.329   3.955   8.056  0.2020 -0.2168 -0.5597
   27SAPC   H8R 3587   4.303   3.866   7.996 -1.4347  0.0295 -0.2541
   27SAPC   C29 3588   4.389   3.953   8.178 -0.6196 -0.1860  0.7342
   27SAPC   H9R 3589   4.441   3.862   8.213 -0.5420 -1.0941 -1.5929
   27SAPC  C210 3590   4.411   4.069   8.268  0.3800  0.8520  0.0121
   27SAPC  H10R 3591   4.308   4.104   8.293 -0.2840 -1.2289  0.4825
   27SAPC  H10S 3592   4.468   4.148   8.216 -0.1755  2.3072  1.5206
   27SAPC  C211 3593   4.478   4.026   8.399  0.5673 -0.0472  0.1413
   27SAPC  H11R 3594   4.482   3.920   8.427  1.9507 -0.3613 -1.0811
   27SAPC  C212 3595   4.535   4.107   8.488  0.2731 -0.4113 -0.3678
   27SAPC  H12R 3596   4.593   4.063   8.571  0.5707  0.9648  0.1722
   27SAPC  C213 3597   4.534   4.264   8.482 -0.5857  0.8029  0.7096
   27SAPC  H13R 3598   4.520   4.291   8.375 -0.6360 -0.2321  0.4474
   27SAPC  H13S 3599   4.635   4.308   8.499 -1.3571  3.5579 -1.2310
   27SAPC  C214 3600   4.419   4.338   8.549  0.4402 -0.5688  0.8390
   27SAPC  H14R 3601   4.334   4.371   8.487  1.8591  0.5132 -0.5999
   27SAPC  C215 3602   4.430   4.360   8.683  0.0781  0.4444  0.0535
   27SAPC  H15R 3603   4.362   4.429   8.736  0.0009 -0.7755  1.5910
   27SAPC  C216 3604   4.539   4.319   8.778 -0.1060 -0.7871  0.0069
   27SAPC  H16R 3605   4.610   4.250   8.728  1.6433  0.3176  0.8465
   27SAPC  H16S 3606   4.495   4.257   8.859  0.5099 -2.4256 -0.8709
   27SAPC  C217 3607   4.611   4.430   8.860 -0.5559 -0.5847 -0.0169
   27SAPC  H17R 3608   4.677   4.377   8.932  1.0766  0.9992 -0.2677
   27SAPC  H17S 3609   4.530   4.488   8.909  1.2170  1.4185  0.7351
   27SAPC  C218 3610   4.688   4.526   8.763 -0.1493 -0.4831 -0.1607
   27SAPC  H18R 3611   4.612   4.571   8.697 -0.8163  0.8198  1.4346
   27SAPC  H18S 3612   4.754   4.465   8.697 -0.1949 -0.2858 -0.3887
   27SAPC  C219 3613   4.770   4.632   8.835  0.8035 -0.1261  0.8248
   27SAPC  H19R 3614   4.824   4.603   8.928  0.8496  3.7667  2.2249
   27SAPC  H19S 3615   4.686   4.695   8.871 -1.4592 -1.8386 -1.1573
   27SAPC  C220 3616   4.863   4.704   8.740  0.2305 -0.0547 -0.1324
   27SAPC  H20R 3617   4.808   4.741   8.652 -0.4757 -2.1934 -0.6508
   27SAPC  H20S 3618   4.937   4.636   8.693 -0.3916  0.6157 -2.1413
   27SAPC  H20T 3619   4.902   4.792   8.795 -4.3977  1.3956  1.2303
   27SAPC   C33 3620   3.964   3.655   7.256  0.0144  0.5986  0.0620
   27SAPC   H3X 3621   4.066   3.613   7.266 -0.0562  0.5437  0.5982
   27SAPC   H3Y 3622   3.899   3.573   7.295  1.1614 -1.5898 -2.3443
   27SAPC   C34 3623   3.936   3.772   7.341 -0.4674 -0.3271  0.6699
   27SAPC   H4X 3624   3.826   3.784   7.352 -0.5988  0.8128 -1.4108
   27SAPC   H4Y 3625   3.972   3.867   7.296 -0.8713 -0.0144  1.0039
   27SAPC   C35 3626   3.984   3.755   7.486  0.0383  0.0296  0.1577
   27SAPC   H5X 3627   4.093   3.742   7.500 -0.0283 -2.9673 -1.3853
   27SAPC   H5Y 3628   3.939   3.659   7.519  0.1747 -0.3873 -0.8367
   27SAPC   C36 3629   3.947   3.872   7.578  0.0284 -0.0180  0.0555
   27SAPC   H6X 3630   3.840   3.897   7.565  0.4537  2.8098  1.2497
   27SAPC   H6Y 3631   4.003   3.965   7.556 -1.8919  1.5255  1.3813
   27SAPC   C37 3632   3.959   3.838   7.735  0.1578  0.2390 -1.0612
   27SAPC   H7X 3633   4.068   3.851   7.755  0.0057 -1.5217  1.4867
   27SAPC   H7Y 3634   3.922   3.738   7.766  1.4958  0.0599  0.0975
   27SAPC   C38 3635   3.876   3.945   7.822 -0.2118 -0.3627  0.6155
   27SAPC   H8X 3636   3.772   3.942   7.784  0.0200 -1.0612 -0.0006
   27SAPC   H8Y 3637   3.920   4.045   7.804 -0.7191 -0.3977 -0.9615
   27SAPC   C39 3638   3.881   3.912   7.972  0.9435 -0.6016  0.0388
   27SAPC   H9X 3639   3.978   3.859   7.983  2.8260  2.1577 -1.9828
   27SAPC   H9Y 3640   3.788   3.854   7.988 -0.8588  1.6496 -1.7870
   27SAPC  C310 3641   3.853   4.036   8.061 -0.0065  0.8886  0.2159
   27SAPC  H10X 3642   3.747   4.069   8.053 -0.9733 -2.1171 -1.0986
   27SAPC  H10Y 3643   3.933   4.112   8.053  2.1489 -0.8854  2.8718
   27SAPC  C311 3644   3.863   3.978   8.210  0.1857 -0.0858  0.1743
   27SAPC  H11X 3645   3.952   3.928   8.255 -0.1736 -0.5568  0.3674
   27SAPC  H11Y 3646   3.795   3.891   8.209 -0.3530  0.3106  0.9555
   27SAPC  C312 3647   3.816   4.079   8.308 -0.4747  0.3544 -0.1346
   27SAPC  H12X 3648   3.710   4.093   8.278 -0.0050 -0.1121 -2.1211
   27SAPC  H12Y 3649   3.878   4.171   8.298  1.3721 -0.6495  1.3901
   27SAPC  C313 3650   3.811   4.024   8.453 -0.5439  0.3282 -0.3788
   27SAPC  H13X 3651   3.908   3.976   8.477 -0.5607  0.2225 -0.5190
   27SAPC  H13Y 3652   3.737   3.941   8.461 -0.9628  0.7581  0.2820
   27SAPC  C314 3653   3.765   4.129   8.557 -0.6501 -0.2025  0.3091
   27SAPC  H14X 3654   3.715   4.082   8.644 -2.6074 -0.4753 -0.8996
   27SAPC  H14Y 3655   3.682   4.188   8.514  0.0594  0.8623  0.3661
   27SAPC  C315 3656   3.874   4.232   8.600 -0.1640  0.1406 -0.1464
   27SAPC  H15X 3657   3.826   4.327   8.632 -0.6219 -0.7120  1.8327
   27SAPC  H15Y 3658   3.939   4.249   8.511  0.4806  0.4985  0.3856
   27SAPC  C316 3659   3.962   4.190   8.717  0.9886 -0.3853  0.2712
   27SAPC  H16X 3660   3.915   4.104   8.769  0.4503 -0.1423  0.1943
   27SAPC  H16Y 3661   3.970   4.266   8.798 -1.4871 -0.8643  1.0538
   27SAPC  C317 3662   4.103   4.144   8.673 -0.4153  0.4218  0.1588
   27SAPC  H17X 3663   4.123   4.222   8.596 -1.9196  0.2022 -0.4907
   27SAPC  H17Y 3664   4.086   4.047   8.623  0.1059  0.3845  0.0487
   27SAPC  C318 3665   4.208   4.145   8.784  0.3496  0.2990 -0.2421
   27SAPC  H18X 3666   4.204   4.241   8.839 -5.1035 -0.2161  0.8790
   27SAPC  H18Y 3667   4.309   4.117   8.747  0.8195  0.0210  1.1771
   27SAPC  H18Z 3668   4.180   4.067   8.858 -0.4538  0.2480 -0.5952
   28SAPC     N 3669   5.765   1.363   6.419  0.2687 -0.5729 -0.2620
   28SAPC   C12 3670   5.913   1.360   6.417 -0.0771  0.0940 -0.5560
   28SAPC  H12A 3671   5.949   1.424   6.337 -1.7239  4.1638  1.6619
   28SAPC  H12B 3672   5.948   1.260   6.397  0.5760 -0.0632  1.1880
   28SAPC   C13 3673   5.721   1.300   6.292  0.0545 -0.0264 -0.1764
   28SAPC  H13A 3674   5.750   1.196   6.291 -2.7561 -0.8916 -1.6947
   28SAPC  H13B 3675   5.614   1.289   6.285 -0.0199 -0.5877  1.3274
   28SAPC  H13C 3676   5.751   1.355   6.204 -0.9216  1.3720  0.3172
   28SAPC   C14 3677   5.706   1.284   6.535 -0.2379  1.0769  0.2677
   28SAPC  H14A 3678   5.599   1.275   6.534 -0.1178 -0.7751 -0.7585
   28SAPC  H14B 3679   5.728   1.178   6.536 -0.1352  1.0870 -0.2453
   28SAPC  H14C 3680   5.733   1.338   6.624 -0.3389  2.1653 -0.3365
   28SAPC   C15 3681   5.700   1.492   6.411 -0.0057 -0.6665 -0.8313
   28SAPC  H15A 3682   5.593   1.485   6.413 -0.0676 -1.3641 -3.4669
   28SAPC  H15B 3683   5.739   1.551   6.493 -1.4833 -0.8397  0.0174
   28SAPC  H15C 3684   5.719   1.539   6.316 -1.5455 -1.8551 -1.7614
   28SAPC   C11 3685   6.011   1.410   6.532 -0.5220 -0.4423 -0.2185
   28SAPC  H11A 3686   6.113   1.377   6.505 -0.8663 -1.7771  0.0233
   28SAPC  H11B 3687   5.989   1.358   6.628 -0.6113 -1.4266 -0.7541
   28SAPC     P 3688   6.071   1.656   6.471 -0.2702 -0.4281 -0.1918
   28SAPC   O13 3689   6.130   1.598   6.347  0.1353  0.5484  0.4519
   28SAPC   O14 3690   5.962   1.753   6.441 -0.4796  0.4129 -0.7123
   28SAPC   O12 3691   6.012   1.546   6.568 -0.4297  0.0753  0.2246
   28SAPC   O11 3692   6.182   1.723   6.563  0.3896 -0.1185  0.0247
   28SAPC    C1 3693   6.152   1.825   6.659  0.2583 -0.1015 -0.2197
   28SAPC    HA 3694   6.074   1.897   6.626 -2.0312 -3.4503 -2.8670
   28SAPC    HB 3695   6.117   1.779   6.754  0.0433  3.6930  1.7194
   28SAPC    C2 3696   6.279   1.913   6.698  0.2778  0.1369 -0.4074
   28SAPC    HS 3697   6.339   1.939   6.609  1.6805 -1.2685  0.0873
   28SAPC   O21 3698   6.352   1.816   6.781  0.2685 -0.2654 -0.3726
   28SAPC   C21 3699   6.476   1.850   6.809  0.3208 -0.1155 -0.4744
   28SAPC   O22 3700   6.524   1.960   6.781  0.0660 -0.0237 -0.2471
   28SAPC   C22 3701   6.551   1.733   6.874  0.2890 -0.2301 -0.4814
   28SAPC   H2R 3702   6.496   1.697   6.964 -0.7811  1.5156 -0.3908
   28SAPC   H2S 3703   6.557   1.655   6.795 -0.2466 -0.2453 -0.5080
   28SAPC    C3 3704   6.240   2.054   6.765 -0.0335 -0.0619  0.3475
   28SAPC    HX 3705   6.171   2.103   6.693  0.5868 -0.1470 -0.3113
   28SAPC    HY 3706   6.329   2.120   6.773  1.6035 -2.3863  3.0288
   28SAPC   O31 3707   6.172   2.033   6.889 -0.8790  0.3834  0.0348
   28SAPC   C31 3708   6.155   2.150   6.945  0.1164 -0.2596  0.0339
   28SAPC   O32 3709   6.160   2.258   6.889  0.6621 -0.7678 -0.0918
   28SAPC   C32 3710   6.112   2.132   7.093 -0.8948 -0.2927  0.8784
   28SAPC   H2X 3711   6.170   2.048   7.137  1.3821  0.0844 -1.1539
   28SAPC   H2Y 3712   6.012   2.083   7.094 -0.5357 -1.0399  1.1534
   28SAPC   C23 3713   6.689   1.773   6.927 -0.4778 -0.1169 -0.1010
   28SAPC   H3R 3714   6.758   1.820   6.854 -1.4903  0.8704 -0.4511
   28SAPC   H3S 3715   6.739   1.683   6.970  0.0828  0.8262  1.3270
   28SAPC   C24 3716   6.670   1.858   7.053  0.1640 -0.9279 -0.0222
   28SAPC   H4R 3717   6.630   1.961   7.036  1.0031  0.4990  4.9851
   28SAPC   H4S 3718   6.604   1.795   7.117  0.3781 -2.8996 -1.6541
   28SAPC   C25 3719   6.796   1.877   7.135  0.1221 -0.7665 -0.2452
   28SAPC   H5R 3720   6.886   1.892   7.073  1.5624  1.6382  2.2496
   28SAPC   C26 3721   6.809   1.852   7.268 -0.3283 -0.7378  0.0441
   28SAPC   H6R 3722   6.911   1.868   7.306 -1.3688  1.2159  2.2464
   28SAPC   C27 3723   6.711   1.803   7.370 -0.0849 -0.2477 -0.2240
   28SAPC   H7R 3724   6.750   1.703   7.397  0.8376 -0.5369 -2.3834
   28SAPC   H7S 3725   6.610   1.787   7.326 -0.3867  0.0731  0.3436
   28SAPC   C28 3726   6.704   1.897   7.485 -0.8353 -0.7924 -0.0493
   28SAPC   H8R 3727   6.660   1.995   7.459  2.0258  1.0885  1.6378
   28SAPC   C29 3728   6.751   1.876   7.604  0.3003  0.2143  0.1235
   28SAPC   H9R 3729   6.740   1.960   7.673  0.8921  0.3317  0.0826
   28SAPC  C210 3730   6.816   1.748   7.659  0.4161 -0.4847 -0.1644
   28SAPC  H10R 3731   6.920   1.773   7.689  0.1497  1.2694 -0.5849
   28SAPC  H10S 3732   6.834   1.679   7.574  2.5705 -1.3943  0.9353
   28SAPC  C211 3733   6.730   1.677   7.763 -0.1628  0.2839 -0.1728
   28SAPC  H11R 3734   6.642   1.732   7.800  0.3895 -1.2402  3.9129
   28SAPC  C212 3735   6.757   1.551   7.800  0.2784  0.8539  0.3550
   28SAPC  H12R 3736   6.687   1.492   7.860 -2.4240  1.1515 -2.2463
   28SAPC  C213 3737   6.875   1.481   7.749  0.3174  0.6087  0.2910
   28SAPC  H13R 3738   6.966   1.539   7.777 -1.7312  3.3431  1.8022
   28SAPC  H13S 3739   6.876   1.469   7.638 -0.7210 -3.1266  0.5661
   28SAPC  C214 3740   6.880   1.352   7.825 -0.3074  0.3682 -0.6696
   28SAPC  H14R 3741   6.883   1.374   7.933  2.4764 -1.8362 -0.1729
   28SAPC  C215 3742   6.884   1.222   7.780 -1.0114  0.0560 -0.2202
   28SAPC  H15R 3743   6.915   1.143   7.851 -0.2692 -1.8672 -2.5416
   28SAPC  C216 3744   6.891   1.192   7.634  0.2456  0.1598 -0.6433
   28SAPC  H16R 3745   6.872   1.278   7.566  0.0176 -1.5749 -2.8919
   28SAPC  H16S 3746   6.809   1.120   7.616  0.7836 -0.6979  0.2264
   28SAPC  C217 3747   7.019   1.122   7.587 -0.1444  0.2894 -0.7398
   28SAPC  H17R 3748   7.061   1.047   7.657 -1.0840 -1.0510 -1.5762
   28SAPC  H17S 3749   7.095   1.201   7.568 -0.2148  0.2971 -0.9815
   28SAPC  C218 3750   7.013   1.041   7.463  0.8957 -0.0151  0.3017
   28SAPC  H18R 3751   6.922   0.977   7.458  1.0750 -0.2340 -0.1976
   28SAPC  H18S 3752   7.107   0.982   7.460  2.1020  1.8038  0.7042
   28SAPC  C219 3753   7.014   1.125   7.335  0.0226 -0.1582 -0.1389
   28SAPC  H19R 3754   7.115   1.172   7.337 -0.1668  0.2307  0.4122
   28SAPC  H19S 3755   6.939   1.206   7.339 -0.5593 -0.7383  2.5437
   28SAPC  C220 3756   6.999   1.037   7.210 -0.2922  0.6323 -0.1942
   28SAPC  H20R 3757   7.084   0.966   7.204 -3.2214 -3.6242  2.6835
   28SAPC  H20S 3758   6.995   1.103   7.121 -0.7506  1.0729  0.1469
   28SAPC  H20T 3759   6.904   0.978   7.213 -1.0164  1.6385 -2.0857
   28SAPC   C33 3760   6.130   2.264   7.176 -0.1073  0.7361 -0.0083
   28SAPC   H3X 3761   6.054   2.340   7.147 -1.0432  0.7369  2.2526
   28SAPC   H3Y 3762   6.236   2.284   7.150  0.4638 -0.5149  1.2352
   28SAPC   C34 3763   6.120   2.232   7.325 -0.7151 -0.6530  0.6584
   28SAPC   H4X 3764   6.189   2.148   7.345 -1.8170 -1.1064  2.9465
   28SAPC   H4Y 3765   6.017   2.208   7.361 -2.3431  2.8287 -1.1466
   28SAPC   C35 3766   6.154   2.351   7.409  0.1001 -0.6868 -0.5534
   28SAPC   H5X 3767   6.083   2.430   7.375  0.1501  0.8266  2.5070
   28SAPC   H5Y 3768   6.257   2.382   7.382 -0.1703 -0.8714 -1.8790
   28SAPC   C36 3769   6.134   2.336   7.561 -0.3500 -0.3873 -0.0683
   28SAPC   H6X 3770   6.187   2.246   7.599 -0.0511 -1.7058 -3.2671
   28SAPC   H6Y 3771   6.029   2.323   7.594  0.7937 -0.2193  4.1974
   28SAPC   C37 3772   6.184   2.452   7.648  0.1408  0.4116  0.0214
   28SAPC   H7X 3773   6.152   2.551   7.608 -1.0127  0.5706  1.2665
   28SAPC   H7Y 3774   6.295   2.448   7.654  0.0631  0.4442  2.2797
   28SAPC   C38 3775   6.140   2.446   7.794  0.3570 -0.6109  0.5851
   28SAPC   H8X 3776   6.159   2.348   7.842  0.9940 -0.4055  0.7674
   28SAPC   H8Y 3777   6.031   2.461   7.802 -0.0213 -2.2039 -0.9860
   28SAPC   C39 3778   6.217   2.542   7.885 -1.5453 -0.0165  0.0837
   28SAPC   H9X 3779   6.180   2.643   7.856 -2.4243  0.0339  1.2823
   28SAPC   H9Y 3780   6.327   2.542   7.870 -1.7857 -0.3408 -2.0287
   28SAPC  C310 3781   6.178   2.526   8.030 -0.2582  0.7100 -0.7327
   28SAPC  H10X 3782   6.067   2.527   8.022 -0.3322 -1.5571 -0.7989
   28SAPC  H10Y 3783   6.198   2.614   8.095 -0.6919  0.1854  0.1373
   28SAPC  C311 3784   6.222   2.397   8.101 -0.1547  0.0690  0.4557
   28SAPC  H11X 3785   6.332   2.389   8.087 -0.3368  0.0342 -1.1630
   28SAPC  H11Y 3786   6.175   2.305   8.060  0.4223 -0.6356  1.3356
   28SAPC  C312 3787   6.185   2.395   8.253 -0.0964 -0.1840  0.2688
   28SAPC  H12X 3788   6.078   2.366   8.260  0.5034 -2.1490  3.6828
   28SAPC  H12Y 3789   6.202   2.500   8.286 -1.3410 -0.5243  2.2194
   28SAPC  C313 3790   6.247   2.284   8.339 -0.4241  0.0638 -0.2259
   28SAPC  H13X 3791   6.242   2.301   8.449 -0.3216  1.8443 -0.4773
   28SAPC  H13Y 3792   6.355   2.270   8.313  0.2389  0.9104  1.8687
   28SAPC  C314 3793   6.178   2.151   8.322  0.1931 -0.4880 -0.0038
   28SAPC  H14X 3794   6.179   2.141   8.211  0.8010  0.3344 -0.0847
   28SAPC  H14Y 3795   6.073   2.175   8.351 -0.3904 -2.0790 -0.6706
   28SAPC  C315 3796   6.233   2.043   8.411  0.5080  1.1124 -0.4401
   28SAPC  H15X 3797   6.343   2.056   8.421  0.3553  2.1108  0.0426
   28SAPC  H15Y 3798   6.218   1.939   8.374 -2.1032  1.5066 -0.6704
   28SAPC  C316 3799   6.166   2.034   8.549 -0.6548  0.7449  0.5738
   28SAPC  H16X 3800   6.058   2.029   8.527 -0.9086  0.4724  1.8308
   28SAPC  H16Y 3801   6.181   2.126   8.610  1.0719  1.1332 -0.3529
   28SAPC  C317 3802   6.213   1.912   8.620  0.2360 -0.4919  0.1753
   28SAPC  H17X 3803   6.319   1.919   8.651  0.8186  0.0782 -1.7699
   28SAPC  H17Y 3804   6.197   1.821   8.559  1.4825  0.8369 -2.2976
   28SAPC  C318 3805   6.124   1.898   8.741  0.0946  0.1567 -0.0138
   28SAPC  H18X 3806   6.176   1.839   8.819  1.5456 -0.4250 -1.3566
   28SAPC  H18Y 3807   6.033   1.843   8.711 -1.0760  2.2917 -0.5730
   28SAPC  H18Z 3808   6.086   1.995   8.778  0.6368  2.0112 -3.7817
   29SAPC     N 3809   5.715   5.606   6.355 -0.5648 -0.2209 -0.0650
   29SAPC   C12 3810   5.770   5.467   6.324  0.5788  0.5472  0.1097
   29SAPC  H12A 3811   5.805   5.428   6.418  0.3467  0.3461  0.1125
   29SAPC  H12B 3812   5.859   5.473   6.261  0.6386 -0.7030  0.0567
   29SAPC   C13 3813   5.804   5.685   6.448 -0.1373  0.4588 -0.1717
   29SAPC  H13A 3814   5.773   5.786   6.472  0.2743  0.6521 -0.4380
   29SAPC  H13B 3815   5.825   5.623   6.533  0.3304 -1.0231 -1.3309
   29SAPC  H13C 3816   5.903   5.702   6.410  0.2419  0.8972  0.9958
   29SAPC   C14 3817   5.697   5.686   6.236 -0.3819 -0.0316  0.3323
   29SAPC  H14A 3818   5.655   5.624   6.159 -0.2456 -2.0196  1.7775
   29SAPC  H14B 3819   5.621   5.759   6.260 -0.3830  0.6012 -1.4430
   29SAPC  H14C 3820   5.783   5.741   6.200 -1.8983  2.3817  0.1411
   29SAPC   C15 3821   5.586   5.581   6.434  0.8720 -0.2469  0.3575
   29SAPC  H15A 3822   5.596   5.531   6.529 -1.9290 -2.4121 -0.3206
   29SAPC  H15B 3823   5.533   5.671   6.459  0.2082  0.1567 -2.2212
   29SAPC  H15C 3824   5.531   5.515   6.367  1.6848  0.2328 -0.8187
   29SAPC   C11 3825   5.686   5.356   6.251 -0.5586  0.3995 -0.8379
   29SAPC  H11A 3826   5.670   5.378   6.143  2.5158 -0.5111 -1.5745
   29SAPC  H11B 3827   5.581   5.343   6.286 -0.3127  0.5075 -0.0533
   29SAPC     P 3828   5.757   5.151   6.408  0.0087 -0.2008  0.1194
   29SAPC   O13 3829   5.618   5.110   6.435  0.2257 -0.0779  0.5158
   29SAPC   O14 3830   5.854   5.039   6.401  0.2565  0.3092  0.5050
   29SAPC   O12 3831   5.763   5.232   6.273 -0.1503  0.0759 -0.2272
   29SAPC   O11 3832   5.805   5.251   6.522  0.1454  0.4753 -0.3179
   29SAPC    C1 3833   5.906   5.220   6.617 -0.8096 -0.3527  0.1025
   29SAPC    HA 3834   5.985   5.162   6.563 -0.4835 -0.9183  1.1507
   29SAPC    HB 3835   5.946   5.317   6.651 -2.5541 -0.4693  2.7286
   29SAPC    C2 3836   5.856   5.130   6.737  0.5288 -0.1106  0.0679
   29SAPC    HS 3837   5.829   5.034   6.689  1.2636 -0.3765  0.1896
   29SAPC   O21 3838   5.751   5.194   6.809  0.4226  0.2325 -0.0385
   29SAPC   C21 3839   5.654   5.116   6.851  0.3899 -0.6083  0.2147
   29SAPC   O22 3840   5.622   5.006   6.812  0.0902 -0.2684  0.4010
   29SAPC   C22 3841   5.580   5.200   6.961  0.2666  0.0705  0.4679
   29SAPC   H2R 3842   5.651   5.233   7.040 -0.3167  0.2717  0.9189
   29SAPC   H2S 3843   5.550   5.290   6.903 -1.3555  0.4876  1.8775
   29SAPC    C3 3844   5.972   5.092   6.833 -0.2507 -0.5270  0.3075
   29SAPC    HX 3845   6.036   5.180   6.857 -0.4266 -0.6571  1.2848
   29SAPC    HY 3846   6.051   5.037   6.777  0.4314  0.1837  0.5487
   29SAPC   O31 3847   5.931   5.032   6.957 -0.7190 -0.4913  0.0535
   29SAPC   C31 3848   5.911   4.904   6.944 -0.4284  0.3255 -0.6051
   29SAPC   O32 3849   5.935   4.838   6.846 -0.0184  0.9124 -0.1672
   29SAPC   C32 3850   5.852   4.847   7.078 -0.5541  0.3522  0.3816
   29SAPC   H2X 3851   5.888   4.743   7.097 -2.9055 -0.4337  0.8797
   29SAPC   H2Y 3852   5.742   4.846   7.061 -0.7755  0.5709  1.7054
   29SAPC   C23 3853   5.446   5.135   7.009 -0.1426 -0.1181  0.2201
   29SAPC   H3R 3854   5.393   5.090   6.922 -2.5258  1.1149  0.9307
   29SAPC   H3S 3855   5.377   5.214   7.048 -0.3232  0.1990 -0.7155
   29SAPC   C24 3856   5.461   5.017   7.107 -0.0368 -0.2092 -0.8971
   29SAPC   H4R 3857   5.533   5.060   7.179 -1.1967 -1.9743  1.4832
   29SAPC   H4S 3858   5.507   4.921   7.075 -0.2017 -0.5580 -0.1260
   29SAPC   C25 3859   5.335   4.975   7.180  0.2926  0.8430  0.3123
   29SAPC   H5R 3860   5.273   4.898   7.132  1.9635 -0.4257  0.0986
   29SAPC   C26 3861   5.294   5.027   7.300  0.4399 -0.1969 -0.2819
   29SAPC   H6R 3862   5.196   4.988   7.329  1.1051 -1.4399  0.3861
   29SAPC   C27 3863   5.353   5.134   7.384  0.6265  0.0469 -0.1310
   29SAPC   H7R 3864   5.413   5.197   7.315  1.1146  1.4363  1.5062
   29SAPC   H7S 3865   5.433   5.093   7.450 -0.9304  0.5580  2.1735
   29SAPC   C28 3866   5.254   5.219   7.475 -0.1119  0.5462  0.1116
   29SAPC   H8R 3867   5.192   5.294   7.423 -1.3947  1.1588  2.3694
   29SAPC   C29 3868   5.238   5.209   7.607  0.8146 -0.3578  0.0710
   29SAPC   H9R 3869   5.162   5.272   7.656  0.2917  0.7401 -2.0352
   29SAPC  C210 3870   5.312   5.106   7.692  0.1085 -0.1963 -0.8351
   29SAPC  H10R 3871   5.406   5.144   7.736 -0.6125  0.9907 -0.2608
   29SAPC  H10S 3872   5.348   5.019   7.633  3.5326  0.0064  0.7287
   29SAPC  C211 3873   5.222   5.055   7.802  0.1799 -0.0628  0.2675
   29SAPC  H11R 3874   5.150   4.975   7.781 -0.5279  0.8710 -1.0175
   29SAPC  C212 3875   5.221   5.112   7.920  0.3515  0.2419  0.4826
   29SAPC  H12R 3876   5.145   5.082   7.994  1.5171  0.6158  1.8805
   29SAPC  C213 3877   5.309   5.217   7.973 -0.9814 -0.5627  0.5061
   29SAPC  H13R 3878   5.252   5.298   8.024 -0.5310 -1.1024  1.9317
   29SAPC  H13S 3879   5.342   5.281   7.888  0.2621 -2.9765 -0.9554
   29SAPC  C214 3880   5.428   5.184   8.059  0.0487  0.1067 -0.6863
   29SAPC  H14R 3881   5.464   5.080   8.061 -0.1541  0.0365  0.6675
   29SAPC  C215 3882   5.507   5.272   8.126 -0.6229  0.5714 -0.0899
   29SAPC  H15R 3883   5.576   5.235   8.204  0.9272  2.1523 -0.6545
   29SAPC  C216 3884   5.486   5.422   8.119  0.3472 -1.0798 -0.0371
   29SAPC  H16R 3885   5.446   5.465   8.025  1.3905 -0.6681 -0.3170
   29SAPC  H16S 3886   5.586   5.471   8.126  0.0057 -0.5276  1.5089
   29SAPC  C217 3887   5.398   5.458   8.239  0.0809  0.0129 -0.3188
   29SAPC  H17R 3888   5.431   5.399   8.328 -1.3033  2.3232  1.8521
   29SAPC  H17S 3889   5.296   5.417   8.226 -0.8462  2.6846 -2.3316
   29SAPC  C218 3890   5.388   5.609   8.268  0.0056  0.3723 -0.5463
   29SAPC  H18R 3891   5.359   5.659   8.173 -0.6955 -0.1069 -0.5892
   29SAPC  H18S 3892   5.494   5.640   8.282 -0.1308  0.2033  1.0750
   29SAPC  C219 3893   5.292   5.643   8.381  0.6780  0.5782 -0.2011
   29SAPC  H19R 3894   5.330   5.591   8.471  1.9203  0.3919 -0.8140
   29SAPC  H19S 3895   5.191   5.610   8.349  1.1032 -0.3593 -0.6311
   29SAPC  C220 3896   5.285   5.789   8.407  0.4972  0.5493  0.4913
   29SAPC  H20R 3897   5.266   5.851   8.317 -0.7829 -0.8372 -0.2549
   29SAPC  H20S 3898   5.384   5.814   8.451  1.6180 -0.9303 -1.0294
   29SAPC  H20T 3899   5.207   5.807   8.484 -2.2315 -1.2384 -1.6247
   29SAPC   C33 3900   5.885   4.944   7.191 -0.1579  0.6436  0.4325
   29SAPC   H3X 3901   5.834   5.041   7.178  0.3534  1.0547  1.3803
   29SAPC   H3Y 3902   5.994   4.961   7.181 -0.2748  0.7574 -0.7956
   29SAPC   C34 3903   5.843   4.900   7.332 -0.2959  0.9072 -0.0824
   29SAPC   H4X 3904   5.883   4.971   7.406  0.6450  1.5046 -1.1334
   29SAPC   H4Y 3905   5.890   4.802   7.358 -1.0198 -0.4347 -3.2707
   29SAPC   C35 3906   5.691   4.896   7.354 -0.3559  0.2558  0.0438
   29SAPC   H5X 3907   5.638   4.860   7.263 -0.7359 -2.4488  1.2447
   29SAPC   H5Y 3908   5.661   5.003   7.368  0.8669  0.9334 -2.0909
   29SAPC   C36 3909   5.649   4.812   7.480  0.2970 -0.3840 -0.0545
   29SAPC   H6X 3910   5.692   4.709   7.472 -2.8907 -1.9932  1.6276
   29SAPC   H6Y 3911   5.538   4.816   7.475  0.0872 -3.0453  0.5554
   29SAPC   C37 3912   5.682   4.882   7.612  0.2768 -0.4526  0.1539
   29SAPC   H7X 3913   5.653   4.986   7.588 -0.6979  0.5607  4.8481
   29SAPC   H7Y 3914   5.790   4.870   7.633  0.6145  1.4988 -0.3064
   29SAPC   C38 3915   5.597   4.841   7.736 -0.2796  0.0013  0.3338
   29SAPC   H8X 3916   5.611   4.736   7.770 -0.9801 -0.3269 -0.3595
   29SAPC   H8Y 3917   5.492   4.849   7.702 -0.6429 -1.0424  1.1964
   29SAPC   C39 3918   5.612   4.935   7.855 -1.1920 -0.1402  0.4994
   29SAPC   H9X 3919   5.550   4.892   7.937  0.9449 -3.3326  0.5989
   29SAPC   H9Y 3920   5.589   5.040   7.827  0.1243 -0.5073 -2.2821
   29SAPC  C310 3921   5.758   4.943   7.908  0.4325  0.2193  0.0690
   29SAPC  H10X 3922   5.833   4.974   7.832  0.4478  1.4574  0.5614
   29SAPC  H10Y 3923   5.775   4.841   7.946 -1.7456 -0.3248 -0.2593
   29SAPC  C311 3924   5.778   5.036   8.026 -0.0741  0.2232 -0.3429
   29SAPC  H11X 3925   5.707   5.002   8.104  0.3071  0.5276  0.1382
   29SAPC  H11Y 3926   5.729   5.132   7.996 -1.5818 -0.2836  0.4130
   29SAPC  C312 3927   5.923   5.041   8.091  0.2332 -0.5755  0.5592
   29SAPC  H12X 3928   5.915   5.123   8.165  0.2146 -0.6728  0.6664
   29SAPC  H12Y 3929   6.003   5.070   8.019  0.7292 -0.6380  1.0789
   29SAPC  C313 3930   5.959   4.918   8.161  0.5546  0.3505  0.2220
   29SAPC  H13X 3931   5.991   4.848   8.081  1.0563  0.2844  0.4760
   29SAPC  H13Y 3932   5.882   4.878   8.230 -0.4730  1.2636 -0.3539
   29SAPC  C314 3933   6.085   4.941   8.248  0.3308 -0.2594 -0.2003
   29SAPC  H14X 3934   6.066   5.015   8.329 -0.5362 -0.2943 -0.3537
   29SAPC  H14Y 3935   6.162   4.984   8.181  2.8957 -3.1839  0.6554
   29SAPC  C315 3936   6.139   4.799   8.303  0.6355 -0.5129  0.6536
   29SAPC  H15X 3937   6.236   4.818   8.355  1.0552  0.7347 -0.5521
   29SAPC  H15Y 3938   6.172   4.736   8.218  1.3765 -0.1649  0.6743
   29SAPC  C316 3939   6.038   4.702   8.371  0.0940 -0.0670 -0.3196
   29SAPC  H16X 3940   5.960   4.677   8.296 -0.3505  0.7718 -0.1579
   29SAPC  H16Y 3941   5.991   4.754   8.457 -0.3623 -1.2808  0.1924
   29SAPC  C317 3942   6.111   4.587   8.427 -0.2920  0.9092  0.0838
   29SAPC  H17X 3943   6.198   4.616   8.489 -0.3071  3.6837 -1.0207
   29SAPC  H17Y 3944   6.147   4.539   8.333 -0.2628  0.6005  0.2517
   29SAPC  C318 3945   6.011   4.486   8.485  0.2600 -0.2114  0.5902
   29SAPC  H18X 3946   5.955   4.432   8.405  0.3821  0.7405 -0.1568
   29SAPC  H18Y 3947   5.935   4.540   8.544 -0.0638 -0.5357  0.4749
   29SAPC  H18Z 3948   6.061   4.412   8.552  0.3341  0.6548  1.5064
   30SAPC     N 3949   0.044   4.774   6.304 -0.3250  0.6741 -0.1037
   30SAPC   C12 3950   0.179   4.830   6.294  0.2249 -0.3382 -0.0355
   30SAPC  H12A 3951   0.233   4.811   6.386 -0.5923 -1.0835  0.2961
   30SAPC  H12B 3952   0.175   4.938   6.297 -0.6313 -0.3189 -1.3413
   30SAPC   C13 3953  -0.032   4.835   6.422  0.4175 -0.3676  0.4171
   30SAPC  H13A 3954  -0.137   4.807   6.415  0.4749 -0.2595 -1.1701
   30SAPC  H13B 3955   0.016   4.827   6.518 -1.6859  1.2329  1.7000
   30SAPC  H13C 3956  -0.044   4.940   6.403  3.1859 -0.2657 -1.3342
   30SAPC   C14 3957  -0.037   4.791   6.182  0.1867  0.4678 -0.0975
   30SAPC  H14A 3958  -0.027   4.892   6.143 -1.5364  1.1349  1.0654
   30SAPC  H14B 3959  -0.001   4.731   6.100 -2.2996 -0.8854 -0.2685
   30SAPC  H14C 3960  -0.137   4.753   6.195  0.5551 -0.2279  0.8304
   30SAPC   C15 3961   0.055   4.631   6.338  0.8932 -0.3203  0.0205
   30SAPC  H15A 3962  -0.041   4.588   6.317  0.3427  0.6975  0.3931
   30SAPC  H15B 3963   0.131   4.575   6.285  0.3467 -1.9430  0.9124
   30SAPC  H15C 3964   0.064   4.613   6.444 -0.9910 -0.7995  0.1256
   30SAPC   C11 3965   0.264   4.801   6.169 -0.6621  0.5784  0.8481
   30SAPC  H11A 3966   0.348   4.872   6.156 -0.8680  1.1573  2.4266
   30SAPC  H11B 3967   0.201   4.834   6.084  0.5058 -1.5958 -0.9347
   30SAPC     P 3968   0.425   4.606   6.243 -0.3770  0.4290 -0.0180
   30SAPC   O13 3969   0.403   4.464   6.279 -0.4436 -0.3314 -0.8869
   30SAPC   O14 3970   0.541   4.640   6.160  0.3864  0.2764  0.5071
   30SAPC   O12 3971   0.306   4.666   6.154  0.4223 -0.7039 -0.1613
   30SAPC   O11 3972   0.409   4.695   6.371  0.0235  0.4984  1.0499
   30SAPC    C1 3973   0.512   4.790   6.404  0.0798 -0.7855  0.2994
   30SAPC    HA 3974   0.581   4.811   6.320  0.8944 -2.5292  0.4898
   30SAPC    HB 3975   0.477   4.889   6.439 -0.4209 -0.4525 -1.1062
   30SAPC    C2 3976   0.582   4.724   6.526 -0.1731 -0.4389  0.2464
   30SAPC    HS 3977   0.657   4.654   6.485  0.8916  0.7307  0.1402
   30SAPC   O21 3978   0.481   4.673   6.619 -0.3510 -0.7453 -0.0413
   30SAPC   C21 3979   0.486   4.540   6.626  0.3863  0.0421 -0.0364
   30SAPC   O22 3980   0.565   4.464   6.566 -0.2536  0.4293 -0.2585
   30SAPC   C22 3981   0.396   4.497   6.736 -0.3539  0.1435 -0.7937
   30SAPC   H2R 3982   0.404   4.557   6.829  2.2893 -0.0125 -0.8651
   30SAPC   H2S 3983   0.294   4.513   6.693 -0.2631 -2.4670 -2.1477
   30SAPC    C3 3984   0.671   4.832   6.600  0.2619  0.5080  0.6112
   30SAPC    HX 3985   0.600   4.909   6.638  0.8468  2.1725 -1.4716
   30SAPC    HY 3986   0.727   4.866   6.510 -2.1321  2.8602 -0.1242
   30SAPC   O31 3987   0.753   4.767   6.696 -0.9391  0.4010  0.5294
   30SAPC   C31 3988   0.704   4.740   6.816 -0.4310 -0.0780  0.4757
   30SAPC   O32 3989   0.592   4.774   6.855  0.1710  0.3894  0.1614
   30SAPC   C32 3990   0.804   4.656   6.903 -0.3666  1.0548  0.0146
   30SAPC   H2X 3991   0.906   4.699   6.891 -0.1805  0.7986  0.6035
   30SAPC   H2Y 3992   0.818   4.552   6.867 -0.9098  0.6195  1.0084
   30SAPC   C23 3993   0.399   4.343   6.768 -0.2333 -0.3403 -0.1223
   30SAPC   H3R 3994   0.506   4.322   6.790 -0.2338  0.5716  0.7709
   30SAPC   H3S 3995   0.363   4.295   6.674  1.1380 -0.3997 -0.6360
   30SAPC   C24 3996   0.319   4.298   6.887  0.4777  0.0030 -0.2750
   30SAPC   H4R 3997   0.347   4.344   6.984 -0.0146  2.4261 -1.1838
   30SAPC   H4S 3998   0.357   4.194   6.895  0.0892 -0.1350 -0.1925
   30SAPC   C25 3999   0.176   4.294   6.847  0.6661 -0.0790  0.1366
   30SAPC   H5R 4000   0.144   4.373   6.777  0.1354 -2.1800 -2.1592
   30SAPC   C26 4001   0.081   4.211   6.894  0.7728  0.2094 -0.4730
   30SAPC   H6R 4002  -0.025   4.206   6.865  0.3888 -0.4417  0.9522
   30SAPC   C27 4003   0.104   4.100   6.998 -0.0870 -0.9917 -0.6297
   30SAPC   H7R 4004   0.172   4.140   7.077 -0.9331  1.8167 -1.1944
   30SAPC   H7S 4005   0.169   4.021   6.955  1.1003 -1.5521  1.9818
   30SAPC   C28 4006  -0.025   4.025   7.049 -0.8772  0.6594  0.1373
   30SAPC   H8R 4007  -0.098   3.998   6.972  0.4533 -2.2609 -0.2307
   30SAPC   C29 4008  -0.059   3.991   7.182  0.6746 -0.2436 -0.5121
   30SAPC   H9R 4009  -0.148   3.931   7.203 -0.2967  2.1922  3.2945
   30SAPC  C210 4010   0.023   4.018   7.308 -0.6569  0.1013  0.7397
   30SAPC  H10R 4011  -0.049   4.046   7.387 -1.3702 -1.4778  0.6968
   30SAPC  H10S 4012   0.090   4.104   7.289 -2.8978  1.6959 -0.3500
   30SAPC  C211 4013   0.102   3.894   7.349 -0.8164 -0.5552 -0.2786
   30SAPC  H11R 4014   0.136   3.827   7.268 -1.2480  0.6239 -1.4758
   30SAPC  C212 4015   0.110   3.857   7.477  0.4366 -0.0410 -0.3565
   30SAPC  H12R 4016   0.165   3.764   7.497  2.6518  1.1934 -0.3984
   30SAPC  C213 4017   0.056   3.923   7.602 -0.4488 -0.5744  0.7426
   30SAPC  H13R 4018  -0.027   3.868   7.651 -1.2739  0.8467  0.9784
   30SAPC  H13S 4019   0.007   4.019   7.575 -1.1079 -1.5230 -1.7501
   30SAPC  C214 4020   0.166   3.947   7.697 -0.0968 -0.3423  0.2385
   30SAPC  H14R 4021   0.256   3.978   7.642  0.9161  0.5756  2.3174
   30SAPC  C215 4022   0.168   3.949   7.837 -0.0831 -0.5928 -0.0899
   30SAPC  H15R 4023   0.262   3.979   7.885  2.3484 -2.2503 -3.3997
   30SAPC  C216 4024   0.047   3.915   7.923  0.6634 -0.1698 -0.3664
   30SAPC  H16R 4025  -0.003   3.819   7.897 -0.2525  0.5227 -1.2329
   30SAPC  H16S 4026  -0.027   3.998   7.927 -2.1675 -2.5605  1.2265
   30SAPC  C217 4027   0.091   3.899   8.073  0.6390  0.0745  0.5903
   30SAPC  H17R 4028   0.008   3.928   8.141  0.7177 -1.3175  1.3260
   30SAPC  H17S 4029   0.178   3.967   8.085  0.4482  0.3053  0.6647
   30SAPC  C218 4030   0.140   3.756   8.102  0.0888 -0.3980  0.4016
   30SAPC  H18R 4031   0.220   3.731   8.029  1.1357 -0.1766  1.4643
   30SAPC  H18S 4032   0.061   3.681   8.079 -1.2543  1.4834 -1.5667
   30SAPC  C219 4033   0.187   3.744   8.251 -0.1670  1.2628 -0.0638
   30SAPC  H19R 4034   0.097   3.775   8.309  0.0323 -2.2768  2.4443
   30SAPC  H19S 4035   0.272   3.813   8.270  0.7263 -0.0162  0.7663
   30SAPC  C220 4036   0.227   3.601   8.295  0.8059  0.6461 -0.5313
   30SAPC  H20R 4037   0.314   3.565   8.235  1.0481 -2.1675  1.2875
   30SAPC  H20S 4038   0.143   3.531   8.276 -1.6085  3.2838 -0.1206
   30SAPC  H20T 4039   0.272   3.594   8.397 -0.2705  0.4960 -0.0556
   30SAPC   C33 4040   0.765   4.660   7.049  0.0806 -0.1736  0.3588
   30SAPC   H3X 4041   0.682   4.593   7.081  0.7508 -0.8083  0.7762
   30SAPC   H3Y 4042   0.738   4.765   7.075 -0.6076 -0.3049  0.2001
   30SAPC   C34 4043   0.881   4.630   7.140 -0.1537  0.5490 -0.3459
   30SAPC   H4X 4044   0.966   4.683   7.093  0.9339 -1.0905 -0.2903
   30SAPC   H4Y 4045   0.913   4.524   7.134 -0.6425  0.4223 -0.7171
   30SAPC   C35 4046   0.862   4.685   7.285 -0.2885 -0.4806  0.8407
   30SAPC   H5X 4047   0.784   4.632   7.344 -0.4396 -0.7838  0.3775
   30SAPC   H5Y 4048   0.832   4.792   7.284  1.0059 -0.0886 -1.1711
   30SAPC   C36 4049   0.991   4.659   7.368 -0.7527  0.0202 -0.4037
   30SAPC   H6X 4050   1.064   4.742   7.370  0.2868 -0.8611 -1.0186
   30SAPC   H6Y 4051   1.056   4.579   7.327 -0.7480 -0.1156 -0.1366
   30SAPC   C37 4052   0.963   4.612   7.510 -0.0829 -0.3407  0.0629
   30SAPC   H7X 4053   1.061   4.578   7.551  0.1197  0.9202  0.6792
   30SAPC   H7Y 4054   0.891   4.527   7.505 -1.0192  0.4807 -0.8017
   30SAPC   C38 4055   0.910   4.724   7.602  0.2720  0.6093 -0.3237
   30SAPC   H8X 4056   0.841   4.784   7.539  0.2618 -1.7835 -2.7480
   30SAPC   H8Y 4057   0.999   4.781   7.637  1.3052 -1.2622  0.2056
   30SAPC   C39 4058   0.831   4.669   7.728 -0.2869 -0.1816  0.1492
   30SAPC   H9X 4059   0.747   4.608   7.690 -1.9464  2.4553 -0.6843
   30SAPC   H9Y 4060   0.789   4.748   7.794 -0.6534 -0.1296 -0.1462
   30SAPC  C310 4061   0.916   4.594   7.826 -0.8266  0.2110 -0.7066
   30SAPC  H10X 4062   1.010   4.651   7.843 -1.5006  0.7236  1.7557
   30SAPC  H10Y 4063   0.948   4.500   7.777  0.8379  0.5088 -0.2713
   30SAPC  C311 4064   0.847   4.578   7.966 -0.8673  0.5315  0.5771
   30SAPC  H11X 4065   0.757   4.514   7.971 -1.4689  1.0680 -1.8269
   30SAPC  H11Y 4066   0.807   4.671   8.011 -3.0582 -0.3735  0.6008
   30SAPC  C312 4067   0.951   4.536   8.073  0.7079 -0.7360  0.6943
   30SAPC  H12X 4068   1.025   4.467   8.028  2.0025  1.2875 -0.4626
   30SAPC  H12Y 4069   0.893   4.491   8.157  0.5919 -0.8460  0.5548
   30SAPC  C313 4070   1.016   4.658   8.147 -0.2103  0.0745  0.5299
   30SAPC  H13X 4071   0.941   4.731   8.184 -2.7391 -2.5309  0.8887
   30SAPC  H13Y 4072   1.073   4.704   8.064 -0.5257 -1.9033 -0.8453
   30SAPC  C314 4073   1.110   4.631   8.267  0.8354 -0.0176 -0.3033
   30SAPC  H14X 4074   1.182   4.554   8.234 -0.0695 -1.0877  0.1819
   30SAPC  H14Y 4075   1.057   4.586   8.353  1.0503 -2.2636 -1.2808
   30SAPC  C315 4076   1.192   4.749   8.318  0.1670 -0.0295  0.2497
   30SAPC  H15X 4077   1.115   4.813   8.367 -0.1978 -1.5859  1.8009
   30SAPC  H15Y 4078   1.237   4.796   8.228 -1.1821  0.0079 -0.4406
   30SAPC  C316 4079   1.304   4.707   8.420  0.0926  0.1649  0.9072
   30SAPC  H16X 4080   1.265   4.628   8.488 -0.0100 -0.8046 -0.2427
   30SAPC  H16Y 4081   1.335   4.797   8.478 -2.9795  2.3393 -0.5668
   30SAPC  C317 4082   1.433   4.638   8.361  0.1215  0.1694  0.1281
   30SAPC  H17X 4083   1.485   4.712   8.296 -0.3342 -0.2716 -0.7490
   30SAPC  H17Y 4084   1.397   4.554   8.299  1.0373  2.6025 -4.0835
   30SAPC  C318 4085   1.538   4.589   8.457 -0.1682 -0.0828 -0.0283
   30SAPC  H18X 4086   1.533   4.653   8.548  0.3379  1.0581 -0.7760
   30SAPC  H18Y 4087   1.638   4.584   8.409  0.3309  0.9514  0.8666
   30SAPC  H18Z 4088   1.518   4.484   8.489 -1.5035 -0.1844 -1.1156
   31SAPC     N 4089   2.572   5.188   6.319 -0.0128 -0.1068  0.2759
   31SAPC   C12 4090   2.631   5.062   6.378 -0.2231  0.5035  0.1477
   31SAPC  H12A 4091   2.731   5.055   6.337 -0.7977 -1.7774 -1.0286
   31SAPC  H12B 4092   2.577   4.975   6.345  1.7615 -1.6557  2.1886
   31SAPC   C13 4093   2.591   5.182   6.167  0.2230  0.3334 -0.0070
   31SAPC  H13A 4094   2.533   5.260   6.119  1.8608  0.1922 -2.4138
   31SAPC  H13B 4095   2.697   5.197   6.153  0.9376 -1.4678  2.7174
   31SAPC  H13C 4096   2.557   5.092   6.117  0.6415  1.6011 -2.7956
   31SAPC   C14 4097   2.427   5.191   6.338  0.3237 -0.4299 -0.2401
   31SAPC  H14A 4098   2.385   5.095   6.312 -2.1353  0.7967 -1.1315
   31SAPC  H14B 4099   2.407   5.200   6.444  0.6997  1.8577 -0.3218
   31SAPC  H14C 4100   2.374   5.265   6.281 -0.6266 -2.0392 -1.5101
   31SAPC   C15 4101   2.639   5.311   6.375  0.1727  0.0884  0.1796
   31SAPC  H15A 4102   2.604   5.343   6.472 -2.3301 -0.4943 -0.4518
   31SAPC  H15B 4103   2.747   5.305   6.373  0.1824 -0.1819  1.1440
   31SAPC  H15C 4104   2.604   5.390   6.310  1.1487 -1.8744 -3.0079
   31SAPC   C11 4105   2.639   5.047   6.527 -0.0488 -0.3918 -0.7568
   31SAPC  H11A 4106   2.661   5.145   6.575 -2.7789  0.2929 -0.7360
   31SAPC  H11B 4107   2.712   4.969   6.557 -1.0624 -0.5890  1.4533
   31SAPC     P 4108   2.478   5.002   6.739 -0.1280 -0.5493  0.1288
   31SAPC   O13 4109   2.473   5.136   6.789 -0.6809  0.3162 -0.7264
   31SAPC   O14 4110   2.359   4.921   6.765  0.5870  0.3726 -0.2293
   31SAPC   O12 4111   2.515   5.004   6.581  0.5756  0.0625  0.4677
   31SAPC   O11 4112   2.609   4.942   6.791  0.5424 -0.3679  0.0513
   31SAPC    C1 4113   2.641   4.802   6.781 -0.0086  0.3874 -0.5403
   31SAPC    HA 4114   2.554   4.734   6.775 -1.7287  2.1907  1.9703
   31SAPC    HB 4115   2.708   4.786   6.694  0.9233 -0.1705  0.2528
   31SAPC    C2 4116   2.724   4.750   6.910 -0.4729  0.1745  0.4602
   31SAPC    HS 4117   2.750   4.644   6.891 -1.2222  0.3244 -1.7593
   31SAPC   O21 4118   2.650   4.776   7.033 -0.5385  0.1525 -0.0021
   31SAPC   C21 4119   2.544   4.692   7.044 -0.1500 -0.3937  0.2695
   31SAPC   O22 4120   2.495   4.618   6.958 -0.1532 -0.3251  0.1655
   31SAPC   C22 4121   2.510   4.679   7.185 -1.0681 -0.5644 -0.1733
   31SAPC   H2R 4122   2.587   4.733   7.243  0.6071 -2.6097 -0.3867
   31SAPC   H2S 4123   2.412   4.728   7.205 -1.0361 -1.1324  1.5638
   31SAPC    C3 4124   2.852   4.824   6.919  0.0884  0.1252 -0.1982
   31SAPC    HX 4125   2.828   4.930   6.943  0.1763  0.0685  0.1394
   31SAPC    HY 4126   2.896   4.815   6.817 -3.0482 -0.4420 -1.5966
   31SAPC   O31 4127   2.930   4.749   7.023 -0.6072  0.2825 -0.1008
   31SAPC   C31 4128   3.017   4.835   7.086  0.0358  0.0749 -0.2138
   31SAPC   O32 4129   3.023   4.955   7.057 -0.2910  0.3229 -0.0602
   31SAPC   C32 4130   3.091   4.766   7.201  0.0536 -0.5098 -0.0145
   31SAPC   H2X 4131   3.134   4.856   7.249 -1.1427  1.2207 -2.0510
   31SAPC   H2Y 4132   3.173   4.702   7.161 -0.9532 -0.6134 -1.9802
   31SAPC   C23 4133   2.507   4.534   7.231  0.6422 -0.8554  0.6974
   31SAPC   H3R 4134   2.608   4.493   7.253  0.6378 -0.8943  0.6457
   31SAPC   H3S 4135   2.464   4.463   7.157 -2.3672 -0.6885  2.1702
   31SAPC   C24 4136   2.418   4.514   7.351  0.6490 -0.3537 -0.4249
   31SAPC   H4R 4137   2.427   4.406   7.373 -0.6693 -0.7481 -1.6526
   31SAPC   H4S 4138   2.310   4.529   7.329  0.5306 -2.3430 -1.4342
   31SAPC   C25 4139   2.458   4.601   7.470 -0.6966 -0.1111 -0.2773
   31SAPC   H5R 4140   2.451   4.708   7.447 -2.0683 -0.3694 -1.1790
   31SAPC   C26 4141   2.488   4.562   7.593 -0.2416 -0.3876  0.2261
   31SAPC   H6R 4142   2.515   4.637   7.669  0.8023 -0.4417 -0.0820
   31SAPC   C27 4143   2.484   4.420   7.642 -0.2838 -0.1432  0.6730
   31SAPC   H7R 4144   2.408   4.368   7.579 -0.3149  1.7504 -0.9613
   31SAPC   H7S 4145   2.441   4.426   7.744 -1.1571  1.0409  0.2663
   31SAPC   C28 4146   2.608   4.336   7.628  0.7072 -0.4045 -0.2110
   31SAPC   H8R 4147   2.661   4.354   7.534 -0.5570 -0.9596 -1.0571
   31SAPC   C29 4148   2.629   4.233   7.716 -0.6197  0.1227  0.8951
   31SAPC   H9R 4149   2.714   4.167   7.696 -0.6747  0.7714 -1.9102
   31SAPC  C210 4150   2.547   4.185   7.835  0.4446 -0.3112  0.1673
   31SAPC  H10R 4151   2.508   4.084   7.811  0.1508 -0.0463 -0.5165
   31SAPC  H10S 4152   2.459   4.253   7.842  1.9790  2.0599 -1.7993
   31SAPC  C211 4153   2.619   4.181   7.968  0.4089 -0.6511  1.0088
   31SAPC  H11R 4154   2.716   4.233   7.974 -0.1524  0.7964 -1.1743
   31SAPC  C212 4155   2.568   4.118   8.081 -0.0045 -0.5388  0.1733
   31SAPC  H12R 4156   2.642   4.104   8.160 -0.2939 -0.6636  0.4242
   31SAPC  C213 4157   2.441   4.048   8.113  0.1766 -0.3214 -0.3520
   31SAPC  H13R 4158   2.454   3.941   8.084  0.5192  0.6425 -4.2000
   31SAPC  H13S 4159   2.357   4.085   8.050  1.1895  1.7470 -0.5633
   31SAPC  C214 4160   2.406   4.081   8.258  0.7535  0.0236 -0.3563
   31SAPC  H14R 4161   2.348   4.174   8.267 -1.3058 -1.0126 -2.0366
   31SAPC  C215 4162   2.445   4.014   8.367 -0.8833 -0.7182 -0.1563
   31SAPC  H15R 4163   2.412   4.045   8.468 -0.4328 -0.6166 -0.0399
   31SAPC  C216 4164   2.537   3.892   8.379 -0.3709 -0.1741 -0.0225
   31SAPC  H16R 4165   2.632   3.911   8.433  0.1437  2.1627 -1.5983
   31SAPC  H16S 4166   2.578   3.860   8.280  2.9244 -0.4819  1.3086
   31SAPC  C217 4167   2.486   3.762   8.444  0.7719 -0.4567 -0.4520
   31SAPC  H17R 4168   2.446   3.787   8.545  1.1212  0.3331 -0.5062
   31SAPC  H17S 4169   2.576   3.703   8.471  0.9485  0.0819  0.1697
   31SAPC  C218 4170   2.382   3.694   8.359  0.7525 -0.7965 -0.1435
   31SAPC  H18R 4171   2.404   3.702   8.250  0.0357  1.4315 -0.1863
   31SAPC  H18S 4172   2.282   3.740   8.378  2.1286  2.4934 -0.1050
   31SAPC  C219 4173   2.376   3.546   8.396  0.4223 -0.2488  0.1526
   31SAPC  H19R 4174   2.361   3.540   8.506  1.4277  1.8906  0.4647
   31SAPC  H19S 4175   2.477   3.498   8.396 -0.1518 -1.7399  3.4901
   31SAPC  C220 4176   2.270   3.466   8.317 -0.0224 -0.5123  0.0463
   31SAPC  H20R 4177   2.169   3.512   8.329  0.1050  0.3038 -1.6886
   31SAPC  H20S 4178   2.272   3.359   8.348 -0.8747 -2.2275 -4.9084
   31SAPC  H20T 4179   2.291   3.470   8.208 -0.0252 -2.1565 -0.0423
   31SAPC   C33 4180   3.000   4.692   7.299 -0.0330  0.7648 -0.2545
   31SAPC   H3X 4181   3.060   4.615   7.353  0.2978  1.6251  0.6453
   31SAPC   H3Y 4182   2.931   4.627   7.241 -0.1043  0.5778  0.0365
   31SAPC   C34 4183   2.937   4.773   7.417  0.0087  0.1528  0.4432
   31SAPC   H4X 4184   2.894   4.866   7.375  0.3486 -1.1636 -3.2029
   31SAPC   H4Y 4185   3.019   4.792   7.489  0.4373 -2.5403  0.7911
   31SAPC   C35 4186   2.845   4.697   7.514 -0.3524 -0.5980 -0.0943
   31SAPC   H5X 4187   2.770   4.632   7.464 -0.1214 -1.4747  0.6733
   31SAPC   H5Y 4188   2.781   4.770   7.567 -1.3321 -0.5747 -1.2518
   31SAPC   C36 4189   2.925   4.626   7.628  0.4516  0.0652  0.2372
   31SAPC   H6X 4190   3.012   4.685   7.664 -0.0742  1.1266 -0.2011
   31SAPC   H6Y 4191   2.956   4.524   7.594 -0.0619  0.2121 -0.6968
   31SAPC   C37 4192   2.837   4.609   7.752 -0.6929  0.8929 -0.7148
   31SAPC   H7X 4193   2.760   4.531   7.735 -0.8806  1.0984 -0.8251
   31SAPC   H7Y 4194   2.771   4.696   7.771 -1.5650  0.0926 -0.0685
   31SAPC   C38 4195   2.928   4.566   7.875  1.2354  1.3182 -0.5111
   31SAPC   H8X 4196   2.989   4.478   7.848 -1.0781 -0.7080  0.4335
   31SAPC   H8Y 4197   2.855   4.528   7.950 -0.0517  1.8009 -1.4737
   31SAPC   C39 4198   3.013   4.673   7.936  0.3616  0.4783 -0.3243
   31SAPC   H9X 4199   2.947   4.757   7.964  1.1326  1.5379 -1.5514
   31SAPC   H9Y 4200   3.072   4.711   7.850  1.4399 -2.1872 -0.8652
   31SAPC  C310 4201   3.107   4.632   8.052 -0.1698 -1.4454  0.3615
   31SAPC  H10X 4202   3.188   4.707   8.054 -1.2963 -0.1789 -0.2379
   31SAPC  H10Y 4203   3.159   4.535   8.034  0.7381 -1.1793  1.4733
   31SAPC  C311 4204   3.029   4.609   8.183 -0.2265 -0.4006 -0.4524
   31SAPC  H11X 4205   2.962   4.523   8.160  1.5801 -1.9690 -0.0366
   31SAPC  H11Y 4206   2.968   4.700   8.200 -0.7597 -0.8030 -0.1570
   31SAPC  C312 4207   3.130   4.569   8.295  0.1350 -0.2679 -0.4405
   31SAPC  H12X 4208   3.211   4.645   8.291 -1.6028  1.6966 -0.3933
   31SAPC  H12Y 4209   3.163   4.466   8.273 -2.4963 -0.8125 -2.4059
   31SAPC  C313 4210   3.072   4.565   8.437  0.0851 -0.6837 -0.5516
   31SAPC  H13X 4211   3.159   4.539   8.502 -1.3680 -1.8851  1.0289
   31SAPC  H13Y 4212   3.001   4.482   8.457 -0.1235 -0.8386 -1.8775
   31SAPC  C314 4213   3.017   4.700   8.495 -0.0290  0.7815  0.6775
   31SAPC  H14X 4214   2.925   4.733   8.443  0.1982 -0.7526 -0.8132
   31SAPC  H14Y 4215   3.098   4.772   8.468 -1.9177  1.7965 -2.9698
   31SAPC  C315 4216   2.986   4.687   8.641  0.6269  0.4164  0.3231
   31SAPC  H15X 4217   3.080   4.688   8.701  0.2748  0.7830  0.8679
   31SAPC  H15Y 4218   2.937   4.589   8.657 -0.7765  1.0460 -0.0066
   31SAPC  C316 4219   2.890   4.792   8.693  0.0419  0.5647  0.4525
   31SAPC  H16X 4220   2.841   4.769   8.790  0.5079 -0.4504  0.4590
   31SAPC  H16Y 4221   2.805   4.808   8.622 -2.8360  0.8217  3.6731
   31SAPC  C317 4222   2.973   4.920   8.719 -0.3193 -1.2269 -0.0161
   31SAPC  H17X 4223   3.007   4.967   8.624  0.0686 -1.2797  0.0940
   31SAPC  H17Y 4224   3.066   4.892   8.773 -0.2729  1.8175  1.7525
   31SAPC  C318 4225   2.910   5.031   8.809  0.7726  0.3298 -0.5977
   31SAPC  H18X 4226   2.840   4.981   8.880  3.3102 -2.3083  0.2216
   31SAPC  H18Y 4227   2.875   5.114   8.744 -0.4495 -0.9006 -1.5529
   31SAPC  H18Z 4228   2.995   5.073   8.867  0.2206 -0.0504  0.5147
   32SAPC     N 4229   3.797   5.692   6.216 -0.4904 -0.6810  0.2245
   32SAPC   C12 4230   3.794   5.690   6.368 -0.3977  0.2195  0.9030
   32SAPC  H12A 4231   3.736   5.602   6.391 -0.6723 -0.0391 -0.6788
   32SAPC  H12B 4232   3.736   5.775   6.401 -2.5453 -1.7054  2.3904
   32SAPC   C13 4233   3.668   5.726   6.159  0.0746 -0.0971  0.4408
   32SAPC  H13A 4234   3.678   5.726   6.052 -1.1461 -0.3599  0.3229
   32SAPC  H13B 4235   3.588   5.655   6.169 -1.1852  0.4930 -3.7667
   32SAPC  H13C 4236   3.638   5.826   6.187  0.9024  0.8321 -1.7816
   32SAPC   C14 4237   3.905   5.778   6.162  0.1876  0.2810 -0.1152
   32SAPC  H14A 4238   3.881   5.882   6.178 -3.1228 -0.4449  0.4366
   32SAPC  H14B 4239   4.000   5.771   6.213  0.3748  2.1487 -0.1383
   32SAPC  H14C 4240   3.918   5.764   6.056 -0.7194 -2.3888  0.0572
   32SAPC   C15 4241   3.827   5.550   6.160  0.0009 -1.4683 -0.5577
   32SAPC  H15A 4242   3.749   5.479   6.186 -0.9499 -0.2490  0.0383
   32SAPC  H15B 4243   3.843   5.552   6.053 -2.2354 -1.2845 -0.9292
   32SAPC  H15C 4244   3.917   5.509   6.203  1.0448  0.2266 -1.0395
   32SAPC   C11 4245   3.932   5.671   6.442  0.5628  0.1585 -0.1509
   32SAPC  H11A 4246   3.972   5.571   6.416 -2.2949 -0.9603 -0.5858
   32SAPC  H11B 4247   3.923   5.667   6.553  1.4966 -1.0977 -0.0956
   32SAPC     P 4248   4.002   5.926   6.478  0.3725 -0.2174  0.1502
   32SAPC   O13 4249   4.136   5.983   6.483  0.7079  0.9892  1.0603
   32SAPC   O14 4250   3.897   6.008   6.414 -0.2894  0.1198 -0.1272
   32SAPC   O12 4251   4.016   5.782   6.419  0.1664 -0.3798  0.2362
   32SAPC   O11 4252   3.963   5.899   6.629 -0.7934 -0.1191  0.0991
   32SAPC    C1 4253   3.829   5.905   6.672  0.3887 -0.1150 -0.5789
   32SAPC    HA 4254   3.761   5.943   6.593 -0.9802  2.9163  1.8417
   32SAPC    HB 4255   3.789   5.808   6.708 -1.5262  1.4202  1.7673
   32SAPC    C2 4256   3.807   6.019   6.777  0.2321  0.3585 -0.3337
   32SAPC    HS 4257   3.826   6.113   6.722  0.2813 -0.4035 -1.6723
   32SAPC   O21 4258   3.890   6.003   6.895  0.0018 -0.0281 -0.0280
   32SAPC   C21 4259   3.969   6.105   6.933 -0.4277 -0.1397  0.4242
   32SAPC   O22 4260   3.970   6.213   6.877 -0.0790 -0.1172  0.0443
   32SAPC   C22 4261   4.063   6.067   7.042 -0.5698  0.0580 -0.2279
   32SAPC   H2R 4262   4.062   5.957   7.056 -0.9224 -0.1954 -2.0315
   32SAPC   H2S 4263   4.161   6.097   6.999 -0.7485 -0.3316 -0.9145
   32SAPC    C3 4264   3.658   6.035   6.817  0.2830 -0.5239  0.1706
   32SAPC    HX 4265   3.625   5.935   6.854 -1.6212  0.1665  0.4451
   32SAPC    HY 4266   3.592   6.042   6.728 -0.2106 -2.4606  0.3276
   32SAPC   O31 4267   3.639   6.129   6.924  1.0229 -0.3277  0.0909
   32SAPC   C31 4268   3.643   6.253   6.898 -0.0176  0.2846  0.6753
   32SAPC   O32 4269   3.674   6.305   6.789  0.0493  0.3491 -0.0649
   32SAPC   C32 4270   3.638   6.337   7.033  0.2085  1.0728  0.2035
   32SAPC   H2X 4271   3.631   6.445   7.009  2.5197  1.1080 -0.5508
   32SAPC   H2Y 4272   3.735   6.316   7.083  0.2449 -0.9661 -0.6058
   32SAPC   C23 4273   4.046   6.148   7.174  0.4639  0.1187 -0.1722
   32SAPC   H3R 4274   4.053   6.256   7.146 -1.7117  0.5365  0.6978
   32SAPC   H3S 4275   4.123   6.130   7.252  0.5817 -2.5979 -0.8287
   32SAPC   C24 4276   3.911   6.123   7.249  0.5236 -0.4604 -0.6283
   32SAPC   H4R 4277   3.831   6.134   7.173 -0.1778  2.8379  0.4287
   32SAPC   H4S 4278   3.900   6.213   7.313  1.9873 -1.0259  0.4691
   32SAPC   C25 4279   3.899   6.000   7.332  0.0761  0.1269 -0.0928
   32SAPC   H5R 4280   3.844   5.915   7.288 -1.5729  0.6127  0.9172
   32SAPC   C26 4281   3.939   5.980   7.461  0.5688 -0.2272  0.0661
   32SAPC   H6R 4282   3.920   5.880   7.503 -0.0474  0.0536  0.4684
   32SAPC   C27 4283   4.013   6.091   7.539  0.2769  0.3458  0.9018
   32SAPC   H7R 4284   4.056   6.165   7.469  0.4303  0.2178  0.8602
   32SAPC   H7S 4285   4.098   6.034   7.581  0.1923 -0.0268  0.5754
   32SAPC   C28 4286   3.932   6.177   7.642 -0.3621 -0.3359 -0.0929
   32SAPC   H8R 4287   3.874   6.262   7.606 -0.7262  0.1135  1.4668
   32SAPC   C29 4288   3.940   6.160   7.775 -0.3285 -0.7422 -0.3848
   32SAPC   H9R 4289   3.881   6.223   7.843  0.9593 -0.8708  0.8965
   32SAPC  C210 4290   4.025   6.057   7.851 -0.1499  0.8145 -0.4130
   32SAPC  H10R 4291   4.100   6.114   7.910  0.1159  1.6565 -1.5424
   32SAPC  H10S 4292   4.082   5.989   7.784 -0.2797  1.0984 -0.8160
   32SAPC  C211 4293   3.938   5.974   7.941 -0.2347  0.5554 -0.4298
   32SAPC  H11R 4294   3.897   5.877   7.908 -2.2503  1.5344 -0.9743
   32SAPC  C212 4295   3.911   6.015   8.068 -0.7615  0.5886  0.1016
   32SAPC  H12R 4296   3.854   5.943   8.128  0.2639 -0.1499  0.2185
   32SAPC  C213 4297   3.954   6.140   8.135 -0.7255 -0.3922  0.0223
   32SAPC  H13R 4298   4.050   6.173   8.088 -1.6343  1.2418 -0.7670
   32SAPC  H13S 4299   3.979   6.124   8.242 -0.9046  2.0861  0.4972
   32SAPC  C214 4300   3.843   6.246   8.125 -0.2528 -0.6071  0.1001
   32SAPC  H14R 4301   3.793   6.262   8.028 -0.9230  2.2386  0.8282
   32SAPC  C215 4302   3.803   6.322   8.234  0.0144 -0.4199 -0.0066
   32SAPC  H15R 4303   3.729   6.401   8.220 -0.9734 -0.8245  2.4308
   32SAPC  C216 4304   3.852   6.325   8.378 -0.7197 -0.3396  0.0860
   32SAPC  H16R 4305   3.887   6.424   8.413 -1.3706 -0.6300  1.6749
   32SAPC  H16S 4306   3.930   6.248   8.398 -1.0813 -0.3939  1.4059
   32SAPC  C217 4307   3.733   6.300   8.470  0.2205 -0.8074 -0.2312
   32SAPC  H17R 4308   3.767   6.282   8.574 -1.2911  1.5514  0.7488
   32SAPC  H17S 4309   3.683   6.208   8.434 -1.0409 -0.7458  1.2869
   32SAPC  C218 4310   3.632   6.421   8.473 -0.5490 -0.4348 -0.4868
   32SAPC  H18R 4311   3.610   6.438   8.366  0.7262  3.3492 -0.2920
   32SAPC  H18S 4312   3.684   6.513   8.507 -0.8569 -0.5730  0.4000
   32SAPC  C219 4313   3.497   6.404   8.546  0.5963  0.4079  0.1090
   32SAPC  H19R 4314   3.456   6.310   8.504 -1.1232  0.0664  2.3594
   32SAPC  H19S 4315   3.420   6.481   8.522  1.0628  1.3728  1.5572
   32SAPC  C220 4316   3.516   6.397   8.704  0.6555  0.4829 -0.0453
   32SAPC  H20R 4317   3.414   6.402   8.749  0.5205  1.4054 -0.4318
   32SAPC  H20S 4318   3.563   6.486   8.750  1.3870  0.6723 -1.1430
   32SAPC  H20T 4319   3.559   6.301   8.739 -1.3786 -0.6916 -0.5811
   32SAPC   C33 4320   3.523   6.290   7.124  0.3472 -0.0833  0.6517
   32SAPC   H3X 4321   3.540   6.185   7.154 -2.2521 -0.1555  2.2047
   32SAPC   H3Y 4322   3.419   6.301   7.087 -0.4847 -0.7979  2.6324
   32SAPC   C34 4323   3.527   6.383   7.249  0.3699 -0.3726 -0.4096
   32SAPC   H4X 4324   3.487   6.479   7.209  2.2377  0.1404 -1.1263
   32SAPC   H4Y 4325   3.634   6.399   7.274  0.3109 -1.0599  0.3057
   32SAPC   C35 4326   3.440   6.338   7.371  0.2527 -0.4956  0.6427
   32SAPC   H5X 4327   3.448   6.227   7.378  0.4490 -0.3983  2.7038
   32SAPC   H5Y 4328   3.339   6.375   7.343  0.0925 -0.4665  1.2395
   32SAPC   C36 4329   3.480   6.398   7.504  0.5644  0.2651 -0.6315
   32SAPC   H6X 4330   3.448   6.504   7.517  0.8640  0.5621 -2.1172
   32SAPC   H6Y 4331   3.590   6.407   7.497  0.6146 -1.0912 -2.0010
   32SAPC   C37 4332   3.437   6.307   7.621 -0.5739 -0.2184 -0.1538
   32SAPC   H7X 4333   3.471   6.204   7.600 -0.8151 -0.3661  0.1677
   32SAPC   H7Y 4334   3.325   6.310   7.620 -0.5630  0.2085 -0.5837
   32SAPC   C38 4335   3.501   6.347   7.758 -0.2279 -0.5154  0.3774
   32SAPC   H8X 4336   3.461   6.445   7.792  1.1984  0.6183 -1.0414
   32SAPC   H8Y 4337   3.612   6.352   7.752 -0.1739 -1.9260 -0.2177
   32SAPC   C39 4338   3.472   6.243   7.869 -0.3262  0.3113  0.6420
   32SAPC   H9X 4339   3.361   6.239   7.877 -0.2921  0.8546  1.4284
   32SAPC   H9Y 4340   3.502   6.290   7.965  0.3712 -1.9041  1.5908
   32SAPC  C310 4341   3.533   6.109   7.843  0.2772  0.1584 -0.0877
   32SAPC  H10X 4342   3.641   6.122   7.817  0.4321  0.0070  0.4647
   32SAPC  H10Y 4343   3.488   6.067   7.750  1.0350 -0.9303  0.0104
   32SAPC  C311 4344   3.538   6.017   7.965  0.2156  0.3706 -1.0097
   32SAPC  H11X 4345   3.585   6.079   8.044 -0.8093 -0.5654  0.3700
   32SAPC  H11Y 4346   3.596   5.927   7.933 -2.0463 -1.1560 -1.0330
   32SAPC  C312 4347   3.402   5.969   8.022  0.1082  0.6262 -0.5543
   32SAPC  H12X 4348   3.417   5.861   8.045  1.6806  0.3819 -2.4415
   32SAPC  H12Y 4349   3.321   5.977   7.945  0.8533  2.0975 -1.2251
   32SAPC  C313 4350   3.354   6.047   8.144 -0.5245 -0.3965 -0.2793
   32SAPC  H13X 4351   3.334   6.155   8.127  2.1504  0.4094  1.1724
   32SAPC  H13Y 4352   3.439   6.057   8.215 -0.2151 -0.5128 -0.6255
   32SAPC  C314 4353   3.240   5.989   8.227  0.2905  0.1036 -0.1730
   32SAPC  H14X 4354   3.273   5.887   8.257  3.3972  1.0529 -0.0443
   32SAPC  H14Y 4355   3.147   5.966   8.171  0.6643  0.7925 -1.0978
   32SAPC  C315 4356   3.220   6.069   8.354 -0.4669  1.2494  0.4476
   32SAPC  H15X 4357   3.159   6.157   8.322  0.3821  1.1715 -1.5310
   32SAPC  H15Y 4358   3.322   6.102   8.384  1.4376 -0.7652 -3.1909
   32SAPC  C316 4359   3.147   5.979   8.457  0.5463 -0.0246  0.2786
   32SAPC  H16X 4360   3.211   5.888   8.465 -1.5630 -1.4872  1.4620
   32SAPC  H16Y 4361   3.049   5.953   8.412  0.3535  1.6747 -0.3510
   32SAPC  C317 4362   3.109   6.043   8.588 -0.7654 -0.0212  0.3218
   32SAPC  H17X 4363   3.208   6.071   8.630 -0.8832  3.4835 -1.3745
   32SAPC  H17Y 4364   3.055   5.975   8.657  0.3836 -0.1414  1.1383
   32SAPC  C318 4365   3.024   6.173   8.578 -0.2277  0.1705  0.2388
   32SAPC  H18X 4366   2.938   6.146   8.514  0.6045  0.9943 -1.2726
   32SAPC  H18Y 4367   3.072   6.247   8.511  0.7412 -1.1191 -0.5556
   32SAPC  H18Z 4368   2.989   6.208   8.677 -3.3029 -3.6637  0.7571
   33POPC     N 4369   6.218   2.896  11.268  0.2239 -0.0075  0.5184
   33POPC   C12 4370   6.231   2.841  11.124  1.0228  0.5222 -0.2584
   33POPC  H12A 4371   6.168   2.755  11.110  0.4943  0.6673  1.0856
   33POPC  H12B 4372   6.331   2.799  11.116  0.9008  0.1188  0.2292
   33POPC   C13 4373   6.264   2.800  11.366 -0.1307 -0.0984 -0.5609
   33POPC  H13A 4374   6.371   2.789  11.358 -0.3092 -0.2851 -4.7099
   33POPC  H13B 4375   6.241   2.818  11.470 -0.0925 -1.8740 -0.2118
   33POPC  H13C 4376   6.208   2.710  11.345  0.2220 -1.7507  4.3247
   33POPC   C14 4377   6.308   3.020  11.284 -0.3502  0.5548  0.3499
   33POPC  H14A 4378   6.414   2.999  11.295 -0.7492 -1.7180  0.4072
   33POPC  H14B 4379   6.297   3.079  11.194 -0.8371  1.6658  1.1212
   33POPC  H14C 4380   6.286   3.075  11.374  1.6594  0.2011  1.1123
   33POPC   C15 4381   6.080   2.928  11.297  0.0076  0.2783 -0.3342
   33POPC  H15A 4382   6.068   2.946  11.402 -0.3309  1.7808 -0.6123
   33POPC  H15B 4383   6.008   2.849  11.281 -0.1930 -0.2848  2.7551
   33POPC  H15C 4384   6.041   3.007  11.234  1.3227  1.8174  0.7179
   33POPC   C11 4385   6.191   2.937  11.004 -0.3847  0.2417 -0.2572
   33POPC  H11A 4386   6.089   2.968  11.033 -0.3776 -0.3276  0.3985
   33POPC  H11B 4387   6.194   2.879  10.908 -0.1242 -1.8655  0.9513
   33POPC     P 4388   6.403   3.077  10.940 -0.3388 -0.0185 -0.3073
   33POPC   O13 4389   6.486   2.958  10.966 -0.3639 -0.2017 -0.4815
   33POPC   O14 4390   6.463   3.203  10.983 -0.7397 -0.5421  0.1146
   33POPC   O12 4391   6.260   3.062  11.003  0.1286 -0.5870 -0.0521
   33POPC   O11 4392   6.367   3.083  10.785  0.3743  0.1524 -0.0869
   33POPC    C1 4393   6.299   3.194  10.719  0.0927 -0.2018 -0.4738
   33POPC    HA 4394   6.220   3.218  10.794  1.7239 -0.0290  1.2647
   33POPC    HB 4395   6.366   3.280  10.700  0.0345  0.1523  0.7884
   33POPC    C2 4396   6.234   3.158  10.593  0.4197 -0.2340  1.2480
   33POPC    HS 4397   6.165   3.073  10.611 -0.8718  0.1947 -1.1693
   33POPC   O21 4398   6.336   3.137  10.493  0.5484  0.3627 -0.5731
   33POPC   C21 4399   6.316   3.029  10.422 -0.7963  0.1184  0.4895
   33POPC   O22 4400   6.224   2.954  10.443 -0.3926 -0.0746  0.2962
   33POPC   C22 4401   6.435   3.020  10.316  0.0635 -0.6431 -0.1750
   33POPC   H2R 4402   6.527   2.979  10.363  1.8980  0.7268 -2.3515
   33POPC   H2S 4403   6.477   3.120  10.295  0.1476 -0.1718  1.9846
   33POPC    C3 4404   6.137   3.270  10.537 -0.3590  0.3192 -0.2782
   33POPC    HX 4405   6.198   3.357  10.507  0.5376  0.0867  0.8140
   33POPC    HY 4406   6.075   3.304  10.623 -1.1296 -0.4732 -0.4940
   33POPC   O31 4407   6.055   3.210  10.433 -0.6124  0.6209  0.2271
   33POPC   C31 4408   5.977   3.295  10.366 -0.4038 -0.6183  0.1128
   33POPC   O32 4409   5.968   3.413  10.388 -0.0327  0.0455 -0.5452
   33POPC   C32 4410   5.914   3.211  10.250 -0.1073  0.3853 -0.1635
   33POPC   H2X 4411   5.814   3.182  10.289  0.1041 -0.3418 -0.1447
   33POPC   H2Y 4412   5.969   3.117  10.227 -1.2523 -0.3482  0.0188
   33POPC   C23 4413   6.412   2.935  10.186  0.9753  0.4235  0.2330
   33POPC   H3R 4414   6.324   2.972  10.129  0.1360  0.6131  1.6161
   33POPC   H3S 4415   6.386   2.832  10.218 -0.5454  0.3371 -1.1410
   33POPC   C24 4416   6.540   2.925  10.108 -0.2233 -0.3897  0.6149
   33POPC   H4R 4417   6.614   2.856  10.154 -1.2063 -3.5737 -2.1383
   33POPC   H4S 4418   6.587   3.025  10.109 -1.8294  0.3931  0.7713
   33POPC   C25 4419   6.527   2.876   9.964 -0.6170 -0.2013 -0.1020
   33POPC   H5R 4420   6.625   2.877   9.910 -0.2655  0.0231  0.5351
   33POPC   H5S 4421   6.459   2.951   9.917  0.5257  1.4258  0.7107
   33POPC   C26 4422   6.480   2.730   9.933 -0.1766  0.2843  0.5483
   33POPC   H6R 4423   6.390   2.711   9.996 -2.0599  0.8467 -1.8471
   33POPC   H6S 4424   6.563   2.658   9.948  0.8821  0.8639 -2.0423
   33POPC   C27 4425   6.426   2.719   9.792 -0.2020  1.1061  0.0694
   33POPC   H7R 4426   6.342   2.791   9.783 -0.2836  0.9193 -0.7899
   33POPC   H7S 4427   6.380   2.619   9.779  1.4885  0.4680 -1.4331
   33POPC   C28 4428   6.529   2.751   9.687  0.6671 -0.3490 -0.3538
   33POPC   H8R 4429   6.591   2.834   9.727 -1.1698  0.3922  1.1620
   33POPC   H8S 4430   6.479   2.781   9.592 -0.1334  0.4124  0.2915
   33POPC   C29 4431   6.630   2.642   9.658 -0.4227 -0.2657  0.6197
   33POPC   H91 4432   6.688   2.622   9.749 -1.2882  0.0712  1.2560
   33POPC  C210 4433   6.642   2.567   9.546 -0.6671 -0.2642  0.4049
   33POPC  H101 4434   6.726   2.497   9.533  0.3476  0.8432  0.8643
   33POPC  C211 4435   6.562   2.567   9.416  0.2095 -0.8919  0.7614
   33POPC  H11R 4436   6.511   2.666   9.407 -0.4185 -1.2382  0.4611
   33POPC  H11S 4437   6.482   2.490   9.425 -1.2729  0.6778  1.9474
   33POPC  C212 4438   6.642   2.537   9.290 -0.7031 -0.2869  0.0766
   33POPC  H12R 4439   6.685   2.435   9.283 -0.1083 -0.1656  1.5458
   33POPC  H12S 4440   6.730   2.601   9.272  0.3156 -2.3914 -3.1380
   33POPC  C213 4441   6.562   2.557   9.162 -0.3402  0.5690 -0.6369
   33POPC  H13R 4442   6.580   2.666   9.147  1.8876  0.1195 -1.5961
   33POPC  H13S 4443   6.455   2.530   9.175 -0.0073 -0.6422 -0.3623
   33POPC  C214 4444   6.620   2.469   9.050  0.0479 -0.1228 -0.1564
   33POPC  H14R 4445   6.579   2.370   9.079  0.0754  0.0541  0.4909
   33POPC  H14S 4446   6.731   2.461   9.062  0.2139  0.7803 -1.0225
   33POPC  C215 4447   6.590   2.512   8.905  0.1843  0.2260 -0.3090
   33POPC  H15R 4448   6.501   2.579   8.913 -0.1847 -0.1869 -0.8617
   33POPC  H15S 4449   6.562   2.421   8.848 -1.3929  0.1285  0.5597
   33POPC  C216 4450   6.714   2.584   8.847  0.1449  0.5745  0.1976
   33POPC  H16R 4451   6.792   2.506   8.835 -1.1516 -0.7054 -0.2238
   33POPC  H16S 4452   6.768   2.653   8.915 -1.3783  1.9980  0.0426
   33POPC  C217 4453   6.693   2.650   8.702  0.1463  0.3019 -0.5396
   33POPC  H17R 4454   6.628   2.587   8.638  2.3186 -3.9533  1.0679
   33POPC  H17S 4455   6.789   2.666   8.649  0.8883  1.5763  1.0988
   33POPC  C218 4456   6.637   2.792   8.723  0.1365 -0.1012 -0.0149
   33POPC  H18R 4457   6.544   2.783   8.783 -0.1547  0.1383 -0.4272
   33POPC  H18S 4458   6.607   2.836   8.625 -1.2082  0.9224  0.8200
   33POPC  H18T 4459   6.711   2.866   8.761 -0.7015  2.0144 -2.2419
   33POPC   C33 4460   5.895   3.294  10.120  0.0741  0.1328 -0.3167
   33POPC   H3X 4461   5.987   3.351  10.094  0.3907 -0.8547 -1.4646
   33POPC   H3Y 4462   5.816   3.370  10.139  0.9432  1.1978 -0.8614
   33POPC   C34 4463   5.851   3.214  10.005  0.0087  0.0137  0.0933
   33POPC   H4X 4464   5.761   3.156  10.032  1.1518 -2.1515 -0.4616
   33POPC   H4Y 4465   5.932   3.138   9.998  0.0614  0.0866 -0.0991
   33POPC   C35 4466   5.826   3.291   9.872  0.2682 -0.0283 -0.7244
   33POPC   H5X 4467   5.913   3.354   9.845  0.3603 -1.0807 -3.1516
   33POPC   H5Y 4468   5.733   3.347   9.894  1.5956  1.0402  2.7170
   33POPC   C36 4469   5.808   3.199   9.752  0.0239 -0.0757 -0.5920
   33POPC   H6X 4470   5.709   3.150   9.762  0.0093 -0.1506 -1.0956
   33POPC   H6Y 4471   5.887   3.121   9.750  1.6613  1.4148  1.1031
   33POPC   C37 4472   5.797   3.269   9.616 -0.3793  0.3675  0.3705
   33POPC   H7X 4473   5.891   3.320   9.584 -0.2300  0.4329  0.9164
   33POPC   H7Y 4474   5.715   3.343   9.625 -1.1905 -0.5086  0.3483
   33POPC   C38 4475   5.744   3.173   9.496  0.1631 -0.5926 -0.9141
   33POPC   H8X 4476   5.651   3.129   9.536 -1.3532  2.2436 -1.0376
   33POPC   H8Y 4477   5.807   3.084   9.477  0.6717 -0.3917 -0.2123
   33POPC   C39 4478   5.717   3.243   9.363 -0.2578  0.4162 -0.0387
   33POPC   H9X 4479   5.802   3.307   9.332  0.3441 -0.8077 -0.9983
   33POPC   H9Y 4480   5.624   3.302   9.376 -1.0461 -0.7197 -0.4122
   33POPC  C310 4481   5.687   3.144   9.251  0.1823 -0.4772  0.2287
   33POPC  H10X 4482   5.581   3.111   9.262  0.5020 -1.1235  1.6327
   33POPC  H10Y 4483   5.737   3.048   9.273  0.0501 -0.2663  1.5497
   33POPC  C311 4484   5.715   3.187   9.103  0.3904 -0.3120 -0.5163
   33POPC  H11X 4485   5.825   3.204   9.105  0.5492 -1.1888 -1.2205
   33POPC  H11Y 4486   5.647   3.274   9.084 -1.7624 -2.1580 -1.7277
   33POPC  C312 4487   5.671   3.083   9.005 -0.4315 -0.6236  0.6373
   33POPC  H12X 4488   5.560   3.082   9.000 -0.3886 -1.8534 -3.3004
   33POPC  H12Y 4489   5.694   2.979   9.035 -0.9357 -0.8450  0.2725
   33POPC  C313 4490   5.727   3.100   8.853  0.5159 -0.4867 -0.0915
   33POPC  H13X 4491   5.837   3.090   8.853  0.4799 -2.0147  3.2335
   33POPC  H13Y 4492   5.697   3.199   8.812  1.6836 -0.2289 -0.3432
   33POPC  C314 4493   5.669   2.991   8.767  0.0015  0.4097 -0.4538
   33POPC  H14X 4494   5.558   2.993   8.775  0.0406  1.3707  0.0063
   33POPC  H14Y 4495   5.700   2.888   8.792 -1.7049 -0.0591 -0.1677
   33POPC  C315 4496   5.714   3.025   8.627 -0.2026 -0.5795  0.8856
   33POPC  H15X 4497   5.824   3.019   8.617 -0.3100 -0.3717 -0.5562
   33POPC  H15Y 4498   5.688   3.131   8.606  2.5101 -0.4539 -2.8573
   33POPC  C316 4499   5.639   2.952   8.520  0.4900  0.1740 -0.0613
   33POPC  H16X 4500   5.658   2.996   8.420 -3.0693 -0.4497 -1.1785
   33POPC  H16Y 4501   5.530   2.945   8.540  0.3613 -0.8605 -1.0078
   33POPC  H16Z 4502   5.670   2.845   8.510  0.2601  0.1031 -0.0261
   34POPC     N 4503   0.262   5.466  10.850  0.6685  0.9300  0.3201
   34POPC   C12 4504   0.276   5.335  10.927  0.6666 -0.3893  0.0428
   34POPC  H12A 4505   0.294   5.364  11.030 -1.0096 -2.8434  1.1068
   34POPC  H12B 4506   0.371   5.294  10.895  1.0643  1.1241 -0.8123
   34POPC   C13 4507   0.240   5.439  10.707  0.0841 -0.2435  0.6242
   34POPC  H13A 4508   0.163   5.364  10.697  1.1604 -1.3065  0.1846
   34POPC  H13B 4509   0.214   5.526  10.648 -1.3004 -1.0997 -0.1033
   34POPC  H13C 4510   0.331   5.396  10.669  1.5178  1.4191  1.9721
   34POPC   C14 4511   0.140   5.538  10.897  0.3120 -0.0191  0.2629
   34POPC  H14A 4512   0.141   5.561  11.002 -1.0730  1.3974  0.0092
   34POPC  H14B 4513   0.115   5.627  10.841 -1.2848 -1.2254 -1.0630
   34POPC  H14C 4514   0.052   5.476  10.886 -0.3591  0.9090  0.2483
   34POPC   C15 4515   0.378   5.549  10.880  0.3865  0.3936  0.9957
   34POPC  H15A 4516   0.370   5.587  10.981 -1.9946 -0.4777  1.1909
   34POPC  H15B 4517   0.358   5.633  10.815  1.8790 -1.2285 -1.7850
   34POPC  H15C 4518   0.471   5.498  10.859  0.1624  0.9391 -1.6317
   34POPC   C11 4519   0.160   5.230  10.919 -0.2379 -0.3544  0.2466
   34POPC  H11A 4520   0.134   5.208  10.813 -0.5566 -2.3030  0.6798
   34POPC  H11B 4521   0.060   5.270  10.947 -0.1137  1.9210 -2.2002
   34POPC     P 4522   0.243   4.991  10.921 -0.1218 -0.3345  0.1166
   34POPC   O13 4523   0.200   4.877  11.007  0.4319 -0.5296 -0.4566
   34POPC   O14 4524   0.386   5.010  10.902  0.1515  0.2128  0.0376
   34POPC   O12 4525   0.181   5.110  10.994  0.2815 -0.3411 -0.5755
   34POPC   O11 4526   0.166   4.986  10.776 -0.5650  0.5100 -0.0022
   34POPC    C1 4527   0.037   4.926  10.768 -0.0228 -0.2585  0.8620
   34POPC    HA 4528  -0.018   4.896  10.860 -0.9104  1.9451  1.1156
   34POPC    HB 4529   0.048   4.828  10.717  1.8908  0.5888 -0.4430
   34POPC    C2 4530  -0.051   5.000  10.669 -0.0961  0.2857 -0.4464
   34POPC    HS 4531  -0.071   5.100  10.713 -1.5497  0.0198 -0.4432
   34POPC   O21 4532  -0.182   4.935  10.660  0.0814 -0.0422  0.1187
   34POPC   C21 4533  -0.288   5.020  10.635  0.3090  0.2600 -0.2478
   34POPC   O22 4534  -0.287   5.143  10.634 -0.5415  0.0120 -0.2529
   34POPC   C22 4535  -0.410   4.930  10.605 -0.6887 -0.8950 -0.1658
   34POPC   H2R 4536  -0.491   4.968  10.671  0.3381 -1.5540  1.5485
   34POPC   H2S 4537  -0.390   4.828  10.644 -1.9336 -0.6204  1.3162
   34POPC    C3 4538   0.016   5.014  10.534 -0.3030 -0.1121 -0.0480
   34POPC    HX 4539   0.061   4.916  10.511  2.4889  1.7728 -3.6785
   34POPC    HY 4540   0.100   5.085  10.552  1.2251 -1.4035 -1.7646
   34POPC   O31 4541  -0.066   5.075  10.430 -0.1266 -0.2062 -0.6653
   34POPC   C31 4542   0.001   5.098  10.314  0.3851  0.0167  0.3719
   34POPC   O32 4543   0.122   5.084  10.300  0.5977 -0.2848 -0.0718
   34POPC   C32 4544  -0.098   5.149  10.206  0.5647 -0.3067  0.3616
   34POPC   H2X 4545  -0.072   5.257  10.202 -2.9375  0.6255 -2.3223
   34POPC   H2Y 4546  -0.202   5.143  10.244  0.8125 -0.2289  1.0661
   34POPC   C23 4547  -0.451   4.918  10.457  0.7943 -0.5082 -0.1794
   34POPC   H3R 4548  -0.460   5.021  10.415  0.0864 -0.5590 -0.1747
   34POPC   H3S 4549  -0.553   4.877  10.473  0.8557  0.6351  4.6071
   34POPC   C24 4550  -0.353   4.842  10.377 -0.0230  0.0743  0.1786
   34POPC   H4R 4551  -0.341   4.745  10.430 -2.4191  0.3490  1.3723
   34POPC   H4S 4552  -0.250   4.882  10.370  0.0998 -0.3693 -0.6546
   34POPC   C25 4553  -0.399   4.820  10.233  0.0619 -0.0358  0.1586
   34POPC   H5R 4554  -0.399   4.918  10.180 -1.7855 -0.6108 -1.0061
   34POPC   H5S 4555  -0.503   4.781  10.236 -0.2682  0.7314 -0.6935
   34POPC   C26 4556  -0.303   4.735  10.151 -0.3175  0.1071 -0.0638
   34POPC   H6R 4557  -0.304   4.629  10.185 -0.5854 -0.6579 -2.3151
   34POPC   H6S 4558  -0.199   4.767  10.171 -0.0274  0.6775 -2.3020
   34POPC   C27 4559  -0.324   4.757  10.002 -0.2132  0.4109 -0.0431
   34POPC   H7R 4560  -0.302   4.862   9.976  2.4899  0.5138  2.2633
   34POPC   H7S 4561  -0.430   4.739   9.972 -0.0347 -1.6739  0.4242
   34POPC   C28 4562  -0.252   4.644   9.931 -0.0501 -0.5598  0.0577
   34POPC   H8R 4563  -0.279   4.539   9.956  1.0124 -0.9206 -0.2577
   34POPC   H8S 4564  -0.149   4.659   9.970  1.7564 -0.4871 -4.2221
   34POPC   C29 4565  -0.248   4.668   9.784  0.2846  0.2816  0.4942
   34POPC   H91 4566  -0.171   4.734   9.743 -1.0576  0.6556 -1.5371
   34POPC  C210 4567  -0.345   4.624   9.698 -0.3282 -0.1981 -0.4297
   34POPC  H101 4568  -0.343   4.655   9.593 -0.8255  3.0048  0.4117
   34POPC  C211 4569  -0.467   4.544   9.730 -0.4040  0.3660  0.4372
   34POPC  H11R 4570  -0.557   4.607   9.737 -0.9288  0.5815 -4.7686
   34POPC  H11S 4571  -0.448   4.481   9.820  1.5765 -2.7221 -1.9205
   34POPC  C212 4572  -0.493   4.430   9.627  0.2257  0.5250 -0.2007
   34POPC  H12R 4573  -0.583   4.376   9.663  2.1159 -1.3014  2.1266
   34POPC  H12S 4574  -0.404   4.364   9.623  1.8989  2.6296  0.4773
   34POPC  C213 4575  -0.524   4.470   9.482 -0.2273  0.4390 -0.9226
   34POPC  H13R 4576  -0.438   4.531   9.448 -0.7725  0.4378 -2.3756
   34POPC  H13S 4577  -0.618   4.529   9.490 -0.8670 -0.6920  0.2754
   34POPC  C214 4578  -0.544   4.343   9.398  0.3515  0.0346 -0.0264
   34POPC  H14R 4579  -0.632   4.283   9.432 -2.7285  2.4975 -2.9651
   34POPC  H14S 4580  -0.448   4.287   9.402  1.1456  1.3768  0.3360
   34POPC  C215 4581  -0.573   4.370   9.248  0.7774 -0.3324 -0.1455
   34POPC  H15R 4582  -0.475   4.392   9.201  2.1144 -2.4421  1.4583
   34POPC  H15S 4583  -0.642   4.457   9.250  0.2706 -0.7370  0.0142
   34POPC  C216 4584  -0.641   4.250   9.176  0.3910 -0.0675 -0.2045
   34POPC  H16R 4585  -0.748   4.260   9.203 -0.1268 -0.2667 -2.0425
   34POPC  H16S 4586  -0.605   4.154   9.216 -1.8073 -0.5692  0.7009
   34POPC  C217 4587  -0.613   4.247   9.026 -0.3636  0.2014 -0.0498
   34POPC  H17R 4588  -0.504   4.231   9.012 -0.1653 -1.0844  2.3582
   34POPC  H17S 4589  -0.646   4.343   8.982 -0.0203  0.7800  0.9404
   34POPC  C218 4590  -0.693   4.140   8.951  0.3623 -0.4076  0.6328
   34POPC  H18R 4591  -0.799   4.165   8.927 -0.3856 -4.1486 -0.6684
   34POPC  H18S 4592  -0.685   4.044   9.007 -0.3702  0.8280  2.9767
   34POPC  H18T 4593  -0.631   4.132   8.859 -0.1993  1.6308  0.0251
   34POPC   C33 4594  -0.077   5.070  10.068  0.5984  0.1886  0.2852
   34POPC   H3X 4595  -0.100   4.964  10.092  2.9003 -0.2795  0.6594
   34POPC   H3Y 4596   0.031   5.074  10.046  1.3816 -2.6226  2.9635
   34POPC   C34 4597  -0.161   5.129   9.955 -0.0579 -0.2397  0.0898
   34POPC   H4X 4598  -0.135   5.234   9.933 -1.1080 -0.0280 -0.1798
   34POPC   H4Y 4599  -0.271   5.127   9.970 -0.3629  1.0698 -1.6827
   34POPC   C35 4600  -0.126   5.050   9.831  0.1925  0.8499  0.5589
   34POPC   H5X 4601  -0.165   4.946   9.841 -0.9912  0.8341 -2.9027
   34POPC   H5Y 4602  -0.017   5.046   9.812  0.3317  1.9891  1.0144
   34POPC   C36 4603  -0.172   5.112   9.702  1.0192 -0.1542  0.0479
   34POPC   H6X 4604  -0.118   5.209   9.698  2.4014 -0.8833  0.4926
   34POPC   H6Y 4605  -0.279   5.142   9.710  0.3017 -2.0818 -1.4445
   34POPC   C37 4606  -0.150   5.040   9.571 -0.2488 -0.1349  0.3523
   34POPC   H7X 4607  -0.203   4.942   9.572 -0.4230 -0.0799 -1.4731
   34POPC   H7Y 4608  -0.045   5.016   9.542 -0.9301 -2.0454 -0.7287
   34POPC   C38 4609  -0.196   5.128   9.455  0.3143  0.0836 -0.2964
   34POPC   H8X 4610  -0.126   5.211   9.429 -0.4359  0.1792 -2.1099
   34POPC   H8Y 4611  -0.296   5.176   9.466  0.1077  0.5673 -3.4334
   34POPC   C39 4612  -0.207   5.036   9.332  0.1282  0.1257 -0.3824
   34POPC   H9X 4613  -0.281   4.958   9.360  1.1132 -0.5424  0.4746
   34POPC   H9Y 4614  -0.107   4.986   9.332  0.5023  0.8374 -1.3492
   34POPC  C310 4615  -0.222   5.107   9.199  0.4241 -0.4112  0.3330
   34POPC  H10X 4616  -0.309   5.176   9.202  1.1809  0.6651 -1.3435
   34POPC  H10Y 4617  -0.253   5.024   9.132  1.8297 -0.6693 -0.0078
   34POPC  C311 4618  -0.109   5.192   9.142 -0.2563 -0.6775 -0.6391
   34POPC  H11X 4619  -0.026   5.119   9.130  1.6295  1.0621  1.0470
   34POPC  H11Y 4620  -0.075   5.273   9.211 -1.3266  0.5485 -1.5220
   34POPC  C312 4621  -0.146   5.257   9.004 -0.4028  0.8258 -0.2051
   34POPC  H12X 4622  -0.236   5.322   9.015 -1.1691  0.0032 -1.3739
   34POPC  H12Y 4623  -0.180   5.175   8.938  0.9704  0.7313 -0.8067
   34POPC  C313 4624  -0.029   5.334   8.930 -0.2185 -0.6572 -0.5178
   34POPC  H13X 4625   0.002   5.423   8.988  1.5351 -0.6970 -1.3069
   34POPC  H13Y 4626  -0.065   5.360   8.828 -0.0527  0.7931 -0.2289
   34POPC  C314 4627   0.103   5.243   8.926  0.7474 -0.2325 -0.2107
   34POPC  H14X 4628   0.077   5.144   8.885 -1.6683  0.7713 -1.2968
   34POPC  H14Y 4629   0.133   5.230   9.032  1.4593 -1.4516 -0.5513
   34POPC  C315 4630   0.223   5.303   8.868 -0.2472 -0.0884  0.0920
   34POPC  H15X 4631   0.258   5.387   8.932 -0.3096 -0.5332  0.7118
   34POPC  H15Y 4632   0.209   5.345   8.766  0.4295 -0.9661 -0.3744
   34POPC  C316 4633   0.344   5.205   8.867  0.2869  0.0606  0.9827
   34POPC  H16X 4634   0.317   5.109   8.819  0.4144 -0.2813  1.5746
   34POPC  H16Y 4635   0.381   5.176   8.968  0.1464 -0.8687  0.7782
   34POPC  H16Z 4636   0.430   5.246   8.810 -0.5090  0.8044  0.2984
   35POPC     N 4637   5.583   0.156  11.298 -0.3699  0.0584  0.6623
   35POPC   C12 4638   5.490   0.041  11.348 -0.4582 -0.2445 -0.1683
   35POPC  H12A 4639   5.397   0.079  11.388  1.1887  1.4286  2.3669
   35POPC  H12B 4640   5.539  -0.010  11.430 -0.5993 -1.6973 -0.9411
   35POPC   C13 4641   5.608   0.263  11.402  0.0556 -0.3882 -0.1200
   35POPC  H13A 4642   5.513   0.307  11.429 -0.9773  1.0674 -5.1050
   35POPC  H13B 4643   5.645   0.213  11.490  0.3871 -0.0782 -0.0799
   35POPC  H13C 4644   5.681   0.334  11.366 -0.0057 -1.0642 -1.6516
   35POPC   C14 4645   5.720   0.102  11.264  0.5414  0.0257 -0.6621
   35POPC  H14A 4646   5.777   0.149  11.186 -1.3161 -0.2265 -2.2303
   35POPC  H14B 4647   5.775   0.102  11.358  1.5520  0.5648 -1.2368
   35POPC  H14C 4648   5.706  -0.000  11.231 -1.5754  0.7916 -2.2621
   35POPC   C15 4649   5.529   0.225  11.179  0.6362  0.9580 -0.4748
   35POPC  H15A 4650   5.520   0.169  11.087 -0.2913  0.5963 -0.1667
   35POPC  H15B 4651   5.590   0.314  11.168  3.1405 -0.5657  0.2124
   35POPC  H15C 4652   5.427   0.258  11.190  0.1095 -0.7485  0.1128
   35POPC   C11 4653   5.464  -0.072  11.241  0.6257 -0.3108 -0.9957
   35POPC  H11A 4654   5.440  -0.015  11.149 -1.0415 -0.0812 -0.4571
   35POPC  H11B 4655   5.372  -0.126  11.273 -0.2181  1.8922  0.4905
   35POPC     P 4656   5.630  -0.259  11.297  0.7823 -0.6392  0.4887
   35POPC   O13 4657   5.682  -0.187  11.417 -0.0789  0.1703 -0.6146
   35POPC   O14 4658   5.730  -0.329  11.219 -0.1299  0.5036 -0.6792
   35POPC   O12 4659   5.577  -0.151  11.204  0.3511 -0.1761  0.2162
   35POPC   O11 4660   5.492  -0.332  11.327 -0.4431 -0.0419 -0.2052
   35POPC    C1 4661   5.443  -0.438  11.259  0.2020 -0.3324  0.5481
   35POPC    HA 4662   5.338  -0.450  11.293  0.6598  0.1504  2.1773
   35POPC    HB 4663   5.498  -0.530  11.287  2.0153 -0.4969 -2.9440
   35POPC    C2 4664   5.449  -0.431  11.101 -0.1730  0.2634  0.0058
   35POPC    HS 4665   5.555  -0.429  11.069 -0.2601 -1.6535 -0.5236
   35POPC   O21 4666   5.362  -0.332  11.053  0.4944  0.3842 -0.5729
   35POPC   C21 4667   5.421  -0.254  10.954  0.1527 -0.1885 -0.4522
   35POPC   O22 4668   5.525  -0.278  10.905 -0.1243  0.6656  0.6840
   35POPC   C22 4669   5.322  -0.145  10.914  0.1995  0.1191  0.0215
   35POPC   H2R 4670   5.386  -0.055  10.899  0.6332 -0.2590 -0.4492
   35POPC   H2S 4671   5.248  -0.123  10.994  0.0568  0.4384 -0.1981
   35POPC    C3 4672   5.402  -0.561  11.030  0.4927  0.1833 -0.1191
   35POPC    HX 4673   5.305  -0.587  11.077 -1.2608  3.1397 -1.7826
   35POPC    HY 4674   5.474  -0.641  11.060 -1.0188 -0.8698  0.8311
   35POPC   O31 4675   5.385  -0.551  10.885  0.2934  0.6218  0.0888
   35POPC   C31 4676   5.495  -0.577  10.817  0.7942 -0.6286  0.1635
   35POPC   O32 4677   5.604  -0.597  10.864  0.8644  0.0893  0.1223
   35POPC   C32 4678   5.453  -0.570  10.672 -0.0865 -0.2357 -0.2912
   35POPC   H2X 4679   5.405  -0.472  10.655 -1.9117 -0.8397  1.0465
   35POPC   H2Y 4680   5.375  -0.646  10.648  0.6295 -0.4199 -2.2491
   35POPC   C23 4681   5.245  -0.183  10.786  0.0770 -0.2657  0.3231
   35POPC   H3R 4682   5.164  -0.110  10.771 -0.0323 -0.2520  0.9657
   35POPC   H3S 4683   5.200  -0.284  10.799 -0.4160 -0.1931 -0.7107
   35POPC   C24 4684   5.334  -0.156  10.673  0.3404 -0.1574 -0.1237
   35POPC   H4R 4685   5.435  -0.204  10.681 -0.5170 -2.1705 -0.6858
   35POPC   H4S 4686   5.333  -0.046  10.659 -0.6208 -0.0017  1.1357
   35POPC   C25 4687   5.269  -0.210  10.545 -0.7775 -0.2686  0.1999
   35POPC   H5R 4688   5.173  -0.154  10.547 -0.9253 -0.4829  3.1729
   35POPC   H5S 4689   5.249  -0.320  10.549 -0.6442 -0.2774  0.6877
   35POPC   C26 4690   5.339  -0.179  10.410  0.0838  0.8325 -0.3386
   35POPC   H6R 4691   5.445  -0.208  10.426 -0.0417  1.5522  2.1787
   35POPC   H6S 4692   5.336  -0.069  10.395 -1.3286  0.9474  0.5859
   35POPC   C27 4693   5.272  -0.261  10.294  0.8211 -0.3368 -0.5688
   35POPC   H7R 4694   5.161  -0.259  10.304  0.5951  1.4310 -2.6836
   35POPC   H7S 4695   5.285  -0.372  10.296  1.1077 -0.2918  0.5688
   35POPC   C28 4696   5.305  -0.206  10.156 -0.0883 -0.3560  0.4161
   35POPC   H8R 4697   5.410  -0.240  10.141 -1.2118 -3.4769 -1.2574
   35POPC   H8S 4698   5.295  -0.096  10.149  3.4366 -0.0309 -2.6617
   35POPC   C29 4699   5.212  -0.281  10.060  0.1987 -0.9704 -0.4102
   35POPC   H91 4700   5.104  -0.265  10.074  0.1508 -0.0586 -1.6628
   35POPC  C210 4701   5.254  -0.350   9.951 -0.0624  0.2694  0.2500
   35POPC  H101 4702   5.174  -0.397   9.892 -0.8930  0.9340  0.8323
   35POPC  C211 4703   5.395  -0.355   9.903  0.2148  0.0468 -0.5992
   35POPC  H11R 4704   5.408  -0.463   9.883  1.6581 -0.0162  0.5489
   35POPC  H11S 4705   5.466  -0.343   9.987 -2.0100  0.5187  1.3047
   35POPC  C212 4706   5.441  -0.264   9.785 -0.6286  0.4074  0.3745
   35POPC  H12R 4707   5.535  -0.313   9.751 -0.0200  0.1820  2.2797
   35POPC  H12S 4708   5.474  -0.167   9.827  2.1723 -0.3570  0.1582
   35POPC  C213 4709   5.341  -0.252   9.666  0.0001 -0.0118 -0.5859
   35POPC  H13R 4710   5.257  -0.193   9.708 -0.1543  0.9506 -2.1700
   35POPC  H13S 4711   5.301  -0.349   9.628 -0.5745 -0.3585  0.8445
   35POPC  C214 4712   5.396  -0.176   9.551  0.3562 -0.4492  0.5478
   35POPC  H14R 4713   5.486  -0.226   9.508 -0.8938 -2.3460 -0.0080
   35POPC  H14S 4714   5.423  -0.073   9.582  0.6347  0.1231 -1.4493
   35POPC  C215 4715   5.300  -0.148   9.433 -0.5081  0.9280 -0.3134
   35POPC  H15R 4716   5.213  -0.098   9.479 -1.0209 -1.0069  0.9250
   35POPC  H15S 4717   5.260  -0.244   9.395  1.8977 -0.9175  1.4603
   35POPC  C216 4718   5.365  -0.047   9.336  0.6195  0.5935 -0.3764
   35POPC  H16R 4719   5.401   0.043   9.390  1.3457  0.5095 -0.7191
   35POPC  H16S 4720   5.284  -0.004   9.273 -1.1056 -0.6069  0.9012
   35POPC  C217 4721   5.474  -0.103   9.238 -0.5298 -0.1547 -0.2090
   35POPC  H17R 4722   5.460  -0.207   9.203  0.3558  0.4605 -2.5189
   35POPC  H17S 4723   5.573  -0.102   9.289 -0.3215  0.2737 -0.6145
   35POPC  C218 4724   5.485  -0.016   9.102  0.1945  0.2063  0.5095
   35POPC  H18R 4725   5.405  -0.051   9.033  0.4561  0.8797 -0.1486
   35POPC  H18S 4726   5.581  -0.043   9.054 -0.1759 -0.4734  0.1311
   35POPC  H18T 4727   5.475   0.090   9.133 -1.3586  0.6154 -1.2750
   35POPC   C33 4728   5.580  -0.593  10.580  0.1017 -0.2218  0.4761
   35POPC   H3X 4729   5.652  -0.660  10.633  0.2511  0.9387  1.7948
   35POPC   H3Y 4730   5.633  -0.496  10.574 -1.8521  0.8337 -0.8240
   35POPC   C34 4731   5.544  -0.634  10.431 -0.1522 -0.5594 -0.4600
   35POPC   H4X 4732   5.447  -0.581  10.414  0.3027  1.2383  1.9340
   35POPC   H4Y 4733   5.538  -0.745  10.428  1.2297 -0.7234  1.1341
   35POPC   C35 4734   5.644  -0.584  10.335 -0.0843  0.4172 -0.3749
   35POPC   H5X 4735   5.684  -0.489  10.375  0.8227 -0.3674  0.6237
   35POPC   H5Y 4736   5.590  -0.567  10.239  0.5505 -0.8051 -0.9649
   35POPC   C36 4737   5.766  -0.673  10.312  0.1573 -0.1556 -0.1878
   35POPC   H6X 4738   5.735  -0.774  10.277 -1.1325 -0.4203  1.6098
   35POPC   H6Y 4739   5.828  -0.675  10.404  0.8097  0.2944 -0.6143
   35POPC   C37 4740   5.854  -0.607  10.208 -0.1025 -0.3279  0.0233
   35POPC   H7X 4741   5.951  -0.661  10.220  0.1212 -0.0827 -0.6108
   35POPC   H7Y 4742   5.884  -0.501  10.217  2.5648 -0.7988 -1.9272
   35POPC   C38 4743   5.817  -0.636  10.063  0.2780  0.0809 -0.0771
   35POPC   H8X 4744   5.713  -0.601  10.044 -0.7880 -0.6446  3.7113
   35POPC   H8Y 4745   5.823  -0.745  10.043 -0.0665 -0.0988  0.7636
   35POPC   C39 4746   5.915  -0.577   9.959 -0.1708  0.7136  0.2029
   35POPC   H9X 4747   6.020  -0.589   9.993  0.1565  1.9016 -0.3239
   35POPC   H9Y 4748   5.904  -0.467   9.945  1.1987  0.6516 -1.8572
   35POPC  C310 4749   5.894  -0.641   9.821  0.4156 -0.8254  0.5416
   35POPC  H10X 4750   5.909  -0.749   9.840  0.2838 -0.8557  0.4807
   35POPC  H10Y 4751   5.974  -0.621   9.747 -0.3207  0.9272  0.1547
   35POPC  C311 4752   5.757  -0.614   9.748  0.2424  0.2270 -0.4486
   35POPC  H11X 4753   5.753  -0.504   9.733  2.2210  0.2691 -0.9374
   35POPC  H11Y 4754   5.679  -0.632   9.826  0.9585  0.6128  0.3765
   35POPC  C312 4755   5.751  -0.682   9.614  0.5297  0.3411 -0.0128
   35POPC  H12X 4756   5.740  -0.791   9.635 -2.4404  0.9291  2.0868
   35POPC  H12Y 4757   5.846  -0.652   9.564  1.8461 -0.6362  1.7907
   35POPC  C313 4758   5.625  -0.625   9.543 -0.4981 -0.0222 -0.6385
   35POPC  H13X 4759   5.651  -0.517   9.535  1.7367 -0.3892  0.7820
   35POPC  H13Y 4760   5.535  -0.625   9.608 -0.2925 -3.7236 -0.1273
   35POPC  C314 4761   5.596  -0.676   9.408 -0.3335  0.1891 -0.3666
   35POPC  H14X 4762   5.582  -0.786   9.410 -1.4115  0.3121  1.4783
   35POPC  H14Y 4763   5.677  -0.659   9.334 -1.8518  0.6950 -2.0034
   35POPC  C315 4764   5.479  -0.605   9.341 -0.3510  0.4654  0.8587
   35POPC  H15X 4765   5.476  -0.633   9.234  0.9239 -1.5327  1.2896
   35POPC  H15Y 4766   5.491  -0.495   9.337  0.0039  0.4641  1.6864
   35POPC  C316 4767   5.336  -0.631   9.395 -0.2619  0.5767 -0.3792
   35POPC  H16X 4768   5.254  -0.586   9.333  0.0156 -0.1875 -1.3248
   35POPC  H16Y 4769   5.331  -0.596   9.500 -0.7044  1.3718 -0.6528
   35POPC  H16Z 4770   5.320  -0.741   9.392  2.0183  0.2265 -0.9508
   36POPC     N 4771   0.480   4.583  11.574  0.3093 -0.1150 -0.1055
   36POPC   C12 4772   0.331   4.549  11.567 -1.3446  0.3445 -0.3178
   36POPC  H12A 4773   0.284   4.638  11.606 -0.8229 -0.1191  1.4219
   36POPC  H12B 4774   0.314   4.464  11.630  0.0218 -0.1956 -0.6442
   36POPC   C13 4775   0.566   4.460  11.548 -0.7764 -0.5604 -0.3168
   36POPC  H13A 4776   0.569   4.442  11.441 -1.3368 -0.4366 -0.3544
   36POPC  H13B 4777   0.663   4.482  11.591  0.1213 -1.1883 -1.9119
   36POPC  H13C 4778   0.525   4.369  11.589 -0.4039 -0.1697  0.9628
   36POPC   C14 4779   0.520   4.696  11.479 -0.1630  0.4484 -0.3027
   36POPC  H14A 4780   0.626   4.716  11.476 -0.2708  1.0094 -0.4956
   36POPC  H14B 4781   0.489   4.672  11.379 -1.8499  0.1779  0.2409
   36POPC  H14C 4782   0.454   4.780  11.496 -3.8693 -1.5854 -3.1559
   36POPC   C15 4783   0.510   4.639  11.714  0.2294  0.7299  0.3358
   36POPC  H15A 4784   0.615   4.663  11.727  0.1406  2.9899 -2.2973
   36POPC  H15B 4785   0.487   4.565  11.789 -1.3178  0.9660  0.1305
   36POPC  H15C 4786   0.462   4.733  11.737  0.8487  1.1140  0.0754
   36POPC   C11 4787   0.274   4.515  11.428 -0.5752  0.4621 -0.1496
   36POPC  H11A 4788   0.292   4.605  11.365  1.8739  1.3955  1.7061
   36POPC  H11B 4789   0.164   4.512  11.444 -0.7088  3.3250  0.0615
   36POPC     P 4790   0.364   4.378  11.224  0.0464  0.1095 -0.2270
   36POPC   O13 4791   0.313   4.252  11.172  0.2943  0.0555  0.3229
   36POPC   O14 4792   0.514   4.385  11.216 -0.2769  0.1629 -0.2141
   36POPC   O12 4793   0.324   4.389  11.379  0.0505 -0.3769  0.0946
   36POPC   O11 4794   0.298   4.503  11.148 -0.2069 -0.3410 -0.0438
   36POPC    C1 4795   0.171   4.493  11.086  0.9323  0.7722  0.1487
   36POPC    HA 4796   0.119   4.590  11.100 -1.5752 -0.4630  0.0454
   36POPC    HB 4797   0.109   4.410  11.126 -1.6790  2.5485  0.0137
   36POPC    C2 4798   0.170   4.490  10.933  0.0788 -0.4520  0.6049
   36POPC    HS 4799   0.212   4.389  10.913  1.6502  0.6424 -2.3823
   36POPC   O21 4800   0.267   4.588  10.893  0.0641 -0.2310  0.2129
   36POPC   C21 4801   0.343   4.561  10.788  0.0893  0.4152  0.0628
   36POPC   O22 4802   0.347   4.452  10.731 -0.6694  0.1470  0.0633
   36POPC   C22 4803   0.422   4.686  10.752 -0.2778  0.0552  0.7717
   36POPC   H2R 4804   0.511   4.691  10.818 -0.4708 -1.2443  1.1548
   36POPC   H2S 4805   0.360   4.773  10.785  0.4107  0.4987  0.9283
   36POPC    C3 4806   0.030   4.514  10.870 -0.0063 -0.0071  1.1711
   36POPC    HX 4807  -0.018   4.607  10.907 -0.2697  0.3784 -0.0843
   36POPC    HY 4808  -0.035   4.443  10.925 -0.4392  0.8554  1.7946
   36POPC   O31 4809   0.034   4.510  10.722  0.7254  0.1558 -0.6871
   36POPC   C31 4810   0.028   4.399  10.655  0.4140  0.7425 -0.0822
   36POPC   O32 4811   0.013   4.289  10.710 -0.1954  0.4844 -0.7161
   36POPC   C32 4812   0.020   4.429  10.504 -0.0907 -0.0733 -0.5476
   36POPC   H2X 4813   0.050   4.534  10.484  2.3202 -0.6428 -0.2833
   36POPC   H2Y 4814  -0.081   4.398  10.471 -2.1417  2.6438  2.5738
   36POPC   C23 4815   0.471   4.700  10.604  0.5644 -0.3202 -0.5863
   36POPC   H3R 4816   0.549   4.627  10.572  0.1222 -0.6293 -0.9699
   36POPC   H3S 4817   0.517   4.800  10.592 -2.1465  1.4144  2.0975
   36POPC   C24 4818   0.353   4.698  10.508  0.3192  0.5349  0.4917
   36POPC   H4R 4819   0.288   4.781  10.540 -0.4717  0.3564 -0.5882
   36POPC   H4S 4820   0.299   4.604  10.535 -2.3287  0.9568 -2.7303
   36POPC   C25 4821   0.393   4.713  10.361  0.1931 -1.3228 -0.0312
   36POPC   H5R 4822   0.447   4.619  10.335 -0.9094 -2.0895  0.3954
   36POPC   H5S 4823   0.470   4.794  10.360  0.3342 -1.4584 -0.2568
   36POPC   C26 4824   0.279   4.735  10.262  0.6134  0.2590  0.4088
   36POPC   H6R 4825   0.244   4.840  10.249 -0.1709 -0.0619 -0.1748
   36POPC   H6S 4826   0.186   4.688  10.302 -0.3313  0.2632 -1.6549
   36POPC   C27 4827   0.301   4.674  10.124  0.1638 -0.0261 -0.4837
   36POPC   H7R 4828   0.329   4.567  10.139  0.5723  0.4078  2.5740
   36POPC   H7S 4829   0.394   4.719  10.083 -0.0569 -1.4414 -2.6923
   36POPC   C28 4830   0.185   4.672  10.026  0.2854 -0.4568  0.3362
   36POPC   H8R 4831   0.087   4.645  10.072 -0.6478 -2.5797 -2.5175
   36POPC   H8S 4832   0.196   4.587   9.954 -0.2689  0.5907 -1.0330
   36POPC   C29 4833   0.166   4.799   9.952  0.7810 -0.2544  0.6812
   36POPC   H91 4834   0.103   4.874  10.001 -0.9055 -1.3344  0.2669
   36POPC  C210 4835   0.216   4.838   9.834  0.3718 -0.3326  0.2293
   36POPC  H101 4836   0.184   4.933   9.789 -0.0911 -0.9676 -0.8185
   36POPC  C211 4837   0.309   4.756   9.744  0.5271  0.3514  0.0095
   36POPC  H11R 4838   0.373   4.685   9.802  1.6256 -0.0377 -1.6092
   36POPC  H11S 4839   0.381   4.823   9.692 -1.8213  3.1463  0.1588
   36POPC  C212 4840   0.221   4.683   9.649 -0.1337  0.3209  0.0674
   36POPC  H12R 4841   0.167   4.597   9.695  0.5082 -1.1001 -1.7155
   36POPC  H12S 4842   0.287   4.628   9.578  0.6373 -0.6724  1.5150
   36POPC  C213 4843   0.133   4.777   9.569  0.9420 -0.0241 -0.0395
   36POPC  H13R 4844   0.179   4.871   9.531 -1.5132  1.9346  1.4782
   36POPC  H13S 4845   0.042   4.804   9.628 -0.1048 -0.9549 -1.1915
   36POPC  C214 4846   0.071   4.708   9.450  0.3292 -0.8705  1.1707
   36POPC  H14R 4847   0.156   4.664   9.393  0.8439  1.8746 -0.3633
   36POPC  H14S 4848   0.018   4.786   9.391  0.0311 -2.1921 -0.3866
   36POPC  C215 4849  -0.025   4.590   9.474 -0.2088  0.0398 -0.2434
   36POPC  H15R 4850  -0.094   4.611   9.558  0.8208 -1.0756  0.9217
   36POPC  H15S 4851   0.041   4.510   9.514 -1.9679 -0.6785  1.3677
   36POPC  C216 4852  -0.098   4.547   9.346 -0.1123  0.3942 -0.0494
   36POPC  H16R 4853  -0.144   4.637   9.302 -1.1564 -0.7218 -1.3379
   36POPC  H16S 4854  -0.174   4.468   9.365 -0.2668  0.4335 -0.4898
   36POPC  C217 4855  -0.004   4.498   9.244  0.4305  0.0195  0.0016
   36POPC  H17R 4856   0.061   4.415   9.279  0.3127 -0.7680 -1.5477
   36POPC  H17S 4857   0.070   4.570   9.203 -0.2539 -1.7969 -5.2948
   36POPC  C218 4858  -0.088   4.449   9.126 -0.1659  0.2028 -0.3496
   36POPC  H18R 4859  -0.025   4.407   9.045 -2.0972 -2.0257 -0.8001
   36POPC  H18S 4860  -0.148   4.535   9.091  3.2425  3.6417  1.4724
   36POPC  H18T 4861  -0.151   4.363   9.157 -0.9367  1.0804  0.5761
   36POPC   C33 4862   0.124   4.351  10.429 -0.2530  0.9587  0.5781
   36POPC   H3X 4863   0.107   4.242  10.417  3.0222  0.5516 -1.6335
   36POPC   H3Y 4864   0.215   4.358  10.493 -2.0177  0.5780  3.2902
   36POPC   C34 4865   0.134   4.391  10.283 -0.3302  0.1923  0.7848
   36POPC   H4X 4866   0.234   4.359  10.247 -0.5848 -1.1709  1.2372
   36POPC   H4Y 4867   0.118   4.500  10.272  0.9590  0.2786 -0.5404
   36POPC   C35 4868   0.033   4.311  10.196 -0.1557 -0.3472 -0.1819
   36POPC   H5X 4869  -0.070   4.331  10.231 -0.0117 -1.0632  0.7131
   36POPC   H5Y 4870   0.050   4.201  10.202  2.2619 -0.0230 -0.0835
   36POPC   C36 4871   0.036   4.358  10.051  0.3478  0.4067 -0.4992
   36POPC   H6X 4872   0.138   4.368  10.007 -0.1298  1.7959 -1.3644
   36POPC   H6Y 4873  -0.018   4.454  10.042 -0.4232  0.2377  1.7185
   36POPC   C37 4874  -0.034   4.247   9.962  0.1485  0.3047  0.3218
   36POPC   H7X 4875  -0.127   4.211  10.010  0.5543  0.2858  1.1126
   36POPC   H7Y 4876   0.033   4.159   9.968 -0.1771  0.0410  0.1084
   36POPC   C38 4877  -0.053   4.295   9.817 -0.3385  0.0836 -0.0010
   36POPC   H8X 4878   0.043   4.348   9.797  0.5893 -1.7810 -0.7330
   36POPC   H8Y 4879  -0.136   4.368   9.810 -0.2513  0.0651 -1.4900
   36POPC   C39 4880  -0.083   4.182   9.722  0.7746  0.6236  0.2829
   36POPC   H9X 4881  -0.177   4.130   9.749  1.3978 -0.1335  1.0281
   36POPC   H9Y 4882   0.003   4.113   9.710  2.2900  2.0146  2.5495
   36POPC  C310 4883  -0.112   4.233   9.585 -0.1402  0.4330  0.2572
   36POPC  H10X 4884  -0.020   4.283   9.546 -0.3855 -0.3218 -1.3877
   36POPC  H10Y 4885  -0.193   4.308   9.595 -0.2104  0.8889 -2.6920
   36POPC  C311 4886  -0.165   4.132   9.481  0.3851 -0.0604 -0.0549
   36POPC  H11X 4887  -0.224   4.191   9.408 -2.6576 -0.7964  1.6279
   36POPC  H11Y 4888  -0.243   4.064   9.521 -2.7230  2.2055 -1.8623
   36POPC  C312 4889  -0.061   4.051   9.404  0.6398  0.2797 -0.0546
   36POPC  H12X 4890  -0.038   3.968   9.474 -0.3620  1.8190  2.2022
   36POPC  H12Y 4891   0.024   4.121   9.385  0.1684  1.0864  0.7711
   36POPC  C313 4892  -0.096   3.988   9.268 -0.0666 -0.3088 -0.0614
   36POPC  H13X 4893  -0.167   3.903   9.271  0.2014 -0.5108  2.0374
   36POPC  H13Y 4894  -0.003   3.942   9.229 -0.0892  0.1518 -0.6765
   36POPC  C314 4895  -0.138   4.082   9.156 -0.0823 -0.6282 -0.6135
   36POPC  H14X 4896  -0.055   4.151   9.129  0.4569  0.3963  3.0519
   36POPC  H14Y 4897  -0.217   4.155   9.186  1.1574  0.4551  0.1813
   36POPC  C315 4898  -0.165   4.007   9.021  0.3958  0.5535 -0.5633
   36POPC  H15X 4899  -0.269   4.022   8.985 -0.5571  1.0971  2.2082
   36POPC  H15Y 4900  -0.151   3.897   9.032 -1.4031 -0.0348 -3.2460
   36POPC  C316 4901  -0.070   4.061   8.916  0.4551 -0.4104 -0.5080
   36POPC  H16X 4902  -0.109   4.021   8.820 -1.4113 -2.1005  0.8711
   36POPC  H16Y 4903   0.034   4.025   8.936 -0.2120 -1.9826  0.3830
   36POPC  H16Z 4904  -0.064   4.170   8.936  0.3627 -0.6925  1.2786
   37POPC     N 4905   6.199   6.608   6.766  0.1300  0.5756  0.0918
   37POPC   C12 4906   6.284   6.697   6.857 -0.6742  0.1330 -0.1432
   37POPC  H12A 4907   6.229   6.720   6.948 -0.2707 -0.3869  0.2420
   37POPC  H12B 4908   6.295   6.782   6.792  2.9655 -0.2661 -0.2406
   37POPC   C13 4909   6.091   6.685   6.693  0.4088  0.2041 -0.6617
   37POPC  H13A 4910   6.022   6.720   6.769  0.4959  0.5183 -0.7256
   37POPC  H13B 4911   6.127   6.772   6.639  0.3729 -2.1493 -4.9513
   37POPC  H13C 4912   6.035   6.624   6.624 -0.9765  1.5429 -0.7661
   37POPC   C14 4913   6.288   6.543   6.665  0.2709 -0.4979 -0.5212
   37POPC  H14A 4914   6.357   6.471   6.707 -0.1880 -0.8359 -0.3347
   37POPC  H14B 4915   6.234   6.478   6.598 -0.0098 -0.7930 -0.0181
   37POPC  H14C 4916   6.347   6.618   6.615  0.1375 -2.1578 -3.3422
   37POPC   C15 4917   6.130   6.503   6.850 -0.1705 -0.6312 -0.2385
   37POPC  H15A 4918   6.083   6.533   6.942  1.6757 -1.4777  1.0398
   37POPC  H15B 4919   6.206   6.429   6.871  1.5721  0.7571 -1.3678
   37POPC  H15C 4920   6.045   6.473   6.791  0.4577  0.5531 -1.8359
   37POPC   C11 4921   6.426   6.654   6.901  0.5844  0.9007  0.1283
   37POPC  H11A 4922   6.427   6.547   6.933  1.1775  0.8214 -0.1407
   37POPC  H11B 4923   6.451   6.720   6.986  0.0029  2.1225 -0.6175
   37POPC     P 4924   6.578   6.807   6.751 -0.1158 -0.0714 -0.0235
   37POPC   O13 4925   6.461   6.887   6.705  0.2385 -0.0443 -0.1469
   37POPC   O14 4926   6.687   6.787   6.648  0.3465 -0.0649 -0.2538
   37POPC   O12 4927   6.522   6.671   6.798  0.8304  0.1096 -0.0506
   37POPC   O11 4928   6.642   6.866   6.880 -0.4694 -0.3688 -0.2665
   37POPC    C1 4929   6.772   6.808   6.922  0.9499  0.2070  0.0931
   37POPC    HA 4930   6.855   6.881   6.910 -0.3681  1.5795 -1.0851
   37POPC    HB 4931   6.810   6.716   6.873  0.3251  0.3487 -0.6753
   37POPC    C2 4932   6.765   6.784   7.075 -1.3916  0.4997  0.7152
   37POPC    HS 4933   6.871   6.781   7.110 -0.5707  1.9742 -1.3621
   37POPC   O21 4934   6.699   6.662   7.110  0.2637  0.0598  0.0943
   37POPC   C21 4935   6.746   6.551   7.082 -0.2363 -0.4183  0.6009
   37POPC   O22 4936   6.860   6.530   7.039  0.5345 -0.2643 -0.2997
   37POPC   C22 4937   6.644   6.435   7.106  0.4992 -0.0269  0.1505
   37POPC   H2R 4938   6.592   6.427   7.008  1.7234 -2.3363 -0.3861
   37POPC   H2S 4939   6.571   6.472   7.181  0.9870  1.3972 -0.0480
   37POPC    C3 4940   6.684   6.892   7.144 -0.4977  0.2114 -0.2984
   37POPC    HX 4941   6.575   6.885   7.122 -0.2780 -1.9980 -0.9164
   37POPC    HY 4942   6.692   6.994   7.100  0.9443  0.4208  0.3930
   37POPC   O31 4943   6.723   6.901   7.280 -0.0004  0.2845  0.0617
   37POPC   C31 4944   6.632   6.892   7.366  0.6773 -1.1269  0.5630
   37POPC   O32 4945   6.517   6.858   7.350  0.1452 -0.3431  0.4082
   37POPC   C32 4946   6.684   6.906   7.515  1.0477 -0.1085  0.8438
   37POPC   H2X 4947   6.704   7.014   7.526 -1.9589  0.4371  1.9107
   37POPC   H2Y 4948   6.778   6.847   7.526  1.2928 -0.5759 -2.5852
   37POPC   C23 4949   6.708   6.299   7.143 -0.4382 -0.1700 -0.3134
   37POPC   H3R 4950   6.794   6.270   7.079 -0.1120 -0.7751  0.3860
   37POPC   H3S 4951   6.636   6.215   7.146  0.3815 -0.8638  0.1655
   37POPC   C24 4952   6.773   6.293   7.289  0.1323  0.4848 -0.0259
   37POPC   H4R 4953   6.852   6.371   7.299 -0.2553  0.8751  0.0150
   37POPC   H4S 4954   6.811   6.189   7.298 -3.9643 -0.9962  3.4887
   37POPC   C25 4955   6.667   6.318   7.392 -0.5267  0.1316 -0.7781
   37POPC   H5R 4956   6.574   6.259   7.378 -1.0807  0.3129  1.7550
   37POPC   H5S 4957   6.628   6.422   7.385 -4.1600 -1.1200 -1.8069
   37POPC   C26 4958   6.715   6.291   7.532 -0.1737 -0.0042  0.3480
   37POPC   H6R 4959   6.802   6.357   7.556  0.2347  0.0067 -1.0382
   37POPC   H6S 4960   6.766   6.192   7.538  1.1543  0.5440 -1.1617
   37POPC   C27 4961   6.604   6.317   7.634  0.4741 -0.7019  0.1087
   37POPC   H7R 4962   6.541   6.225   7.636 -0.9523  0.2352  2.7955
   37POPC   H7S 4963   6.537   6.395   7.591  0.1383 -0.1482  1.5950
   37POPC   C28 4964   6.661   6.370   7.768 -0.3918  0.6326 -0.0389
   37POPC   H8R 4965   6.580   6.430   7.814 -0.6314  2.8690 -3.0883
   37POPC   H8S 4966   6.739   6.449   7.762 -1.0258  1.3657  0.9817
   37POPC   C29 4967   6.713   6.258   7.860 -0.1249 -0.1519 -0.0375
   37POPC   H91 4968   6.822   6.270   7.860 -0.1907  0.7687  1.9491
   37POPC  C210 4969   6.644   6.168   7.926 -0.4499  1.1772  0.0674
   37POPC  H101 4970   6.690   6.096   7.996  1.1125  2.8597  0.8445
   37POPC  C211 4971   6.493   6.152   7.921  0.1325  0.8558 -0.0790
   37POPC  H11R 4972   6.471   6.051   7.880  0.9161  0.8382 -0.4686
   37POPC  H11S 4973   6.440   6.224   7.855  0.0710 -1.4842 -2.7982
   37POPC  C212 4974   6.437   6.165   8.065  0.7470 -0.3835  0.4151
   37POPC  H12R 4975   6.484   6.088   8.129 -2.5339 -1.7822  1.3558
   37POPC  H12S 4976   6.331   6.131   8.068  0.8306 -0.7841 -0.8531
   37POPC  C213 4977   6.438   6.310   8.119  0.2297 -0.3884  0.1616
   37POPC  H13R 4978   6.367   6.369   8.057  1.2333  0.1570 -0.5084
   37POPC  H13S 4979   6.536   6.361   8.109  0.4507 -0.6856  0.7547
   37POPC  C214 4980   6.403   6.307   8.265  0.1339 -0.4130 -0.1603
   37POPC  H14R 4981   6.463   6.242   8.332  0.4829 -0.2022 -0.2644
   37POPC  H14S 4982   6.296   6.284   8.284 -0.1249  0.6745 -0.2804
   37POPC  C215 4983   6.423   6.450   8.320 -0.0800 -0.5078 -0.0502
   37POPC  H15R 4984   6.351   6.512   8.263 -1.1875  0.5179  2.3367
   37POPC  H15S 4985   6.526   6.488   8.300 -0.4987  0.4152 -0.5087
   37POPC  C216 4986   6.384   6.466   8.469 -0.1763 -1.1497 -0.3402
   37POPC  H16R 4987   6.453   6.412   8.537  0.1826  2.0836  2.1321
   37POPC  H16S 4988   6.279   6.434   8.477 -0.0288 -2.4206 -2.6451
   37POPC  C217 4989   6.389   6.602   8.525 -0.6054 -0.3066 -0.5638
   37POPC  H17R 4990   6.308   6.667   8.487 -0.1373  1.3636  1.1558
   37POPC  H17S 4991   6.482   6.654   8.492 -0.4722 -1.2293 -1.7278
   37POPC  C218 4992   6.372   6.603   8.679 -0.1170 -0.4498  0.2639
   37POPC  H18R 4993   6.280   6.556   8.717 -0.8508  1.3241  0.8018
   37POPC  H18S 4994   6.376   6.709   8.711 -1.6585 -0.1224 -0.5444
   37POPC  H18T 4995   6.451   6.539   8.724 -1.3919 -0.9539  1.8692
   37POPC   C33 4996   6.590   6.861   7.628 -0.1349 -0.5396  0.1677
   37POPC   H3X 4997   6.586   6.750   7.629  2.1485 -0.6556  0.2487
   37POPC   H3Y 4998   6.487   6.898   7.611  0.1063  1.2224  2.1562
   37POPC   C34 4999   6.623   6.918   7.762 -0.7969  0.0574  0.1235
   37POPC   H4X 5000   6.614   7.027   7.743 -1.9187 -0.2538 -1.3185
   37POPC   H4Y 5001   6.726   6.890   7.792  0.9273  2.5868 -2.7556
   37POPC   C35 5002   6.547   6.864   7.883  0.2874  0.2790  0.8953
   37POPC   H5X 5003   6.567   6.755   7.897 -2.9162 -0.4296  0.8199
   37POPC   H5Y 5004   6.441   6.875   7.854  0.2244 -1.2595  0.4355
   37POPC   C36 5005   6.581   6.942   8.009  0.3922  0.2187 -0.2646
   37POPC   H6X 5006   6.543   7.044   7.986  1.4445  0.9308  1.0508
   37POPC   H6Y 5007   6.690   6.954   8.026  0.1680  2.0217  0.0309
   37POPC   C37 5008   6.511   6.893   8.140  0.8244 -0.0565  0.1799
   37POPC   H7X 5009   6.539   6.789   8.169  1.5359  0.7935  2.8827
   37POPC   H7Y 5010   6.402   6.896   8.118  1.1746 -0.2489 -1.7663
   37POPC   C38 5011   6.535   6.997   8.252 -0.2439 -0.3003  0.7063
   37POPC   H8X 5012   6.528   7.100   8.210 -0.3231 -0.6214 -0.0856
   37POPC   H8Y 5013   6.643   6.986   8.278 -0.5364 -2.0268  1.3102
   37POPC   C39 5014   6.454   6.975   8.379  0.0817  1.0773 -0.8180
   37POPC   H9X 5015   6.497   6.884   8.426 -1.9682  0.8047  0.6384
   37POPC   H9Y 5016   6.348   6.957   8.354  0.2447  0.5628 -1.1500
   37POPC  C310 5017   6.475   7.091   8.479 -0.4448 -0.1191  0.0366
   37POPC  H10X 5018   6.468   7.184   8.419  1.1735 -0.7978 -1.2956
   37POPC  H10Y 5019   6.581   7.100   8.512 -0.3484  4.5518 -0.8703
   37POPC  C311 5020   6.368   7.083   8.591 -0.0499 -0.0896  0.1800
   37POPC  H11X 5021   6.375   6.978   8.624 -1.0960 -0.5612 -0.9938
   37POPC  H11Y 5022   6.274   7.092   8.531  0.8047 -0.2517 -1.2354
   37POPC  C312 5023   6.377   7.181   8.701  0.4480 -0.0151 -0.0710
   37POPC  H12X 5024   6.480   7.208   8.733 -0.0785  2.1440  0.0102
   37POPC  H12Y 5025   6.333   7.142   8.795  0.5448  0.6169  0.2454
   37POPC  C313 5026   6.307   7.319   8.671  0.4237 -0.3869 -0.2351
   37POPC  H13X 5027   6.199   7.314   8.647  0.7694  0.5927 -2.2927
   37POPC  H13Y 5028   6.367   7.360   8.587  1.3239 -1.0213  0.0797
   37POPC  C314 5029   6.321   7.416   8.784 -0.3796 -0.1621 -0.2054
   37POPC  H14X 5030   6.418   7.396   8.834 -0.3069  1.1321  0.2124
   37POPC  H14Y 5031   6.255   7.396   8.872 -1.3985  2.7287 -0.2121
   37POPC  C315 5032   6.296   7.565   8.755  0.3552  0.1148 -0.2115
   37POPC  H15X 5033   6.290   7.607   8.858 -1.7884  0.8147 -0.5799
   37POPC  H15Y 5034   6.197   7.573   8.706  0.4203 -1.2212 -0.6053
   37POPC  C316 5035   6.398   7.644   8.674 -0.8529 -0.0420 -0.2929
   37POPC  H16X 5036   6.387   7.749   8.708 -1.4261 -0.3023  0.3463
   37POPC  H16Y 5037   6.394   7.630   8.564 -1.3014  1.2435 -0.4542
   37POPC  H16Z 5038   6.500   7.607   8.698 -0.1505  1.5320 -0.7422
   38POPC     N 5039   5.136   4.300   6.263  1.1458  0.3407 -0.9925
   38POPC   C12 5040   5.148   4.197   6.373 -0.2528  0.3211  0.5692
   38POPC  H12A 5041   5.138   4.104   6.319  1.0913 -0.8658  2.2625
   38POPC  H12B 5042   5.075   4.198   6.452  0.1173 -1.8297  1.0012
   38POPC   C13 5043   5.223   4.286   6.147  0.0059  0.0245  0.5997
   38POPC  H13A 5044   5.206   4.193   6.095  1.0448 -0.1519  0.5527
   38POPC  H13B 5045   5.204   4.365   6.076 -0.4043 -1.2482 -0.7627
   38POPC  H13C 5046   5.328   4.289   6.173  0.4286 -1.2374 -0.8300
   38POPC   C14 5047   4.992   4.287   6.220 -0.4623 -0.5886 -0.4844
   38POPC  H14A 5048   4.960   4.370   6.158 -0.9566  1.1399  1.9476
   38POPC  H14B 5049   4.987   4.195   6.163 -0.7558 -0.6355 -0.3860
   38POPC  H14C 5050   4.919   4.301   6.298 -0.8486 -0.5444 -0.8446
   38POPC   C15 5051   5.162   4.436   6.321 -0.4914 -0.5116  0.1756
   38POPC  H15A 5052   5.160   4.515   6.247 -1.6533 -0.1483  0.5704
   38POPC  H15B 5053   5.257   4.441   6.371  1.4972 -1.7879 -3.1112
   38POPC  H15C 5054   5.090   4.455   6.399  0.5977  1.1789  0.8214
   38POPC   C11 5055   5.285   4.189   6.435  0.0180 -0.0690  0.0433
   38POPC  H11A 5056   5.362   4.175   6.356  1.4167  0.5481  1.2367
   38POPC  H11B 5057   5.277   4.094   6.492 -0.8060  1.2139  2.1945
   38POPC     P 5058   5.453   4.340   6.559  0.1322  0.0254 -0.0055
   38POPC   O13 5059   5.470   4.483   6.522 -0.7100  0.3486  0.1752
   38POPC   O14 5060   5.548   4.240   6.496  0.0067 -0.0281  0.4830
   38POPC   O12 5061   5.310   4.296   6.529  0.6025  0.2456  0.1209
   38POPC   O11 5062   5.472   4.325   6.715 -0.5468  0.1708 -0.5671
   38POPC    C1 5063   5.358   4.329   6.801  0.3516 -0.3573  0.1350
   38POPC    HA 5064   5.277   4.260   6.768 -1.7714  1.3147  1.5744
   38POPC    HB 5065   5.321   4.434   6.809  1.7317  0.1920 -0.3939
   38POPC    C2 5066   5.405   4.278   6.942 -0.4031 -0.0573 -0.1818
   38POPC    HS 5067   5.319   4.276   7.013 -0.2777 -0.5886 -0.0417
   38POPC   O21 5068   5.505   4.365   6.997  0.3267 -0.2073  0.1802
   38POPC   C21 5069   5.461   4.478   7.046  0.3486  0.0984 -0.8825
   38POPC   O22 5070   5.340   4.510   7.052  0.1001  0.6968  0.6824
   38POPC   C22 5071   5.578   4.574   7.095  0.3185  0.1587 -0.1445
   38POPC   H2R 5072   5.516   4.662   7.125  1.3742  0.7417  0.3679
   38POPC   H2S 5073   5.639   4.596   7.005 -1.5181  2.1780 -1.0072
   38POPC    C3 5074   5.463   4.140   6.943 -0.7240  0.3224 -0.6259
   38POPC    HX 5075   5.563   4.140   6.893 -0.0367  0.4172  0.7209
   38POPC    HY 5076   5.398   4.081   6.875 -1.3964  1.3267 -0.8874
   38POPC   O31 5077   5.481   4.082   7.077  0.1929  0.3518 -0.0166
   38POPC   C31 5078   5.367   4.037   7.127 -0.4850 -0.0634 -0.3256
   38POPC   O32 5079   5.257   4.063   7.090  0.8726 -0.0133  0.4155
   38POPC   C32 5080   5.395   3.950   7.246 -0.5169 -0.5122 -0.3534
   38POPC   H2X 5081   5.472   3.883   7.203 -0.8510 -0.0543 -1.7289
   38POPC   H2Y 5082   5.314   3.878   7.270 -1.8733  0.7911 -0.8069
   38POPC   C23 5083   5.650   4.517   7.217 -0.3863  0.3210 -0.0966
   38POPC   H3R 5084   5.724   4.598   7.238  0.3822 -0.6357  1.0152
   38POPC   H3S 5085   5.703   4.432   7.170 -0.2115 -0.5912  1.6838
   38POPC   C24 5086   5.567   4.488   7.345 -0.3775 -0.0492 -0.0975
   38POPC   H4R 5087   5.500   4.402   7.320 -0.3226  0.5927 -2.7523
   38POPC   H4S 5088   5.499   4.575   7.356  0.3793  0.3824  1.3403
   38POPC   C25 5089   5.648   4.424   7.458  0.2422  0.3679 -0.1655
   38POPC   H5R 5090   5.737   4.491   7.467  0.2484  0.3702 -0.2459
   38POPC   H5S 5091   5.687   4.321   7.444 -1.7903 -0.4421 -0.0867
   38POPC   C26 5092   5.569   4.436   7.593  0.5200 -0.2003  0.1353
   38POPC   H6R 5093   5.469   4.390   7.579 -0.4085  1.6201  0.4553
   38POPC   H6S 5094   5.553   4.544   7.614  0.5073 -0.0350 -0.7078
   38POPC   C27 5095   5.645   4.385   7.719  0.0411 -0.7185 -0.6007
   38POPC   H7R 5096   5.752   4.411   7.705  0.0799 -1.0893 -1.0536
   38POPC   H7S 5097   5.642   4.274   7.711 -0.1298 -0.9950  2.1841
   38POPC   C28 5098   5.591   4.438   7.852  0.0519  0.3843 -0.1050
   38POPC   H8R 5099   5.488   4.396   7.849  0.9922 -2.0670 -0.7231
   38POPC   H8S 5100   5.586   4.549   7.843  2.0593  0.5601  0.5830
   38POPC   C29 5101   5.672   4.390   7.965  0.5249  0.0135 -0.9368
   38POPC   H91 5102   5.705   4.285   7.959 -1.8089 -0.9332  1.2138
   38POPC  C210 5103   5.707   4.466   8.073 -0.0302  0.4509 -0.8784
   38POPC  H101 5104   5.759   4.409   8.151 -1.2366  0.1220 -0.2916
   38POPC  C211 5105   5.680   4.611   8.114  0.2714  0.6767 -0.1931
   38POPC  H11R 5106   5.643   4.666   8.025 -2.5133  0.6224  0.8339
   38POPC  H11S 5107   5.765   4.675   8.147  0.0328  1.5355 -1.1667
   38POPC  C212 5108   5.570   4.620   8.221 -0.1630  0.0720 -0.2276
   38POPC  H12R 5109   5.608   4.577   8.316  0.5289  0.9927 -0.0740
   38POPC  H12S 5110   5.477   4.569   8.187 -1.4853  0.8489  2.0249
   38POPC  C213 5111   5.517   4.767   8.243 -0.7473 -0.4563  0.2379
   38POPC  H13R 5112   5.412   4.750   8.274 -0.8168  0.4365  0.5181
   38POPC  H13S 5113   5.524   4.822   8.147  2.0679 -0.1800  0.4953
   38POPC  C214 5114   5.602   4.855   8.343  0.3289 -0.4064 -0.5244
   38POPC  H14R 5115   5.529   4.924   8.391  0.6189 -1.0057  0.8161
   38POPC  H14S 5116   5.684   4.911   8.293 -0.2654 -0.4315 -1.5588
   38POPC  C215 5117   5.664   4.786   8.465 -0.5182  0.1255  0.2724
   38POPC  H15R 5118   5.755   4.731   8.430 -1.7400 -0.6505 -1.8815
   38POPC  H15S 5119   5.589   4.721   8.515 -2.0066  1.1741 -0.5519
   38POPC  C216 5120   5.710   4.888   8.565  0.5742  0.3396 -0.0068
   38POPC  H16R 5121   5.628   4.953   8.600 -0.1781  0.3379 -1.6810
   38POPC  H16S 5122   5.789   4.939   8.506  1.6926 -3.5160 -2.1778
   38POPC  C217 5123   5.769   4.822   8.693 -0.1941  0.0931  0.3112
   38POPC  H17R 5124   5.874   4.792   8.671 -0.5128  0.8071 -2.7271
   38POPC  H17S 5125   5.707   4.733   8.720  0.4469  0.1139  1.9479
   38POPC  C218 5126   5.767   4.920   8.805  0.2769 -0.7845  0.0571
   38POPC  H18R 5127   5.788   4.862   8.897 -0.9806 -2.0479 -0.4030
   38POPC  H18S 5128   5.665   4.961   8.821  0.7305  0.3896  0.0238
   38POPC  H18T 5129   5.833   5.008   8.792 -2.8315  2.0328  1.9206
   38POPC   C33 5130   5.452   4.025   7.365 -0.5260 -0.3984  0.3797
   38POPC   H3X 5131   5.379   4.109   7.378  1.0921  1.4214 -1.4284
   38POPC   H3Y 5132   5.537   4.089   7.333  0.0906 -1.1308  0.5292
   38POPC   C34 5133   5.476   3.941   7.492 -0.4885  0.2789  0.4312
   38POPC   H4X 5134   5.573   3.889   7.478 -0.3961  0.3252  0.8881
   38POPC   H4Y 5135   5.403   3.858   7.502 -0.4917  0.4242  1.8687
   38POPC   C35 5136   5.481   4.034   7.613 -0.1103 -0.2066  0.6361
   38POPC   H5X 5137   5.388   4.094   7.624 -0.0310 -0.0547  0.4851
   38POPC   H5Y 5138   5.563   4.108   7.599  0.6409 -1.0784  0.3393
   38POPC   C36 5139   5.490   3.953   7.740 -0.2366 -0.5167 -0.2507
   38POPC   H6X 5140   5.587   3.899   7.731 -0.1067 -0.3204 -0.0152
   38POPC   H6Y 5141   5.407   3.879   7.750 -0.5575 -0.0375  0.7646
   38POPC   C37 5142   5.471   4.053   7.859  0.5993 -0.1453 -0.1634
   38POPC   H7X 5143   5.365   4.088   7.856  0.4248 -0.6046  0.3864
   38POPC   H7Y 5144   5.538   4.140   7.847  0.0643  0.3107  0.0808
   38POPC   C38 5145   5.500   3.988   7.986  0.2432 -0.5338 -0.5323
   38POPC   H8X 5146   5.605   3.951   7.988 -0.1131 -1.6866 -1.9206
   38POPC   H8Y 5147   5.433   3.900   7.993  0.7526 -0.9230 -0.5044
   38POPC   C39 5148   5.467   4.077   8.111 -1.0831 -0.6147  0.6185
   38POPC   H9X 5149   5.366   4.121   8.095 -0.1580  0.7179 -2.2051
   38POPC   H9Y 5150   5.545   4.156   8.118  0.9946 -2.4385 -0.6948
   38POPC  C310 5151   5.460   3.999   8.243 -0.3714 -0.3238  0.1911
   38POPC  H10X 5152   5.562   3.988   8.284 -0.5679  2.0900  1.4929
   38POPC  H10Y 5153   5.424   3.900   8.207 -0.7996  0.0121 -0.3260
   38POPC  C311 5154   5.350   4.053   8.338 -0.0305 -0.2923 -0.9088
   38POPC  H11X 5155   5.347   4.001   8.436  2.6807 -0.8021 -1.0272
   38POPC  H11Y 5156   5.246   4.032   8.303  0.0750 -1.2381 -0.6844
   38POPC  C312 5157   5.360   4.203   8.361  0.0932  0.2606  0.2956
   38POPC  H12X 5158   5.265   4.233   8.411 -0.4417 -0.2113 -0.4263
   38POPC  H12Y 5159   5.369   4.256   8.264  0.6244  0.5809  0.5138
   38POPC  C313 5160   5.488   4.242   8.445 -0.4821  0.8055  0.1495
   38POPC  H13X 5161   5.583   4.243   8.386  0.0281 -2.8760  0.7115
   38POPC  H13Y 5162   5.502   4.162   8.521  1.4428  2.7446  2.0055
   38POPC  C314 5163   5.480   4.371   8.529  0.4540 -0.1727 -0.5259
   38POPC  H14X 5164   5.387   4.363   8.590  1.6229 -1.7148  1.1933
   38POPC  H14Y 5165   5.458   4.459   8.465  0.2925 -0.9874 -1.6259
   38POPC  C315 5166   5.597   4.404   8.624  0.8121  0.1521 -0.2925
   38POPC  H15X 5167   5.589   4.506   8.668  0.6068  0.4094 -0.9092
   38POPC  H15Y 5168   5.700   4.395   8.582  0.2470 -0.7010 -1.5421
   38POPC  C316 5169   5.592   4.309   8.746 -0.0905 -0.6843  0.4859
   38POPC  H16X 5170   5.525   4.356   8.821 -0.6978 -0.6161 -0.0898
   38POPC  H16Y 5171   5.689   4.311   8.800  0.5154 -0.0835 -0.5761
   38POPC  H16Z 5172   5.571   4.202   8.726  0.7317 -0.6869 -0.4736
   39POPC     N 5173   4.889   5.736   6.219 -0.2003 -0.2778  0.6793
   39POPC   C12 5174   4.895   5.829   6.340 -0.2690  0.0035 -0.1400
   39POPC  H12A 5175   4.980   5.797   6.398  0.4014 -0.3787 -1.3044
   39POPC  H12B 5176   4.809   5.812   6.402  0.1197  0.3101  0.4898
   39POPC   C13 5177   4.771   5.785   6.132 -0.1504 -0.1866 -0.4207
   39POPC  H13A 5178   4.681   5.756   6.185  0.2886 -1.0219 -0.1219
   39POPC  H13B 5179   4.780   5.885   6.092 -1.0633 -0.0511 -0.3261
   39POPC  H13C 5180   4.777   5.722   6.045  1.2995 -1.7837  0.7788
   39POPC   C14 5181   5.017   5.751   6.149  0.5694  0.5186 -0.0139
   39POPC  H14A 5182   5.032   5.857   6.131  2.2122  0.3287  0.0447
   39POPC  H14B 5183   5.100   5.708   6.203  0.1885 -2.6934 -1.7973
   39POPC  H14C 5184   5.011   5.699   6.055 -0.7227  0.9972 -0.2219
   39POPC   C15 5185   4.878   5.591   6.257  0.0599  0.6955 -0.5515
   39POPC  H15A 5186   4.857   5.537   6.166  1.9920  0.1248 -0.7093
   39POPC  H15B 5187   4.797   5.571   6.326  0.5951 -1.0750 -0.3726
   39POPC  H15C 5188   4.967   5.551   6.304  1.2515  1.4228 -2.1267
   39POPC   C11 5189   4.904   5.991   6.331  0.3335 -0.1385 -0.3231
   39POPC  H11A 5190   4.864   6.043   6.421 -0.3479 -0.6441 -0.3264
   39POPC  H11B 5191   4.841   6.023   6.246  2.9835  0.9012 -2.0228
   39POPC     P 5192   5.165   6.047   6.383  0.2303  0.0063 -0.0975
   39POPC   O13 5193   5.243   6.156   6.325 -0.7169  0.3946  0.3387
   39POPC   O14 5194   5.236   5.922   6.398  0.2750  0.1638  0.2171
   39POPC   O12 5195   5.038   6.028   6.293  0.3183  0.2705  0.5146
   39POPC   O11 5196   5.110   6.090   6.524  0.0351 -0.6414 -0.9600
   39POPC    C1 5197   5.126   5.999   6.632  0.2897 -0.0247 -0.3919
   39POPC    HA 5198   5.235   5.994   6.648  0.1205  1.9134  1.7266
   39POPC    HB 5199   5.081   5.902   6.600 -1.8708  2.2722 -5.5907
   39POPC    C2 5200   5.063   6.050   6.755  0.0099 -0.3685 -0.0146
   39POPC    HS 5201   4.954   6.063   6.738 -0.0917 -2.0335 -0.8121
   39POPC   O21 5202   5.128   6.180   6.796  0.9667 -0.1810  0.2464
   39POPC   C21 5203   5.048   6.258   6.873  0.0443  0.1209 -0.1961
   39POPC   O22 5204   4.934   6.230   6.903  0.5321 -0.1124 -0.5678
   39POPC   C22 5205   5.115   6.383   6.922  0.4054  0.2243  0.5455
   39POPC   H2R 5206   5.088   6.456   6.843  0.0247  0.1935  0.6461
   39POPC   H2S 5207   5.225   6.366   6.911  0.2843 -0.9826  1.0566
   39POPC    C3 5208   5.080   5.944   6.875 -0.2758 -0.5600  0.4813
   39POPC    HX 5209   5.187   5.944   6.903 -0.3876 -0.0657  0.9309
   39POPC    HY 5210   5.074   5.842   6.831  1.0582 -0.3637 -0.2231
   39POPC   O31 5211   4.987   5.969   6.983  0.1310 -0.4827 -0.6010
   39POPC   C31 5212   5.009   5.901   7.095  0.2292  0.2522  0.5595
   39POPC   O32 5213   5.098   5.819   7.101  0.7266  0.1483 -0.0450
   39POPC   C32 5214   4.910   5.942   7.198  0.1630 -0.2087 -0.0916
   39POPC   H2X 5215   4.876   6.046   7.181  0.1005  0.1054  1.7467
   39POPC   H2Y 5216   4.829   5.866   7.187  0.2316 -0.0116 -2.6231
   39POPC   C23 5217   5.076   6.428   7.059  0.5015 -0.9366  0.4556
   39POPC   H3R 5218   4.965   6.431   7.056  0.5281 -0.7453 -0.5108
   39POPC   H3S 5219   5.117   6.531   7.062  2.1466 -1.5692  1.1947
   39POPC   C24 5220   5.142   6.345   7.164  0.3226 -0.2134  0.1664
   39POPC   H4R 5221   5.253   6.342   7.165  0.3158 -0.7980 -0.4481
   39POPC   H4S 5222   5.099   6.243   7.153 -0.8431  0.3433 -0.7569
   39POPC   C25 5223   5.099   6.400   7.301 -0.9089  0.2310  0.4628
   39POPC   H5R 5224   4.990   6.386   7.318 -1.6205  2.9546 -1.1966
   39POPC   H5S 5225   5.121   6.508   7.313  0.4052  0.0723 -0.3585
   39POPC   C26 5226   5.171   6.316   7.406  0.1709 -0.4385 -0.2236
   39POPC   H6R 5227   5.281   6.332   7.399 -0.1433  1.9875 -0.5516
   39POPC   H6S 5228   5.148   6.207   7.403 -1.8825 -0.0224 -1.1433
   39POPC   C27 5229   5.112   6.364   7.544 -0.3076  0.2001  0.0524
   39POPC   H7R 5230   5.022   6.304   7.570 -0.5509 -1.2700 -3.4877
   39POPC   H7S 5231   5.078   6.467   7.523  0.4116  0.1792 -1.3985
   39POPC   C28 5232   5.218   6.381   7.653 -0.4713  0.9992  0.4539
   39POPC   H8R 5233   5.321   6.405   7.618 -0.4948  1.1860  0.5158
   39POPC   H8S 5234   5.230   6.276   7.688 -1.6662  0.9749  0.8177
   39POPC   C29 5235   5.185   6.478   7.764 -0.1547 -0.4108 -0.0980
   39POPC   H91 5236   5.113   6.555   7.734 -0.1094 -0.6629 -0.8687
   39POPC  C210 5237   5.214   6.462   7.895 -0.0743 -0.9247 -0.1148
   39POPC  H101 5238   5.180   6.540   7.966 -0.7329 -1.2658 -0.0472
   39POPC  C211 5239   5.300   6.353   7.943 -1.6659  0.5998 -0.5206
   39POPC  H11R 5240   5.408   6.377   7.929 -1.5105  0.7920  0.9284
   39POPC  H11S 5241   5.284   6.256   7.892  1.1050 -0.6882  0.8778
   39POPC  C212 5242   5.278   6.332   8.092  0.3655  0.4888 -0.0548
   39POPC  H12R 5243   5.172   6.302   8.108  0.7779 -1.7404 -1.1603
   39POPC  H12S 5244   5.295   6.432   8.138 -0.4633 -0.6795  2.9887
   39POPC  C213 5245   5.372   6.231   8.168  0.0950  0.0290 -0.1370
   39POPC  H13R 5246   5.467   6.284   8.187  1.0769 -1.7582  0.2225
   39POPC  H13S 5247   5.397   6.138   8.112 -0.5866  0.5962 -1.4509
   39POPC  C214 5248   5.321   6.194   8.306  0.0629 -0.1256 -0.1583
   39POPC  H14R 5249   5.396   6.125   8.350  1.6547  0.9426 -1.0837
   39POPC  H14S 5250   5.231   6.134   8.280  0.8205 -1.2810 -0.2083
   39POPC  C215 5251   5.296   6.314   8.403 -0.0963 -0.9620 -0.0861
   39POPC  H15R 5252   5.212   6.370   8.356 -3.2067 -1.1648  4.6120
   39POPC  H15S 5253   5.385   6.380   8.402 -1.6160  1.1961  0.1513
   39POPC  C216 5254   5.251   6.273   8.541  0.3196  0.2021 -0.9140
   39POPC  H16R 5255   5.160   6.213   8.519 -1.6707  1.7474  2.3666
   39POPC  H16S 5256   5.210   6.347   8.613  2.4786 -0.3801  1.0183
   39POPC  C217 5257   5.349   6.201   8.624 -0.1473  0.0029 -0.9620
   39POPC  H17R 5258   5.417   6.277   8.669 -1.3730 -0.3678  1.7212
   39POPC  H17S 5259   5.402   6.123   8.564  0.9809 -0.4358  0.5537
   39POPC  C218 5260   5.283   6.133   8.741 -0.9643  0.4786 -0.5749
   39POPC  H18R 5261   5.173   6.123   8.741 -1.1237  1.6798  1.9996
   39POPC  H18S 5262   5.316   6.184   8.834  0.5646 -1.6622  0.1319
   39POPC  H18T 5263   5.328   6.032   8.752  0.0116  0.9550 -0.0526
   39POPC   C33 5264   4.983   5.945   7.338 -0.5027 -0.7333  1.7833
   39POPC   H3X 5265   5.087   5.982   7.328 -0.9137  0.1892  0.6828
   39POPC   H3Y 5266   4.991   5.835   7.353 -1.5217 -0.8906  1.3011
   39POPC   C34 5267   4.911   6.003   7.457  0.2073  0.3894  0.4689
   39POPC   H4X 5268   4.815   5.947   7.460  2.0002 -2.9080  1.3588
   39POPC   H4Y 5269   4.904   6.114   7.447 -1.6005  0.4649  1.9575
   39POPC   C35 5270   4.985   5.971   7.590  0.1231  0.1017  0.8199
   39POPC   H5X 5271   5.085   6.017   7.581  0.6434 -1.3321 -2.1632
   39POPC   H5Y 5272   5.008   5.862   7.585  1.6111  0.3975  0.7781
   39POPC   C36 5273   4.899   6.009   7.718 -0.1061 -0.9876  1.3984
   39POPC   H6X 5274   4.944   5.967   7.810  3.0939  1.6829  1.1939
   39POPC   H6Y 5275   4.795   5.970   7.711 -0.5158  0.0662  1.4567
   39POPC   C37 5276   4.886   6.157   7.743 -0.2965  0.4033 -0.0906
   39POPC   H7X 5277   4.857   6.205   7.647 -2.1790 -0.4070  0.0200
   39POPC   H7Y 5278   4.986   6.186   7.781  0.1626 -2.5908  1.2730
   39POPC   C38 5279   4.787   6.184   7.857  0.1251  0.4081  0.5413
   39POPC   H8X 5280   4.836   6.128   7.941 -0.6573 -0.1426  0.6446
   39POPC   H8Y 5281   4.692   6.132   7.833 -0.4921  2.5326 -2.0452
   39POPC   C39 5282   4.766   6.327   7.888  0.5990  0.0156  0.1447
   39POPC   H9X 5283   4.752   6.394   7.800 -0.9238  2.4255  2.0824
   39POPC   H9Y 5284   4.856   6.362   7.943  0.2269 -0.6948  1.2497
   39POPC  C310 5285   4.658   6.351   7.994  1.1775 -0.1787  0.4196
   39POPC  H10X 5286   4.559   6.313   7.962  0.8830  0.0146  1.0684
   39POPC  H10Y 5287   4.644   6.460   8.014 -2.5737 -0.4547 -0.0087
   39POPC  C311 5288   4.699   6.292   8.128  0.5385 -0.5789 -0.6463
   39POPC  H11X 5289   4.800   6.336   8.146  0.4516  0.6984 -2.8465
   39POPC  H11Y 5290   4.705   6.182   8.121  1.5069 -0.5639 -0.2251
   39POPC  C312 5291   4.606   6.339   8.239  0.2808  0.1444  0.0042
   39POPC  H12X 5292   4.592   6.448   8.224  0.7618  0.2776  0.5337
   39POPC  H12Y 5293   4.654   6.327   8.338  0.7715  2.2571  0.0597
   39POPC  C313 5294   4.485   6.247   8.239 -0.8128 -0.2339 -0.1908
   39POPC  H13X 5295   4.506   6.140   8.216  0.6720 -0.0814  0.3356
   39POPC  H13Y 5296   4.409   6.272   8.163 -0.6389 -3.0425 -1.4169
   39POPC  C314 5297   4.414   6.255   8.373 -0.1177  0.3319 -0.0669
   39POPC  H14X 5298   4.378   6.358   8.394  1.5326  0.8679  0.3451
   39POPC  H14Y 5299   4.483   6.244   8.459  2.4150  2.3304 -1.6803
   39POPC  C315 5300   4.290   6.160   8.374  0.7066 -0.6532 -0.1242
   39POPC  H15X 5301   4.213   6.206   8.307  1.6498  1.4587  0.1658
   39POPC  H15Y 5302   4.262   6.154   8.481  1.0264 -1.7853 -0.0893
   39POPC  C316 5303   4.309   6.018   8.321  0.7943  0.1028 -0.1023
   39POPC  H16X 5304   4.219   5.954   8.330  1.3769 -0.4567  2.3903
   39POPC  H16Y 5305   4.393   5.977   8.381  0.0861 -0.4804  0.5093
   39POPC  H16Z 5306   4.326   6.027   8.212  1.4383  1.3178  0.0715
   40POPC     N 5307   2.937   2.660   6.198 -0.1792 -0.1204 -0.2987
   40POPC   C12 5308   2.802   2.712   6.153  0.5008 -0.1309  0.4881
   40POPC  H12A 5309   2.731   2.663   6.219 -0.1428  0.5646  0.3259
   40POPC  H12B 5310   2.785   2.680   6.052 -2.0035 -0.5851  0.9724
   40POPC   C13 5311   2.959   2.516   6.159  0.5228 -0.6343 -0.0712
   40POPC  H13A 5312   2.932   2.500   6.055 -0.7667 -4.1548  0.6792
   40POPC  H13B 5313   3.057   2.478   6.184  0.6563  0.3701  1.0067
   40POPC  H13C 5314   2.883   2.465   6.216  0.4151  0.3119  0.6401
   40POPC   C14 5315   3.049   2.735   6.131 -0.2018 -0.3950  0.0095
   40POPC  H14A 5316   3.042   2.841   6.151  1.2714 -0.0399 -1.1809
   40POPC  H14B 5317   3.145   2.705   6.170 -0.2344  1.1549  1.4064
   40POPC  H14C 5318   3.042   2.717   6.025  0.9548 -4.3481  0.4362
   40POPC   C15 5319   2.946   2.670   6.345 -0.1025  0.6895 -0.4089
   40POPC  H15A 5320   2.872   2.605   6.388  0.9645 -2.1799 -2.5967
   40POPC  H15B 5321   2.924   2.773   6.370 -0.0680  0.4324  0.7326
   40POPC  H15C 5322   3.039   2.636   6.386  0.7622  0.3659 -2.5257
   40POPC   C11 5323   2.769   2.862   6.173 -0.7079  0.4374 -0.3994
   40POPC  H11A 5324   2.670   2.882   6.128 -0.0639  0.3158 -1.9209
   40POPC  H11B 5325   2.847   2.911   6.111  1.0803 -2.8362 -0.9762
   40POPC     P 5326   2.778   3.052   6.347 -0.4736 -0.1369 -0.0569
   40POPC   O13 5327   2.674   3.122   6.268 -0.1036 -0.7396  0.1269
   40POPC   O14 5328   2.917   3.095   6.316 -0.0768 -0.5504 -0.2510
   40POPC   O12 5329   2.776   2.898   6.314 -0.0509  0.6075 -0.0339
   40POPC   O11 5330   2.749   3.058   6.505  0.0723  0.6682 -0.2690
   40POPC    C1 5331   2.794   2.953   6.593 -0.4053  0.5461  0.0374
   40POPC    HA 5332   2.878   2.896   6.548 -1.0145  1.3308 -2.2441
   40POPC    HB 5333   2.713   2.887   6.628  0.6576 -1.3476 -0.9198
   40POPC    C2 5334   2.858   3.010   6.724 -0.3030 -0.0084  0.6111
   40POPC    HS 5335   2.892   2.934   6.798 -0.5222  1.2461  2.0550
   40POPC   O21 5336   2.763   3.104   6.785  0.1287 -0.1023 -0.1083
   40POPC   C21 5337   2.678   3.050   6.869 -0.1110  0.0151 -0.4160
   40POPC   O22 5338   2.685   2.934   6.905  1.0078 -0.0815  0.1709
   40POPC   C22 5339   2.569   3.145   6.921 -0.3128  0.3187 -0.2308
   40POPC   H2R 5340   2.471   3.108   6.885 -0.3463  1.6825 -1.6131
   40POPC   H2S 5341   2.590   3.247   6.884 -1.5300  1.4185  1.9322
   40POPC    C3 5342   2.986   3.099   6.692 -0.7516  0.5427 -0.0498
   40POPC    HX 5343   2.977   3.111   6.582  1.9482 -3.9332 -1.0010
   40POPC    HY 5344   3.079   3.039   6.690 -0.6744  0.6699 -0.3196
   40POPC   O31 5345   2.999   3.219   6.768  0.2736 -0.2977  0.1492
   40POPC   C31 5346   3.033   3.187   6.899  0.1869  0.2281 -0.1294
   40POPC   O32 5347   3.060   3.076   6.938  0.1059  0.3601 -0.3092
   40POPC   C32 5348   3.037   3.308   6.995 -0.4312 -0.1279  0.9943
   40POPC   H2X 5349   2.993   3.395   6.942  0.5179 -0.3370 -0.1858
   40POPC   H2Y 5350   3.145   3.318   7.016 -0.1763 -1.8392  0.6955
   40POPC   C23 5351   2.559   3.158   7.075 -0.3733  0.8965  0.0238
   40POPC   H3R 5352   2.657   3.151   7.127 -1.9315 -0.9444  2.9375
   40POPC   H3S 5353   2.512   3.063   7.110  2.4736 -2.0589 -3.2738
   40POPC   C24 5354   2.482   3.280   7.128  0.2431  0.9379 -0.8747
   40POPC   H4R 5355   2.387   3.294   7.072  0.2759  3.9272 -0.3325
   40POPC   H4S 5356   2.542   3.372   7.116  0.2740  0.8552 -1.3958
   40POPC   C25 5357   2.449   3.264   7.284  0.1979 -0.5082  0.0320
   40POPC   H5R 5358   2.417   3.160   7.306 -0.5149 -0.0415  1.3355
   40POPC   H5S 5359   2.370   3.333   7.322  0.6595  0.3814 -0.5920
   40POPC   C26 5360   2.580   3.286   7.370  0.0989 -0.0035 -0.5042
   40POPC   H6R 5361   2.596   3.395   7.387  0.6908  0.3271 -2.8192
   40POPC   H6S 5362   2.666   3.244   7.313  0.2148 -0.2019 -0.1868
   40POPC   C27 5363   2.582   3.207   7.508 -0.6822 -0.3755  0.1179
   40POPC   H7R 5364   2.568   3.098   7.496 -1.3437 -0.3962  0.9713
   40POPC   H7S 5365   2.493   3.231   7.569 -1.1734 -2.3887  0.2552
   40POPC   C28 5366   2.706   3.238   7.594  0.0859  0.1621 -0.3416
   40POPC   H8R 5367   2.688   3.213   7.700 -0.8504  2.2460  0.0307
   40POPC   H8S 5368   2.723   3.348   7.592 -1.6091  0.5927  2.6944
   40POPC   C29 5369   2.833   3.170   7.541 -0.6030  0.5895 -0.0334
   40POPC   H91 5370   2.859   3.199   7.438  0.3889  0.3015  0.1243
   40POPC  C210 5371   2.906   3.082   7.609  0.1444 -0.7326 -0.1145
   40POPC  H101 5372   2.983   3.020   7.561  0.0280 -0.0801 -1.1903
   40POPC  C211 5373   2.875   3.045   7.750 -0.3248 -0.7273  0.5176
   40POPC  H11R 5374   2.957   2.975   7.778 -1.7098 -2.4679  0.4079
   40POPC  H11S 5375   2.775   2.996   7.751 -0.3199 -0.8933 -1.7508
   40POPC  C212 5376   2.896   3.156   7.848  0.1774 -0.0917  0.2197
   40POPC  H12R 5377   2.854   3.251   7.808 -1.4719 -1.6492 -2.0017
   40POPC  H12S 5378   3.004   3.175   7.862 -0.2937  2.9907  0.2746
   40POPC  C213 5379   2.846   3.124   7.991  0.0883  0.7305  0.5419
   40POPC  H13R 5380   2.745   3.078   7.993 -0.1843  1.1536 -1.3136
   40POPC  H13S 5381   2.830   3.221   8.044 -2.8220 -0.4639  2.0613
   40POPC  C214 5382   2.939   3.033   8.066 -0.1852 -0.5132  0.1196
   40POPC  H14R 5383   3.041   3.076   8.078 -0.1390 -1.2977  3.5206
   40POPC  H14S 5384   2.949   2.938   8.011  0.3259 -0.3650 -0.0548
   40POPC  C215 5385   2.883   3.016   8.215  0.3447 -0.7088  0.0719
   40POPC  H15R 5386   2.774   2.992   8.208 -0.1702  1.3251  0.4663
   40POPC  H15S 5387   2.906   3.110   8.270  3.1154 -1.0832 -0.3203
   40POPC  C216 5388   2.949   2.900   8.297 -0.0396  0.3438 -0.3463
   40POPC  H16R 5389   2.941   2.806   8.238 -0.3421 -0.5995  1.1376
   40POPC  H16S 5390   2.891   2.874   8.388  0.5546  0.0725 -0.0399
   40POPC  C217 5391   3.093   2.932   8.318 -0.4569 -0.2060 -0.0054
   40POPC  H17R 5392   3.104   3.030   8.369  5.0121 -1.2620  1.4648
   40POPC  H17S 5393   3.141   2.948   8.219 -0.3134 -1.3179 -0.1227
   40POPC  C218 5394   3.161   2.832   8.412  0.1235  0.1616  0.5313
   40POPC  H18R 5395   3.184   2.737   8.358 -1.0588 -1.3534  2.5245
   40POPC  H18S 5396   3.084   2.795   8.484 -0.3601 -0.7016 -0.3945
   40POPC  H18T 5397   3.256   2.861   8.462  1.2766  0.0485 -1.4688
   40POPC   C33 5398   2.982   3.269   7.130  0.0523  0.3407 -0.2602
   40POPC   H3X 5399   3.006   3.169   7.172 -1.7410  0.1116  0.2863
   40POPC   H3Y 5400   2.872   3.263   7.121  0.0522 -0.7925  0.2976
   40POPC   C34 5401   3.021   3.373   7.237  0.3498 -0.3769 -0.4708
   40POPC   H4X 5402   2.961   3.337   7.323  1.3963 -2.5584 -0.5931
   40POPC   H4Y 5403   2.980   3.475   7.221 -0.7615 -0.5315  1.2329
   40POPC   C35 5404   3.170   3.392   7.274  0.2495  0.1730 -0.7946
   40POPC   H5X 5405   3.224   3.453   7.198 -1.3707  1.8612 -0.6542
   40POPC   H5Y 5406   3.214   3.294   7.300 -2.5171 -0.7315  0.8720
   40POPC   C36 5407   3.194   3.485   7.393  0.9979  0.2220 -0.1933
   40POPC   H6X 5408   3.115   3.561   7.375 -0.9681 -1.9945 -1.5285
   40POPC   H6Y 5409   3.294   3.532   7.381  0.8205  1.3584  2.1372
   40POPC   C37 5410   3.187   3.416   7.531 -0.1733  0.0767 -0.5463
   40POPC   H7X 5411   3.282   3.363   7.552  0.9643  2.1664 -0.1197
   40POPC   H7Y 5412   3.101   3.345   7.536 -1.4681  1.5598 -0.8661
   40POPC   C38 5413   3.177   3.509   7.651 -0.2356 -0.1037  0.3478
   40POPC   H8X 5414   3.082   3.566   7.645  0.8402  1.8646  1.0409
   40POPC   H8Y 5415   3.257   3.586   7.650  1.2942 -1.6398 -0.2855
   40POPC   C39 5416   3.189   3.434   7.788 -0.2043  0.7531  0.2574
   40POPC   H9X 5417   3.289   3.386   7.798 -0.4657 -0.5358 -2.4792
   40POPC   H9Y 5418   3.113   3.353   7.789  1.4971 -0.9205  1.4008
   40POPC  C310 5419   3.153   3.526   7.906 -0.5820  0.0242  0.5711
   40POPC  H10X 5420   3.059   3.582   7.889  0.5862  1.5306 -1.2458
   40POPC  H10Y 5421   3.221   3.613   7.895 -2.2767  1.3693  0.5031
   40POPC  C311 5422   3.169   3.469   8.046 -0.2856 -0.0753 -0.5365
   40POPC  H11X 5423   3.079   3.409   8.073 -1.9340  1.5460 -2.0969
   40POPC  H11Y 5424   3.162   3.558   8.112 -1.9525 -1.3237  1.0649
   40POPC  C312 5425   3.299   3.395   8.076  0.0782 -0.7421 -0.0549
   40POPC  H12X 5426   3.382   3.447   8.025 -0.9828 -1.8144 -3.1209
   40POPC  H12Y 5427   3.293   3.291   8.038 -0.8485 -0.7380  0.0434
   40POPC  C313 5428   3.329   3.388   8.230  0.4294 -0.5963  0.0450
   40POPC  H13X 5429   3.319   3.491   8.269  0.4638  0.6786 -3.0203
   40POPC  H13Y 5430   3.432   3.352   8.246  0.1968 -0.6747  1.4920
   40POPC  C314 5431   3.238   3.312   8.322  0.0330  0.9386  0.6005
   40POPC  H14X 5432   3.237   3.204   8.297  0.9027  1.1682 -0.4981
   40POPC  H14Y 5433   3.135   3.348   8.303 -0.2583  0.3424  1.0337
   40POPC  C315 5434   3.291   3.334   8.458 -0.1344 -0.7239  0.5551
   40POPC  H15X 5435   3.324   3.437   8.484  3.5666 -1.9455  1.3184
   40POPC  H15Y 5436   3.384   3.274   8.461 -0.4357 -1.2180  0.1540
   40POPC  C316 5437   3.184   3.295   8.562  0.4002  0.6642  0.0901
   40POPC  H16X 5438   3.239   3.313   8.657  0.5362  0.3689  0.0694
   40POPC  H16Y 5439   3.166   3.185   8.554  0.5145  0.4315  2.3804
   40POPC  H16Z 5440   3.092   3.357   8.553  0.2960  0.4570 -0.2843
   41CHL1    C3 5441   2.141   1.822  10.361 -0.8539  0.3227 -0.3385
   41CHL1    H3 5442   2.209   1.908  10.379 -1.8906  0.9537  0.6805
   41CHL1    O3 5443   2.131   1.777  10.494  0.0920 -0.2345 -0.0524
   41CHL1   H3' 5444   2.056   1.717  10.500  0.1030 -0.4499 -1.7661
   41CHL1    C4 5445   2.003   1.855  10.323 -0.0718  0.4402  0.1529
   41CHL1   H4A 5446   1.947   1.761  10.343  1.7519 -0.6771  0.2125
   41CHL1   H4B 5447   1.967   1.936  10.390  1.0331 -0.9897  2.6152
   41CHL1    C5 5448   1.989   1.893  10.179  0.1951  0.5915  0.7492
   41CHL1    C6 5449   1.960   2.017  10.146 -0.0992  0.6714  0.1918
   41CHL1    H6 5450   1.942   2.098  10.218  0.7302  1.1005 -0.0757
   41CHL1    C7 5451   1.950   2.056  10.003  0.3100  0.3868  0.5169
   41CHL1   H7A 5452   1.856   2.115  10.003 -0.7911 -1.2675  2.7043
   41CHL1   H7B 5453   2.030   2.130   9.979 -1.0900  1.4364 -1.1189
   41CHL1    C8 5454   1.937   1.945   9.893 -0.7348  0.2488  0.1017
   41CHL1    H8 5455   1.840   1.892   9.901 -0.1474 -0.5723  2.6606
   41CHL1   C14 5456   1.964   1.981   9.750 -0.2125  0.5419  0.7643
   41CHL1   H14 5457   2.071   2.014   9.749  0.1534 -0.6066  0.9393
   41CHL1   C15 5458   1.884   2.095   9.690 -0.1191  0.2998 -0.0603
   41CHL1  H15A 5459   1.775   2.084   9.712 -0.0051  0.0303  0.3890
   41CHL1  H15B 5460   1.922   2.195   9.719  2.4102 -1.1517  2.0071
   41CHL1   C16 5461   1.905   2.083   9.531  0.1859  0.7403  0.2366
   41CHL1  H16A 5462   1.803   2.081   9.489 -0.0175 -0.2526  0.7526
   41CHL1  H16B 5463   1.959   2.175   9.500 -0.6121  1.0104 -0.3778
   41CHL1   C17 5464   1.980   1.949   9.511 -1.0641  0.6004  0.1643
   41CHL1   H17 5465   2.085   1.984   9.513 -0.7235  0.0420 -2.7730
   41CHL1   C13 5466   1.960   1.867   9.640  0.2096  0.6344  0.0635
   41CHL1   C18 5467   1.814   1.805   9.636  0.7341  0.7135  0.7609
   41CHL1  H18A 5468   1.734   1.880   9.618 -0.7875 -1.3625 -1.9167
   41CHL1  H18B 5469   1.805   1.728   9.557  3.1159 -0.2473  1.3437
   41CHL1  H18C 5470   1.800   1.754   9.734  0.0249  0.5407  0.5771
   41CHL1   C12 5471   2.077   1.780   9.686  0.0977  0.6223  0.0161
   41CHL1  H12A 5472   2.077   1.688   9.624  1.6103  0.1042  0.7469
   41CHL1  H12B 5473   2.176   1.831   9.685  0.7807 -0.6588  0.1764
   41CHL1   C11 5474   2.062   1.732   9.828  0.9142  0.1897  0.5620
   41CHL1  H11A 5475   1.977   1.660   9.824  1.6440 -0.6944  0.5526
   41CHL1  H11B 5476   2.151   1.676   9.863  1.6668 -0.7960 -2.5692
   41CHL1    C9 5477   2.044   1.842   9.929 -0.0765  0.4102 -1.0161
   41CHL1    H9 5478   2.136   1.904   9.933  0.4302 -0.3828  1.5550
   41CHL1   C10 5479   2.034   1.792  10.077 -0.1312  0.1493 -0.4827
   41CHL1   C19 5480   1.943   1.668  10.082 -0.0831  0.0205 -0.1778
   41CHL1  H19A 5481   1.998   1.572  10.081 -0.4444 -0.2011  0.3420
   41CHL1  H19B 5482   1.881   1.661  10.174 -1.0046  0.1315 -0.7764
   41CHL1  H19C 5483   1.866   1.670  10.001 -0.8237  0.5494  0.5119
   41CHL1    C1 5484   2.178   1.754  10.123  0.1265  0.2830 -0.5201
   41CHL1   H1A 5485   2.219   1.670  10.062  0.8077 -0.7256  1.2712
   41CHL1   H1B 5486   2.249   1.836  10.100 -0.6137  1.2134  0.4546
   41CHL1    C2 5487   2.196   1.717  10.266 -0.1072  0.1099 -0.0995
   41CHL1   H2A 5488   2.305   1.705  10.281 -0.2153  0.2664  0.8562
   41CHL1   H2B 5489   2.143   1.624  10.294  1.4206 -0.3903  1.2674
   41CHL1   C20 5490   1.951   1.890   9.377 -0.4190 -0.3933  0.4550
   41CHL1   H20 5491   1.844   1.861   9.376 -0.7979  0.8144 -1.4257
   41CHL1   C21 5492   2.046   1.768   9.353 -0.4969  0.3931  0.5225
   41CHL1  H21A 5493   2.061   1.740   9.246  0.2482  1.6175  0.2893
   41CHL1  H21B 5494   2.001   1.681   9.406 -1.3342  0.3121 -0.2810
   41CHL1  H21C 5495   2.148   1.787   9.391 -0.4684 -1.0353  1.2273
   41CHL1   C22 5496   1.969   1.999   9.270  0.4996  0.2757 -0.5619
   41CHL1  H22A 5497   1.905   2.088   9.287 -1.7946 -1.2646 -0.7024
   41CHL1  H22B 5498   2.078   2.023   9.273  1.0164 -2.0152  1.0585
   41CHL1   C23 5499   1.911   1.950   9.133 -0.2883 -1.0094 -0.2902
   41CHL1  H23A 5500   1.980   1.870   9.099  2.3442  1.0503 -0.2039
   41CHL1  H23B 5501   1.810   1.907   9.145  0.0038 -0.9652  3.8022
   41CHL1   C24 5502   1.913   2.061   9.023 -0.2211 -0.2804  0.5987
   41CHL1  H24A 5503   1.890   2.165   9.054 -0.3095 -0.1862  0.2295
   41CHL1  H24B 5504   2.020   2.056   8.996  0.0777 -0.9688  1.8553
   41CHL1   C25 5505   1.848   2.026   8.894  0.4297 -0.6926 -0.2057
   41CHL1   H25 5506   1.738   2.015   8.906  0.7033 -3.4462  0.2853
   41CHL1   C26 5507   1.891   2.134   8.800 -0.0015  0.2685 -0.4761
   41CHL1  H26A 5508   2.001   2.135   8.783  0.4069  3.0143  1.6211
   41CHL1  H26B 5509   1.846   2.115   8.700  1.0514 -1.8313 -0.6081
   41CHL1  H26C 5510   1.857   2.234   8.835 -0.2276  0.3679 -0.9739
   41CHL1   C27 5511   1.904   1.897   8.831 -0.6469  0.1660 -0.4244
   41CHL1  H27A 5512   1.893   1.811   8.900  1.2451  1.6242  1.8682
   41CHL1  H27B 5513   1.851   1.881   8.735 -0.1301  1.9789 -1.0632
   41CHL1  H27C 5514   2.013   1.920   8.831 -0.9354  1.6534 -0.6669
   42CHL1    C3 5515   1.196   3.299  10.119  0.2340  0.6319  0.6363
   42CHL1    H3 5516   1.139   3.209  10.086  1.7257 -0.9466  2.1709
   42CHL1    O3 5517   1.222   3.293  10.253 -0.0861  0.1512  0.0870
   42CHL1   H3' 5518   1.253   3.382  10.268  0.4771  0.2098 -1.2528
   42CHL1    C4 5519   1.336   3.289  10.045  0.3517  0.4449  0.7065
   42CHL1   H4A 5520   1.402   3.365  10.092  0.6809  1.4292 -1.2667
   42CHL1   H4B 5521   1.377   3.191  10.077 -0.1586  0.1177  0.3836
   42CHL1    C5 5522   1.330   3.296   9.899  0.1856 -0.5667 -0.2005
   42CHL1    C6 5523   1.371   3.201   9.817 -0.0633  0.5674 -0.0404
   42CHL1    H6 5524   1.424   3.113   9.856 -0.5374  0.3858  0.1967
   42CHL1    C7 5525   1.358   3.199   9.667  0.3346 -1.0242  0.3721
   42CHL1   H7A 5526   1.455   3.164   9.624  1.0341 -0.4267  1.3995
   42CHL1   H7B 5527   1.281   3.124   9.641 -0.1360 -1.1807  2.0657
   42CHL1    C8 5528   1.315   3.337   9.617 -0.1204 -0.9516  0.9465
   42CHL1    H8 5529   1.408   3.398   9.624 -0.9578  0.3743  0.8381
   42CHL1   C14 5530   1.268   3.327   9.469 -0.2628  0.3331 -0.4514
   42CHL1   H14 5531   1.198   3.241   9.459  0.0663  0.2210 -2.1144
   42CHL1   C15 5532   1.377   3.290   9.365 -0.4536 -0.4534  0.4098
   42CHL1  H15A 5533   1.478   3.334   9.378  1.0423 -3.5580  0.0561
   42CHL1  H15B 5534   1.384   3.179   9.368 -1.6318 -0.5820 -0.8190
   42CHL1   C16 5535   1.323   3.351   9.240 -0.2984 -0.1798 -0.8006
   42CHL1  H16A 5536   1.394   3.426   9.198 -0.3224  0.3660  0.1033
   42CHL1  H16B 5537   1.298   3.273   9.165 -0.7459 -0.9480  0.1275
   42CHL1   C17 5538   1.190   3.425   9.276 -0.0361  0.4939  1.2757
   42CHL1   H17 5539   1.115   3.345   9.261  1.6697 -1.0964  0.8524
   42CHL1   C13 5540   1.196   3.453   9.425  0.3918  0.3991  0.2532
   42CHL1   C18 5541   1.296   3.570   9.428 -0.0278 -0.0785  0.9204
   42CHL1  H18A 5542   1.332   3.583   9.532  0.0699  1.9006  0.6635
   42CHL1  H18B 5543   1.384   3.554   9.363 -1.5541 -1.9422 -0.8381
   42CHL1  H18C 5544   1.243   3.663   9.401 -0.2204 -0.6163 -0.6315
   42CHL1   C12 5545   1.066   3.476   9.501 -0.7618  0.5865  0.2093
   42CHL1  H12A 5546   1.005   3.566   9.478  0.0874  1.0783 -0.1431
   42CHL1  H12B 5547   1.002   3.385   9.506  0.9785 -0.6530  0.8264
   42CHL1   C11 5548   1.113   3.506   9.646  0.4874 -0.1097 -0.3113
   42CHL1  H11A 5549   1.159   3.607   9.652  1.9995 -0.7088 -1.2473
   42CHL1  H11B 5550   1.018   3.503   9.704  0.8992  1.7261  0.5329
   42CHL1    C9 5551   1.207   3.394   9.708 -0.4766  0.2302  0.7481
   42CHL1    H9 5552   1.125   3.319   9.714 -0.4597  0.2198  0.8459
   42CHL1   C10 5553   1.244   3.412   9.858  0.2250 -0.1591  1.1585
   42CHL1   C19 5554   1.336   3.540   9.843 -0.0208  0.5935 -0.5191
   42CHL1  H19A 5555   1.420   3.538   9.770  0.5768  0.7270  0.1603
   42CHL1  H19B 5556   1.268   3.627   9.834 -2.8065 -0.8089  3.7444
   42CHL1  H19C 5557   1.377   3.559   9.944 -0.5535  0.0199 -0.1857
   42CHL1    C1 5558   1.119   3.448   9.937  0.2316 -0.1212  0.0009
   42CHL1   H1A 5559   1.083   3.551   9.916  1.5993  0.7570  1.7033
   42CHL1   H1B 5560   1.032   3.383   9.912 -0.0511  0.7097 -1.2246
   42CHL1    C2 5561   1.132   3.438  10.083 -1.2199 -0.4276 -0.2323
   42CHL1   H2A 5562   1.048   3.465  10.151 -0.9395 -0.1416  0.0019
   42CHL1   H2B 5563   1.205   3.518  10.107 -0.3866 -0.0382 -3.5387
   42CHL1   C20 5564   1.148   3.536   9.176 -0.0432 -0.4812  0.4992
   42CHL1   H20 5565   1.216   3.622   9.192  0.8113 -0.8644 -0.8964
   42CHL1   C21 5566   0.998   3.576   9.194 -0.0448  0.0752  0.0304
   42CHL1  H21A 5567   0.985   3.621   9.294 -0.0167  1.2779 -0.4922
   42CHL1  H21B 5568   0.923   3.495   9.182 -0.0317  0.2659 -1.5406
   42CHL1  H21C 5569   0.965   3.642   9.111 -0.3043 -0.0332  0.0459
   42CHL1   C22 5570   1.175   3.508   9.024 -0.7524  0.8343  0.7656
   42CHL1  H22A 5571   1.267   3.450   9.003 -1.5036 -0.4821  1.0437
   42CHL1  H22B 5572   1.096   3.435   8.997  0.4012  0.0787 -0.7156
   42CHL1   C23 5573   1.169   3.640   8.935 -0.2248  0.6788  0.4142
   42CHL1  H23A 5574   1.081   3.705   8.955 -1.2576 -0.3127 -0.6921
   42CHL1  H23B 5575   1.264   3.690   8.964 -1.1361  1.2062  2.6583
   42CHL1   C24 5576   1.167   3.614   8.781  0.1219 -0.3446 -0.0518
   42CHL1  H24A 5577   1.186   3.713   8.735  0.6627  1.0243  2.8580
   42CHL1  H24B 5578   1.254   3.548   8.758 -0.1030 -0.8612  0.5307
   42CHL1   C25 5579   1.036   3.551   8.726 -0.4907  1.0118 -0.0707
   42CHL1   H25 5580   1.017   3.448   8.764 -0.3583  1.3052  0.8059
   42CHL1   C26 5581   0.911   3.634   8.749  0.1602  0.1209 -0.6168
   42CHL1  H26A 5582   0.932   3.736   8.710  1.5086  0.9106  1.9317
   42CHL1  H26B 5583   0.818   3.595   8.703 -1.9754  2.1931  1.6286
   42CHL1  H26C 5584   0.891   3.649   8.857  1.5249  1.0267 -0.4666
   42CHL1   C27 5585   1.047   3.523   8.577  0.2709  0.4014  0.5490
   42CHL1  H27A 5586   1.136   3.459   8.559  1.1141  2.0372 -1.6493
   42CHL1  H27B 5587   0.961   3.470   8.531  1.7149 -0.1350 -1.7401
   42CHL1  H27C 5588   1.061   3.621   8.526 -1.1049  0.5452  0.4092
   43CHL1    C3 5589   0.384   2.745  10.227  0.3806 -0.4235 -0.4957
   43CHL1    H3 5590   0.465   2.670  10.219  2.9917  2.2392 -0.8422
   43CHL1    O3 5591   0.385   2.774  10.370  0.4930  0.5322 -0.2425
   43CHL1   H3' 5592   0.381   2.870  10.372  0.1265  0.6249 -2.7358
   43CHL1    C4 5593   0.428   2.875  10.150  0.3791 -0.6265  0.7113
   43CHL1   H4A 5594   0.355   2.958  10.160  0.4305 -0.6217  1.0852
   43CHL1   H4B 5595   0.529   2.894  10.193  0.1241 -1.4328  1.6980
   43CHL1    C5 5596   0.439   2.859   9.998  0.3953  0.2067 -0.4448
   43CHL1    C6 5597   0.554   2.884   9.936  0.1751 -0.5204  0.4718
   43CHL1    H6 5598   0.630   2.924  10.006 -0.3921  0.6348  0.4510
   43CHL1    C7 5599   0.577   2.858   9.795 -0.0400  0.2884  0.2563
   43CHL1   H7A 5600   0.630   2.945   9.750  2.0704  0.0473  2.1164
   43CHL1   H7B 5601   0.655   2.780   9.797  1.2396  1.5291  0.9015
   43CHL1    C8 5602   0.445   2.842   9.714 -0.1106 -0.3800  0.8159
   43CHL1    H8 5603   0.407   2.944   9.694  0.3732  0.1466  2.4275
   43CHL1   C14 5604   0.484   2.771   9.584  0.1460  0.0356 -0.1380
   43CHL1   H14 5605   0.510   2.672   9.627 -2.1057 -0.7179 -0.3653
   43CHL1   C15 5606   0.599   2.817   9.494 -0.2947  0.4227 -0.3220
   43CHL1  H15A 5607   0.597   2.928   9.491 -1.1010  0.4768  1.2108
   43CHL1  H15B 5608   0.696   2.784   9.537  0.4680 -1.2222 -3.0549
   43CHL1   C16 5609   0.571   2.760   9.360  0.5364  0.4057 -0.1178
   43CHL1  H16A 5610   0.547   2.842   9.289  1.7331  1.0890  0.2341
   43CHL1  H16B 5611   0.654   2.697   9.320 -0.0647 -0.3058 -0.2684
   43CHL1   C17 5612   0.446   2.668   9.376  0.3439  0.2990 -0.4310
   43CHL1   H17 5613   0.478   2.568   9.415  0.6920  1.7243  3.3972
   43CHL1   C13 5614   0.368   2.743   9.485 -0.5932 -1.4075  0.3033
   43CHL1   C18 5615   0.313   2.880   9.427  0.4412 -0.3473  1.0367
   43CHL1  H18A 5616   0.383   2.934   9.361  0.4497  1.0605  2.1591
   43CHL1  H18B 5617   0.225   2.858   9.362  2.1223  0.4035 -1.6579
   43CHL1  H18C 5618   0.287   2.953   9.506  0.8762  3.8868 -2.3454
   43CHL1   C12 5619   0.253   2.666   9.560  0.6927  0.1170  0.1436
   43CHL1  H12A 5620   0.161   2.653   9.500 -0.8832  0.9023  2.2396
   43CHL1  H12B 5621   0.282   2.563   9.589 -1.1657 -0.0359  1.6394
   43CHL1   C11 5622   0.215   2.738   9.691 -0.5402  0.2369 -0.0047
   43CHL1  H11A 5623   0.174   2.838   9.664  1.0120  0.6360 -1.0553
   43CHL1  H11B 5624   0.140   2.680   9.748 -0.5846 -0.1463 -0.4447
   43CHL1    C9 5625   0.345   2.756   9.786  0.1864  0.4069 -0.6925
   43CHL1    H9 5626   0.389   2.656   9.803 -0.8638  0.3071  2.1085
   43CHL1   C10 5627   0.314   2.804   9.927 -0.0117 -0.4929 -0.4134
   43CHL1   C19 5628   0.206   2.917   9.923  0.0030  0.1598  0.0382
   43CHL1  H19A 5629   0.190   2.961  10.023  0.2141  0.8034 -0.2090
   43CHL1  H19B 5630   0.242   3.010   9.873  1.5953 -0.2762  0.3263
   43CHL1  H19C 5631   0.110   2.877   9.884 -0.8864 -0.9752  3.0898
   43CHL1    C1 5632   0.261   2.683  10.017 -0.1616 -0.1230 -0.3569
   43CHL1   H1A 5633   0.162   2.653   9.976 -0.6353  2.8390 -1.6403
   43CHL1   H1B 5634   0.328   2.595  10.007 -0.7096 -0.8385  1.6943
   43CHL1    C2 5635   0.249   2.706  10.166 -0.0416 -0.6222 -0.3605
   43CHL1   H2A 5636   0.209   2.618  10.221  3.7587 -0.8231  2.5251
   43CHL1   H2B 5637   0.191   2.796  10.194  1.7157  0.6087 -0.4835
   43CHL1   C20 5638   0.379   2.641   9.236 -0.4214  1.0478  0.2490
   43CHL1   H20 5639   0.347   2.736   9.187  0.5691  2.5525  2.3772
   43CHL1   C21 5640   0.269   2.540   9.266  0.3573 -1.2280  0.5866
   43CHL1  H21A 5641   0.226   2.498   9.173 -1.0668 -0.4796  0.8858
   43CHL1  H21B 5642   0.183   2.585   9.319  0.7536  0.5710 -0.2225
   43CHL1  H21C 5643   0.306   2.459   9.333  0.3768 -1.4612  0.2991
   43CHL1   C22 5644   0.484   2.576   9.136  0.6008 -0.5049 -0.8320
   43CHL1  H22A 5645   0.561   2.648   9.099 -0.2247  0.6623 -0.3316
   43CHL1  H22B 5646   0.527   2.496   9.200 -3.6076 -0.6341  2.2106
   43CHL1   C23 5647   0.425   2.496   9.017  0.0692 -0.2291  0.2939
   43CHL1  H23A 5648   0.364   2.410   9.053 -0.5842  0.0032 -0.2351
   43CHL1  H23B 5649   0.354   2.558   8.958 -1.3071 -0.5350  1.5643
   43CHL1   C24 5650   0.543   2.448   8.932 -0.1961  0.1493  0.2165
   43CHL1  H24A 5651   0.608   2.536   8.911  2.0974 -0.5894  3.4378
   43CHL1  H24B 5652   0.601   2.375   8.993  1.1004  0.8589 -0.1282
   43CHL1   C25 5653   0.515   2.395   8.785  0.5056  0.2961 -0.5371
   43CHL1   H25 5654   0.440   2.314   8.793 -0.1789  0.5941 -3.1117
   43CHL1   C26 5655   0.473   2.505   8.690 -0.0861 -0.3691  0.3609
   43CHL1  H26A 5656   0.468   2.472   8.584 -0.1114  0.8461 -0.0351
   43CHL1  H26B 5657   0.383   2.565   8.718 -0.7787 -0.4519 -1.4822
   43CHL1  H26C 5658   0.552   2.583   8.688 -0.5405  0.1060 -1.9963
   43CHL1   C27 5659   0.647   2.329   8.726 -0.3386 -0.2822 -0.8494
   43CHL1  H27A 5660   0.624   2.300   8.621 -0.9648 -0.2792 -0.7184
   43CHL1  H27B 5661   0.722   2.410   8.737 -1.6790  0.8208  0.6001
   43CHL1  H27C 5662   0.656   2.236   8.786  0.2314  0.0049 -0.4869
   44CHL1    C3 5663   5.615   1.637  10.462 -0.3828 -0.4844 -0.4679
   44CHL1    H3 5664   5.562   1.734  10.451 -1.0843 -0.9515 -1.3063
   44CHL1    O3 5665   5.653   1.618  10.595  0.0663 -0.4162 -0.2878
   44CHL1   H3' 5666   5.576   1.592  10.646  0.3235 -0.6902 -0.0368
   44CHL1    C4 5667   5.514   1.528  10.425 -0.2106  0.5302  0.4716
   44CHL1   H4A 5668   5.569   1.432  10.439  1.0785  1.3258  1.0882
   44CHL1   H4B 5669   5.428   1.527  10.496 -2.2170  2.0583 -1.7913
   44CHL1    C5 5670   5.481   1.537  10.275  0.3582  0.0692  0.3081
   44CHL1    C6 5671   5.353   1.559  10.234 -0.1758  0.1399  0.5059
   44CHL1    H6 5672   5.276   1.579  10.310 -1.0357 -0.0747 -0.2811
   44CHL1    C7 5673   5.305   1.551  10.090  0.4640  0.1695 -0.3705
   44CHL1   H7A 5674   5.227   1.473  10.074  2.5491 -2.2073  0.4256
   44CHL1   H7B 5675   5.263   1.650  10.062 -0.6848 -0.1489  0.1573
   44CHL1    C8 5676   5.416   1.517   9.988 -0.0307 -0.2288  0.0568
   44CHL1    H8 5677   5.412   1.406   9.979 -0.4512 -0.0773 -2.1717
   44CHL1   C14 5678   5.379   1.565   9.847 -0.0872  0.0190 -0.5243
   44CHL1   H14 5679   5.399   1.674   9.850 -1.2370  0.3624 -2.9133
   44CHL1   C15 5680   5.231   1.550   9.793  0.0175 -0.5024 -0.3415
   44CHL1  H15A 5681   5.182   1.452   9.808 -1.0308 -0.3066 -2.1110
   44CHL1  H15B 5682   5.168   1.631   9.836  0.5451  1.7911 -3.5123
   44CHL1   C16 5683   5.253   1.552   9.635  0.2988 -0.9465 -0.8457
   44CHL1  H16A 5684   5.211   1.456   9.598 -0.3355 -1.1804  0.4215
   44CHL1  H16B 5685   5.190   1.635   9.598 -0.2571 -1.1299 -0.3303
   44CHL1   C17 5686   5.405   1.579   9.610  0.0927  0.6792 -0.2772
   44CHL1   H17 5687   5.406   1.689   9.622 -0.0748  0.8458 -1.5851
   44CHL1   C13 5688   5.480   1.520   9.739  0.3274 -0.1273  0.7243
   44CHL1   C18 5689   5.482   1.368   9.731 -0.5255 -0.0630  0.5613
   44CHL1  H18A 5690   5.393   1.336   9.673 -0.2530 -0.9012  0.5851
   44CHL1  H18B 5691   5.576   1.355   9.673 -0.0445  2.6338  0.6233
   44CHL1  H18C 5692   5.490   1.310   9.825  0.2267 -2.4541 -0.8692
   44CHL1   C12 5693   5.625   1.570   9.775  0.8849  0.2181 -0.6890
   44CHL1  H12A 5694   5.698   1.523   9.706 -1.1182 -0.0889 -2.6893
   44CHL1  H12B 5695   5.633   1.678   9.748  1.6118 -0.4841 -3.6204
   44CHL1   C11 5696   5.659   1.542   9.922 -0.2254  0.1646  0.4681
   44CHL1  H11A 5697   5.674   1.432   9.923  1.0576  0.3320  0.8365
   44CHL1  H11B 5698   5.754   1.583   9.961 -0.1801 -3.3310  4.7546
   44CHL1    C9 5699   5.549   1.564  10.032  0.7985 -0.4206 -0.8922
   44CHL1    H9 5700   5.538   1.675  10.040 -0.4200 -0.6719  3.4624
   44CHL1   C10 5701   5.598   1.521  10.173  0.1762  0.2175 -0.2010
   44CHL1   C19 5702   5.658   1.376  10.174  0.5429 -0.1808  0.2020
   44CHL1  H19A 5703   5.590   1.309  10.118  0.1828  0.5792 -0.2890
   44CHL1  H19B 5704   5.756   1.385  10.123 -0.1774  0.8855 -1.0665
   44CHL1  H19C 5705   5.671   1.361  10.283  1.9652 -2.3779 -0.2039
   44CHL1    C1 5706   5.706   1.625  10.226 -0.1880 -0.0772  0.6629
   44CHL1   H1A 5707   5.789   1.598  10.158 -2.0317 -2.2237 -0.9154
   44CHL1   H1B 5708   5.665   1.725  10.199 -0.7062 -0.7660 -1.3139
   44CHL1    C2 5709   5.746   1.631  10.377 -0.8326 -0.4192  0.0346
   44CHL1   H2A 5710   5.823   1.703  10.410  0.3069 -1.0181 -1.1915
   44CHL1   H2B 5711   5.785   1.529  10.395  0.5148 -0.0177 -0.5305
   44CHL1   C20 5712   5.456   1.530   9.471  0.1132 -0.3745  0.5844
   44CHL1   H20 5713   5.481   1.422   9.474  2.6568  0.1562  0.6870
   44CHL1   C21 5714   5.595   1.594   9.437  0.6975  0.8045  0.1856
   44CHL1  H21A 5715   5.668   1.552   9.509 -0.3137 -2.6129 -0.6010
   44CHL1  H21B 5716   5.599   1.705   9.434 -0.1109  0.9562  2.7114
   44CHL1  H21C 5717   5.607   1.556   9.333 -5.3137 -0.8184 -0.3340
   44CHL1   C22 5718   5.348   1.543   9.360  0.1313  0.1177  0.5690
   44CHL1  H22A 5719   5.393   1.506   9.266 -2.1182 -1.7447  0.1180
   44CHL1  H22B 5720   5.264   1.473   9.381  1.4121 -2.2695 -1.7965
   44CHL1   C23 5721   5.295   1.682   9.336 -0.1845  0.3965  0.4811
   44CHL1  H23A 5722   5.299   1.740   9.430  0.5614 -0.8218  1.2307
   44CHL1  H23B 5723   5.360   1.724   9.255  0.1791 -1.5204 -0.2763
   44CHL1   C24 5724   5.159   1.692   9.273 -0.0381  0.1042 -0.7120
   44CHL1  H24A 5725   5.177   1.642   9.176  0.9579 -1.3109  0.1694
   44CHL1  H24B 5726   5.085   1.634   9.331  2.0102  0.4119  2.4972
   44CHL1   C25 5727   5.116   1.841   9.241 -0.1136  0.0064 -0.6861
   44CHL1   H25 5728   5.151   1.904   9.326  1.8611 -1.9235  0.0402
   44CHL1   C26 5729   5.188   1.895   9.118  0.2974  0.3260 -0.6836
   44CHL1  H26A 5730   5.159   2.002   9.110  0.3291  0.4623  0.8105
   44CHL1  H26B 5731   5.295   1.873   9.137 -0.1758  1.0721  4.0483
   44CHL1  H26C 5732   5.171   1.845   9.020  0.9318 -3.3665  0.9206
   44CHL1   C27 5733   4.969   1.855   9.226 -0.6555 -0.4829 -0.0634
   44CHL1  H27A 5734   4.912   1.831   9.318 -2.0447  0.2789 -0.6890
   44CHL1  H27B 5735   4.939   1.959   9.200 -0.0891 -0.2795  0.0709
   44CHL1  H27C 5736   4.942   1.783   9.147  0.2184  1.4375 -2.2265
   45CHL1    C3 5737   4.490   0.484  10.592  0.1516  1.2020 -0.2238
   45CHL1    H3 5738   4.508   0.378  10.620  0.3584  1.1464 -0.5612
   45CHL1    O3 5739   4.496   0.562  10.707 -0.2352 -0.3764 -0.2962
   45CHL1   H3' 5740   4.431   0.524  10.766  0.7646  1.7111  2.3482
   45CHL1    C4 5741   4.599   0.531  10.497 -0.0515  0.0226  0.2678
   45CHL1   H4A 5742   4.597   0.642  10.497  1.2121  0.0560  0.1653
   45CHL1   H4B 5743   4.702   0.528  10.540 -0.3388  1.0672  1.0912
   45CHL1    C5 5744   4.606   0.467  10.358 -0.2938  0.1239 -0.5561
   45CHL1    C6 5745   4.715   0.394  10.319 -0.2776 -0.0767 -0.2099
   45CHL1    H6 5746   4.797   0.387  10.391 -2.4388 -0.3491  2.3926
   45CHL1    C7 5747   4.714   0.323  10.185 -0.0779 -0.5022 -0.0233
   45CHL1   H7A 5748   4.803   0.352  10.125 -0.3543 -1.2084 -0.7913
   45CHL1   H7B 5749   4.713   0.213  10.195 -1.0034 -0.6501 -1.4315
   45CHL1    C8 5750   4.595   0.370  10.090 -0.8510  0.7240  0.1516
   45CHL1    H8 5751   4.585   0.281  10.024  0.1731  1.1143 -0.5650
   45CHL1   C14 5752   4.618   0.487   9.994 -0.8099 -0.2523 -0.0659
   45CHL1   H14 5753   4.637   0.577  10.056 -0.2279 -0.9674  0.8236
   45CHL1   C15 5754   4.741   0.458   9.892 -0.1284 -0.0775  0.6326
   45CHL1  H15A 5755   4.776   0.553   9.848  3.2702 -0.5004  2.0922
   45CHL1  H15B 5756   4.831   0.401   9.923  0.1088  0.2200  0.5009
   45CHL1   C16 5757   4.675   0.370   9.779  0.4933  0.1297 -0.9128
   45CHL1  H16A 5758   4.717   0.387   9.677  0.5336 -1.5784 -1.2153
   45CHL1  H16B 5759   4.689   0.262   9.801  2.0631  0.3176 -0.9229
   45CHL1   C17 5760   4.518   0.386   9.791  0.7533 -0.0158 -0.1823
   45CHL1   H17 5761   4.477   0.301   9.850  1.8681  0.2659  1.0457
   45CHL1   C13 5762   4.498   0.495   9.894  0.7328  0.5401 -0.1729
   45CHL1   C18 5763   4.510   0.622   9.811 -0.5027 -0.5495 -0.6324
   45CHL1  H18A 5764   4.427   0.652   9.744  0.3366  3.8083 -0.0251
   45CHL1  H18B 5765   4.528   0.706   9.882  0.9554 -0.5102 -1.0210
   45CHL1  H18C 5766   4.597   0.614   9.743  0.4880 -0.7188  0.6089
   45CHL1   C12 5767   4.357   0.497   9.960  0.4346 -0.3494  0.4572
   45CHL1  H12A 5768   4.344   0.595  10.010 -0.3934 -0.7369  1.0403
   45CHL1  H12B 5769   4.266   0.487   9.897  0.5479  1.4954 -0.0404
   45CHL1   C11 5770   4.337   0.390  10.064 -1.0366 -0.1973  1.1274
   45CHL1  H11A 5771   4.242   0.407  10.119 -0.6669  1.7455  1.2674
   45CHL1  H11B 5772   4.341   0.294  10.009 -2.2847 -0.1019  0.8574
   45CHL1    C9 5773   4.460   0.385  10.169 -0.0910 -0.5023  0.1484
   45CHL1    H9 5774   4.454   0.283  10.212 -2.0210 -0.3411  0.3100
   45CHL1   C10 5775   4.467   0.478  10.293  0.3548  0.4800  0.7139
   45CHL1   C19 5776   4.437   0.630  10.254 -0.1045  0.0202  0.0907
   45CHL1  H19A 5777   4.484   0.660  10.157  1.2526  2.4216  1.3908
   45CHL1  H19B 5778   4.329   0.651  10.239  0.6969  3.5794 -1.7860
   45CHL1  H19C 5779   4.471   0.697  10.335  2.6658 -1.3882  0.2279
   45CHL1    C1 5780   4.362   0.426  10.389  0.2475 -0.4354  0.5518
   45CHL1   H1A 5781   4.261   0.427  10.343  0.0462  1.1297  0.9782
   45CHL1   H1B 5782   4.382   0.319  10.414 -0.0394 -0.3940  0.9714
   45CHL1    C2 5783   4.350   0.498  10.523 -0.6895 -0.6078 -0.3256
   45CHL1   H2A 5784   4.276   0.461  10.598 -0.9557  1.6302  0.5777
   45CHL1   H2B 5785   4.333   0.607  10.514 -1.6079 -0.3257  3.2314
   45CHL1   C20 5786   4.425   0.383   9.667  0.2405  0.1605  0.5727
   45CHL1   H20 5787   4.338   0.448   9.689  0.8443  1.0407  0.4325
   45CHL1   C21 5788   4.377   0.234   9.654  0.1497  0.3794 -0.2140
   45CHL1  H21A 5789   4.325   0.208   9.749  0.1335  3.0501  0.5808
   45CHL1  H21B 5790   4.465   0.173   9.624  1.3214  1.7872  0.2560
   45CHL1  H21C 5791   4.308   0.224   9.568  0.0141  3.1433 -0.5105
   45CHL1   C22 5792   4.480   0.433   9.530 -0.2796  0.3042 -0.4368
   45CHL1  H22A 5793   4.554   0.513   9.547  0.1854  0.0326 -1.1434
   45CHL1  H22B 5794   4.528   0.354   9.468  1.6072 -1.2615  2.7559
   45CHL1   C23 5795   4.368   0.482   9.435 -0.1962 -0.3518  0.5832
   45CHL1  H23A 5796   4.295   0.399   9.420 -1.5251  0.8959 -0.1010
   45CHL1  H23B 5797   4.321   0.578   9.467 -0.2822  0.8452 -2.7723
   45CHL1   C24 5798   4.423   0.514   9.295 -0.2946  0.3527 -0.6032
   45CHL1  H24A 5799   4.488   0.603   9.304 -2.7312  2.2120 -0.0616
   45CHL1  H24B 5800   4.473   0.424   9.253 -2.1029 -0.0997 -1.9308
   45CHL1   C25 5801   4.312   0.544   9.185  0.1965  0.8571  0.1162
   45CHL1   H25 5802   4.223   0.478   9.198 -0.8283  1.8451 -1.5514
   45CHL1   C26 5803   4.262   0.687   9.203 -0.6671 -0.4661 -0.1684
   45CHL1  H26A 5804   4.171   0.720   9.147 -1.8381  1.9545  2.8391
   45CHL1  H26B 5805   4.213   0.688   9.303  0.7841 -0.1980  0.5597
   45CHL1  H26C 5806   4.344   0.761   9.197 -2.7604  2.0788  0.6365
   45CHL1   C27 5807   4.360   0.526   9.034 -0.0280 -0.3470 -0.4728
   45CHL1  H27A 5808   4.353   0.419   9.006  2.0605 -0.3355 -1.2122
   45CHL1  H27B 5809   4.288   0.581   8.969 -1.8836 -0.5844  1.2909
   45CHL1  H27C 5810   4.459   0.575   9.019  0.4750 -1.0216  0.5086
   46CHL1    C3 5811   2.904   3.109  10.261  0.1041 -0.1452 -0.5709
   46CHL1    H3 5812   2.961   3.193  10.214  1.1592 -1.9092 -2.5870
   46CHL1    O3 5813   2.939   3.096  10.400  0.2899  0.1512  0.3401
   46CHL1   H3' 5814   2.968   3.004  10.404 -2.5151 -0.8458  0.2068
   46CHL1    C4 5815   2.760   3.145  10.250  0.9451  0.7199  0.6987
   46CHL1   H4A 5816   2.705   3.053  10.280 -2.9234  1.9076 -1.9852
   46CHL1   H4B 5817   2.730   3.222  10.324  2.6688  1.1217  1.0322
   46CHL1    C5 5818   2.715   3.168  10.106 -0.5569 -0.3676 -0.5322
   46CHL1    C6 5819   2.644   3.280  10.074 -0.2197 -0.0822 -1.0136
   46CHL1    H6 5820   2.618   3.354  10.151  0.8909  2.6644 -3.1089
   46CHL1    C7 5821   2.609   3.321   9.936  0.2362 -0.9156 -0.0110
   46CHL1   H7A 5822   2.504   3.351   9.916  0.0437 -2.0972 -0.8184
   46CHL1   H7B 5823   2.672   3.412   9.925  0.5262 -0.8043  2.0451
   46CHL1    C8 5824   2.633   3.210   9.829 -0.0092  0.1129  0.1472
   46CHL1    H8 5825   2.545   3.144   9.816  0.4495 -0.4493 -0.1334
   46CHL1   C14 5826   2.653   3.276   9.696  0.6249  0.4142 -0.1488
   46CHL1   H14 5827   2.742   3.341   9.706  0.6935  0.2716  0.1923
   46CHL1   C15 5828   2.528   3.356   9.650 -0.0727  0.7842 -0.5194
   46CHL1  H15A 5829   2.432   3.313   9.686  1.5681 -2.1740  0.5450
   46CHL1  H15B 5830   2.531   3.457   9.698 -0.9725 -0.4825  2.4074
   46CHL1   C16 5831   2.544   3.374   9.500  0.1309  0.2237 -0.6273
   46CHL1  H16A 5832   2.450   3.333   9.457 -0.9000 -0.3559  1.9640
   46CHL1  H16B 5833   2.550   3.479   9.465 -3.2293  2.5600  4.5363
   46CHL1   C17 5834   2.675   3.289   9.468  0.2824 -1.0920 -0.1245
   46CHL1   H17 5835   2.755   3.362   9.491 -1.3033  0.7581 -0.2502
   46CHL1   C13 5836   2.682   3.181   9.579  0.1055 -0.4719  0.4569
   46CHL1   C18 5837   2.580   3.075   9.548 -0.2868 -0.3218 -0.4933
   46CHL1  H18A 5838   2.582   2.999   9.629  2.6052  2.2420  2.1164
   46CHL1  H18B 5839   2.479   3.121   9.537  0.3680  1.0746 -0.8870
   46CHL1  H18C 5840   2.607   3.021   9.455  0.3488  0.1263 -0.5759
   46CHL1   C12 5841   2.824   3.124   9.605  0.1759  0.0594 -0.5318
   46CHL1  H12A 5842   2.855   3.039   9.542 -0.1661 -0.1550 -0.4160
   46CHL1  H12B 5843   2.896   3.206   9.625  1.0131 -1.0923  1.4832
   46CHL1   C11 5844   2.819   3.049   9.742  0.2165 -0.0434 -0.5914
   46CHL1  H11A 5845   2.744   2.968   9.731 -1.6352  1.6248 -0.9738
   46CHL1  H11B 5846   2.924   3.017   9.755  0.3554 -0.2267 -2.0188
   46CHL1    C9 5847   2.766   3.134   9.858 -0.0603 -0.5787 -0.1492
   46CHL1    H9 5848   2.843   3.215   9.861  0.7856 -1.3896  1.0240
   46CHL1   C10 5849   2.764   3.070   9.997  0.3358 -0.1978 -0.7325
   46CHL1   C19 5850   2.663   2.952   9.988 -0.3229  0.0956 -0.3466
   46CHL1  H19A 5851   2.557   2.979   9.968 -0.4788 -1.4416 -1.9072
   46CHL1  H19B 5852   2.698   2.877   9.913  1.4131 -0.1305  0.6376
   46CHL1  H19C 5853   2.661   2.903  10.088  0.3253 -0.2751 -0.5113
   46CHL1    C1 5854   2.915   3.020  10.041  0.6582 -0.4909  0.2694
   46CHL1   H1A 5855   2.933   2.921   9.994  1.6071 -0.5567  0.7521
   46CHL1   H1B 5856   2.991   3.094  10.005  1.0025 -1.1620 -0.4286
   46CHL1    C2 5857   2.942   2.988  10.185 -0.3916  0.1889 -0.5658
   46CHL1   H2A 5858   3.047   2.955  10.203 -0.1095  0.1438 -2.1741
   46CHL1   H2B 5859   2.869   2.922  10.235 -1.5363  2.7036  1.3499
   46CHL1   C20 5860   2.692   3.248   9.322  0.0244  0.1169  0.6272
   46CHL1   H20 5861   2.601   3.190   9.297 -0.7334 -0.6262  4.5333
   46CHL1   C21 5862   2.818   3.154   9.296  0.2859 -0.0036 -0.0297
   46CHL1  H21A 5863   2.826   3.123   9.189 -0.4925  3.8997 -1.3861
   46CHL1  H21B 5864   2.808   3.059   9.352 -0.9931  0.9741  1.5094
   46CHL1  H21C 5865   2.909   3.213   9.319  0.5639  0.0980 -1.3013
   46CHL1   C22 5866   2.689   3.376   9.236 -0.1953 -0.3123  0.5110
   46CHL1  H22A 5867   2.605   3.449   9.236  1.7312  2.3621 -4.0385
   46CHL1  H22B 5868   2.774   3.445   9.251 -0.3525  0.2344 -0.8982
   46CHL1   C23 5869   2.699   3.341   9.082  0.0116  0.6651  0.4181
   46CHL1  H23A 5870   2.789   3.282   9.057 -1.6383 -1.4954 -0.7029
   46CHL1  H23B 5871   2.618   3.271   9.052  0.5683  1.4482 -3.5658
   46CHL1   C24 5872   2.686   3.455   8.977 -0.2108  0.2101  0.1741
   46CHL1  H24A 5873   2.587   3.504   8.991  0.3895  0.5955  4.5713
   46CHL1  H24B 5874   2.766   3.528   9.004 -1.5524  2.0551 -0.6354
   46CHL1   C25 5875   2.702   3.421   8.828 -0.0312  0.1476  0.0797
   46CHL1   H25 5876   2.808   3.398   8.807  0.3385  1.4094  0.5189
   46CHL1   C26 5877   2.631   3.293   8.781  0.3223  0.1560 -0.3336
   46CHL1  H26A 5878   2.523   3.315   8.773  0.0958 -0.1998  1.3574
   46CHL1  H26B 5879   2.674   3.264   8.683 -0.7063 -0.5865 -0.5826
   46CHL1  H26C 5880   2.661   3.214   8.854  0.4024  0.5484  0.0637
   46CHL1   C27 5881   2.660   3.544   8.746 -0.3877  0.0166  0.5362
   46CHL1  H27A 5882   2.738   3.622   8.760  0.7495 -0.8473 -0.7084
   46CHL1  H27B 5883   2.654   3.529   8.636 -2.4860  1.7256  0.3507
   46CHL1  H27C 5884   2.556   3.568   8.777 -1.2038 -1.9143 -0.5529
   47CHL1    C3 5885   0.454   6.202  10.283  0.1080 -0.1232 -0.1765
   47CHL1    H3 5886   0.562   6.185  10.268  0.2533  0.7251 -0.1478
   47CHL1    O3 5887   0.429   6.187  10.423 -0.1632 -0.6069 -0.2395
   47CHL1   H3' 5888   0.333   6.189  10.425 -0.2320 -2.4217  1.6112
   47CHL1    C4 5889   0.422   6.349  10.233 -0.4104  0.3970 -0.4126
   47CHL1   H4A 5890   0.319   6.374  10.266 -1.2321 -0.1670 -2.3845
   47CHL1   H4B 5891   0.488   6.421  10.286 -0.5786  0.0216  0.3220
   47CHL1    C5 5892   0.428   6.362  10.081  0.1847  0.3853  0.4488
   47CHL1    C6 5893   0.518   6.447  10.025  0.0719 -0.4207  0.3953
   47CHL1    H6 5894   0.569   6.531  10.074 -1.7283  1.1213 -0.2763
   47CHL1    C7 5895   0.522   6.456   9.876 -0.3713 -0.1902  0.6867
   47CHL1   H7A 5896   0.533   6.565   9.857 -3.2571 -0.1439 -1.4336
   47CHL1   H7B 5897   0.614   6.401   9.846  0.0483  0.2457  1.1380
   47CHL1    C8 5898   0.403   6.401   9.797  0.4250 -0.0229  0.6235
   47CHL1    H8 5899   0.319   6.467   9.826 -0.8376 -0.7406 -1.2278
   47CHL1   C14 5900   0.437   6.397   9.645 -0.1424  0.1436 -0.1624
   47CHL1   H14 5901   0.532   6.340   9.638 -1.4985 -2.2900  0.1969
   47CHL1   C15 5902   0.467   6.531   9.571  0.2175 -0.2830  0.2639
   47CHL1  H15A 5903   0.390   6.598   9.614  1.1248  0.0457  1.4389
   47CHL1  H15B 5904   0.573   6.564   9.575  0.5558 -0.2688 -3.8547
   47CHL1   C16 5905   0.441   6.491   9.425  0.0914  0.1037  0.0278
   47CHL1  H16A 5906   0.373   6.568   9.384 -2.0187 -2.1823 -1.0117
   47CHL1  H16B 5907   0.534   6.480   9.364  0.5764  0.8520  0.6051
   47CHL1   C17 5908   0.363   6.358   9.419  0.0465  0.5746 -0.5002
   47CHL1   H17 5909   0.434   6.274   9.399  2.4041  1.9347  1.6545
   47CHL1   C13 5910   0.326   6.330   9.567  0.4277  0.1857  0.3156
   47CHL1   C18 5911   0.185   6.389   9.592  0.5474  0.2133  0.1102
   47CHL1  H18A 5912   0.110   6.333   9.533 -0.4778  2.7664 -1.1500
   47CHL1  H18B 5913   0.146   6.375   9.695  0.1430  1.1628  0.0965
   47CHL1  H18C 5914   0.195   6.498   9.572 -0.3636  0.9808  3.2445
   47CHL1   C12 5915   0.329   6.182   9.597 -0.3748  0.3414 -0.5873
   47CHL1  H12A 5916   0.250   6.131   9.537 -0.0091  1.8497 -2.4328
   47CHL1  H12B 5917   0.434   6.151   9.578  1.0432  0.9388  4.7361
   47CHL1   C11 5918   0.309   6.162   9.751 -0.4430  0.2313 -0.1278
   47CHL1  H11A 5919   0.203   6.184   9.778  0.0793  2.3255  0.3860
   47CHL1  H11B 5920   0.331   6.057   9.778 -1.5972 -0.2640 -1.0366
   47CHL1    C9 5921   0.389   6.258   9.843 -0.2724 -0.5169 -0.9000
   47CHL1    H9 5922   0.493   6.220   9.846  0.3142  0.9499  2.2235
   47CHL1   C10 5923   0.344   6.259   9.996  0.4855  0.5182 -0.6130
   47CHL1   C19 5924   0.191   6.298  10.018  0.4575  0.0644  0.2831
   47CHL1  H19A 5925   0.166   6.401   9.985 -2.2605 -0.7899 -0.5958
   47CHL1  H19B 5926   0.128   6.226   9.962 -0.1643  0.2608  0.7156
   47CHL1  H19C 5927   0.167   6.308  10.127 -0.0635  1.1219  0.0892
   47CHL1    C1 5928   0.371   6.120  10.053 -0.3354 -0.0628 -0.1688
   47CHL1   H1A 5929   0.293   6.052  10.013  0.0243 -0.2778 -0.5111
   47CHL1   H1B 5930   0.474   6.088  10.026 -0.4173 -0.6472  0.1959
   47CHL1    C2 5931   0.363   6.103  10.209  0.8328  0.1740  0.1430
   47CHL1   H2A 5932   0.377   5.996  10.236  1.7282 -0.3467 -2.1225
   47CHL1   H2B 5933   0.256   6.108  10.239  0.0189  0.0713 -2.5255
   47CHL1   C20 5934   0.252   6.358   9.308 -0.0888  0.0307  0.4944
   47CHL1   H20 5935   0.180   6.440   9.329 -1.1691 -0.7266 -0.1216
   47CHL1   C21 5936   0.172   6.235   9.297  0.4130 -0.1677 -0.1587
   47CHL1  H21A 5937   0.246   6.158   9.266 -0.2856 -0.1713 -1.9261
   47CHL1  H21B 5938   0.096   6.239   9.217 -0.7968 -0.1565  0.9649
   47CHL1  H21C 5939   0.119   6.208   9.390  0.7581  0.9978  0.3937
   47CHL1   C22 5940   0.312   6.388   9.172 -0.5488 -0.3821 -0.1385
   47CHL1  H22A 5941   0.347   6.493   9.181  3.7224 -1.7500  1.3275
   47CHL1  H22B 5942   0.397   6.320   9.153 -1.0986 -0.8573 -0.9620
   47CHL1   C23 5943   0.222   6.387   9.052  0.0811 -0.3024  0.2688
   47CHL1  H23A 5944   0.174   6.294   9.016 -0.8909  1.4422 -3.4308
   47CHL1  H23B 5945   0.146   6.468   9.061  1.5836  1.1547  0.4965
   47CHL1   C24 5946   0.307   6.444   8.932  0.3302 -0.6433 -0.2018
   47CHL1  H24A 5947   0.362   6.539   8.952  0.6705 -0.7864 -0.4560
   47CHL1  H24B 5948   0.381   6.362   8.919  0.7882 -0.1234 -0.9689
   47CHL1   C25 5949   0.237   6.436   8.797 -0.5507  0.2334 -0.3280
   47CHL1   H25 5950   0.212   6.329   8.783  1.8358 -0.4886  0.3786
   47CHL1   C26 5951   0.126   6.536   8.781 -0.2141 -0.4228  0.0118
   47CHL1  H26A 5952   0.159   6.640   8.800  1.8386 -1.1048  0.4082
   47CHL1  H26B 5953   0.062   6.520   8.870 -2.3676 -2.1418 -1.7064
   47CHL1  H26C 5954   0.074   6.538   8.682 -0.7319  2.7019  0.2432
   47CHL1   C27 5955   0.337   6.464   8.681  0.0126 -0.2155  0.8005
   47CHL1  H27A 5956   0.410   6.381   8.669  3.2172  2.1581  2.2531
   47CHL1  H27B 5957   0.287   6.486   8.584  2.1656  0.8905 -0.1360
   47CHL1  H27C 5958   0.382   6.562   8.709  1.3356 -0.7769  0.7167
   48CHL1    C3 5959   0.671   3.374  10.125 -0.4995  0.2621  0.8595
   48CHL1    H3 5960   0.586   3.445  10.114  0.7884  1.6762 -0.6001
   48CHL1    O3 5961   0.717   3.368  10.257 -0.0447  0.1940 -0.1943
   48CHL1   H3' 5962   0.805   3.329  10.259 -0.2128 -0.2123 -0.4938
   48CHL1    C4 5963   0.647   3.235  10.055  0.5275 -0.3104 -1.0215
   48CHL1   H4A 5964   0.733   3.165  10.068  0.6692  0.2866  2.0347
   48CHL1   H4B 5965   0.572   3.188  10.123  1.1589 -0.4424 -0.4048
   48CHL1    C5 5966   0.600   3.258   9.915  0.5368  0.8847 -0.2427
   48CHL1    C6 5967   0.482   3.217   9.873  0.3253  0.7458 -0.4348
   48CHL1    H6 5968   0.418   3.159   9.941  0.1735  0.3919 -0.8707
   48CHL1    C7 5969   0.420   3.233   9.740 -0.4020 -0.4680  0.1591
   48CHL1   H7A 5970   0.363   3.141   9.716 -2.0385 -0.2951  3.0589
   48CHL1   H7B 5971   0.341   3.311   9.746  1.3209  1.4716 -0.9987
   48CHL1    C8 5972   0.522   3.277   9.633 -0.4166 -0.3337  0.1893
   48CHL1    H8 5973   0.584   3.188   9.611 -1.3427 -1.9970  3.6393
   48CHL1   C14 5974   0.447   3.344   9.516 -0.4420 -0.9690  0.3912
   48CHL1   H14 5975   0.392   3.432   9.554  0.5011 -1.2999  2.6718
   48CHL1   C15 5976   0.341   3.256   9.452 -0.1882 -0.2369  0.3469
   48CHL1  H15A 5977   0.370   3.148   9.448  1.5945  0.1835  0.9011
   48CHL1  H15B 5978   0.245   3.261   9.506 -0.7728  1.4401 -0.7629
   48CHL1   C16 5979   0.325   3.313   9.312 -0.0410  0.0514  0.2588
   48CHL1  H16A 5980   0.347   3.230   9.242  0.8068 -0.1841  0.7884
   48CHL1  H16B 5981   0.224   3.357   9.298  0.5917  1.1771 -0.9623
   48CHL1   C17 5982   0.426   3.427   9.299 -0.2234 -0.3565 -0.0260
   48CHL1   H17 5983   0.379   3.510   9.355 -0.3838  0.9091 -1.9475
   48CHL1   C13 5984   0.541   3.396   9.403 -0.1476 -0.6259  0.0907
   48CHL1   C18 5985   0.616   3.266   9.345 -0.4248  0.2587  0.0240
   48CHL1  H18A 5986   0.680   3.292   9.257  0.6893 -1.0635  0.4122
   48CHL1  H18B 5987   0.676   3.212   9.421  2.4665  1.3505 -1.3015
   48CHL1  H18C 5988   0.546   3.189   9.308 -0.4181 -0.8098  2.1106
   48CHL1   C12 5989   0.633   3.499   9.460 -0.0404  0.5310  0.5879
   48CHL1  H12A 5990   0.711   3.526   9.385 -1.0152  1.6029 -0.0863
   48CHL1  H12B 5991   0.574   3.590   9.485  0.1031  0.4678  1.1680
   48CHL1   C11 5992   0.714   3.442   9.580 -0.3588  0.1592  0.3937
   48CHL1  H11A 5993   0.776   3.355   9.550 -1.0993 -0.7862  1.5093
   48CHL1  H11B 5994   0.787   3.513   9.623  1.5241 -1.0672 -0.6329
   48CHL1    C9 5995   0.620   3.385   9.688 -1.1500  0.9024 -0.4176
   48CHL1    H9 5996   0.556   3.466   9.728 -1.8144  0.7732 -1.1916
   48CHL1   C10 5997   0.694   3.337   9.818  0.0514  0.5886 -0.1928
   48CHL1   C19 5998   0.812   3.244   9.795  0.3276 -0.5079 -0.0786
   48CHL1  H19A 5999   0.901   3.293   9.751  0.1139 -0.8745 -0.9377
   48CHL1  H19B 6000   0.853   3.191   9.884  0.9459  0.8015  0.4371
   48CHL1  H19C 6001   0.781   3.168   9.720  0.4788  0.3235 -0.9995
   48CHL1    C1 6002   0.742   3.464   9.894 -0.7208  0.0723  0.1891
   48CHL1   H1A 6003   0.825   3.513   9.838  0.0617  0.9276  2.0179
   48CHL1   H1B 6004   0.662   3.542   9.898 -0.3404  0.5486 -1.0658
   48CHL1    C2 6005   0.778   3.442  10.041 -1.2313  0.3965 -0.3945
   48CHL1   H2A 6006   0.811   3.535  10.092 -3.2589 -0.1623  2.1481
   48CHL1   H2B 6007   0.864   3.372  10.038  0.1581  2.0413 -0.7625
   48CHL1   C20 6008   0.469   3.466   9.160 -0.1864  0.0158  0.4503
   48CHL1   H20 6009   0.506   3.373   9.112 -0.1477  0.0546  0.4068
   48CHL1   C21 6010   0.589   3.570   9.146  0.0097  0.0509 -0.0184
   48CHL1  H21A 6011   0.602   3.597   9.038 -0.3495 -0.3617 -0.1667
   48CHL1  H21B 6012   0.683   3.527   9.188  0.6174  1.1923 -0.1608
   48CHL1  H21C 6013   0.580   3.656   9.216  0.4705  0.3032 -0.2606
   48CHL1   C22 6014   0.344   3.507   9.080  0.0609  0.3559  0.5159
   48CHL1  H22A 6015   0.258   3.438   9.098  0.7450 -0.3214  1.2968
   48CHL1  H22B 6016   0.308   3.608   9.110 -1.7166 -0.6612  2.0483
   48CHL1   C23 6017   0.347   3.514   8.925 -0.2297  0.4871  0.4596
   48CHL1  H23A 6018   0.423   3.577   8.874 -0.9582 -1.0963 -2.8232
   48CHL1  H23B 6019   0.361   3.408   8.894 -0.0360  0.7696 -0.4356
   48CHL1   C24 6020   0.206   3.545   8.876  0.1129 -0.7249  0.5109
   48CHL1  H24A 6021   0.133   3.480   8.928 -2.4443  1.4119 -0.2077
   48CHL1  H24B 6022   0.176   3.646   8.911 -1.0859 -1.0824  0.5667
   48CHL1   C25 6023   0.206   3.548   8.720 -0.1655  0.5858 -0.3036
   48CHL1   H25 6024   0.271   3.625   8.674  0.8101 -0.5232 -0.8508
   48CHL1   C26 6025   0.249   3.412   8.662 -0.0756 -0.3869 -0.4074
   48CHL1  H26A 6026   0.206   3.404   8.560 -0.3708 -0.9900 -0.2383
   48CHL1  H26B 6027   0.359   3.409   8.653  0.0097 -0.9767  0.6591
   48CHL1  H26C 6028   0.215   3.320   8.714  1.6534 -1.3530 -0.9297
   48CHL1   C27 6029   0.065   3.577   8.656 -0.0067  0.2781  0.3997
   48CHL1  H27A 6030   0.066   3.561   8.546  0.1020 -1.8143  0.6551
   48CHL1  H27B 6031  -0.015   3.512   8.699  0.3529 -0.9763 -0.7404
   48CHL1  H27C 6032   0.054   3.686   8.675  1.2476  0.5534 -0.3512
   49CHL1    C3 6033   3.288   3.453  10.215  0.4068 -0.1770 -0.1079
   49CHL1    H3 6034   3.394   3.478  10.190  1.0759 -1.5452  1.1469
   49CHL1    O3 6035   3.266   3.430  10.359 -0.0074 -0.5097  0.2624
   49CHL1   H3' 6036   3.171   3.430  10.370 -0.3511  1.8281 -1.8231
   49CHL1    C4 6037   3.209   3.578  10.170  0.4479 -0.4893  0.2063
   49CHL1   H4A 6038   3.102   3.554  10.191  0.0108  0.2275 -1.0515
   49CHL1   H4B 6039   3.235   3.668  10.229  0.5307  0.4444 -1.2026
   49CHL1    C5 6040   3.225   3.599  10.022  0.0774 -0.0114  0.0680
   49CHL1    C6 6041   3.273   3.715   9.975  0.0961  0.2601 -0.0633
   49CHL1    H6 6042   3.316   3.797  10.034  1.3621 -0.6779  0.3721
   49CHL1    C7 6043   3.285   3.740   9.828  0.9040  0.3546 -0.0470
   49CHL1   H7A 6044   3.239   3.838   9.800 -0.3220 -0.0130  0.6412
   49CHL1   H7B 6045   3.392   3.742   9.796  0.5676 -0.8893 -1.3723
   49CHL1    C8 6046   3.214   3.637   9.728 -0.0238  0.0479  0.8275
   49CHL1    H8 6047   3.109   3.665   9.709  0.2455 -0.3021 -1.4016
   49CHL1   C14 6048   3.279   3.632   9.584 -0.5948 -0.5994  0.5273
   49CHL1   H14 6049   3.388   3.609   9.589 -0.3529  0.4009  0.2304
   49CHL1   C15 6050   3.290   3.769   9.512  0.2401  0.2300  0.1721
   49CHL1  H15A 6051   3.187   3.809   9.526 -1.0931 -2.3593 -1.3325
   49CHL1  H15B 6052   3.366   3.843   9.544  1.3628 -0.1491 -1.4787
   49CHL1   C16 6053   3.310   3.723   9.364 -0.6062  1.7120  0.8166
   49CHL1  H16A 6054   3.233   3.773   9.302 -1.1827 -0.1934 -0.1053
   49CHL1  H16B 6055   3.410   3.750   9.324 -1.5231  0.9570 -2.2117
   49CHL1   C17 6056   3.292   3.563   9.358  0.8252 -0.0142 -0.4292
   49CHL1   H17 6057   3.394   3.519   9.362  0.0879 -1.8973 -1.2197
   49CHL1   C13 6058   3.221   3.532   9.489 -0.0509  0.0049  1.0871
   49CHL1   C18 6059   3.070   3.560   9.466 -0.2040 -0.6809 -0.4944
   49CHL1  H18A 6060   3.060   3.660   9.419  1.9670 -0.3402 -0.3351
   49CHL1  H18B 6061   3.030   3.481   9.398  2.1989 -1.1195 -1.4998
   49CHL1  H18C 6062   3.010   3.559   9.560  0.6736  2.3569  0.1997
   49CHL1   C12 6063   3.247   3.396   9.550 -0.6276 -0.7393  0.0263
   49CHL1  H12A 6064   3.224   3.317   9.477 -1.6562 -0.1736 -0.2823
   49CHL1  H12B 6065   3.358   3.399   9.560 -0.5529 -0.9287 -0.7170
   49CHL1   C11 6066   3.178   3.387   9.686  0.1676 -0.3956 -0.1370
   49CHL1  H11A 6067   3.069   3.392   9.667  0.4272  0.5370 -1.5491
   49CHL1  H11B 6068   3.203   3.287   9.729 -0.7727 -0.2350  0.8055
   49CHL1    C9 6069   3.234   3.493   9.785 -0.0482  0.1920 -0.0679
   49CHL1    H9 6070   3.344   3.479   9.773 -0.2852 -0.7135 -1.3661
   49CHL1   C10 6071   3.191   3.471   9.937  0.1319 -0.9699 -0.4091
   49CHL1   C19 6072   3.036   3.463   9.938 -0.1063 -0.2784  0.1666
   49CHL1  H19A 6073   3.000   3.369   9.891 -2.4762 -0.1927  1.6588
   49CHL1  H19B 6074   2.993   3.456  10.040  0.5791 -1.6335  0.3872
   49CHL1  H19C 6075   2.999   3.548   9.878  0.5036  0.7295  1.1815
   49CHL1    C1 6076   3.253   3.341   9.992 -0.2152  0.3377 -0.1644
   49CHL1   H1A 6077   3.199   3.253   9.951  1.8812 -0.6143 -1.0032
   49CHL1   H1B 6078   3.358   3.331   9.958  0.7035  2.0764  1.9541
   49CHL1    C2 6079   3.243   3.328  10.143  0.4082 -0.5737 -0.0730
   49CHL1   H2A 6080   3.301   3.238  10.172  1.6547 -0.2515 -1.4417
   49CHL1   H2B 6081   3.135   3.311  10.162 -0.1512  1.7076 -0.8335
   49CHL1   C20 6082   3.247   3.519   9.216  0.6215  1.0007  0.1029
   49CHL1   H20 6083   3.153   3.578   9.203 -0.3553 -0.7664 -1.2263
   49CHL1   C21 6084   3.220   3.369   9.218  0.6714  0.3267  0.5591
   49CHL1  H21A 6085   3.128   3.343   9.275  0.8710 -1.1314  0.2615
   49CHL1  H21B 6086   3.301   3.300   9.251  0.2571 -0.6112 -0.3204
   49CHL1  H21C 6087   3.208   3.329   9.115  2.1417 -0.9486  0.8373
   49CHL1   C22 6088   3.351   3.558   9.109 -0.0248  0.0174 -0.3359
   49CHL1  H22A 6089   3.368   3.666   9.122  0.3764 -0.1277  0.3641
   49CHL1  H22B 6090   3.448   3.512   9.140 -0.9611 -0.7466  1.6064
   49CHL1   C23 6091   3.331   3.509   8.968  0.7985 -0.2745  0.1409
   49CHL1  H23A 6092   3.422   3.538   8.911  0.3264  2.9212  0.7933
   49CHL1  H23B 6093   3.328   3.399   8.972 -0.0109 -0.2637  0.0853
   49CHL1   C24 6094   3.202   3.553   8.895  0.2237 -0.3606 -0.2033
   49CHL1  H24A 6095   3.186   3.486   8.808 -0.6609 -0.8732  0.3347
   49CHL1  H24B 6096   3.122   3.522   8.965 -0.2382  0.0384 -0.5474
   49CHL1   C25 6097   3.191   3.697   8.851  0.6258  0.9095 -0.8078
   49CHL1   H25 6098   3.201   3.772   8.933  0.5452  0.2202 -0.1633
   49CHL1   C26 6099   3.296   3.718   8.738 -0.7757 -0.1509  0.1824
   49CHL1  H26A 6100   3.279   3.820   8.697  2.5157  0.1430 -0.7400
   49CHL1  H26B 6101   3.396   3.711   8.786  1.0855 -1.7160 -3.4973
   49CHL1  H26C 6102   3.280   3.637   8.663 -1.2496  1.4435 -1.4874
   49CHL1   C27 6103   3.043   3.716   8.799  0.4595  0.0067 -0.6970
   49CHL1  H27A 6104   2.966   3.682   8.873  1.1620 -0.7868 -0.3083
   49CHL1  H27B 6105   3.017   3.822   8.781  2.5290  0.4277 -1.4054
   49CHL1  H27C 6106   3.018   3.667   8.703 -1.2858 -0.3398 -0.1183
   50CHL1    C3 6107   2.736   5.526  10.288 -0.5083  0.1351 -0.1084
   50CHL1    H3 6108   2.636   5.576  10.292 -0.2121  0.6919  0.7268
   50CHL1    O3 6109   2.763   5.451  10.412  0.9458 -0.3816 -0.7142
   50CHL1   H3' 6110   2.848   5.408  10.399  1.7159  0.0355  2.3216
   50CHL1    C4 6111   2.734   5.427  10.180 -0.6899 -0.3351 -1.2691
   50CHL1   H4A 6112   2.822   5.359  10.189 -0.5484 -0.0469 -0.4171
   50CHL1   H4B 6113   2.647   5.358  10.187 -0.0957 -0.9058  1.4381
   50CHL1    C5 6114   2.742   5.482  10.042 -0.7981  0.6380 -0.3075
   50CHL1    C6 6115   2.648   5.448   9.948 -0.2340 -0.1536 -0.1008
   50CHL1    H6 6116   2.559   5.388   9.973  0.1073 -0.4031  0.5234
   50CHL1    C7 6117   2.645   5.502   9.810  0.1722  0.0037  0.0932
   50CHL1   H7A 6118   2.633   5.413   9.745  0.7202  0.2620 -0.3721
   50CHL1   H7B 6119   2.557   5.564   9.783 -0.8336 -0.8014  1.3921
   50CHL1    C8 6120   2.775   5.572   9.764  0.2207 -0.2917 -0.4382
   50CHL1    H8 6121   2.844   5.493   9.726 -0.3248  0.0829 -2.3323
   50CHL1   C14 6122   2.739   5.659   9.646  0.4527  0.5376 -0.2365
   50CHL1   H14 6123   2.667   5.737   9.679 -0.0881 -0.2383  0.4750
   50CHL1   C15 6124   2.673   5.601   9.518 -0.0034 -0.1389 -0.0038
   50CHL1  H15A 6125   2.700   5.494   9.506  3.0122  0.6485 -1.1382
   50CHL1  H15B 6126   2.562   5.608   9.522  0.0685  2.9748 -0.5637
   50CHL1   C16 6127   2.713   5.688   9.404 -0.2490  0.1463  0.2018
   50CHL1  H16A 6128   2.775   5.628   9.334 -1.0223 -0.4436  0.0031
   50CHL1  H16B 6129   2.631   5.739   9.348  0.9003  2.8886  0.8512
   50CHL1   C17 6130   2.813   5.800   9.460 -0.1603  0.1575 -0.7252
   50CHL1   H17 6131   2.747   5.880   9.499 -0.9557 -0.5622 -0.5513
   50CHL1   C13 6132   2.864   5.738   9.587 -0.1442 -0.1399 -0.3010
   50CHL1   C18 6133   2.975   5.634   9.540  0.4777 -0.0500 -0.1256
   50CHL1  H18A 6134   2.949   5.565   9.457  0.9369 -0.2241 -0.1273
   50CHL1  H18B 6135   3.067   5.683   9.501 -1.0980  0.0446 -4.2880
   50CHL1  H18C 6136   3.003   5.575   9.630 -1.3908 -1.6485 -0.5263
   50CHL1   C12 6137   2.914   5.834   9.699 -0.1466 -0.2397 -0.5100
   50CHL1  H12A 6138   3.005   5.884   9.661  0.0768  0.1609  0.5254
   50CHL1  H12B 6139   2.838   5.915   9.707  1.7546  1.5882 -0.0966
   50CHL1   C11 6140   2.935   5.764   9.829 -0.3811 -0.1968 -0.7215
   50CHL1  H11A 6141   3.029   5.706   9.817  0.9072  1.7834 -0.6387
   50CHL1  H11B 6142   2.947   5.843   9.906 -3.2598  1.6666 -1.9911
   50CHL1    C9 6143   2.827   5.655   9.883  0.8000  0.3356  0.3552
   50CHL1    H9 6144   2.737   5.719   9.898 -1.4302 -1.8111 -2.4918
   50CHL1   C10 6145   2.854   5.585  10.014 -0.1210 -0.0158  0.6093
   50CHL1   C19 6146   2.989   5.511  10.004 -0.1637 -0.2040 -0.6067
   50CHL1  H19A 6147   2.993   5.456   9.908  0.4618 -0.5548 -0.3881
   50CHL1  H19B 6148   3.078   5.577  10.010 -0.8266  0.6231  0.6768
   50CHL1  H19C 6149   2.997   5.432  10.081  0.9029  0.0806 -0.4103
   50CHL1    C1 6150   2.837   5.688  10.131 -0.8109 -0.5840  0.0102
   50CHL1   H1A 6151   2.914   5.767  10.124 -0.3202 -1.0469  0.1099
   50CHL1   H1B 6152   2.741   5.741  10.111 -0.2894  1.2718  2.0731
   50CHL1    C2 6153   2.842   5.632  10.270  0.3412 -0.3310  0.2587
   50CHL1   H2A 6154   2.829   5.712  10.346  1.5614 -1.4998  1.7715
   50CHL1   H2B 6155   2.945   5.589  10.274  0.3180 -0.8023 -2.3042
   50CHL1   C20 6156   2.895   5.856   9.349  0.2331  0.1548  0.8554
   50CHL1   H20 6157   2.955   5.778   9.298 -0.0200  1.1579 -1.0910
   50CHL1   C21 6158   2.997   5.955   9.410 -0.4707  0.3158  0.2658
   50CHL1  H21A 6159   2.944   6.035   9.466  0.1761  0.3352  0.8653
   50CHL1  H21B 6160   3.068   5.998   9.337  0.2480  0.5482  1.0798
   50CHL1  H21C 6161   3.070   5.901   9.474 -2.7593 -0.9278  2.0329
   50CHL1   C22 6162   2.809   5.914   9.236  0.0652 -0.3149  0.8687
   50CHL1  H22A 6163   2.715   5.862   9.205 -1.6164  1.8970  1.9365
   50CHL1  H22B 6164   2.767   6.015   9.256  0.3220  0.2408 -1.1293
   50CHL1   C23 6165   2.882   5.926   9.099 -0.6358 -0.5267 -0.7485
   50CHL1  H23A 6166   2.823   5.983   9.024 -0.6417 -0.4534 -0.6879
   50CHL1  H23B 6167   2.970   5.991   9.121 -1.4662 -0.0897  1.5327
   50CHL1   C24 6168   2.904   5.794   9.025 -0.7976  0.0547  0.0183
   50CHL1  H24A 6169   2.962   5.724   9.088 -2.1945 -1.7523 -0.5958
   50CHL1  H24B 6170   2.799   5.758   9.016 -1.9895  2.7097  1.9495
   50CHL1   C25 6171   2.969   5.818   8.886 -0.3356  0.4322 -0.4543
   50CHL1   H25 6172   2.922   5.906   8.837  1.1768  1.2318 -0.5247
   50CHL1   C26 6173   3.115   5.849   8.907 -0.0990 -0.4328 -0.1584
   50CHL1  H26A 6174   3.166   5.759   8.949  0.9017  0.6271  0.9674
   50CHL1  H26B 6175   3.183   5.876   8.824  0.4441  1.2452  0.7798
   50CHL1  H26C 6176   3.126   5.936   8.975  0.1692 -1.8863  1.7459
   50CHL1   C27 6177   2.941   5.698   8.794  0.6744  0.1372 -0.3031
   50CHL1  H27A 6178   2.980   5.726   8.694  3.0972  1.2456  0.8573
   50CHL1  H27B 6179   2.987   5.600   8.820 -1.8154 -0.8821  0.5415
   50CHL1  H27C 6180   2.832   5.683   8.786  0.0367  1.8812  3.0762
   51CHL1    C3 6181   5.901   5.094  10.333 -0.1943  0.2429 -0.1885
   51CHL1    H3 6182   5.942   4.991  10.339  1.8280  1.0636  1.0954
   51CHL1    O3 6183   5.884   5.133  10.471  0.4392 -0.1858  0.0383
   51CHL1   H3' 6184   5.844   5.221  10.469  0.4981 -0.0842  1.9616
   51CHL1    C4 6185   6.000   5.188  10.265 -0.6360  0.1838 -0.1751
   51CHL1   H4A 6186   5.951   5.288  10.255  0.0665  0.5013 -0.4923
   51CHL1   H4B 6187   6.093   5.203  10.323 -1.4622  0.2634  1.1650
   51CHL1    C5 6188   6.037   5.129  10.128 -0.4036  0.1141 -0.0062
   51CHL1    C6 6189   6.164   5.095  10.100  0.2789 -0.5632 -0.4426
   51CHL1    H6 6190   6.253   5.119  10.160  0.7047  2.7113 -2.1579
   51CHL1    C7 6191   6.202   5.047   9.961 -0.3828 -1.0711 -0.2691
   51CHL1   H7A 6192   6.296   5.098   9.931 -0.3052 -1.3014 -0.4170
   51CHL1   H7B 6193   6.222   4.938   9.968 -0.0802 -1.0886 -1.2481
   51CHL1    C8 6194   6.095   5.067   9.854  0.1654 -0.0996  0.8109
   51CHL1    H8 6195   6.087   5.171   9.816  1.2046 -0.7081 -1.1620
   51CHL1   C14 6196   6.132   4.985   9.732  0.3964 -0.7330  0.8613
   51CHL1   H14 6197   6.140   4.882   9.772 -0.6289 -0.4290  1.8937
   51CHL1   C15 6198   6.265   5.013   9.661 -0.4123 -0.1885  0.1301
   51CHL1  H15A 6199   6.287   5.121   9.661  1.1012 -0.3521  3.7708
   51CHL1  H15B 6200   6.347   4.975   9.727 -0.8297  0.1810  0.8727
   51CHL1   C16 6201   6.250   4.945   9.525 -0.4819  0.2259 -0.7259
   51CHL1  H16A 6202   6.259   5.014   9.439 -2.1216  0.9829 -0.3268
   51CHL1  H16B 6203   6.316   4.857   9.509  1.4359  1.2082  1.2651
   51CHL1   C17 6204   6.103   4.887   9.513  0.4925 -0.9439 -0.5152
   51CHL1   H17 6205   6.104   4.784   9.556  1.0240 -1.2608 -1.2479
   51CHL1   C13 6206   6.026   4.968   9.618  0.3627 -0.4960  0.1359
   51CHL1   C18 6207   5.994   5.106   9.558 -0.5001 -0.1437  0.1087
   51CHL1  H18A 6208   5.948   5.176   9.631 -0.6069 -0.9239  0.7948
   51CHL1  H18B 6209   6.088   5.161   9.536 -0.3491  0.2354  1.6161
   51CHL1  H18C 6210   5.931   5.103   9.467  0.9105 -0.2936 -0.9041
   51CHL1   C12 6211   5.898   4.921   9.681 -0.4415 -0.3985  0.1928
   51CHL1  H12A 6212   5.810   4.919   9.613 -0.5902  0.5895  0.3503
   51CHL1  H12B 6213   5.930   4.820   9.715 -1.8298 -0.9100  0.0392
   51CHL1   C11 6214   5.850   4.996   9.802  0.4932 -0.1734 -0.1731
   51CHL1  H11A 6215   5.818   5.101   9.784 -0.7320 -0.0006  2.4606
   51CHL1  H11B 6216   5.757   4.955   9.848  1.2126 -0.2005  1.3379
   51CHL1    C9 6217   5.959   5.018   9.914  0.1253 -0.5643  0.5481
   51CHL1    H9 6218   5.965   4.913   9.949  0.9652 -0.5501  0.4780
   51CHL1   C10 6219   5.917   5.103  10.034 -0.3583  0.2391 -0.1375
   51CHL1   C19 6220   5.862   5.245   9.989  0.5063  0.5836 -0.8967
   51CHL1  H19A 6221   5.830   5.305  10.077  2.4883  0.3301  0.0694
   51CHL1  H19B 6222   5.942   5.306   9.942  1.5484  0.8745  1.1300
   51CHL1  H19C 6223   5.778   5.239   9.917  0.6529  5.1355 -1.7290
   51CHL1    C1 6224   5.807   5.027  10.110  0.8194  0.3357  0.1653
   51CHL1   H1A 6225   5.719   5.030  10.043 -0.6090 -0.1010  1.9559
   51CHL1   H1B 6226   5.826   4.917  10.115  0.4840  0.1252 -2.0121
   51CHL1    C2 6227   5.775   5.094  10.245  0.5706 -0.4647  0.2933
   51CHL1   H2A 6228   5.697   5.033  10.296  1.9955 -1.7701  0.9964
   51CHL1   H2B 6229   5.732   5.193  10.221  0.1744 -0.4301  1.1390
   51CHL1   C20 6230   6.053   4.874   9.369 -0.1549 -0.0797  0.5636
   51CHL1   H20 6231   6.065   4.973   9.321  0.3410 -0.0156  0.8265
   51CHL1   C21 6232   5.905   4.848   9.371  0.0190  0.3841  0.5862
   51CHL1  H21A 6233   5.888   4.746   9.413 -1.0353  0.2540 -0.1053
   51CHL1  H21B 6234   5.868   4.853   9.266  2.2878 -1.5910 -0.3863
   51CHL1  H21C 6235   5.850   4.934   9.416 -0.9903  1.4619 -2.4198
   51CHL1   C22 6236   6.131   4.768   9.285 -0.7802 -0.3928 -0.2960
   51CHL1  H22A 6237   6.237   4.800   9.296 -0.8815  0.2424 -1.1132
   51CHL1  H22B 6238   6.116   4.669   9.333  2.2750 -0.7651  0.0983
   51CHL1   C23 6239   6.092   4.763   9.132  0.0216  0.6447 -0.3610
   51CHL1  H23A 6240   5.988   4.722   9.130 -0.5060  1.9825 -1.0846
   51CHL1  H23B 6241   6.092   4.866   9.091 -0.0540  1.9635  2.6819
   51CHL1   C24 6242   6.195   4.676   9.063  0.0030  0.4242 -0.2119
   51CHL1  H24A 6243   6.291   4.727   9.083 -0.4533  1.4909 -0.6643
   51CHL1  H24B 6244   6.198   4.568   9.090  1.8554  0.5740  0.3076
   51CHL1   C25 6245   6.148   4.681   8.912 -0.2065 -0.4490  0.0593
   51CHL1   H25 6246   6.150   4.786   8.875  0.0398 -0.7819 -0.9092
   51CHL1   C26 6247   6.259   4.613   8.839 -0.0205  0.0018 -1.1572
   51CHL1  H26A 6248   6.261   4.503   8.854 -0.8978  0.1475  0.1182
   51CHL1  H26B 6249   6.237   4.630   8.731 -1.3671  0.1745 -0.8700
   51CHL1  H26C 6250   6.352   4.659   8.879  0.3929 -0.5445 -1.4586
   51CHL1   C27 6251   6.013   4.618   8.870 -0.8802 -1.0277  0.0891
   51CHL1  H27A 6252   6.027   4.508   8.866 -0.7299 -1.1544  2.7240
   51CHL1  H27B 6253   5.922   4.635   8.931 -2.3619 -0.9462 -2.0495
   51CHL1  H27C 6254   5.984   4.644   8.766  0.2388  0.4167  0.1018
   52CHL1    C3 6255   4.222   1.585  10.335 -0.6727  0.3994 -0.0792
   52CHL1    H3 6256   4.120   1.626  10.316 -0.1456  0.7958 -2.1821
   52CHL1    O3 6257   4.244   1.563  10.476 -0.3109  0.2689 -0.1502
   52CHL1   H3' 6258   4.323   1.509  10.475 -0.5057 -0.0177 -0.0817
   52CHL1    C4 6259   4.229   1.445  10.264  0.4853 -0.1706 -0.2726
   52CHL1   H4A 6260   4.331   1.407  10.284  1.0906  0.8271 -1.3126
   52CHL1   H4B 6261   4.154   1.385  10.319  0.0278  0.1450 -0.5475
   52CHL1    C5 6262   4.196   1.444  10.117 -0.2534 -0.1256 -0.0628
   52CHL1    C6 6263   4.096   1.380  10.061 -0.1761 -0.4801 -0.0264
   52CHL1    H6 6264   4.030   1.325  10.129  0.8095 -0.5158  0.9319
   52CHL1    C7 6265   4.077   1.366   9.916  0.5526 -0.5729  0.4395
   52CHL1   H7A 6266   4.063   1.265   9.872 -2.1887  0.7771 -2.2100
   52CHL1   H7B 6267   3.994   1.424   9.870  1.0855 -1.4168 -1.7249
   52CHL1    C8 6268   4.195   1.426   9.835  0.3511 -0.0381  0.5158
   52CHL1    H8 6269   4.270   1.344   9.828 -0.1774 -0.4219 -1.1499
   52CHL1   C14 6270   4.147   1.453   9.687  0.1179 -0.1520 -0.5353
   52CHL1   H14 6271   4.079   1.537   9.709 -0.5950 -0.0971 -2.7300
   52CHL1   C15 6272   4.062   1.355   9.603 -0.0095 -0.3661 -0.0293
   52CHL1  H15A 6273   4.108   1.255   9.618  0.2061 -0.3936 -0.8165
   52CHL1  H15B 6274   3.963   1.354   9.652 -0.0153 -0.4286 -0.0428
   52CHL1   C16 6275   4.066   1.409   9.458 -0.1893  0.1145 -0.0920
   52CHL1  H16A 6276   4.099   1.330   9.388  0.4646  1.1861 -1.0408
   52CHL1  H16B 6277   3.967   1.433   9.413 -0.0371 -0.0935 -0.5433
   52CHL1   C17 6278   4.165   1.534   9.458 -0.7522  0.6901 -0.6475
   52CHL1   H17 6279   4.104   1.625   9.476 -1.3563  0.3476 -0.9341
   52CHL1   C13 6280   4.245   1.514   9.589 -0.5113  0.6680 -0.0136
   52CHL1   C18 6281   4.355   1.405   9.562  0.5791 -0.1552 -0.2061
   52CHL1  H18A 6282   4.434   1.456   9.503 -0.0666  1.9171  0.6255
   52CHL1  H18B 6283   4.414   1.373   9.651  2.7421  2.6400 -0.5095
   52CHL1  H18C 6284   4.322   1.306   9.521  1.5137 -0.2858 -0.6738
   52CHL1   C12 6285   4.291   1.644   9.654 -0.3587  0.8148  0.3002
   52CHL1  H12A 6286   4.369   1.697   9.594 -0.7319 -0.0332 -0.9782
   52CHL1  H12B 6287   4.199   1.705   9.662 -2.0418 -1.8092  4.8029
   52CHL1   C11 6288   4.344   1.618   9.790 -0.3026  0.5142 -0.5591
   52CHL1  H11A 6289   4.439   1.561   9.784 -0.3367  0.1400  1.4930
   52CHL1  H11B 6290   4.381   1.712   9.835 -1.8971  1.3164 -0.8329
   52CHL1    C9 6291   4.249   1.550   9.899 -0.6629 -0.3438 -0.1852
   52CHL1    H9 6292   4.163   1.619   9.910 -1.0688 -0.9420  0.4934
   52CHL1   C10 6293   4.308   1.523  10.044  0.0015  0.6185 -0.1276
   52CHL1   C19 6294   4.444   1.443  10.034  0.0213 -0.2509  0.1948
   52CHL1  H19A 6295   4.437   1.367   9.953  2.6909 -1.5988  1.1057
   52CHL1  H19B 6296   4.517   1.517   9.995 -0.0304 -1.3814 -2.2851
   52CHL1  H19C 6297   4.474   1.399  10.131 -1.7437 -0.7850  0.5402
   52CHL1    C1 6298   4.337   1.666  10.112 -0.0846  0.4283  0.0673
   52CHL1   H1A 6299   4.434   1.706  10.075  0.9069 -0.7289  1.2809
   52CHL1   H1B 6300   4.260   1.737  10.076 -0.2374  0.6546  0.8225
   52CHL1    C2 6301   4.341   1.670  10.269 -0.8113  0.0815 -0.0852
   52CHL1   H2A 6302   4.336   1.773  10.311 -0.5700 -0.3065  0.9215
   52CHL1   H2B 6303   4.437   1.626  10.304 -0.5629  0.7232  0.0494
   52CHL1   C20 6304   4.226   1.564   9.320 -0.0082  0.5151  0.0251
   52CHL1   H20 6305   4.288   1.477   9.288  0.9089  1.4565 -0.8156
   52CHL1   C21 6306   4.314   1.683   9.323  0.4533 -0.1697 -0.5861
   52CHL1  H21A 6307   4.333   1.698   9.215  1.4006 -1.6462 -0.6616
   52CHL1  H21B 6308   4.406   1.665   9.384  0.0884 -1.2449 -0.3166
   52CHL1  H21C 6309   4.248   1.759   9.369  0.0957 -0.2294 -0.9919
   52CHL1   C22 6310   4.120   1.596   9.216  0.4949  0.4671  0.3411
   52CHL1  H22A 6311   4.030   1.532   9.227  0.2659  0.7437  0.1176
   52CHL1  H22B 6312   4.075   1.696   9.233  0.2302  0.0311  2.4448
   52CHL1   C23 6313   4.157   1.576   9.064  0.4928  0.0706  0.0799
   52CHL1  H23A 6314   4.247   1.635   9.036  2.1932 -2.1522  0.6036
   52CHL1  H23B 6315   4.179   1.469   9.042  0.6282 -0.1059  1.0349
   52CHL1   C24 6316   4.031   1.611   8.967  0.3748 -0.0322 -0.7336
   52CHL1  H24A 6317   4.046   1.570   8.865  0.2835  2.6219 -1.8762
   52CHL1  H24B 6318   3.949   1.554   9.016  1.5560  0.6025  2.1592
   52CHL1   C25 6319   3.999   1.758   8.939  0.4496 -0.6222  1.0206
   52CHL1   H25 6320   4.008   1.813   9.035 -0.0819 -0.3411  0.9092
   52CHL1   C26 6321   4.089   1.825   8.826  0.7015  0.5419 -1.0345
   52CHL1  H26A 6322   4.058   1.782   8.728 -1.2027 -3.4417  1.0411
   52CHL1  H26B 6323   4.066   1.933   8.827  2.4741  1.0492  2.5470
   52CHL1  H26C 6324   4.196   1.803   8.846  0.0017 -1.5487  0.8804
   52CHL1   C27 6325   3.849   1.780   8.896 -0.3942 -0.4923  0.0267
   52CHL1  H27A 6326   3.812   1.740   8.799 -0.7493 -3.0667  1.1573
   52CHL1  H27B 6327   3.781   1.761   8.982 -0.0782  2.2909  1.0006
   52CHL1  H27C 6328   3.833   1.889   8.879 -1.5146 -0.5376  0.6620
   53CHL1    C3 6329   2.944   0.453  10.110  0.3133 -0.3502  0.1215
   53CHL1    H3 6330   2.843   0.409  10.100 -0.6642  1.9360 -0.7302
   53CHL1    O3 6331   2.977   0.456  10.250 -0.2876 -0.3916 -0.5952
   53CHL1   H3' 6332   2.960   0.371  10.292 -1.5108 -1.6974 -3.4415
   53CHL1    C4 6333   3.039   0.352  10.039 -0.6282  0.0466  0.3614
   53CHL1   H4A 6334   3.143   0.383  10.064  0.5444 -2.2265 -1.3689
   53CHL1   H4B 6335   3.021   0.247  10.073 -0.0986 -0.3552 -0.5581
   53CHL1    C5 6336   3.027   0.356   9.890 -0.2809  0.2321 -0.8530
   53CHL1    C6 6337   3.000   0.246   9.820  0.4877 -0.3528  0.2096
   53CHL1    H6 6338   3.006   0.145   9.864  0.4764  0.8135  3.0510
   53CHL1    C7 6339   2.995   0.238   9.669  0.0247 -0.8113  0.0533
   53CHL1   H7A 6340   3.043   0.148   9.625 -4.1209 -2.2364 -2.0593
   53CHL1   H7B 6341   2.888   0.231   9.641 -0.6365 -2.3557  2.6321
   53CHL1    C8 6342   3.062   0.367   9.606  0.3274 -0.2636  0.3093
   53CHL1    H8 6343   3.172   0.361   9.620  0.2967 -0.6314  0.4151
   53CHL1   C14 6344   3.023   0.380   9.458  0.2299 -0.2242  0.0703
   53CHL1   H14 6345   2.915   0.405   9.454 -0.5201 -2.9275  0.9516
   53CHL1   C15 6346   3.033   0.252   9.370 -0.2082 -0.3436 -0.4159
   53CHL1  H15A 6347   3.111   0.185   9.413 -2.7654 -0.9809  3.8316
   53CHL1  H15B 6348   2.936   0.198   9.367  0.8020 -2.2646 -0.1592
   53CHL1   C16 6349   3.063   0.302   9.232  0.2706 -0.2247  0.2900
   53CHL1  H16A 6350   3.169   0.282   9.206  0.4349  1.9917 -1.0506
   53CHL1  H16B 6351   2.994   0.254   9.160 -1.0178 -0.2912  1.5191
   53CHL1   C17 6352   3.038   0.455   9.241 -0.5178 -0.2355  0.2912
   53CHL1   H17 6353   2.928   0.467   9.247 -0.4219  0.1518  1.5595
   53CHL1   C13 6354   3.093   0.493   9.382  1.4614 -1.2554 -0.6234
   53CHL1   C18 6355   3.240   0.480   9.388  0.3248  0.5787 -0.3082
   53CHL1  H18A 6356   3.269   0.499   9.493 -0.5600 -0.5817  0.1665
   53CHL1  H18B 6357   3.289   0.384   9.361  3.1076  1.8298 -0.0486
   53CHL1  H18C 6358   3.282   0.560   9.323  2.6976  1.0924  1.7283
   53CHL1   C12 6359   3.047   0.629   9.451  0.3854  0.2747  0.1372
   53CHL1  H12A 6360   3.106   0.717   9.419 -0.2069  1.1236  1.2998
   53CHL1  H12B 6361   2.941   0.643   9.421  0.4454 -1.5359 -1.1017
   53CHL1   C11 6362   3.061   0.625   9.607 -0.6145 -0.2370 -0.6747
   53CHL1  H11A 6363   3.165   0.660   9.627 -0.7923  0.5255 -1.0425
   53CHL1  H11B 6364   3.000   0.703   9.656  0.9779 -0.8623  2.5387
   53CHL1    C9 6365   3.012   0.494   9.680 -0.2621 -0.0915 -0.1984
   53CHL1    H9 6366   2.901   0.483   9.676 -0.1478 -1.3502 -0.2736
   53CHL1   C10 6367   3.049   0.489   9.828 -0.5031  0.4275  0.0755
   53CHL1   C19 6368   3.191   0.540   9.841 -0.4793  0.6501  0.1929
   53CHL1  H19A 6369   3.246   0.522   9.935  2.3258  0.2548 -1.4231
   53CHL1  H19B 6370   3.249   0.479   9.768 -2.2246  0.3418 -1.0134
   53CHL1  H19C 6371   3.203   0.650   9.830 -1.0943  0.5738 -1.5474
   53CHL1    C1 6372   2.958   0.594   9.898  0.4405  0.5678 -0.0635
   53CHL1   H1A 6373   2.981   0.696   9.862  0.6954  0.3893 -0.4156
   53CHL1   H1B 6374   2.852   0.573   9.870 -0.5564  3.6145  1.0404
   53CHL1    C2 6375   2.967   0.593  10.055  0.2413  0.3550 -0.7954
   53CHL1   H2A 6376   2.886   0.658  10.095  2.4139  1.9936  1.2087
   53CHL1   H2B 6377   3.065   0.632  10.089  0.2073  0.5155 -0.8816
   53CHL1   C20 6378   3.086   0.530   9.118  0.0326 -0.0979  0.4281
   53CHL1   H20 6379   3.197   0.534   9.125  0.0871  0.6518 -0.6414
   53CHL1   C21 6380   3.025   0.671   9.109  0.0175 -0.1690  0.0173
   53CHL1  H21A 6381   2.914   0.677   9.104  0.0512  1.6300  0.5035
   53CHL1  H21B 6382   3.062   0.725   9.019 -0.2772  0.2142  0.1216
   53CHL1  H21C 6383   3.034   0.724   9.206  0.6686  0.6333 -0.4672
   53CHL1   C22 6384   3.049   0.453   8.983  0.0427  0.3394  0.6101
   53CHL1  H22A 6385   3.076   0.521   8.900  1.8986  3.0023  3.1973
   53CHL1  H22B 6386   3.117   0.367   8.960  0.5285  0.9032 -0.1384
   53CHL1   C23 6387   2.896   0.418   8.963 -0.3939 -0.1322  0.6299
   53CHL1  H23A 6388   2.858   0.358   9.049 -2.9859  1.1747  0.5089
   53CHL1  H23B 6389   2.841   0.514   8.948  0.8688  0.8345  1.8729
   53CHL1   C24 6390   2.878   0.330   8.838 -0.3003  0.5369 -0.4204
   53CHL1  H24A 6391   2.908   0.388   8.748  0.5246 -0.5300 -0.8611
   53CHL1  H24B 6392   2.961   0.256   8.840 -1.6215 -1.1223 -2.1965
   53CHL1   C25 6393   2.744   0.270   8.817  0.2533 -0.2068 -0.3397
   53CHL1   H25 6394   2.670   0.351   8.829 -0.8820 -1.0292 -1.4018
   53CHL1   C26 6395   2.719   0.215   8.678  0.0981  0.1928 -0.2181
   53CHL1  H26A 6396   2.776   0.124   8.650 -1.3939 -0.4624 -1.2809
   53CHL1  H26B 6397   2.612   0.189   8.670  0.4827 -1.6985  0.3147
   53CHL1  H26C 6398   2.743   0.295   8.604 -0.3742 -0.5914 -1.2434
   53CHL1   C27 6399   2.714   0.152   8.914  0.1080 -0.0177 -0.6606
   53CHL1  H27A 6400   2.776   0.067   8.878  2.6205  2.7994 -3.6261
   53CHL1  H27B 6401   2.742   0.170   9.020 -0.1869 -0.3493 -0.5240
   53CHL1  H27C 6402   2.607   0.122   8.912  0.1018 -0.6597  2.7428
   54CHL1    C3 6403   6.452   6.724  10.280  0.1502  0.7788  0.0132
   54CHL1    H3 6404   6.397   6.812  10.240 -0.3464  1.2989  1.7655
   54CHL1    O3 6405   6.467   6.732  10.417 -0.1316  0.3584  0.3606
   54CHL1   H3' 6406   6.511   6.649  10.438 -1.0415 -0.4752 -0.9571
   54CHL1    C4 6407   6.390   6.593  10.242  0.2233 -0.7002 -1.4013
   54CHL1   H4A 6408   6.453   6.512  10.284  0.4068  0.7070  1.2557
   54CHL1   H4B 6409   6.294   6.589  10.297  0.7743 -0.8424 -0.4302
   54CHL1    C5 6410   6.384   6.565  10.094  0.0885 -0.3716 -0.3421
   54CHL1    C6 6411   6.269   6.536  10.035  0.4596  0.2832 -0.3150
   54CHL1    H6 6412   6.180   6.527  10.101 -0.4953  0.6976 -1.5085
   54CHL1    C7 6413   6.258   6.501   9.890  0.4360 -0.5250 -0.1280
   54CHL1   H7A 6414   6.186   6.417   9.887  1.3399 -1.3807  0.8747
   54CHL1   H7B 6415   6.214   6.593   9.847 -0.1993 -0.5289  0.5009
   54CHL1    C8 6416   6.392   6.470   9.810  0.3173  0.1407  0.4590
   54CHL1    H8 6417   6.421   6.368   9.841  0.7566 -0.1924 -0.9855
   54CHL1   C14 6418   6.369   6.485   9.665 -0.4302  0.2389  0.3129
   54CHL1   H14 6419   6.347   6.592   9.644  2.4206  0.6427 -1.1409
   54CHL1   C15 6420   6.260   6.409   9.587  0.0017  1.0505 -1.0192
   54CHL1  H15A 6421   6.255   6.313   9.644  0.4874  2.2586  1.1718
   54CHL1  H15B 6422   6.164   6.464   9.594  1.0915  2.8524  0.6625
   54CHL1   C16 6423   6.313   6.387   9.445  0.0682  0.1916  0.3315
   54CHL1  H16A 6424   6.322   6.278   9.424 -2.6711 -0.1236  0.4151
   54CHL1  H16B 6425   6.233   6.428   9.379 -2.1636 -1.2795  1.9917
   54CHL1   C17 6426   6.450   6.469   9.434  0.2501 -0.5173  0.6170
   54CHL1   H17 6427   6.414   6.569   9.405 -2.2197 -1.4055  0.4046
   54CHL1   C13 6428   6.497   6.466   9.580 -0.7331 -0.7971 -0.4071
   54CHL1   C18 6429   6.549   6.318   9.599  0.1483  0.1329 -1.4563
   54CHL1  H18A 6430   6.656   6.303   9.572  0.6037 -2.1094  1.1334
   54CHL1  H18B 6431   6.549   6.293   9.707 -1.3797  0.8315 -1.2758
   54CHL1  H18C 6432   6.494   6.246   9.535  1.1935  0.6927 -3.0602
   54CHL1   C12 6433   6.600   6.569   9.629 -0.3443  0.2230 -0.7401
   54CHL1  H12A 6434   6.699   6.555   9.580  0.1620  0.2413  0.2464
   54CHL1  H12B 6435   6.564   6.673   9.613  0.8377  0.7668 -0.0088
   54CHL1   C11 6436   6.634   6.556   9.782 -0.7630  0.7954  0.2262
   54CHL1  H11A 6437   6.678   6.456   9.799  0.4718  1.0738 -1.0692
   54CHL1  H11B 6438   6.711   6.636   9.792 -1.8052  2.0619 -1.2975
   54CHL1    C9 6439   6.498   6.577   9.860 -0.2044 -0.5512 -0.6424
   54CHL1    H9 6440   6.461   6.676   9.823 -1.6084 -0.2698  1.3353
   54CHL1   C10 6441   6.518   6.573  10.011 -0.3457  0.3705 -0.6853
   54CHL1   C19 6442   6.606   6.460  10.062 -0.0564 -0.1327 -0.0427
   54CHL1  H19A 6443   6.708   6.466  10.018 -0.1550 -0.8400 -0.3846
   54CHL1  H19B 6444   6.631   6.475  10.169  3.0036  1.3593 -0.8669
   54CHL1  H19C 6445   6.567   6.356  10.057 -0.7966 -0.0481  2.5063
   54CHL1    C1 6446   6.594   6.703  10.069  0.3244  0.1885  0.1858
   54CHL1   H1A 6447   6.694   6.696  10.021  0.4963  0.6334  0.4752
   54CHL1   H1B 6448   6.547   6.793  10.023 -1.2736 -1.4846 -1.6942
   54CHL1    C2 6449   6.599   6.728  10.220 -0.0756 -0.0884  0.1916
   54CHL1   H2A 6450   6.632   6.834  10.229  1.6804 -0.2088 -3.3053
   54CHL1   H2B 6451   6.674   6.666  10.273  2.5100 -0.9213 -3.9949
   54CHL1   C20 6452   6.549   6.418   9.324 -0.1841 -0.0951 -0.9129
   54CHL1   H20 6453   6.599   6.325   9.360 -1.9350  0.1657  2.7002
   54CHL1   C21 6454   6.667   6.517   9.301 -1.0299  0.4151  0.4164
   54CHL1  H21A 6455   6.746   6.518   9.379 -1.1598 -0.7660  0.5743
   54CHL1  H21B 6456   6.628   6.621   9.297 -0.9199  0.4117 -1.3271
   54CHL1  H21C 6457   6.727   6.491   9.211  0.4735  0.9584  1.2155
   54CHL1   C22 6458   6.482   6.384   9.187  0.4737  0.1332 -0.1668
   54CHL1  H22A 6459   6.393   6.319   9.194  1.2828 -0.9519  0.2765
   54CHL1  H22B 6460   6.436   6.481   9.159 -1.8638 -0.9374 -0.2629
   54CHL1   C23 6461   6.578   6.331   9.076 -0.7230 -0.7764 -1.0245
   54CHL1  H23A 6462   6.643   6.413   9.039 -1.9280  0.7232  0.0501
   54CHL1  H23B 6463   6.629   6.251   9.134 -1.3779  0.3875  1.2979
   54CHL1   C24 6464   6.503   6.271   8.963  0.9210  0.0410 -0.2265
   54CHL1  H24A 6465   6.438   6.191   9.006  2.6768 -1.4295 -0.1676
   54CHL1  H24B 6466   6.437   6.344   8.912  1.3357  0.4219 -0.2247
   54CHL1   C25 6467   6.591   6.215   8.851 -0.4582  0.3611  0.3360
   54CHL1   H25 6468   6.657   6.297   8.815 -1.0578  0.0939 -1.5097
   54CHL1   C26 6469   6.667   6.098   8.904 -0.4742 -0.4868 -0.1847
   54CHL1  H26A 6470   6.727   6.120   8.995 -0.5746  1.7706 -0.6192
   54CHL1  H26B 6471   6.602   6.012   8.931  0.0475 -1.3578 -1.5936
   54CHL1  H26C 6472   6.740   6.062   8.828 -0.6973 -0.5874 -0.3525
   54CHL1   C27 6473   6.510   6.161   8.739  0.2711 -0.1431  0.3316
   54CHL1  H27A 6474   6.439   6.081   8.770  0.1479 -0.6616 -1.2095
   54CHL1  H27B 6475   6.457   6.248   8.696 -1.0386 -1.6668 -1.2780
   54CHL1  H27C 6476   6.560   6.122   8.648 -0.4955 -0.6577  0.1202
   55CHL1    C3 6477   3.532   5.475  10.439 -0.8513  0.2480 -0.1530
   55CHL1    H3 6478   3.503   5.577  10.406 -0.9799 -0.0246 -0.8929
   55CHL1    O3 6479   3.530   5.472  10.585  0.2962 -0.5623  0.2692
   55CHL1   H3' 6480   3.616   5.512  10.601  0.1364 -0.0604 -0.1003
   55CHL1    C4 6481   3.432   5.368  10.393 -0.0969 -0.4205  0.3742
   55CHL1   H4A 6482   3.466   5.270  10.432  1.6914 -1.0559 -2.4799
   55CHL1   H4B 6483   3.330   5.378  10.436 -0.7896 -1.1506 -1.0215
   55CHL1    C5 6484   3.433   5.355  10.237 -0.3306  1.1745 -0.1823
   55CHL1    C6 6485   3.313   5.359  10.170  0.6526  0.7089 -0.3195
   55CHL1    H6 6486   3.221   5.383  10.225  0.2354 -0.1952 -0.5983
   55CHL1    C7 6487   3.297   5.341  10.022 -0.1720  0.4226 -0.3053
   55CHL1   H7A 6488   3.214   5.274   9.992  1.3006 -1.3668 -0.5196
   55CHL1   H7B 6489   3.270   5.443   9.986  0.7510  0.8896  0.2734
   55CHL1    C8 6490   3.429   5.301   9.954  0.4936 -0.1835  0.3740
   55CHL1    H8 6491   3.448   5.192   9.949  2.2341  0.0547  1.0094
   55CHL1   C14 6492   3.420   5.342   9.810  0.9326 -0.0331  0.1401
   55CHL1   H14 6493   3.404   5.451   9.825 -2.8778 -0.5529  0.8017
   55CHL1   C15 6494   3.292   5.299   9.734  0.1695 -0.6002  0.2109
   55CHL1  H15A 6495   3.277   5.190   9.752  0.4932 -0.2689  2.9520
   55CHL1  H15B 6496   3.203   5.361   9.758 -0.2319 -0.3163 -1.8384
   55CHL1   C16 6497   3.342   5.320   9.589  0.1830  0.2763 -0.6640
   55CHL1  H16A 6498   3.332   5.225   9.532 -0.8930  1.3417 -2.3523
   55CHL1  H16B 6499   3.271   5.384   9.532  0.0355  0.0567 -0.7273
   55CHL1   C17 6500   3.489   5.372   9.590  0.1824  0.4967  0.6968
   55CHL1   H17 6501   3.471   5.482   9.595  2.5242  0.9764  0.0311
   55CHL1   C13 6502   3.549   5.321   9.725  0.1609  0.4329  0.0165
   55CHL1   C18 6503   3.583   5.171   9.716  0.8381 -0.1063 -0.5387
   55CHL1  H18A 6504   3.609   5.125   9.814 -0.8013  1.3162  0.6305
   55CHL1  H18B 6505   3.497   5.119   9.670  1.7053 -0.9138 -1.2978
   55CHL1  H18C 6506   3.670   5.153   9.650  0.6117  0.6451 -1.0485
   55CHL1   C12 6507   3.667   5.400   9.786  0.8374 -0.7214 -0.4616
   55CHL1  H12A 6508   3.760   5.380   9.730 -0.8958 -0.3578 -3.6668
   55CHL1  H12B 6509   3.651   5.509   9.772  1.2338 -0.2109  2.4163
   55CHL1   C11 6510   3.682   5.362   9.937  0.6993  0.4255  0.1747
   55CHL1  H11A 6511   3.717   5.257   9.947  0.2682  0.3812  1.3077
   55CHL1  H11B 6512   3.772   5.419   9.967  0.3822  1.8786 -1.4641
   55CHL1    C9 6513   3.550   5.370  10.021  0.0511  0.2431  0.5745
   55CHL1    H9 6514   3.530   5.479  10.017  0.7307  0.3239 -0.9026
   55CHL1   C10 6515   3.571   5.337  10.172 -0.0138  0.7685 -0.0035
   55CHL1   C19 6516   3.603   5.183  10.178 -0.0905  0.2356 -0.1911
   55CHL1  H19A 6517   3.538   5.123  10.111  1.3938 -1.8028  0.1163
   55CHL1  H19B 6518   3.709   5.156  10.157  0.0387  1.1022 -0.7086
   55CHL1  H19C 6519   3.591   5.132  10.276  0.1423  1.4573  0.4903
   55CHL1    C1 6520   3.681   5.428  10.230  0.6918 -0.0993 -0.4599
   55CHL1   H1A 6521   3.783   5.388  10.213  0.9656 -0.0163  0.8848
   55CHL1   H1B 6522   3.670   5.528  10.183 -0.6438 -0.5573 -1.1800
   55CHL1    C2 6523   3.674   5.435  10.386 -0.0652 -0.4483 -0.2025
   55CHL1   H2A 6524   3.745   5.515  10.417 -0.9396  0.1447  0.3140
   55CHL1   H2B 6525   3.698   5.332  10.419  0.9914 -0.4341 -0.8815
   55CHL1   C20 6526   3.559   5.350   9.459 -0.6827 -0.1589  0.2433
   55CHL1   H20 6527   3.567   5.240   9.442 -0.7822 -0.0474 -0.5819
   55CHL1   C21 6528   3.706   5.410   9.460  0.1076 -0.1398  0.9169
   55CHL1  H21A 6529   3.687   5.498   9.526 -0.7899 -0.5895  1.2822
   55CHL1  H21B 6530   3.751   5.439   9.363  0.4056 -0.2254  1.0282
   55CHL1  H21C 6531   3.770   5.339   9.517 -3.1083 -2.1365  2.3054
   55CHL1   C22 6532   3.489   5.408   9.333  0.6604  0.6416 -0.2083
   55CHL1  H22A 6533   3.383   5.376   9.334  1.6252 -3.0497  0.1677
   55CHL1  H22B 6534   3.500   5.518   9.337  1.3868  0.6005 -0.7836
   55CHL1   C23 6535   3.558   5.353   9.205  0.1301  0.4170  0.7448
   55CHL1  H23A 6536   3.660   5.396   9.196  0.8029 -1.1813  0.4370
   55CHL1  H23B 6537   3.584   5.246   9.220  2.4940  0.7451 -0.5249
   55CHL1   C24 6538   3.480   5.382   9.082 -0.2289 -0.9494  0.0337
   55CHL1  H24A 6539   3.510   5.320   8.995  0.6153  1.9552 -1.8739
   55CHL1  H24B 6540   3.374   5.355   9.105  1.0165 -3.8251  3.2905
   55CHL1   C25 6541   3.486   5.535   9.033  0.7169  0.4199  0.5589
   55CHL1   H25 6542   3.461   5.602   9.118 -0.5453  1.2760 -0.4374
   55CHL1   C26 6543   3.626   5.568   8.981 -0.6044  0.4198  0.0246
   55CHL1  H26A 6544   3.702   5.578   9.061  0.4722 -2.6009 -0.4704
   55CHL1  H26B 6545   3.662   5.487   8.913  1.1187  1.6027 -0.5520
   55CHL1  H26C 6546   3.622   5.657   8.914  0.2044  1.5166  1.3776
   55CHL1   C27 6547   3.384   5.558   8.923 -0.2603  0.6609  0.5745
   55CHL1  H27A 6548   3.417   5.506   8.831 -1.6190  1.1237 -0.1977
   55CHL1  H27B 6549   3.286   5.513   8.950 -1.6500  0.4224 -4.0324
   55CHL1  H27C 6550   3.364   5.663   8.895  1.7373  0.2877 -2.7903
   56CHL1    C3 6551   2.356   5.351  10.210  0.6255 -0.2587  1.0026
   56CHL1    H3 6552   2.438   5.419  10.177 -0.0100 -0.3660 -0.9171
   56CHL1    O3 6553   2.317   5.374  10.342  0.3119  0.1335  0.1683
   56CHL1   H3' 6554   2.388   5.328  10.387  0.4674 -0.3953 -0.5898
   56CHL1    C4 6555   2.234   5.378  10.117 -0.2695 -0.7784  0.1239
   56CHL1   H4A 6556   2.140   5.328  10.151 -0.3777 -1.0994 -0.6290
   56CHL1   H4B 6557   2.209   5.485  10.127  0.8472 -0.3728 -1.1664
   56CHL1    C5 6558   2.278   5.339   9.972  0.1885 -0.4953 -0.3396
   56CHL1    C6 6559   2.272   5.431   9.871  0.1297  0.2960  0.1835
   56CHL1    H6 6560   2.228   5.530   9.886 -1.2097 -0.1538 -0.6346
   56CHL1    C7 6561   2.295   5.387   9.722  0.0459  0.3450 -0.4687
   56CHL1   H7A 6562   2.223   5.441   9.658  1.7143  2.3910 -0.7312
   56CHL1   H7B 6563   2.398   5.416   9.691  0.1494  0.0873 -0.3708
   56CHL1    C8 6564   2.295   5.226   9.710 -1.0396 -0.1848  0.5211
   56CHL1    H8 6565   2.191   5.188   9.721 -2.2670  2.4229 -1.1250
   56CHL1   C14 6566   2.342   5.195   9.568 -0.5877 -0.4534 -0.0598
   56CHL1   H14 6567   2.438   5.252   9.560 -0.8168 -0.1538 -0.7302
   56CHL1   C15 6568   2.251   5.248   9.456 -0.2698 -0.3786  0.0710
   56CHL1  H15A 6569   2.144   5.236   9.481 -0.6272  1.9909 -0.0814
   56CHL1  H15B 6570   2.260   5.357   9.436 -1.2653  0.0581  1.8416
   56CHL1   C16 6571   2.301   5.170   9.331 -0.2533 -0.5013 -0.5908
   56CHL1  H16A 6572   2.208   5.137   9.279 -0.2552 -0.4635 -0.6107
   56CHL1  H16B 6573   2.362   5.234   9.264  0.9838 -2.1914 -1.1702
   56CHL1   C17 6574   2.395   5.058   9.387 -0.1937 -0.2335 -0.4759
   56CHL1   H17 6575   2.498   5.098   9.381 -0.2087  0.1580  1.1820
   56CHL1   C13 6576   2.366   5.049   9.536  1.5097 -0.0649 -0.1476
   56CHL1   C18 6577   2.236   4.961   9.548 -0.0457 -0.3215  0.7815
   56CHL1  H18A 6578   2.198   4.977   9.651  0.6169 -0.2551  1.0193
   56CHL1  H18B 6579   2.159   5.003   9.480 -1.5084 -1.6228  1.5706
   56CHL1  H18C 6580   2.253   4.853   9.527 -3.1600 -0.4454 -1.7600
   56CHL1   C12 6581   2.466   4.995   9.633  0.0268 -0.2871 -0.2946
   56CHL1  H12A 6582   2.464   4.885   9.616  2.4780 -0.3891 -0.2852
   56CHL1  H12B 6583   2.570   5.029   9.610 -0.6302  0.1817 -3.0155
   56CHL1   C11 6584   2.434   5.022   9.784 -0.3013 -0.4179  0.7504
   56CHL1  H11A 6585   2.364   4.947   9.827  3.8950 -4.0811  1.9064
   56CHL1  H11B 6586   2.522   5.003   9.850  0.2129 -1.9056 -0.3334
   56CHL1    C9 6587   2.388   5.170   9.817 -0.1545 -0.7212 -1.1231
   56CHL1    H9 6588   2.480   5.232   9.813 -0.8925  0.3841 -1.2915
   56CHL1   C10 6589   2.325   5.194   9.958 -0.6822  0.0482  0.5882
   56CHL1   C19 6590   2.201   5.108   9.975 -0.1377  0.2532 -0.1782
   56CHL1  H19A 6591   2.223   4.999   9.963  0.1123  0.0635  1.7224
   56CHL1  H19B 6592   2.160   5.131  10.075  0.0658  1.0571 -0.2783
   56CHL1  H19C 6593   2.126   5.144   9.902 -1.1443 -0.1228  0.6414
   56CHL1    C1 6594   2.437   5.158  10.062  0.2526 -0.3186  0.7526
   56CHL1   H1A 6595   2.448   5.048  10.072 -2.5880 -0.5386  2.7674
   56CHL1   H1B 6596   2.530   5.205  10.022 -0.1512  1.4393  1.7558
   56CHL1    C2 6597   2.411   5.208  10.201 -0.4554 -0.1876  1.0407
   56CHL1   H2A 6598   2.498   5.197  10.269 -0.4652 -2.1278  0.8118
   56CHL1   H2B 6599   2.331   5.143  10.242 -1.5706 -1.2634 -2.4608
   56CHL1   C20 6600   2.395   4.927   9.294  0.4645 -0.2696  0.1984
   56CHL1   H20 6601   2.292   4.885   9.298 -0.8714  2.8092  3.1057
   56CHL1   C21 6602   2.480   4.816   9.353  0.5889  0.0973  0.2493
   56CHL1  H21A 6603   2.579   4.862   9.372 -0.4243  1.6528  2.1376
   56CHL1  H21B 6604   2.473   4.727   9.287 -0.9645  1.6078 -1.7767
   56CHL1  H21C 6605   2.446   4.781   9.453  1.5165 -1.4109  0.0621
   56CHL1   C22 6606   2.427   4.956   9.147  0.9121 -0.2924  0.7598
   56CHL1  H22A 6607   2.369   5.041   9.106  1.9900 -0.8860 -2.2823
   56CHL1  H22B 6608   2.534   4.971   9.124  1.0214 -1.9023  0.0706
   56CHL1   C23 6609   2.383   4.836   9.057  0.0896 -0.3392  0.2401
   56CHL1  H23A 6610   2.442   4.750   9.097 -1.0344 -1.4983 -0.4999
   56CHL1  H23B 6611   2.274   4.820   9.067  0.2201 -0.5622  1.4049
   56CHL1   C24 6612   2.428   4.858   8.913 -0.5841 -0.4352 -0.0716
   56CHL1  H24A 6613   2.390   4.960   8.890  1.5176  1.1375  2.7228
   56CHL1  H24B 6614   2.539   4.864   8.919 -0.6852 -0.1123  3.8653
   56CHL1   C25 6615   2.388   4.755   8.802  0.4952  0.7403  0.1370
   56CHL1   H25 6616   2.393   4.659   8.858  2.6054  1.2179  0.8493
   56CHL1   C26 6617   2.241   4.769   8.765 -1.0549 -0.4356  0.3523
   56CHL1  H26A 6618   2.221   4.874   8.737  0.8695 -0.4959 -1.4542
   56CHL1  H26B 6619   2.216   4.709   8.675  0.2062  0.7988 -0.8806
   56CHL1  H26C 6620   2.172   4.745   8.848 -0.7719  3.4145  1.9059
   56CHL1   C27 6621   2.482   4.768   8.682  0.0344  0.5684  0.1555
   56CHL1  H27A 6622   2.467   4.875   8.654 -1.6048  0.7746  1.6992
   56CHL1  H27B 6623   2.587   4.742   8.705 -0.0337 -1.7047 -1.6729
   56CHL1  H27C 6624   2.445   4.707   8.597 -0.1064 -1.6431  1.7280
   57CHL1    C3 6625   4.224   6.678  10.323 -0.5890 -0.1662  0.1736
   57CHL1    H3 6626   4.293   6.600  10.362 -0.1966  0.4373  0.6952
   57CHL1    O3 6627   4.156   6.745  10.422 -0.2141 -0.3293  0.5916
   57CHL1   H3' 6628   4.093   6.806  10.386  2.1314  2.0324  0.1780
   57CHL1    C4 6629   4.308   6.791  10.247 -0.7105 -0.4256 -0.6120
   57CHL1   H4A 6630   4.240   6.874  10.221 -2.0713  0.1815  4.0096
   57CHL1   H4B 6631   4.384   6.837  10.313 -1.4528 -0.1751  0.0708
   57CHL1    C5 6632   4.379   6.748  10.123  0.0093  0.1247  0.5576
   57CHL1    C6 6633   4.506   6.769  10.093  0.3821  0.4338 -0.1858
   57CHL1    H6 6634   4.557   6.843  10.156  2.2385 -1.0211  0.1254
   57CHL1    C7 6635   4.577   6.725   9.966  0.6770 -0.3844  0.5425
   57CHL1   H7A 6636   4.634   6.809   9.922 -0.0087  0.5870  1.4359
   57CHL1   H7B 6637   4.644   6.638   9.982 -1.3417 -2.2709 -0.6843
   57CHL1    C8 6638   4.486   6.678   9.861  0.8261  0.1502 -0.6441
   57CHL1    H8 6639   4.433   6.767   9.820 -1.7336 -0.3264  1.3472
   57CHL1   C14 6640   4.565   6.604   9.755  0.1035  0.2325 -0.4870
   57CHL1   H14 6641   4.597   6.509   9.804  1.6772 -0.4375 -2.6353
   57CHL1   C15 6642   4.692   6.668   9.700  0.1479  0.1455  0.2779
   57CHL1  H15A 6643   4.667   6.775   9.680  1.3560  0.5768  0.9899
   57CHL1  H15B 6644   4.785   6.666   9.761  0.7099 -0.7680 -0.5825
   57CHL1   C16 6645   4.712   6.604   9.565 -0.5961  0.1350  0.1650
   57CHL1  H16A 6646   4.707   6.691   9.496  1.4966  1.4617  1.5496
   57CHL1  H16B 6647   4.804   6.545   9.540 -1.9797 -1.7335 -0.7769
   57CHL1   C17 6648   4.598   6.499   9.538  0.1682 -0.6522 -0.1107
   57CHL1   H17 6649   4.650   6.409   9.576  0.9994 -0.8478 -1.6226
   57CHL1   C13 6650   4.484   6.547   9.636  0.4139  0.1410 -0.4787
   57CHL1   C18 6651   4.410   6.655   9.561 -0.2069 -0.1871 -0.6524
   57CHL1  H18A 6652   4.482   6.728   9.518 -0.0330  0.4566  0.6822
   57CHL1  H18B 6653   4.338   6.627   9.481 -0.9770 -1.7349  0.5029
   57CHL1  H18C 6654   4.360   6.711   9.643  0.7052 -0.6768  0.2562
   57CHL1   C12 6655   4.391   6.444   9.694  0.3525 -0.3262  0.0516
   57CHL1  H12A 6656   4.327   6.396   9.617  0.1310 -0.6607  0.4438
   57CHL1  H12B 6657   4.456   6.368   9.743 -0.4974 -1.6721 -0.8361
   57CHL1   C11 6658   4.300   6.501   9.800  0.2924 -0.0238  0.8204
   57CHL1  H11A 6659   4.218   6.562   9.756 -1.0249 -2.3341 -0.0530
   57CHL1  H11B 6660   4.239   6.425   9.853 -0.2483 -0.3851 -0.2970
   57CHL1    C9 6661   4.375   6.585   9.911 -0.0790 -0.3016  0.5159
   57CHL1    H9 6662   4.427   6.502   9.963 -0.2016 -0.1978  0.8060
   57CHL1   C10 6663   4.294   6.662  10.021 -0.2116  0.1590  0.3339
   57CHL1   C19 6664   4.202   6.764   9.956 -0.5013 -0.4314 -0.2823
   57CHL1  H19A 6665   4.136   6.812  10.032 -1.8036 -1.0486 -0.9787
   57CHL1  H19B 6666   4.249   6.844   9.894  0.1906 -0.8573 -0.3050
   57CHL1  H19C 6667   4.134   6.714   9.884  0.8312  0.0932 -1.9860
   57CHL1    C1 6668   4.205   6.562  10.102  1.1728 -0.5147  0.5274
   57CHL1   H1A 6669   4.126   6.513  10.040 -2.4877  2.4916  2.4006
   57CHL1   H1B 6670   4.272   6.483  10.140  0.8336 -1.0826 -0.0334
   57CHL1    C2 6671   4.125   6.618  10.228  0.6693  0.7900  0.2415
   57CHL1   H2A 6672   4.075   6.530  10.273  2.4348 -0.2185  0.3101
   57CHL1   H2B 6673   4.050   6.691  10.189  0.4742 -0.1141 -1.0969
   57CHL1   C20 6674   4.564   6.474   9.386  0.3285 -0.4753  0.4552
   57CHL1   H20 6675   4.493   6.542   9.333 -0.9992 -0.7118  1.8716
   57CHL1   C21 6676   4.497   6.335   9.383  0.4227 -0.1522  0.4211
   57CHL1  H21A 6677   4.550   6.262   9.447  0.1158  0.3027  1.2067
   57CHL1  H21B 6678   4.505   6.294   9.280  1.6848 -2.6080  1.4175
   57CHL1  H21C 6679   4.393   6.335   9.420  0.3588 -0.5544  0.2389
   57CHL1   C22 6680   4.687   6.475   9.290  0.3811  0.2029 -0.2036
   57CHL1  H22A 6681   4.647   6.465   9.187 -1.3984  1.1268  0.3570
   57CHL1  H22B 6682   4.741   6.572   9.291  0.8544 -0.0505 -0.7037
   57CHL1   C23 6683   4.784   6.358   9.310 -0.1668  0.2422 -0.2340
   57CHL1  H23A 6684   4.836   6.363   9.408 -1.5698 -1.7282  0.6852
   57CHL1  H23B 6685   4.726   6.263   9.306  0.6196 -0.3749  1.7116
   57CHL1   C24 6686   4.888   6.348   9.203  0.2222  0.1589 -0.4935
   57CHL1  H24A 6687   4.834   6.329   9.108 -4.5112  0.5620  1.8028
   57CHL1  H24B 6688   4.932   6.449   9.183 -0.1398  0.4743  0.2653
   57CHL1   C25 6689   5.011   6.263   9.239 -0.1339 -0.0454 -0.3691
   57CHL1   H25 6690   5.056   6.292   9.336  0.8387  1.6224 -1.2778
   57CHL1   C26 6691   4.967   6.115   9.258  0.1854  0.5463 -0.0235
   57CHL1  H26A 6692   4.897   6.098   9.173  1.6110 -0.8724 -0.9917
   57CHL1  H26B 6693   5.049   6.042   9.239 -0.1578  0.3234 -0.7032
   57CHL1  H26C 6694   4.923   6.089   9.356  1.1664 -0.5712  0.1508
   57CHL1   C27 6695   5.112   6.274   9.126  0.8063  0.0246 -0.1006
   57CHL1  H27A 6696   5.198   6.207   9.144  2.1296  1.4215 -1.0172
   57CHL1  H27B 6697   5.063   6.249   9.029  1.8892  0.6070 -0.8163
   57CHL1  H27C 6698   5.137   6.382   9.118 -2.5352  0.7931 -3.4170
   58CHL1    C3 6699   1.060   5.692  10.430 -0.1012  0.1656 -0.1597
   58CHL1    H3 6700   0.954   5.724  10.441 -0.1584 -0.6101  1.9654
   58CHL1    O3 6701   1.115   5.669  10.556 -0.2379  0.3715  0.1852
   58CHL1   H3' 6702   1.178   5.599  10.535 -0.8714 -0.4420  0.9167
   58CHL1    C4 6703   1.052   5.555  10.361  1.2329  0.1465 -0.1613
   58CHL1   H4A 6704   1.150   5.502  10.361  0.4989 -1.2603 -0.2662
   58CHL1   H4B 6705   0.979   5.494  10.419  0.2771  0.3750 -1.1108
   58CHL1    C5 6706   1.000   5.566  10.217 -0.5192 -0.3691 -0.4195
   58CHL1    C6 6707   0.892   5.497  10.176 -0.3235 -0.1149  0.0346
   58CHL1    H6 6708   0.847   5.427  10.247  0.6575 -1.5967 -0.7406
   58CHL1    C7 6709   0.845   5.490  10.031 -0.0307  0.0243 -0.2968
   58CHL1   H7A 6710   0.812   5.389   9.999 -0.1277 -0.4174  1.1148
   58CHL1   H7B 6711   0.759   5.559  10.016  0.2008 -0.0235 -2.0668
   58CHL1    C8 6712   0.954   5.553   9.931 -0.1029  0.2638 -0.0324
   58CHL1    H8 6713   1.035   5.477   9.927  2.2360  2.6270 -2.8003
   58CHL1   C14 6714   0.907   5.570   9.792 -0.1417 -0.1218 -0.2918
   58CHL1   H14 6715   0.835   5.654   9.794  0.4800  0.4298 -0.7939
   58CHL1   C15 6716   0.833   5.455   9.731  0.2480 -0.3478 -0.3259
   58CHL1  H15A 6717   0.895   5.362   9.735  2.0727  0.8256 -0.3109
   58CHL1  H15B 6718   0.728   5.451   9.765 -0.4821  4.3709 -1.4163
   58CHL1   C16 6719   0.818   5.488   9.578  0.5898  0.1551 -0.0528
   58CHL1  H16A 6720   0.868   5.405   9.524  1.1120  0.1710  0.3906
   58CHL1  H16B 6721   0.716   5.506   9.540  0.5019 -2.5111 -1.2546
   58CHL1   C17 6722   0.905   5.619   9.563  0.0162 -0.5595 -0.0091
   58CHL1   H17 6723   0.836   5.704   9.583  2.7463  2.3147 -1.8414
   58CHL1   C13 6724   1.003   5.615   9.684  0.2729  0.4106 -0.2269
   58CHL1   C18 6725   1.117   5.517   9.660 -0.2470 -0.5141 -0.4186
   58CHL1  H18A 6726   1.090   5.439   9.586  2.6183 -1.2039 -0.8507
   58CHL1  H18B 6727   1.210   5.567   9.626 -0.4092  0.2714  0.2535
   58CHL1  H18C 6728   1.142   5.448   9.744  2.7397 -0.3621 -1.0849
   58CHL1   C12 6729   1.052   5.755   9.735 -0.1187 -0.5995 -0.4529
   58CHL1  H12A 6730   1.133   5.789   9.667 -0.9879  0.1702 -1.1132
   58CHL1  H12B 6731   0.968   5.828   9.732  1.8170  1.7495 -1.1377
   58CHL1   C11 6732   1.112   5.746   9.880  0.6374 -0.5763  0.5686
   58CHL1  H11A 6733   1.192   5.671   9.865 -0.8115 -2.1678  0.5131
   58CHL1  H11B 6734   1.166   5.836   9.917 -0.8526  2.2519 -3.4643
   58CHL1    C9 6735   1.018   5.685   9.987 -0.1612 -0.1441 -0.5497
   58CHL1    H9 6736   0.933   5.754  10.007  1.4187  2.7249 -2.9243
   58CHL1   C10 6737   1.086   5.659  10.124 -0.0811  0.3872 -0.7581
   58CHL1   C19 6738   1.233   5.611  10.116  0.5839  0.1740 -0.0379
   58CHL1  H19A 6739   1.239   5.522  10.049 -0.4458 -2.1766  2.7765
   58CHL1  H19B 6740   1.291   5.695  10.072 -0.3149 -0.2525 -2.1665
   58CHL1  H19C 6741   1.276   5.579  10.214  0.2694 -0.6475 -0.1582
   58CHL1    C1 6742   1.090   5.798  10.201  0.9409  0.0796 -0.2850
   58CHL1   H1A 6743   1.127   5.878  10.134 -0.8376  1.3799  0.2178
   58CHL1   H1B 6744   0.986   5.838  10.212 -0.1574 -2.0857 -1.9861
   58CHL1    C2 6745   1.144   5.790  10.345  0.0862 -0.6911  0.8815
   58CHL1   H2A 6746   1.139   5.889  10.395  4.2102  0.1351  0.0361
   58CHL1   H2B 6747   1.252   5.767  10.332  0.0884 -0.0844 -0.3474
   58CHL1   C20 6748   0.960   5.645   9.424  0.9166  0.1280 -0.1375
   58CHL1   H20 6749   1.043   5.572   9.415 -0.3525 -1.6510  1.8568
   58CHL1   C21 6750   1.010   5.791   9.412 -0.0669 -0.3120  0.0908
   58CHL1  H21A 6751   1.091   5.813   9.485 -0.4175  0.7942  0.1745
   58CHL1  H21B 6752   0.933   5.869   9.431  2.0687  2.1842 -0.8727
   58CHL1  H21C 6753   1.056   5.818   9.314 -0.8312  2.3460  0.3806
   58CHL1   C22 6754   0.851   5.609   9.321 -0.3010 -0.2686  0.1746
   58CHL1  H22A 6755   0.801   5.512   9.338  1.1090 -1.2187 -0.8288
   58CHL1  H22B 6756   0.786   5.697   9.302  0.4256  0.1489 -0.4903
   58CHL1   C23 6757   0.930   5.576   9.194  0.8311 -0.2192 -0.2121
   58CHL1  H23A 6758   0.987   5.666   9.163  1.3296 -0.1056  0.9841
   58CHL1  H23B 6759   0.999   5.489   9.203  2.6037  0.6830 -3.5780
   58CHL1   C24 6760   0.822   5.553   9.081 -0.0529 -0.4974 -0.4722
   58CHL1  H24A 6761   0.756   5.469   9.113 -0.4385  0.3269  1.0187
   58CHL1  H24B 6762   0.751   5.638   9.090 -0.3968 -0.7360 -0.9002
   58CHL1   C25 6763   0.881   5.555   8.937  0.3368  0.4025  0.0842
   58CHL1   H25 6764   0.799   5.522   8.870  0.3112  1.5308 -0.4503
   58CHL1   C26 6765   0.917   5.694   8.883 -0.0700 -1.0944 -1.0436
   58CHL1  H26A 6766   1.020   5.711   8.920 -0.2862  0.9783 -1.2812
   58CHL1  H26B 6767   0.928   5.710   8.774 -0.6394  1.4947 -0.7891
   58CHL1  H26C 6768   0.853   5.772   8.932  0.6889 -2.4099  2.3453
   58CHL1   C27 6769   0.987   5.443   8.923  0.4903  0.0246 -1.4050
   58CHL1  H27A 6770   1.041   5.449   8.826  3.1662  3.3164  0.0993
   58CHL1  H27B 6771   1.066   5.434   9.000 -1.8199 -0.8740  1.0206
   58CHL1  H27C 6772   0.936   5.344   8.929  1.3910 -0.6584 -3.7313
   59CHL1    C3 6773   0.868   6.243  10.345  0.4816 -0.0452 -0.0135
   59CHL1    H3 6774   0.759   6.252  10.322  0.4447  0.5730  0.3655
   59CHL1    O3 6775   0.888   6.223  10.487  0.0286  0.7726  0.2611
   59CHL1   H3' 6776   0.984   6.215  10.492  0.2082  0.8240 -1.9895
   59CHL1    C4 6777   0.913   6.110  10.285 -0.5774  0.1620 -0.2916
   59CHL1   H4A 6778   1.023   6.100  10.301 -0.0897  0.7937 -2.7981
   59CHL1   H4B 6779   0.863   6.027  10.338  0.3962  0.5959  1.4014
   59CHL1    C5 6780   0.891   6.114  10.133  0.2875 -0.8112  0.5377
   59CHL1    C6 6781   0.811   6.031  10.069  0.1558 -0.8558 -0.2059
   59CHL1    H6 6782   0.743   5.962  10.121 -2.1280 -0.0931 -2.0264
   59CHL1    C7 6783   0.783   6.039   9.919 -0.4738 -0.4503 -0.6808
   59CHL1   H7A 6784   0.798   5.940   9.870  0.9801  0.3172 -1.8817
   59CHL1   H7B 6785   0.674   6.059   9.909 -0.7364 -1.2534  0.4387
   59CHL1    C8 6786   0.876   6.138   9.843  0.2282  0.0387  0.2584
   59CHL1    H8 6787   0.965   6.072   9.825  0.3176 -0.5043  2.4490
   59CHL1   C14 6788   0.812   6.181   9.709 -0.7327 -0.1098  0.6133
   59CHL1   H14 6789   0.725   6.244   9.737 -0.2350  0.0692  1.8171
   59CHL1   C15 6790   0.763   6.066   9.624  0.0582 -0.2521  0.2084
   59CHL1  H15A 6791   0.839   5.985   9.619 -1.5849 -1.9052  1.2460
   59CHL1  H15B 6792   0.669   6.038   9.674  0.3257  0.3545  1.0829
   59CHL1   C16 6793   0.744   6.129   9.489 -0.0807  0.0228  0.2225
   59CHL1  H16A 6794   0.773   6.059   9.407  1.4991  0.6514  0.2095
   59CHL1  H16B 6795   0.638   6.149   9.463 -0.5654 -0.6464  1.5801
   59CHL1   C17 6796   0.811   6.267   9.486  0.0807 -0.3022 -0.6777
   59CHL1   H17 6797   0.731   6.341   9.509  1.3618  0.9144  0.0908
   59CHL1   C13 6798   0.904   6.259   9.614 -0.5453  0.0866  0.3019
   59CHL1   C18 6799   1.039   6.189   9.577 -0.1727  0.1953 -0.0044
   59CHL1  H18A 6800   1.023   6.097   9.518 -0.8892  1.4031 -1.7740
   59CHL1  H18B 6801   1.108   6.255   9.521  3.8226 -1.4783  2.4807
   59CHL1  H18C 6802   1.094   6.163   9.671 -0.2866  0.8851  0.2576
   59CHL1   C12 6803   0.926   6.393   9.691  0.2869 -0.0817  0.2701
   59CHL1  H12A 6804   0.992   6.455   9.627 -1.7700 -0.5379 -2.4728
   59CHL1  H12B 6805   0.827   6.442   9.696  0.8821  1.0653  1.3185
   59CHL1   C11 6806   0.992   6.372   9.830 -0.1526  0.2066  0.1929
   59CHL1  H11A 6807   1.091   6.333   9.800 -0.7781  0.0097 -1.7297
   59CHL1  H11B 6808   1.017   6.473   9.870 -3.2261  0.7126  1.1282
   59CHL1    C9 6809   0.911   6.269   9.917  0.1611 -0.2273  0.1990
   59CHL1    H9 6810   0.808   6.312   9.925 -0.0268 -0.5668 -0.3308
   59CHL1   C10 6811   0.960   6.248  10.065  0.7349  0.7179  0.1997
   59CHL1   C19 6812   1.110   6.223  10.056 -0.4603  0.1009  0.4986
   59CHL1  H19A 6813   1.136   6.147   9.980 -2.8570 -0.6119  0.3205
   59CHL1  H19B 6814   1.165   6.315  10.027 -1.4212  0.3708 -0.5132
   59CHL1  H19C 6815   1.145   6.196  10.158  1.1451  2.3211  0.6211
   59CHL1    C1 6816   0.938   6.377  10.150 -1.2026  0.4484  0.1327
   59CHL1   H1A 6817   1.003   6.461  10.117  0.2349 -0.6784  0.0247
   59CHL1   H1B 6818   0.836   6.416  10.127 -1.0425 -0.8967 -3.5554
   59CHL1    C2 6819   0.954   6.358  10.304 -0.0012 -0.4282 -0.3117
   59CHL1   H2A 6820   0.919   6.446  10.361 -1.4067 -0.9534 -0.3158
   59CHL1   H2B 6821   1.060   6.336  10.329  0.0721  0.6858  0.4243
   59CHL1   C20 6822   0.874   6.311   9.352 -0.3907  0.4153  0.1000
   59CHL1   H20 6823   0.971   6.260   9.337 -0.8546  0.3049 -3.4893
   59CHL1   C21 6824   0.902   6.468   9.348 -0.5833 -0.8612  0.2652
   59CHL1  H21A 6825   0.942   6.488   9.246  3.9998 -3.2561  1.3107
   59CHL1  H21B 6826   0.977   6.490   9.427 -0.5499 -0.1232  0.0360
   59CHL1  H21C 6827   0.808   6.526   9.359 -1.9847 -2.9255 -0.2916
   59CHL1   C22 6828   0.787   6.268   9.230 -0.2065 -0.2026  0.3022
   59CHL1  H22A 6829   0.789   6.157   9.221 -1.4291 -0.2216  0.1957
   59CHL1  H22B 6830   0.684   6.301   9.253 -0.6295 -2.2473  1.5682
   59CHL1   C23 6831   0.826   6.314   9.091  0.1552 -1.0291  0.6887
   59CHL1  H23A 6832   0.834   6.425   9.084  3.9666 -1.2302 -0.8373
   59CHL1  H23B 6833   0.932   6.301   9.061 -0.3029 -0.1888 -1.4485
   59CHL1   C24 6834   0.731   6.264   8.976 -0.2415 -0.0828 -1.1623
   59CHL1  H24A 6835   0.715   6.154   8.982  0.1869 -0.1109 -0.5601
   59CHL1  H24B 6836   0.635   6.319   8.982 -0.6602 -0.5886 -2.6016
   59CHL1   C25 6837   0.786   6.278   8.833 -0.6350 -0.0395 -0.1656
   59CHL1   H25 6838   0.886   6.229   8.836 -0.7780 -0.3092  0.2117
   59CHL1   C26 6839   0.701   6.196   8.740  0.6406  0.2139  0.6698
   59CHL1  H26A 6840   0.730   6.218   8.635  0.4397 -0.2989  0.5047
   59CHL1  H26B 6841   0.711   6.086   8.754 -2.6908 -0.4213 -0.8962
   59CHL1  H26C 6842   0.592   6.213   8.754 -0.3890 -2.5479 -2.5877
   59CHL1   C27 6843   0.808   6.422   8.795 -0.0132  0.4747  0.0341
   59CHL1  H27A 6844   0.716   6.478   8.822 -0.2317 -0.3897  1.1763
   59CHL1  H27B 6845   0.885   6.476   8.854 -0.1881  3.6657 -2.4431
   59CHL1  H27C 6846   0.831   6.420   8.687  1.2549 -0.4680  0.3016
   60CHL1    C3 6847   1.053   3.850  10.401 -0.9966 -0.3523  0.1073
   60CHL1    H3 6848   1.161   3.843  10.376 -0.7001  0.2210  1.1372
   60CHL1    O3 6849   1.023   3.835  10.537  0.2263 -0.1444 -0.8333
   60CHL1   H3' 6850   0.930   3.856  10.546  0.6721  1.2542  1.0256
   60CHL1    C4 6851   0.998   3.986  10.362 -0.1101 -0.0950 -0.4862
   60CHL1   H4A 6852   0.894   3.991  10.401  0.2453 -1.4924  0.7353
   60CHL1   H4B 6853   1.057   4.063  10.417  1.1119 -0.3198 -1.4439
   60CHL1    C5 6854   0.986   4.005  10.214  0.2174 -0.8191  0.3985
   60CHL1    C6 6855   1.045   4.111  10.162 -0.4954 -0.4879 -0.0737
   60CHL1    H6 6856   1.087   4.188  10.229  0.2531 -0.8804 -0.0858
   60CHL1    C7 6857   1.053   4.146  10.016  0.4013 -0.0288 -0.2506
   60CHL1   H7A 6858   1.026   4.252   9.995  0.2891 -0.5258 -3.0623
   60CHL1   H7B 6859   1.157   4.145   9.977  0.4825 -0.6255 -0.0341
   60CHL1    C8 6860   0.961   4.055   9.931  0.1858 -0.7208  0.9160
   60CHL1    H8 6861   0.859   4.094   9.952  0.9731  0.6257  2.4537
   60CHL1   C14 6862   0.988   4.064   9.780 -0.0970  0.7088 -0.5326
   60CHL1   H14 6863   1.086   4.012   9.771 -0.2903  0.0411  1.0255
   60CHL1   C15 6864   0.997   4.201   9.716 -0.6300  0.1910 -0.2206
   60CHL1  H15A 6865   0.934   4.279   9.764  1.4842  1.5359  0.5130
   60CHL1  H15B 6866   1.100   4.240   9.736 -1.0073  0.1037  2.2604
   60CHL1   C16 6867   0.971   4.180   9.566 -0.5543 -0.0602  0.0165
   60CHL1  H16A 6868   0.880   4.245   9.558 -0.6339 -0.1811 -0.0555
   60CHL1  H16B 6869   1.053   4.220   9.503  1.0831 -2.4567  0.5268
   60CHL1   C17 6870   0.935   4.033   9.551 -0.3058  0.3925 -0.4262
   60CHL1   H17 6871   1.032   3.983   9.529  1.3307  3.3884 -0.5693
   60CHL1   C13 6872   0.892   3.989   9.694  0.5613 -0.3250  1.0958
   60CHL1   C18 6873   0.751   4.047   9.710 -0.1925  0.6195 -0.3779
   60CHL1  H18A 6874   0.735   4.155   9.689 -0.2874  0.5149 -0.8806
   60CHL1  H18B 6875   0.684   3.992   9.640  2.9141 -2.4851 -1.1918
   60CHL1  H18C 6876   0.700   4.030   9.807 -0.2890  0.8399 -0.3892
   60CHL1   C12 6877   0.897   3.841   9.719 -0.1654  0.3978 -1.0434
   60CHL1  H12A 6878   0.809   3.786   9.678 -0.7513  0.3019  0.2855
   60CHL1  H12B 6879   0.995   3.794   9.696  0.1501 -0.1114  1.1092
   60CHL1   C11 6880   0.878   3.819   9.877  0.2690 -0.3879  0.3218
   60CHL1  H11A 6881   0.771   3.844   9.891  0.0543 -0.7064 -0.7306
   60CHL1  H11B 6882   0.878   3.709   9.895 -1.1668 -1.1076 -3.3327
   60CHL1    C9 6883   0.960   3.910   9.975  0.0050 -0.1739 -1.0021
   60CHL1    H9 6884   1.067   3.883   9.963  0.8500  2.9908 -1.6516
   60CHL1   C10 6885   0.925   3.899  10.126  0.6531  0.1474 -0.1183
   60CHL1   C19 6886   0.764   3.897  10.154 -0.5039 -0.3270  0.5773
   60CHL1  H19A 6887   0.750   3.879  10.262 -0.2959  1.5157  0.9365
   60CHL1  H19B 6888   0.713   3.989  10.120  0.1013  0.3961  1.5823
   60CHL1  H19C 6889   0.722   3.810  10.098 -0.7053  0.5469 -0.6606
   60CHL1    C1 6890   0.990   3.764  10.176  0.4054 -0.1796  0.3697
   60CHL1   H1A 6891   0.945   3.679  10.120  0.2745 -0.7281  1.2834
   60CHL1   H1B 6892   1.100   3.760  10.162  0.1725  1.6018 -2.6058
   60CHL1    C2 6893   0.981   3.736  10.331  0.2972 -0.4036 -0.4133
   60CHL1   H2A 6894   1.038   3.642  10.342  1.2603  0.0714 -1.2382
   60CHL1   H2B 6895   0.877   3.728  10.370  1.5690 -0.7417  3.3326
   60CHL1   C20 6896   0.847   3.997   9.429  0.9102 -0.4335 -0.2576
   60CHL1   H20 6897   0.760   4.065   9.421  0.4348 -1.2180 -2.3053
   60CHL1   C21 6898   0.794   3.850   9.413  0.0753 -0.3892 -0.1352
   60CHL1  H21A 6899   0.719   3.823   9.491  3.3989 -0.8987  3.1590
   60CHL1  H21B 6900   0.873   3.772   9.414 -0.0326 -0.4996  0.6440
   60CHL1  H21C 6901   0.731   3.847   9.322 -1.4393  2.4471  0.6881
   60CHL1   C22 6902   0.927   4.036   9.298  0.3321 -0.1476 -0.7172
   60CHL1  H22A 6903   0.958   4.142   9.309  1.8375 -0.8170  2.9329
   60CHL1  H22B 6904   1.015   3.968   9.288  0.9831  0.7952 -1.6451
   60CHL1   C23 6905   0.857   4.032   9.172  0.1644 -0.4281 -0.5079
   60CHL1  H23A 6906   0.820   3.929   9.151  0.0553 -0.3334 -0.7857
   60CHL1  H23B 6907   0.767   4.097   9.177  0.4610 -0.0654  0.2764
   60CHL1   C24 6908   0.965   4.061   9.065 -0.4835  0.1289  0.1626
   60CHL1  H24A 6909   1.010   4.162   9.077  2.4041 -1.1965  1.3843
   60CHL1  H24B 6910   1.049   3.996   9.095  0.1262  1.5278  1.6562
   60CHL1   C25 6911   0.911   4.033   8.912  0.2878 -0.5351 -0.1994
   60CHL1   H25 6912   0.901   3.924   8.896  0.7782 -0.3776 -1.8052
   60CHL1   C26 6913   0.769   4.095   8.891  0.8649  0.0479 -0.6733
   60CHL1  H26A 6914   0.752   4.083   8.782  4.1842 -1.3328 -1.1803
   60CHL1  H26B 6915   0.694   4.034   8.946  2.8508 -0.9525  1.0953
   60CHL1  H26C 6916   0.770   4.201   8.925  0.0297 -0.0256 -0.3973
   60CHL1   C27 6917   1.007   4.091   8.806 -0.3041  0.0470 -0.0972
   60CHL1  H27A 6918   0.952   4.087   8.709 -0.3083  1.5942 -0.1814
   60CHL1  H27B 6919   1.023   4.200   8.822 -1.1333 -0.2791  3.7807
   60CHL1  H27C 6920   1.103   4.035   8.798 -0.8019 -1.0425  1.2400
   61CHL1    C3 6921   4.162   2.350  10.623 -0.2402  0.2824  0.1188
   61CHL1    H3 6922   4.054   2.336  10.644  0.1135 -0.1307  1.8542
   61CHL1    O3 6923   4.248   2.360  10.733 -0.3308  0.2864 -0.0690
   61CHL1   H3' 6924   4.246   2.450  10.766  1.5912 -0.2561  1.7301
   61CHL1    C4 6925   4.207   2.222  10.545 -0.8992 -0.2244 -0.3443
   61CHL1   H4A 6926   4.317   2.230  10.541 -0.9897  1.1385 -4.0181
   61CHL1   H4B 6927   4.164   2.138  10.604 -0.6657  0.5878  1.0254
   61CHL1    C5 6928   4.162   2.198  10.399 -0.8042 -0.5566  0.8148
   61CHL1    C6 6929   4.121   2.074  10.358  0.2342 -0.4890  0.0764
   61CHL1    H6 6930   4.127   1.979  10.414  2.0905 -1.0769 -0.9942
   61CHL1    C7 6931   4.096   2.048  10.212  0.4607 -0.2894 -0.5358
   61CHL1   H7A 6932   4.145   1.957  10.171 -2.1276 -0.7281 -2.9212
   61CHL1   H7B 6933   3.987   2.032  10.199  0.1231  0.0255  1.5861
   61CHL1    C8 6934   4.136   2.172  10.125 -0.0114  0.4429 -0.4161
   61CHL1    H8 6935   4.246   2.168  10.112 -0.0167  0.1292 -0.3776
   61CHL1   C14 6936   4.075   2.158   9.984  0.0440  0.1704 -0.4110
   61CHL1   H14 6937   3.968   2.148  10.009  0.5971 -1.1944  1.7045
   61CHL1   C15 6938   4.109   2.030   9.904  0.1975 -0.7736 -0.3747
   61CHL1  H15A 6939   4.217   2.004   9.901  0.3023 -0.3179 -0.8399
   61CHL1  H15B 6940   4.045   1.947   9.942 -2.9898  1.4125 -0.5585
   61CHL1   C16 6941   4.059   2.065   9.762  0.0781  0.1253 -0.7548
   61CHL1  H16A 6942   4.130   2.048   9.679  1.7913  1.1575  0.4471
   61CHL1  H16B 6943   3.971   2.001   9.738  0.4654 -0.9758  0.5798
   61CHL1   C17 6944   4.007   2.218   9.758 -0.4456  0.0743  0.5267
   61CHL1   H17 6945   3.902   2.228   9.794 -0.0421  3.0660  1.0880
   61CHL1   C13 6946   4.093   2.271   9.880  0.0895  0.5299 -0.5950
   61CHL1   C18 6947   4.239   2.292   9.836 -0.8200 -0.1210  0.2813
   61CHL1  H18A 6948   4.247   2.388   9.782  2.7488 -1.2977 -1.6023
   61CHL1  H18B 6949   4.316   2.309   9.914  2.6325  0.5885 -3.0376
   61CHL1  H18C 6950   4.261   2.209   9.766  0.5079 -0.7686  1.4190
   61CHL1   C12 6951   4.026   2.390   9.950  0.4235  0.0628  0.3402
   61CHL1  H12A 6952   4.025   2.477   9.882  1.9779 -1.1648 -1.3508
   61CHL1  H12B 6953   3.919   2.364   9.963 -0.8122  3.7135 -1.1800
   61CHL1   C11 6954   4.096   2.424  10.080  0.0638 -0.2933  0.0102
   61CHL1  H11A 6955   4.201   2.439  10.048 -0.0760 -1.6794 -1.1749
   61CHL1  H11B 6956   4.060   2.525  10.111  0.5945 -0.6725  1.9948
   61CHL1    C9 6957   4.089   2.306  10.182 -0.0220  0.0987  0.0857
   61CHL1    H9 6958   3.981   2.296  10.205  0.0628 -0.2956  0.3321
   61CHL1   C10 6959   4.165   2.326  10.315  0.0623 -0.2082 -0.2647
   61CHL1   C19 6960   4.308   2.382  10.291  0.5240  0.1283 -0.5468
   61CHL1  H19A 6961   4.376   2.390  10.379  1.1737  1.4530 -1.1401
   61CHL1  H19B 6962   4.370   2.309  10.235  1.7617 -1.1551  2.2850
   61CHL1  H19C 6963   4.298   2.486  10.255 -1.1653 -0.0602 -0.7028
   61CHL1    C1 6964   4.100   2.447  10.398  0.9821 -0.6439 -0.9336
   61CHL1   H1A 6965   4.102   2.544  10.344  0.4982 -0.2899 -0.3396
   61CHL1   H1B 6966   3.995   2.425  10.429 -0.2403  0.8995 -3.6445
   61CHL1    C2 6967   4.171   2.475  10.531 -1.0533  0.1675 -0.1216
   61CHL1   H2A 6968   4.143   2.560  10.597  0.2010 -0.0696  0.7541
   61CHL1   H2B 6969   4.278   2.500  10.517 -1.3903  1.0919 -1.1769
   61CHL1   C20 6970   4.021   2.295   9.625  0.2261  0.3212  0.7896
   61CHL1   H20 6971   4.125   2.330   9.610  0.3336  0.8734  2.5773
   61CHL1   C21 6972   3.929   2.420   9.642  0.2738  0.3306  0.2302
   61CHL1  H21A 6973   3.881   2.445   9.545  2.3054 -1.4380 -1.3283
   61CHL1  H21B 6974   3.985   2.510   9.676 -0.8556  0.6815  1.2235
   61CHL1  H21C 6975   3.851   2.409   9.720 -2.1835  2.3766 -1.7421
   61CHL1   C22 6976   3.981   2.213   9.501  0.1289 -0.6897  0.0929
   61CHL1  H22A 6977   4.021   2.110   9.502 -0.0508 -0.8082  2.8057
   61CHL1  H22B 6978   3.870   2.210   9.497  0.0645  0.8650 -0.1474
   61CHL1   C23 6979   4.023   2.278   9.364  0.5667  0.2343 -0.3022
   61CHL1  H23A 6980   4.002   2.387   9.364 -1.0659 -0.0582 -0.1769
   61CHL1  H23B 6981   4.133   2.273   9.350  0.5133  0.3777 -0.7772
   61CHL1   C24 6982   3.946   2.201   9.248  0.5638  0.7912 -0.6516
   61CHL1  H24A 6983   3.965   2.092   9.247  3.6401  1.1969  0.9309
   61CHL1  H24B 6984   3.838   2.208   9.271  0.9442  1.0073  1.2589
   61CHL1   C25 6985   3.985   2.257   9.114 -0.6239  0.7089 -0.0269
   61CHL1   H25 6986   3.993   2.366   9.134 -1.1898  0.5534  1.1501
   61CHL1   C26 6987   4.124   2.209   9.070 -0.5107  0.3688  0.5379
   61CHL1  H26A 6988   4.201   2.259   9.133 -0.4504  0.5495  0.3230
   61CHL1  H26B 6989   4.137   2.101   9.092 -0.9726  0.1274 -0.3092
   61CHL1  H26C 6990   4.120   2.235   8.962  0.2129  0.8145  0.6132
   61CHL1   C27 6991   3.880   2.216   9.011  0.3255 -0.4716  0.6162
   61CHL1  H27A 6992   3.915   2.250   8.912 -1.0839 -0.4235  0.1121
   61CHL1  H27B 6993   3.865   2.106   9.009  1.6384 -0.6556  0.0071
   61CHL1  H27C 6994   3.780   2.261   9.032  0.2613  0.3153 -1.1916
   62CHL1    C3 6995   2.135   6.647  10.138  0.1876 -0.5435 -0.2505
   62CHL1    H3 6996   2.229   6.631  10.080  1.5025  0.4789  1.5030
   62CHL1    O3 6997   2.165   6.627  10.275 -1.3262  0.4233  0.0068
   62CHL1   H3' 6998   2.087   6.647  10.326  0.0064  1.2906  1.8495
   62CHL1    C4 6999   2.076   6.780  10.107  0.2350 -1.0033  0.8470
   62CHL1   H4A 7000   1.983   6.791  10.166 -0.3997 -0.6491 -0.1947
   62CHL1   H4B 7001   2.137   6.862  10.151  0.7137 -1.3254  0.7977
   62CHL1    C5 7002   2.066   6.800   9.954 -1.0819 -0.4554 -0.1653
   62CHL1    C6 7003   2.132   6.897   9.882  0.4426 -0.1950 -0.0811
   62CHL1    H6 7004   2.192   6.973   9.935  2.8081 -2.7314  1.1333
   62CHL1    C7 7005   2.108   6.915   9.732  0.6610  0.2050  0.1821
   62CHL1   H7A 7006   2.101   7.024   9.711 -0.5254 -0.0502 -0.8668
   62CHL1   H7B 7007   2.188   6.876   9.665 -0.1386 -1.3885  0.1016
   62CHL1    C8 7008   1.989   6.835   9.670 -0.0262 -0.4751  0.5907
   62CHL1    H8 7009   1.893   6.886   9.694 -0.5224 -0.5302 -1.1156
   62CHL1   C14 7010   1.992   6.825   9.514 -0.4960 -0.0285  0.0462
   62CHL1   H14 7011   2.084   6.767   9.496 -1.1850 -1.5490  1.2366
   62CHL1   C15 7012   2.003   6.958   9.432  0.0628 -0.7886 -0.8095
   62CHL1  H15A 7013   1.938   7.028   9.490  1.6044 -0.8751  1.1268
   62CHL1  H15B 7014   2.105   7.000   9.445 -0.2120 -0.3131 -0.1237
   62CHL1   C16 7015   1.954   6.920   9.296  0.3811 -0.4340 -0.0425
   62CHL1  H16A 7016   1.867   6.985   9.275  1.1162  0.4722 -0.3574
   62CHL1  H16B 7017   2.037   6.944   9.226 -0.1501 -0.1265 -0.5703
   62CHL1   C17 7018   1.905   6.769   9.301 -0.7871 -0.2650  0.0154
   62CHL1   H17 7019   2.001   6.715   9.291  0.8674  2.8473 -2.9125
   62CHL1   C13 7020   1.873   6.754   9.453 -0.4616 -0.1823 -0.5423
   62CHL1   C18 7021   1.747   6.824   9.485  0.2702  1.1230 -0.2489
   62CHL1  H18A 7022   1.724   6.835   9.594 -1.0216  0.8065 -0.4669
   62CHL1  H18B 7023   1.752   6.931   9.459 -1.9111  1.5508  0.8042
   62CHL1  H18C 7024   1.664   6.767   9.437  0.7276 -0.9647  1.2708
   62CHL1   C12 7025   1.874   6.611   9.514  0.3706 -0.0037 -1.2090
   62CHL1  H12A 7026   1.793   6.548   9.472 -1.2869  0.8698  0.5183
   62CHL1  H12B 7027   1.965   6.557   9.480 -0.0537  0.1640 -2.6936
   62CHL1   C11 7028   1.872   6.601   9.665 -0.4274  0.4747 -0.3656
   62CHL1  H11A 7029   1.769   6.620   9.701 -0.5381  0.1666 -0.5133
   62CHL1  H11B 7030   1.889   6.493   9.686 -3.4701  0.2710  1.5971
   62CHL1    C9 7031   1.979   6.694   9.732  0.7941 -0.9833 -0.3608
   62CHL1    H9 7032   2.073   6.644   9.699 -0.7612 -3.1810 -1.6717
   62CHL1   C10 7033   1.976   6.694   9.888 -0.3326 -0.1442  0.5013
   62CHL1   C19 7034   1.832   6.725   9.930 -0.0328 -0.2024 -0.2317
   62CHL1  H19A 7035   1.763   6.641   9.908 -1.6006  0.4102  2.0027
   62CHL1  H19B 7036   1.822   6.729  10.040  0.6703 -0.1919 -0.1658
   62CHL1  H19C 7037   1.794   6.820   9.886 -1.4949 -1.4616 -1.8235
   62CHL1    C1 7038   2.007   6.552   9.947  0.5099 -0.6454  0.5516
   62CHL1   H1A 7039   1.914   6.495   9.927 -1.0228  1.9619 -0.2180
   62CHL1   H1B 7040   2.089   6.506   9.887  0.8232 -0.8106  1.1047
   62CHL1    C2 7041   2.042   6.534  10.096 -0.2982  0.5643  0.1071
   62CHL1   H2A 7042   2.094   6.437  10.114 -0.9404  0.5619  2.3034
   62CHL1   H2B 7043   1.944   6.535  10.148 -0.1781  1.2951  0.3236
   62CHL1   C20 7044   1.802   6.735   9.192 -0.8390 -0.3819  0.9032
   62CHL1   H20 7045   1.712   6.799   9.195 -1.5940 -1.3919  0.3886
   62CHL1   C21 7046   1.773   6.585   9.204 -0.9469  0.3748  0.3182
   62CHL1  H21A 7047   1.722   6.559   9.109  0.8044 -1.0621 -0.2736
   62CHL1  H21B 7048   1.713   6.564   9.295  1.8545  0.6947  2.3796
   62CHL1  H21C 7049   1.867   6.528   9.215 -0.9236  0.5385  1.0029
   62CHL1   C22 7050   1.861   6.762   9.043  0.6433  0.4478  0.0076
   62CHL1  H22A 7051   1.908   6.862   9.050 -0.0629  0.7374  0.8097
   62CHL1  H22B 7052   1.935   6.683   9.020  1.5917  0.8712  1.4453
   62CHL1   C23 7053   1.758   6.763   8.934 -0.0991 -0.2527  0.1453
   62CHL1  H23A 7054   1.723   6.658   8.923 -2.9642  0.7588 -1.6763
   62CHL1  H23B 7055   1.662   6.809   8.966  0.0291 -0.3644  0.6879
   62CHL1   C24 7056   1.808   6.804   8.791 -0.1843 -0.2421 -0.4260
   62CHL1  H24A 7057   1.908   6.762   8.766 -0.6361 -0.6482 -1.6277
   62CHL1  H24B 7058   1.737   6.761   8.718 -0.9240 -3.2186  1.8257
   62CHL1   C25 7059   1.825   6.952   8.771 -0.1916 -0.0318 -0.5156
   62CHL1   H25 7060   1.905   6.983   8.842  0.0069 -1.0406 -0.2815
   62CHL1   C26 7061   1.853   6.992   8.632 -0.4870 -0.7930 -0.4236
   62CHL1  H26A 7062   1.768   6.958   8.567 -1.0418  1.2327 -0.8147
   62CHL1  H26B 7063   1.863   7.102   8.629  1.5285 -0.9631 -1.2396
   62CHL1  H26C 7064   1.948   6.953   8.590 -0.5284  0.4094 -1.7243
   62CHL1   C27 7065   1.697   7.034   8.809 -0.7734  0.1050  0.5768
   62CHL1  H27A 7066   1.723   7.142   8.803  0.1525 -0.2037 -2.1630
   62CHL1  H27B 7067   1.606   7.021   8.746 -1.6411  2.1187  1.3297
   62CHL1  H27C 7068   1.666   7.010   8.913 -1.5787  0.9615  0.5487
   63CHL1    C3 7069   4.701   2.082  10.463 -0.0340  0.3946  0.2556
   63CHL1    H3 7070   4.741   1.979  10.451 -2.1862 -0.6027  1.1637
   63CHL1    O3 7071   4.717   2.105  10.601  0.0010 -0.7650 -0.1370
   63CHL1   H3' 7072   4.679   2.031  10.650 -1.2403 -0.6170 -0.8305
   63CHL1    C4 7073   4.793   2.167  10.374 -0.0697 -0.3836 -0.6396
   63CHL1   H4A 7074   4.751   2.270  10.376 -0.7905 -0.6914  0.5960
   63CHL1   H4B 7075   4.896   2.163  10.415 -0.5145  0.7092  0.6522
   63CHL1    C5 7076   4.782   2.106  10.234  0.6384  0.2416 -0.1752
   63CHL1    C6 7077   4.894   2.066  10.163 -0.2595 -0.7056 -0.7714
   63CHL1    H6 7078   4.992   2.075  10.212 -0.8762  1.9379  0.1363
   63CHL1    C7 7079   4.892   2.020  10.025 -0.5370 -0.5931  0.2379
   63CHL1   H7A 7080   4.982   2.044   9.964 -1.0309  2.3246  0.5311
   63CHL1   H7B 7081   4.885   1.910  10.010  0.7305 -0.6251 -0.2867
   63CHL1    C8 7082   4.760   2.064   9.957  0.7644  0.1179  0.0406
   63CHL1    H8 7083   4.755   2.174   9.947 -0.4764  0.1023  0.3064
   63CHL1   C14 7084   4.741   2.004   9.820  0.0010 -0.4900 -0.5439
   63CHL1   H14 7085   4.747   1.894   9.835 -2.0383 -0.5516  0.1138
   63CHL1   C15 7086   4.852   2.035   9.722 -0.2897  0.2536  0.8354
   63CHL1  H15A 7087   4.881   2.142   9.728  3.1762 -0.4161 -1.4422
   63CHL1  H15B 7088   4.939   1.973   9.751  0.8653  1.9135  1.0333
   63CHL1   C16 7089   4.791   1.991   9.588 -0.2621 -1.3391 -0.4853
   63CHL1  H16A 7090   4.815   2.078   9.523  0.4547 -1.2881 -0.1641
   63CHL1  H16B 7091   4.826   1.901   9.535 -1.5592 -3.5077  2.1031
   63CHL1   C17 7092   4.634   1.983   9.607  0.0340  0.6450  0.4313
   63CHL1   H17 7093   4.621   1.872   9.608 -0.2097  0.6741  0.9671
   63CHL1   C13 7094   4.606   2.034   9.747 -0.1080  0.0490 -0.6521
   63CHL1   C18 7095   4.581   2.193   9.741  0.8010  0.7587  0.6178
   63CHL1  H18A 7096   4.648   2.256   9.678  0.0728  0.8588 -0.0705
   63CHL1  H18B 7097   4.485   2.215   9.691  1.5685 -0.4947 -1.5379
   63CHL1  H18C 7098   4.583   2.237   9.843 -0.2293  0.2150  0.8872
   63CHL1   C12 7099   4.501   1.957   9.831  0.4390 -0.3346  0.0637
   63CHL1  H12A 7100   4.398   1.962   9.790  0.0132  1.9064  1.2473
   63CHL1  H12B 7101   4.527   1.850   9.850  0.2118 -0.1722  1.4463
   63CHL1   C11 7102   4.495   2.023   9.973  0.2601  0.3136  0.0508
   63CHL1  H11A 7103   4.445   2.122   9.964 -1.9540 -0.8422 -0.9711
   63CHL1  H11B 7104   4.428   1.967  10.041  0.4898 -0.5315 -0.4059
   63CHL1    C9 7105   4.638   2.026  10.042  0.1080 -0.2806  0.0881
   63CHL1    H9 7106   4.652   1.918  10.064 -3.4640 -0.6571  1.1796
   63CHL1   C10 7107   4.644   2.102  10.176  0.2609 -0.1171  0.5824
   63CHL1   C19 7108   4.609   2.253  10.151  0.5018 -0.2103 -0.4494
   63CHL1  H19A 7109   4.516   2.262  10.091 -0.7310  1.5713  1.5994
   63CHL1  H19B 7110   4.603   2.305  10.248  1.9694 -2.4406  0.9395
   63CHL1  H19C 7111   4.691   2.304  10.095  0.2915  0.1258 -0.4509
   63CHL1    C1 7112   4.536   2.048  10.277  0.2501  0.5834 -0.3427
   63CHL1   H1A 7113   4.431   2.072  10.247 -0.3284  2.0507  2.5141
   63CHL1   H1B 7114   4.549   1.938  10.272  0.2365  0.6100 -1.0971
   63CHL1    C2 7115   4.550   2.094  10.423 -0.1898  0.4441 -0.2814
   63CHL1   H2A 7116   4.497   2.030  10.497 -0.8965  1.3078 -0.0245
   63CHL1   H2B 7117   4.522   2.200  10.440 -0.5969  0.5907 -1.7904
   63CHL1   C20 7118   4.547   2.028   9.484  0.4635 -0.4948  0.4700
   63CHL1   H20 7119   4.562   2.138   9.474 -1.7225 -0.3653 -2.4625
   63CHL1   C21 7120   4.397   1.997   9.498 -0.2201 -0.1185  0.1195
   63CHL1  H21A 7121   4.392   1.886   9.502  1.5160 -0.2171  0.5027
   63CHL1  H21B 7122   4.330   2.014   9.411 -1.0218 -0.4054  0.6650
   63CHL1  H21C 7123   4.357   2.040   9.592 -1.5284  1.4061 -1.0859
   63CHL1   C22 7124   4.596   1.961   9.348  0.0623  1.3902 -0.3152
   63CHL1  H22A 7125   4.700   1.994   9.325  0.0606  0.6035 -1.5281
   63CHL1  H22B 7126   4.595   1.850   9.355  1.0446  1.4462  1.5569
   63CHL1   C23 7127   4.518   2.005   9.222  0.1207 -0.1977 -0.3053
   63CHL1  H23A 7128   4.439   1.931   9.201  0.8310 -0.5591 -1.8565
   63CHL1  H23B 7129   4.476   2.108   9.227  0.9857  0.1999 -0.9166
   63CHL1   C24 7130   4.609   1.999   9.099 -0.1893 -0.6980 -0.9187
   63CHL1  H24A 7131   4.697   2.060   9.127  0.8838 -3.5070  2.4096
   63CHL1  H24B 7132   4.628   1.891   9.083 -1.2270 -1.2128  1.0537
   63CHL1   C25 7133   4.560   2.063   8.968 -0.4587  0.4420 -0.2123
   63CHL1   H25 7134   4.525   2.168   8.977 -0.2109  0.3879  1.8203
   63CHL1   C26 7135   4.677   2.074   8.869  0.0491  0.4560  0.3763
   63CHL1  H26A 7136   4.637   2.108   8.771  2.9842 -0.4428 -1.2379
   63CHL1  H26B 7137   4.760   2.139   8.901  1.1746  0.7305 -2.7544
   63CHL1  H26C 7138   4.717   1.973   8.843 -1.7364 -0.2871  0.3497
   63CHL1   C27 7139   4.438   1.983   8.915 -0.3955 -0.2333 -0.0718
   63CHL1  H27A 7140   4.387   2.040   8.833  0.3891  1.7544  0.7644
   63CHL1  H27B 7141   4.483   1.887   8.884  1.9224  0.9978 -0.7239
   63CHL1  H27C 7142   4.357   1.966   8.989 -2.3010  0.2329 -1.9239
   64CHL1    C3 7143   3.367   6.259  10.149 -0.1868  0.3066  0.0508
   64CHL1    H3 7144   3.413   6.360  10.158  0.0126  0.0976  1.7854
   64CHL1    O3 7145   3.367   6.193  10.274  0.0442 -0.5250 -0.6450
   64CHL1   H3' 7146   3.452   6.154  10.295  0.4959 -0.3984 -2.1518
   64CHL1    C4 7147   3.222   6.272  10.094  0.3075 -0.1282  0.0265
   64CHL1   H4A 7148   3.180   6.169  10.094  0.4223 -0.2055  1.7832
   64CHL1   H4B 7149   3.164   6.327  10.171  1.1000 -1.1440  1.4002
   64CHL1    C5 7150   3.213   6.340   9.956  0.0571 -0.0362 -0.0215
   64CHL1    C6 7151   3.154   6.458   9.934  0.2771 -0.4010 -0.1831
   64CHL1    H6 7152   3.107   6.508  10.019 -3.2019  1.0808 -2.7268
   64CHL1    C7 7153   3.148   6.524   9.803  0.8061 -0.1152  0.0026
   64CHL1   H7A 7154   3.044   6.558   9.780  1.5067  0.8915 -1.8946
   64CHL1   H7B 7155   3.217   6.611   9.804  3.9739 -2.4446 -1.7882
   64CHL1    C8 7156   3.200   6.435   9.682  0.2749 -0.5375 -0.1948
   64CHL1    H8 7157   3.109   6.376   9.661  0.0736 -0.9617  1.6912
   64CHL1   C14 7158   3.231   6.524   9.571  0.0783  0.0860 -0.5521
   64CHL1   H14 7159   3.322   6.573   9.611 -0.1961 -0.4044  0.7164
   64CHL1   C15 7160   3.131   6.641   9.539 -0.1786 -0.1072 -0.1397
   64CHL1  H15A 7161   3.028   6.601   9.554  0.1122 -0.1812  1.9504
   64CHL1  H15B 7162   3.144   6.721   9.616 -2.6832 -0.7081  1.0196
   64CHL1   C16 7163   3.166   6.673   9.391  0.1357 -0.4307 -0.1179
   64CHL1  H16A 7164   3.071   6.663   9.334 -0.4279 -0.0642  0.7398
   64CHL1  H16B 7165   3.184   6.781   9.370  0.0747 -0.3941  0.0232
   64CHL1   C17 7166   3.270   6.584   9.337 -0.2720  0.5607  0.1552
   64CHL1   H17 7167   3.372   6.619   9.362 -0.3828  0.4501  0.7876
   64CHL1   C13 7168   3.262   6.459   9.436  0.1534  0.1393  0.0391
   64CHL1   C18 7169   3.136   6.374   9.396  0.1169 -0.2231 -0.4217
   64CHL1  H18A 7170   3.045   6.429   9.361 -1.0982 -1.8768  0.0101
   64CHL1  H18B 7171   3.161   6.304   9.313  1.5437 -2.4927  1.7768
   64CHL1  H18C 7172   3.118   6.305   9.481 -0.3812  0.6974  0.2364
   64CHL1   C12 7173   3.385   6.369   9.457  0.1424  0.0251 -0.3191
   64CHL1  H12A 7174   3.384   6.304   9.367 -0.6058  2.2490 -2.0152
   64CHL1  H12B 7175   3.470   6.441   9.462 -0.2598  0.4478  0.8470
   64CHL1   C11 7176   3.364   6.280   9.588  0.0982  0.8749  0.3536
   64CHL1  H11A 7177   3.295   6.197   9.565  0.9404 -0.3819  2.1223
   64CHL1  H11B 7178   3.460   6.226   9.602 -0.7166 -1.2119 -1.6003
   64CHL1    C9 7179   3.322   6.352   9.721 -0.3403 -0.4474 -0.6177
   64CHL1    H9 7180   3.411   6.413   9.745 -0.1433 -1.0237  0.1516
   64CHL1   C10 7181   3.299   6.262   9.849 -0.4024 -0.3493  0.4800
   64CHL1   C19 7182   3.226   6.130   9.807  0.4025  0.2490  0.0234
   64CHL1  H19A 7183   3.210   6.060   9.891  1.2392  0.0768  0.0532
   64CHL1  H19B 7184   3.134   6.149   9.747  0.7591  0.8564 -0.3419
   64CHL1  H19C 7185   3.296   6.080   9.737  0.2117  0.0795 -0.0465
   64CHL1    C1 7186   3.441   6.227   9.911 -0.6688 -0.3232 -0.2435
   64CHL1   H1A 7187   3.508   6.170   9.843  1.6766 -0.5250  2.0436
   64CHL1   H1B 7188   3.494   6.324   9.915  1.2026 -1.1059 -3.2965
   64CHL1    C2 7189   3.451   6.172  10.056  0.6263  0.1517 -0.4105
   64CHL1   H2A 7190   3.558   6.170  10.088  0.2705 -1.1348  0.7822
   64CHL1   H2B 7191   3.401   6.073  10.063 -1.2214  0.9455 -1.4656
   64CHL1   C20 7192   3.265   6.557   9.182 -0.5612  0.5525  0.2073
   64CHL1   H20 7193   3.192   6.476   9.162  1.2420 -0.8521 -0.9568
   64CHL1   C21 7194   3.404   6.506   9.131 -0.6041  0.0557 -0.6505
   64CHL1  H21A 7195   3.413   6.509   9.021 -2.6014  0.6958 -0.8485
   64CHL1  H21B 7196   3.422   6.401   9.162  0.7815  0.2427 -0.7609
   64CHL1  H21C 7197   3.487   6.568   9.173 -0.8303 -0.1239  0.0852
   64CHL1   C22 7198   3.235   6.684   9.100  0.2482  0.8830  0.1361
   64CHL1  H22A 7199   3.139   6.728   9.135 -0.7392 -0.9568 -0.1043
   64CHL1  H22B 7200   3.325   6.743   9.128  1.5726 -0.2544 -1.5192
   64CHL1   C23 7201   3.220   6.669   8.944 -0.2118 -0.1210 -0.4746
   64CHL1  H23A 7202   3.315   6.648   8.892  1.5068  0.6609  2.1732
   64CHL1  H23B 7203   3.149   6.583   8.938  0.7438 -1.0717  1.1444
   64CHL1   C24 7204   3.156   6.794   8.891  0.2577  0.0866 -0.4101
   64CHL1  H24A 7205   3.055   6.810   8.934  0.5544  0.8934  0.0112
   64CHL1  H24B 7206   3.224   6.879   8.912  0.8501  0.3376 -3.0141
   64CHL1   C25 7207   3.132   6.793   8.739  0.2262 -0.6802 -0.1547
   64CHL1   H25 7208   3.100   6.897   8.715  0.9821  0.1394  2.1240
   64CHL1   C26 7209   3.264   6.764   8.660  0.4170  0.0952 -0.1421
   64CHL1  H26A 7210   3.289   6.657   8.670 -2.2885 -0.4877  1.2958
   64CHL1  H26B 7211   3.231   6.792   8.558  0.1328  1.3551  0.2740
   64CHL1  H26C 7212   3.347   6.831   8.691  0.2947  1.3571 -2.3384
   64CHL1   C27 7213   3.017   6.699   8.695 -0.8236  0.3787 -0.2270
   64CHL1  H27A 7214   3.008   6.728   8.588 -0.5486 -0.9226 -0.6185
   64CHL1  H27B 7215   3.039   6.590   8.698  0.0234  0.5489  0.3362
   64CHL1  H27C 7216   2.927   6.718   8.757 -0.5402 -2.0814  1.0518
   65CHL1    C3 7217   1.177   5.037  10.475  0.6199 -0.3886 -0.2501
   65CHL1    H3 7218   1.148   4.931  10.460 -1.6503  0.2119 -0.5515
   65CHL1    O3 7219   1.201   5.076  10.610  0.1555 -0.1956 -0.2351
   65CHL1   H3' 7220   1.117   5.087  10.655  0.0124  1.1228 -0.8052
   65CHL1    C4 7221   1.305   5.069  10.406 -0.6514  0.4603  0.1323
   65CHL1   H4A 7222   1.328   5.176  10.424  0.7407  0.1370  0.3714
   65CHL1   H4B 7223   1.387   5.012  10.454 -1.2917 -0.0351  0.6660
   65CHL1    C5 7224   1.288   5.028  10.264  0.2461  0.1935  0.1093
   65CHL1    C6 7225   1.369   4.941  10.205  0.4753 -0.6037 -1.0408
   65CHL1    H6 7226   1.444   4.882  10.260 -0.8013 -2.0697 -0.8117
   65CHL1    C7 7227   1.362   4.909  10.062 -0.1939 -0.4066 -0.2982
   65CHL1   H7A 7228   1.463   4.897  10.016 -0.0739  0.8104 -0.3653
   65CHL1   H7B 7229   1.308   4.812  10.059  1.5761 -1.5726  1.8865
   65CHL1    C8 7230   1.279   5.011   9.974 -1.2605 -0.0673 -0.6393
   65CHL1    H8 7231   1.347   5.099   9.963 -1.6514  0.1448 -1.4447
   65CHL1   C14 7232   1.257   4.961   9.835 -0.4516  0.0359 -0.7946
   65CHL1   H14 7233   1.191   4.873   9.850  1.3628 -0.9417  2.5389
   65CHL1   C15 7234   1.371   4.893   9.747  0.7579  0.3356 -0.8701
   65CHL1  H15A 7235   1.464   4.953   9.757  0.3341  1.0150 -0.9767
   65CHL1  H15B 7236   1.377   4.786   9.777 -0.3337  0.4469 -0.1981
   65CHL1   C16 7237   1.314   4.892   9.610 -0.2065  0.9380  0.0304
   65CHL1  H16A 7238   1.383   4.955   9.549  1.5649 -0.4015  0.5644
   65CHL1  H16B 7239   1.320   4.794   9.558  1.1988  1.6366 -1.1977
   65CHL1   C17 7240   1.176   4.965   9.615 -0.6176  0.1037 -0.8166
   65CHL1   H17 7241   1.094   4.895   9.643 -0.8132  0.4721 -0.4681
   65CHL1   C13 7242   1.189   5.054   9.743  0.0306 -1.1826  0.4959
   65CHL1   C18 7243   1.280   5.175   9.720 -0.0714  0.3345 -1.0401
   65CHL1  H18A 7244   1.381   5.145   9.686  0.5520 -1.2478  1.8692
   65CHL1  H18B 7245   1.234   5.230   9.636 -0.4830  0.0992 -0.9756
   65CHL1  H18C 7246   1.283   5.245   9.806  2.1064  1.5757 -2.0517
   65CHL1   C12 7247   1.056   5.094   9.811  0.1754 -0.1682 -0.1181
   65CHL1  H12A 7248   1.024   5.180   9.748  2.4920  0.5973 -0.3332
   65CHL1  H12B 7249   0.986   5.008   9.804  1.8028 -1.4627 -0.9743
   65CHL1   C11 7250   1.074   5.156   9.946 -0.1852 -0.0613 -0.6509
   65CHL1  H11A 7251   1.129   5.253   9.945  1.7214 -1.0226  1.0532
   65CHL1  H11B 7252   0.974   5.180   9.987 -0.7808 -0.9911 -1.5183
   65CHL1    C9 7253   1.150   5.065  10.042 -0.3665 -0.0831 -0.7223
   65CHL1    H9 7254   1.083   4.976  10.051 -0.7093 -0.0055 -2.1965
   65CHL1   C10 7255   1.172   5.114  10.191 -0.5449 -0.2015 -0.4266
   65CHL1   C19 7256   1.222   5.262  10.186  0.1450 -0.0440  0.0521
   65CHL1  H19A 7257   1.134   5.321  10.153  0.1881  0.4424  0.7695
   65CHL1  H19B 7258   1.237   5.311  10.285 -0.2889  0.8893 -0.3226
   65CHL1  H19C 7259   1.299   5.291  10.111 -3.2689  0.4356 -3.6166
   65CHL1    C1 7260   1.041   5.108  10.273  0.4667  0.0750 -0.7130
   65CHL1   H1A 7261   0.966   5.181  10.234  1.0636  0.0619 -1.9424
   65CHL1   H1B 7262   1.005   5.004  10.261 -1.0871  0.3815  0.8457
   65CHL1    C2 7263   1.070   5.128  10.423 -0.2274 -0.1253 -0.1322
   65CHL1   H2A 7264   0.974   5.101  10.473 -0.2514 -2.9028 -1.4968
   65CHL1   H2B 7265   1.085   5.238  10.430  0.5739 -0.3027  1.3676
   65CHL1   C20 7266   1.134   5.026   9.473  0.9850  0.0570 -0.0550
   65CHL1   H20 7267   1.228   5.080   9.448  1.3186 -0.3432  0.3189
   65CHL1   C21 7268   1.009   5.107   9.480  0.2021 -0.0571  0.7488
   65CHL1  H21A 7269   0.931   5.060   9.543 -2.0660 -0.0107 -1.8228
   65CHL1  H21B 7270   0.964   5.127   9.380  1.6394  0.0014  0.0888
   65CHL1  H21C 7271   1.041   5.203   9.527  0.4562 -0.4916  1.4778
   65CHL1   C22 7272   1.133   4.927   9.354 -0.4439  0.2007 -0.4168
   65CHL1  H22A 7273   1.193   4.836   9.372 -2.1417 -0.6198  1.5728
   65CHL1  H22B 7274   1.028   4.896   9.335 -0.4147 -0.4311  0.4190
   65CHL1   C23 7275   1.185   4.979   9.228  0.2598 -0.2816  0.6529
   65CHL1  H23A 7276   1.134   5.074   9.200  0.6206 -0.7183 -1.6678
   65CHL1  H23B 7277   1.292   4.997   9.253 -0.1037  1.1725  1.2872
   65CHL1   C24 7278   1.182   4.870   9.114 -0.0612 -0.5099 -0.6369
   65CHL1  H24A 7279   1.232   4.774   9.139 -1.6521 -1.1509  0.2892
   65CHL1  H24B 7280   1.073   4.849   9.107 -1.4404  3.7991  2.8064
   65CHL1   C25 7281   1.248   4.932   8.988  0.3197 -0.0686 -0.3895
   65CHL1   H25 7282   1.191   5.025   8.962 -2.2435 -1.5012 -0.2510
   65CHL1   C26 7283   1.392   4.962   9.003 -0.3502  0.6588 -0.2735
   65CHL1  H26A 7284   1.401   5.036   9.086  1.7358  1.0846 -0.8119
   65CHL1  H26B 7285   1.446   4.866   9.014 -3.3392 -1.0127  0.8936
   65CHL1  H26C 7286   1.439   5.018   8.919  2.3927 -0.8005  0.1705
   65CHL1   C27 7287   1.223   4.841   8.866  0.0275 -0.2196 -0.4856
   65CHL1  H27A 7288   1.113   4.835   8.848  0.1140 -2.1001 -0.6010
   65CHL1  H27B 7289   1.272   4.879   8.774 -0.8529  2.6807  0.1254
   65CHL1  H27C 7290   1.280   4.748   8.887  0.3301 -0.2423 -1.3633
   66CHL1    C3 7291   4.478   2.780  10.572 -0.6058  0.1588 -0.2899
   66CHL1    H3 7292   4.438   2.679  10.593 -0.2368 -0.0162 -0.4183
   66CHL1    O3 7293   4.530   2.815  10.697  0.4876 -0.1483 -0.9659
   66CHL1   H3' 7294   4.546   2.909  10.686 -0.5372  0.4074  1.4885
   66CHL1    C4 7295   4.590   2.779  10.466 -0.0502  0.2719 -0.1288
   66CHL1   H4A 7296   4.656   2.868  10.458 -0.5409  0.9414  2.5236
   66CHL1   H4B 7297   4.650   2.695  10.506 -3.7036 -1.9498  1.0977
   66CHL1    C5 7298   4.542   2.743  10.327 -0.9169 -0.3504 -0.4066
   66CHL1    C6 7299   4.589   2.647  10.249  0.1088 -0.1484  0.3455
   66CHL1    H6 7300   4.671   2.583  10.285 -0.2135  0.1319  1.6220
   66CHL1    C7 7301   4.561   2.627  10.108 -0.2739  0.3311 -0.3484
   66CHL1   H7A 7302   4.651   2.617  10.044 -1.5855 -0.1142 -2.2026
   66CHL1   H7B 7303   4.508   2.530  10.097 -1.8911  1.3961 -3.0561
   66CHL1    C8 7304   4.473   2.731  10.046 -0.0523  0.3495  0.2976
   66CHL1    H8 7305   4.539   2.818  10.029 -0.2789  0.1480 -1.8696
   66CHL1   C14 7306   4.413   2.683   9.907 -0.1199 -0.1384 -0.6228
   66CHL1   H14 7307   4.353   2.594   9.935  0.5104 -0.8924 -1.5734
   66CHL1   C15 7308   4.509   2.646   9.797  0.2973  0.3322 -0.3909
   66CHL1  H15A 7309   4.576   2.731   9.771  0.5870  0.0730 -0.5019
   66CHL1  H15B 7310   4.559   2.547   9.806  1.4710  0.8859 -0.6884
   66CHL1   C16 7311   4.415   2.635   9.677  0.1907  0.0713 -0.5889
   66CHL1  H16A 7312   4.450   2.699   9.594 -0.0274 -0.3781 -1.0365
   66CHL1  H16B 7313   4.392   2.530   9.648  1.6991 -0.2652 -0.6445
   66CHL1   C17 7314   4.278   2.709   9.717  0.7832  0.1305 -0.3021
   66CHL1   H17 7315   4.208   2.624   9.733  1.0603 -0.4452 -1.9730
   66CHL1   C13 7316   4.308   2.783   9.851  0.3332 -0.0539 -0.0587
   66CHL1   C18 7317   4.376   2.911   9.806 -0.4163  0.5900 -0.1748
   66CHL1  H18A 7318   4.302   2.993   9.792  2.0368  3.3609  1.6411
   66CHL1  H18B 7319   4.442   2.956   9.884  0.3665 -1.4189  0.3749
   66CHL1  H18C 7320   4.437   2.900   9.714  1.0111  1.1151  0.6611
   66CHL1   C12 7321   4.194   2.806   9.945  0.4424  0.1070 -0.3073
   66CHL1  H12A 7322   4.118   2.874   9.900 -1.4065 -3.0037 -2.3189
   66CHL1  H12B 7323   4.153   2.706   9.970  2.5164 -1.0686 -1.3557
   66CHL1   C11 7324   4.249   2.862  10.074 -0.1972 -0.4137 -0.0351
   66CHL1  H11A 7325   4.287   2.964  10.052 -0.7646 -0.0296  0.7098
   66CHL1  H11B 7326   4.166   2.884  10.145  0.8373  1.2773  0.7092
   66CHL1    C9 7327   4.359   2.774  10.145 -0.4670  0.1567  0.0887
   66CHL1    H9 7328   4.312   2.679  10.178  1.4978 -0.3925  1.4707
   66CHL1   C10 7329   4.421   2.832  10.278  0.0333  0.1028 -0.3873
   66CHL1   C19 7330   4.476   2.972  10.252 -0.5612  0.5857 -0.7924
   66CHL1  H19A 7331   4.562   2.975  10.182  0.4410  0.9021  0.4105
   66CHL1  H19B 7332   4.397   3.043  10.219 -0.3004  1.3067  0.0935
   66CHL1  H19C 7333   4.509   3.015  10.349 -0.6339  0.9171 -0.9138
   66CHL1    C1 7334   4.316   2.839  10.397  0.7559 -0.1167 -0.3763
   66CHL1   H1A 7335   4.237   2.912  10.368 -1.8362 -3.3983 -2.1608
   66CHL1   H1B 7336   4.259   2.745  10.390 -0.8562  0.8193 -0.3086
   66CHL1    C2 7337   4.367   2.869  10.540  0.6126  0.2625  0.1539
   66CHL1   H2A 7338   4.302   2.847  10.628  1.6287  4.2409  2.1420
   66CHL1   H2B 7339   4.396   2.976  10.543 -1.5226  0.8798  2.1040
   66CHL1   C20 7340   4.204   2.790   9.609  0.0406 -0.6369  0.2725
   66CHL1   H20 7341   4.262   2.875   9.567 -0.6413  0.1142  0.8086
   66CHL1   C21 7342   4.058   2.848   9.644  0.0975  0.0213  0.0584
   66CHL1  H21A 7343   4.071   2.934   9.712 -0.6540  1.9451 -2.0847
   66CHL1  H21B 7344   3.997   2.780   9.706  1.3520  0.3415  1.7172
   66CHL1  H21C 7345   4.010   2.893   9.554  3.6792  1.2377 -1.4439
   66CHL1   C22 7346   4.175   2.698   9.485  0.1673 -0.5795 -0.2772
   66CHL1  H22A 7347   4.239   2.607   9.495 -0.2489 -0.7932  0.5566
   66CHL1  H22B 7348   4.075   2.657   9.510 -0.0522  0.2129  0.1558
   66CHL1   C23 7349   4.181   2.768   9.347 -0.2655 -0.3885  0.3078
   66CHL1  H23A 7350   4.120   2.861   9.347 -1.9466 -1.4222  1.8280
   66CHL1  H23B 7351   4.286   2.789   9.319  0.0500 -1.9043  0.2816
   66CHL1   C24 7352   4.120   2.682   9.235  0.3023  0.0535  0.5619
   66CHL1  H24A 7353   4.189   2.597   9.218 -0.2479 -0.0646 -1.2017
   66CHL1  H24B 7354   4.019   2.643   9.260 -0.4996  1.1775 -0.7953
   66CHL1   C25 7355   4.116   2.759   9.100  0.5226  0.3534 -0.8245
   66CHL1   H25 7356   4.215   2.795   9.065 -0.7758  3.3950 -1.6650
   66CHL1   C26 7357   4.050   2.667   8.989 -0.8638 -0.1454  0.1933
   66CHL1  H26A 7358   4.063   2.724   8.894 -2.4899  1.4357  0.8553
   66CHL1  H26B 7359   4.089   2.563   8.988 -1.8302 -0.5138 -0.3722
   66CHL1  H26C 7360   3.940   2.657   9.000 -0.9118 -0.3028 -0.4023
   66CHL1   C27 7361   4.034   2.891   9.104 -0.2929  0.1569  0.6615
   66CHL1  H27A 7362   4.044   2.930   9.001  0.4965 -1.3310  0.1453
   66CHL1  H27B 7363   3.926   2.872   9.123 -0.1294  0.1495  1.6386
   66CHL1  H27C 7364   4.064   2.962   9.184 -0.9553 -0.2057  1.2438
   67CHL1    C3 7365   3.284   1.434  10.257 -0.1193  0.7536 -1.6600
   67CHL1    H3 7366   3.392   1.440  10.228 -0.4177  0.3249 -2.9265
   67CHL1    O3 7367   3.285   1.400  10.396 -0.1788  0.3718  0.2864
   67CHL1   H3' 7368   3.198   1.377  10.428 -0.4300 -1.8783 -1.7292
   67CHL1    C4 7369   3.216   1.568  10.246 -0.1184 -0.4013 -0.2970
   67CHL1   H4A 7370   3.116   1.575  10.292 -0.7391 -0.0178 -1.6555
   67CHL1   H4B 7371   3.276   1.634  10.314 -0.7099 -0.0823 -0.0798
   67CHL1    C5 7372   3.231   1.616  10.108  0.0077 -0.9980 -0.1028
   67CHL1    C6 7373   3.298   1.731  10.067 -0.4760  0.9139  0.3212
   67CHL1    H6 7374   3.360   1.790  10.137  0.5248 -0.3151  0.4964
   67CHL1    C7 7375   3.300   1.794   9.926  0.5901  0.0616 -0.6921
   67CHL1   H7A 7376   3.274   1.902   9.933 -1.6501 -0.5396  2.3708
   67CHL1   H7B 7377   3.405   1.783   9.890  0.5953 -1.7113 -0.2261
   67CHL1    C8 7378   3.203   1.712   9.837 -0.3023  0.1514  0.3248
   67CHL1    H8 7379   3.101   1.750   9.859 -0.0280  0.9955  0.1510
   67CHL1   C14 7380   3.229   1.740   9.691 -0.7727  0.3215  0.1036
   67CHL1   H14 7381   3.329   1.699   9.667 -1.0685  0.1133 -0.8109
   67CHL1   C15 7382   3.227   1.882   9.642 -0.9010  0.4696 -0.6786
   67CHL1  H15A 7383   3.136   1.941   9.666 -1.7290  0.3585 -3.2944
   67CHL1  H15B 7384   3.320   1.934   9.673  1.3272 -1.8384 -2.9386
   67CHL1   C16 7385   3.223   1.878   9.488  0.0550 -0.4383  0.0452
   67CHL1  H16A 7386   3.138   1.938   9.450  1.2506  0.5666 -1.1207
   67CHL1  H16B 7387   3.326   1.898   9.450  1.0202 -2.3925  1.4401
   67CHL1   C17 7388   3.202   1.725   9.460 -1.4526 -0.2755  0.3902
   67CHL1   H17 7389   3.307   1.688   9.457 -0.4061  2.4294  0.7942
   67CHL1   C13 7390   3.149   1.661   9.594  0.4672  0.2071  0.1929
   67CHL1   C18 7391   2.997   1.695   9.605 -0.3497 -0.0477 -0.7945
   67CHL1  H18A 7392   2.955   1.658   9.701 -2.3393 -0.7716 -1.8751
   67CHL1  H18B 7393   2.989   1.806   9.610  0.8726 -0.0105  1.6777
   67CHL1  H18C 7394   2.929   1.651   9.529  0.4975  0.6355 -1.9825
   67CHL1   C12 7395   3.178   1.511   9.617 -0.0507 -0.3667  0.3240
   67CHL1  H12A 7396   3.124   1.438   9.553  2.1723 -0.8067 -1.1664
   67CHL1  H12B 7397   3.287   1.492   9.610  0.3512  0.1023  3.7223
   67CHL1   C11 7398   3.134   1.469   9.754 -0.0802  0.1648 -0.5017
   67CHL1  H11A 7399   3.023   1.466   9.765  0.0945  1.9251  3.3789
   67CHL1  H11B 7400   3.163   1.362   9.764  2.0845  0.6813 -0.8456
   67CHL1    C9 7401   3.204   1.558   9.866  0.9445 -0.1823  0.0995
   67CHL1    H9 7402   3.311   1.534   9.849  1.2854  0.5644  1.1390
   67CHL1   C10 7403   3.161   1.528  10.009 -0.2166  0.7292  0.2214
   67CHL1   C19 7404   3.007   1.542  10.021 -0.1899 -0.2158 -0.3993
   67CHL1  H19A 7405   2.950   1.488  10.100 -0.9381  0.6266 -0.3454
   67CHL1  H19B 7406   3.000   1.652  10.028 -1.9168 -0.2635 -0.9382
   67CHL1  H19C 7407   2.947   1.518   9.931 -0.2985  1.4136 -0.7839
   67CHL1    C1 7408   3.207   1.385  10.024 -0.0885 -0.1886 -0.5984
   67CHL1   H1A 7409   3.134   1.324   9.967 -0.5160 -1.7065  1.4583
   67CHL1   H1B 7410   3.307   1.366   9.979 -0.1661 -0.6318 -0.5899
   67CHL1    C2 7411   3.225   1.334  10.167  0.5977  0.8948  0.4455
   67CHL1   H2A 7412   3.289   1.244  10.172  0.0743  0.5445  1.0061
   67CHL1   H2B 7413   3.126   1.313  10.214 -0.3953  1.4062 -1.3382
   67CHL1   C20 7414   3.141   1.680   9.330 -0.0810 -1.1000  0.1191
   67CHL1   H20 7415   3.042   1.726   9.308  0.8113  1.5003  1.1444
   67CHL1   C21 7416   3.127   1.527   9.321 -0.3545 -0.1979  0.0545
   67CHL1  H21A 7417   3.036   1.502   9.379 -2.0232  1.0146 -1.9084
   67CHL1  H21B 7418   3.224   1.473   9.334 -1.3493 -2.2821 -0.7648
   67CHL1  H21C 7419   3.106   1.503   9.215 -1.0939 -0.3923  0.2415
   67CHL1   C22 7420   3.221   1.733   9.200 -1.0526 -0.3951 -0.4125
   67CHL1  H22A 7421   3.221   1.843   9.210  1.5837 -0.5152  2.4269
   67CHL1  H22B 7422   3.323   1.690   9.207 -0.9355  0.0146  0.5194
   67CHL1   C23 7423   3.156   1.683   9.066  0.3162 -0.2848 -0.6661
   67CHL1  H23A 7424   3.202   1.584   9.043 -0.3496 -1.3216  2.1437
   67CHL1  H23B 7425   3.053   1.644   9.076  0.5308 -0.2467  2.9352
   67CHL1   C24 7426   3.172   1.782   8.944  0.8967 -0.3962  0.0528
   67CHL1  H24A 7427   3.280   1.807   8.938  0.4539  2.2022  1.3773
   67CHL1  H24B 7428   3.134   1.743   8.847 -0.7050  0.8776  0.1304
   67CHL1   C25 7429   3.084   1.910   8.966 -0.2619  0.3103 -0.0076
   67CHL1   H25 7430   3.100   1.945   9.070 -0.0150 -1.4095  0.5634
   67CHL1   C26 7431   3.126   2.028   8.875  0.5362  0.2366 -0.2216
   67CHL1  H26A 7432   3.237   2.036   8.878  0.5706  0.1152  3.0979
   67CHL1  H26B 7433   3.076   2.013   8.777  2.7622  0.2047 -1.4143
   67CHL1  H26C 7434   3.087   2.124   8.914  0.5173  0.2632 -0.3067
   67CHL1   C27 7435   2.936   1.872   8.946  0.3595  0.4777  0.3605
   67CHL1  H27A 7436   2.915   1.790   9.019  2.3433 -3.1980 -2.7969
   67CHL1  H27B 7437   2.865   1.954   8.968 -1.1805 -1.0854  1.4952
   67CHL1  H27C 7438   2.912   1.828   8.847  0.0623  1.7574 -0.1448
   68CHL1    C3 7439   2.209   1.195  10.341  0.1632  0.2733  0.2465
   68CHL1    H3 7440   2.101   1.220  10.333 -0.0722  0.0988  2.3560
   68CHL1    O3 7441   2.249   1.166  10.478 -0.2913  0.7024  0.2074
   68CHL1   H3' 7442   2.265   1.071  10.481  1.5698  0.9377 -0.5701
   68CHL1    C4 7443   2.224   1.060  10.253 -0.0970 -0.0515 -0.2712
   68CHL1   H4A 7444   2.328   1.025  10.266 -1.0172 -2.7600  0.4286
   68CHL1   H4B 7445   2.154   0.987  10.299 -0.3548 -0.0601 -0.6725
   68CHL1    C5 7446   2.180   1.089  10.105 -1.0222  0.5458 -0.0358
   68CHL1    C6 7447   2.089   1.008  10.040 -0.1807 -0.6360  0.2512
   68CHL1    H6 7448   2.036   0.920  10.080  1.0424 -1.7276 -0.4496
   68CHL1    C7 7449   2.058   1.030   9.898 -0.4940  0.2040  0.1832
   68CHL1   H7A 7450   2.058   0.937   9.837  2.3366  0.7200 -0.7730
   68CHL1   H7B 7451   1.964   1.089   9.901 -0.3118  0.5135 -0.0750
   68CHL1    C8 7452   2.161   1.121   9.825  0.0572 -1.1361  0.1837
   68CHL1    H8 7453   2.257   1.071   9.802  1.9086  1.9730  0.5974
   68CHL1   C14 7454   2.104   1.173   9.689 -0.2336  0.0814  0.5499
   68CHL1   H14 7455   2.017   1.237   9.717 -0.3050  0.2346 -0.0027
   68CHL1   C15 7456   2.055   1.056   9.594  0.2581 -0.3242 -0.3883
   68CHL1  H15A 7457   2.115   0.964   9.608  1.0777  0.3806  1.0121
   68CHL1  H15B 7458   1.954   1.020   9.623  0.1981 -0.8148 -1.1783
   68CHL1   C16 7459   2.057   1.121   9.455 -0.3355 -0.3799  0.3359
   68CHL1  H16A 7460   2.114   1.065   9.378  0.5342  0.7221  0.1611
   68CHL1  H16B 7461   1.953   1.115   9.414 -0.4050  2.4662 -0.1179
   68CHL1   C17 7462   2.109   1.270   9.479  0.6687  0.0635  0.3238
   68CHL1   H17 7463   2.018   1.333   9.493  1.5734  1.4568  0.0982
   68CHL1   C13 7464   2.194   1.264   9.608 -0.5063 -0.0712 -0.8674
   68CHL1   C18 7465   2.325   1.184   9.584  0.1847  0.0487  0.0709
   68CHL1  H18A 7466   2.386   1.172   9.676  1.1164 -1.7852 -0.7389
   68CHL1  H18B 7467   2.301   1.084   9.542  0.8076  0.4684 -1.3679
   68CHL1  H18C 7468   2.389   1.232   9.506  1.4047 -3.3269 -1.1605
   68CHL1   C12 7469   2.207   1.391   9.693 -0.1555 -0.2013 -0.3781
   68CHL1  H12A 7470   2.269   1.469   9.645 -2.0852  0.4361 -1.9687
   68CHL1  H12B 7471   2.106   1.436   9.703  0.3417  0.9053 -0.1652
   68CHL1   C11 7472   2.258   1.363   9.835  0.1181  0.3310 -0.1335
   68CHL1  H11A 7473   2.364   1.333   9.824 -0.1362 -0.3354 -0.8546
   68CHL1  H11B 7474   2.248   1.458   9.891  0.1820  1.1680 -1.4800
   68CHL1    C9 7475   2.187   1.243   9.906  0.2587 -0.3289 -0.4649
   68CHL1    H9 7476   2.087   1.285   9.930  0.2886  0.3157 -1.3921
   68CHL1   C10 7477   2.252   1.208  10.047 -0.1227  0.3889  0.3429
   68CHL1   C19 7478   2.400   1.176  10.040 -0.8326  0.1492  0.1390
   68CHL1  H19A 7479   2.421   1.088   9.975  0.1959  0.4362  0.0733
   68CHL1  H19B 7480   2.451   1.267  10.001 -0.9250 -0.3321 -1.1374
   68CHL1  H19C 7481   2.436   1.152  10.142 -3.1781  0.3544  1.0699
   68CHL1    C1 7482   2.231   1.332  10.137 -0.1936  0.1308  0.1953
   68CHL1   H1A 7483   2.298   1.414  10.103  0.8087 -0.8578 -0.2548
   68CHL1   H1B 7484   2.126   1.368  10.138 -0.7700 -0.8673 -3.7807
   68CHL1    C2 7485   2.275   1.318  10.281 -0.0263 -0.0736  0.4228
   68CHL1   H2A 7486   2.251   1.402  10.349  0.1877 -0.2262  0.6885
   68CHL1   H2B 7487   2.386   1.309  10.287  0.1506  0.4821 -1.2816
   68CHL1   C20 7488   2.170   1.320   9.343  0.5279  0.0782 -0.3478
   68CHL1   H20 7489   2.246   1.248   9.306  0.2292  0.1388 -1.0988
   68CHL1   C21 7490   2.239   1.455   9.368 -0.1076  0.1188  0.6683
   68CHL1  H21A 7491   2.167   1.522   9.420  0.4532  3.1260 -2.1036
   68CHL1  H21B 7492   2.275   1.508   9.277  2.8570 -0.9918  1.1019
   68CHL1  H21C 7493   2.329   1.447   9.432 -0.8203  0.5867  1.7480
   68CHL1   C22 7494   2.064   1.329   9.229  0.4079  0.2827  0.2460
   68CHL1  H22A 7495   2.037   1.223   9.211  2.0693 -0.3413  1.2086
   68CHL1  H22B 7496   1.972   1.386   9.252 -0.1052 -0.3224 -0.2670
   68CHL1   C23 7497   2.125   1.379   9.095 -0.2812  0.4914  0.3067
   68CHL1  H23A 7498   2.162   1.483   9.108  0.2813  0.6578 -2.1452
   68CHL1  H23B 7499   2.215   1.322   9.063 -0.0943  0.6989  0.4545
   68CHL1   C24 7500   2.010   1.384   8.988  0.3951 -0.3948 -1.0462
   68CHL1  H24A 7501   1.971   1.283   8.966  2.5605 -0.8105 -3.4597
   68CHL1  H24B 7502   1.928   1.441   9.036  0.5366 -0.1571 -1.0821
   68CHL1   C25 7503   2.032   1.456   8.853 -0.3468 -0.2474  0.0819
   68CHL1   H25 7504   1.940   1.509   8.822  0.6305  1.3038 -0.2609
   68CHL1   C26 7505   2.144   1.568   8.872 -0.2479 -0.3949  0.2123
   68CHL1  H26A 7506   2.136   1.640   8.787  0.8177  0.9722  1.2211
   68CHL1  H26B 7507   2.109   1.629   8.958  0.1055  1.4263 -0.8802
   68CHL1  H26C 7508   2.247   1.530   8.885 -1.2412 -3.5013 -0.1611
   68CHL1   C27 7509   2.068   1.362   8.740  0.0060  0.1570  0.1206
   68CHL1  H27A 7510   2.166   1.315   8.761  0.2509  0.8890  0.6668
   68CHL1  H27B 7511   1.994   1.280   8.729 -0.3051  0.5319 -0.7197
   68CHL1  H27C 7512   2.077   1.406   8.638  0.1666  0.7049  0.3668
   69CHL1    C3 7513   0.279   0.479   7.097  1.1870  0.2771  0.1497
   69CHL1    H3 7514   0.383   0.442   7.100  0.4112 -2.2207 -0.6348
   69CHL1    O3 7515   0.231   0.476   6.959  0.3145 -0.0089 -0.8800
   69CHL1   H3' 7516   0.136   0.493   6.954  0.1529 -0.3608  0.4747
   69CHL1    C4 7517   0.195   0.376   7.185 -0.0681  0.0240 -0.6277
   69CHL1   H4A 7518   0.088   0.401   7.170 -1.3301 -4.2852 -0.1442
   69CHL1   H4B 7519   0.222   0.271   7.161 -1.5585 -0.5695  0.2077
   69CHL1    C5 7520   0.207   0.390   7.334 -0.6273  0.0042 -0.6224
   69CHL1    C6 7521   0.228   0.288   7.426  0.1540  0.2682 -0.1081
   69CHL1    H6 7522   0.244   0.185   7.390  1.6567 -0.1740  1.6673
   69CHL1    C7 7523   0.236   0.300   7.575  0.5323 -0.2312  0.0813
   69CHL1   H7A 7524   0.167   0.229   7.627 -0.9254  1.9524  1.3136
   69CHL1   H7B 7525   0.335   0.279   7.621  0.7998  3.8432  1.7339
   69CHL1    C8 7526   0.189   0.445   7.626  0.4114 -0.0042  0.6364
   69CHL1    H8 7527   0.080   0.450   7.606  1.0231  2.2270 -3.1980
   69CHL1   C14 7528   0.242   0.469   7.764 -0.7955 -0.3360 -0.1729
   69CHL1   H14 7529   0.352   0.483   7.750 -0.5338 -1.0763  0.9508
   69CHL1   C15 7530   0.224   0.356   7.861  0.6727  0.3669 -0.2571
   69CHL1  H15A 7531   0.123   0.312   7.846  0.3059  0.5846  1.3593
   69CHL1  H15B 7532   0.301   0.279   7.845  1.2231  0.8456  0.0524
   69CHL1   C16 7533   0.226   0.415   8.003 -0.1013 -0.3651  0.4545
   69CHL1  H16A 7534   0.132   0.382   8.054  0.3594 -0.8034  1.0314
   69CHL1  H16B 7535   0.317   0.387   8.060  0.3001 -0.2519 -0.1252
   69CHL1   C17 7536   0.237   0.566   7.969  0.4387  0.5237 -0.1187
   69CHL1   H17 7537   0.344   0.593   7.962  0.5013 -0.0566 -1.8370
   69CHL1   C13 7538   0.179   0.592   7.828  0.4287 -0.4755  0.3529
   69CHL1   C18 7539   0.029   0.584   7.834 -0.1220 -0.8201 -1.1473
   69CHL1  H18A 7540  -0.016   0.596   7.733 -0.9188  0.0408 -0.7124
   69CHL1  H18B 7541  -0.015   0.488   7.867 -0.5205  0.0895  1.2090
   69CHL1  H18C 7542  -0.004   0.666   7.902  0.7458 -1.0235 -0.4639
   69CHL1   C12 7543   0.229   0.712   7.745 -0.1906  0.5145 -0.7271
   69CHL1  H12A 7544   0.192   0.811   7.781  0.9195  0.1925  1.4527
   69CHL1  H12B 7545   0.338   0.726   7.760 -0.4335  0.2803  1.5507
   69CHL1   C11 7546   0.209   0.699   7.593 -0.6790  0.4839  0.3548
   69CHL1  H11A 7547   0.099   0.716   7.586 -0.8371  0.4432  2.1171
   69CHL1  H11B 7548   0.261   0.785   7.547  0.8288  0.1789  1.4003
   69CHL1    C9 7549   0.241   0.561   7.532  0.3224 -0.4799  0.4849
   69CHL1    H9 7550   0.351   0.554   7.545  0.2858 -1.7591  0.1951
   69CHL1   C10 7551   0.199   0.538   7.385  0.2006 -1.1493  0.1519
   69CHL1   C19 7552   0.056   0.595   7.374  0.7910 -0.4918  0.0594
   69CHL1  H19A 7553   0.052   0.706   7.365 -1.8094 -0.5740 -0.6914
   69CHL1  H19B 7554  -0.016   0.562   7.296  0.6941  0.6997 -0.3821
   69CHL1  H19C 7555  -0.006   0.568   7.462 -0.3129  0.8053 -0.2731
   69CHL1    C1 7556   0.303   0.616   7.297  0.4311  0.4977 -0.2031
   69CHL1   H1A 7557   0.305   0.719   7.339  1.6804 -0.3481  1.9708
   69CHL1   H1B 7558   0.403   0.568   7.307  0.2324  0.1455  0.1267
   69CHL1    C2 7559   0.261   0.618   7.150 -0.0281  0.0057  0.1846
   69CHL1   H2A 7560   0.314   0.700   7.098  2.1289 -1.8992 -0.7708
   69CHL1   H2B 7561   0.151   0.630   7.140 -0.4681 -2.5961  1.0058
   69CHL1   C20 7562   0.180   0.645   8.100 -0.2077  0.3716  1.3012
   69CHL1   H20 7563   0.070   0.630   8.095 -0.2514  0.8596 -2.6352
   69CHL1   C21 7564   0.206   0.796   8.068  1.1568 -0.7402 -0.1239
   69CHL1  H21A 7565   0.315   0.803   8.046  1.4351 -1.3597  1.0004
   69CHL1  H21B 7566   0.180   0.870   8.147 -0.8802  0.7217 -2.0364
   69CHL1  H21C 7567   0.138   0.811   7.981 -0.5945 -0.2827  1.2847
   69CHL1   C22 7568   0.239   0.600   8.234 -0.6922 -0.8763  0.0722
   69CHL1  H22A 7569   0.196   0.505   8.272  0.4446 -1.0826  0.8977
   69CHL1  H22B 7570   0.349   0.590   8.221 -0.7128  0.6908 -1.7804
   69CHL1   C23 7571   0.207   0.695   8.349 -0.1570 -0.1926  0.1032
   69CHL1  H23A 7572   0.254   0.648   8.439 -0.8041  1.9458  1.6397
   69CHL1  H23B 7573   0.255   0.793   8.333  0.6881 -0.4381  0.9776
   69CHL1   C24 7574   0.053   0.702   8.361  0.5471 -0.5497 -0.1018
   69CHL1  H24A 7575   0.017   0.757   8.272  2.0156 -0.7184 -0.8288
   69CHL1  H24B 7576   0.006   0.603   8.346  0.4014 -0.1055 -3.1047
   69CHL1   C25 7577  -0.014   0.761   8.489 -0.0224 -0.2275 -0.1159
   69CHL1   H25 7578  -0.124   0.750   8.482 -0.1092 -0.4071  1.1466
   69CHL1   C26 7579   0.038   0.677   8.610 -0.3378  0.4269  0.2983
   69CHL1  H26A 7580   0.148   0.668   8.604 -0.2592  1.1337  0.6218
   69CHL1  H26B 7581  -0.008   0.700   8.709  0.7858 -1.5114  1.3455
   69CHL1  H26C 7582  -0.005   0.575   8.598 -0.7081  0.3538  1.9837
   69CHL1   C27 7583   0.034   0.907   8.509  0.6157 -0.0353 -0.3712
   69CHL1  H27A 7584  -0.012   0.967   8.428  0.8459  0.6582  0.0011
   69CHL1  H27B 7585  -0.017   0.945   8.601  0.4740  1.0562 -0.8870
   69CHL1  H27C 7586   0.142   0.932   8.525  0.9838 -2.0453  0.5507
   70CHL1    C3 7587   0.758   0.144   7.172  0.8497  0.7093 -0.5508
   70CHL1    H3 7588   0.837   0.078   7.213 -0.5433 -2.1342 -2.1630
   70CHL1    O3 7589   0.718   0.105   7.045 -0.1843  0.2441 -0.1097
   70CHL1   H3' 7590   0.655   0.175   7.022  0.6257  1.6460  1.6770
   70CHL1    C4 7591   0.637   0.137   7.262 -0.7274  0.2872 -0.3118
   70CHL1   H4A 7592   0.560   0.193   7.205  0.4192  0.5747 -1.6275
   70CHL1   H4B 7593   0.608   0.030   7.266  1.3245 -0.3046 -0.6147
   70CHL1    C5 7594   0.658   0.179   7.406  0.4312  0.5550 -0.0791
   70CHL1    C6 7595   0.610   0.097   7.507  0.4249  0.5258  0.3301
   70CHL1    H6 7596   0.562   0.002   7.479  2.2312  0.2348 -2.0738
   70CHL1    C7 7597   0.624   0.126   7.654 -0.3241  0.1999  1.1482
   70CHL1   H7A 7598   0.529   0.102   7.706 -1.9086  1.0013 -1.1948
   70CHL1   H7B 7599   0.699   0.052   7.690 -1.2592 -1.8193 -0.7681
   70CHL1    C8 7600   0.672   0.273   7.675 -0.1447  0.4254 -0.7039
   70CHL1    H8 7601   0.583   0.340   7.664  0.2797  0.9991 -0.6939
   70CHL1   C14 7602   0.732   0.284   7.819  0.2945 -0.2928  0.1865
   70CHL1   H14 7603   0.827   0.225   7.819  1.7505  1.8971 -1.2699
   70CHL1   C15 7604   0.647   0.229   7.940  0.1084  0.1197  0.2064
   70CHL1  H15A 7605   0.539   0.252   7.925  0.3003 -0.3027 -2.0959
   70CHL1  H15B 7606   0.664   0.119   7.941  1.4663  0.2845 -1.2736
   70CHL1   C16 7607   0.695   0.297   8.070  0.2316  0.1922  0.0390
   70CHL1  H16A 7608   0.607   0.342   8.123  0.6977  0.0961  0.9093
   70CHL1  H16B 7609   0.756   0.228   8.131 -0.0365 -1.7326 -1.7410
   70CHL1   C17 7610   0.797   0.400   8.011 -0.0812  0.0387 -0.2581
   70CHL1   H17 7611   0.894   0.346   8.000  0.9873  1.7893  0.0807
   70CHL1   C13 7612   0.768   0.427   7.862 -0.3023  0.6203 -0.4580
   70CHL1   C18 7613   0.641   0.518   7.863  0.5727 -0.4918  0.6075
   70CHL1  H18A 7614   0.668   0.620   7.898 -0.7407  0.6714 -1.5890
   70CHL1  H18B 7615   0.598   0.526   7.761  0.1120  0.0623  0.8420
   70CHL1  H18C 7616   0.557   0.491   7.931 -1.4738  0.7616 -1.3240
   70CHL1   C12 7617   0.875   0.480   7.768 -0.3311 -0.0864  0.4064
   70CHL1  H12A 7618   0.893   0.587   7.791 -1.6249  0.1770  0.2506
   70CHL1  H12B 7619   0.963   0.414   7.789  0.1139 -0.5673 -2.5950
   70CHL1   C11 7620   0.827   0.475   7.618 -0.0684  0.5298  0.1002
   70CHL1  H11A 7621   0.743   0.547   7.612  1.2006  1.9663 -2.6745
   70CHL1  H11B 7622   0.904   0.520   7.551  2.9860 -1.2537  2.1392
   70CHL1    C9 7623   0.776   0.324   7.578  0.8488  0.0597 -0.1873
   70CHL1    H9 7624   0.870   0.265   7.586  1.3205  0.8582  0.2637
   70CHL1   C10 7625   0.724   0.306   7.430 -0.2180 -0.0051  0.1203
   70CHL1   C19 7626   0.625   0.419   7.409 -0.3436 -0.0630 -0.5187
   70CHL1  H19A 7627   0.679   0.516   7.420  0.4212 -0.3920 -1.2643
   70CHL1  H19B 7628   0.577   0.431   7.310  1.7595  2.5466 -1.3327
   70CHL1  H19C 7629   0.543   0.409   7.483  0.2062  1.4833  0.3552
   70CHL1    C1 7630   0.834   0.329   7.322  0.1354 -0.3969 -0.1020
   70CHL1   H1A 7631   0.872   0.433   7.331  0.1372 -0.3953 -0.1268
   70CHL1   H1B 7632   0.910   0.253   7.350  0.7760 -0.1129 -1.0249
   70CHL1    C2 7633   0.805   0.287   7.176 -0.2588 -1.0054  0.3968
   70CHL1   H2A 7634   0.900   0.295   7.118 -1.1570  1.3387 -0.8645
   70CHL1   H2B 7635   0.732   0.351   7.122  1.6872  1.5019  0.5277
   70CHL1   C20 7636   0.833   0.524   8.101  0.3454 -0.0490  0.1822
   70CHL1   H20 7637   0.846   0.605   8.026 -0.8166  0.7871  0.8571
   70CHL1   C21 7638   0.963   0.492   8.173  0.5680  0.2804  0.4255
   70CHL1  H21A 7639   0.959   0.397   8.230 -1.2239 -0.3187 -0.6377
   70CHL1  H21B 7640   0.999   0.575   8.238 -0.7367 -0.1263  1.7207
   70CHL1  H21C 7641   1.041   0.479   8.095  1.0388  0.3184  0.8803
   70CHL1   C22 7642   0.719   0.569   8.199  0.6230  0.0974 -0.2445
   70CHL1  H22A 7643   0.623   0.589   8.148  0.1669  1.0684  0.9586
   70CHL1  H22B 7644   0.724   0.499   8.285  0.3123 -0.3579 -0.5977
   70CHL1   C23 7645   0.743   0.702   8.269 -0.1195 -1.0484  0.3322
   70CHL1  H23A 7646   0.839   0.701   8.324 -0.0225 -0.4901  0.1761
   70CHL1  H23B 7647   0.758   0.784   8.195  0.0626 -1.8748 -0.5708
   70CHL1   C24 7648   0.632   0.751   8.367 -0.0463  0.1249 -0.2845
   70CHL1  H24A 7649   0.551   0.793   8.303 -0.6013 -0.8584 -0.2343
   70CHL1  H24B 7650   0.594   0.665   8.426 -1.3144  1.8631  1.5910
   70CHL1   C25 7651   0.663   0.870   8.461 -0.7128  0.7292  0.7796
   70CHL1   H25 7652   0.724   0.827   8.544 -0.5801 -0.7902 -0.0763
   70CHL1   C26 7653   0.745   0.984   8.381  0.6201  1.0964  0.1346
   70CHL1  H26A 7654   0.769   1.061   8.458 -0.5932  1.2117  0.4149
   70CHL1  H26B 7655   0.842   0.942   8.347  0.6246 -1.0024  2.4841
   70CHL1  H26C 7656   0.697   1.039   8.297  0.2992  0.5297 -0.0572
   70CHL1   C27 7657   0.530   0.914   8.521  0.5024 -0.2768  0.3046
   70CHL1  H27A 7658   0.473   0.823   8.548 -1.5620  1.7609  3.5408
   70CHL1  H27B 7659   0.544   0.977   8.612  1.0292  0.2627 -0.1387
   70CHL1  H27C 7660   0.472   0.976   8.448  0.1179 -1.2086 -0.1932
   71CHL1    C3 7661   5.336   3.573   6.882 -0.2854  0.4974  0.4729
   71CHL1    H3 7662   5.253   3.511   6.841 -1.2160  0.9438  1.6139
   71CHL1    O3 7663   5.401   3.620   6.764 -0.7417  0.6334 -0.1934
   71CHL1   H3' 7664   5.485   3.575   6.754 -0.6020  1.0504 -0.9105
   71CHL1    C4 7665   5.285   3.690   6.968 -0.2903 -0.0608  0.4660
   71CHL1   H4A 7666   5.363   3.769   6.973  0.0790 -0.4860  1.8278
   71CHL1   H4B 7667   5.201   3.736   6.911 -1.4092 -3.0754 -0.5239
   71CHL1    C5 7668   5.232   3.639   7.103 -0.0682 -0.0176  0.2621
   71CHL1    C6 7669   5.115   3.680   7.152  0.0306  0.0896 -0.8414
   71CHL1    H6 7670   5.062   3.757   7.093  0.1501 -0.5676 -1.8265
   71CHL1    C7 7671   5.070   3.652   7.294  0.5667  0.7134  0.3433
   71CHL1   H7A 7672   5.036   3.749   7.337 -1.7929  1.6343 -3.1601
   71CHL1   H7B 7673   4.977   3.592   7.289  1.3792 -1.0500  3.4794
   71CHL1    C8 7674   5.180   3.587   7.380  0.0748  0.0470  0.6041
   71CHL1    H8 7675   5.254   3.659   7.421  2.0644 -1.2034 -0.5977
   71CHL1   C14 7676   5.117   3.507   7.507  0.4416  0.1688  0.4300
   71CHL1   H14 7677   5.060   3.427   7.454  0.5664  0.3067  0.0796
   71CHL1   C15 7678   5.023   3.584   7.590  0.8394  0.3726  0.1624
   71CHL1  H15A 7679   5.078   3.677   7.615 -0.6475  0.9239  1.5375
   71CHL1  H15B 7680   4.929   3.602   7.533 -0.2602 -1.9183  1.1233
   71CHL1   C16 7681   4.991   3.490   7.710 -0.3615  0.3529  0.0918
   71CHL1  H16A 7682   5.020   3.547   7.801  1.5268  0.7580 -0.7215
   71CHL1  H16B 7683   4.886   3.457   7.719 -0.6646  1.1480 -0.3657
   71CHL1   C17 7684   5.101   3.377   7.698  0.2884  0.2247 -0.1385
   71CHL1   H17 7685   5.053   3.291   7.646  0.6004 -0.2001  0.2794
   71CHL1   C13 7686   5.213   3.426   7.601 -0.3965  0.0929  0.3377
   71CHL1   C18 7687   5.307   3.537   7.668  0.0459 -0.0710 -0.5299
   71CHL1  H18A 7688   5.242   3.598   7.735 -0.4870 -0.7633 -0.4032
   71CHL1  H18B 7689   5.384   3.489   7.732  0.1892  2.2890  1.2050
   71CHL1  H18C 7690   5.363   3.604   7.600 -2.0559  3.2687  0.7416
   71CHL1   C12 7691   5.285   3.324   7.520  0.3651  0.5114 -0.5329
   71CHL1  H12A 7692   5.367   3.271   7.573 -0.5270 -2.4910 -1.9992
   71CHL1  H12B 7693   5.214   3.248   7.482  1.4844 -0.5283 -0.6029
   71CHL1   C11 7694   5.352   3.391   7.399  0.4961 -0.9134  0.4302
   71CHL1  H11A 7695   5.428   3.456   7.447  0.4260 -0.9071  0.5330
   71CHL1  H11B 7696   5.399   3.311   7.337  0.2969 -1.7629  1.3530
   71CHL1    C9 7697   5.257   3.476   7.308  0.0362 -0.0511  0.0107
   71CHL1    H9 7698   5.181   3.407   7.266 -0.1828  0.3419 -0.2416
   71CHL1   C10 7699   5.320   3.540   7.181 -0.3357 -0.0117 -0.2282
   71CHL1   C19 7700   5.446   3.613   7.228 -0.9421  0.2725 -0.1136
   71CHL1  H19A 7701   5.526   3.536   7.232  0.2680  1.0956 -4.0670
   71CHL1  H19B 7702   5.481   3.679   7.145  0.9324  1.5417  1.5857
   71CHL1  H19C 7703   5.445   3.668   7.324 -1.4306 -1.3765  0.8488
   71CHL1    C1 7704   5.362   3.429   7.083  0.9857  0.5058 -0.1059
   71CHL1   H1A 7705   5.420   3.348   7.132 -0.5699  0.6364  2.0374
   71CHL1   H1B 7706   5.260   3.394   7.059  0.0633  1.3224  2.3347
   71CHL1    C2 7707   5.430   3.485   6.962  0.6314 -0.0491  0.6111
   71CHL1   H2A 7708   5.463   3.403   6.895 -0.9821 -0.1736 -0.0801
   71CHL1   H2B 7709   5.522   3.538   6.995  1.4845 -0.9996 -0.1780
   71CHL1   C20 7710   5.150   3.334   7.837 -0.5235  0.3586  0.2684
   71CHL1   H20 7711   5.209   3.410   7.894  1.7776 -0.5718 -0.7320
   71CHL1   C21 7712   5.255   3.219   7.828 -0.4388 -0.3821  0.2328
   71CHL1  H21A 7713   5.349   3.240   7.773 -1.8570 -1.9312 -3.0332
   71CHL1  H21B 7714   5.201   3.134   7.781  0.8632 -0.3502 -1.3863
   71CHL1  H21C 7715   5.290   3.188   7.929 -1.5398 -1.2279  0.3776
   71CHL1   C22 7716   5.035   3.298   7.922  0.1837  0.2177 -0.5607
   71CHL1  H22A 7717   4.982   3.391   7.955 -1.0092 -0.8664  0.7007
   71CHL1  H22B 7718   4.958   3.241   7.867  1.3869 -2.0833  0.0358
   71CHL1   C23 7719   5.066   3.217   8.049 -0.0609 -0.2265  0.2270
   71CHL1  H23A 7720   4.963   3.208   8.089 -0.2300  0.3230 -0.0723
   71CHL1  H23B 7721   5.110   3.118   8.022 -2.1371 -0.6616 -1.8575
   71CHL1   C24 7722   5.157   3.284   8.154  0.4547  0.1670  0.3868
   71CHL1  H24A 7723   5.161   3.218   8.243 -1.5431 -0.2106  0.2507
   71CHL1  H24B 7724   5.258   3.305   8.114  0.9559 -1.1439  0.9282
   71CHL1   C25 7725   5.098   3.414   8.215 -0.3431  0.3083  0.4115
   71CHL1   H25 7726   5.058   3.476   8.132 -0.6091 -1.4924 -0.8852
   71CHL1   C26 7727   4.980   3.387   8.301 -0.2873  0.5870  0.1975
   71CHL1  H26A 7728   4.941   3.477   8.354  2.9281  1.5355  1.1960
   71CHL1  H26B 7729   4.897   3.344   8.241  1.3816  0.7817 -2.4023
   71CHL1  H26C 7730   5.017   3.314   8.376  3.3573  0.5072 -1.4211
   71CHL1   C27 7731   5.205   3.490   8.286  0.1316  0.6504 -0.4274
   71CHL1  H27A 7732   5.263   3.430   8.360  0.4908  0.3675 -0.9328
   71CHL1  H27B 7733   5.275   3.537   8.214 -0.8937  2.0898 -0.5213
   71CHL1  H27C 7734   5.165   3.566   8.356  1.3021  0.2325  0.7394
   72CHL1    C3 7735   6.285   6.659   7.440 -0.1869  0.2729 -0.3819
   72CHL1    H3 7736   6.372   6.665   7.510 -1.4160 -1.6345  1.4262
   72CHL1    O3 7737   6.318   6.625   7.308 -0.7708 -0.1565  0.0696
   72CHL1   H3' 7738   6.378   6.692   7.273 -0.5410 -0.4607 -0.1261
   72CHL1    C4 7739   6.193   6.553   7.502 -0.1702  0.3757  0.2199
   72CHL1   H4A 7740   6.100   6.538   7.443 -0.7941 -0.2817  1.3161
   72CHL1   H4B 7741   6.252   6.459   7.497  1.0165  1.1327 -0.1685
   72CHL1    C5 7742   6.166   6.601   7.651 -0.7062 -0.1979  0.2035
   72CHL1    C6 7743   6.202   6.517   7.749 -0.0744 -0.2435  0.4285
   72CHL1    H6 7744   6.255   6.423   7.728  0.0442 -0.0195 -0.3262
   72CHL1    C7 7745   6.175   6.550   7.891  0.0686  0.6564 -0.2008
   72CHL1   H7A 7746   6.123   6.467   7.945 -2.6455  1.4510 -1.4112
   72CHL1   H7B 7747   6.269   6.586   7.938  0.7171  0.6566 -1.4610
   72CHL1    C8 7748   6.075   6.666   7.923  0.4157 -0.2213 -0.2471
   72CHL1    H8 7749   5.967   6.646   7.905 -0.5779  2.3425  2.0634
   72CHL1   C14 7750   6.074   6.718   8.065  0.1203 -0.1776  0.8072
   72CHL1   H14 7751   6.173   6.764   8.086  0.5788 -1.7225  2.2722
   72CHL1   C15 7752   6.048   6.624   8.178 -0.4177 -0.4132  0.7924
   72CHL1  H15A 7753   5.954   6.569   8.158 -1.1858  0.7535  1.1117
   72CHL1  H15B 7754   6.126   6.546   8.196 -1.0645 -0.6260  2.9885
   72CHL1   C16 7755   6.025   6.710   8.295  0.0868  0.1502  0.4420
   72CHL1  H16A 7756   5.947   6.665   8.361 -2.1345  1.2990 -1.2256
   72CHL1  H16B 7757   6.116   6.725   8.356 -0.6542 -1.8539  2.1546
   72CHL1   C17 7758   5.984   6.852   8.238  0.5701 -0.4881 -0.0534
   72CHL1   H17 7759   6.077   6.912   8.247  0.7215 -0.9594  2.1146
   72CHL1   C13 7760   5.966   6.828   8.089  0.7397  0.2983  0.1310
   72CHL1   C18 7761   5.816   6.764   8.065 -0.5702 -0.2979  0.0898
   72CHL1  H18A 7762   5.792   6.686   8.140 -0.9629 -1.2960 -1.0582
   72CHL1  H18B 7763   5.742   6.847   8.073 -0.0592  0.1873 -0.1142
   72CHL1  H18C 7764   5.797   6.721   7.965 -1.1015  2.2985 -1.0190
   72CHL1   C12 7765   6.000   6.943   7.999  0.1529  0.1609  0.3328
   72CHL1  H12A 7766   5.918   7.016   8.013  0.3231  0.4915 -0.3445
   72CHL1  H12B 7767   6.100   6.982   8.027  1.2244 -0.4017 -2.3413
   72CHL1   C11 7768   6.003   6.901   7.853  0.8141 -0.1683 -0.3962
   72CHL1  H11A 7769   5.905   6.868   7.815  1.0129 -1.4340  0.1421
   72CHL1  H11B 7770   6.042   6.987   7.794  1.5188 -0.1333  0.1006
   72CHL1    C9 7771   6.090   6.775   7.824  0.1583 -0.1880 -0.6976
   72CHL1    H9 7772   6.187   6.822   7.850 -0.7747  1.0497  0.7467
   72CHL1   C10 7773   6.089   6.734   7.672  0.1234 -0.3307 -1.2759
   72CHL1   C19 7774   5.945   6.718   7.618  0.4269  0.0762 -0.4716
   72CHL1  H19A 7775   5.879   6.662   7.688  0.9909  0.5538  0.4695
   72CHL1  H19B 7776   5.892   6.814   7.599 -1.4915 -1.1584 -1.6930
   72CHL1  H19C 7777   5.940   6.666   7.520 -0.4458 -1.0819  0.1590
   72CHL1    C1 7778   6.170   6.843   7.589  0.9879 -0.1499  1.2713
   72CHL1   H1A 7779   6.118   6.940   7.577 -0.2699 -0.9986 -0.7023
   72CHL1   H1B 7780   6.268   6.855   7.640  0.2534  0.2380  2.6344
   72CHL1    C2 7781   6.212   6.795   7.445  0.5463 -0.9623 -0.7857
   72CHL1   H2A 7782   6.272   6.882   7.411 -1.9634  1.6947  1.0052
   72CHL1   H2B 7783   6.121   6.787   7.382  0.0621 -2.5025  0.0359
   72CHL1   C20 7784   5.885   6.941   8.326 -0.1320 -1.0305 -0.4484
   72CHL1   H20 7785   5.791   6.959   8.270 -0.5545  0.2679  0.6294
   72CHL1   C21 7786   5.955   7.082   8.342 -0.6080  0.1948 -0.8713
   72CHL1  H21A 7787   6.045   7.076   8.408 -0.8363 -1.6301 -0.6912
   72CHL1  H21B 7788   5.881   7.146   8.394 -0.0198 -1.3945  2.1438
   72CHL1  H21C 7789   5.976   7.116   8.238 -2.0376 -0.5728 -1.4317
   72CHL1   C22 7790   5.833   6.880   8.459  0.0861  0.4999 -0.1374
   72CHL1  H22A 7791   5.921   6.851   8.520 -1.1460 -1.9635  0.5944
   72CHL1  H22B 7792   5.796   6.962   8.524 -2.4203  2.3217 -3.5499
   72CHL1   C23 7793   5.713   6.783   8.448  0.2579  0.1358 -0.0713
   72CHL1  H23A 7794   5.635   6.828   8.383 -0.7710 -1.1743  0.2332
   72CHL1  H23B 7795   5.757   6.696   8.396  0.3375  0.1587 -0.0416
   72CHL1   C24 7796   5.661   6.740   8.577 -0.3688  0.2866 -0.6834
   72CHL1  H24A 7797   5.730   6.666   8.623 -1.4310 -1.2539 -1.4695
   72CHL1  H24B 7798   5.642   6.827   8.642  0.8480  0.3208 -0.3506
   72CHL1   C25 7799   5.522   6.656   8.574  0.3980 -0.4038  0.8056
   72CHL1   H25 7800   5.534   6.571   8.504  0.2044 -0.6961  1.1252
   72CHL1   C26 7801   5.492   6.598   8.713  0.4829 -0.2954 -0.3278
   72CHL1  H26A 7802   5.408   6.525   8.707 -1.0117  1.1783  1.2263
   72CHL1  H26B 7803   5.578   6.539   8.752 -0.5282 -1.1590  0.6885
   72CHL1  H26C 7804   5.470   6.666   8.799  0.3444 -0.7046 -0.0355
   72CHL1   C27 7805   5.396   6.731   8.516 -0.6780  0.2980 -0.1206
   72CHL1  H27A 7806   5.315   6.656   8.522 -0.2006 -0.0945  2.3433
   72CHL1  H27B 7807   5.364   6.819   8.576 -1.0430  1.2788 -1.6879
   72CHL1  H27C 7808   5.406   6.757   8.408  2.4074  2.6177  0.5809
   73CHL1    C3 7809   0.412   5.923   7.284 -0.0186 -0.4636  0.9951
   73CHL1    H3 7810   0.439   5.816   7.296  2.8209 -0.2505 -1.9179
   73CHL1    O3 7811   0.426   5.967   7.146 -0.5729  0.2217 -0.4173
   73CHL1   H3' 7812   0.426   6.062   7.158 -2.9350 -0.0135  2.5640
   73CHL1    C4 7813   0.264   5.935   7.326 -0.0246  0.1581  0.0890
   73CHL1   H4A 7814   0.223   6.029   7.284 -0.8579  0.7707  2.1437
   73CHL1   H4B 7815   0.209   5.859   7.268  0.7375  0.1616 -0.6627
   73CHL1    C5 7816   0.237   5.914   7.474  0.0889 -0.1129 -0.0306
   73CHL1    C6 7817   0.136   5.832   7.518 -0.1364  0.2011  0.2547
   73CHL1    H6 7818   0.068   5.783   7.447 -1.1052  0.0892  1.2201
   73CHL1    C7 7819   0.113   5.810   7.672 -0.8374  0.3331 -0.3284
   73CHL1   H7A 7820   0.005   5.794   7.693 -0.9993 -1.2281 -2.0386
   73CHL1   H7B 7821   0.156   5.709   7.690  0.0095  0.7052 -0.2420
   73CHL1    C8 7822   0.197   5.903   7.763  0.0653 -0.1079  0.3829
   73CHL1    H8 7823   0.143   6.000   7.775  4.5635  2.4165  3.0010
   73CHL1   C14 7824   0.197   5.842   7.903 -0.2919 -0.5637  0.2049
   73CHL1   H14 7825   0.244   5.742   7.892  1.3435  0.1777  0.1782
   73CHL1   C15 7826   0.064   5.809   7.967  0.0809  0.5730 -0.4862
   73CHL1  H15A 7827  -0.023   5.876   7.950 -1.5847 -0.3015  3.3743
   73CHL1  H15B 7828   0.031   5.712   7.924 -0.2310  1.0895 -1.4485
   73CHL1   C16 7829   0.088   5.800   8.112  0.6217  0.1342 -0.4289
   73CHL1  H16A 7830   0.028   5.886   8.151  1.1007 -0.0269  0.7082
   73CHL1  H16B 7831   0.065   5.705   8.164 -3.4544  2.6364  3.1239
   73CHL1   C17 7832   0.237   5.846   8.138  0.2089 -0.7904 -0.1400
   73CHL1   H17 7833   0.313   5.765   8.134  0.4070 -0.9073  3.4554
   73CHL1   C13 7834   0.267   5.931   8.009 -0.0995  0.4642 -0.5997
   73CHL1   C18 7835   0.210   6.074   8.030  0.1814  0.0020  0.2062
   73CHL1  H18A 7836   0.202   6.131   7.935 -1.4581 -0.4212  0.0694
   73CHL1  H18B 7837   0.104   6.072   8.063  1.3541  0.5003  4.4814
   73CHL1  H18C 7838   0.274   6.139   8.093  0.4979  0.4312 -0.5398
   73CHL1   C12 7839   0.407   5.935   7.961 -0.0732 -0.5624  0.1233
   73CHL1  H12A 7840   0.455   6.009   8.029 -2.4248  1.3087 -0.1360
   73CHL1  H12B 7841   0.451   5.833   7.953 -0.2119 -0.5472 -1.1339
   73CHL1   C11 7842   0.423   5.991   7.815  0.1343 -0.9351 -0.2846
   73CHL1  H11A 7843   0.379   6.092   7.829 -1.8593 -1.7939 -0.0464
   73CHL1  H11B 7844   0.533   6.000   7.804  0.3521  0.1827  2.2508
   73CHL1    C9 7845   0.335   5.916   7.711  0.3645 -0.7550  0.0496
   73CHL1    H9 7846   0.379   5.814   7.715  0.7820 -0.5569  3.0985
   73CHL1   C10 7847   0.339   5.979   7.570  0.3102  0.2577 -0.1486
   73CHL1   C19 7848   0.289   6.124   7.578 -0.0250 -0.2875  0.2628
   73CHL1  H19A 7849   0.191   6.126   7.630  0.5003 -0.2351  1.2673
   73CHL1  H19B 7850   0.346   6.197   7.640  1.2737 -0.7223 -0.3810
   73CHL1  H19C 7851   0.296   6.162   7.473  0.0646  0.4954  0.5432
   73CHL1    C1 7852   0.491   5.975   7.527 -0.0526  0.2027  1.1242
   73CHL1   H1A 7853   0.553   6.042   7.591  0.5479 -1.7950  2.7369
   73CHL1   H1B 7854   0.524   5.870   7.544  0.6984  0.3354  0.5516
   73CHL1    C2 7855   0.500   6.009   7.374 -0.6370 -0.3673  0.6743
   73CHL1   H2A 7856   0.606   5.993   7.347 -0.5590 -0.1713  0.8690
   73CHL1   H2B 7857   0.466   6.115   7.369  0.9689  0.1900  1.0496
   73CHL1   C20 7858   0.257   5.904   8.282 -0.3471  0.5669  0.3312
   73CHL1   H20 7859   0.221   6.009   8.282 -0.2334  0.6074  0.8091
   73CHL1   C21 7860   0.416   5.905   8.301 -0.3902 -0.2239 -0.1833
   73CHL1  H21A 7861   0.434   5.942   8.404 -1.7810 -0.4095  0.1572
   73CHL1  H21B 7862   0.470   5.976   8.236  0.7331 -0.2682  0.6665
   73CHL1  H21C 7863   0.455   5.801   8.304  0.7797  0.2144  1.5216
   73CHL1   C22 7864   0.182   5.824   8.394 -0.7663 -0.0329  0.8205
   73CHL1  H22A 7865   0.073   5.833   8.369 -0.8090  0.5640  1.2086
   73CHL1  H22B 7866   0.221   5.720   8.396  0.3527  0.3954  2.2581
   73CHL1   C23 7867   0.203   5.864   8.542  0.2321 -0.2917 -0.2653
   73CHL1  H23A 7868   0.301   5.820   8.571 -0.0885 -1.6861 -1.1478
   73CHL1  H23B 7869   0.211   5.974   8.553  1.9522 -0.6385  3.4803
   73CHL1   C24 7870   0.087   5.823   8.631 -0.0385  0.5490 -0.1656
   73CHL1  H24A 7871   0.102   5.880   8.725 -1.5763  1.1861 -0.2769
   73CHL1  H24B 7872  -0.012   5.855   8.591 -0.7285 -1.5889 -0.3037
   73CHL1   C25 7873   0.076   5.672   8.656 -0.7300 -0.3801 -0.3639
   73CHL1   H25 7874   0.119   5.615   8.571  0.5843  1.0067 -0.6715
   73CHL1   C26 7875   0.166   5.634   8.779  0.0944 -0.5403  0.4322
   73CHL1  H26A 7876   0.277   5.638   8.782  0.1850 -2.4588  3.0620
   73CHL1  H26B 7877   0.139   5.698   8.865  0.0901  0.4508 -0.2930
   73CHL1  H26C 7878   0.137   5.533   8.815 -0.3242 -0.2028  1.0362
   73CHL1   C27 7879  -0.070   5.638   8.674 -0.4854 -0.3153  0.6668
   73CHL1  H27A 7880  -0.137   5.671   8.592 -0.8493 -0.5710  0.8583
   73CHL1  H27B 7881  -0.095   5.530   8.670 -3.2979  0.3005 -0.6406
   73CHL1  H27C 7882  -0.124   5.662   8.768  0.2783  0.6034  0.8878
   74CHL1    C3 7883   5.098   1.835   7.137 -0.1820 -0.2417  0.0118
   74CHL1    H3 7884   5.047   1.933   7.153  0.6255 -0.1646  2.4730
   74CHL1    O3 7885   5.089   1.798   6.999 -0.0156 -0.3904 -0.2475
   74CHL1   H3' 7886   5.163   1.738   6.987  0.9990  0.7208  0.1823
   74CHL1    C4 7887   5.243   1.841   7.180 -0.4194 -0.0337 -0.4461
   74CHL1   H4A 7888   5.291   1.744   7.154  0.3756 -0.1823  1.4195
   74CHL1   H4B 7889   5.299   1.916   7.120  1.2255  0.1219  1.2266
   74CHL1    C5 7890   5.273   1.872   7.328 -0.0601 -0.8834  0.7493
   74CHL1    C6 7891   5.347   1.972   7.379 -0.3274 -0.5597  0.4231
   74CHL1    H6 7892   5.400   2.038   7.308 -1.3520 -0.6730 -0.4741
   74CHL1    C7 7893   5.373   1.993   7.524  0.2155  0.3088 -0.0631
   74CHL1   H7A 7894   5.476   2.028   7.545  0.2412 -0.8609  2.0375
   74CHL1   H7B 7895   5.310   2.078   7.558 -0.4391  0.5537 -1.7925
   74CHL1    C8 7896   5.333   1.870   7.617 -0.0999  0.0748  0.3291
   74CHL1    H8 7897   5.410   1.792   7.597 -0.1042  0.2570 -0.4234
   74CHL1   C14 7898   5.321   1.920   7.759  0.7762  0.5244  0.8788
   74CHL1   H14 7899   5.248   2.004   7.758  0.6620  0.4366  1.5937
   74CHL1   C15 7900   5.443   1.984   7.830  0.2781  0.1509  0.7060
   74CHL1  H15A 7901   5.537   1.925   7.818 -0.5550 -1.2142  0.6131
   74CHL1  H15B 7902   5.461   2.087   7.793 -1.3949  0.5541  0.9232
   74CHL1   C16 7903   5.400   1.986   7.979  0.1979  0.4226  0.2455
   74CHL1  H16A 7904   5.475   1.930   8.038  0.7271 -0.8026 -1.5290
   74CHL1  H16B 7905   5.383   2.093   8.004  2.3280  1.3366 -1.8575
   74CHL1   C17 7906   5.261   1.914   7.985 -0.1921  0.1623 -0.1024
   74CHL1   H17 7907   5.173   1.979   7.970 -1.5565 -0.4977  3.8084
   74CHL1   C13 7908   5.260   1.823   7.861  0.5865 -0.8520  0.3787
   74CHL1   C18 7909   5.356   1.699   7.883 -0.2014 -0.3579  0.1928
   74CHL1  H18A 7910   5.457   1.735   7.912 -0.0371 -0.2398 -0.5132
   74CHL1  H18B 7911   5.321   1.631   7.964  2.7128 -1.8395  0.3244
   74CHL1  H18C 7912   5.367   1.646   7.787 -0.6232 -0.1572  0.0313
   74CHL1   C12 7913   5.123   1.782   7.810 -0.2631 -0.2575 -0.1825
   74CHL1  H12A 7914   5.077   1.706   7.877  0.5067 -0.1528  0.4745
   74CHL1  H12B 7915   5.067   1.878   7.821  0.6726  0.3018 -0.2451
   74CHL1   C11 7916   5.134   1.726   7.668 -0.1536  0.9532 -0.1854
   74CHL1  H11A 7917   5.186   1.628   7.680  0.5632  1.3238 -0.2047
   74CHL1  H11B 7918   5.029   1.704   7.639 -1.1879  3.0358  1.7500
   74CHL1    C9 7919   5.195   1.821   7.567 -0.8394  0.2299 -0.4544
   74CHL1    H9 7920   5.138   1.916   7.579  0.4650  1.0110 -0.2600
   74CHL1   C10 7921   5.197   1.774   7.427 -0.3715  0.1792  0.7045
   74CHL1   C19 7922   5.269   1.634   7.424 -0.4722 -0.0293 -0.5569
   74CHL1  H19A 7923   5.367   1.632   7.476  0.1503  2.6337 -1.4900
   74CHL1  H19B 7924   5.207   1.554   7.470 -0.6392 -0.6103 -1.7540
   74CHL1  H19C 7925   5.269   1.585   7.324 -0.1691 -1.6488  0.2065
   74CHL1    C1 7926   5.045   1.762   7.377 -0.7519  0.0607 -0.0393
   74CHL1   H1A 7927   4.996   1.682   7.436  1.2258  0.6157  2.5321
   74CHL1   H1B 7928   4.987   1.853   7.404  1.4764  1.5455  0.0159
   74CHL1    C2 7929   5.029   1.733   7.226 -0.4932 -0.1617 -0.0823
   74CHL1   H2A 7930   4.923   1.719   7.195 -0.2225  0.3337 -1.3185
   74CHL1   H2B 7931   5.073   1.636   7.194 -0.3043 -0.3747  0.7967
   74CHL1   C20 7932   5.237   1.846   8.127  0.5799 -0.3031  0.3546
   74CHL1   H20 7933   5.327   1.786   8.155 -0.3616 -1.8702  0.1218
   74CHL1   C21 7934   5.124   1.737   8.125  0.2484 -0.1797  0.3392
   74CHL1  H21A 7935   5.027   1.775   8.084 -1.5585 -0.7515  3.7126
   74CHL1  H21B 7936   5.106   1.711   8.231 -0.4597 -0.8983  0.0536
   74CHL1  H21C 7937   5.159   1.645   8.074 -1.0320 -0.9159  0.7433
   74CHL1   C22 7938   5.222   1.961   8.235 -0.0810 -0.2059 -0.3277
   74CHL1  H22A 7939   5.308   2.030   8.225  2.2577 -3.1545 -2.1981
   74CHL1  H22B 7940   5.128   2.019   8.221 -0.4524 -0.9605 -1.0289
   74CHL1   C23 7941   5.228   1.905   8.384 -0.1913  0.7247 -0.1238
   74CHL1  H23A 7942   5.144   1.836   8.406  0.4028  0.0975  0.2322
   74CHL1  H23B 7943   5.326   1.852   8.386 -1.0357 -0.9267 -0.6296
   74CHL1   C24 7944   5.204   2.019   8.483  0.8694  0.0230  0.3780
   74CHL1  H24A 7945   5.256   2.110   8.447  0.7769  0.4479  1.2893
   74CHL1  H24B 7946   5.101   2.059   8.487  0.6949 -0.4741  2.9830
   74CHL1   C25 7947   5.243   1.992   8.631  1.0583  0.1351 -0.3397
   74CHL1   H25 7948   5.205   2.077   8.692  0.6644 -0.5038  0.3259
   74CHL1   C26 7949   5.155   1.872   8.680  0.3541  0.3139  0.4547
   74CHL1  H26A 7950   5.187   1.840   8.781  0.1598  0.7581  0.6588
   74CHL1  H26B 7951   5.047   1.896   8.684  0.4391  0.6343  0.9687
   74CHL1  H26C 7952   5.162   1.781   8.616 -0.9979 -0.4407  1.3284
   74CHL1   C27 7953   5.399   1.986   8.649  0.6372 -0.2560 -0.3495
   74CHL1  H27A 7954   5.424   1.982   8.757 -0.4640 -0.8534 -0.0960
   74CHL1  H27B 7955   5.449   1.903   8.595  1.4051  0.4349 -0.7292
   74CHL1  H27C 7956   5.439   2.084   8.613 -0.3559  0.8470  1.4265
   75CHL1    C3 7957   0.056   2.834   6.953 -0.2195 -0.2841  0.1728
   75CHL1    H3 7958  -0.031   2.881   7.003 -0.8728 -1.7826  0.4952
   75CHL1    O3 7959   0.029   2.838   6.810  0.3353 -0.2461  0.0850
   75CHL1   H3' 7960   0.113   2.811   6.773  0.3934  0.9781 -0.7424
   75CHL1    C4 7961   0.188   2.920   6.986  0.4490 -0.5343  0.1943
   75CHL1   H4A 7962   0.260   2.859   6.928  1.8618  1.4372 -0.2018
   75CHL1   H4B 7963   0.168   3.017   6.935 -0.8186 -0.5497  0.6175
   75CHL1    C5 7964   0.207   2.927   7.134 -0.0236  0.3248  1.7719
   75CHL1    C6 7965   0.216   3.047   7.189 -0.1233  0.0599 -0.1445
   75CHL1    H6 7966   0.216   3.139   7.129 -0.1490  0.7977  0.9605
   75CHL1    C7 7967   0.242   3.063   7.337  0.1229 -0.3180 -0.8528
   75CHL1   H7A 7968   0.324   3.135   7.357 -1.9319  1.9288  0.0188
   75CHL1   H7B 7969   0.154   3.113   7.383  1.4432  0.2019  1.2528
   75CHL1    C8 7970   0.273   2.932   7.410  0.0604  0.4800 -0.5289
   75CHL1    H8 7971   0.381   2.916   7.391 -0.0137  0.4327 -0.9094
   75CHL1   C14 7972   0.257   2.953   7.563  0.3740  0.3724  0.5588
   75CHL1   H14 7973   0.148   2.949   7.583  0.2772 -1.9699 -0.0843
   75CHL1   C15 7974   0.323   3.072   7.630  0.3639  0.8519 -0.4128
   75CHL1  H15A 7975   0.431   3.084   7.607  1.3105  0.7522  3.2618
   75CHL1  H15B 7976   0.268   3.163   7.600 -1.0850  0.2851  0.4461
   75CHL1   C16 7977   0.328   3.032   7.781 -0.4536 -0.1162  0.0815
   75CHL1  H16A 7978   0.431   3.058   7.813 -0.3978 -1.4293  1.0306
   75CHL1  H16B 7979   0.266   3.095   7.848  1.5192  0.1037  1.7960
   75CHL1   C17 7980   0.280   2.885   7.795  0.3017  0.1583  0.4430
   75CHL1   H17 7981   0.171   2.884   7.815  0.4441 -1.1069  1.2276
   75CHL1   C13 7982   0.299   2.830   7.650 -0.2138 -0.0772 -0.0659
   75CHL1   C18 7983   0.445   2.802   7.625 -0.9543  0.3114  0.0296
   75CHL1  H18A 7984   0.468   2.763   7.523  0.6525  0.0706  0.4532
   75CHL1  H18B 7985   0.498   2.897   7.647 -0.9100  0.1224  0.7444
   75CHL1  H18C 7986   0.481   2.720   7.691  1.4212 -0.5680 -2.1754
   75CHL1   C12 7987   0.211   2.716   7.604  0.9592  0.0336  0.3590
   75CHL1  H12A 7988   0.230   2.618   7.651 -1.5003 -0.8326 -0.2905
   75CHL1  H12B 7989   0.109   2.747   7.634  0.6084 -0.1007 -0.6485
   75CHL1   C11 7990   0.225   2.683   7.452 -0.2339  0.8085  0.2953
   75CHL1  H11A 7991   0.324   2.635   7.433  0.5309  2.1485  0.7897
   75CHL1  H11B 7992   0.147   2.611   7.421  2.1440 -1.6085 -0.5043
   75CHL1    C9 7993   0.202   2.809   7.358  0.1958 -0.4078 -0.6238
   75CHL1    H9 7994   0.096   2.841   7.370  0.3442 -0.7805  2.5147
   75CHL1   C10 7995   0.214   2.786   7.203 -0.1778 -0.0782 -0.9244
   75CHL1   C19 7996   0.355   2.722   7.177  0.1070 -0.2085  0.3772
   75CHL1  H19A 7997   0.370   2.617   7.209  4.4738  0.9134  2.7938
   75CHL1  H19B 7998   0.367   2.731   7.067 -2.5728  0.1357  0.0491
   75CHL1  H19C 7999   0.432   2.791   7.218  0.0358 -0.4831  0.9898
   75CHL1    C1 8000   0.097   2.691   7.159 -0.1908 -0.3207 -0.4686
   75CHL1   H1A 8001   0.106   2.589   7.202  1.4725 -0.0247 -0.0498
   75CHL1   H1B 8002   0.009   2.745   7.201  1.5808  2.0263  0.5203
   75CHL1    C2 8003   0.079   2.690   7.005  0.2738 -0.0227 -0.5258
   75CHL1   H2A 8004   0.002   2.616   6.975 -0.2255  0.3190 -0.1115
   75CHL1   H2B 8005   0.170   2.653   6.954 -0.2324  0.9302 -2.2168
   75CHL1   C20 8006   0.360   2.822   7.909 -0.1385 -0.2730  0.5917
   75CHL1   H20 8007   0.468   2.826   7.882 -0.8454  1.4482 -2.4597
   75CHL1   C21 8008   0.330   2.669   7.917  0.1090  0.2374 -0.1352
   75CHL1  H21A 8009   0.367   2.609   7.831  0.2331 -1.0692  0.7954
   75CHL1  H21B 8010   0.221   2.647   7.910  0.4158 -0.8744 -2.1152
   75CHL1  H21C 8011   0.365   2.627   8.014 -2.1242 -0.6416  0.3531
   75CHL1   C22 8012   0.334   2.886   8.046 -0.2660  0.0540  0.2483
   75CHL1  H22A 8013   0.324   2.996   8.038 -0.4641 -0.0647 -1.5443
   75CHL1  H22B 8014   0.233   2.848   8.074  0.2342  0.1795  2.3486
   75CHL1   C23 8015   0.434   2.843   8.157  0.2740 -0.1589 -0.0392
   75CHL1  H23A 8016   0.455   2.734   8.160 -1.1239 -0.5831 -2.6074
   75CHL1  H23B 8017   0.532   2.888   8.128 -1.2431  2.3179 -1.7455
   75CHL1   C24 8018   0.394   2.895   8.300 -0.8114  0.9035 -0.0463
   75CHL1  H24A 8019   0.404   3.005   8.298  0.2243  0.8192 -1.3034
   75CHL1  H24B 8020   0.297   2.842   8.313  0.1179 -1.7684 -2.6908
   75CHL1   C25 8021   0.489   2.837   8.416 -0.1060 -0.0471  1.2684
   75CHL1   H25 8022   0.515   2.732   8.389  0.8685  1.0682 -2.9936
   75CHL1   C26 8023   0.619   2.918   8.425 -0.3724  0.7371 -0.2487
   75CHL1  H26A 8024   0.597   3.027   8.420 -2.5176  0.4404  1.3935
   75CHL1  H26B 8025   0.689   2.898   8.509 -0.8773 -0.1177 -0.0231
   75CHL1  H26C 8026   0.672   2.894   8.330 -0.6856  3.4053 -1.1965
   75CHL1   C27 8027   0.415   2.862   8.549 -0.2589 -0.0726 -0.2389
   75CHL1  H27A 8028   0.486   2.850   8.634  2.7218  3.3965 -1.9849
   75CHL1  H27B 8029   0.396   2.971   8.561  1.7004  0.2257  0.5224
   75CHL1  H27C 8030   0.329   2.792   8.554  0.7029 -1.3983 -1.1912
   76CHL1    C3 8031   3.852   4.292   7.476 -0.1128  0.8765  0.6250
   76CHL1    H3 8032   3.856   4.183   7.502 -2.5875  0.7041  0.4789
   76CHL1    O3 8033   3.864   4.296   7.336  0.1118  0.2901  0.2295
   76CHL1   H3' 8034   3.955   4.267   7.321 -0.4644 -0.7730 -1.5224
   76CHL1    C4 8035   3.716   4.344   7.516  0.5421  0.3505 -0.7217
   76CHL1   H4A 8036   3.690   4.438   7.464 -0.5563 -0.0075 -0.8540
   76CHL1   H4B 8037   3.639   4.272   7.481  0.8242 -0.5502  0.4416
   76CHL1    C5 8038   3.696   4.355   7.669 -0.2738 -0.1756  0.0887
   76CHL1    C6 8039   3.587   4.300   7.735 -0.3711  0.2633  0.0594
   76CHL1    H6 8040   3.511   4.242   7.682  0.0461  0.3538 -0.6538
   76CHL1    C7 8041   3.551   4.327   7.879  0.0012  0.4927 -0.1677
   76CHL1   H7A 8042   3.447   4.364   7.889 -0.3657 -0.5445 -0.0170
   76CHL1   H7B 8043   3.563   4.239   7.946 -2.0078 -0.0483 -0.4506
   76CHL1    C8 8044   3.637   4.441   7.940 -0.3004 -0.6925  0.1913
   76CHL1    H8 8045   3.594   4.542   7.922 -0.4693 -0.6634  0.7323
   76CHL1   C14 8046   3.629   4.429   8.092 -0.5695  0.6946 -0.0861
   76CHL1   H14 8047   3.691   4.340   8.117  0.1514  1.5174  1.1791
   76CHL1   C15 8048   3.497   4.415   8.168  0.6613  0.4549  0.1316
   76CHL1  H15A 8049   3.418   4.473   8.116 -0.3951 -0.6637  0.4204
   76CHL1  H15B 8050   3.471   4.308   8.150 -1.1420  0.6758  1.0976
   76CHL1   C16 8051   3.523   4.464   8.309 -0.4564  0.1479 -0.0346
   76CHL1  H16A 8052   3.462   4.556   8.326  2.0411  2.0139 -0.5442
   76CHL1  H16B 8053   3.500   4.393   8.392  0.2035 -3.0466 -2.4024
   76CHL1   C17 8054   3.675   4.504   8.318 -0.3697  0.5814  0.1014
   76CHL1   H17 8055   3.736   4.412   8.333  0.1770  0.8106 -0.6316
   76CHL1   C13 8056   3.711   4.536   8.170  0.3524 -0.1574  0.7394
   76CHL1   C18 8057   3.653   4.676   8.130 -0.5193 -0.3146  0.3642
   76CHL1  H18A 8058   3.675   4.712   8.027 -1.4165  0.5194  0.4484
   76CHL1  H18B 8059   3.542   4.676   8.130 -0.5303  0.1205  1.2634
   76CHL1  H18C 8060   3.694   4.755   8.197  0.3662 -0.3199 -0.1533
   76CHL1   C12 8061   3.855   4.516   8.130  0.8785  1.1750 -0.2915
   76CHL1  H12A 8062   3.919   4.597   8.171 -0.7815  1.1417  2.6781
   76CHL1  H12B 8063   3.881   4.410   8.152  1.7637  1.6820  1.2629
   76CHL1   C11 8064   3.872   4.531   7.979  0.4537 -0.0729  0.0768
   76CHL1  H11A 8065   3.857   4.636   7.947 -1.7393 -0.4960 -0.4730
   76CHL1  H11B 8066   3.975   4.500   7.952  0.3098 -0.5682  0.0871
   76CHL1    C9 8067   3.779   4.435   7.887  0.3827  0.8394 -0.2328
   76CHL1    H9 8068   3.820   4.337   7.918  0.3857  0.8278 -0.2738
   76CHL1   C10 8069   3.805   4.439   7.732 -0.6176  0.3655 -0.3813
   76CHL1   C19 8070   3.807   4.582   7.695 -0.1267 -0.4621  0.1581
   76CHL1  H19A 8071   3.736   4.634   7.763  0.4172  1.6125 -0.7901
   76CHL1  H19B 8072   3.904   4.630   7.718  0.6743 -2.0188  0.1548
   76CHL1  H19C 8073   3.788   4.595   7.586 -3.5902 -1.0414  0.5724
   76CHL1    C1 8074   3.952   4.372   7.692  0.2676  0.8301 -0.6697
   76CHL1   H1A 8075   4.024   4.429   7.755 -0.4831 -1.1532  2.1248
   76CHL1   H1B 8076   3.950   4.268   7.730 -2.9873  0.0405 -2.6149
   76CHL1    C2 8077   3.965   4.368   7.542 -0.1695  0.2839  0.0707
   76CHL1   H2A 8078   4.065   4.325   7.520 -1.2783 -2.0237 -0.7460
   76CHL1   H2B 8079   3.961   4.469   7.496  1.0551  0.5920  0.5816
   76CHL1   C20 8080   3.708   4.612   8.426 -0.2967  0.6726  0.3153
   76CHL1   H20 8081   3.679   4.714   8.391  0.6534  1.1617  0.8955
   76CHL1   C21 8082   3.859   4.611   8.452 -0.1144 -0.6300  0.3207
   76CHL1  H21A 8083   3.908   4.641   8.357 -2.1100  0.7179 -0.3448
   76CHL1  H21B 8084   3.897   4.518   8.500 -1.2246 -0.3574  1.7632
   76CHL1  H21C 8085   3.884   4.695   8.521 -0.5151  1.1072 -1.5358
   76CHL1   C22 8086   3.626   4.582   8.555 -0.0920 -0.6422  0.4656
   76CHL1  H22A 8087   3.518   4.600   8.537 -0.5727 -3.3946  0.2111
   76CHL1  H22B 8088   3.645   4.474   8.569  1.4702 -0.7255 -1.6491
   76CHL1   C23 8089   3.671   4.658   8.688 -0.9442 -0.4956  0.2241
   76CHL1  H23A 8090   3.772   4.623   8.717 -0.6487  0.8167  0.8444
   76CHL1  H23B 8091   3.680   4.766   8.665  0.1647 -0.4921  0.6141
   76CHL1   C24 8092   3.574   4.629   8.797 -0.2278 -0.2543  0.4004
   76CHL1  H24A 8093   3.566   4.518   8.809  0.6079 -0.4360 -0.6189
   76CHL1  H24B 8094   3.625   4.671   8.887  3.8576 -3.4523 -0.0980
   76CHL1   C25 8095   3.421   4.668   8.791 -0.3731  0.1601  0.2078
   76CHL1   H25 8096   3.363   4.622   8.709  0.1195 -0.9659  0.4745
   76CHL1   C26 8097   3.347   4.626   8.922 -0.8468 -0.4681  0.0191
   76CHL1  H26A 8098   3.240   4.636   8.893 -0.2017  0.4789 -2.2086
   76CHL1  H26B 8099   3.367   4.523   8.959 -0.4963 -1.5920 -2.9777
   76CHL1  H26C 8100   3.367   4.701   9.001  1.1124 -1.2265  0.3005
   76CHL1   C27 8101   3.408   4.824   8.778 -0.4436 -0.1959  0.2366
   76CHL1  H27A 8102   3.304   4.861   8.783  0.2075  1.6018  1.6217
   76CHL1  H27B 8103   3.463   4.865   8.865 -1.7092 -0.6680  1.2829
   76CHL1  H27C 8104   3.462   4.858   8.687 -0.3697  0.9656  0.6964
   77CHL1    C3 8105   5.833   3.775   6.962 -0.4345  0.1271  0.1721
   77CHL1    H3 8106   5.732   3.819   6.978 -0.8133 -0.9915  1.0113
   77CHL1    O3 8107   5.867   3.748   6.827 -0.4350 -0.7571  0.3196
   77CHL1   H3' 8108   5.783   3.761   6.782 -0.9020  3.1970  1.9664
   77CHL1    C4 8109   5.935   3.882   7.010  0.3703  0.0875  0.6375
   77CHL1   H4A 8110   6.036   3.854   6.973  0.0156  2.4323 -2.5404
   77CHL1   H4B 8111   5.919   3.968   6.942 -2.1188 -0.2421  0.7112
   77CHL1    C5 8112   5.919   3.902   7.160  0.5556  0.5142 -0.5167
   77CHL1    C6 8113   5.892   4.020   7.210 -0.5360 -0.4555 -1.0211
   77CHL1    H6 8114   5.877   4.104   7.140  1.9490  0.9068 -0.0628
   77CHL1    C7 8115   5.876   4.048   7.358 -0.3583  0.4853  0.3202
   77CHL1   H7A 8116   5.926   4.146   7.365  2.0111 -0.3449 -2.5057
   77CHL1   H7B 8117   5.770   4.045   7.390 -1.3348 -1.2698 -2.6506
   77CHL1    C8 8118   5.949   3.944   7.446  0.2369 -0.2104 -0.1907
   77CHL1    H8 8119   6.059   3.953   7.438  0.4872 -1.2166  1.5508
   77CHL1   C14 8120   5.909   3.963   7.592  0.6092 -1.3366  0.5230
   77CHL1   H14 8121   5.799   3.956   7.597  0.6612 -1.3953  1.8401
   77CHL1   C15 8122   5.929   4.107   7.648 -0.1550  0.1695 -0.5599
   77CHL1  H15A 8123   6.027   4.147   7.614  0.7543 -0.6881  0.9153
   77CHL1  H15B 8124   5.842   4.166   7.614 -0.4721 -0.1932 -0.3910
   77CHL1   C16 8125   5.927   4.072   7.804 -0.6719 -0.2669  0.0617
   77CHL1  H16A 8126   6.030   4.094   7.842 -0.5612 -0.6179 -0.0294
   77CHL1  H16B 8127   5.859   4.141   7.857  1.1751  1.5581  0.1883
   77CHL1   C17 8128   5.896   3.923   7.819  0.3091 -0.5681 -0.2844
   77CHL1   H17 8129   5.787   3.904   7.809  0.4115 -0.1249 -3.1382
   77CHL1   C13 8130   5.955   3.860   7.686  0.3915 -0.0515  0.1017
   77CHL1   C18 8131   6.104   3.856   7.684 -0.3261  0.1437  0.1501
   77CHL1  H18A 8132   6.143   3.846   7.580  1.9115  3.0210  0.5733
   77CHL1  H18B 8133   6.160   3.947   7.716 -1.3011  0.2483  1.6075
   77CHL1  H18C 8134   6.151   3.774   7.742  1.5092  0.8602 -0.2405
   77CHL1   C12 8135   5.893   3.719   7.645  0.6636 -0.5681 -0.3896
   77CHL1  H12A 8136   5.916   3.641   7.720  1.2983  0.8995  1.0084
   77CHL1  H12B 8137   5.784   3.738   7.635  0.9711  0.2771 -2.9636
   77CHL1   C11 8138   5.934   3.695   7.500 -0.2850  0.6616  0.3997
   77CHL1  H11A 8139   6.041   3.666   7.500 -0.4076  0.1513 -0.9406
   77CHL1  H11B 8140   5.863   3.614   7.474 -0.5013  0.3554  1.8323
   77CHL1    C9 8141   5.899   3.810   7.394 -0.3343  0.1892 -0.0965
   77CHL1    H9 8142   5.788   3.812   7.394 -0.3636  0.1470 -1.6203
   77CHL1   C10 8143   5.937   3.777   7.244 -0.3581  0.4503 -0.1405
   77CHL1   C19 8144   6.091   3.733   7.242  0.2513  0.6490  0.2154
   77CHL1  H19A 8145   6.116   3.713   7.136  1.0949  1.0852  0.3233
   77CHL1  H19B 8146   6.157   3.808   7.290 -1.0184  3.2456 -1.8129
   77CHL1  H19C 8147   6.107   3.635   7.291 -2.7401  0.6266  1.3765
   77CHL1    C1 8148   5.840   3.668   7.188  0.0522 -0.0591  0.0752
   77CHL1   H1A 8149   5.873   3.573   7.235  0.1735 -0.7395 -1.3490
   77CHL1   H1B 8150   5.740   3.700   7.225 -0.0388  0.4995 -0.6376
   77CHL1    C2 8151   5.838   3.645   7.044 -0.4009  0.2585  0.3571
   77CHL1   H2A 8152   5.754   3.579   7.014  0.2563 -0.9076  0.9935
   77CHL1   H2B 8153   5.936   3.603   7.012 -0.6377  1.6963 -2.6020
   77CHL1   C20 8154   5.944   3.869   7.959  0.1384 -0.2998 -0.3881
   77CHL1   H20 8155   6.047   3.905   7.981  0.4776 -1.7873  0.6368
   77CHL1   C21 8156   5.949   3.717   7.972 -0.2894 -0.0077  0.5012
   77CHL1  H21A 8157   5.854   3.670   7.938 -1.3997  2.4641 -0.0371
   77CHL1  H21B 8158   5.958   3.688   8.079  0.9490 -2.2135 -0.1414
   77CHL1  H21C 8159   6.025   3.668   7.908 -1.0052 -1.3997  0.6698
   77CHL1   C22 8160   5.853   3.927   8.070 -0.5249  0.0417 -0.7403
   77CHL1  H22A 8161   5.808   4.026   8.045  1.8762  2.3110  3.0120
   77CHL1  H22B 8162   5.773   3.851   8.088  0.8846 -0.5969  4.2352
   77CHL1   C23 8163   5.931   3.943   8.200 -0.3668 -0.8519 -0.8345
   77CHL1  H23A 8164   5.990   3.856   8.236  1.3010  0.4084 -0.4126
   77CHL1  H23B 8165   5.995   4.034   8.195 -0.7861 -0.4856  0.2126
   77CHL1   C24 8166   5.832   3.987   8.311 -0.0292  0.6995  0.7212
   77CHL1  H24A 8167   5.783   4.080   8.275  1.3575  1.3683  0.4901
   77CHL1  H24B 8168   5.751   3.914   8.334 -3.1304  3.8808  0.8663
   77CHL1   C25 8169   5.906   4.033   8.439 -0.1362  0.6441  0.1927
   77CHL1   H25 8170   6.000   4.087   8.413  0.1147 -0.3958 -1.1934
   77CHL1   C26 8171   5.821   4.116   8.538 -0.4939  0.4282  0.0984
   77CHL1  H26A 8172   5.874   4.127   8.635 -1.0936  2.0498  0.2784
   77CHL1  H26B 8173   5.801   4.215   8.492  0.7561  0.6654  0.0374
   77CHL1  H26C 8174   5.722   4.069   8.557  0.4281 -1.8615 -0.4306
   77CHL1   C27 8175   5.953   3.910   8.521 -0.9217 -0.1714  0.6011
   77CHL1  H27A 8176   6.009   3.845   8.451 -0.7356  1.3002 -0.6657
   77CHL1  H27B 8177   6.027   3.932   8.601 -0.5921  0.9571  0.0009
   77CHL1  H27C 8178   5.870   3.856   8.571 -0.1323 -2.3019 -0.2658
   78CHL1    C3 8179   2.028   1.566   6.858  0.2825  0.8966 -0.4393
   78CHL1    H3 8180   2.058   1.672   6.847 -0.9066  1.1429 -1.4636
   78CHL1    O3 8181   1.995   1.531   6.723  0.5394 -0.7585 -0.7743
   78CHL1   H3' 8182   1.989   1.435   6.724  1.3357 -0.8653  1.9580
   78CHL1    C4 8183   2.139   1.472   6.906  0.3344 -0.8915 -0.3678
   78CHL1   H4A 8184   2.117   1.370   6.866 -1.3875 -0.5393 -0.4025
   78CHL1   H4B 8185   2.235   1.498   6.857 -0.2890  0.8905 -0.6836
   78CHL1    C5 8186   2.158   1.473   7.060 -0.0598 -0.0054  0.9455
   78CHL1    C6 8187   2.281   1.499   7.106 -0.1210 -0.5439 -0.1828
   78CHL1    H6 8188   2.366   1.520   7.039 -0.4810  0.1921 -0.4171
   78CHL1    C7 8189   2.314   1.475   7.251 -0.4338 -0.3083 -0.4364
   78CHL1   H7A 8190   2.415   1.429   7.261 -0.5325 -0.3078  0.5939
   78CHL1   H7B 8191   2.320   1.579   7.288 -2.2874 -0.1198 -0.5688
   78CHL1    C8 8192   2.202   1.397   7.328 -0.0004 -0.9967 -0.8315
   78CHL1    H8 8193   2.203   1.291   7.295  0.3390 -0.8400 -1.3473
   78CHL1   C14 8194   2.221   1.415   7.478  0.2816  0.4057  0.3117
   78CHL1   H14 8195   2.213   1.526   7.484 -2.5098  0.4219 -1.8829
   78CHL1   C15 8196   2.364   1.363   7.533 -0.2986 -0.6015  0.4129
   78CHL1  H15A 8197   2.381   1.263   7.489 -1.7990  0.2744 -2.3785
   78CHL1  H15B 8198   2.438   1.439   7.500 -0.2233 -1.4041 -1.3370
   78CHL1   C16 8199   2.343   1.370   7.679  0.2115  0.1244 -0.5425
   78CHL1  H16A 8200   2.371   1.274   7.726  0.7665  0.9694  0.9364
   78CHL1  H16B 8201   2.398   1.453   7.729  0.0396 -0.8742  1.3961
   78CHL1   C17 8202   2.188   1.385   7.707 -0.0770  0.3983  0.2633
   78CHL1   H17 8203   2.182   1.495   7.723  0.1394  0.5195 -0.4536
   78CHL1   C13 8204   2.120   1.357   7.572 -0.2924 -0.0509 -0.4853
   78CHL1   C18 8205   2.119   1.204   7.546  0.8930  0.1152 -0.7527
   78CHL1  H18A 8206   2.045   1.146   7.606  0.3133  1.4323 -0.1572
   78CHL1  H18B 8207   2.098   1.188   7.438 -0.9923  0.1440 -0.4332
   78CHL1  H18C 8208   2.221   1.167   7.569  1.9976  2.7453 -1.0906
   78CHL1   C12 8209   1.984   1.427   7.542 -0.6460  0.5063 -0.1954
   78CHL1  H12A 8210   1.898   1.406   7.610 -0.1329  0.9667  0.6156
   78CHL1  H12B 8211   2.004   1.535   7.559 -1.3913  1.1707 -3.0592
   78CHL1   C11 8212   1.952   1.422   7.391  0.0409  0.0216 -0.2143
   78CHL1  H11A 8213   1.911   1.320   7.377 -0.7048 -0.5806  4.6717
   78CHL1  H11B 8214   1.872   1.498   7.374  0.4171  1.1650  2.6032
   78CHL1    C9 8215   2.072   1.464   7.294  0.1758  0.4365 -0.2995
   78CHL1    H9 8216   2.084   1.570   7.323 -1.5298  0.4553  0.4182
   78CHL1   C10 8217   2.036   1.453   7.145  0.6947  0.0782  0.2519
   78CHL1   C19 8218   1.990   1.307   7.120 -0.0485  0.1399  0.8041
   78CHL1  H19A 8219   1.912   1.274   7.192  1.2967  0.6232  2.5630
   78CHL1  H19B 8220   1.944   1.305   7.019  1.5898  0.5718  0.0045
   78CHL1  H19C 8221   2.078   1.240   7.119  0.1159  0.2164 -2.5039
   78CHL1    C1 8222   1.924   1.549   7.101 -0.4530  0.1506  0.5246
   78CHL1   H1A 8223   1.831   1.521   7.156 -0.1517 -1.4273  0.2874
   78CHL1   H1B 8224   1.951   1.651   7.136 -0.2949  0.3187 -0.0863
   78CHL1    C2 8225   1.901   1.549   6.948 -0.4092  0.1222  0.3464
   78CHL1   H2A 8226   1.827   1.624   6.912  0.4033  1.3536  1.1767
   78CHL1   H2B 8227   1.850   1.454   6.921  0.5731 -0.5915  0.9495
   78CHL1   C20 8228   2.147   1.301   7.827  0.4662 -1.1777 -0.2593
   78CHL1   H20 8229   2.168   1.193   7.813  0.5538 -1.1734 -0.1625
   78CHL1   C21 8230   1.991   1.317   7.853 -0.0113 -0.3493  0.0510
   78CHL1  H21A 8231   1.970   1.426   7.850  1.9684  0.0602 -0.3860
   78CHL1  H21B 8232   1.945   1.270   7.942 -0.9969  0.7447  0.1565
   78CHL1  H21C 8233   1.944   1.261   7.769 -1.8222  0.8781  0.1760
   78CHL1   C22 8234   2.227   1.341   7.952  0.3109 -0.4213 -0.4231
   78CHL1  H22A 8235   2.334   1.357   7.927  0.0269 -1.9078 -2.9027
   78CHL1  H22B 8236   2.190   1.442   7.982  2.9866 -0.2074  2.8180
   78CHL1   C23 8237   2.217   1.240   8.070 -0.2839 -0.5542  0.0316
   78CHL1  H23A 8238   2.110   1.214   8.087 -0.0557 -1.3192  0.3293
   78CHL1  H23B 8239   2.272   1.150   8.035  0.1486 -0.8576  1.4323
   78CHL1   C24 8240   2.268   1.294   8.203 -0.1701 -0.0068  0.0919
   78CHL1  H24A 8241   2.378   1.304   8.194  0.1348 -0.9328  2.2991
   78CHL1  H24B 8242   2.206   1.383   8.222 -3.0304 -1.5143 -1.4375
   78CHL1   C25 8243   2.232   1.188   8.310  0.2755 -0.3258  0.1753
   78CHL1   H25 8244   2.121   1.174   8.308  0.0985  0.7485  1.2752
   78CHL1   C26 8245   2.300   1.055   8.297 -0.9707  0.0149 -0.6174
   78CHL1  H26A 8246   2.403   1.080   8.330 -1.0555 -0.1759 -0.2089
   78CHL1  H26B 8247   2.259   0.975   8.362  2.1951 -1.8709 -0.7696
   78CHL1  H26C 8248   2.302   1.019   8.192 -0.5991  3.0996 -1.7671
   78CHL1   C27 8249   2.251   1.249   8.447  0.7718 -0.1615  0.2201
   78CHL1  H27A 8250   2.357   1.277   8.468  0.3169  0.5547  1.6947
   78CHL1  H27B 8251   2.195   1.344   8.457 -0.5867 -1.1111  2.3440
   78CHL1  H27C 8252   2.219   1.179   8.527 -0.1371  1.1652  1.0597
   79CHL1    C3 8253   4.522   4.696   7.359  0.1853  0.2055  0.1223
   79CHL1    H3 8254   4.599   4.767   7.395 -0.8174  1.9440 -1.0016
   79CHL1    O3 8255   4.529   4.694   7.215  0.7441 -0.0344 -0.5913
   79CHL1   H3' 8256   4.480   4.621   7.177 -0.0132  0.6930 -1.0388
   79CHL1    C4 8257   4.535   4.559   7.422 -0.1347 -0.0326  0.7804
   79CHL1   H4A 8258   4.460   4.493   7.373 -1.4768  1.1487  1.1854
   79CHL1   H4B 8259   4.631   4.511   7.394 -1.5984 -1.5788 -2.0207
   79CHL1    C5 8260   4.508   4.563   7.569 -0.4633 -0.0988 -0.2208
   79CHL1    C6 8261   4.604   4.523   7.652 -0.3156 -0.4950  0.2573
   79CHL1    H6 8262   4.702   4.492   7.612  0.8541  1.5523  1.3888
   79CHL1    C7 8263   4.591   4.519   7.804  0.8493 -0.0147 -0.6143
   79CHL1   H7A 8264   4.623   4.417   7.836 -2.0675 -0.9269 -0.3353
   79CHL1   H7B 8265   4.663   4.593   7.844  2.2386  0.1922 -3.2734
   79CHL1    C8 8266   4.451   4.551   7.857  0.5075  0.0169  0.2981
   79CHL1    H8 8267   4.397   4.454   7.850  3.9792 -2.1558  1.0186
   79CHL1   C14 8268   4.458   4.597   8.002 -0.2580 -0.1659  0.3509
   79CHL1   H14 8269   4.499   4.700   7.994  0.1307 -0.4360 -1.4149
   79CHL1   C15 8270   4.540   4.514   8.106  0.5963  0.0211  0.1603
   79CHL1  H15A 8271   4.514   4.406   8.098  3.0248 -0.5550 -0.9625
   79CHL1  H15B 8272   4.649   4.529   8.089  0.9060 -0.7165  1.4065
   79CHL1   C16 8273   4.496   4.581   8.242  0.4965 -0.3317 -0.8144
   79CHL1  H16A 8274   4.452   4.500   8.304 -1.4208 -0.1364 -1.8678
   79CHL1  H16B 8275   4.590   4.616   8.290 -0.5311 -0.1990  1.1889
   79CHL1   C17 8276   4.381   4.683   8.208  0.2485  0.0930 -0.5475
   79CHL1   H17 8277   4.438   4.777   8.191 -0.8717  0.7946 -0.5102
   79CHL1   C13 8278   4.333   4.634   8.070 -0.1612  0.1891  0.0118
   79CHL1   C18 8279   4.250   4.504   8.073 -0.6870  0.5456  0.3378
   79CHL1  H18A 8280   4.284   4.429   8.147  0.7511  1.0514  0.2192
   79CHL1  H18B 8281   4.142   4.522   8.092 -0.8733  0.3609 -0.4739
   79CHL1  H18C 8282   4.243   4.457   7.972  0.0883 -2.7671  1.7173
   79CHL1   C12 8283   4.259   4.736   7.980  0.0358 -0.0796  0.1165
   79CHL1  H12A 8284   4.155   4.745   8.016 -0.0010 -0.2818  0.0573
   79CHL1  H12B 8285   4.302   4.837   8.000  1.2187 -0.4068 -0.6391
   79CHL1   C11 8286   4.255   4.699   7.836  0.0248 -0.5950 -0.1754
   79CHL1  H11A 8287   4.189   4.609   7.830 -1.9297  0.6772  0.8907
   79CHL1  H11B 8288   4.220   4.790   7.784  1.2104  0.0407  0.1223
   79CHL1    C9 8289   4.390   4.657   7.770  0.2229  0.1559 -0.6610
   79CHL1    H9 8290   4.464   4.738   7.780  1.3938 -0.9340 -0.1973
   79CHL1   C10 8291   4.382   4.634   7.616  0.2356 -0.1396  0.4531
   79CHL1   C19 8292   4.261   4.535   7.601 -0.6215  0.2249 -0.4681
   79CHL1  H19A 8293   4.165   4.591   7.605  0.0783  1.5589 -1.5301
   79CHL1  H19B 8294   4.241   4.475   7.509 -0.8728 -0.1186 -0.1903
   79CHL1  H19C 8295   4.272   4.461   7.683  0.0951 -1.7660 -2.2550
   79CHL1    C1 8296   4.366   4.765   7.546  0.3442 -0.6664  0.2422
   79CHL1   H1A 8297   4.265   4.804   7.568  0.8638  0.9624 -0.1229
   79CHL1   H1B 8298   4.436   4.842   7.584 -0.0662  0.6624 -1.5306
   79CHL1    C2 8299   4.384   4.760   7.389 -0.3651  0.4129 -0.2122
   79CHL1   H2A 8300   4.370   4.864   7.351  0.3712  0.2452 -0.9896
   79CHL1   H2B 8301   4.315   4.693   7.333  0.3292 -3.4725  3.1735
   79CHL1   C20 8302   4.272   4.702   8.315 -0.5864  0.0945 -0.0498
   79CHL1   H20 8303   4.211   4.609   8.312 -1.5749  0.7500 -0.6518
   79CHL1   C21 8304   4.185   4.826   8.283  0.2023 -0.4123  0.3292
   79CHL1  H21A 8305   4.124   4.863   8.368 -0.7999  2.2594 -1.4385
   79CHL1  H21B 8306   4.114   4.806   8.200  0.8321  2.3150 -0.9560
   79CHL1  H21C 8307   4.253   4.908   8.252 -0.2844  0.9063  2.5093
   79CHL1   C22 8308   4.342   4.714   8.452  0.1082 -0.2164  0.2038
   79CHL1  H22A 8309   4.393   4.619   8.479  0.4509  0.3839  1.7188
   79CHL1  H22B 8310   4.414   4.798   8.453 -1.0445  0.7939  0.4211
   79CHL1   C23 8311   4.239   4.716   8.570  0.5822 -0.6204 -0.1799
   79CHL1  H23A 8312   4.188   4.813   8.552  1.6483  0.0610  0.3674
   79CHL1  H23B 8313   4.166   4.633   8.561 -1.4081  1.1385 -1.0341
   79CHL1   C24 8314   4.312   4.718   8.706  0.0691 -0.5293 -0.5595
   79CHL1  H24A 8315   4.387   4.637   8.717  1.8272  1.2378  1.2736
   79CHL1  H24B 8316   4.378   4.807   8.705  0.8367 -1.0468  1.3419
   79CHL1   C25 8317   4.212   4.710   8.823  0.2192  0.5921 -1.1119
   79CHL1   H25 8318   4.161   4.807   8.813  0.7571  0.9400 -0.5825
   79CHL1   C26 8319   4.112   4.596   8.822 -0.4392  0.4362 -0.6045
   79CHL1  H26A 8320   4.060   4.594   8.723 -0.8241  0.6322 -0.4076
   79CHL1  H26B 8321   4.151   4.493   8.831 -0.6189  0.2614 -1.6754
   79CHL1  H26C 8322   4.043   4.609   8.908  1.3383 -0.5183  1.0393
   79CHL1   C27 8323   4.285   4.699   8.964  0.1457  0.3570  0.0085
   79CHL1  H27A 8324   4.235   4.716   9.061  2.0325  0.8144  0.9588
   79CHL1  H27B 8325   4.323   4.594   8.967 -0.4539  0.1634  1.2302
   79CHL1  H27C 8326   4.369   4.771   8.954 -0.6084  1.0302 -1.9772
   80CHL1    C3 8327   3.356   2.911   7.016 -0.0315  0.2627  1.3818
   80CHL1    H3 8328   3.461   2.877   7.017  0.0960  0.4467 -0.7376
   80CHL1    O3 8329   3.301   2.921   6.888 -0.4993 -0.2519  0.7533
   80CHL1   H3' 8330   3.217   2.964   6.906 -0.5261  1.0942 -2.0251
   80CHL1    C4 8331   3.280   2.801   7.107  0.3542  0.0270  0.6573
   80CHL1   H4A 8332   3.171   2.819   7.102  0.2383 -1.0008 -1.0699
   80CHL1   H4B 8333   3.290   2.702   7.058 -3.4556  0.4637 -1.3610
   80CHL1    C5 8334   3.338   2.788   7.250 -0.0834  0.8178  0.2072
   80CHL1    C6 8335   3.368   2.666   7.310  0.4490  1.0493  0.2165
   80CHL1    H6 8336   3.352   2.575   7.251  0.4187  1.0924  0.1579
   80CHL1    C7 8337   3.403   2.649   7.458  0.6396  0.0849  0.0368
   80CHL1   H7A 8338   3.339   2.566   7.495  2.2773 -1.7275 -1.0270
   80CHL1   H7B 8339   3.510   2.625   7.473  0.2941 -1.7933 -0.3362
   80CHL1    C8 8340   3.373   2.781   7.537 -0.6634  0.2544 -0.0843
   80CHL1    H8 8341   3.263   2.783   7.548 -0.6288  2.2816  0.2090
   80CHL1   C14 8342   3.441   2.771   7.676  0.5328  0.3637  0.3730
   80CHL1   H14 8343   3.548   2.749   7.659  0.3085 -0.2326 -0.2972
   80CHL1   C15 8344   3.390   2.662   7.779 -0.2441  0.4889  0.0326
   80CHL1  H15A 8345   3.283   2.674   7.804 -0.4363  0.9783 -0.9549
   80CHL1  H15B 8346   3.405   2.556   7.749  0.0538  0.2399  1.0418
   80CHL1   C16 8347   3.476   2.691   7.900  0.0750 -0.6779 -0.9314
   80CHL1  H16A 8348   3.425   2.661   7.994 -3.0333  3.3295 -1.0903
   80CHL1  H16B 8349   3.574   2.641   7.881  1.0800  1.5520 -2.0348
   80CHL1   C17 8350   3.508   2.839   7.883 -0.1582 -0.8612  0.2029
   80CHL1   H17 8351   3.615   2.845   7.851 -0.4786 -0.3642 -0.8142
   80CHL1   C13 8352   3.436   2.899   7.765 -0.4520 -0.4266  0.1739
   80CHL1   C18 8353   3.291   2.932   7.801 -0.1189  0.0609  0.3022
   80CHL1  H18A 8354   3.281   3.043   7.803  2.4923  0.3399  0.7673
   80CHL1  H18B 8355   3.230   2.892   7.716 -0.0209  1.5558 -0.5081
   80CHL1  H18C 8356   3.248   2.908   7.900 -1.2730 -1.0174 -0.4249
   80CHL1   C12 8357   3.496   3.009   7.682 -0.3509  0.6010  0.4785
   80CHL1  H12A 8358   3.509   3.103   7.740 -0.5566  1.1820 -0.3948
   80CHL1  H12B 8359   3.597   2.971   7.658 -0.3977 -0.2013  1.4562
   80CHL1   C11 8360   3.428   3.038   7.547  0.1108  0.1185 -0.3081
   80CHL1  H11A 8361   3.325   3.075   7.566  0.7118  1.5248  0.3837
   80CHL1  H11B 8362   3.493   3.116   7.501 -0.8490  0.9594 -0.2614
   80CHL1    C9 8363   3.420   2.910   7.466  0.6953  0.1142 -0.6941
   80CHL1    H9 8364   3.523   2.873   7.448  0.1557 -1.1319 -1.3394
   80CHL1   C10 8365   3.346   2.926   7.327  0.3115 -0.0192  0.4217
   80CHL1   C19 8366   3.196   2.974   7.348 -0.3861 -0.1956 -0.4539
   80CHL1  H19A 8367   3.143   2.906   7.418  0.1816  0.5980  0.7972
   80CHL1  H19B 8368   3.201   3.083   7.370  2.6707  0.1413 -2.2661
   80CHL1  H19C 8369   3.135   2.967   7.255 -0.0565 -4.3022 -0.5249
   80CHL1    C1 8370   3.417   3.034   7.229  0.4885  0.2949  0.1820
   80CHL1   H1A 8371   3.409   3.134   7.277  2.3271  0.8946 -0.6879
   80CHL1   H1B 8372   3.524   3.009   7.218  0.4930  0.0184  0.8302
   80CHL1    C2 8373   3.354   3.043   7.085 -0.1946  0.2301  0.5575
   80CHL1   H2A 8374   3.422   3.111   7.030  1.6742 -2.1884 -0.3352
   80CHL1   H2B 8375   3.257   3.095   7.083 -0.8322 -0.9009 -1.5125
   80CHL1   C20 8376   3.516   2.914   8.019 -0.5162  0.3077 -0.1158
   80CHL1   H20 8377   3.415   2.901   8.062 -0.0235  0.3458  1.1012
   80CHL1   C21 8378   3.523   3.065   8.010 -0.1688 -0.4547  0.0134
   80CHL1  H21A 8379   3.608   3.105   7.951 -0.1601  0.9440  0.9159
   80CHL1  H21B 8380   3.531   3.123   8.105 -0.4129  0.7547 -0.6813
   80CHL1  H21C 8381   3.424   3.095   7.968  0.3773  1.0537 -0.2609
   80CHL1   C22 8382   3.625   2.856   8.118  1.3356  0.1595 -0.3696
   80CHL1  H22A 8383   3.608   2.747   8.133 -0.2624  0.6192  1.6767
   80CHL1  H22B 8384   3.724   2.873   8.070  0.2698 -2.4054 -3.9098
   80CHL1   C23 8385   3.606   2.908   8.256 -0.3111  0.5752  0.0462
   80CHL1  H23A 8386   3.614   3.019   8.259  2.5526  0.4416  1.0537
   80CHL1  H23B 8387   3.508   2.882   8.301 -1.4686  3.1553 -0.8201
   80CHL1   C24 8388   3.724   2.871   8.353  0.0750 -0.6354 -0.0409
   80CHL1  H24A 8389   3.700   2.762   8.357 -1.7414 -0.2974 -0.8210
   80CHL1  H24B 8390   3.827   2.878   8.311  0.0196  1.8211  0.1151
   80CHL1   C25 8391   3.721   2.921   8.497  0.1422 -0.2637  0.0279
   80CHL1   H25 8392   3.754   3.027   8.503 -1.3646  0.2718 -0.8125
   80CHL1   C26 8393   3.582   2.913   8.560 -0.2555 -0.9066  0.2523
   80CHL1  H26A 8394   3.582   2.951   8.665 -0.3143  0.0329 -0.0765
   80CHL1  H26B 8395   3.508   2.975   8.504  0.1876 -0.4025  0.2180
   80CHL1  H26C 8396   3.533   2.813   8.565  0.1703 -1.0985  0.6266
   80CHL1   C27 8397   3.818   2.842   8.592 -0.7526 -0.0095 -0.2558
   80CHL1  H27A 8398   3.773   2.742   8.606 -0.3297 -0.2902 -0.8645
   80CHL1  H27B 8399   3.920   2.838   8.548 -0.6059 -2.0352  0.2048
   80CHL1  H27C 8400   3.819   2.881   8.696  1.6833 -0.2696 -0.1087
   81CHL1    C3 8401   6.344   2.796   7.060  0.4492 -0.2451 -0.2965
   81CHL1    H3 8402   6.297   2.895   7.079 -1.5700 -1.2637  0.2393
   81CHL1    O3 8403   6.327   2.740   6.927  0.2197  0.4763 -0.3196
   81CHL1   H3' 8404   6.372   2.796   6.862  1.7898 -0.7425 -0.3476
   81CHL1    C4 8405   6.497   2.822   7.096  0.5379  0.3008 -0.2889
   81CHL1   H4A 8406   6.566   2.736   7.086 -0.1852 -0.4163  0.6826
   81CHL1   H4B 8407   6.526   2.890   7.013 -0.8413  0.7445 -0.4403
   81CHL1    C5 8408   6.512   2.876   7.240  0.8905  0.1167  0.7123
   81CHL1    C6 8409   6.571   2.994   7.273 -0.4113 -0.8582 -0.0709
   81CHL1    H6 8410   6.607   3.063   7.196 -1.3568 -1.1038 -0.7656
   81CHL1    C7 8411   6.598   3.059   7.405  0.2652 -0.2791  0.1498
   81CHL1   H7A 8412   6.705   3.086   7.416 -0.3839  2.0664  1.4038
   81CHL1   H7B 8413   6.542   3.154   7.415  1.1907  0.2068  0.8900
   81CHL1    C8 8414   6.557   2.962   7.513 -0.7450  0.0186  0.5789
   81CHL1    H8 8415   6.639   2.887   7.518 -0.2511  0.5332  0.3794
   81CHL1   C14 8416   6.544   3.041   7.644 -1.0209  0.6637 -0.1708
   81CHL1   H14 8417   6.449   3.098   7.638 -0.2255  2.0205 -0.2180
   81CHL1   C15 8418   6.657   3.137   7.682  0.1452  0.5392  0.5548
   81CHL1  H15A 8419   6.756   3.094   7.658 -1.9360 -4.1930 -0.6100
   81CHL1  H15B 8420   6.641   3.233   7.629 -0.1096 -0.6254 -1.5612
   81CHL1   C16 8421   6.642   3.159   7.831  0.3637 -0.3777 -0.3219
   81CHL1  H16A 8422   6.730   3.137   7.894 -1.0832 -0.1731  1.8689
   81CHL1  H16B 8423   6.605   3.262   7.849  0.5977 -0.6131  1.7339
   81CHL1   C17 8424   6.520   3.065   7.873 -0.6263  0.1759 -0.3246
   81CHL1   H17 8425   6.425   3.122   7.859 -0.5531  0.2334 -0.5942
   81CHL1   C13 8426   6.514   2.950   7.764 -0.2121 -0.1879  0.2356
   81CHL1   C18 8427   6.625   2.839   7.783 -0.1503 -0.2246 -0.0601
   81CHL1  H18A 8428   6.592   2.765   7.859  1.4367 -0.7258  0.1921
   81CHL1  H18B 8429   6.647   2.780   7.691 -3.6415  2.1714 -2.6915
   81CHL1  H18C 8430   6.721   2.880   7.823  1.7225 -3.1288 -1.2090
   81CHL1   C12 8431   6.378   2.885   7.735  0.2459 -0.1859  0.6598
   81CHL1  H12A 8432   6.345   2.818   7.817 -1.1748 -0.7768 -0.3558
   81CHL1  H12B 8433   6.292   2.954   7.719  0.5750  0.0156 -0.3069
   81CHL1   C11 8434   6.382   2.793   7.607  0.2375  0.7076 -0.1717
   81CHL1  H11A 8435   6.440   2.699   7.625 -1.0435 -0.0460  0.1187
   81CHL1  H11B 8436   6.274   2.771   7.593  0.6474 -1.0721 -0.8074
   81CHL1    C9 8437   6.425   2.882   7.483  0.0948  0.2431 -0.7168
   81CHL1    H9 8438   6.350   2.964   7.472  0.0472  0.0701 -1.7549
   81CHL1   C10 8439   6.442   2.799   7.349  0.3851 -0.1203 -0.1698
   81CHL1   C19 8440   6.521   2.668   7.371  0.4300 -0.0411  0.4828
   81CHL1  H19A 8441   6.467   2.600   7.441  0.0761 -0.4410 -0.1671
   81CHL1  H19B 8442   6.531   2.608   7.279 -1.1165  1.0685 -0.4632
   81CHL1  H19C 8443   6.625   2.692   7.399  0.2242  0.3966  0.8775
   81CHL1    C1 8444   6.299   2.752   7.305  0.1981 -0.5476 -0.2396
   81CHL1   H1A 8445   6.266   2.672   7.375 -0.7399  1.1302  1.3137
   81CHL1   H1B 8446   6.230   2.838   7.319  2.6431  1.8196 -1.8105
   81CHL1    C2 8447   6.295   2.692   7.160 -0.1844 -0.6818 -0.0284
   81CHL1   H2A 8448   6.194   2.650   7.138  0.0138 -1.1688 -0.0288
   81CHL1   H2B 8449   6.367   2.607   7.159 -0.3688 -0.8375 -0.1455
   81CHL1   C20 8450   6.527   3.020   8.018  0.8719 -0.0236 -0.3120
   81CHL1   H20 8451   6.599   2.935   8.012  1.0349  0.2172 -2.9471
   81CHL1   C21 8452   6.393   2.965   8.067 -0.1724 -0.3990 -0.1311
   81CHL1  H21A 8453   6.401   2.927   8.171 -2.4715  2.4582  1.2372
   81CHL1  H21B 8454   6.340   2.890   8.004 -2.0354 -0.1815  1.1095
   81CHL1  H21C 8455   6.315   3.044   8.072  0.2085 -0.1190  1.8539
   81CHL1   C22 8456   6.593   3.125   8.113 -0.5590  0.1229 -0.4322
   81CHL1  H22A 8457   6.701   3.128   8.087  0.2185 -0.7517  2.3421
   81CHL1  H22B 8458   6.541   3.219   8.086 -0.3145  0.7226  1.0913
   81CHL1   C23 8459   6.596   3.085   8.260  0.5967  0.7634 -0.2685
   81CHL1  H23A 8460   6.494   3.104   8.300  1.3068  0.9901  1.5465
   81CHL1  H23B 8461   6.622   2.977   8.268  1.3969  0.9257 -0.5864
   81CHL1   C24 8462   6.711   3.158   8.332 -0.0760 -0.3464 -0.6900
   81CHL1  H24A 8463   6.804   3.148   8.273  1.4973  2.3928  1.1014
   81CHL1  H24B 8464   6.706   3.269   8.333  0.5969 -0.2986  1.2675
   81CHL1   C25 8465   6.746   3.107   8.479  0.6553 -0.1335 -0.5281
   81CHL1   H25 8466   6.703   3.004   8.471 -1.0420  0.5707 -0.8740
   81CHL1   C26 8467   6.895   3.115   8.528 -0.4630  0.1010 -0.1460
   81CHL1  H26A 8468   6.907   3.066   8.627 -1.3800  2.4007  1.1755
   81CHL1  H26B 8469   6.964   3.066   8.455 -0.2902  0.0403  0.0575
   81CHL1  H26C 8470   6.920   3.223   8.532  1.5816 -0.3329 -0.3679
   81CHL1   C27 8471   6.644   3.171   8.575  0.4782 -0.3864  0.5800
   81CHL1  H27A 8472   6.540   3.158   8.537  0.8042 -0.6608 -0.2291
   81CHL1  H27B 8473   6.658   3.152   8.683 -0.8105 -0.6788  0.7198
   81CHL1  H27C 8474   6.650   3.282   8.568  0.6552 -0.4144  0.2372
   82CHL1    C3 8475   3.621   2.264   7.269 -0.4147  0.0901  0.2918
   82CHL1    H3 8476   3.620   2.366   7.311 -0.6843 -0.2606  1.1703
   82CHL1    O3 8477   3.632   2.275   7.131 -0.2726 -0.4785  0.4496
   82CHL1   H3' 8478   3.666   2.187   7.111  0.9671  0.2325 -0.7559
   82CHL1    C4 8479   3.750   2.193   7.324 -0.1774  0.4888  0.3495
   82CHL1   H4A 8480   3.757   2.099   7.267 -0.1565  1.7322 -1.8124
   82CHL1   H4B 8481   3.833   2.264   7.303 -0.6240  1.1151  0.6540
   82CHL1    C5 8482   3.736   2.168   7.474  0.0956 -0.0918  0.5926
   82CHL1    C6 8483   3.828   2.223   7.556 -0.3026  0.6667  0.4776
   82CHL1    H6 8484   3.919   2.271   7.516  0.2477 -1.1230 -0.5367
   82CHL1    C7 8485   3.818   2.193   7.698  0.0595  0.4124  0.4346
   82CHL1   H7A 8486   3.912   2.155   7.741 -1.1466 -1.8208  1.2496
   82CHL1   H7B 8487   3.780   2.286   7.747 -0.9594 -0.1234  0.6857
   82CHL1    C8 8488   3.727   2.075   7.737 -0.4749  1.0139 -0.7062
   82CHL1    H8 8489   3.782   1.984   7.704 -1.1042  0.3758 -0.0284
   82CHL1   C14 8490   3.712   2.067   7.884  0.1751 -1.2035  0.3899
   82CHL1   H14 8491   3.666   2.161   7.921  1.7010 -1.3115  2.7081
   82CHL1   C15 8492   3.838   2.073   7.973 -0.6539  0.1691 -0.4398
   82CHL1  H15A 8493   3.925   2.022   7.927  0.6575  2.2389 -0.3864
   82CHL1  H15B 8494   3.875   2.176   7.992  0.0307 -0.1201 -0.1887
   82CHL1   C16 8495   3.791   2.023   8.107  0.7834 -0.2199  0.6995
   82CHL1  H16A 8496   3.855   1.937   8.134 -1.6467 -2.0618  0.9775
   82CHL1  H16B 8497   3.803   2.095   8.190  2.5629  3.6264 -2.5528
   82CHL1   C17 8498   3.646   1.968   8.085  0.6142  0.5889  0.3543
   82CHL1   H17 8499   3.568   2.043   8.111 -0.2223 -0.2835  0.4232
   82CHL1   C13 8500   3.632   1.953   7.930  0.0828  0.3733  0.4565
   82CHL1   C18 8501   3.704   1.822   7.900  0.1390  1.2687  0.3575
   82CHL1  H18A 8502   3.709   1.802   7.791 -0.0561 -0.8451  0.6994
   82CHL1  H18B 8503   3.810   1.813   7.933  0.1675  0.7829  0.1396
   82CHL1  H18C 8504   3.646   1.732   7.930 -0.4617  1.4036 -0.3880
   82CHL1   C12 8505   3.481   1.964   7.875  0.1119  0.1295  0.3100
   82CHL1  H12A 8506   3.410   1.883   7.906  0.1923 -0.1189 -0.1483
   82CHL1  H12B 8507   3.432   2.059   7.906  1.3229  0.7441  0.3830
   82CHL1   C11 8508   3.494   1.963   7.718 -0.0365  0.2707  0.2043
   82CHL1  H11A 8509   3.537   1.865   7.689  0.3454 -0.0053  1.6450
   82CHL1  H11B 8510   3.392   1.973   7.677  0.4871 -2.9001 -2.2230
   82CHL1    C9 8511   3.590   2.074   7.672 -0.1682  0.7147  0.0939
   82CHL1    H9 8512   3.547   2.166   7.716 -1.0928  0.5520 -0.4566
   82CHL1   C10 8513   3.608   2.088   7.518 -0.2491  0.4131  0.7022
   82CHL1   C19 8514   3.620   1.943   7.461 -0.3683 -0.4679  0.0579
   82CHL1  H19A 8515   3.659   1.926   7.358  1.8138  0.5398  0.6523
   82CHL1  H19B 8516   3.689   1.890   7.529  0.8640  0.3205 -0.5367
   82CHL1  H19C 8517   3.529   1.880   7.471  0.0826 -1.1265  0.0899
   82CHL1    C1 8518   3.485   2.156   7.451 -1.0345 -0.0061 -0.4843
   82CHL1   H1A 8519   3.406   2.081   7.472 -0.3503 -0.2334  1.4728
   82CHL1   H1B 8520   3.452   2.244   7.510  0.5865 -0.6927  1.5892
   82CHL1    C2 8521   3.501   2.180   7.300 -0.1528  0.1590 -0.5605
   82CHL1   H2A 8522   3.409   2.225   7.258 -0.4422 -0.8460 -1.0439
   82CHL1   H2B 8523   3.504   2.079   7.253  2.9860 -0.0823 -0.0458
   82CHL1   C20 8524   3.614   1.855   8.187 -0.3308 -0.3749  0.4891
   82CHL1   H20 8525   3.689   1.775   8.167  0.8844  1.2735 -2.2291
   82CHL1   C21 8526   3.473   1.795   8.158  0.3090 -0.4321 -0.2382
   82CHL1  H21A 8527   3.395   1.875   8.160  0.7600  0.0276  1.7054
   82CHL1  H21B 8528   3.456   1.721   8.239  0.0619 -1.7957 -1.4975
   82CHL1  H21C 8529   3.466   1.748   8.058 -0.9423  0.5786 -0.6504
   82CHL1   C22 8530   3.630   1.914   8.331  0.7687 -0.4050  0.3440
   82CHL1  H22A 8531   3.724   1.971   8.343  0.4587  0.3285 -0.5783
   82CHL1  H22B 8532   3.544   1.985   8.333 -0.4385 -1.7827  2.9183
   82CHL1   C23 8533   3.619   1.812   8.445 -0.2577  0.2908 -0.2354
   82CHL1  H23A 8534   3.515   1.777   8.462 -0.5384  2.2691  3.1079
   82CHL1  H23B 8535   3.692   1.730   8.425 -0.7479 -0.7332  1.8761
   82CHL1   C24 8536   3.665   1.871   8.582 -0.1524  0.7391 -0.7346
   82CHL1  H24A 8537   3.639   1.781   8.642 -1.7732 -0.3336 -2.9298
   82CHL1  H24B 8538   3.770   1.899   8.605  0.4106 -1.4895 -0.4214
   82CHL1   C25 8539   3.583   1.995   8.621 -0.1260 -0.1485  0.5556
   82CHL1   H25 8540   3.598   2.072   8.542  0.2071 -1.9554 -1.2315
   82CHL1   C26 8541   3.428   1.972   8.627 -0.3475 -0.7229  0.3432
   82CHL1  H26A 8542   3.380   1.970   8.526 -2.6155  0.0836  1.3365
   82CHL1  H26B 8543   3.398   1.870   8.660 -0.3594 -1.4093 -1.6394
   82CHL1  H26C 8544   3.383   2.042   8.700  0.8175  0.4414 -0.0175
   82CHL1   C27 8545   3.635   2.047   8.756  0.3181  0.3304 -0.7467
   82CHL1  H27A 8546   3.585   2.145   8.763  0.0497  0.1666 -0.2887
   82CHL1  H27B 8547   3.606   1.989   8.847  2.1670  2.7147  1.4814
   82CHL1  H27C 8548   3.745   2.055   8.760  0.5016 -1.9280  1.0848
   83CHL1    C3 8549   4.829   4.157   7.277 -0.4874 -0.1993 -0.1566
   83CHL1    H3 8550   4.887   4.242   7.321 -3.4998  2.6662 -1.2904
   83CHL1    O3 8551   4.809   4.179   7.137  0.0541  0.0246  0.2583
   83CHL1   H3' 8552   4.739   4.242   7.121  0.6880  0.0196 -3.6647
   83CHL1    C4 8553   4.894   4.022   7.301  0.0957  0.1504 -0.0310
   83CHL1   H4A 8554   4.835   3.936   7.262 -1.9476  1.0687  0.8998
   83CHL1   H4B 8555   4.991   4.027   7.248  0.2488  0.4285  0.2728
   83CHL1    C5 8556   4.918   3.991   7.448  0.0237 -0.5669  0.4768
   83CHL1    C6 8557   5.043   3.964   7.494 -0.1461 -0.3459  0.1782
   83CHL1    H6 8558   5.127   3.961   7.424 -1.2744  0.1964 -1.2367
   83CHL1    C7 8559   5.075   3.943   7.639  1.1309 -0.2046  0.0315
   83CHL1   H7A 8560   5.145   3.857   7.651 -0.5391 -1.6710 -0.2719
   83CHL1   H7B 8561   5.102   4.038   7.689 -4.0723  0.1170  2.8394
   83CHL1    C8 8562   4.945   3.910   7.723 -0.0852  0.4295  0.0853
   83CHL1    H8 8563   4.908   3.808   7.698 -0.9565  0.6090  0.5962
   83CHL1   C14 8564   4.983   3.938   7.871  0.4317  0.7135 -0.9796
   83CHL1   H14 8565   4.983   4.047   7.891 -1.6578  0.5209  0.3494
   83CHL1   C15 8566   5.110   3.879   7.932  0.0375 -0.2199 -0.2998
   83CHL1  H15A 8567   5.128   3.776   7.894  2.0871  0.4969 -1.4101
   83CHL1  H15B 8568   5.193   3.942   7.894  1.5404 -1.6401  0.5066
   83CHL1   C16 8569   5.098   3.875   8.085  0.0726  0.2499  0.2304
   83CHL1  H16A 8570   5.120   3.768   8.109  1.0353  0.2954 -0.4354
   83CHL1  H16B 8571   5.169   3.950   8.126  1.3688 -0.3288 -0.8980
   83CHL1   C17 8572   4.947   3.913   8.112  0.5233 -0.0838 -0.8902
   83CHL1   H17 8573   4.940   4.019   8.146  0.1732 -0.7199  1.1547
   83CHL1   C13 8574   4.873   3.896   7.974 -0.0908  0.0741  0.1147
   83CHL1   C18 8575   4.839   3.749   7.950 -0.0304  0.7354  0.4259
   83CHL1  H18A 8576   4.790   3.722   7.854  1.7903 -1.1150 -0.0425
   83CHL1  H18B 8577   4.924   3.680   7.968 -1.5105 -1.0500  0.8006
   83CHL1  H18C 8578   4.768   3.730   8.034 -0.1500 -0.1689  0.1256
   83CHL1   C12 8579   4.762   3.986   7.939 -0.1712 -0.0335 -0.2869
   83CHL1  H12A 8580   4.672   3.959   7.998  0.3427  0.0584  0.5464
   83CHL1  H12B 8581   4.783   4.092   7.965 -0.9105 -0.0387  0.3760
   83CHL1   C11 8582   4.714   3.977   7.796 -0.5425 -0.2687  0.1477
   83CHL1  H11A 8583   4.670   3.877   7.780 -1.4120  0.3262 -1.4016
   83CHL1  H11B 8584   4.634   4.052   7.779 -2.0355 -1.5163  1.3970
   83CHL1    C9 8585   4.831   4.009   7.685  0.4369  0.0104 -0.5376
   83CHL1    H9 8586   4.864   4.113   7.706  1.3082 -0.1678 -1.0011
   83CHL1   C10 8587   4.791   4.009   7.535 -0.2929  0.1410 -0.2114
   83CHL1   C19 8588   4.702   3.877   7.504  0.2014 -0.1491  0.0197
   83CHL1  H19A 8589   4.748   3.795   7.563  0.5914  0.3377  0.4019
   83CHL1  H19B 8590   4.597   3.892   7.537 -0.0678  0.0418 -0.8885
   83CHL1  H19C 8591   4.697   3.846   7.398 -1.4092  2.5326 -0.7699
   83CHL1    C1 8592   4.703   4.138   7.490  0.5494  0.1997 -0.7743
   83CHL1   H1A 8593   4.603   4.114   7.533  1.8475 -2.0704  1.2655
   83CHL1   H1B 8594   4.756   4.224   7.535  0.4331 -1.0329  1.9466
   83CHL1    C2 8595   4.690   4.158   7.343 -0.0701 -0.8089  0.3651
   83CHL1   H2A 8596   4.645   4.256   7.318  0.5372 -0.0255  2.1544
   83CHL1   H2B 8597   4.623   4.077   7.306 -0.3666  0.3368 -1.8090
   83CHL1   C20 8598   4.893   3.841   8.230  0.2561  0.0915 -0.0353
   83CHL1   H20 8599   4.898   3.732   8.209 -0.2824  0.2084 -0.8088
   83CHL1   C21 8600   4.746   3.887   8.265 -0.1348  0.1663  0.2224
   83CHL1  H21A 8601   4.719   3.850   8.366 -1.2239  0.6407  0.1183
   83CHL1  H21B 8602   4.684   3.850   8.181  0.2159  0.6014 -0.2357
   83CHL1  H21C 8603   4.734   3.997   8.272  1.9040  0.6454 -2.2565
   83CHL1   C22 8604   4.974   3.865   8.357  0.2152  0.3447  0.5320
   83CHL1  H22A 8605   5.074   3.817   8.343 -1.1813 -2.2736 -1.1129
   83CHL1  H22B 8606   4.988   3.972   8.381  1.7855  0.7036 -1.6945
   83CHL1   C23 8607   4.934   3.808   8.495 -0.4037 -0.3198  0.2992
   83CHL1  H23A 8608   4.857   3.867   8.550  0.1718 -0.5492  1.3716
   83CHL1  H23B 8609   4.896   3.706   8.469  2.0982 -1.2225 -0.1341
   83CHL1   C24 8610   5.053   3.771   8.594  0.1476  0.6473 -0.2335
   83CHL1  H24A 8611   5.113   3.694   8.541  0.0490 -0.5163  1.2795
   83CHL1  H24B 8612   5.120   3.857   8.614  2.2447 -0.3095 -2.6481
   83CHL1   C25 8613   5.013   3.691   8.726  0.5876 -0.3233 -0.5146
   83CHL1   H25 8614   4.916   3.727   8.766  0.8598  0.4726 -0.5571
   83CHL1   C26 8615   4.991   3.544   8.706  0.8687 -0.3285 -0.0447
   83CHL1  H26A 8616   5.086   3.491   8.684 -1.1420 -4.0670 -0.4826
   83CHL1  H26B 8617   4.930   3.506   8.791  0.2859 -2.0123 -1.1744
   83CHL1  H26C 8618   4.915   3.532   8.626 -0.1594 -0.2164  0.8941
   83CHL1   C27 8619   5.122   3.714   8.827  0.7231 -0.1309 -0.3634
   83CHL1  H27A 8620   5.085   3.650   8.910 -3.6191  2.5780  0.0771
   83CHL1  H27B 8621   5.220   3.681   8.785 -0.5350 -2.0461 -1.9828
   83CHL1  H27C 8622   5.126   3.818   8.864  2.8674  0.0854 -1.0404
   84CHL1    C3 8623   3.166   1.508   7.084  0.1285 -0.4023  0.5798
   84CHL1    H3 8624   3.171   1.607   7.133 -0.6574  1.0819 -2.1453
   84CHL1    O3 8625   3.161   1.531   6.945  0.1158 -0.5508 -0.5621
   84CHL1   H3' 8626   3.190   1.446   6.911  1.4913 -0.5831  0.5997
   84CHL1    C4 8627   3.281   1.427   7.117 -0.0345  0.1653  0.6334
   84CHL1   H4A 8628   3.262   1.330   7.067  0.1316  0.9234 -0.9670
   84CHL1   H4B 8629   3.376   1.477   7.086 -0.4686  0.3581 -0.4565
   84CHL1    C5 8630   3.278   1.386   7.262  0.2200 -0.1401  0.0532
   84CHL1    C6 8631   3.381   1.422   7.341  0.2191 -0.1170  0.0569
   84CHL1    H6 8632   3.471   1.464   7.295  1.1676  1.8118  3.3648
   84CHL1    C7 8633   3.382   1.407   7.487 -0.1086  0.1032 -0.2660
   84CHL1   H7A 8634   3.483   1.385   7.528 -0.4791  1.0983  1.2385
   84CHL1   H7B 8635   3.329   1.484   7.546  0.1035 -2.2410  3.2821
   84CHL1    C8 8636   3.283   1.287   7.524 -0.0891 -0.3509  0.0173
   84CHL1    H8 8637   3.324   1.194   7.479  1.4203  0.0631  0.4571
   84CHL1   C14 8638   3.271   1.284   7.674 -0.0343  0.3237  0.3744
   84CHL1   H14 8639   3.226   1.382   7.698 -1.4953  0.5112 -2.7178
   84CHL1   C15 8640   3.399   1.261   7.758 -0.5993  0.0427 -0.6639
   84CHL1  H15A 8641   3.473   1.190   7.717  0.0736  0.7186 -0.6443
   84CHL1  H15B 8642   3.453   1.357   7.773  2.2530 -1.5540  0.1091
   84CHL1   C16 8643   3.338   1.223   7.890 -0.8747  0.1100  0.1427
   84CHL1  H16A 8644   3.390   1.143   7.948 -0.0585  0.4461 -0.1267
   84CHL1  H16B 8645   3.355   1.298   7.970  0.7378 -0.7970  0.7014
   84CHL1   C17 8646   3.184   1.198   7.876  0.4352 -1.0076 -0.2412
   84CHL1   H17 8647   3.136   1.293   7.909  1.8414 -0.0351 -0.8953
   84CHL1   C13 8648   3.163   1.189   7.725 -0.2208 -0.4813  0.1369
   84CHL1   C18 8649   3.190   1.041   7.689 -0.1567 -0.7085  0.6101
   84CHL1  H18A 8650   3.178   1.021   7.580 -1.8080 -0.6674  0.7589
   84CHL1  H18B 8651   3.297   1.018   7.708 -0.0743 -2.4983 -1.5310
   84CHL1  H18C 8652   3.122   0.970   7.740 -0.0098 -0.9608  0.4594
   84CHL1   C12 8653   3.031   1.237   7.669 -0.1583 -0.0142 -0.4765
   84CHL1  H12A 8654   2.943   1.182   7.709 -1.1505  0.7852 -1.4643
   84CHL1  H12B 8655   3.000   1.340   7.698 -0.8074 -0.1710 -0.5903
   84CHL1   C11 8656   3.029   1.245   7.512  0.3005  0.0537 -0.3607
   84CHL1  H11A 8657   3.034   1.143   7.467 -0.1275  0.0043 -0.3003
   84CHL1  H11B 8658   2.929   1.285   7.483  0.1433 -0.9829 -1.3283
   84CHL1    C9 8659   3.148   1.332   7.460  0.7968  0.4878 -0.4255
   84CHL1    H9 8660   3.126   1.431   7.506  0.9157 -0.5341  1.9193
   84CHL1   C10 8661   3.145   1.330   7.310 -0.3287 -0.0306 -0.3490
   84CHL1   C19 8662   3.132   1.190   7.243 -0.2538 -0.5013  0.8315
   84CHL1  H19A 8663   3.230   1.140   7.259 -0.4236 -1.0012  0.3270
   84CHL1  H19B 8664   3.041   1.136   7.277 -1.7839  0.8155 -0.9786
   84CHL1  H19C 8665   3.137   1.190   7.132 -1.5638  2.2196  0.6917
   84CHL1    C1 8666   3.026   1.416   7.262  0.4636 -0.6950  0.3090
   84CHL1   H1A 8667   2.933   1.364   7.293  0.3736 -0.5744  0.2389
   84CHL1   H1B 8668   3.018   1.517   7.308  0.5516 -0.9676  0.9434
   84CHL1    C2 8669   3.029   1.441   7.116  0.0951  0.4798 -0.2381
   84CHL1   H2A 8670   2.940   1.506   7.105  0.2632  1.0203  1.2477
   84CHL1   H2B 8671   3.005   1.351   7.057 -0.3459 -0.3162  1.0996
   84CHL1   C20 8672   3.121   1.081   7.967 -0.5179 -0.7550  0.3051
   84CHL1   H20 8673   3.175   0.984   7.956  0.5648 -0.0741 -0.6951
   84CHL1   C21 8674   2.965   1.065   7.946  0.3480  0.4223  0.0545
   84CHL1  H21A 8675   2.939   0.996   8.030  5.1712 -2.5615 -0.5078
   84CHL1  H21B 8676   2.947   1.022   7.846 -0.6011  0.6644  0.1145
   84CHL1  H21C 8677   2.920   1.161   7.976 -0.7372 -0.1716  0.3879
   84CHL1   C22 8678   3.141   1.127   8.117 -0.2951  0.5157 -0.6899
   84CHL1  H22A 8679   3.241   1.173   8.131 -0.5063  0.5451  0.9538
   84CHL1  H22B 8680   3.071   1.206   8.150  2.0748  1.9689  1.2009
   84CHL1   C23 8681   3.133   1.002   8.210  0.1655  0.1139  0.1303
   84CHL1  H23A 8682   3.035   0.951   8.203 -0.1119  0.8054 -1.7056
   84CHL1  H23B 8683   3.203   0.929   8.164 -1.0225 -0.0748 -1.4332
   84CHL1   C24 8684   3.167   1.034   8.362 -0.2452 -0.5056  0.1832
   84CHL1  H24A 8685   3.255   1.101   8.366 -1.1745  0.7480  0.2296
   84CHL1  H24B 8686   3.093   1.095   8.419  1.0400 -0.9438  2.4337
   84CHL1   C25 8687   3.184   0.914   8.449 -0.5243 -0.1624 -0.0985
   84CHL1   H25 8688   3.259   0.854   8.393  1.1735  0.4482  1.4311
   84CHL1   C26 8689   3.247   0.965   8.580  0.2118 -0.4578  0.0954
   84CHL1  H26A 8690   3.186   1.042   8.632  0.9619  2.1610 -2.6193
   84CHL1  H26B 8691   3.264   0.880   8.649 -1.5100  1.2110  2.7557
   84CHL1  H26C 8692   3.344   1.017   8.564  1.2640 -2.2244  0.4160
   84CHL1   C27 8693   3.047   0.850   8.460  0.2000  0.0244 -1.0148
   84CHL1  H27A 8694   2.996   0.819   8.367 -2.5134 -0.6207  0.5791
   84CHL1  H27B 8695   3.052   0.754   8.516 -1.7862  0.7213  0.4958
   84CHL1  H27C 8696   2.973   0.907   8.521 -2.4444 -0.2272 -3.7372
   85CHL1    C3 8697   0.273   4.832   6.988 -0.1882 -0.5163 -0.3385
   85CHL1    H3 8698   0.165   4.858   6.990 -0.6145 -2.1828  1.4739
   85CHL1    O3 8699   0.327   4.834   6.858 -0.2956  0.0195 -0.1221
   85CHL1   H3' 8700   0.421   4.820   6.870  0.6321  3.6053 -1.8040
   85CHL1    C4 8701   0.353   4.934   7.070  0.1495  0.0857  0.3640
   85CHL1   H4A 8702   0.460   4.917   7.048  0.5051  1.8277  0.5891
   85CHL1   H4B 8703   0.332   5.038   7.035 -2.2155  0.1590  1.7954
   85CHL1    C5 8704   0.318   4.936   7.215  0.6888  0.2025 -0.1247
   85CHL1    C6 8705   0.277   5.044   7.284  0.5765 -0.6218 -0.0161
   85CHL1    H6 8706   0.263   5.141   7.234 -1.2045  0.0454  1.6660
   85CHL1    C7 8707   0.257   5.053   7.432  0.4421  0.6996 -0.0126
   85CHL1   H7A 8708   0.302   5.144   7.477 -1.5253  1.1146  1.2034
   85CHL1   H7B 8709   0.149   5.062   7.454  0.0229 -2.9322  0.0370
   85CHL1    C8 8710   0.326   4.931   7.505  0.2716 -0.0403 -0.0393
   85CHL1    H8 8711   0.434   4.951   7.515 -0.1529  2.1786  0.5560
   85CHL1   C14 8712   0.274   4.920   7.649  0.9267  0.0059  0.3402
   85CHL1   H14 8713   0.164   4.911   7.650  0.5567  3.3347 -0.2405
   85CHL1   C15 8714   0.288   5.037   7.747 -0.2626 -0.3527  0.2818
   85CHL1  H15A 8715   0.385   5.091   7.741  0.3583 -1.1668  2.3630
   85CHL1  H15B 8716   0.199   5.102   7.746 -0.3090 -0.4159 -0.5381
   85CHL1   C16 8717   0.286   4.970   7.889 -0.4685 -0.2790  0.6129
   85CHL1  H16A 8718   0.375   5.010   7.942  0.4131  0.9982 -1.6685
   85CHL1  H16B 8719   0.198   5.006   7.946 -1.8241 -2.3916 -0.0310
   85CHL1   C17 8720   0.277   4.823   7.868 -0.2917  0.3251  0.2193
   85CHL1   H17 8721   0.170   4.796   7.860 -0.8139  2.1383  0.4832
   85CHL1   C13 8722   0.330   4.797   7.729  0.2463  0.2386  0.1211
   85CHL1   C18 8723   0.482   4.800   7.735 -0.2926  0.8095 -0.0645
   85CHL1  H18A 8724   0.525   4.707   7.777  0.7382  1.0007 -0.6549
   85CHL1  H18B 8725   0.526   4.815   7.634  0.4965  1.0394  0.3081
   85CHL1  H18C 8726   0.525   4.892   7.781  2.0915  0.3809 -1.2579
   85CHL1   C12 8727   0.280   4.671   7.650  0.0100 -0.2539 -0.3977
   85CHL1  H12A 8728   0.284   4.573   7.702 -3.9366  0.7760  2.3251
   85CHL1  H12B 8729   0.170   4.686   7.646 -0.1857 -1.8824 -2.4567
   85CHL1   C11 8730   0.329   4.666   7.511 -0.8397 -0.3850 -0.1779
   85CHL1  H11A 8731   0.440   4.668   7.513 -0.8212  2.1109  0.4292
   85CHL1  H11B 8732   0.288   4.580   7.455 -2.0001  1.4878 -2.3847
   85CHL1    C9 8733   0.290   4.796   7.433  0.2755  0.1967  0.0252
   85CHL1    H9 8734   0.179   4.794   7.439  0.1806 -2.2561 -1.4690
   85CHL1   C10 8735   0.338   4.799   7.285  0.1188 -0.0016 -0.3964
   85CHL1   C19 8736   0.491   4.756   7.289 -0.5011 -0.8697  0.1580
   85CHL1  H19A 8737   0.537   4.773   7.190 -0.7702  1.1457  0.3421
   85CHL1  H19B 8738   0.558   4.817   7.353 -0.1402  1.3744 -2.2271
   85CHL1  H19C 8739   0.501   4.645   7.293 -0.0468 -0.8388 -0.1833
   85CHL1    C1 8740   0.251   4.686   7.206 -0.8270 -0.0738 -0.1468
   85CHL1   H1A 8741   0.288   4.592   7.252  2.1099  0.4347 -1.2550
   85CHL1   H1B 8742   0.141   4.680   7.222 -0.6014 -0.5033  1.4026
   85CHL1    C2 8743   0.282   4.693   7.056 -0.2782 -0.6723  0.7548
   85CHL1   H2A 8744   0.210   4.636   6.994  1.4339 -1.1692 -0.8622
   85CHL1   H2B 8745   0.385   4.652   7.047 -0.0921 -0.3434  1.3021
   85CHL1   C20 8746   0.331   4.744   7.990 -0.5254  0.8094  0.2972
   85CHL1   H20 8747   0.442   4.732   7.990 -0.7504 -2.2480  0.4996
   85CHL1   C21 8748   0.294   4.596   7.998 -0.0188  0.5366 -0.0682
   85CHL1  H21A 8749   0.343   4.547   8.085  2.6918  1.4056 -0.9950
   85CHL1  H21B 8750   0.329   4.542   7.907 -2.6027 -2.8114  0.7434
   85CHL1  H21C 8751   0.183   4.593   8.004 -0.0179 -0.7154 -0.4105
   85CHL1   C22 8752   0.298   4.802   8.132 -0.2694  0.0746  0.3148
   85CHL1  H22A 8753   0.350   4.899   8.119 -0.8912  0.3151 -0.4486
   85CHL1  H22B 8754   0.193   4.837   8.125 -0.3866 -0.4569 -1.0280
   85CHL1   C23 8755   0.325   4.726   8.270 -0.7626  0.7465  0.4873
   85CHL1  H23A 8756   0.249   4.645   8.282 -1.6421  1.2979 -1.0906
   85CHL1  H23B 8757   0.426   4.680   8.259 -0.4839  1.8970 -3.1695
   85CHL1   C24 8758   0.319   4.820   8.389 -0.1643 -0.5480  0.3486
   85CHL1  H24A 8759   0.219   4.867   8.397  0.4734  0.8746  0.2425
   85CHL1  H24B 8760   0.343   4.752   8.474  4.6837 -0.6227 -0.7655
   85CHL1   C25 8761   0.434   4.926   8.400  0.2570 -0.3195  0.8005
   85CHL1   H25 8762   0.425   4.972   8.299  1.3892 -1.6149  0.0805
   85CHL1   C26 8763   0.408   5.020   8.516  0.2574  0.0600  0.2911
   85CHL1  H26A 8764   0.314   5.074   8.489 -0.7857 -1.3466  0.9790
   85CHL1  H26B 8765   0.389   4.965   8.610 -1.7688  1.1821  0.6057
   85CHL1  H26C 8766   0.493   5.090   8.530  1.3143 -1.6557  3.3219
   85CHL1   C27 8767   0.573   4.864   8.428 -0.4282  0.2457 -0.3620
   85CHL1  H27A 8768   0.583   4.838   8.536 -1.5330  2.9829  0.4928
   85CHL1  H27B 8769   0.586   4.772   8.367  0.1544 -1.6422  2.4012
   85CHL1  H27C 8770   0.644   4.942   8.395 -2.7474  2.5922 -0.1078
   86CHL1    C3 8771   1.595   0.027   7.256 -0.3005  0.2912  0.7517
   86CHL1    H3 8772   1.516  -0.051   7.249 -0.7174  0.7703 -0.0928
   86CHL1    O3 8773   1.603   0.098   7.135 -0.3255  0.3979  0.4304
   86CHL1   H3' 8774   1.682   0.066   7.091  0.0439  1.6972  0.0859
   86CHL1    C4 8775   1.573   0.114   7.375 -0.1527  0.3672 -0.4122
   86CHL1   H4A 8776   1.647   0.197   7.377  1.7283 -1.2390  1.1659
   86CHL1   H4B 8777   1.471   0.155   7.362 -0.3585  0.5919  1.5932
   86CHL1    C5 8778   1.578   0.041   7.510 -0.5673  0.1230  0.5659
   86CHL1    C6 8779   1.487   0.050   7.608  0.7495  0.2619  0.0795
   86CHL1    H6 8780   1.392   0.104   7.601 -0.5550 -1.8431  0.7330
   86CHL1    C7 8781   1.485  -0.018   7.743  0.1494 -0.3694 -0.9600
   86CHL1   H7A 8782   1.464   0.058   7.821  0.0362 -1.0237 -0.3435
   86CHL1   H7B 8783   1.408  -0.098   7.756  0.2110 -0.2159  0.4269
   86CHL1    C8 8784   1.619  -0.091   7.776  0.1142 -0.1320  0.1605
   86CHL1    H8 8785   1.701  -0.023   7.807  0.5278 -0.7941  0.5274
   86CHL1   C14 8786   1.595  -0.188   7.897 -1.0728  0.4619  0.6875
   86CHL1   H14 8787   1.515  -0.258   7.866 -0.6643  0.7466 -1.0895
   86CHL1   C15 8788   1.552  -0.119   8.028 -0.0337  0.6937 -0.4077
   86CHL1  H15A 8789   1.601  -0.023   8.057  0.6436  0.5111 -0.9224
   86CHL1  H15B 8790   1.443  -0.100   8.017 -1.0779 -3.7800  0.3725
   86CHL1   C16 8791   1.586  -0.233   8.130 -0.0759 -0.5959  0.5801
   86CHL1  H16A 8792   1.652  -0.194   8.211  0.4905 -0.5249  0.0909
   86CHL1  H16B 8793   1.500  -0.271   8.190  0.8363  0.8380  2.9769
   86CHL1   C17 8794   1.658  -0.343   8.054 -0.2592 -0.8902  0.0990
   86CHL1   H17 8795   1.579  -0.413   8.018 -0.3198 -0.6446 -0.2464
   86CHL1   C13 8796   1.716  -0.268   7.928  0.2750  0.0859 -0.4633
   86CHL1   C18 8797   1.834  -0.180   7.971 -0.1253 -0.1267 -0.3763
   86CHL1  H18A 8798   1.874  -0.105   7.899  1.6675  1.0721  1.7734
   86CHL1  H18B 8799   1.804  -0.116   8.057  0.7465 -0.4083  0.1437
   86CHL1  H18C 8800   1.920  -0.241   8.004  0.6098  0.3292 -1.3904
   86CHL1   C12 8801   1.757  -0.349   7.805 -0.3664  0.1183  0.3560
   86CHL1  H12A 8802   1.844  -0.416   7.827 -1.9741 -2.2631 -0.1182
   86CHL1  H12B 8803   1.667  -0.412   7.786  0.1439 -0.1262 -1.4038
   86CHL1   C11 8804   1.778  -0.271   7.676 -0.1043  0.6115  0.2706
   86CHL1  H11A 8805   1.883  -0.233   7.679  0.7024 -1.3247 -1.2634
   86CHL1  H11B 8806   1.778  -0.346   7.594  1.6222  1.2603 -0.3754
   86CHL1    C9 8807   1.662  -0.165   7.648  0.1012  0.3651  0.1701
   86CHL1    H9 8808   1.574  -0.219   7.608  1.1139 -0.2531 -1.3217
   86CHL1   C10 8809   1.702  -0.063   7.534  0.2468 -0.0515 -0.2529
   86CHL1   C19 8810   1.825   0.017   7.570 -0.4760 -0.2748 -0.5813
   86CHL1  H19A 8811   1.805   0.067   7.668 -3.7373 -2.1552 -0.1616
   86CHL1  H19B 8812   1.916  -0.044   7.587 -0.2923  0.0804 -0.2499
   86CHL1  H19C 8813   1.856   0.090   7.492 -1.1686  0.3397 -0.2947
   86CHL1    C1 8814   1.732  -0.131   7.398  0.6492 -0.5752 -0.3594
   86CHL1   H1A 8815   1.832  -0.180   7.399 -0.0810 -2.1195  0.4980
   86CHL1   H1B 8816   1.648  -0.202   7.386 -1.3657  1.4557  0.8818
   86CHL1    C2 8817   1.731  -0.048   7.274 -0.4299  0.4400  0.3169
   86CHL1   H2A 8818   1.739  -0.121   7.190 -0.3504  0.1265  0.5963
   86CHL1   H2B 8819   1.822   0.016   7.269  0.2536 -0.5149  0.2407
   86CHL1   C20 8820   1.745  -0.438   8.131 -0.0207  0.1242 -0.2246
   86CHL1   H20 8821   1.829  -0.381   8.176  2.4220 -0.3811 -3.7673
   86CHL1   C21 8822   1.787  -0.559   8.044  0.3422 -0.5620 -0.3562
   86CHL1  H21A 8823   1.825  -0.646   8.102  1.0215  0.3239  0.5754
   86CHL1  H21B 8824   1.875  -0.523   7.987 -0.3398 -2.5569 -2.8315
   86CHL1  H21C 8825   1.710  -0.600   7.976  0.8354 -3.1252  0.5400
   86CHL1   C22 8826   1.668  -0.491   8.261  0.2920 -0.3418  0.8009
   86CHL1  H22A 8827   1.634  -0.396   8.308 -1.3398 -0.6875  0.3986
   86CHL1  H22B 8828   1.573  -0.539   8.228 -0.0562 -0.3744  1.8172
   86CHL1   C23 8829   1.742  -0.590   8.351  0.0639 -0.8523  0.0550
   86CHL1  H23A 8830   1.780  -0.674   8.289  2.1914 -0.3295  0.5601
   86CHL1  H23B 8831   1.839  -0.547   8.386 -0.7674  1.2382 -0.0925
   86CHL1   C24 8832   1.658  -0.630   8.468 -0.8700  0.5023  0.5015
   86CHL1  H24A 8833   1.630  -0.549   8.538 -2.4776 -1.6480  2.5165
   86CHL1  H24B 8834   1.560  -0.666   8.430 -0.5518  2.0305 -2.0239
   86CHL1   C25 8835   1.731  -0.725   8.559  0.4814  0.2712 -0.9671
   86CHL1   H25 8836   1.835  -0.688   8.573  0.5551 -0.1470 -0.3578
   86CHL1   C26 8837   1.662  -0.723   8.694  0.5496 -0.1902 -0.2422
   86CHL1  H26A 8838   1.560  -0.765   8.695  0.8054 -0.8793 -1.2826
   86CHL1  H26B 8839   1.736  -0.780   8.754  2.9831  0.1315 -2.6913
   86CHL1  H26C 8840   1.650  -0.620   8.733 -2.3323  0.3232 -2.1895
   86CHL1   C27 8841   1.738  -0.866   8.492  0.3961 -0.3717  0.4590
   86CHL1  H27A 8842   1.638  -0.902   8.461 -0.7239  2.8597 -0.0471
   86CHL1  H27B 8843   1.798  -0.869   8.399 -1.1218 -2.7664 -0.5178
   86CHL1  H27C 8844   1.785  -0.947   8.552  0.6504 -1.2969 -0.9467
   87CHL1    C3 8845   4.039   0.049   7.100 -0.1645 -0.4225  0.5136
   87CHL1    H3 8846   3.991   0.149   7.103  0.8963  0.1570 -0.7514
   87CHL1    O3 8847   4.103   0.043   6.972  0.1056  0.0380 -0.1160
   87CHL1   H3' 8848   4.034   0.010   6.915 -0.0864 -0.2484  0.2801
   87CHL1    C4 8849   4.147   0.039   7.206  0.1360  0.8100  0.5721
   87CHL1   H4A 8850   4.205  -0.050   7.176  0.5224  1.1503  0.3079
   87CHL1   H4B 8851   4.227   0.114   7.186  0.7087  0.7400  2.3876
   87CHL1    C5 8852   4.091   0.046   7.348 -0.4135 -0.2216  0.2607
   87CHL1    C6 8853   4.144   0.137   7.431 -0.0990  0.2879 -0.5103
   87CHL1    H6 8854   4.223   0.210   7.407 -0.7461  1.4998  0.8542
   87CHL1    C7 8855   4.101   0.136   7.579 -0.3242  0.0302  0.4400
   87CHL1   H7A 8856   4.185   0.119   7.649  0.2020 -0.8713 -0.3904
   87CHL1   H7B 8857   4.047   0.231   7.603 -1.5519 -0.4592 -0.2888
   87CHL1    C8 8858   4.016   0.011   7.622  0.7464  0.4230 -1.0500
   87CHL1    H8 8859   4.088  -0.074   7.628 -1.6565 -1.7786 -1.5931
   87CHL1   C14 8860   3.948   0.027   7.756 -0.0245  0.0947  0.3366
   87CHL1   H14 8861   3.874   0.108   7.739  1.9040  2.4750  2.4541
   87CHL1   C15 8862   4.029   0.082   7.873  0.5634  0.4890 -0.3217
   87CHL1  H15A 8863   4.131   0.038   7.882 -0.1991 -1.6732 -1.4621
   87CHL1  H15B 8864   4.042   0.192   7.873 -0.7059  0.6619 -0.1194
   87CHL1   C16 8865   3.951   0.038   8.002  0.1953  0.6857 -0.4080
   87CHL1  H16A 8866   4.009  -0.032   8.066 -0.0941  0.4842 -0.3643
   87CHL1  H16B 8867   3.915   0.129   8.054  0.7827  1.5158 -1.4099
   87CHL1   C17 8868   3.830  -0.044   7.951  0.2107  0.4959 -0.0932
   87CHL1   H17 8869   3.748   0.027   7.927 -0.3611 -0.2639 -0.4176
   87CHL1   C13 8870   3.867  -0.099   7.808 -0.1105 -0.3206  0.5468
   87CHL1   C18 8871   3.959  -0.221   7.823 -0.0470  0.2748  0.6800
   87CHL1  H18A 8872   4.036  -0.198   7.900 -0.4287  0.3170  1.0503
   87CHL1  H18B 8873   3.911  -0.317   7.850  1.1233 -0.5443 -0.0305
   87CHL1  H18C 8874   4.002  -0.250   7.724  0.0599 -0.0110  0.8091
   87CHL1   C12 8875   3.760  -0.132   7.699 -0.0641 -0.5520 -0.1562
   87CHL1  H12A 8876   3.706  -0.227   7.723 -0.4564 -0.6612 -1.3862
   87CHL1  H12B 8877   3.680  -0.055   7.698  0.6268  0.1834  0.2953
   87CHL1   C11 8878   3.814  -0.144   7.559 -0.0021 -0.1043  0.1515
   87CHL1  H11A 8879   3.866  -0.242   7.554 -0.1524 -0.1214 -1.5721
   87CHL1  H11B 8880   3.735  -0.158   7.483 -0.6732 -0.3651  0.8878
   87CHL1    C9 8881   3.910  -0.025   7.516 -0.7069  0.5119 -0.0250
   87CHL1    H9 8882   3.843   0.064   7.513  0.6260  1.5485 -0.1295
   87CHL1   C10 8883   3.977  -0.055   7.381  0.0404 -0.5051 -0.2142
   87CHL1   C19 8884   4.048  -0.189   7.383  0.6117  0.7971 -0.4223
   87CHL1  H19A 8885   4.116  -0.203   7.296  1.1826  0.4737  0.0704
   87CHL1  H19B 8886   4.114  -0.205   7.471 -0.2884  1.5971  0.4245
   87CHL1  H19C 8887   3.973  -0.270   7.375  2.2143 -1.0977  2.0599
   87CHL1    C1 8888   3.873  -0.059   7.262  0.5045 -0.4531  0.0203
   87CHL1   H1A 8889   3.811  -0.149   7.280 -4.1540  2.3294 -0.6373
   87CHL1   H1B 8890   3.808   0.030   7.270 -1.5784 -1.7151 -1.6315
   87CHL1    C2 8891   3.938  -0.062   7.119  0.3992 -0.2539 -0.3666
   87CHL1   H2A 8892   3.856  -0.043   7.048  0.9646 -1.1421 -1.2946
   87CHL1   H2B 8893   3.983  -0.163   7.105 -1.0186 -1.1320  1.0347
   87CHL1   C20 8894   3.783  -0.139   8.061 -0.9798  0.8017 -1.1153
   87CHL1   H20 8895   3.861  -0.215   8.080 -1.3441  0.6268 -0.2836
   87CHL1   C21 8896   3.668  -0.225   8.005  0.6012  0.5096 -0.3744
   87CHL1  H21A 8897   3.603  -0.158   7.945  0.5898  0.7226 -0.1258
   87CHL1  H21B 8898   3.623  -0.288   8.084  1.4734  1.3745  0.8462
   87CHL1  H21C 8899   3.697  -0.300   7.928 -0.6206 -2.2887  1.7503
   87CHL1   C22 8900   3.747  -0.080   8.195  0.0093  0.2361 -0.2455
   87CHL1  H22A 8901   3.690  -0.154   8.254  0.9664 -0.1038  0.2778
   87CHL1  H22B 8902   3.840  -0.053   8.250 -1.2592  2.6011  0.9006
   87CHL1   C23 8903   3.655   0.037   8.188 -0.2445  0.0893  0.4567
   87CHL1  H23A 8904   3.694   0.123   8.129 -0.5989  2.1958  3.0947
   87CHL1  H23B 8905   3.559   0.001   8.145 -1.3101  0.5477  2.3471
   87CHL1   C24 8906   3.613   0.087   8.326  0.5003  0.4498  0.6737
   87CHL1  H24A 8907   3.559   0.002   8.374  0.9100  0.4887  1.2131
   87CHL1  H24B 8908   3.700   0.112   8.391  2.4294  0.1134 -1.6496
   87CHL1   C25 8909   3.516   0.204   8.314  0.6872  0.1676  0.0534
   87CHL1   H25 8910   3.448   0.181   8.229 -0.0745  0.5375  0.5562
   87CHL1   C26 8911   3.417   0.211   8.436  0.9239 -0.4096 -0.1303
   87CHL1  H26A 8912   3.345   0.296   8.425 -0.7897 -1.6145  1.2267
   87CHL1  H26B 8913   3.349   0.124   8.427 -1.0582  1.0828 -0.3577
   87CHL1  H26C 8914   3.478   0.216   8.528  0.8950 -0.7237 -0.0946
   87CHL1   C27 8915   3.596   0.333   8.298  0.1786 -0.3937 -0.1379
   87CHL1  H27A 8916   3.523   0.416   8.295 -0.7068 -1.1366  0.3127
   87CHL1  H27B 8917   3.661   0.346   8.388 -0.6176 -0.3265  0.4383
   87CHL1  H27C 8918   3.661   0.331   8.208  0.2875 -2.8761 -0.0924
   88CHL1    C3 8919   0.935   5.474   7.195 -0.0732  0.5091  0.3864
   88CHL1    H3 8920   0.830   5.437   7.201 -0.4247  1.5002  0.6053
   88CHL1    O3 8921   0.979   5.456   7.058  0.0795 -0.0577 -0.4819
   88CHL1   H3' 8922   1.068   5.421   7.050 -0.0083 -0.0824 -1.4200
   88CHL1    C4 8923   0.943   5.624   7.238  0.8661 -0.0043 -0.2364
   88CHL1   H4A 8924   1.047   5.656   7.215  0.6825  0.4641 -0.4204
   88CHL1   H4B 8925   0.871   5.680   7.175  0.3657 -1.0258 -0.5860
   88CHL1    C5 8926   0.904   5.641   7.383 -0.6036  0.0593 -0.3304
   88CHL1    C6 8927   0.804   5.724   7.424  0.3062  0.1076 -0.2854
   88CHL1    H6 8928   0.770   5.804   7.356 -1.3254  1.0109  1.4868
   88CHL1    C7 8929   0.765   5.741   7.563 -0.5340  0.4408 -0.6433
   88CHL1   H7A 8930   0.732   5.844   7.588  1.3217  1.1634 -1.0002
   88CHL1   H7B 8931   0.687   5.666   7.587  1.4483 -1.3112  0.6477
   88CHL1    C8 8932   0.879   5.699   7.665  0.2097  1.0058 -0.3237
   88CHL1    H8 8933   0.965   5.769   7.659  2.6876 -1.6812  1.1037
   88CHL1   C14 8934   0.820   5.688   7.806  0.2830  0.4303 -0.8014
   88CHL1   H14 8935   0.744   5.607   7.803 -1.0023  1.5753 -0.4946
   88CHL1   C15 8936   0.747   5.813   7.854 -0.1340  0.4470 -0.0566
   88CHL1  H15A 8937   0.801   5.903   7.818 -0.2087 -0.1467 -1.7293
   88CHL1  H15B 8938   0.648   5.811   7.802  0.5768 -3.1355 -1.5894
   88CHL1   C16 8939   0.742   5.800   8.002 -0.0020 -0.4964 -0.3569
   88CHL1  H16A 8940   0.791   5.893   8.038 -0.7955  1.5293 -4.0779
   88CHL1  H16B 8941   0.639   5.777   8.037 -1.0061 -1.4060 -3.5547
   88CHL1   C17 8942   0.828   5.672   8.043 -0.0184  0.1051  0.5439
   88CHL1   H17 8943   0.756   5.586   8.042 -0.4078  0.3786  2.3650
   88CHL1   C13 8944   0.917   5.646   7.914 -0.4929  1.0868 -0.5674
   88CHL1   C18 8945   1.036   5.741   7.911  0.0656  0.7209  0.0550
   88CHL1  H18A 8946   1.012   5.838   7.960 -0.7662  0.2999  0.4879
   88CHL1  H18B 8947   1.128   5.697   7.957  0.9294  0.8798 -1.4550
   88CHL1  H18C 8948   1.080   5.759   7.810  1.6723 -1.4092  0.3206
   88CHL1   C12 8949   0.962   5.505   7.878 -0.1110  0.4325 -0.7611
   88CHL1  H12A 8950   1.043   5.480   7.951  0.1458  1.3196 -0.7382
   88CHL1  H12B 8951   0.876   5.434   7.878  0.7087 -0.5970 -1.0025
   88CHL1   C11 8952   1.027   5.499   7.734 -0.5281 -0.0340 -0.0287
   88CHL1  H11A 8953   1.132   5.535   7.746  0.4271 -1.7665 -2.4135
   88CHL1  H11B 8954   1.041   5.393   7.703  2.0492  0.0673  0.5265
   88CHL1    C9 8955   0.935   5.563   7.628  0.6257  0.4273  0.3375
   88CHL1    H9 8956   0.847   5.496   7.633  2.3268 -1.9289  0.5020
   88CHL1   C10 8957   0.984   5.550   7.481  0.6297  0.1175 -0.2307
   88CHL1   C19 8958   1.137   5.602   7.486  0.2967 -0.2677 -0.1704
   88CHL1  H19A 8959   1.174   5.615   7.382  0.0457  1.1074 -0.1041
   88CHL1  H19B 8960   1.151   5.701   7.534 -0.1558  0.6741 -1.8979
   88CHL1  H19C 8961   1.209   5.542   7.545  2.8727  1.6880 -1.1385
   88CHL1    C1 8962   0.964   5.407   7.435  0.9866  0.5032  0.9623
   88CHL1   H1A 8963   1.012   5.334   7.502 -0.4200 -0.7965  0.6025
   88CHL1   H1B 8964   0.854   5.391   7.432  1.0243  0.4108 -0.7837
   88CHL1    C2 8965   1.014   5.389   7.285 -0.0403 -0.4786  0.1411
   88CHL1   H2A 8966   1.007   5.283   7.251 -0.0631  0.0774 -1.6753
   88CHL1   H2B 8967   1.124   5.404   7.284 -0.2908  1.6466  0.2690
   88CHL1   C20 8968   0.893   5.680   8.176 -0.1069 -0.6035  0.1549
   88CHL1   H20 8969   0.987   5.739   8.175 -1.1905  1.1905 -1.4536
   88CHL1   C21 8970   0.911   5.538   8.229 -0.7109  0.1219  0.4684
   88CHL1  H21A 8971   0.952   5.536   8.332 -1.1070  2.6329  0.7350
   88CHL1  H21B 8972   0.974   5.482   8.156 -0.9906  1.1826 -0.6088
   88CHL1  H21C 8973   0.817   5.485   8.251 -1.1692  0.7903  0.1599
   88CHL1   C22 8974   0.811   5.767   8.271  0.1641 -0.6142 -0.7441
   88CHL1  H22A 8975   0.795   5.870   8.231 -0.0878 -0.8649 -1.2981
   88CHL1  H22B 8976   0.716   5.725   8.309 -0.6220  2.4236  1.0492
   88CHL1   C23 8977   0.876   5.799   8.413 -0.2922 -0.0494 -0.0041
   88CHL1  H23A 8978   0.801   5.851   8.476  1.3420  0.6684  1.4291
   88CHL1  H23B 8979   0.888   5.699   8.462  0.5608 -0.0095 -0.1142
   88CHL1   C24 8980   1.009   5.866   8.415  0.6649  0.3870 -0.0079
   88CHL1  H24A 8981   1.090   5.804   8.372  1.6308  1.7493 -0.2018
   88CHL1  H24B 8982   0.998   5.955   8.350  0.8433 -0.0248 -0.6177
   88CHL1   C25 8983   1.070   5.921   8.548  0.5646 -0.5327 -0.1054
   88CHL1   H25 8984   1.089   5.840   8.622  0.1371  1.0788  1.8504
   88CHL1   C26 8985   1.206   5.997   8.525  0.1349  0.6802 -0.2455
   88CHL1  H26A 8986   1.281   5.917   8.511  2.1681  1.8602  2.9225
   88CHL1  H26B 8987   1.206   6.072   8.443  0.3623  1.1158  0.1490
   88CHL1  H26C 8988   1.224   6.050   8.621 -1.7576 -0.3655  0.7427
   88CHL1   C27 8989   0.968   6.015   8.604  0.5713 -0.6620 -0.0804
   88CHL1  H27A 8990   0.870   5.964   8.617  0.8132 -1.4245 -1.1335
   88CHL1  H27B 8991   1.005   6.053   8.701 -0.2920  0.3490 -0.1228
   88CHL1  H27C 8992   0.941   6.103   8.542 -1.6981 -0.2827  1.3099
   89CHL1    C3 8993   5.438   6.576   7.037  0.0500  0.0496  0.1688
   89CHL1    H3 8994   5.328   6.572   7.050 -0.0082  0.8606  0.0070
   89CHL1    O3 8995   5.471   6.534   6.900  0.2961  0.2128 -0.4334
   89CHL1   H3' 8996   5.454   6.608   6.842  0.2714 -1.3429 -2.5202
   89CHL1    C4 8997   5.465   6.727   7.051  0.0499  0.3257 -1.0437
   89CHL1   H4A 8998   5.572   6.745   7.025 -0.1782  0.9101 -1.6131
   89CHL1   H4B 8999   5.403   6.788   6.981 -2.7857 -0.5035  0.5759
   89CHL1    C5 9000   5.442   6.776   7.195 -0.3463  0.6782 -0.6233
   89CHL1    C6 9001   5.373   6.883   7.222  0.1088 -0.8303  0.0984
   89CHL1    H6 9002   5.327   6.939   7.139 -0.5929 -2.2324 -0.4999
   89CHL1    C7 9003   5.345   6.932   7.366 -0.0236  0.6761 -0.2966
   89CHL1   H7A 9004   5.364   7.042   7.369 -2.1671  1.0574  2.0364
   89CHL1   H7B 9005   5.240   6.913   7.398  0.1746  1.7430  1.1134
   89CHL1    C8 9006   5.442   6.867   7.471  0.0445 -0.3820 -0.8174
   89CHL1    H8 9007   5.539   6.914   7.446  0.5782 -1.6931 -1.3075
   89CHL1   C14 9008   5.403   6.893   7.619 -0.2932 -0.3930  0.2298
   89CHL1   H14 9009   5.311   6.832   7.635  0.4335 -1.1105  1.8861
   89CHL1   C15 9010   5.374   7.039   7.654  0.8837 -0.6622  0.2474
   89CHL1  H15A 9011   5.440   7.122   7.622  0.0766  0.1763  0.7060
   89CHL1  H15B 9012   5.275   7.062   7.608  1.5653  0.4079 -0.7195
   89CHL1   C16 9013   5.359   7.034   7.808  0.5355 -1.0602 -0.3874
   89CHL1  H16A 9014   5.425   7.112   7.852  1.7485 -1.6860 -1.0378
   89CHL1  H16B 9015   5.254   7.052   7.838  0.9179  0.1732  0.2897
   89CHL1   C17 9016   5.411   6.896   7.858 -0.2802  0.0469 -0.1413
   89CHL1   H17 9017   5.315   6.841   7.872 -1.8169  2.7167  0.4208
   89CHL1   C13 9018   5.484   6.838   7.727  0.0223 -0.3042  0.2845
   89CHL1   C18 9019   5.625   6.906   7.720  0.5510  0.7981  0.7499
   89CHL1  H18A 9020   5.671   6.862   7.629  0.1851 -0.1384  1.0100
   89CHL1  H18B 9021   5.611   7.016   7.715 -1.6533  0.5240  0.1670
   89CHL1  H18C 9022   5.691   6.887   7.807  0.7203  0.9039  0.6486
   89CHL1   C12 9023   5.491   6.692   7.716 -0.0619 -0.4311  0.0009
   89CHL1  H12A 9024   5.561   6.638   7.784 -0.6140  0.6358  1.4679
   89CHL1  H12B 9025   5.391   6.653   7.742  0.0586  0.3614  1.8232
   89CHL1   C11 9026   5.527   6.645   7.566 -0.6117 -0.2053 -0.3105
   89CHL1  H11A 9027   5.637   6.659   7.555 -0.2720 -1.9094  0.5750
   89CHL1  H11B 9028   5.517   6.536   7.548  1.2403 -0.1350 -2.1553
   89CHL1    C9 9029   5.455   6.716   7.450  0.9270  0.3942 -0.1642
   89CHL1    H9 9030   5.351   6.678   7.460  0.8402  0.7791  0.4693
   89CHL1   C10 9031   5.511   6.687   7.304  0.8444  0.1840 -0.3198
   89CHL1   C19 9032   5.665   6.709   7.296  0.3734  0.1418 -0.2213
   89CHL1  H19A 9033   5.728   6.643   7.359  1.2364  1.6017  0.5084
   89CHL1  H19B 9034   5.699   6.714   7.190  0.7072  0.1312 -0.1180
   89CHL1  H19C 9035   5.684   6.814   7.328  0.5204  0.1642 -0.3790
   89CHL1    C1 9036   5.477   6.538   7.283 -0.7132  0.3597  0.0240
   89CHL1   H1A 9037   5.541   6.476   7.350 -0.0711  1.5067  0.5122
   89CHL1   H1B 9038   5.369   6.523   7.304 -0.6237 -0.2730  0.0475
   89CHL1    C2 9039   5.507   6.495   7.140 -0.2940 -0.1918 -0.4458
   89CHL1   H2A 9040   5.475   6.392   7.112  0.9956 -0.3464 -1.4188
   89CHL1   H2B 9041   5.617   6.508   7.132  0.0129 -0.6843  2.0700
   89CHL1   C20 9042   5.470   6.888   8.004  0.1949 -0.2545  0.5943
   89CHL1   H20 9043   5.576   6.916   7.991 -0.2386  1.2812  0.1877
   89CHL1   C21 9044   5.476   6.746   8.067 -0.1138  0.0205 -0.4358
   89CHL1  H21A 9045   5.373   6.708   8.083  0.0056 -0.0854  0.1201
   89CHL1  H21B 9046   5.533   6.760   8.162 -0.3998  0.7685 -0.3665
   89CHL1  H21C 9047   5.534   6.678   8.001  1.2555 -0.2913  0.9968
   89CHL1   C22 9048   5.399   6.989   8.102 -0.5150 -0.0637 -0.0802
   89CHL1  H22A 9049   5.408   7.092   8.062 -1.2031  0.8872  2.0681
   89CHL1  H22B 9050   5.288   6.985   8.111 -0.6086  2.9527  1.2821
   89CHL1   C23 9051   5.458   7.021   8.240  0.3633  0.4715  0.0719
   89CHL1  H23A 9052   5.459   6.931   8.306  0.4669 -1.5898 -2.5499
   89CHL1  H23B 9053   5.563   7.055   8.229  1.1463 -2.2007 -1.6930
   89CHL1   C24 9054   5.378   7.134   8.314 -0.8307  0.3048 -0.5424
   89CHL1  H24A 9055   5.367   7.229   8.256 -2.0479  0.8669  0.5632
   89CHL1  H24B 9056   5.281   7.086   8.337 -0.1425 -0.1081  1.6819
   89CHL1   C25 9057   5.444   7.161   8.447  0.7356  0.2040 -0.3720
   89CHL1   H25 9058   5.427   7.065   8.499 -0.5247  1.7680  2.3236
   89CHL1   C26 9059   5.594   7.194   8.451 -0.4722 -0.8181  0.0809
   89CHL1  H26A 9060   5.607   7.295   8.408 -1.2491  1.0389  3.8287
   89CHL1  H26B 9061   5.631   7.209   8.554  1.4908  1.9569 -0.9191
   89CHL1  H26C 9062   5.670   7.126   8.407 -0.6310  0.4155 -2.3061
   89CHL1   C27 9063   5.362   7.261   8.519  0.5335 -0.2562 -0.5374
   89CHL1  H27A 9064   5.253   7.242   8.519  0.2605  1.2287 -0.3169
   89CHL1  H27B 9065   5.391   7.275   8.625 -1.0018  0.7574 -0.2219
   89CHL1  H27C 9066   5.375   7.358   8.466 -2.2336  0.5983  0.1558
   90CHL1    C3 9067   4.405   1.783   7.063  0.1649 -0.2304  0.2713
   90CHL1    H3 9068   4.340   1.873   7.077  1.9394  1.2738 -0.7242
   90CHL1    O3 9069   4.389   1.730   6.929 -0.0092 -0.7726 -0.1548
   90CHL1   H3' 9070   4.457   1.663   6.929  0.0719 -0.7238  1.5541
   90CHL1    C4 9071   4.552   1.829   7.092  0.1114 -0.1101 -0.0893
   90CHL1   H4A 9072   4.614   1.741   7.067 -2.8831 -2.1603 -0.7651
   90CHL1   H4B 9073   4.573   1.919   7.030  1.3906  0.2794  0.8664
   90CHL1    C5 9074   4.562   1.868   7.238  0.3600  0.4249  0.2303
   90CHL1    C6 9075   4.599   1.999   7.272 -0.2098  0.9898  0.4135
   90CHL1    H6 9076   4.614   2.076   7.195 -3.7206  0.7976 -0.6333
   90CHL1    C7 9077   4.639   2.035   7.414  0.1045  0.2557  0.7659
   90CHL1   H7A 9078   4.731   2.096   7.409  0.8757 -0.9808 -1.6902
   90CHL1   H7B 9079   4.554   2.100   7.445  0.7588  0.4897  2.1467
   90CHL1    C8 9080   4.639   1.921   7.518 -0.1136 -0.5559 -0.8451
   90CHL1    H8 9081   4.735   1.868   7.499  0.5905 -0.2412  1.6185
   90CHL1   C14 9082   4.628   1.977   7.655  0.2270 -0.2196 -0.5905
   90CHL1   H14 9083   4.529   2.025   7.671  0.3266 -0.5283  1.1830
   90CHL1   C15 9084   4.739   2.079   7.697  1.1400  0.3050 -0.3648
   90CHL1  H15A 9085   4.834   2.033   7.660  1.4200 -0.0339  0.7279
   90CHL1  H15B 9086   4.731   2.177   7.645  1.7072 -0.0227 -1.0970
   90CHL1   C16 9087   4.736   2.069   7.848 -0.5435 -0.1864 -0.0493
   90CHL1  H16A 9088   4.841   2.061   7.884 -0.1289  1.7334 -0.6686
   90CHL1  H16B 9089   4.697   2.159   7.900  1.4423  0.7393 -0.0774
   90CHL1   C17 9090   4.628   1.954   7.891  0.0692  0.1143 -0.3425
   90CHL1   H17 9091   4.523   1.991   7.895  0.2761  0.8915 -1.4301
   90CHL1   C13 9092   4.628   1.869   7.767  0.2027  0.1475 -0.9106
   90CHL1   C18 9093   4.764   1.783   7.765  1.0823  0.3528  0.0321
   90CHL1  H18A 9094   4.854   1.848   7.756 -0.1734  2.5912  2.2540
   90CHL1  H18B 9095   4.775   1.732   7.864 -1.7271  0.0514  0.2618
   90CHL1  H18C 9096   4.756   1.702   7.690 -1.3553 -0.8709  1.5096
   90CHL1   C12 9097   4.506   1.783   7.737  0.1776  0.4469 -0.8112
   90CHL1  H12A 9098   4.497   1.688   7.794 -1.8946  1.6418  0.9719
   90CHL1  H12B 9099   4.415   1.839   7.765 -0.7623 -2.1904  1.8591
   90CHL1   C11 9100   4.500   1.724   7.598 -0.1320  0.0107  0.1451
   90CHL1  H11A 9101   4.576   1.644   7.588 -0.3681 -0.0816 -0.9849
   90CHL1  H11B 9102   4.402   1.675   7.580  0.0598 -0.1407 -0.5077
   90CHL1    C9 9103   4.518   1.832   7.488  0.4536  0.2780 -0.1111
   90CHL1    H9 9104   4.428   1.896   7.496  1.9257  2.7472 -1.7102
   90CHL1   C10 9105   4.521   1.767   7.341 -0.2843  0.4894 -1.4367
   90CHL1   C19 9106   4.620   1.650   7.332 -0.5314  0.3594 -0.9944
   90CHL1  H19A 9107   4.580   1.568   7.394 -0.3707  1.5410  0.7411
   90CHL1  H19B 9108   4.642   1.607   7.231  1.1630 -0.8690 -0.1497
   90CHL1  H19C 9109   4.720   1.677   7.372 -0.3633 -1.5862 -0.0227
   90CHL1    C1 9110   4.372   1.721   7.308 -0.8717  0.4727 -0.6786
   90CHL1   H1A 9111   4.337   1.655   7.391  2.5845  0.4228  0.9299
   90CHL1   H1B 9112   4.307   1.811   7.310 -0.5197  0.7700 -2.0436
   90CHL1    C2 9113   4.361   1.672   7.160 -0.4834  0.1828 -0.2130
   90CHL1   H2A 9114   4.260   1.631   7.139 -0.2956  0.0083 -0.8004
   90CHL1   H2B 9115   4.431   1.586   7.158  0.1486  0.4601  3.1651
   90CHL1   C20 9116   4.662   1.908   8.032 -0.1225  0.3375 -0.4163
   90CHL1   H20 9117   4.771   1.885   8.031  0.2213  1.8751 -0.2128
   90CHL1   C21 9118   4.587   1.771   8.074 -0.0983 -0.2278 -0.2429
   90CHL1  H21A 9119   4.478   1.787   8.062 -1.0387 -3.1705  2.7259
   90CHL1  H21B 9120   4.600   1.733   8.178 -3.7637 -1.4687 -0.0768
   90CHL1  H21C 9121   4.618   1.685   8.011  0.1040  0.2621 -0.8252
   90CHL1   C22 9122   4.645   2.020   8.138 -0.6630 -0.0294 -0.2307
   90CHL1  H22A 9123   4.737   2.080   8.122 -2.1363  2.2838 -0.5046
   90CHL1  H22B 9124   4.560   2.083   8.103 -0.3791  0.7970  0.5408
   90CHL1   C23 9125   4.618   1.981   8.286 -0.1601 -0.3296  0.1131
   90CHL1  H23A 9126   4.534   1.910   8.285 -2.1970  1.9442 -0.3114
   90CHL1  H23B 9127   4.704   1.930   8.335  0.7825  1.9455  0.9776
   90CHL1   C24 9128   4.582   2.112   8.361  0.2034  0.1565 -0.2251
   90CHL1  H24A 9129   4.496   2.167   8.318  0.4509  0.3715 -0.4444
   90CHL1  H24B 9130   4.553   2.079   8.463  3.1327  0.1006  0.6975
   90CHL1   C25 9131   4.697   2.212   8.393  0.8150  0.3940 -0.2281
   90CHL1   H25 9132   4.725   2.268   8.301 -0.5804  0.0124 -0.9198
   90CHL1   C26 9133   4.642   2.313   8.506 -1.0899  0.5420 -0.6384
   90CHL1  H26A 9134   4.615   2.255   8.597  0.1116  1.4155  0.3105
   90CHL1  H26B 9135   4.716   2.391   8.533  0.1310 -1.0309  0.8771
   90CHL1  H26C 9136   4.553   2.367   8.468 -1.1476  0.6657 -0.3342
   90CHL1   C27 9137   4.818   2.141   8.445 -0.4304 -0.4607 -1.2294
   90CHL1  H27A 9138   4.880   2.089   8.369  1.9229  0.5892 -0.1517
   90CHL1  H27B 9139   4.885   2.211   8.499  0.9730 -1.1672 -2.0029
   90CHL1  H27C 9140   4.774   2.074   8.521 -2.3401  0.6952 -1.2570
   91CHL1    C3 9141   5.079   4.633   7.277  0.0748  0.3268 -0.1141
   91CHL1    H3 9142   5.031   4.728   7.310 -1.1367 -1.0480  2.4330
   91CHL1    O3 9143   5.106   4.653   7.143 -0.0363 -0.3374 -0.0509
   91CHL1   H3' 9144   5.197   4.625   7.132  0.1455 -1.8079  3.7923
   91CHL1    C4 9145   5.214   4.611   7.357  0.3305 -0.2568  0.1996
   91CHL1   H4A 9146   5.251   4.517   7.311 -0.1184 -0.6418  0.6187
   91CHL1   H4B 9147   5.289   4.691   7.339  1.0589 -0.9621  0.0093
   91CHL1    C5 9148   5.197   4.591   7.506  0.1939  0.0832  0.3449
   91CHL1    C6 9149   5.261   4.669   7.593  0.2773  0.2457  0.5949
   91CHL1    H6 9150   5.331   4.745   7.555  1.3430 -1.0814 -0.1849
   91CHL1    C7 9151   5.254   4.649   7.743  0.4116  0.1640  0.0539
   91CHL1   H7A 9152   5.357   4.649   7.783  0.0606  0.9244  1.0066
   91CHL1   H7B 9153   5.190   4.725   7.794  0.4658 -0.5257  1.1834
   91CHL1    C8 9154   5.176   4.517   7.778 -0.7604 -0.3206  0.2569
   91CHL1    H8 9155   5.254   4.438   7.773 -0.0642  0.1581  2.4071
   91CHL1   C14 9156   5.134   4.538   7.924 -0.0267  0.0439  0.0366
   91CHL1   H14 9157   5.049   4.609   7.930  1.4525  1.7523  2.1991
   91CHL1   C15 9158   5.230   4.590   8.028 -0.1696  0.2773 -0.4340
   91CHL1  H15A 9159   5.327   4.536   8.016 -0.5008 -0.5948  0.6440
   91CHL1  H15B 9160   5.247   4.697   8.004 -0.2768  0.2495 -0.6318
   91CHL1   C16 9161   5.172   4.544   8.159  0.3119 -0.0123  0.2469
   91CHL1  H16A 9162   5.245   4.480   8.212  0.0715  1.4246  2.4702
   91CHL1  H16B 9163   5.167   4.630   8.230 -0.7649  0.4002 -0.2941
   91CHL1   C17 9164   5.043   4.460   8.124 -0.0498  0.0242  0.1363
   91CHL1   H17 9165   4.967   4.541   8.129  0.6511  0.6366  1.9202
   91CHL1   C13 9166   5.071   4.412   7.976 -0.3434 -0.6275 -0.6680
   91CHL1   C18 9167   5.170   4.292   7.975  0.4167  1.2310 -0.1614
   91CHL1  H18A 9168   5.119   4.209   8.029 -1.0333  2.7872  0.9441
   91CHL1  H18B 9169   5.190   4.262   7.870 -2.6079  0.1915 -0.5450
   91CHL1  H18C 9170   5.265   4.314   8.028  2.1399  0.5116 -2.7766
   91CHL1   C12 9171   4.946   4.372   7.894  0.0476 -0.2249 -0.8607
   91CHL1  H12A 9172   4.903   4.276   7.927 -0.9231  0.1798 -0.9325
   91CHL1  H12B 9173   4.871   4.450   7.918 -0.6331 -0.9717 -0.5547
   91CHL1   C11 9174   4.971   4.364   7.745  0.4125 -0.3342  0.2015
   91CHL1  H11A 9175   5.034   4.274   7.736  1.3710  0.3148  0.3186
   91CHL1  H11B 9176   4.877   4.345   7.689  0.8644 -0.6305 -0.4570
   91CHL1    C9 9177   5.046   4.489   7.698 -0.5069 -0.9722  0.0046
   91CHL1    H9 9178   4.981   4.578   7.711  2.0211  0.9351  0.4479
   91CHL1   C10 9179   5.087   4.483   7.542 -0.3474 -0.6730  0.4611
   91CHL1   C19 9180   5.153   4.347   7.512  1.0837 -0.0771  0.3056
   91CHL1  H19A 9181   5.074   4.268   7.513 -0.4154  1.3551  0.3868
   91CHL1  H19B 9182   5.193   4.334   7.409 -0.0560  2.6093 -0.5676
   91CHL1  H19C 9183   5.235   4.316   7.579 -0.2453 -0.0412  2.0081
   91CHL1    C1 9184   4.962   4.510   7.462  0.3049  0.0984  0.2803
   91CHL1   H1A 9185   4.889   4.428   7.477  0.2014  0.0303 -0.5206
   91CHL1   H1B 9186   4.919   4.608   7.491 -1.8781 -0.9426  0.7874
   91CHL1    C2 9187   4.979   4.523   7.308 -0.4792 -0.0798  0.8834
   91CHL1   H2A 9188   4.880   4.549   7.266 -0.6158  2.2817  2.5091
   91CHL1   H2B 9189   5.008   4.422   7.271  1.5770  0.7762 -0.0318
   91CHL1   C20 9190   5.016   4.355   8.243  0.0335 -0.7900 -0.4218
   91CHL1   H20 9191   5.079   4.264   8.225  1.7387  0.4474 -0.9807
   91CHL1   C21 9192   4.868   4.311   8.229  0.5075  0.1072 -0.4427
   91CHL1  H21A 9193   4.858   4.272   8.125 -0.9535  0.1340 -0.3413
   91CHL1  H21B 9194   4.789   4.389   8.236 -1.4654 -1.5161 -2.8489
   91CHL1  H21C 9195   4.830   4.237   8.304 -0.8309  1.1935 -0.0024
   91CHL1   C22 9196   5.044   4.407   8.391 -0.0148  0.7071  0.3565
   91CHL1  H22A 9197   5.155   4.418   8.395 -0.1148  1.5130  2.0882
   91CHL1  H22B 9198   4.991   4.505   8.401 -0.6273  0.3603  0.5475
   91CHL1   C23 9199   4.999   4.313   8.506 -0.0566 -0.4913  0.3664
   91CHL1  H23A 9200   4.888   4.305   8.513 -0.2380  1.1182 -0.1555
   91CHL1  H23B 9201   5.024   4.209   8.477  1.6956  0.2165 -0.8232
   91CHL1   C24 9202   5.063   4.345   8.639 -0.0844  0.2614  0.3748
   91CHL1  H24A 9203   5.173   4.334   8.639 -0.1705 -0.7664  1.1674
   91CHL1  H24B 9204   5.041   4.447   8.677 -1.9165  0.2199 -0.4648
   91CHL1   C25 9205   5.009   4.247   8.758  0.0211  0.4034  0.0914
   91CHL1   H25 9206   4.899   4.258   8.764  0.2386  2.7358  0.8896
   91CHL1   C26 9207   5.027   4.095   8.740 -0.0336  0.8219 -0.0851
   91CHL1  H26A 9208   4.973   4.043   8.822  1.2707  1.7973  1.4742
   91CHL1  H26B 9209   4.990   4.061   8.642  0.0086 -0.0024  0.1735
   91CHL1  H26C 9210   5.136   4.075   8.739 -0.5639 -2.5484 -1.7735
   91CHL1   C27 9211   5.073   4.291   8.894  0.5513  0.2637 -0.1520
   91CHL1  H27A 9212   5.034   4.223   8.972 -0.5888  1.8163  0.6895
   91CHL1  H27B 9213   5.181   4.275   8.873  0.5603 -0.6800  0.5545
   91CHL1  H27C 9214   5.063   4.398   8.919 -0.4554  0.2080 -0.2792
   92CHL1    C3 9215   1.669   2.014   6.916  0.2740  0.5336 -0.2908
   92CHL1    H3 9216   1.764   1.957   6.904 -2.4277 -4.3622 -1.3252
   92CHL1    O3 9217   1.628   2.034   6.780 -0.4610 -0.0494  0.1433
   92CHL1   H3' 9218   1.692   1.993   6.721  0.1023  1.2957 -0.2110
   92CHL1    C4 9219   1.564   1.920   6.993  0.3084 -1.1046 -0.2812
   92CHL1   H4A 9220   1.473   1.982   6.979  0.5232 -1.3141 -3.2311
   92CHL1   H4B 9221   1.562   1.826   6.934  0.5363 -1.8815  0.9087
   92CHL1    C5 9222   1.607   1.895   7.134 -0.7294  0.4158 -0.0483
   92CHL1    C6 9223   1.638   1.769   7.184  0.0856 -0.1410 -1.1500
   92CHL1    H6 9224   1.633   1.681   7.118  0.5469  1.0370 -2.8222
   92CHL1    C7 9225   1.669   1.745   7.327  0.5579  0.1674  0.0445
   92CHL1   H7A 9226   1.615   1.654   7.360  1.5344 -0.3656  0.1989
   92CHL1   H7B 9227   1.777   1.722   7.316  0.4370  0.6782 -3.2835
   92CHL1    C8 9228   1.650   1.861   7.421 -0.1681 -0.2470  0.1578
   92CHL1    H8 9229   1.541   1.879   7.437 -0.6137 -0.2234 -2.4188
   92CHL1   C14 9230   1.714   1.834   7.560  0.0445 -0.3858 -0.2970
   92CHL1   H14 9231   1.820   1.816   7.535  0.4540 -3.1645  2.8073
   92CHL1   C15 9232   1.674   1.708   7.643 -0.3094 -0.3074  0.2804
   92CHL1  H15A 9233   1.566   1.682   7.638 -0.8161  1.4494  1.2368
   92CHL1  H15B 9234   1.723   1.614   7.611  0.3278  0.9684 -2.8480
   92CHL1   C16 9235   1.716   1.745   7.784 -0.3116 -0.0975  0.4471
   92CHL1  H16A 9236   1.620   1.745   7.838 -0.5437 -0.2115  0.0396
   92CHL1  H16B 9237   1.789   1.673   7.827 -0.5152  0.0983  1.1337
   92CHL1   C17 9238   1.774   1.892   7.778 -0.3138 -0.1164  0.2136
   92CHL1   H17 9239   1.881   1.873   7.755 -0.2319  0.6307 -0.0597
   92CHL1   C13 9240   1.704   1.948   7.660 -0.3576 -0.7080 -0.3212
   92CHL1   C18 9241   1.562   1.986   7.695  0.1965  0.5773 -0.0575
   92CHL1  H18A 9242   1.555   2.091   7.732 -1.3475  0.7198 -0.6894
   92CHL1  H18B 9243   1.497   1.975   7.606  0.1536 -3.0285  0.2722
   92CHL1  H18C 9244   1.515   1.924   7.775  0.8116  1.7903  1.3013
   92CHL1   C12 9245   1.775   2.073   7.587  0.8380 -0.5270  0.5081
   92CHL1  H12A 9246   1.757   2.156   7.659  2.4433 -1.5505  2.1663
   92CHL1  H12B 9247   1.884   2.064   7.571  0.8194 -0.1146  0.1060
   92CHL1   C11 9248   1.693   2.105   7.457 -0.4326 -0.5287 -0.6240
   92CHL1  H11A 9249   1.586   2.122   7.481 -0.2874  0.0634 -0.3844
   92CHL1  H11B 9250   1.741   2.197   7.417 -0.9170  0.3912  0.8313
   92CHL1    C9 9251   1.697   1.989   7.360  0.3564  0.1666  0.0527
   92CHL1    H9 9252   1.806   1.972   7.344  0.1067 -1.2394 -0.2674
   92CHL1   C10 9253   1.636   2.017   7.222  0.3660 -0.2081 -0.3753
   92CHL1   C19 9254   1.500   2.097   7.241 -0.2942  0.8700 -0.4725
   92CHL1  H19A 9255   1.511   2.201   7.277 -1.3440  0.0698  2.4723
   92CHL1  H19B 9256   1.453   2.109   7.140 -0.3643 -0.3132 -0.5944
   92CHL1  H19C 9257   1.422   2.042   7.299 -1.0544  1.8830 -0.5040
   92CHL1    C1 9258   1.731   2.107   7.140 -0.2710  0.1350 -0.0315
   92CHL1   H1A 9259   1.761   2.192   7.204 -2.4224  0.1586  1.0478
   92CHL1   H1B 9260   1.829   2.055   7.141 -0.5073 -0.3795 -1.3524
   92CHL1    C2 9261   1.698   2.140   7.000  0.7623  0.1183  0.7629
   92CHL1   H2A 9262   1.776   2.205   6.955  1.8236  0.3291  2.8026
   92CHL1   H2B 9263   1.608   2.204   7.011 -1.9826 -3.2174 -0.6085
   92CHL1   C20 9264   1.789   1.959   7.911 -0.3205 -0.1993 -0.3806
   92CHL1   H20 9265   1.694   2.001   7.950 -1.2054 -0.5436 -2.0528
   92CHL1   C21 9266   1.884   2.077   7.909 -0.0783  0.6308 -0.0999
   92CHL1  H21A 9267   1.873   2.115   8.013 -1.7809 -1.8407  0.7109
   92CHL1  H21B 9268   1.826   2.150   7.848 -1.5462 -2.7841 -3.1376
   92CHL1  H21C 9269   1.986   2.068   7.865  0.8778 -3.2114  2.3724
   92CHL1   C22 9270   1.839   1.851   8.015  0.4184  0.3716  0.7883
   92CHL1  H22A 9271   1.757   1.781   8.043  2.1639 -2.2678 -0.2328
   92CHL1  H22B 9272   1.914   1.780   7.973 -3.0605 -2.3455 -1.4567
   92CHL1   C23 9273   1.897   1.907   8.147  0.1903  0.2502 -0.5831
   92CHL1  H23A 9274   1.987   1.967   8.123  0.4630  0.7136  1.4507
   92CHL1  H23B 9275   1.818   1.965   8.197  0.9985 -1.4460  3.0228
   92CHL1   C24 9276   1.939   1.799   8.251 -0.1979  0.5236  0.4165
   92CHL1  H24A 9277   1.842   1.745   8.262 -1.0764  1.4860 -1.9638
   92CHL1  H24B 9278   2.008   1.732   8.196 -1.2586 -0.6661  0.4739
   92CHL1   C25 9279   1.993   1.845   8.389  0.2795  0.2551  0.1448
   92CHL1   H25 9280   1.900   1.869   8.445  0.2446  0.7505 -0.1216
   92CHL1   C26 9281   2.041   1.719   8.463  0.0149  0.0464 -0.1894
   92CHL1  H26A 9282   2.121   1.664   8.408 -2.1209 -1.2786 -2.1612
   92CHL1  H26B 9283   2.084   1.747   8.562 -1.3338 -0.0551  0.4486
   92CHL1  H26C 9284   1.957   1.646   8.476 -0.6813  0.8676  0.0322
   92CHL1   C27 9285   2.091   1.967   8.389 -0.4118 -0.3118  0.1076
   92CHL1  H27A 9286   2.035   2.043   8.330 -0.0395 -0.4537 -0.4395
   92CHL1  H27B 9287   2.114   1.996   8.493 -0.9608 -1.9953  0.7364
   92CHL1  H27C 9288   2.188   1.928   8.351  0.1522 -1.0759  2.2306
   93CHL1    C3 9289   0.383   2.152   6.838 -0.3176 -0.7010 -0.5973
   93CHL1    H3 9290   0.273   2.150   6.848 -0.3530 -1.4699 -1.0766
   93CHL1    O3 9291   0.429   2.167   6.705  0.1283  0.2361  0.2716
   93CHL1   H3' 9292   0.525   2.164   6.701  0.1731  1.7603 -3.1372
   93CHL1    C4 9293   0.432   2.268   6.921  0.5267  0.0519 -0.6657
   93CHL1   H4A 9294   0.541   2.286   6.909  0.5381 -0.3830 -1.3180
   93CHL1   H4B 9295   0.382   2.360   6.883  1.3099  0.9861  0.4968
   93CHL1    C5 9296   0.391   2.254   7.065 -0.8380 -0.4511  0.4196
   93CHL1    C6 9297   0.320   2.349   7.126  0.0577 -0.2658  0.3290
   93CHL1    H6 9298   0.281   2.436   7.071 -0.6373 -0.0278  1.1812
   93CHL1    C7 9299   0.290   2.350   7.271  0.2718  0.1819  0.8275
   93CHL1   H7A 9300   0.298   2.447   7.324  1.4536  0.1869  0.6809
   93CHL1   H7B 9301   0.191   2.300   7.277  0.6678 -1.0316 -1.5331
   93CHL1    C8 9302   0.375   2.242   7.351 -0.3826  0.4888 -0.2891
   93CHL1    H8 9303   0.479   2.280   7.358 -0.1306 -0.2752  0.3627
   93CHL1   C14 9304   0.313   2.219   7.488 -0.0919  0.1505  0.4551
   93CHL1   H14 9305   0.211   2.176   7.484  1.2886 -3.5376  0.8519
   93CHL1   C15 9306   0.314   2.338   7.577  0.3526  0.6905 -0.0451
   93CHL1  H15A 9307   0.410   2.394   7.572  1.4828 -1.2869 -1.9742
   93CHL1  H15B 9308   0.220   2.397   7.572 -0.0119  0.0887 -0.4074
   93CHL1   C16 9309   0.300   2.286   7.720  0.2608 -0.7118  0.5256
   93CHL1  H16A 9310   0.380   2.333   7.781  0.2636 -0.7409  0.5444
   93CHL1  H16B 9311   0.207   2.312   7.776  0.4337 -1.0832  0.9916
   93CHL1   C17 9312   0.319   2.133   7.711  0.0650  0.3522 -0.4770
   93CHL1   H17 9313   0.215   2.093   7.702  0.5720 -0.8510 -1.1010
   93CHL1   C13 9314   0.380   2.112   7.572 -0.5441 -0.5174 -0.4247
   93CHL1   C18 9315   0.530   2.134   7.589 -0.3906 -0.1811 -0.6370
   93CHL1  H18A 9316   0.559   2.215   7.659  2.0101 -0.6453 -0.9915
   93CHL1  H18B 9317   0.560   2.037   7.634  0.7336 -0.7561 -2.5165
   93CHL1  H18C 9318   0.591   2.150   7.497  0.4904 -1.2945 -0.2689
   93CHL1   C12 9319   0.362   1.984   7.496 -0.9117 -0.1927 -0.1647
   93CHL1  H12A 9320   0.393   1.890   7.547  1.1144  0.5413  0.0308
   93CHL1  H12B 9321   0.253   1.968   7.485 -0.6871 -1.7451 -0.4371
   93CHL1   C11 9322   0.415   1.987   7.349  0.7552 -0.0931 -0.2292
   93CHL1  H11A 9323   0.525   1.974   7.362  0.9424 -2.8179 -3.2714
   93CHL1  H11B 9324   0.382   1.891   7.304  0.0238  0.9024 -1.9046
   93CHL1    C9 9325   0.370   2.110   7.267  0.4662  0.1517 -0.6376
   93CHL1    H9 9326   0.263   2.085   7.252  0.0909  0.9460  0.5888
   93CHL1   C10 9327   0.440   2.123   7.132 -0.1717  0.0882  0.3318
   93CHL1   C19 9328   0.595   2.134   7.152 -0.3238  0.3226  0.8819
   93CHL1  H19A 9329   0.641   2.041   7.191  0.3642  0.8208  1.2973
   93CHL1  H19B 9330   0.646   2.156   7.055 -3.0201 -0.1392 -0.7520
   93CHL1  H19C 9331   0.623   2.210   7.228  0.4054 -1.8589  2.9025
   93CHL1    C1 9332   0.398   2.010   7.045  0.4306  0.0019 -0.0319
   93CHL1   H1A 9333   0.440   1.915   7.085  0.5080 -0.1833 -0.5521
   93CHL1   H1B 9334   0.290   1.987   7.054  0.5361  0.0611  1.7781
   93CHL1    C2 9335   0.440   2.025   6.897  0.2646 -0.1131 -0.7644
   93CHL1   H2A 9336   0.413   1.932   6.843 -1.3913 -0.5328  0.6900
   93CHL1   H2B 9337   0.551   2.030   6.896  0.2597 -0.0610 -1.9003
   93CHL1   C20 9338   0.372   2.074   7.839  0.4449  0.7842 -0.4688
   93CHL1   H20 9339   0.474   2.113   7.859  0.9911 -1.3729  1.3126
   93CHL1   C21 9340   0.394   1.924   7.831  0.4537  0.1790 -0.2224
   93CHL1  H21A 9341   0.479   1.897   7.765  0.0297 -1.7871 -0.0278
   93CHL1  H21B 9342   0.299   1.875   7.802 -0.6648  1.1048  1.7347
   93CHL1  H21C 9343   0.421   1.884   7.931  2.1007 -0.7814 -1.0063
   93CHL1   C22 9344   0.279   2.105   7.964 -0.2078  0.3612 -0.0167
   93CHL1  H22A 9345   0.180   2.140   7.928 -0.5548 -0.9188 -0.3455
   93CHL1  H22B 9346   0.271   2.009   8.018  1.5402 -0.1690 -0.6335
   93CHL1   C23 9347   0.338   2.221   8.055  0.1628  0.1903 -0.3528
   93CHL1  H23A 9348   0.448   2.211   8.047  0.3118  0.5441  1.0119
   93CHL1  H23B 9349   0.308   2.318   8.010  2.4408  0.6246 -1.0953
   93CHL1   C24 9350   0.290   2.202   8.199 -0.0221  1.5508 -0.1875
   93CHL1  H24A 9351   0.181   2.218   8.216 -0.5197 -0.9849 -0.5467
   93CHL1  H24B 9352   0.317   2.095   8.218 -0.8007  1.5132  0.8644
   93CHL1   C25 9353   0.356   2.291   8.309 -0.2588  0.2220 -0.5864
   93CHL1   H25 9354   0.467   2.294   8.297  0.0168  1.8163  1.7975
   93CHL1   C26 9355   0.296   2.430   8.309 -0.2147  0.5486 -0.0136
   93CHL1  H26A 9356   0.295   2.480   8.210 -2.3733  0.5940 -0.0046
   93CHL1  H26B 9357   0.187   2.421   8.326 -0.5854  1.4905 -1.6136
   93CHL1  H26C 9358   0.351   2.498   8.377  1.5568  0.8319 -1.6495
   93CHL1   C27 9359   0.335   2.234   8.450  0.1668  0.5670  0.5912
   93CHL1  H27A 9360   0.408   2.263   8.529 -0.9738  0.4201  1.7299
   93CHL1  H27B 9361   0.232   2.252   8.487 -0.5490 -1.5010 -0.2242
   93CHL1  H27C 9362   0.338   2.123   8.439 -0.7006  0.7193 -1.8247
   94CHL1    C3 9363   2.789   2.634   7.059  0.3117  0.2340  0.1586
   94CHL1    H3 9364   2.826   2.531   7.077  0.1950  0.3945  1.4050
   94CHL1    O3 9365   2.746   2.661   6.921 -0.8665 -0.1223 -0.5888
   94CHL1   H3' 9366   2.731   2.756   6.925  3.5152  0.7523  1.7274
   94CHL1    C4 9367   2.655   2.647   7.143 -0.3594  0.1070  0.7442
   94CHL1   H4A 9368   2.606   2.743   7.115 -0.7629 -0.5956 -1.1262
   94CHL1   H4B 9369   2.588   2.569   7.099 -0.5469  1.0409 -0.7215
   94CHL1    C5 9370   2.683   2.615   7.287  0.0722 -0.4304  0.2609
   94CHL1    C6 9371   2.622   2.518   7.350 -0.3994 -0.1450  0.3394
   94CHL1    H6 9372   2.541   2.467   7.294 -0.9877 -0.8000  1.7463
   94CHL1    C7 9373   2.651   2.470   7.491 -0.1288 -0.0041  0.6110
   94CHL1   H7A 9374   2.548   2.456   7.531  0.1064 -0.5914  1.0107
   94CHL1   H7B 9375   2.704   2.374   7.505  1.5271  0.7275 -0.4043
   94CHL1    C8 9376   2.734   2.573   7.569 -0.2202  0.3812 -0.2001
   94CHL1    H8 9377   2.658   2.650   7.595  1.1589  1.1193  1.9883
   94CHL1   C14 9378   2.785   2.510   7.698  0.6392 -0.0574  0.3196
   94CHL1   H14 9379   2.857   2.435   7.658  0.0761 -0.7202  0.5303
   94CHL1   C15 9380   2.677   2.435   7.781  0.4066  0.2111 -0.4145
   94CHL1  H15A 9381   2.588   2.501   7.780  0.0157 -0.3145 -0.8882
   94CHL1  H15B 9382   2.668   2.336   7.731  1.3932  0.9372 -2.1413
   94CHL1   C16 9383   2.750   2.427   7.920  0.8787  0.3963  0.1705
   94CHL1  H16A 9384   2.684   2.466   8.000  2.1452  1.3736  0.7752
   94CHL1  H16B 9385   2.778   2.325   7.953 -1.1958  0.4359  2.3284
   94CHL1   C17 9386   2.884   2.510   7.908 -0.0046  0.3997  0.1311
   94CHL1   H17 9387   2.963   2.443   7.869  1.8017  1.6572  1.4303
   94CHL1   C13 9388   2.859   2.609   7.791 -0.0400 -0.0068 -0.9294
   94CHL1   C18 9389   2.769   2.724   7.847 -0.0301  0.5470 -0.4604
   94CHL1  H18A 9390   2.833   2.802   7.894  0.1654  0.1323 -0.0292
   94CHL1  H18B 9391   2.710   2.781   7.771 -0.3866  1.0059  0.1571
   94CHL1  H18C 9392   2.697   2.682   7.920  1.1744 -0.2502  0.2900
   94CHL1   C12 9393   2.977   2.664   7.705 -0.2637  0.3365 -0.3736
   94CHL1  H12A 9394   3.044   2.733   7.761  1.7224  0.5008 -2.7621
   94CHL1  H12B 9395   3.049   2.582   7.683 -1.6258 -0.8257 -0.5805
   94CHL1   C11 9396   2.924   2.729   7.577 -0.4768  0.2982 -0.0728
   94CHL1  H11A 9397   2.857   2.812   7.608 -0.0545  0.1421  1.3242
   94CHL1  H11B 9398   3.004   2.776   7.515  0.2763 -1.4939 -0.5371
   94CHL1    C9 9399   2.844   2.639   7.486 -0.0791  0.4519 -0.1169
   94CHL1    H9 9400   2.909   2.553   7.461  0.2976  1.0492 -1.2112
   94CHL1   C10 9401   2.797   2.696   7.351  0.5808  0.4373 -0.8274
   94CHL1   C19 9402   2.727   2.831   7.374  0.0254  0.0803 -0.1058
   94CHL1  H19A 9403   2.784   2.894   7.446 -1.6314  2.3501 -0.6539
   94CHL1  H19B 9404   2.721   2.892   7.280  2.8565  0.7193  0.0225
   94CHL1  H19C 9405   2.629   2.833   7.424  0.0455 -3.2135  0.2508
   94CHL1    C1 9406   2.922   2.715   7.265 -1.1408 -0.1126  0.1347
   94CHL1   H1A 9407   2.987   2.800   7.295  1.1953 -1.7566  0.0042
   94CHL1   H1B 9408   2.983   2.623   7.279 -0.3529  0.0437 -1.8963
   94CHL1    C2 9409   2.899   2.732   7.107 -0.3127  0.3171 -0.1425
   94CHL1   H2A 9410   2.997   2.716   7.056 -0.0866  0.6052  0.2030
   94CHL1   H2B 9411   2.860   2.832   7.080 -0.2732  0.1628 -0.8051
   94CHL1   C20 9412   2.940   2.569   8.033  0.4852  0.6947 -0.4602
   94CHL1   H20 9413   2.878   2.655   8.067  1.1917  0.9755  0.1445
   94CHL1   C21 9414   3.085   2.611   8.020 -0.3061 -0.0606 -0.0905
   94CHL1  H21A 9415   3.099   2.706   7.964  0.7361  1.5495  2.7114
   94CHL1  H21B 9416   3.144   2.535   7.965 -1.0624 -0.5454 -0.2541
   94CHL1  H21C 9417   3.142   2.645   8.109 -1.5055  0.1715  0.6073
   94CHL1   C22 9418   2.943   2.463   8.146  0.7291 -0.9559  0.0394
   94CHL1  H22A 9419   2.840   2.423   8.148 -0.2419  0.6922 -4.3499
   94CHL1  H22B 9420   3.012   2.382   8.114  2.8099  0.5567  0.3962
   94CHL1   C23 9421   2.972   2.508   8.288 -0.0463 -0.7763  0.3201
   94CHL1  H23A 9422   3.071   2.559   8.284 -0.6345  0.3113 -1.2220
   94CHL1  H23B 9423   2.902   2.590   8.315 -0.0043 -0.8416  0.6320
   94CHL1   C24 9424   2.984   2.388   8.391  0.5703  0.4727  0.1592
   94CHL1  H24A 9425   2.909   2.313   8.357  1.1585 -0.7027  1.3990
   94CHL1  H24B 9426   3.083   2.345   8.364  0.2130  0.4081 -1.1255
   94CHL1   C25 9427   2.951   2.427   8.541  0.1141 -0.0910  0.4869
   94CHL1   H25 9428   3.010   2.519   8.561 -0.9636  0.4353  1.4308
   94CHL1   C26 9429   2.806   2.471   8.561  0.1234 -0.5395  0.1588
   94CHL1  H26A 9430   2.788   2.508   8.664  0.4958 -1.3571  0.5302
   94CHL1  H26B 9431   2.767   2.556   8.501 -1.1918  1.8330  4.0336
   94CHL1  H26C 9432   2.739   2.384   8.546 -0.0395 -1.0260  3.1434
   94CHL1   C27 9433   2.985   2.311   8.633 -0.2410 -0.2187 -0.3171
   94CHL1  H27A 9434   2.966   2.349   8.736  0.4301 -1.5374  0.3163
   94CHL1  H27B 9435   2.922   2.222   8.611  2.2341 -1.9512 -0.9157
   94CHL1  H27C 9436   3.088   2.268   8.641 -0.5223 -0.9702 -0.6113
   95CHL1    C3 9437   3.567   0.014   6.873 -0.9624 -0.4708  0.7501
   95CHL1    H3 9438   3.601  -0.087   6.906  1.0559 -0.1913 -0.2866
   95CHL1    O3 9439   3.604   0.025   6.737  0.4746  0.3930 -0.6730
   95CHL1   H3' 9440   3.581   0.114   6.711 -2.8529 -0.3315 -0.6740
   95CHL1    C4 9441   3.419   0.009   6.890  0.2418  0.5060 -0.9485
   95CHL1   H4A 9442   3.379   0.100   6.841  1.3623  2.0756  0.9039
   95CHL1   H4B 9443   3.372  -0.071   6.829  1.7272  0.3323 -1.9077
   95CHL1    C5 9444   3.376   0.004   7.033  0.4616  1.0442  0.6434
   95CHL1    C6 9445   3.285  -0.091   7.085 -0.7024  0.5654  0.3911
   95CHL1    H6 9446   3.242  -0.166   7.017  2.9389  0.6690 -2.3660
   95CHL1    C7 9447   3.239  -0.090   7.225 -0.0655 -0.4109  0.2492
   95CHL1   H7A 9448   3.129  -0.106   7.236 -0.2565  1.2164  1.0914
   95CHL1   H7B 9449   3.279  -0.177   7.281  2.7085  0.7188  0.1686
   95CHL1    C8 9450   3.266   0.040   7.295 -0.5377  0.1921 -0.4962
   95CHL1    H8 9451   3.193   0.114   7.256  0.2827  0.1783 -2.1590
   95CHL1   C14 9452   3.254   0.021   7.451  0.4226 -0.8238  0.6781
   95CHL1   H14 9453   3.323  -0.057   7.490  2.5264  1.4870  1.8405
   95CHL1   C15 9454   3.114  -0.017   7.509 -0.1228 -0.3382 -0.0815
   95CHL1  H15A 9455   3.036   0.055   7.475  0.8915  0.3938 -0.9097
   95CHL1  H15B 9456   3.075  -0.120   7.490 -0.7116 -0.1873  0.2898
   95CHL1   C16 9457   3.135  -0.002   7.655 -0.9966 -0.6050  0.4133
   95CHL1  H16A 9458   3.047   0.059   7.688 -1.7524 -1.6205  0.3073
   95CHL1  H16B 9459   3.141  -0.100   7.706  2.5040 -0.9918 -0.5550
   95CHL1   C17 9460   3.265   0.088   7.679 -0.1287  1.2089 -0.6387
   95CHL1   H17 9461   3.353   0.024   7.703 -1.8656 -0.7671  0.7543
   95CHL1   C13 9462   3.293   0.146   7.535  0.4786  0.3186  0.0145
   95CHL1   C18 9463   3.190   0.265   7.511  0.2765 -0.2688 -0.0716
   95CHL1  H18A 9464   3.096   0.249   7.569  0.3396  1.0896  0.4287
   95CHL1  H18B 9465   3.228   0.356   7.562  0.9166  0.9948 -2.6822
   95CHL1  H18C 9466   3.173   0.283   7.403 -0.5996 -1.0774 -0.0836
   95CHL1   C12 9467   3.439   0.179   7.504 -1.2885  0.1091 -0.2243
   95CHL1  H12A 9468   3.479   0.258   7.571 -2.2276 -0.8926  1.6313
   95CHL1  H12B 9469   3.495   0.084   7.523 -2.3835 -0.8901 -1.7506
   95CHL1   C11 9470   3.466   0.196   7.357  1.0598 -0.4639  1.1884
   95CHL1  H11A 9471   3.435   0.302   7.344  2.0973 -0.0745  1.7320
   95CHL1  H11B 9472   3.576   0.207   7.344  0.7295  1.1371 -0.7441
   95CHL1    C9 9473   3.412   0.080   7.275 -0.2722 -0.0111  0.3520
   95CHL1    H9 9474   3.477  -0.008   7.296  0.6293  0.2583 -1.2188
   95CHL1   C10 9475   3.442   0.109   7.125 -0.2123 -0.2069 -0.3805
   95CHL1   C19 9476   3.378   0.246   7.089  0.1854 -0.3634  0.8090
   95CHL1  H19A 9477   3.424   0.326   7.152  0.1280 -1.3223  2.1222
   95CHL1  H19B 9478   3.380   0.274   6.982 -0.3971 -2.0488  0.3290
   95CHL1  H19C 9479   3.272   0.247   7.121  0.3880 -0.7279  1.5257
   95CHL1    C1 9480   3.599   0.113   7.104  0.0896 -0.1591 -0.9182
   95CHL1   H1A 9481   3.648   0.198   7.156 -1.7025  0.4187 -0.1070
   95CHL1   H1B 9482   3.645   0.020   7.145  0.4464 -0.5521 -2.1776
   95CHL1    C2 9483   3.637   0.131   6.954 -0.4720  0.0198 -1.1920
   95CHL1   H2A 9484   3.746   0.128   6.936  0.1816  0.7957  2.0099
   95CHL1   H2B 9485   3.591   0.227   6.922  0.5515  1.9223  2.5266
   95CHL1   C20 9486   3.262   0.183   7.798 -0.0676  0.0874 -0.0055
   95CHL1   H20 9487   3.189   0.262   7.771  0.2556  1.1074  1.9288
   95CHL1   C21 9488   3.401   0.250   7.822  0.5546 -0.0129 -0.1625
   95CHL1  H21A 9489   3.481   0.180   7.789 -1.6104 -2.5114 -0.4023
   95CHL1  H21B 9490   3.407   0.279   7.929 -0.4439 -1.4505  0.3266
   95CHL1  H21C 9491   3.418   0.332   7.749 -0.2112 -1.8433 -2.5400
   95CHL1   C22 9492   3.200   0.135   7.929 -0.2922  0.1503 -0.1952
   95CHL1  H22A 9493   3.190   0.221   7.999  1.3728  0.6172 -0.4866
   95CHL1  H22B 9494   3.101   0.096   7.895  0.5460  0.3142 -3.1098
   95CHL1   C23 9495   3.270   0.017   7.998 -0.4809 -0.3603 -0.6704
   95CHL1  H23A 9496   3.292  -0.065   7.927 -1.8824 -1.2994 -0.0639
   95CHL1  H23B 9497   3.364   0.055   8.044 -1.1960  0.1542  0.4205
   95CHL1   C24 9498   3.175  -0.055   8.096 -0.2047 -0.0262  0.1186
   95CHL1  H24A 9499   3.117   0.016   8.159  0.1469  0.3407  0.0303
   95CHL1  H24B 9500   3.100  -0.089   8.022  0.5721  0.5428 -0.9534
   95CHL1   C25 9501   3.232  -0.163   8.188 -0.2015  0.6422 -0.3672
   95CHL1   H25 9502   3.305  -0.115   8.256  2.1309 -2.1328 -0.7365
   95CHL1   C26 9503   3.120  -0.233   8.277  0.0870 -0.3824 -0.2140
   95CHL1  H26A 9504   3.051  -0.299   8.220 -0.5728 -0.2696  0.4327
   95CHL1  H26B 9505   3.164  -0.291   8.362 -0.4690  0.1943  0.4727
   95CHL1  H26C 9506   3.065  -0.146   8.317  0.9045  0.7810 -1.5219
   95CHL1   C27 9507   3.302  -0.272   8.106  0.5542  0.4063 -0.4273
   95CHL1  H27A 9508   3.241  -0.288   8.015  2.6691  1.9120 -2.2320
   95CHL1  H27B 9509   3.398  -0.236   8.063  1.7792 -0.2979  1.5763
   95CHL1  H27C 9510   3.327  -0.360   8.169  0.6562 -0.1600 -1.2409
   96CHL1    C3 9511   0.470   3.200   6.842  0.5419 -0.3050 -0.5940
   96CHL1    H3 9512   0.371   3.180   6.889 -0.5432  0.4468 -2.4538
   96CHL1    O3 9513   0.437   3.198   6.710  0.0494 -0.1534  0.5639
   96CHL1   H3' 9514   0.512   3.203   6.651 -1.8144 -0.2473 -1.9651
   96CHL1    C4 9515   0.523   3.333   6.887 -0.4747  0.0235  0.0401
   96CHL1   H4A 9516   0.612   3.366   6.830 -0.0684  0.1324  0.7167
   96CHL1   H4B 9517   0.455   3.418   6.870 -0.0552  0.1697 -0.9438
   96CHL1    C5 9518   0.563   3.328   7.037  0.1519  0.9823 -0.2782
   96CHL1    C6 9519   0.525   3.419   7.132 -0.2593  0.3307  0.0367
   96CHL1    H6 9520   0.444   3.487   7.103 -2.5756 -1.1554  2.5390
   96CHL1    C7 9521   0.562   3.409   7.279  0.2256 -0.0217 -0.1439
   96CHL1   H7A 9522   0.597   3.513   7.299 -0.1140 -0.2317  1.7273
   96CHL1   H7B 9523   0.468   3.383   7.332  0.8244 -1.0083  0.4601
   96CHL1    C8 9524   0.665   3.305   7.323 -0.8480 -0.3136  0.0172
   96CHL1    H8 9525   0.764   3.351   7.300 -0.8513 -0.2265  0.1768
   96CHL1   C14 9526   0.655   3.280   7.470 -0.2304  0.5275 -0.6232
   96CHL1   H14 9527   0.556   3.232   7.487 -0.5842  1.1902 -0.7442
   96CHL1   C15 9528   0.661   3.397   7.560  0.0692 -0.3680 -0.3450
   96CHL1  H15A 9529   0.733   3.472   7.521 -1.4442  0.5018 -1.5630
   96CHL1  H15B 9530   0.564   3.451   7.562  0.5198  0.4467  1.6157
   96CHL1   C16 9531   0.711   3.342   7.696 -0.1988  0.3686 -0.0373
   96CHL1  H16A 9532   0.802   3.401   7.719  0.1529 -0.8461  1.9230
   96CHL1  H16B 9533   0.639   3.372   7.775 -0.1534  1.6755 -0.4614
   96CHL1   C17 9534   0.727   3.187   7.672  0.7380 -0.9375  0.4060
   96CHL1   H17 9535   0.621   3.157   7.689 -0.1281  2.1169  1.1143
   96CHL1   C13 9536   0.751   3.174   7.519 -0.0252 -0.4355 -0.2797
   96CHL1   C18 9537   0.904   3.219   7.497  0.9382  0.8753  0.1249
   96CHL1  H18A 9538   0.922   3.310   7.558  2.6936  0.4267  0.3369
   96CHL1  H18B 9539   0.972   3.135   7.524 -1.2343 -0.7907  0.7083
   96CHL1  H18C 9540   0.902   3.251   7.390 -0.3790  0.2062 -0.0718
   96CHL1   C12 9541   0.719   3.041   7.443 -0.3738  0.2182 -0.1660
   96CHL1  H12A 9542   0.801   2.972   7.472 -0.5667 -0.3443 -0.9285
   96CHL1  H12B 9543   0.619   3.000   7.468 -1.2305  1.0462 -2.0005
   96CHL1   C11 9544   0.734   3.057   7.290  0.2314 -0.3017  0.3116
   96CHL1  H11A 9545   0.840   3.075   7.264  0.2581  1.4900  1.4721
   96CHL1  H11B 9546   0.694   2.964   7.244 -0.6733  1.0347 -1.7844
   96CHL1    C9 9547   0.647   3.175   7.236  0.7051  1.0232  0.0165
   96CHL1    H9 9548   0.543   3.144   7.262  0.8222  0.6553  0.0570
   96CHL1   C10 9549   0.643   3.201   7.083  0.1858  0.0018  0.3437
   96CHL1   C19 9550   0.787   3.223   7.028 -0.1803 -0.1326  0.5482
   96CHL1  H19A 9551   0.804   3.243   6.920 -0.8921 -1.1314  0.2375
   96CHL1  H19B 9552   0.834   3.305   7.087  1.7941 -0.2446 -0.7635
   96CHL1  H19C 9553   0.850   3.133   7.043  2.2368  0.4086 -4.4740
   96CHL1    C1 9554   0.586   3.072   7.016  0.1075  0.3048  0.2606
   96CHL1   H1A 9555   0.658   2.988   7.021  2.8624  2.5352  0.5875
   96CHL1   H1B 9556   0.487   3.047   7.061 -0.1037  0.1645 -0.2660
   96CHL1    C2 9557   0.568   3.086   6.865  0.1318 -1.0561 -0.4331
   96CHL1   H2A 9558   0.530   2.987   6.830 -1.1912 -0.7607  0.1264
   96CHL1   H2B 9559   0.662   3.110   6.811  1.6600  1.6747  3.0539
   96CHL1   C20 9560   0.814   3.105   7.772 -0.6304 -0.1220  0.2959
   96CHL1   H20 9561   0.915   3.104   7.725 -1.9389  0.5122 -2.7766
   96CHL1   C21 9562   0.759   2.960   7.787  0.5450 -0.1549  0.7770
   96CHL1  H21A 9563   0.725   2.912   7.692  1.7398  0.5961 -0.0419
   96CHL1  H21B 9564   0.665   2.965   7.847 -1.1932 -1.3818 -1.6225
   96CHL1  H21C 9565   0.825   2.896   7.849  0.4358  1.6953  2.9239
   96CHL1   C22 9566   0.820   3.169   7.912  0.6349  0.1903 -0.9704
   96CHL1  H22A 9567   0.884   3.260   7.908  0.2171  0.6644  1.3848
   96CHL1  H22B 9568   0.716   3.201   7.934  0.6094 -0.5971  0.1583
   96CHL1   C23 9569   0.881   3.088   8.025  0.1888  0.0858 -0.2599
   96CHL1  H23A 9570   0.818   3.001   8.054  1.3371 -0.6204  0.1546
   96CHL1  H23B 9571   0.979   3.044   7.999 -0.7293 -2.3822  0.1862
   96CHL1   C24 9572   0.911   3.180   8.140  0.2213 -0.0419  0.0004
   96CHL1  H24A 9573   0.956   3.270   8.093 -1.7558 -0.4338 -2.9220
   96CHL1  H24B 9574   0.816   3.201   8.193  0.2378 -3.0625  1.4484
   96CHL1   C25 9575   1.024   3.136   8.239 -0.1799 -0.6631 -0.0942
   96CHL1   H25 9576   1.111   3.123   8.171 -0.9752  1.0400 -1.5205
   96CHL1   C26 9577   1.052   3.253   8.339  0.1944 -0.8418 -0.7509
   96CHL1  H26A 9578   0.957   3.285   8.387  0.6589 -0.5041 -0.0359
   96CHL1  H26B 9579   1.133   3.234   8.414  0.0956 -1.0216 -0.6893
   96CHL1  H26C 9580   1.098   3.327   8.270  2.1172 -2.2854 -1.0969
   96CHL1   C27 9581   0.989   3.005   8.309  0.1924  0.3562  0.4085
   96CHL1  H27A 9582   0.903   3.020   8.377 -1.0320  0.6454 -1.1516
   96CHL1  H27B 9583   0.946   2.937   8.232 -0.4819  3.2813 -2.0249
   96CHL1  H27C 9584   1.073   2.964   8.369 -1.7787 -1.8910  1.7914
   97OSM      N 9585   4.703   0.533  11.715  0.2673 -0.5563  1.0773
   97OSM    C15 9586   4.621   0.452  11.811 -0.2983  0.4929 -0.3448
   97OSM   H15A 9587   4.620   0.492  11.911 -2.0605 -0.4186  0.0422
   97OSM   H15B 9588   4.665   0.353  11.820 -0.5762  0.5515  3.2798
   97OSM   H15C 9589   4.521   0.432  11.778  0.4355 -2.2052 -1.1616
   97OSM    C14 9590   4.649   0.671  11.712  0.3196  0.4231 -0.0283
   97OSM   H14A 9591   4.545   0.668  11.683  0.9128 -1.7255 -2.2821
   97OSM   H14B 9592   4.704   0.731  11.641 -1.7580 -0.1611 -2.2790
   97OSM   H14C 9593   4.640   0.706  11.814  3.0354  0.9878  0.0801
   97OSM    C13 9594   4.843   0.550  11.772 -0.0882 -0.5274  0.2899
   97OSM   H13A 9595   4.907   0.596  11.698  0.7737 -0.1258  1.2586
   97OSM   H13B 9596   4.890   0.458  11.803  0.7900 -0.2940 -0.3039
   97OSM   H13C 9597   4.836   0.607  11.864 -0.7233 -0.3643  0.1497
   97OSM    C12 9598   4.696   0.471  11.576 -0.4995  0.6088 -0.5455
   97OSM   H12A 9599   4.606   0.500  11.523 -0.1512  1.7756 -0.5301
   97OSM   H12B 9600   4.680   0.365  11.582  1.8584 -0.0079 -3.0849
   97OSM    C11 9601   4.822   0.495  11.480  0.0984 -0.9065 -1.1207
   97OSM   H11A 9602   4.812   0.416  11.402 -1.0961  0.0909 -2.0309
   97OSM   H11B 9603   4.924   0.486  11.523 -1.0027 -3.1426  1.3058
   97OSM      P 9604   4.692   0.661  11.329 -0.2184 -0.0948  0.0755
   97OSM    O13 9605   4.557   0.653  11.389  0.0678  0.2851  0.0931
   97OSM    O14 9606   4.729   0.793  11.270  0.2950  0.3726 -0.0904
   97OSM    O11 9607   4.711   0.550  11.222  0.4258  0.6144 -0.0608
   97OSM    O12 9608   4.816   0.631  11.434 -0.3513  0.3355 -0.2705
   97OSM    C1S 9609   4.728   0.585  11.082  0.0074 -0.6834  0.6655
   97OSM    H1S 9610   4.826   0.633  11.064  0.3557 -0.0739  3.5947
   97OSM    H1T 9611   4.647   0.657  11.056  0.4020 -0.6907 -0.6229
   97OSM     NF 9612   4.731   0.519  10.856 -0.1740 -0.3912  0.1959
   97OSM    HNF 9613   4.639   0.531  10.818  0.2083  1.8638 -0.1669
   97OSM    C2S 9614   4.734   0.464  10.990  0.1298  0.3376 -0.8260
   97OSM    H2S 9615   4.831   0.413  11.010 -0.4571 -0.4603  0.0995
   97OSM    C3S 9616   4.619   0.371  11.016 -0.1341  0.2279 -0.9997
   97OSM    H3S 9617   4.522   0.425  11.008 -0.3743  0.1224  0.8485
   97OSM     O3 9618   4.614   0.310  11.147 -0.7151  0.5834  0.1377
   97OSM    HO3 9619   4.666   0.372  11.198 -2.0603  1.7477  0.1634
   97OSM    C4S 9620   4.616   0.262  10.905  0.2330  0.3591 -0.2439
   97OSM    H4S 9621   4.714   0.234  10.864 -0.3181 -1.6651 -0.2736
   97OSM    C5S 9622   4.502   0.209  10.855  0.2476  0.2294 -0.2938
   97OSM    H5S 9623   4.402   0.245  10.884  0.6196  1.0745 -0.0292
   97OSM    C6S 9624   4.493   0.100  10.750  0.0574  0.1318 -0.0991
   97OSM    H6S 9625   4.432   0.143  10.667 -0.1848  2.5500  1.2530
   97OSM    H6T 9626   4.448   0.008  10.793  1.0846  1.2395  3.6902
   97OSM    C7S 9627   4.630   0.050  10.684  0.2213 -0.2118  0.9066
   97OSM    H7S 9628   4.698   0.010  10.762  2.3461 -2.7864 -2.0025
   97OSM    H7T 9629   4.678   0.130  10.624 -1.7895  1.8945  1.9225
   97OSM    C8S 9630   4.588  -0.074  10.600  0.0153 -0.0415 -0.8062
   97OSM    H8S 9631   4.493  -0.061  10.543 -1.8238 -0.1113  2.0466
   97OSM    H8T 9632   4.576  -0.162  10.666 -0.2535  0.0915 -0.6740
   97OSM    C9S 9633   4.705  -0.111  10.507 -0.6180 -0.2404  0.9672
   97OSM    H9S 9634   4.796  -0.140  10.564  1.2226  2.3371 -0.4859
   97OSM    H9T 9635   4.732  -0.018  10.453 -1.9246  0.8016  2.0359
   97OSM   C10S 9636   4.663  -0.221  10.402 -0.2959  0.5677 -0.6576
   97OSM   H10S 9637   4.559  -0.203  10.367 -1.2393  2.7459  2.7549
   97OSM   H10T 9638   4.663  -0.315  10.461  1.5778  0.8904 -0.0870
   97OSM   C11S 9639   4.768  -0.256  10.292 -0.4383 -0.0906 -0.0071
   97OSM   H11S 9640   4.856  -0.288  10.351 -0.1018 -0.6485 -0.7978
   97OSM   H11T 9641   4.803  -0.161  10.245 -0.5928  0.5833  1.1933
   97OSM   C12S 9642   4.714  -0.366  10.199  0.5071 -0.1281 -0.0376
   97OSM   H12S 9643   4.620  -0.335  10.150  0.9616  0.4965 -0.5237
   97OSM   H12T 9644   4.683  -0.449  10.266  0.8712 -0.8706 -0.7658
   97OSM   C13S 9645   4.824  -0.419  10.106 -0.0597  0.3509 -0.4159
   97OSM   H13S 9646   4.849  -0.518  10.150 -0.0558  0.2323 -0.6829
   97OSM   H13T 9647   4.907  -0.345  10.110  0.1812  0.0890 -0.5095
   97OSM   C14S 9648   4.773  -0.442   9.960 -0.4409  0.1306 -0.5805
   97OSM   H14S 9649   4.765  -0.343   9.910 -1.3363  1.2630  1.6369
   97OSM   H14T 9650   4.671  -0.487   9.960 -0.2922 -0.3925  2.4288
   97OSM   C15S 9651   4.875  -0.538   9.896  0.7143 -0.0927 -0.5367
   97OSM   H15S 9652   4.891  -0.627   9.960  0.8619  0.7384  0.6114
   97OSM   H15T 9653   4.973  -0.486   9.907  0.0690  1.0726 -0.0962
   97OSM   C16S 9654   4.828  -0.573   9.757 -0.8931 -0.0317 -0.3344
   97OSM   H16S 9655   4.836  -0.488   9.685  0.5062 -1.7217 -2.2868
   97OSM   H16T 9656   4.721  -0.601   9.765 -0.9151  0.0601 -0.3043
   97OSM   C17S 9657   4.906  -0.687   9.687  0.7584 -0.5258 -0.3028
   97OSM   H17S 9658   5.011  -0.651   9.693  0.7196 -0.6326  1.4041
   97OSM   H17T 9659   4.866  -0.702   9.584 -0.1596  0.4380 -0.1029
   97OSM   C18S 9660   4.871  -0.823   9.765 -0.2211  0.0770 -0.1218
   97OSM   H18S 9661   4.762  -0.834   9.785 -0.4759  0.7571 -1.0517
   97OSM   H18T 9662   4.928  -0.826   9.860 -0.3111 -0.4035 -0.0848
   97OSM   H18U 9663   4.899  -0.913   9.706 -0.7441 -0.1540 -0.0232
   97OSM    C1F 9664   4.836   0.587  10.815  0.3266 -0.2012 -0.6834
   97OSM     OF 9665   4.947   0.553  10.851 -1.0844 -0.3180 -0.2662
   97OSM    C2F 9666   4.810   0.713  10.743  0.0554 -0.0080 -0.0157
   97OSM    H2F 9667   4.819   0.796  10.816  2.0382 -2.2299  2.4713
   97OSM    H2G 9668   4.702   0.730  10.722  0.5083  2.7532 -0.5364
   97OSM    C3F 9669   4.888   0.729  10.616  0.4876  0.4161  0.8337
   97OSM    H3F 9670   4.872   0.653  10.537  0.0777  1.0036  0.3356
   97OSM    H3G 9671   4.997   0.734  10.639  0.3206  1.7807  1.4122
   97OSM    C4F 9672   4.855   0.865  10.551  0.4776 -0.6036  0.6683
   97OSM    H4F 9673   4.880   0.942  10.627 -0.6276  0.8378 -0.3661
   97OSM    H4G 9674   4.746   0.881  10.535  0.5842  0.9229  1.2922
   97OSM    C5F 9675   4.931   0.889  10.421  0.5941  0.3866 -0.2164
   97OSM    H5F 9676   5.034   0.914  10.451  1.3162 -3.0952  0.6802
   97OSM    H5G 9677   4.884   0.972  10.363 -0.2834 -0.2684 -0.4684
   97OSM    C6F 9678   4.937   0.780  10.320  0.3403  0.0804 -0.3622
   97OSM    H6F 9679   4.840   0.733  10.296 -0.1684  1.4903 -1.2068
   97OSM    H6G 9680   4.998   0.706  10.376  1.3487 -0.5624 -2.2149
   97OSM    C7F 9681   5.000   0.815  10.187 -0.5674 -0.4198  0.0192
   97OSM    H7F 9682   5.109   0.833  10.202 -0.2590  0.2390 -2.5405
   97OSM    H7G 9683   4.960   0.913  10.154  0.7585 -0.2510 -1.1843
   97OSM    C8F 9684   4.979   0.714  10.072 -0.6331  0.1251  0.7173
   97OSM    H8F 9685   5.012   0.769   9.982  0.4880  1.1006  1.6947
   97OSM    H8G 9686   4.869   0.702  10.060 -0.5967  0.8060 -0.4279
   97OSM    C9F 9687   5.040   0.584  10.097  0.4673 -0.3298  0.0566
   97OSM    H9F 9688   5.000   0.516  10.174  0.2447 -0.2554  0.0063
   97OSM   C10F 9689   5.139   0.527  10.030 -0.2954  0.8209  0.0744
   97OSM   H10F 9690   5.165   0.423  10.054 -0.7351  0.9173  1.0093
   97OSM   C11F 9691   5.202   0.590   9.908  0.4079 -0.3322 -0.3634
   97OSM   H11F 9692   5.311   0.598   9.925  0.3837 -2.5199  1.2261
   97OSM   H11G 9693   5.163   0.692   9.891  3.2419  0.7045 -1.1947
   97OSM   C12F 9694   5.177   0.506   9.787  0.1473  0.2808  0.1780
   97OSM   H12F 9695   5.074   0.473   9.763  1.2240 -1.4603 -2.5588
   97OSM   H12G 9696   5.242   0.417   9.797  0.0758  0.2776  0.6309
   97OSM   C13F 9697   5.220   0.578   9.665 -0.4642  0.3286  0.1952
   97OSM   H13F 9698   5.327   0.607   9.675 -0.3158 -0.7231  2.0444
   97OSM   H13G 9699   5.152   0.665   9.649 -0.4619  0.4920  1.0080
   97OSM   C14F 9700   5.208   0.479   9.549 -0.6251  1.0557  0.0340
   97OSM   H14F 9701   5.106   0.478   9.506  0.4125 -0.5534 -2.6200
   97OSM   H14G 9702   5.244   0.376   9.572 -1.0598  0.6412 -1.0897
   97OSM   C15F 9703   5.291   0.542   9.434  0.4345 -0.0527 -0.2914
   97OSM   H15F 9704   5.399   0.541   9.458  0.7104  0.7832 -1.3931
   97OSM   H15G 9705   5.262   0.648   9.413  0.6253 -0.0991 -0.8016
   97OSM   C16F 9706   5.266   0.456   9.309  0.0999  0.0693 -0.3628
   97OSM   H16F 9707   5.157   0.437   9.306  0.0468  0.1875  0.6511
   97OSM   H16G 9708   5.320   0.359   9.320  1.3225  0.7324 -0.3793
   97OSM   C17F 9709   5.327   0.510   9.187  0.0564  0.0970 -0.3684
   97OSM   H17F 9710   5.429   0.547   9.206 -0.2338  2.0597 -2.1854
   97OSM   H17G 9711   5.271   0.604   9.163  0.1518  0.1172 -0.5160
   97OSM   C18F 9712   5.318   0.422   9.068  0.1422  0.7688  0.0108
   97OSM   H18F 9713   5.218   0.373   9.057  2.5599 -4.5995 -1.3796
   97OSM   H18G 9714   5.386   0.335   9.082  1.6524  1.2353 -3.4410
   97OSM   H18H 9715   5.348   0.466   8.971  1.2468 -1.9780 -0.9996
   98OSM      N 9716   3.790   6.363  11.073  0.0029  0.3697  0.0038
   98OSM    C15 9717   3.846   6.461  11.174  0.6134 -0.0693 -0.1300
   98OSM   H15A 9718   3.826   6.561  11.139  0.1924  0.0968  0.5642
   98OSM   H15B 9719   3.953   6.469  11.184  0.6998 -0.2054 -0.8983
   98OSM   H15C 9720   3.810   6.432  11.272  0.8794 -1.1237 -0.3315
   98OSM    C14 9721   3.820   6.229  11.127  0.0105  0.1490  0.2111
   98OSM   H14A 9722   3.783   6.155  11.057 -0.9289  0.5377  0.2740
   98OSM   H14B 9723   3.769   6.213  11.221 -1.0551 -1.2287 -0.5454
   98OSM   H14C 9724   3.927   6.214  11.130  0.0584  0.3276 -0.3810
   98OSM    C13 9725   3.636   6.376  11.060 -0.5611 -0.7193  1.0831
   98OSM   H13A 9726   3.621   6.473  11.015 -0.3858 -0.7375  0.9844
   98OSM   H13B 9727   3.585   6.370  11.155 -0.5967  1.3336  1.2369
   98OSM   H13C 9728   3.599   6.301  10.991 -0.3236  0.0340  0.1074
   98OSM    C12 9729   3.851   6.394  10.937 -0.7767  0.0021 -0.5682
   98OSM   H12A 9730   3.799   6.482  10.901 -1.0046 -0.3004 -0.9869
   98OSM   H12B 9731   3.837   6.316  10.863  1.4223 -0.7087 -0.2869
   98OSM    C11 9732   4.003   6.425  10.927  0.8593 -0.2217 -0.3129
   98OSM   H11A 9733   4.024   6.522  10.977 -2.6544  0.4965  0.0213
   98OSM   H11B 9734   4.026   6.441  10.820  0.9629  0.8690 -0.1397
   98OSM      P 9735   4.201   6.328  11.075 -0.3235  0.0975  0.5772
   98OSM    O13 9736   4.184   6.424  11.181  0.0557 -0.4911  0.2879
   98OSM    O14 9737   4.221   6.195  11.130 -0.0479  0.5419  0.1305
   98OSM    O11 9738   4.325   6.361  10.983  0.3865  0.3159 -0.3110
   98OSM    O12 9739   4.081   6.315  10.973 -0.2214  0.0722 -0.3234
   98OSM    C1S 9740   4.334   6.306  10.849  0.1450  1.0236 -0.6743
   98OSM    H1S 9741   4.248   6.346  10.792  1.3934  2.8059 -1.3846
   98OSM    H1T 9742   4.323   6.195  10.851 -1.0833  1.1442  0.6119
   98OSM     NF 9743   4.501   6.279  10.657 -0.4775  0.6980 -0.0982
   98OSM    HNF 9744   4.585   6.225  10.658 -1.8359 -1.5691 -0.3386
   98OSM    C2S 9745   4.475   6.342  10.782  0.3317 -0.0111 -0.4884
   98OSM    H2S 9746   4.471   6.451  10.760 -0.1036  0.8157  3.0269
   98OSM    C3S 9747   4.595   6.320  10.886  0.0207  0.3806 -0.5654
   98OSM    H3S 9748   4.611   6.212  10.903  1.7086  0.9161  1.8026
   98OSM     O3 9749   4.575   6.367  11.020  0.0383 -0.2213 -0.3543
   98OSM    HO3 9750   4.480   6.379  11.017 -0.1041 -1.0882  0.1814
   98OSM    C4S 9751   4.719   6.374  10.833 -0.5503  0.4135  0.6965
   98OSM    H4S 9752   4.717   6.484  10.828 -1.0555  0.3551 -1.2329
   98OSM    C5S 9753   4.827   6.305  10.791 -0.1858 -0.1550 -0.0272
   98OSM    H5S 9754   4.827   6.195  10.792 -0.8301 -0.1536  0.2463
   98OSM    C6S 9755   4.952   6.362  10.734 -0.5013 -0.0025 -0.1383
   98OSM    H6S 9756   5.044   6.316  10.775 -0.4854  0.0611 -0.1012
   98OSM    H6T 9757   4.963   6.469  10.761 -1.4633  0.4017 -1.2554
   98OSM    C7S 9758   4.971   6.349  10.579 -0.1926  0.2820  0.2639
   98OSM    H7S 9759   5.059   6.413  10.557  0.8348 -1.4515 -0.9157
   98OSM    H7T 9760   4.879   6.396  10.536  1.1055  1.2144 -1.6453
   98OSM    C8S 9761   5.006   6.210  10.525  0.4374  0.1691  0.2334
   98OSM    H8S 9762   4.913   6.149  10.518  1.0913 -0.6973 -1.3440
   98OSM    H8T 9763   5.070   6.157  10.599  0.1549 -0.8141 -0.2105
   98OSM    C9S 9764   5.065   6.212  10.380 -0.1585 -0.0095 -0.1264
   98OSM    H9S 9765   5.155   6.275  10.389  0.6059 -1.1903  0.8541
   98OSM    H9T 9766   4.997   6.263  10.308  0.6212  1.3762  0.0811
   98OSM   C10S 9767   5.106   6.074  10.318  0.8097  0.2731 -0.1036
   98OSM   H10S 9768   5.015   6.013  10.299  0.3086  0.7228  0.7930
   98OSM   H10T 9769   5.166   6.020  10.395 -0.7302 -1.9739 -0.3810
   98OSM   C11S 9770   5.197   6.101  10.195 -0.5742  0.9103 -0.5798
   98OSM   H11S 9771   5.289   6.159  10.219 -1.0094  1.7530 -0.8892
   98OSM   H11T 9772   5.136   6.163  10.126 -0.3882  0.2114 -1.3954
   98OSM   C12S 9773   5.234   5.978  10.115 -0.0457 -0.1168 -0.0406
   98OSM   H12S 9774   5.146   5.912  10.108 -1.2057  0.5181  4.7384
   98OSM   H12T 9775   5.312   5.915  10.162 -0.3365 -0.3471  0.1397
   98OSM   C13S 9776   5.286   6.002   9.979  0.0805 -1.0503  0.2562
   98OSM   H13S 9777   5.368   6.077   9.983 -0.1272 -0.8433  0.7373
   98OSM   H13T 9778   5.206   6.050   9.917 -0.1573  0.6289  1.8004
   98OSM   C14S 9779   5.336   5.877   9.914  0.6437  0.3650 -0.1356
   98OSM   H14S 9780   5.260   5.796   9.921 -0.5210  1.2030 -2.2297
   98OSM   H14T 9781   5.430   5.844   9.964 -1.6835 -5.2449  1.2830
   98OSM   C15S 9782   5.371   5.896   9.762  0.1955  0.0203 -0.1222
   98OSM   H15S 9783   5.449   5.819   9.745  2.8818  2.1325  1.5238
   98OSM   H15T 9784   5.414   5.997   9.744 -0.4859  0.2927 -0.2364
   98OSM   C16S 9785   5.255   5.876   9.669 -0.8107 -1.1524 -0.4247
   98OSM   H16S 9786   5.216   5.978   9.650 -1.0353 -0.9825  0.8268
   98OSM   H16T 9787   5.160   5.835   9.711 -0.8232 -0.7408 -0.0506
   98OSM   C17S 9788   5.294   5.784   9.547 -0.5349 -0.8335 -0.8702
   98OSM   H17S 9789   5.305   5.682   9.589 -2.8201 -0.3771  1.0684
   98OSM   H17T 9790   5.387   5.823   9.501 -0.3459  0.3285  0.4351
   98OSM   C18S 9791   5.188   5.774   9.445 -0.4573  0.3829 -0.2957
   98OSM   H18S 9792   5.207   5.699   9.365 -0.0172  1.3892 -1.1599
   98OSM   H18T 9793   5.169   5.863   9.382 -1.5866 -0.0965 -0.6684
   98OSM   H18U 9794   5.093   5.743   9.495 -0.7812  1.1304 -0.4351
   98OSM    C1F 9795   4.425   6.291  10.551 -0.0063  0.8219 -0.1977
   98OSM     OF 9796   4.335   6.372  10.542  0.0546 -0.1245 -0.1817
   98OSM    C2F 9797   4.451   6.191  10.441 -0.7703  0.0906 -0.4941
   98OSM    H2F 9798   4.396   6.097  10.465  0.2419 -0.2630  0.5316
   98OSM    H2G 9799   4.561   6.180  10.443 -0.5644  1.8649  0.2259
   98OSM    C3F 9800   4.407   6.240  10.301 -0.5052 -0.0974  0.3665
   98OSM    H3F 9801   4.448   6.338  10.269  1.2616 -1.4839 -1.9459
   98OSM    H3G 9802   4.297   6.248  10.307 -0.3021  3.7707  1.6229
   98OSM    C4F 9803   4.432   6.142  10.186 -0.0787 -0.6175  0.0669
   98OSM    H4F 9804   4.371   6.055  10.217  0.3912 -0.9109  0.1873
   98OSM    H4G 9805   4.541   6.120  10.188  0.0062 -0.5640 -1.9725
   98OSM    C5F 9806   4.383   6.177  10.045 -0.7844 -0.7133 -0.0007
   98OSM    H5F 9807   4.440   6.259   9.996 -2.2845  0.0743 -0.4837
   98OSM    H5G 9808   4.283   6.223  10.054  0.2027  1.3093  1.3805
   98OSM    C6F 9809   4.392   6.056   9.944 -0.0131  0.1349  0.2786
   98OSM    H6F 9810   4.330   5.970   9.978 -0.7410  0.8242  0.6989
   98OSM    H6G 9811   4.494   6.011   9.941  1.0640  1.9727  3.9232
   98OSM    C7F 9812   4.333   6.083   9.806  0.2152  0.4525 -0.9197
   98OSM    H7F 9813   4.311   6.190   9.786  2.4022  0.8951 -1.2789
   98OSM    H7G 9814   4.244   6.024   9.776 -0.1267  1.9227 -2.9837
   98OSM    C8F 9815   4.443   6.042   9.702  0.3763  0.5155 -0.0193
   98OSM    H8F 9816   4.469   5.936   9.724 -0.8732  0.0237 -0.7949
   98OSM    H8G 9817   4.529   6.111   9.715  0.5312  0.2228  0.5140
   98OSM    C9F 9818   4.391   6.049   9.562  0.2140  0.1340 -0.5437
   98OSM    H9F 9819   4.308   6.121   9.549 -2.2720 -2.3707  0.3925
   98OSM   C10F 9820   4.428   5.973   9.456  0.0721  0.1630 -0.3881
   98OSM   H10F 9821   4.385   5.994   9.357 -0.4562  2.0197  0.1842
   98OSM   C11F 9822   4.533   5.865   9.457  0.1367 -0.3268 -0.4128
   98OSM   H11F 9823   4.485   5.765   9.457  0.2342 -0.3774  0.5145
   98OSM   H11G 9824   4.601   5.875   9.544 -1.4945  0.8859  0.7987
   98OSM   C12F 9825   4.637   5.851   9.341  0.0074 -0.6126  0.5639
   98OSM   H12F 9826   4.713   5.932   9.349 -1.2202  0.7681 -1.0781
   98OSM   H12G 9827   4.578   5.852   9.248  1.0678 -1.7634 -0.1435
   98OSM   C13F 9828   4.713   5.714   9.353 -0.4918  0.2898 -0.6737
   98OSM   H13F 9829   4.638   5.634   9.340  1.1070 -1.1795 -1.2573
   98OSM   H13G 9830   4.750   5.709   9.458 -0.6973 -0.3298 -0.6288
   98OSM   C14F 9831   4.828   5.708   9.251 -0.3324  0.1174  0.4922
   98OSM   H14F 9832   4.853   5.601   9.238  1.1650  0.4381  0.5027
   98OSM   H14G 9833   4.917   5.767   9.281 -2.5050  2.5013  2.6777
   98OSM   C15F 9834   4.775   5.749   9.100  0.0716 -0.3553  0.2030
   98OSM   H15F 9835   4.754   5.858   9.110 -0.8321 -0.5839  1.0116
   98OSM   H15G 9836   4.681   5.692   9.091 -0.5010  0.5541  0.2748
   98OSM   C16F 9837   4.867   5.719   8.986 -0.8542 -0.3743  0.3459
   98OSM   H16F 9838   4.837   5.624   8.937  1.2991 -0.7623 -0.3372
   98OSM   H16G 9839   4.969   5.704   9.026 -1.1629 -2.6156  0.4222
   98OSM   C17F 9840   4.856   5.821   8.867  0.5899 -0.3191  0.1674
   98OSM   H17F 9841   4.901   5.922   8.884  0.2938  0.6715 -3.9108
   98OSM   H17G 9842   4.749   5.831   8.840  0.5863  1.2716  0.6666
   98OSM   C18F 9843   4.941   5.765   8.745  0.4213 -0.2955  0.3571
   98OSM   H18F 9844   4.949   5.838   8.662 -1.5572 -1.3507 -0.8332
   98OSM   H18G 9845   4.900   5.670   8.705 -1.3072 -0.1011  1.5558
   98OSM   H18H 9846   5.045   5.752   8.783  0.4824  0.6980  0.5623
   99OSM      N 9847   4.676   6.520  11.313  0.5744 -0.2415 -0.1040
   99OSM    C15 9848   4.657   6.373  11.342 -0.5335  0.4883  0.0911
   99OSM   H15A 9849   4.604   6.355  11.434 -0.4542  2.0363  0.4606
   99OSM   H15B 9850   4.752   6.323  11.356 -1.1802 -1.9548 -3.0806
   99OSM   H15C 9851   4.593   6.328  11.267  0.6523 -0.9873 -0.1003
   99OSM    C14 9852   4.541   6.580  11.295 -0.0771  0.0068 -0.0122
   99OSM   H14A 9853   4.495   6.517  11.221  0.0183  0.8794 -0.8389
   99OSM   H14B 9854   4.537   6.681  11.256 -0.7191 -0.6426 -1.6799
   99OSM   H14C 9855   4.486   6.581  11.388  0.9544 -1.3232  0.6367
   99OSM    C13 9856   4.748   6.576  11.428 -0.7601 -0.1427  0.2063
   99OSM   H13A 9857   4.780   6.676  11.403  1.6931 -0.2151  2.6445
   99OSM   H13B 9858   4.838   6.519  11.443 -0.4767 -0.5477 -2.4129
   99OSM   H13C 9859   4.699   6.593  11.522  1.3539  0.9493  1.1625
   99OSM    C12 9860   4.757   6.542  11.187 -0.0157  0.4569  0.1659
   99OSM   H12A 9861   4.697   6.485  11.118  0.7947  0.4983 -0.5848
   99OSM   H12B 9862   4.846   6.485  11.210 -0.1613  0.7439  1.4991
   99OSM    C11 9863   4.798   6.687  11.132 -0.8604 -0.1176  0.4745
   99OSM   H11A 9864   4.709   6.751  11.113  0.7867  3.5914  3.8395
   99OSM   H11B 9865   4.844   6.670  11.032 -1.1741  0.5907  0.2062
   99OSM      P 9866   5.042   6.713  11.221 -0.4639  0.0128  0.0351
   99OSM    O13 9867   5.112   6.769  11.339 -0.2423  0.6608 -0.5824
   99OSM    O14 9868   5.052   6.564  11.209  0.1295  0.0705  0.0319
   99OSM    O11 9869   5.096   6.788  11.089  0.0568 -0.3651  0.3132
   99OSM    O12 9870   4.888   6.751  11.226 -0.4062 -0.2444 -0.7680
   99OSM    C1S 9871   5.100   6.928  11.081 -0.6340  0.2207 -0.2958
   99OSM    H1S 9872   5.193   6.955  11.136 -1.3099  0.7527  0.6177
   99OSM    H1T 9873   5.014   6.976  11.132 -2.2057 -1.0922 -1.6256
   99OSM     NF 9874   5.125   7.133  10.935 -0.4423 -0.1934 -0.3642
   99OSM    HNF 9875   5.052   7.197  10.913  0.9982  0.9876 -2.0262
   99OSM    C2S 9876   5.116   6.989  10.934  0.2363 -0.9135 -0.1270
   99OSM    H2S 9877   5.212   6.945  10.898  2.1017  0.7932  2.3570
   99OSM    C3S 9878   4.999   6.946  10.851 -0.2415 -0.0761  0.5191
   99OSM    H3S 9879   4.914   7.008  10.886 -1.3625 -2.9693  3.4054
   99OSM     O3 9880   4.952   6.811  10.866 -0.2979 -0.0057  0.1475
   99OSM    HO3 9881   5.007   6.786  10.941 -1.0370  0.6379  0.9269
   99OSM    C4S 9882   5.027   6.978  10.708  0.2871 -0.0319  0.2697
   99OSM    H4S 9883   5.016   7.085  10.684  2.5180 -0.4486 -3.5612
   99OSM    C5S 9884   5.072   6.905  10.606  0.0618  0.2002 -0.4708
   99OSM    H5S 9885   5.093   6.801  10.632  0.2390  0.2095 -0.5751
   99OSM    C6S 9886   5.114   6.945  10.466 -0.1094 -0.2103  0.3952
   99OSM    H6S 9887   5.222   6.924  10.445  0.2320  0.3226  1.5806
   99OSM    H6T 9888   5.090   7.053  10.457  2.2555  0.3989  0.5787
   99OSM    C7S 9889   5.035   6.867  10.365 -0.4379 -0.3321 -0.1892
   99OSM    H7S 9890   4.934   6.911  10.354  0.0008  0.1934 -3.1610
   99OSM    H7T 9891   5.037   6.756  10.373  1.5392 -0.3875 -0.9616
   99OSM    C8S 9892   5.093   6.903  10.226 -0.5866 -0.3945  0.2906
   99OSM    H8S 9893   5.193   6.856  10.212  0.3017  1.5115 -0.2520
   99OSM    H8T 9894   5.102   7.011  10.201 -0.6223 -1.2432 -4.4983
   99OSM    C9S 9895   5.013   6.855  10.098  0.2073 -0.3194  0.4165
   99OSM    H9S 9896   4.911   6.899  10.107 -0.0181 -0.6890 -0.2636
   99OSM    H9T 9897   5.007   6.744  10.095  2.2817 -0.4577 -0.4006
   99OSM   C10S 9898   5.075   6.897   9.970  0.5521 -0.0171  0.2087
   99OSM   H10S 9899   5.174   6.850   9.954  0.9481  0.2430  1.7324
   99OSM   H10T 9900   5.086   7.008   9.979 -1.2251  0.1965  0.1419
   99OSM   C11S 9901   4.985   6.867   9.843 -0.0130  0.3679  0.1681
   99OSM   H11S 9902   4.879   6.889   9.868 -0.5616 -3.5391  2.0140
   99OSM   H11T 9903   4.990   6.757   9.827 -0.7016  0.3949 -0.2491
   99OSM   C12S 9904   5.040   6.939   9.721 -0.2362 -0.1647 -0.0307
   99OSM   H12S 9905   5.039   7.049   9.734  0.0889 -0.1927  0.2300
   99OSM   H12T 9906   5.140   6.896   9.701 -0.7459 -0.8695 -1.1800
   99OSM   C13S 9907   4.959   6.914   9.592  0.8999  0.1141 -1.0983
   99OSM   H13S 9908   4.860   6.961   9.610  1.2484  0.4630 -0.0096
   99OSM   H13T 9909   4.948   6.804   9.584  1.6666 -0.0283 -0.3196
   99OSM   C14S 9910   5.011   6.970   9.459  0.4358 -0.8129  0.8620
   99OSM   H14S 9911   5.120   6.951   9.457  1.0186  2.0086  1.0189
   99OSM   H14T 9912   5.006   7.081   9.462  2.8500 -0.6122 -0.2680
   99OSM   C15S 9913   4.935   6.914   9.336  0.1750 -0.1752 -0.0954
   99OSM   H15S 9914   4.929   6.803   9.343  1.6409 -0.2923 -0.4141
   99OSM   H15T 9915   4.994   6.931   9.243  0.3883 -0.6941 -0.0609
   99OSM   C16S 9916   4.791   6.966   9.335  0.1366 -0.2499  0.4600
   99OSM   H16S 9917   4.791   7.074   9.309  0.8583 -0.8627 -2.5224
   99OSM   H16T 9918   4.741   6.944   9.431 -2.0377  1.8008 -0.1114
   99OSM   C17S 9919   4.712   6.896   9.221  0.6023  0.0615 -0.1641
   99OSM   H17S 9920   4.613   6.944   9.239  1.5917  1.7611  1.0779
   99OSM   H17T 9921   4.707   6.786   9.237 -0.7632  0.0557 -0.5588
   99OSM   C18S 9922   4.762   6.928   9.083 -0.9685 -0.3327  0.4080
   99OSM   H18S 9923   4.787   7.034   9.062  1.3860 -1.1917 -1.6240
   99OSM   H18T 9924   4.695   6.888   9.004 -0.6115 -0.8445  0.3608
   99OSM   H18U 9925   4.861   6.884   9.059  0.4904  2.9121 -0.1401
   99OSM    C1F 9926   5.236   7.193  10.981 -0.3363 -0.1956 -0.2865
   99OSM     OF 9927   5.325   7.139  11.044 -0.3666  0.3882 -0.4888
   99OSM    C2F 9928   5.248   7.342  10.935  0.5095  0.1708  0.7795
   99OSM    H2F 9929   5.334   7.380  10.994 -0.7684  0.2918  2.6439
   99OSM    H2G 9930   5.166   7.404  10.977  1.3264  1.1585  0.9406
   99OSM    C3F 9931   5.256   7.369  10.783 -0.1002 -0.1527  0.3927
   99OSM    H3F 9932   5.167   7.339  10.723  1.5369 -0.9802 -1.7665
   99OSM    H3G 9933   5.267   7.478  10.764 -0.4996 -0.2412 -0.3632
   99OSM    C4F 9934   5.363   7.284  10.713  0.0703 -0.4602  0.5229
   99OSM    H4F 9935   5.346   7.175  10.727 -2.1596 -0.0567  1.3336
   99OSM    H4G 9936   5.466   7.312  10.744 -0.1812  2.3191 -0.8340
   99OSM    C5F 9937   5.370   7.309  10.560 -0.2714  0.1565  0.1166
   99OSM    H5F 9938   5.420   7.408  10.553 -0.6320  0.3264 -0.0896
   99OSM    H5G 9939   5.266   7.310  10.522 -0.2789 -1.4799  0.0337
   99OSM    C6F 9940   5.446   7.207  10.477  0.1666 -0.1760 -0.1408
   99OSM    H6F 9941   5.399   7.107  10.476  0.6281 -0.3923 -0.6432
   99OSM    H6G 9942   5.547   7.200  10.524 -0.5885  0.1792  1.6486
   99OSM    C7F 9943   5.471   7.246  10.325 -0.1223  0.0189  0.4626
   99OSM    H7F 9944   5.506   7.351  10.319  0.8516 -0.3486 -0.3275
   99OSM    H7G 9945   5.381   7.238  10.260 -0.1262  1.5633  0.2417
   99OSM    C8F 9946   5.570   7.149  10.260 -0.0986  0.0826  0.1899
   99OSM    H8F 9947   5.659   7.139  10.326 -3.4045 -2.3074  4.8058
   99OSM    H8G 9948   5.618   7.199  10.173  1.0414 -3.5242 -1.4756
   99OSM    C9F 9949   5.523   7.008  10.244  0.2806  0.5771  0.4715
   99OSM    H9F 9950   5.474   6.957  10.328 -3.0268 -0.4191 -1.8555
   99OSM   C10F 9951   5.521   6.937  10.133  0.5870 -1.0155  0.2471
   99OSM   H10F 9952   5.480   6.836  10.145  1.2461 -1.1437  1.6816
   99OSM   C11F 9953   5.560   6.977   9.999 -0.5379  0.5410 -0.0660
   99OSM   H11F 9954   5.658   6.926   9.992 -0.6804 -0.3952  3.2003
   99OSM   H11G 9955   5.580   7.085   9.982  1.9756  0.6834  2.8069
   99OSM   C12F 9956   5.459   6.928   9.891 -0.3360  0.1283  0.0543
   99OSM   H12F 9957   5.377   6.999   9.870 -0.6195 -1.0552 -3.5094
   99OSM   H12G 9958   5.411   6.834   9.926  1.2520 -1.3604 -1.5016
   99OSM   C13F 9959   5.517   6.900   9.750  0.3372  0.1825  0.7068
   99OSM   H13F 9960   5.433   6.893   9.678  2.7914  2.8247 -2.8065
   99OSM   H13G 9961   5.589   6.815   9.741 -0.1863 -0.3004  1.0418
   99OSM   C14F 9962   5.598   7.026   9.694 -0.0944  0.5354 -0.4112
   99OSM   H14F 9963   5.707   7.011   9.714 -0.1104 -0.3693 -0.9411
   99OSM   H14G 9964   5.558   7.123   9.730 -0.4535 -0.4743  2.1377
   99OSM   C15F 9965   5.600   7.031   9.544  0.0644 -0.3593 -0.4859
   99OSM   H15F 9966   5.503   7.075   9.513 -1.1856 -2.2369  0.5824
   99OSM   H15G 9967   5.586   6.927   9.507 -1.4580 -0.7544  1.0527
   99OSM   C16F 9968   5.725   7.100   9.487  0.4411 -0.8310 -0.1277
   99OSM   H16F 9969   5.810   7.030   9.495  0.6239 -0.4350  1.8006
   99OSM   H16G 9970   5.743   7.184   9.558 -0.0143 -0.4369 -0.4731
   99OSM   C17F 9971   5.717   7.158   9.348 -0.5050  0.6744 -0.8565
   99OSM   H17F 9972   5.820   7.183   9.315  0.7374 -2.5429  0.1596
   99OSM   H17G 9973   5.654   7.249   9.352 -0.2793  0.7783  1.3451
   99OSM   C18F 9974   5.654   7.068   9.244 -0.2736 -0.1903 -0.4439
   99OSM   H18F 9975   5.552   7.034   9.269  0.2862  0.0391  2.4873
   99OSM   H18G 9976   5.726   6.985   9.225 -1.1417 -0.5399 -2.4781
   99OSM   H18H 9977   5.636   7.120   9.148  0.5718  0.1872 -0.4075
  100OSM      N 9978   3.247   0.273  11.195 -0.3916 -0.2461  0.5538
  100OSM    C15 9979   3.148   0.162  11.156 -0.4336  0.1804 -0.0644
  100OSM   H15A 9980   3.050   0.202  11.136 -0.4799  0.1829  0.1696
  100OSM   H15B 9981   3.146   0.104  11.247 -1.2680  1.3308  0.6718
  100OSM   H15C 9982   3.182   0.120  11.062  2.1267 -0.1205  0.9022
  100OSM    C14 9983   3.192   0.346  11.318 -0.0921  0.5280  0.6028
  100OSM   H14A 9984   3.100   0.395  11.292 -0.1797  0.7160  1.2357
  100OSM   H14B 9985   3.269   0.406  11.366  2.7574 -0.1829 -2.6712
  100OSM   H14C 9986   3.179   0.273  11.396  0.8778 -2.4844 -1.8723
  100OSM    C13 9987   3.371   0.213  11.243  0.0110  0.4999 -0.5496
  100OSM   H13A 9988   3.350   0.149  11.328 -2.9595 -0.9675 -2.2208
  100OSM   H13B 9989   3.453   0.277  11.272 -0.7901  1.5203 -0.4871
  100OSM   H13C 9990   3.409   0.150  11.165  1.3265  1.2819 -0.5685
  100OSM    C12 9991   3.271   0.369  11.083  0.0211  0.3451  0.2586
  100OSM   H12A 9992   3.318   0.462  11.114  1.5490 -0.2562 -0.1435
  100OSM   H12B 9993   3.174   0.404  11.050 -0.1045  0.1713  0.4398
  100OSM    C11 9994   3.350   0.307  10.963 -0.5239  0.2985  0.2597
  100OSM   H11A 9995   3.312   0.367  10.877  0.5755  1.9144  0.8578
  100OSM   H11B 9996   3.324   0.200  10.952 -1.8279  0.4153  1.9493
  100OSM      P 9997   3.603   0.259  10.894 -0.0804 -0.2434  0.0853
  100OSM    O13 9998   3.727   0.333  10.910  0.0969  0.6575 -0.4452
  100OSM    O14 9999   3.607   0.112  10.916  0.0398  0.1032 -0.1362
  100OSM    O1110000   3.553   0.290  10.747  0.9923  0.2326 -0.7918
  100OSM    O1210001   3.496   0.323  10.997  0.2623 -0.0972 -0.0284
  100OSM    C1S10002   3.520   0.417  10.692  0.2972  0.1914  0.0559
  100OSM    H1S10003   3.612   0.475  10.713 -0.3499  0.7557  1.4801
  100OSM    H1T10004   3.440   0.476  10.742  2.4796  3.2620  0.1808
  100OSM     NF10005   3.484   0.524  10.483  0.4042 -0.4805 -0.5534
  100OSM    HNF10006   3.393   0.564  10.470 -0.4808 -1.6794  1.3960
  100OSM    C2S10007   3.477   0.396  10.547 -0.3743  0.5269 -0.3073
  100OSM    H2S10008   3.558   0.334  10.502 -0.3946  1.2134 -1.3105
  100OSM    C3S10009   3.333   0.327  10.545 -0.1707 -0.1909 -1.0289
  100OSM    H3S10010   3.254   0.398  10.579 -1.1507 -1.4263 -0.6393
  100OSM     O310011   3.320   0.217  10.642  0.5875  0.0885 -0.7787
  100OSM    HO310012   3.405   0.228  10.686 -0.2258  1.4137  0.5571
  100OSM    C4S10013   3.304   0.282  10.404  0.1838 -0.2700  0.5111
  100OSM    H4S10014   3.260   0.367  10.350  1.1591 -0.0627  0.0129
  100OSM    C5S10015   3.343   0.163  10.351  0.1460  0.2590  0.2663
  100OSM    H5S10016   3.412   0.100  10.408 -0.8616 -0.9379  0.2173
  100OSM    C6S10017   3.318   0.115  10.211  0.4245 -0.5361  0.3064
  100OSM    H6S10018   3.212   0.137  10.187 -0.4097 -1.0268  3.1674
  100OSM    H6T10019   3.317   0.005  10.222  0.1067 -0.4386  1.4354
  100OSM    C7S10020   3.419   0.171  10.112 -0.2884 -0.5436  0.0639
  100OSM    H7S10021   3.521   0.129  10.125 -1.6515 -4.9449 -1.6755
  100OSM    H7T10022   3.413   0.280  10.133 -1.5387 -1.1157  3.3928
  100OSM    C8S10023   3.374   0.140   9.970 -0.1428 -0.7096 -0.3977
  100OSM    H8S10024   3.282   0.199   9.951 -0.3845 -1.3230 -1.2240
  100OSM    H8T10025   3.354   0.031   9.971  2.5350 -1.2726  0.6928
  100OSM    C9S10026   3.484   0.179   9.864  0.5669 -0.0933  0.3635
  100OSM    H9S10027   3.582   0.131   9.884 -0.3040 -2.3988 -0.5995
  100OSM    H9T10028   3.492   0.290   9.870 -1.4681  0.2031 -1.2355
  100OSM   C10S10029   3.425   0.149   9.724  0.7176  0.2026 -0.3904
  100OSM   H10S10030   3.322   0.190   9.729  0.0882 -1.3266 -0.3804
  100OSM   H10T10031   3.418   0.038   9.726  0.1362  0.2274  2.3703
  100OSM   C11S10032   3.514   0.191   9.608  0.5765  0.0496 -0.8451
  100OSM   H11S10033   3.610   0.138   9.626  1.4238  1.4151 -1.1847
  100OSM   H11T10034   3.534   0.300   9.598 -0.4418  0.2521 -0.7653
  100OSM   C12S10035   3.459   0.163   9.474 -0.6966 -0.6844  0.0589
  100OSM   H12S10036   3.370   0.221   9.442 -0.9143 -1.4673 -0.7967
  100OSM   H12T10037   3.430   0.056   9.466 -0.3613 -0.7983  0.3313
  100OSM   C13S10038   3.569   0.196   9.373 -0.4604  0.1378 -0.1880
  100OSM   H13S10039   3.658   0.137   9.403 -1.2079 -0.0864  1.7717
  100OSM   H13T10040   3.587   0.306   9.371 -0.6243  0.2790  2.5636
  100OSM   C14S10041   3.533   0.170   9.226  0.4398 -0.2235  0.2059
  100OSM   H14S10042   3.437   0.217   9.197  1.0570  0.0560 -1.4649
  100OSM   H14T10043   3.508   0.062   9.219 -1.6339  0.0239  2.3337
  100OSM   C15S10044   3.642   0.204   9.131  0.1330 -0.6579 -0.0855
  100OSM   H15S10045   3.742   0.177   9.173  0.3781  2.2372  1.4562
  100OSM   H15T10046   3.650   0.314   9.116 -2.2923 -0.1728  1.6380
  100OSM   C16S10047   3.622   0.151   8.986 -0.4123 -0.1820 -0.5952
  100OSM   H16S10048   3.516   0.171   8.958 -0.4489  1.1902  0.4342
  100OSM   H16T10049   3.645   0.042   8.992 -1.2541 -0.3282  0.0854
  100OSM   C17S10050   3.707   0.206   8.878 -0.1205  0.0947 -0.0940
  100OSM   H17S10051   3.811   0.206   8.916 -0.5923 -1.4948  1.3260
  100OSM   H17T10052   3.686   0.313   8.856  0.1915 -0.0401 -1.0915
  100OSM   C18S10053   3.693   0.113   8.754 -0.1976 -0.5678  0.7698
  100OSM   H18S10054   3.771   0.034   8.757  0.9668  0.5200  0.1711
  100OSM   H18T10055   3.715   0.165   8.658 -1.5870 -0.5036  0.4638
  100OSM   H18U10056   3.591   0.068   8.751  0.7056 -2.6049 -1.1931
  100OSM    C1F10057   3.598   0.599  10.464  0.4672  0.5640 -0.5154
  100OSM     OF10058   3.706   0.549  10.490 -0.4952 -0.1316  0.2503
  100OSM    C2F10059   3.581   0.737  10.414  0.4670 -0.6014  0.8693
  100OSM    H2F10060   3.652   0.802  10.470 -0.1825  0.0471  0.9420
  100OSM    H2G10061   3.478   0.777  10.420  0.3938 -0.1239 -2.0776
  100OSM    C3F10062   3.625   0.751  10.265  0.0058  0.1716  0.3769
  100OSM    H3F10063   3.734   0.731  10.257 -0.5055 -2.4801 -1.0493
  100OSM    H3G10064   3.621   0.861  10.251 -1.7534  0.2601  1.3539
  100OSM    C4F10065   3.537   0.675  10.170 -0.6052 -0.2841 -0.3059
  100OSM    H4F10066   3.438   0.725  10.173 -0.3118  0.3031  2.6794
  100OSM    H4G10067   3.540   0.569  10.205  1.7832 -0.6545 -1.4291
  100OSM    C5F10068   3.607   0.674  10.045  0.2990  0.3703  1.0356
  100OSM    H5F10069   3.708   0.630  10.054  0.3380 -0.1666 -1.3934
  100OSM    H5G10070   3.612   0.773   9.995 -1.0266 -0.6098 -1.1765
  100OSM    C6F10071   3.527   0.587   9.947  0.0586 -0.9717 -0.6907
  100OSM    H6F10072   3.427   0.634   9.946  0.2992 -0.4272 -0.0188
  100OSM    H6G10073   3.523   0.484   9.988 -1.1824  0.1699  2.2796
  100OSM    C7F10074   3.579   0.577   9.804  0.1917  0.0797 -0.9148
  100OSM    H7F10075   3.505   0.518   9.745  1.2543 -2.8591  0.4585
  100OSM    H7G10076   3.676   0.521   9.807 -0.3103 -0.7730 -0.1201
  100OSM    C8F10077   3.607   0.714   9.734  0.4105 -0.7353  0.0044
  100OSM    H8F10078   3.674   0.706   9.646  1.1812  0.6836  0.4161
  100OSM    H8G10079   3.666   0.773   9.807 -0.7038 -2.8100  2.7699
  100OSM    C9F10080   3.480   0.791   9.715  1.1946  0.4048  0.3296
  100OSM    H9F10081   3.423   0.816   9.806 -0.0318 -0.2325 -0.2381
  100OSM   C10F10082   3.441   0.858   9.609  0.0190 -0.8052 -0.2001
  100OSM   H10F10083   3.339   0.896   9.593  0.1305 -0.5585 -0.3251
  100OSM   C11F10084   3.520   0.866   9.481 -0.3681 -0.0458  0.8257
  100OSM   H11F10085   3.628   0.883   9.499 -0.1620 -0.1799 -0.1900
  100OSM   H11G10086   3.496   0.956   9.421  1.8474  0.5995  0.8232
  100OSM   C12F10087   3.490   0.739   9.393  0.5797 -0.2760  0.3431
  100OSM   H12F10088   3.385   0.753   9.358  0.8541  0.6106 -0.1552
  100OSM   H12G10089   3.479   0.648   9.455 -0.2078  0.2372  0.9738
  100OSM   C13F10090   3.595   0.715   9.285 -0.5976  0.0903  0.1497
  100OSM   H13F10091   3.691   0.691   9.335  1.0120  2.0739 -1.8076
  100OSM   H13G10092   3.629   0.803   9.226  1.2895 -2.2065 -2.4771
  100OSM   C14F10093   3.559   0.599   9.187 -0.3418 -0.7211 -0.8587
  100OSM   H14F10094   3.453   0.618   9.160  0.2042  1.9298 -1.4016
  100OSM   H14G10095   3.571   0.501   9.238  0.4057 -0.3249 -0.2496
  100OSM   C15F10096   3.628   0.599   9.048  0.4544 -0.1167 -0.1432
  100OSM   H15F10097   3.589   0.682   8.985 -0.1426 -0.9321 -0.8743
  100OSM   H15G10098   3.595   0.507   8.995  0.4404 -1.3205  1.8553
  100OSM   C16F10099   3.778   0.620   9.056 -0.0888  0.1928 -0.3908
  100OSM   H16F10100   3.824   0.544   9.124 -1.8572  0.8727  1.6780
  100OSM   H16G10101   3.800   0.722   9.095 -0.2688  0.5739 -1.2660
  100OSM   C17F10102   3.845   0.607   8.920  0.1144 -0.6297  0.1924
  100OSM   H17F10103   3.778   0.651   8.843  0.0468  0.4537  0.8390
  100OSM   H17G10104   3.864   0.503   8.888  2.4408 -0.1430 -0.2347
  100OSM   C18F10105   3.978   0.683   8.915 -0.0786 -0.8290 -0.4203
  100OSM   H18F10106   4.053   0.627   8.975 -0.8400 -2.5697 -1.0140
  100OSM   H18G10107   3.959   0.789   8.941 -0.9363 -1.1413  0.2889
  100OSM   H18H10108   4.018   0.683   8.811 -0.0838  1.6549 -0.4618
  101OSM      N10109   6.620   2.290  11.178  0.3452  0.6340  0.2671
  101OSM    C1510110   6.664   2.146  11.177  0.0385 -0.4051  0.7586
  101OSM   H15A10111   6.664   2.098  11.080 -2.6960  2.5717 -0.9128
  101OSM   H15B10112   6.604   2.082  11.239  1.7566 -2.7903  0.0894
  101OSM   H15C10113   6.765   2.149  11.215  0.3703  2.2594 -0.1080
  101OSM    C1410114   6.644   2.354  11.313  0.4632  0.1988 -0.2837
  101OSM   H14A10115   6.572   2.307  11.379  0.0452 -1.0159 -1.5467
  101OSM   H14B10116   6.627   2.461  11.313  0.7958  0.2606 -0.9066
  101OSM   H14C10117   6.745   2.339  11.348  0.0838  0.5455  1.0049
  101OSM    C1310118   6.688   2.376  11.079  0.4849  0.4220 -0.1529
  101OSM   H13A10119   6.690   2.327  10.983  0.6950  1.0617 -0.4831
  101OSM   H13B10120   6.791   2.396  11.106  0.7154  0.9664 -1.3537
  101OSM   H13C10121   6.639   2.471  11.058  0.1235  0.2825  0.0479
  101OSM    C1210122   6.472   2.301  11.138  0.5194  0.3913  0.1351
  101OSM   H12A10123   6.446   2.402  11.164 -0.3544 -0.0123  0.8790
  101OSM   H12B10124   6.413   2.238  11.202  0.2005  0.7375  0.1865
  101OSM    C1110125   6.438   2.280  10.990  0.0149  0.3708 -0.0922
  101OSM   H11A10126   6.480   2.364  10.931 -1.5777  1.1586 -0.1607
  101OSM   H11B10127   6.330   2.302  10.976 -0.0921 -1.5513 -3.5440
  101OSM      P10128   6.397   2.021  10.969 -0.0082  0.0206  0.4943
  101OSM    O1310129   6.499   1.915  10.983 -0.0709  0.3544  0.5841
  101OSM    O1410130   6.304   2.043  11.084 -1.0600  0.2451 -0.1010
  101OSM    O1110131   6.304   1.994  10.840 -0.9275  0.2091 -0.2861
  101OSM    O1210132   6.483   2.151  10.936 -0.4982 -0.2492  0.4927
  101OSM    C1S10133   6.339   2.047  10.715  0.4322 -0.1777  0.7812
  101OSM    H1S10134   6.448   2.039  10.693  0.4365 -1.0609  1.0955
  101OSM    H1T10135   6.305   2.152  10.708 -1.7087 -0.8321  0.6668
  101OSM     NF10136   6.291   2.010  10.466 -0.8256  0.2110  0.0003
  101OSM    HNF10137   6.263   2.097  10.427  0.5488  0.6313 -0.1006
  101OSM    C2S10138   6.254   1.977  10.603 -0.1891 -0.0554  0.2227
  101OSM    H2S10139   6.269   1.870  10.629  3.5900  0.5125  0.8518
  101OSM    C3S10140   6.105   2.020  10.631 -0.4397  0.6557  0.2514
  101OSM    H3S10141   6.096   2.129  10.650  1.5295  0.9334 -0.2625
  101OSM     O310142   6.056   1.952  10.752 -0.3552  0.2875  0.0245
  101OSM    HO310143   6.135   1.930  10.802 -1.5770 -0.4631  1.7324
  101OSM    C4S10144   6.009   1.979  10.517  0.5264  0.1388  1.0176
  101OSM    H4S10145   6.014   1.871  10.496 -0.4003  0.0503  1.2047
  101OSM    C5S10146   5.940   2.055  10.432  0.4855 -0.0866 -0.8744
  101OSM    H5S10147   5.954   2.164  10.434  2.0488 -0.2827 -0.1477
  101OSM    C6S10148   5.850   2.001  10.326 -0.6921  0.4597  0.0559
  101OSM    H6S10149   5.756   2.061  10.327 -0.0958  1.5314 -1.8108
  101OSM    H6T10150   5.841   1.890  10.328 -2.5371  0.5873  0.8302
  101OSM    C7S10151   5.919   2.024  10.190  0.1230 -0.2217  0.3278
  101OSM    H7S10152   6.029   2.007  10.183  0.3666  1.5573 -0.9476
  101OSM    H7T10153   5.917   2.133  10.171  0.5912 -0.0102  1.4117
  101OSM    C8S10154   5.838   1.960  10.076 -0.0180  0.4042 -0.6369
  101OSM    H8S10155   5.731   1.987  10.086  0.3416  2.1183 -1.1112
  101OSM    H8T10156   5.838   1.850  10.087  2.2492  0.4682  0.6729
  101OSM    C9S10157   5.899   2.005   9.939 -0.5518  0.0415 -0.2549
  101OSM    H9S10158   6.006   1.975   9.944  0.2536  2.7791  1.6806
  101OSM    H9T10159   5.898   2.116   9.934 -1.7220  0.0338 -0.4076
  101OSM   C10S10160   5.829   1.948   9.813  0.4824 -0.2064  0.0859
  101OSM   H10S10161   5.727   1.991   9.810  1.5626  2.5298 -0.3683
  101OSM   H10T10162   5.827   1.837   9.813  2.0943 -0.3004  2.6598
  101OSM   C11S10163   5.906   1.982   9.687 -0.8837  0.2644 -0.1554
  101OSM   H11S10164   6.003   1.929   9.681  0.5796  2.6972  0.5820
  101OSM   H11T10165   5.924   2.091   9.674 -1.5181  0.2876 -0.9203
  101OSM   C12S10166   5.838   1.938   9.557 -0.6949 -0.2856 -0.1359
  101OSM   H12S10167   5.745   1.998   9.552  0.2575  1.1344 -2.5667
  101OSM   H12T10168   5.809   1.832   9.573 -2.8296  0.2582 -0.1757
  101OSM   C13S10169   5.916   1.941   9.424 -0.2490  0.1957 -0.2589
  101OSM   H13S10170   5.994   1.863   9.412 -0.7951 -0.3567 -0.2416
  101OSM   H13T10171   5.969   2.039   9.427  0.7472 -0.3585  1.6782
  101OSM   C14S10172   5.815   1.926   9.309 -0.3702  0.0897  0.0056
  101OSM   H14S10173   5.725   1.990   9.323 -0.5120 -0.0881 -0.0825
  101OSM   H14T10174   5.779   1.821   9.320 -0.9371  0.0295 -2.0274
  101OSM   C15S10175   5.880   1.954   9.179 -0.5189  0.2466 -0.0850
  101OSM   H15S10176   5.982   1.908   9.183 -0.7221 -0.1459  0.8795
  101OSM   H15T10177   5.902   2.062   9.163 -1.5922  0.2142 -2.1238
  101OSM   C16S10178   5.821   1.884   9.062  0.0068 -0.0492 -0.0561
  101OSM   H16S10179   5.889   1.880   8.974 -1.4445 -0.2725 -1.2078
  101OSM   H16T10180   5.730   1.940   9.034 -2.0116 -3.3073 -0.5017
  101OSM   C17S10181   5.768   1.741   9.091 -0.4191  0.6267  0.2630
  101OSM   H17S10182   5.717   1.705   8.999 -0.9327  1.6100  0.1465
  101OSM   H17T10183   5.689   1.742   9.169 -0.4694  0.0509  0.2203
  101OSM   C18S10184   5.873   1.628   9.133  0.9000  0.1641 -0.4355
  101OSM   H18S10185   5.950   1.608   9.054  1.7542 -0.3758  0.5000
  101OSM   H18T10186   5.821   1.534   9.162 -1.9476  2.4717  2.7074
  101OSM   H18U10187   5.920   1.673   9.223 -2.6878  1.1826  1.0905
  101OSM    C1F10188   6.378   1.936  10.399 -0.5527 -0.6277 -0.0067
  101OSM     OF10189   6.408   1.825  10.443 -0.3486 -0.0405 -0.0280
  101OSM    C2F10190   6.442   1.998  10.279  0.1738 -0.4664 -0.3237
  101OSM    H2F10191   6.502   2.085  10.310  1.1457 -1.4707  0.7346
  101OSM    H2G10192   6.354   2.028  10.219 -2.1386 -0.6925  2.6817
  101OSM    C3F10193   6.511   1.894  10.195  0.3018  0.4278 -0.3735
  101OSM    H3F10194   6.430   1.819  10.186  1.2932 -0.7656  0.2885
  101OSM    H3G10195   6.595   1.846  10.251 -0.3165  1.6111  1.6710
  101OSM    C4F10196   6.566   1.930  10.057  0.6355 -0.7192  0.6332
  101OSM    H4F10197   6.652   1.999  10.062  2.2573 -2.3972 -1.7343
  101OSM    H4G10198   6.484   1.987  10.007  0.9598  0.2262  1.1563
  101OSM    C5F10199   6.601   1.820   9.953  0.4924  0.1952  0.0551
  101OSM    H5F10200   6.511   1.792   9.894  0.1850  0.3667  0.4327
  101OSM    H5G10201   6.645   1.733  10.006 -1.9096 -1.0263  0.1984
  101OSM    C6F10202   6.693   1.868   9.846 -0.2311  0.0310  0.3382
  101OSM    H6F10203   6.649   1.955   9.792 -0.1385  1.3585  2.3083
  101OSM    H6G10204   6.792   1.900   9.883 -0.0398 -1.3523  1.1173
  101OSM    C7F10205   6.736   1.765   9.745  0.2818  0.1980  0.0102
  101OSM    H7F10206   6.793   1.691   9.805  1.6481 -1.4187 -3.0052
  101OSM    H7G10207   6.802   1.788   9.658 -1.3505 -0.4257 -1.4600
  101OSM    C8F10208   6.611   1.695   9.685  0.1072 -0.1008 -0.0077
  101OSM    H8F10209   6.541   1.767   9.637 -1.0194 -0.6526  0.7655
  101OSM    H8G10210   6.540   1.658   9.762 -2.8330  2.8527 -1.0634
  101OSM    C9F10211   6.648   1.587   9.595  0.2505  0.3340  0.4615
  101OSM    H9F10212   6.687   1.496   9.643 -0.2806 -1.5139 -2.4055
  101OSM   C10F10213   6.646   1.598   9.461  0.3158  0.0068  0.3190
  101OSM   H10F10214   6.667   1.506   9.405  0.5227 -1.3810  2.5391
  101OSM   C11F10215   6.593   1.714   9.374 -0.7899  0.3944  0.0385
  101OSM   H11F10216   6.685   1.756   9.327  1.3537 -0.5833  3.0595
  101OSM   H11G10217   6.559   1.800   9.436  2.5334  1.7143  0.2346
  101OSM   C12F10218   6.488   1.688   9.264  1.1404  0.2158  0.4221
  101OSM   H12F10219   6.434   1.785   9.263 -1.0556 -0.8913  2.4246
  101OSM   H12G10220   6.415   1.613   9.300  2.0889 -0.8763  0.1107
  101OSM   C13F10221   6.549   1.649   9.126  0.4148  0.3784 -0.3238
  101OSM   H13F10222   6.584   1.544   9.110  1.4668  0.8034 -0.9954
  101OSM   H13G10223   6.645   1.702   9.107  0.7043 -0.2823 -0.7866
  101OSM   C14F10224   6.457   1.687   9.010  0.0344 -0.4883  0.3204
  101OSM   H14F10225   6.432   1.793   9.032  0.2541  0.7422 -4.3053
  101OSM   H14G10226   6.361   1.631   9.022 -0.6202  0.2054 -1.3505
  101OSM   C15F10227   6.511   1.667   8.875 -0.1209 -0.3627 -0.3311
  101OSM   H15F10228   6.612   1.711   8.866 -0.7453  1.4370  0.8124
  101OSM   H15G10229   6.435   1.712   8.807 -0.7698  2.0793  1.8369
  101OSM   C16F10230   6.511   1.523   8.834  0.0240  0.7074  0.1818
  101OSM   H16F10231   6.402   1.503   8.826  0.6020 -2.5978 -0.8089
  101OSM   H16G10232   6.556   1.449   8.903  1.0760 -0.9621 -2.1317
  101OSM   C17F10233   6.589   1.500   8.702 -0.6982 -0.4242 -0.1903
  101OSM   H17F10234   6.695   1.520   8.727 -1.2622 -1.0288  3.1965
  101OSM   H17G10235   6.562   1.578   8.627  1.9185  0.7324 -0.0231
  101OSM   C18F10236   6.575   1.356   8.646  0.0327  0.3167  0.0415
  101OSM   H18F10237   6.633   1.347   8.552 -0.5026  2.8330 -0.6034
  101OSM   H18G10238   6.468   1.348   8.618 -0.0491  1.4495 -0.0085
  101OSM   H18H10239   6.600   1.269   8.711  0.4944 -1.6095 -2.5514
  102OSM      N10240   0.019   1.519  11.095  0.5121  0.2289 -0.1518
  102OSM    C1510241   0.149   1.537  11.163 -0.2497 -0.3483  0.3925
  102OSM   H15A10242   0.228   1.548  11.091  1.3593 -3.6273  1.4207
  102OSM   H15B10243   0.173   1.451  11.224  1.5261 -0.7017 -0.7059
  102OSM   H15C10244   0.153   1.623  11.228 -1.5803 -0.1686  0.2556
  102OSM    C1410245  -0.089   1.520  11.192 -0.2142 -0.3958  0.7992
  102OSM   H14A10246  -0.181   1.503  11.138 -0.6531 -2.1690  2.0272
  102OSM   H14B10247  -0.098   1.619  11.235 -0.9215 -0.1389  0.0770
  102OSM   H14C10248  -0.081   1.448  11.272  1.3748 -2.4436 -1.0901
  102OSM    C1310249  -0.003   1.638  11.007 -0.0017 -0.6465 -0.2915
  102OSM   H13A10250  -0.103   1.645  10.965  0.3746  0.9197 -1.0248
  102OSM   H13B10251   0.066   1.632  10.924  0.9138 -1.5758  0.5049
  102OSM   H13C10252   0.032   1.732  11.046 -0.6555  0.5468 -2.3913
  102OSM    C1210253   0.019   1.388  11.016  0.0455  0.7678  0.3744
  102OSM   H12A10254  -0.077   1.372  10.971  0.4894  0.0461 -0.3509
  102OSM   H12B10255   0.037   1.313  11.092  0.5352  2.9927  2.5895
  102OSM    C1110256   0.127   1.378  10.900 -0.2603 -0.2864 -0.0510
  102OSM   H11A10257   0.130   1.464  10.829  0.9234  0.1029  0.4453
  102OSM   H11B10258   0.098   1.304  10.823 -1.4805  1.0985 -0.9807
  102OSM      P10259   0.326   1.215  10.948 -0.5180  0.1520 -0.3105
  102OSM    O1310260   0.462   1.221  11.010 -0.4502 -0.1203 -0.1165
  102OSM    O1410261   0.239   1.119  11.013  0.0942  0.1796  0.2033
  102OSM    O1110262   0.327   1.189  10.788 -0.4067 -0.2633 -0.0586
  102OSM    O1210263   0.254   1.360  10.960 -0.8039 -0.3795  0.4148
  102OSM    C1S10264   0.434   1.265  10.729 -0.3459 -0.0653  0.1646
  102OSM    H1S10265   0.533   1.224  10.759 -0.7136 -0.2403  1.1578
  102OSM    H1T10266   0.420   1.374  10.745 -2.8537  0.1104 -2.4256
  102OSM     NF10267   0.527   1.369  10.523  0.2398  0.3007 -0.0124
  102OSM    HNF10268   0.483   1.452  10.487 -2.1428 -1.8623 -2.5580
  102OSM    C2S10269   0.431   1.274  10.572  1.0599 -0.0550 -0.3018
  102OSM    H2S10270   0.452   1.171  10.537 -1.8800 -0.4422 -1.2015
  102OSM    C3S10271   0.285   1.300  10.514 -0.2098  0.1900 -0.3174
  102OSM    H3S10272   0.251   1.404  10.532  0.8645  0.1751  2.0932
  102OSM     O310273   0.181   1.217  10.572 -0.0776 -0.4771 -0.0039
  102OSM    HO310274   0.221   1.194  10.656  0.5343  1.4515  0.2761
  102OSM    C4S10275   0.282   1.272  10.368  0.2563  0.1523  0.4263
  102OSM    H4S10276   0.267   1.367  10.313 -0.8300 -0.7258 -0.8708
  102OSM    C5S10277   0.271   1.151  10.301  0.0033 -0.4139  0.5389
  102OSM    H5S10278   0.262   1.065  10.369  0.0299 -0.8841 -0.0528
  102OSM    C6S10279   0.245   1.122  10.153  0.6468  0.0049  0.0211
  102OSM    H6S10280   0.135   1.111  10.143  0.9269 -2.1497 -1.1293
  102OSM    H6T10281   0.290   1.029  10.112  1.5270  0.3346  0.2164
  102OSM    C7S10282   0.293   1.237  10.070 -0.0188  0.1711  0.5800
  102OSM    H7S10283   0.398   1.269  10.087  0.3245  0.9693 -2.3986
  102OSM    H7T10284   0.234   1.331  10.068 -0.2511  0.0194  0.1464
  102OSM    C8S10285   0.288   1.207   9.924 -0.3533  0.2601  0.3166
  102OSM    H8S10286   0.334   1.107   9.909  0.0260  0.1035  2.2102
  102OSM    H8T10287   0.347   1.284   9.869  2.2793 -2.5146 -1.0067
  102OSM    C9S10288   0.143   1.201   9.870  0.3603 -0.5841  0.1286
  102OSM    H9S10289   0.085   1.292   9.896  2.9161  1.1023  0.2868
  102OSM    H9T10290   0.089   1.121   9.926 -2.2889  1.1211  0.1978
  102OSM   C10S10291   0.123   1.174   9.721  0.2409 -0.2815 -0.0284
  102OSM   H10S10292   0.016   1.149   9.706  0.7178 -1.0680 -2.7551
  102OSM   H10T10293   0.188   1.086   9.705 -2.3874 -2.1405 -1.1599
  102OSM   C11S10294   0.159   1.283   9.622 -0.5368  0.0553  0.2029
  102OSM   H11S10295   0.262   1.322   9.637 -0.1625  0.4770 -2.8513
  102OSM   H11T10296   0.100   1.375   9.639 -0.8779  0.4169 -2.5357
  102OSM   C12S10297   0.142   1.249   9.471  0.4991  0.2095  0.3275
  102OSM   H12S10298   0.034   1.233   9.451  0.4863  0.5992  0.0718
  102OSM   H12T10299   0.204   1.158   9.461  0.2419  0.2274 -1.6990
  102OSM   C13S10300   0.192   1.353   9.384 -0.3368 -0.1809 -0.1421
  102OSM   H13S10301   0.291   1.396   9.410 -0.3449 -0.2382 -0.0162
  102OSM   H13T10302   0.128   1.444   9.393  0.9548  0.6714  0.6181
  102OSM   C14S10303   0.190   1.314   9.237 -0.3601 -0.1901 -0.1885
  102OSM   H14S10304   0.288   1.282   9.196 -0.7722 -1.2909 -0.3463
  102OSM   H14T10305   0.163   1.404   9.179  1.2692  0.1419 -0.4752
  102OSM   C15S10306   0.092   1.203   9.194  0.1073  0.7592 -0.1243
  102OSM   H15S10307  -0.005   1.237   9.235 -0.9848 -3.6167  1.4728
  102OSM   H15T10308   0.128   1.107   9.239  3.2079  0.7185 -2.3116
  102OSM   C16S10309   0.084   1.178   9.043 -0.3276  0.3781  0.1441
  102OSM   H16S10310   0.186   1.147   9.012  0.5116  1.4725  1.7045
  102OSM   H16T10311   0.056   1.267   8.982  0.2362 -0.2205 -1.0165
  102OSM   C17S10312  -0.016   1.064   9.006 -0.3007 -0.6290 -0.2164
  102OSM   H17S10313  -0.121   1.089   9.030  0.0450  2.6417 -1.5537
  102OSM   H17T10314   0.019   0.970   9.053  3.2289 -0.1345 -1.5006
  102OSM   C18S10315  -0.025   1.045   8.857 -0.0524 -1.0819 -0.0372
  102OSM   H18S10316   0.081   1.038   8.826 -0.0223 -0.7385 -0.0142
  102OSM   H18T10317  -0.061   1.135   8.802  1.1722 -0.1728  0.6040
  102OSM   H18U10318  -0.077   0.958   8.810 -0.1188 -0.2304 -1.6159
  102OSM    C1F10319   0.659   1.353  10.536 -0.4254  0.9452  0.3701
  102OSM     OF10320   0.707   1.270  10.614  0.1446  0.0631 -0.2605
  102OSM    C2F10321   0.749   1.440  10.444 -0.7772 -0.8536  0.3326
  102OSM    H2F10322   0.841   1.465  10.502  0.2430  0.3073 -1.6812
  102OSM    H2G10323   0.685   1.530  10.429  2.5698  1.9516  1.3809
  102OSM    C3F10324   0.772   1.375  10.310  0.2818  0.3492  0.6006
  102OSM    H3F10325   0.673   1.358  10.261  0.3159 -0.2765  0.7314
  102OSM    H3G10326   0.818   1.274  10.320  2.7095  1.3338  0.0534
  102OSM    C4F10327   0.868   1.455  10.221  0.0265 -1.0515  0.1190
  102OSM    H4F10328   0.962   1.477  10.274 -0.4052 -1.5565  1.1299
  102OSM    H4G10329   0.830   1.556  10.194  0.1922 -1.8439 -3.7607
  102OSM    C5F10330   0.888   1.392  10.079 -0.5892 -0.2967 -0.0233
  102OSM    H5F10331   0.794   1.396  10.020 -1.5826 -0.2923  1.4956
  102OSM    H5G10332   0.919   1.287  10.099  0.6437  0.6092  3.5674
  102OSM    C6F10333   1.000   1.459   9.994  0.0607 -0.7582 -0.4553
  102OSM    H6F10334   1.095   1.436  10.047  0.1221 -2.9464 -1.4049
  102OSM    H6G10335   1.000   1.569   9.979  0.4042 -0.3653  2.0722
  102OSM    C7F10336   1.015   1.406   9.848 -0.5692  0.8648 -0.4030
  102OSM    H7F10337   0.917   1.431   9.802 -1.9620 -1.2768  1.2358
  102OSM    H7G10338   1.025   1.296   9.843 -0.7302  0.7783  0.9881
  102OSM    C8F10339   1.130   1.479   9.775 -0.8123  0.4739  0.3382
  102OSM    H8F10340   1.118   1.588   9.791 -1.4682  0.4978 -0.2891
  102OSM    H8G10341   1.115   1.457   9.667 -0.1285  2.4274 -0.1837
  102OSM    C9F10342   1.270   1.430   9.824  0.4232 -0.3779 -0.8562
  102OSM    H9F10343   1.323   1.500   9.891 -0.9506  0.4217 -0.5774
  102OSM   C10F10344   1.324   1.308   9.792 -0.0233 -0.0424  0.1662
  102OSM   H10F10345   1.419   1.276   9.837  0.4276  1.6127  0.4706
  102OSM   C11F10346   1.259   1.200   9.710  0.8237  0.1511  0.0088
  102OSM   H11F10347   1.155   1.228   9.686  0.7471 -0.3969 -0.3241
  102OSM   H11G10348   1.243   1.101   9.758  1.1603 -0.0184 -0.2208
  102OSM   C12F10349   1.320   1.183   9.563  0.0675 -0.5038 -0.4556
  102OSM   H12F10350   1.266   1.099   9.514 -0.9044 -0.1996  0.0764
  102OSM   H12G10351   1.431   1.174   9.563  0.2579  1.2997  0.5828
  102OSM   C13F10352   1.292   1.310   9.487  0.1556 -0.8785  1.1493
  102OSM   H13F10353   1.355   1.396   9.520 -0.2099  1.5602 -3.5680
  102OSM   H13G10354   1.186   1.336   9.507  0.4488  0.7775  0.7306
  102OSM   C14F10355   1.295   1.315   9.328  0.0003 -0.0070 -0.3394
  102OSM   H14F10356   1.241   1.221   9.305  0.1289  0.2213 -1.6704
  102OSM   H14G10357   1.396   1.302   9.283 -0.7857 -0.9158 -1.9507
  102OSM   C15F10358   1.218   1.425   9.267 -0.0670 -1.1125 -0.4081
  102OSM   H15F10359   1.257   1.522   9.304 -3.4468  0.9592 -1.7796
  102OSM   H15G10360   1.117   1.428   9.312  0.3160  0.0884  0.3989
  102OSM   C16F10361   1.208   1.407   9.118  0.1787  0.4222  0.1667
  102OSM   H16F10362   1.162   1.308   9.098 -1.6433  1.7420 -3.0085
  102OSM   H16G10363   1.316   1.397   9.094  1.1898  0.4425  3.9899
  102OSM   C17F10364   1.141   1.523   9.047 -0.2064  0.4582  0.0121
  102OSM   H17F10365   1.203   1.611   9.074 -1.0448  1.3094 -0.7612
  102OSM   H17G10366   1.038   1.525   9.090 -0.3489  0.2122 -0.3125
  102OSM   C18F10367   1.122   1.503   8.899 -0.8177 -0.0886  0.0836
  102OSM   H18F10368   1.087   1.596   8.849  0.2925  0.8623  1.0029
  102OSM   H18G10369   1.048   1.426   8.870  2.3425 -2.1959 -3.1641
  102OSM   H18H10370   1.220   1.473   8.858 -1.0447  0.3690 -0.8247
  103OSM      N10371   6.602   6.251  10.993 -0.2490 -0.0217  0.3592
  103OSM    C1510372   6.552   6.301  10.859  0.1980  0.3230 -0.8369
  103OSM   H15A10373   6.473   6.375  10.864  0.0152  0.0864 -0.1584
  103OSM   H15B10374   6.511   6.214  10.810  0.3665  0.8239 -1.9011
  103OSM   H15C10375   6.638   6.338  10.806  1.4438  1.9469  2.0990
  103OSM    C1410376   6.681   6.358  11.060  0.4055 -0.3776 -0.6943
  103OSM   H14A10377   6.732   6.316  11.146  0.3455 -1.1694 -1.0396
  103OSM   H14B10378   6.610   6.428  11.102 -2.0058 -3.4048  0.6472
  103OSM   H14C10379   6.767   6.392  11.004  0.1235 -0.2351 -1.0415
  103OSM    C1310380   6.490   6.205  11.062 -0.0325 -0.0824  0.1953
  103OSM   H13A10381   6.407   6.272  11.080 -1.1627 -1.0973 -1.0108
  103OSM   H13B10382   6.528   6.162  11.154  1.9402  0.4033 -0.3345
  103OSM   H13C10383   6.437   6.131  11.004 -3.0722  3.7210 -2.4066
  103OSM    C1210384   6.686   6.125  10.944  0.0930 -0.5975 -0.3822
  103OSM   H12A10385   6.750   6.169  10.869 -0.3546  0.7708  0.0137
  103OSM   H12B10386   6.616   6.060  10.894 -0.9954 -0.1308  0.5002
  103OSM    C1110387   6.781   6.053  11.053 -0.0299 -0.5861 -0.6459
  103OSM   H11A10388   6.842   5.966  11.021  0.0678 -0.0248 -2.0725
  103OSM   H11B10389   6.706   6.025  11.130 -1.0545 -1.8213 -2.0386
  103OSM      P10390   7.008   6.179  11.022  0.1729  0.4436  0.2809
  103OSM    O1310391   7.008   6.323  10.992 -0.0907  0.2607  0.0305
  103OSM    O1410392   7.125   6.129  11.092 -0.3601  0.1083 -0.2021
  103OSM    O1110393   6.988   6.098  10.889 -0.4007 -0.3052  0.1692
  103OSM    O1210394   6.874   6.146  11.100 -0.3072  0.0934 -0.8397
  103OSM    C1S10395   7.029   6.137  10.753  0.1998  0.5432 -0.7852
  103OSM    H1S10396   7.140   6.132  10.752  0.2244  0.7360 -2.3063
  103OSM    H1T10397   7.011   6.244  10.730  0.9680  1.6062  2.8745
  103OSM     NF10398   6.862   6.070  10.580 -0.1051  0.8125 -0.2551
  103OSM    HNF10399   6.774   6.039  10.615  0.3080  0.2342  0.2883
  103OSM    C2S10400   6.989   6.028  10.650  0.8254  0.2554 -0.2595
  103OSM    H2S10401   7.067   6.013  10.572  0.2871 -0.6663 -0.6357
  103OSM    C3S10402   6.978   5.885  10.718 -0.0115 -0.0281 -0.3412
  103OSM    H3S10403   6.894   5.876  10.791 -1.2212  0.4547 -1.6209
  103OSM     O310404   7.099   5.839  10.780 -0.3346  0.5066  0.0013
  103OSM    HO310405   7.159   5.911  10.761 -2.9427  2.8689 -0.0433
  103OSM    C4S10406   6.952   5.787  10.607  0.2019  0.5293  1.0471
  103OSM    H4S10407   7.030   5.773  10.530 -0.7972  0.8293 -0.0518
  103OSM    C5S10408   6.831   5.730  10.585 -0.6842  0.1145  0.4737
  103OSM    H5S10409   6.759   5.757  10.664  1.4198 -0.5708  2.7552
  103OSM    C6S10410   6.804   5.623  10.475 -0.7368 -0.2943 -0.4121
  103OSM    H6S10411   6.721   5.661  10.413  0.3056 -0.0193 -1.6660
  103OSM    H6T10412   6.776   5.524  10.518  0.4413 -0.6102 -0.3230
  103OSM    C7S10413   6.921   5.607  10.378 -0.2905  0.3463  0.2868
  103OSM    H7S10414   7.010   5.585  10.441 -0.7106  2.3408  1.6525
  103OSM    H7T10415   6.955   5.693  10.317  1.3931 -0.5859 -0.1688
  103OSM    C8S10416   6.902   5.487  10.283  0.1056  0.0579  0.4830
  103OSM    H8S10417   6.799   5.504  10.247  0.4285  0.3648 -0.3105
  103OSM    H8T10418   6.906   5.389  10.335  1.5711  0.0869  0.4680
  103OSM    C9S10419   7.004   5.464  10.172 -0.3001  0.1291 -1.0548
  103OSM    H9S10420   7.099   5.436  10.221 -0.2673 -0.1861 -1.2888
  103OSM    H9T10421   7.021   5.564  10.127 -1.2403  0.1219 -1.4563
  103OSM   C10S10422   6.966   5.374  10.054  0.2144  0.3539 -0.0497
  103OSM   H10S10423   6.862   5.407  10.038 -0.1597  0.3771  2.0553
  103OSM   H10T10424   6.966   5.269  10.091 -0.6782  0.4243  0.1674
  103OSM   C11S10425   7.042   5.392   9.929  0.2033 -0.6257  0.0645
  103OSM   H11S10426   7.143   5.347   9.943  0.9480  0.7008 -0.8701
  103OSM   H11T10427   7.044   5.498   9.896 -2.7787 -1.4249 -3.3708
  103OSM   C12S10428   6.971   5.317   9.811 -0.9129  0.5659 -0.1660
  103OSM   H12S10429   6.864   5.347   9.810 -1.7844 -2.2076  0.4504
  103OSM   H12T10430   6.977   5.207   9.826  0.5774  0.1904 -2.7964
  103OSM   C13S10431   7.033   5.340   9.677  0.0332 -0.2864  0.1145
  103OSM   H13S10432   7.139   5.307   9.665 -0.5081 -1.5605 -1.5320
  103OSM   H13T10433   7.036   5.447   9.646  0.2810 -0.6118 -1.0459
  103OSM   C14S10434   6.957   5.271   9.563 -0.3883  0.0428 -0.4492
  103OSM   H14S10435   6.852   5.303   9.579 -0.3782 -0.6918  1.2437
  103OSM   H14T10436   6.954   5.162   9.583 -0.6341 -0.1509 -1.4690
  103OSM   C15S10437   7.011   5.302   9.422  0.9621  0.5303 -0.2611
  103OSM   H15S10438   6.968   5.234   9.346  1.9568 -0.1694 -0.2251
  103OSM   H15T10439   7.122   5.312   9.417  0.8515  1.4136 -1.0406
  103OSM   C16S10440   6.947   5.436   9.374  0.2624  0.3576 -0.2414
  103OSM   H16S10441   6.982   5.521   9.437  1.3897  1.8056 -2.6438
  103OSM   H16T10442   6.836   5.432   9.373  0.2852 -0.6866  0.3062
  103OSM   C17S10443   6.992   5.474   9.232  0.5115  0.1540  0.0085
  103OSM   H17S10444   6.953   5.394   9.166  0.0518 -0.8746  1.4819
  103OSM   H17T10445   7.103   5.473   9.227  0.5351  0.3482  0.4360
  103OSM   C18S10446   6.930   5.607   9.176  0.5248 -0.4956 -0.6530
  103OSM   H18S10447   6.960   5.600   9.069 -0.9715 -1.9091 -1.0104
  103OSM   H18T10448   6.980   5.686   9.236  1.0669 -2.6312  1.8717
  103OSM   H18U10449   6.820   5.619   9.181  0.4018 -1.7785  0.1329
  103OSM    C1F10450   6.853   6.172  10.497  0.1834 -0.2534  0.3844
  103OSM     OF10451   6.948   6.239  10.478  0.0452  0.1860  0.4945
  103OSM    C2F10452   6.728   6.195  10.427  0.5909 -0.8241 -0.5644
  103OSM    H2F10453   6.712   6.304  10.409 -0.6902 -1.3440 -2.8850
  103OSM    H2G10454   6.646   6.163  10.495  0.3977  1.1850  0.2390
  103OSM    C3F10455   6.704   6.134  10.285  0.4473 -0.3481 -0.1838
  103OSM    H3F10456   6.786   6.165  10.218  1.4629  0.1173  1.2278
  103OSM    H3G10457   6.611   6.169  10.235 -1.0199 -2.4374  0.8676
  103OSM    C4F10458   6.689   5.977  10.284 -0.0417  0.1188 -0.2007
  103OSM    H4F10459   6.596   5.953  10.340  1.9270 -2.4986  2.2414
  103OSM    H4G10460   6.768   5.938  10.351  0.6294  1.8642  0.0971
  103OSM    C5F10461   6.684   5.905  10.150  0.5383  0.2695  0.7969
  103OSM    H5F10462   6.621   5.969  10.085 -1.4642 -3.1624 -0.8930
  103OSM    H5G10463   6.647   5.800  10.153  1.5804 -0.2192 -1.3148
  103OSM    C6F10464   6.820   5.906  10.071  0.7223 -0.0080 -0.7186
  103OSM    H6F10465   6.905   5.895  10.141 -0.4178  1.4698  0.9913
  103OSM    H6G10466   6.843   6.004  10.024  0.6249  0.9842  1.2212
  103OSM    C7F10467   6.835   5.798   9.966 -0.4034  0.3201  0.0180
  103OSM    H7F10468   6.813   5.703  10.018  1.1858  1.3114  2.7311
  103OSM    H7G10469   6.943   5.795   9.939 -0.4102  1.2695 -0.1602
  103OSM    C8F10470   6.746   5.822   9.844  0.3557 -0.2788 -0.0046
  103OSM    H8F10471   6.651   5.863   9.884  0.6225 -1.1670  1.6039
  103OSM    H8G10472   6.724   5.726   9.793  1.0971  0.3912 -1.6713
  103OSM    C9F10473   6.804   5.914   9.742  0.0176  0.0495 -0.7318
  103OSM    H9F10474   6.862   5.994   9.791  1.7510 -0.6260 -1.5813
  103OSM   C10F10475   6.799   5.908   9.615  0.1068 -0.9520  0.0888
  103OSM   H10F10476   6.851   5.976   9.546  1.0733  0.0769  1.7734
  103OSM   C11F10477   6.718   5.803   9.545  0.7383 -0.0266  0.3205
  103OSM   H11F10478   6.622   5.790   9.599  1.8567 -0.8620  2.1991
  103OSM   H11G10479   6.770   5.706   9.558 -0.0570 -0.5977 -0.6613
  103OSM   C12F10480   6.711   5.830   9.387  0.5450 -0.7657  0.4314
  103OSM   H12F10481   6.809   5.814   9.339  0.5409 -0.0517  0.1768
  103OSM   H12G10482   6.675   5.929   9.352  2.0012  0.1843  1.5367
  103OSM   C13F10483   6.602   5.730   9.341  0.7332 -0.1794  0.0055
  103OSM   H13F10484   6.508   5.760   9.393 -0.0895 -0.0841 -1.4949
  103OSM   H13G10485   6.632   5.624   9.358 -0.5294 -0.3260  1.6057
  103OSM   C14F10486   6.561   5.732   9.185  0.0353  0.4261 -0.2616
  103OSM   H14F10487   6.652   5.705   9.127 -0.8647 -2.4024 -0.4774
  103OSM   H14G10488   6.517   5.831   9.158 -0.4098  0.0532 -0.9117
  103OSM   C15F10489   6.450   5.631   9.146  0.0681  0.3902  0.1191
  103OSM   H15F10490   6.352   5.662   9.187 -0.8373 -2.1478  0.0346
  103OSM   H15G10491   6.482   5.532   9.185 -0.2177  0.6313  0.9863
  103OSM   C16F10492   6.429   5.622   8.999  0.7444 -0.0018 -0.3575
  103OSM   H16F10493   6.353   5.545   8.975 -0.7282  0.9875  0.9517
  103OSM   H16G10494   6.525   5.583   8.959  1.1345 -0.1578  0.7067
  103OSM   C17F10495   6.380   5.748   8.928  0.2151  0.0986  0.5318
  103OSM   H17F10496   6.455   5.829   8.935  2.1566 -1.6232  0.4069
  103OSM   H17G10497   6.293   5.783   8.989  0.1080  1.5302 -0.4045
  103OSM   C18F10498   6.332   5.722   8.781 -0.4834 -0.1188 -0.5809
  103OSM   H18F10499   6.406   5.666   8.720 -0.7134 -1.7877  0.5889
  103OSM   H18G10500   6.309   5.813   8.722  1.0027  0.6987  0.0512
  103OSM   H18H10501   6.243   5.656   8.769 -2.3063  1.7999  1.4237
  104OSM      N10502   2.071   5.199  11.077 -0.2323  0.3219 -0.1962
  104OSM    C1510503   2.173   5.211  11.183 -0.2162 -0.1013  0.0127
  104OSM   H15A10504   2.135   5.182  11.280 -0.2335  0.0092  0.0385
  104OSM   H15B10505   2.195   5.316  11.194  0.7778 -0.1542 -1.2858
  104OSM   H15C10506   2.267   5.162  11.160  0.6721  0.9881  1.1671
  104OSM    C1410507   2.135   5.211  10.943  0.2890 -0.1303 -0.4354
  104OSM   H14A10508   2.209   5.290  10.945 -1.5113  1.8597 -3.4213
  104OSM   H14B10509   2.070   5.248  10.865  1.6921  0.7099 -1.2454
  104OSM   H14C10510   2.181   5.120  10.907  0.4197 -0.3262  0.2213
  104OSM    C1310511   2.013   5.064  11.099  0.0462  0.6033 -0.2948
  104OSM   H13A10512   1.985   5.048  11.203  0.3259  0.8998 -0.1712
  104OSM   H13B10513   2.081   4.982  11.079  0.8992  0.7877  1.5544
  104OSM   H13C10514   1.923   5.046  11.043  0.0036 -0.4953  0.1016
  104OSM    C1210515   1.965   5.306  11.102  0.1107  0.2617 -0.7983
  104OSM   H12A10516   1.935   5.294  11.205  0.0788 -1.4150 -0.9767
  104OSM   H12B10517   1.877   5.289  11.041 -0.3349  1.0121 -0.3832
  104OSM    C1110518   1.999   5.454  11.074  0.1216 -0.5526 -0.0227
  104OSM   H11A10519   1.934   5.518  11.138 -1.8590 -0.9662 -1.5085
  104OSM   H11B10520   1.967   5.469  10.969  0.4808 -0.0774 -0.0671
  104OSM      P10521   2.191   5.622  11.037  0.2904 -0.7968 -0.0049
  104OSM    O1310522   2.082   5.717  11.002  0.0091 -0.0210  0.1533
  104OSM    O1410523   2.306   5.678  11.119  0.7991  0.4604  0.2870
  104OSM    O1110524   2.250   5.566  10.907 -0.2579 -0.3099  0.3973
  104OSM    O1210525   2.131   5.495  11.108  0.1808  0.0527  0.3295
  104OSM    C1S10526   2.182   5.546  10.784 -0.1039 -0.0968 -0.5907
  104OSM    H1S10527   2.075   5.518  10.790 -0.7596  1.8051 -2.1596
  104OSM    H1T10528   2.223   5.450  10.744 -0.9834  0.1696 -2.2309
  104OSM     NF10529   2.137   5.616  10.546  0.4247 -0.1034  0.3487
  104OSM    HNF10530   2.185   5.574  10.469 -0.4768  0.7878 -0.7295
  104OSM    C2S10531   2.203   5.655  10.673 -1.2638  0.3398 -0.1576
  104OSM    H2S10532   2.164   5.754  10.703 -0.0598  0.6364  0.4642
  104OSM    C3S10533   2.356   5.684  10.660  0.4917 -0.3133  0.1831
  104OSM    H3S10534   2.403   5.584  10.651  0.0950 -0.4701 -0.2008
  104OSM     O310535   2.396   5.745  10.782  0.2826 -0.0773  0.2144
  104OSM    HO310536   2.344   5.692  10.843 -1.6307  0.0573 -1.1899
  104OSM    C4S10537   2.386   5.772  10.550 -0.3867 -0.3047  0.3028
  104OSM    H4S10538   2.381   5.880  10.568 -0.4699  0.4911 -3.4898
  104OSM    C5S10539   2.416   5.731  10.426 -0.5165  0.2434  0.5252
  104OSM    H5S10540   2.413   5.622  10.410 -2.4402  0.0619  1.7412
  104OSM    C6S10541   2.448   5.820  10.307  0.4063  0.5919  0.6003
  104OSM    H6S10542   2.557   5.831  10.290  0.5565 -1.8409 -0.4262
  104OSM    H6T10543   2.406   5.920  10.334 -0.7527  0.4855 -0.6812
  104OSM    C7S10544   2.383   5.762  10.177 -0.3932 -0.4032  0.0084
  104OSM    H7S10545   2.273   5.776  10.178 -0.1587  1.8408 -0.6841
  104OSM    H7T10546   2.408   5.655  10.162 -1.1198 -0.5989  0.1678
  104OSM    C8S10547   2.442   5.834  10.052  0.0192  0.1054 -0.1288
  104OSM    H8S10548   2.553   5.832  10.049  0.1326  2.6695  0.1351
  104OSM    H8T10549   2.408   5.939  10.061  0.0407  0.1585 -0.6316
  104OSM    C9S10550   2.389   5.781   9.921 -0.4812  0.2058  0.1213
  104OSM    H9S10551   2.278   5.769   9.928 -0.6765  1.0147 -1.2545
  104OSM    H9T10552   2.433   5.680   9.907  0.1869  0.5115 -0.0117
  104OSM   C10S10553   2.416   5.873   9.799 -0.0838  0.3225  0.3619
  104OSM   H10S10554   2.527   5.880   9.789 -0.2530  0.8664 -1.3881
  104OSM   H10T10555   2.387   5.974   9.835  2.4878  0.8859  1.0751
  104OSM   C11S10556   2.379   5.831   9.664  0.1319 -0.2944  0.7815
  104OSM   H11S10557   2.272   5.804   9.664  0.3722 -1.3405  2.1185
  104OSM   H11T10558   2.439   5.739   9.647  1.0058  0.3187  0.4825
  104OSM   C12S10559   2.409   5.938   9.559 -0.0137 -0.1177  0.7447
  104OSM   H12S10560   2.518   5.955   9.566  0.0262  0.0629 -0.1853
  104OSM   H12T10561   2.356   6.033   9.582 -0.2167 -0.4952  1.8568
  104OSM   C13S10562   2.365   5.910   9.415  0.2345  0.2638 -0.6946
  104OSM   H13S10563   2.258   5.881   9.420 -0.2674  1.1669 -3.9407
  104OSM   H13T10564   2.434   5.830   9.378  2.4766  1.3249  0.9466
  104OSM   C14S10565   2.366   6.026   9.323  0.1876  0.7318 -0.1344
  104OSM   H14S10566   2.462   6.077   9.341  0.6593  1.0427 -3.0229
  104OSM   H14T10567   2.274   6.086   9.338 -2.3382 -2.6090 -0.7803
  104OSM   C15S10568   2.342   5.988   9.180 -0.5069  0.3493  0.2391
  104OSM   H15S10569   2.243   5.940   9.168  0.3036 -0.7842 -2.9832
  104OSM   H15T10570   2.414   5.907   9.155  0.1617  0.5021  1.6148
  104OSM   C16S10571   2.347   6.112   9.090 -0.3242 -0.1377  0.5471
  104OSM   H16S10572   2.428   6.181   9.121 -0.4260  0.3889 -0.3492
  104OSM   H16T10573   2.253   6.171   9.086 -2.1640 -2.9218 -0.8114
  104OSM   C17S10574   2.366   6.067   8.940 -0.3216  0.1364  0.5177
  104OSM   H17S10575   2.458   6.005   8.942 -0.4072 -0.0011  0.3039
  104OSM   H17T10576   2.375   6.158   8.878  1.0342 -0.8851 -0.8672
  104OSM   C18S10577   2.246   5.985   8.887  0.1921  0.4497  0.0261
  104OSM   H18S10578   2.152   6.043   8.897  1.2858  2.3605 -0.3822
  104OSM   H18T10579   2.238   5.893   8.949 -1.2074  0.7670  0.3465
  104OSM   H18U10580   2.248   5.963   8.778 -1.4768  1.9709 -0.3619
  104OSM    C1F10581   2.006   5.617  10.526 -0.5607  0.0974  0.4360
  104OSM     OF10582   1.934   5.654  10.622 -0.5956  0.3666 -0.2359
  104OSM    C2F10583   1.947   5.566  10.389 -0.6348  0.1100  0.2063
  104OSM    H2F10584   1.836   5.571  10.386 -0.5817  2.6800 -2.6296
  104OSM    H2G10585   1.975   5.459  10.381 -0.3644  0.2273 -0.5457
  104OSM    C3F10586   1.997   5.641  10.263 -0.0586  0.0180  0.2576
  104OSM    H3F10587   2.107   5.632  10.263 -0.1378 -1.1858 -0.4994
  104OSM    H3G10588   1.973   5.749  10.274 -0.2272 -0.1728  2.1593
  104OSM    C4F10589   1.934   5.584  10.136  0.3228  0.1612 -0.2763
  104OSM    H4F10590   1.823   5.578  10.133  0.2733  1.1687 -2.7990
  104OSM    H4G10591   1.973   5.481  10.122 -1.2892 -0.4048 -0.7145
  104OSM    C5F10592   1.972   5.660  10.018  0.7111  0.1862 -0.2839
  104OSM    H5F10593   2.083   5.666  10.010  0.9133 -0.7376  1.3607
  104OSM    H5G10594   1.924   5.758  10.037 -0.1109 -0.5469  1.8494
  104OSM    C6F10595   1.922   5.587   9.892 -0.6097  0.4400  0.1177
  104OSM    H6F10596   1.812   5.580   9.887 -0.6827  1.8343 -1.0636
  104OSM    H6G10597   1.955   5.481   9.898 -4.1442 -0.9370 -1.9743
  104OSM    C7F10598   1.968   5.664   9.765 -0.7154 -0.3763  0.3696
  104OSM    H7F10599   2.074   5.648   9.737 -0.0155  1.8541  1.4617
  104OSM    H7G10600   1.964   5.773   9.789 -0.5289 -0.3703  0.3725
  104OSM    C8F10601   1.887   5.641   9.639  0.0729 -0.1910 -0.1006
  104OSM    H8F10602   1.912   5.734   9.583 -0.3861 -0.1014 -0.1588
  104OSM    H8G10603   1.779   5.655   9.663 -0.1786 -0.9559 -0.7467
  104OSM    C9F10604   1.920   5.510   9.573 -0.0282 -0.0805 -0.3682
  104OSM    H9F10605   1.920   5.421   9.638  1.1086  0.9915  1.2042
  104OSM   C10F10606   1.961   5.486   9.445 -0.1476  0.1874 -0.1987
  104OSM   H10F10607   1.982   5.384   9.412  1.5700  1.0685 -2.0615
  104OSM   C11F10608   1.961   5.602   9.343  0.3983  0.5324  0.2047
  104OSM   H11F10609   1.919   5.699   9.377 -0.0841  0.2606  0.4014
  104OSM   H11G10610   1.906   5.576   9.250  0.4737 -2.6376  0.9010
  104OSM   C12F10611   2.105   5.632   9.301  0.3172  1.0080 -0.7267
  104OSM   H12F10612   2.169   5.634   9.392  3.4736 -0.3552 -2.7415
  104OSM   H12G10613   2.103   5.730   9.249 -0.1109  1.0765 -0.5902
  104OSM   C13F10614   2.161   5.522   9.209 -0.1640  0.0718 -0.4609
  104OSM   H13F10615   2.101   5.516   9.116  3.0155  0.7700 -2.7330
  104OSM   H13G10616   2.157   5.418   9.248 -1.3197 -0.3508 -1.6185
  104OSM   C14F10617   2.311   5.556   9.177 -0.3914 -0.8465  0.3151
  104OSM   H14F10618   2.368   5.525   9.267  1.6140  0.3016 -0.5015
  104OSM   H14G10619   2.317   5.665   9.158 -2.3912 -1.1503 -2.6370
  104OSM   C15F10620   2.368   5.486   9.055  0.3790  0.0024  0.2241
  104OSM   H15F10621   2.320   5.523   8.962  1.4797  1.8881  0.3537
  104OSM   H15G10622   2.354   5.376   9.064 -0.9418 -0.1641 -2.7333
  104OSM   C16F10623   2.521   5.526   9.040  0.3544  0.7196 -0.0176
  104OSM   H16F10624   2.522   5.618   9.102  1.1860 -0.7611  2.2555
  104OSM   H16G10625   2.543   5.544   8.932 -1.9789 -0.0065 -0.6754
  104OSM   C17F10626   2.624   5.432   9.101  0.1636  0.4776  0.3564
  104OSM   H17F10627   2.605   5.332   9.056 -0.9967  0.6697  0.3732
  104OSM   H17G10628   2.607   5.408   9.208 -0.6332 -0.3341  0.0578
  104OSM   C18F10629   2.767   5.471   9.076 -0.1916 -0.1698  0.2528
  104OSM   H18F10630   2.811   5.543   9.149 -0.0361 -0.0888  0.0814
  104OSM   H18G10631   2.775   5.526   8.980  0.8328  0.8403  0.8892
  104OSM   H18H10632   2.831   5.380   9.072 -1.0939 -0.8486  0.9170
  105OSM      N10633   4.716   2.252  11.105 -0.2832  0.2555  0.0269
  105OSM    C1510634   4.592   2.328  11.159 -0.3625 -0.7005  0.2630
  105OSM   H15A10635   4.511   2.327  11.087  0.4387  0.3160 -0.6748
  105OSM   H15B10636   4.635   2.421  11.192 -0.2878 -0.7104  0.1945
  105OSM   H15C10637   4.550   2.273  11.242 -4.8013 -0.9959 -1.8609
  105OSM    C1410638   4.816   2.243  11.210  0.7389  0.4747 -0.5714
  105OSM   H14A10639   4.911   2.199  11.183  0.0178 -1.5039 -0.0866
  105OSM   H14B10640   4.791   2.194  11.303  1.0761  0.5673 -0.4285
  105OSM   H14C10641   4.835   2.344  11.243  0.2270  1.0105 -1.8449
  105OSM    C1310642   4.662   2.120  11.061 -0.0930 -0.4710 -0.0968
  105OSM   H13A10643   4.595   2.120  10.976 -0.9405  0.3002  0.5403
  105OSM   H13B10644   4.619   2.070  11.147 -2.7500 -1.5769 -1.9066
  105OSM   H13C10645   4.752   2.073  11.024 -0.3098  0.4716 -1.9396
  105OSM    C1210646   4.774   2.333  10.983  0.2665 -0.7295  0.1250
  105OSM   H12A10647   4.804   2.435  11.002 -3.5510  0.6213 -0.1105
  105OSM   H12B10648   4.696   2.325  10.909  0.2034 -1.7810  0.2914
  105OSM    C1110649   4.890   2.274  10.907 -0.3859  0.1485  0.0261
  105OSM   H11A10650   4.912   2.328  10.812 -0.0439 -2.1517 -1.2815
  105OSM   H11B10651   4.864   2.176  10.862 -1.1236 -0.0487  0.8600
  105OSM      P10652   5.115   2.347  11.016  0.4559  0.5297 -0.0414
  105OSM    O1310653   5.057   2.478  11.054  0.0736 -0.6125  0.5451
  105OSM    O1410654   5.213   2.288  11.108  0.3857 -0.2604  0.4625
  105OSM    O1110655   5.169   2.352  10.867 -0.5540  0.4143 -0.5378
  105OSM    O1210656   5.003   2.247  10.992 -0.4077  0.2362 -0.4010
  105OSM    C1S10657   5.223   2.238  10.797 -0.0752  0.0680 -0.6515
  105OSM    H1S10658   5.153   2.153  10.788  0.6389 -0.6238  0.1881
  105OSM    H1T10659   5.313   2.213  10.858  0.6726  2.7824 -0.5060
  105OSM     NF10660   5.336   2.162  10.592 -0.0927  0.2995  0.7476
  105OSM    HNF10661   5.434   2.147  10.591 -0.1252 -0.1649 -1.5189
  105OSM    C2S10662   5.285   2.281  10.662  0.8363  0.6372 -0.6561
  105OSM    H2S10663   5.200   2.323  10.603  1.0805  2.9613  0.5767
  105OSM    C3S10664   5.400   2.387  10.664  0.7426  0.4299 -0.0492
  105OSM    H3S10665   5.494   2.334  10.688  1.4553  0.4300 -2.6065
  105OSM     O310666   5.382   2.490  10.755 -0.3857 -0.4602 -0.1875
  105OSM    HO310667   5.307   2.462  10.808 -0.8156  2.9883  1.3672
  105OSM    C4S10668   5.425   2.447  10.524 -0.3037  0.3481  0.4408
  105OSM    H4S10669   5.337   2.501  10.487  0.6088  1.3883 -0.2684
  105OSM    C5S10670   5.534   2.433  10.446 -0.2908 -0.5233 -0.0493
  105OSM    H5S10671   5.604   2.354  10.478  0.6108  0.4561  0.4930
  105OSM    C6S10672   5.564   2.491  10.311 -0.1056 -0.7968 -0.0116
  105OSM    H6S10673   5.654   2.556  10.310  0.6651 -1.8407 -1.6609
  105OSM    H6T10674   5.485   2.556  10.270  1.0070  0.7443  0.1966
  105OSM    C7S10675   5.587   2.385  10.210 -0.5737  0.3700 -0.0166
  105OSM    H7S10676   5.508   2.310  10.188  2.4832 -2.9393 -0.6659
  105OSM    H7T10677   5.670   2.320  10.247 -1.4029 -0.7711 -0.1149
  105OSM    C8S10678   5.618   2.445  10.073 -0.3940 -0.0916 -0.0986
  105OSM    H8S10679   5.689   2.528  10.095  0.5945 -0.6878 -0.9601
  105OSM    H8T10680   5.524   2.485  10.030 -0.4613  1.1783  1.1372
  105OSM    C9S10681   5.675   2.344   9.977  0.4264 -0.5307  0.0285
  105OSM    H9S10682   5.600   2.265   9.956 -0.7768  1.0267 -1.8365
  105OSM    H9T10683   5.773   2.307  10.013  0.5797 -0.3531 -0.2007
  105OSM   C10S10684   5.693   2.402   9.829 -0.0094  0.1139  0.7457
  105OSM   H10S10685   5.778   2.472   9.843  0.4128  0.0961 -1.4125
  105OSM   H10T10686   5.597   2.456   9.811 -1.1792 -2.2061 -0.4706
  105OSM   C11S10687   5.722   2.310   9.710  0.4510 -0.2163 -0.0666
  105OSM   H11S10688   5.635   2.247   9.683 -0.0452 -0.5790  2.1902
  105OSM   H11T10689   5.806   2.244   9.740 -0.7830 -0.6804  2.6943
  105OSM   C12S10690   5.759   2.394   9.583  0.7332  0.3749  0.5408
  105OSM   H12S10691   5.854   2.449   9.598  1.2462 -0.6372  1.0653
  105OSM   H12T10692   5.673   2.465   9.577 -1.9260 -2.5768  1.2059
  105OSM   C13S10693   5.761   2.309   9.454  0.3385  0.4196  0.0345
  105OSM   H13S10694   5.672   2.242   9.450  1.6004 -1.3226 -0.3042
  105OSM   H13T10695   5.843   2.235   9.455 -1.0335 -1.1798  1.2460
  105OSM   C14S10696   5.752   2.397   9.328 -0.4644 -0.2097 -0.1847
  105OSM   H14S10697   5.837   2.468   9.327  0.0972 -0.8604  0.5338
  105OSM   H14T10698   5.657   2.454   9.341 -0.1990  0.3870 -0.7924
  105OSM   C15S10699   5.749   2.321   9.201 -0.0419  0.1807 -0.0525
  105OSM   H15S10700   5.833   2.248   9.197 -1.2532 -1.1869 -1.2109
  105OSM   H15T10701   5.774   2.395   9.122  2.2646 -0.7777 -0.3005
  105OSM   C16S10702   5.609   2.254   9.184 -0.4860  0.4441 -0.2248
  105OSM   H16S10703   5.524   2.307   9.233 -0.2445  0.9748 -0.3757
  105OSM   H16T10704   5.613   2.152   9.228 -0.2392  0.0420 -1.1570
  105OSM   C17S10705   5.565   2.243   9.040 -0.0869 -0.0087  0.3556
  105OSM   H17S10706   5.658   2.215   8.985 -0.5320  0.7484 -0.8145
  105OSM   H17T10707   5.536   2.341   8.998 -1.9993 -1.8684 -3.1473
  105OSM   C18S10708   5.448   2.138   9.014 -0.3864  0.1597 -0.3094
  105OSM   H18S10709   5.411   2.146   8.909 -0.1155  0.0071 -0.4159
  105OSM   H18T10710   5.369   2.151   9.092  1.4985 -1.7042  2.0454
  105OSM   H18U10711   5.502   2.042   9.028  0.6949  0.8531  0.4293
  105OSM    C1F10712   5.262   2.068  10.533  0.0131 -0.0543  0.6845
  105OSM     OF10713   5.146   2.085  10.509  0.7272 -0.2095  0.3502
  105OSM    C2F10714   5.337   1.941  10.502 -0.1586  0.0160 -0.6745
  105OSM    H2F10715   5.263   1.861  10.478  0.1763 -0.7343  0.6873
  105OSM    H2G10716   5.411   1.915  10.580 -2.0492 -0.8077  0.9122
  105OSM    C3F10717   5.417   1.964  10.367 -0.4592  0.3015 -0.3952
  105OSM    H3F10718   5.495   1.888  10.346  0.4004  1.6254 -2.2967
  105OSM    H3G10719   5.481   2.053  10.383 -1.1529  1.0670 -1.6890
  105OSM    C4F10720   5.326   1.984  10.250  0.2311  0.1845 -0.4293
  105OSM    H4F10721   5.270   2.076  10.276 -0.2085  0.4161 -2.0542
  105OSM    H4G10722   5.258   1.898  10.234  0.3916  0.2109 -1.3305
  105OSM    C5F10723   5.392   2.013  10.117 -0.9102 -0.0893  0.3470
  105OSM    H5F10724   5.460   1.926  10.118  3.5649  3.0748  1.8977
  105OSM    H5G10725   5.446   2.110  10.121 -0.7211 -0.1311 -0.8437
  105OSM    C6F10726   5.295   2.004  10.001  0.0039 -0.6212 -0.0788
  105OSM    H6F10727   5.208   2.073  10.013  0.8879  0.7916 -1.4696
  105OSM    H6G10728   5.242   1.907   9.993 -1.1960  0.1343 -2.4350
  105OSM    C7F10729   5.357   2.022   9.864  0.2257  0.0835 -0.5842
  105OSM    H7F10730   5.433   1.941   9.858  0.2006 -0.1219  1.2289
  105OSM    H7G10731   5.412   2.116   9.843  0.8512 -0.0196  0.5100
  105OSM    C8F10732   5.257   2.004   9.748  0.0178 -0.3894  0.5548
  105OSM    H8F10733   5.194   2.096   9.745  1.8473  1.0595  2.8058
  105OSM    H8G10734   5.191   1.917   9.770  0.3735 -1.1953 -1.3679
  105OSM    C9F10735   5.334   1.993   9.619  0.8749  0.8103 -0.1832
  105OSM    H9F10736   5.382   1.895   9.606 -2.5456 -0.7875 -1.9406
  105OSM   C10F10737   5.350   2.094   9.526 -0.9557  1.0066  0.7347
  105OSM   H10F10738   5.409   2.071   9.436 -0.4783  0.5893  1.1465
  105OSM   C11F10739   5.305   2.231   9.542 -0.4288 -0.2219 -0.2986
  105OSM   H11F10740   5.390   2.298   9.519  0.6058 -1.5119 -0.3821
  105OSM   H11G10741   5.269   2.244   9.646 -0.8871 -1.5633 -0.2648
  105OSM   C12F10742   5.179   2.252   9.457  0.2813  0.0084  0.0924
  105OSM   H12F10743   5.126   2.342   9.494  1.4628 -0.3992  3.0757
  105OSM   H12G10744   5.110   2.167   9.471  0.9851 -0.5571  0.2051
  105OSM   C13F10745   5.200   2.268   9.305  0.3275  0.5388  0.2355
  105OSM   H13F10746   5.250   2.178   9.264  0.6932  0.8471  0.0064
  105OSM   H13G10747   5.268   2.352   9.282  0.7691  0.1294  0.0359
  105OSM   C14F10748   5.068   2.283   9.224  0.0037  0.6750  0.2930
  105OSM   H14F10749   4.993   2.342   9.281 -0.0606 -0.5310  1.5044
  105OSM   H14G10750   5.028   2.180   9.218 -1.6175  1.3584 -2.3145
  105OSM   C15F10751   5.101   2.325   9.081 -0.2127  0.0616  0.2827
  105OSM   H15F10752   5.178   2.271   9.023 -1.8329 -0.2936 -1.6413
  105OSM   H15G10753   5.128   2.433   9.076  2.7161 -0.6602 -1.6220
  105OSM   C16F10754   4.981   2.305   8.989 -0.1559 -0.5395 -0.0121
  105OSM   H16F10755   4.901   2.368   9.033 -0.0329 -0.6430  0.3612
  105OSM   H16G10756   4.946   2.200   8.992 -1.6987 -0.0312  0.7996
  105OSM   C17F10757   5.015   2.337   8.839 -0.0938  0.4387 -0.6901
  105OSM   H17F10758   5.083   2.255   8.807 -0.1124 -0.0329  0.3950
  105OSM   H17G10759   5.062   2.437   8.841  0.0673  0.3955  1.9100
  105OSM   C18F10760   4.887   2.332   8.753  0.0105  0.4633 -0.2870
  105OSM   H18F10761   4.896   2.391   8.659 -1.5500 -2.0447 -2.1218
  105OSM   H18G10762   4.801   2.378   8.807  0.7095  0.1792  1.0914
  105OSM   H18H10763   4.869   2.226   8.728  4.9720 -0.6380 -0.1953
  106OSM      N10764   3.142   6.227  11.053 -0.1109  0.2110  0.4799
  106OSM    C1510765   3.096   6.263  10.923  0.2961 -0.0325  0.3009
  106OSM   H15A10766   3.092   6.174  10.863  0.7071  0.1168  0.0473
  106OSM   H15B10767   3.146   6.353  10.891 -0.8214  0.8917  1.0495
  106OSM   H15C10768   2.993   6.296  10.931 -0.0103 -0.9695  0.2741
  106OSM    C1410769   3.274   6.155  11.027 -0.2236 -0.2504 -0.0570
  106OSM   H14A10770   3.332   6.211  10.955 -1.2756 -1.5671 -2.0215
  106OSM   H14B10771   3.256   6.055  10.991 -2.3369  0.1774 -0.3072
  106OSM   H14C10772   3.335   6.146  11.115  0.6545 -0.2018 -0.6485
  106OSM    C1310773   3.160   6.355  11.131  0.0180  0.1269  0.8011
  106OSM   H13A10774   3.073   6.418  11.139  0.4995  0.7477  1.2410
  106OSM   H13B10775   3.243   6.411  11.089  0.5457 -0.2386  1.3335
  106OSM   H13C10776   3.187   6.328  11.232  0.2845  0.8978  0.9454
  106OSM    C1210777   3.044   6.125  11.118  0.5391 -0.6289 -0.3361
  106OSM   H12A10778   2.966   6.185  11.162 -0.2111 -1.0043 -1.1273
  106OSM   H12B10779   3.081   6.074  11.205  1.6427  0.6734  0.0003
  106OSM    C1110780   2.972   6.028  11.025 -0.3111 -0.5954  0.4989
  106OSM   H11A10781   2.927   6.078  10.937  0.7786 -1.6635 -0.7100
  106OSM   H11B10782   2.877   5.983  11.061 -1.7877  0.1831 -2.1714
  106OSM      P10783   3.092   5.871  10.842  0.2524  0.3292  0.3789
  106OSM    O1310784   3.194   5.766  10.852 -0.2330 -0.0119  0.4483
  106OSM    O1410785   2.959   5.833  10.789  0.4010 -0.0309  0.0449
  106OSM    O1110786   3.142   6.001  10.758  0.6540 -0.2684 -0.3596
  106OSM    O1210787   3.070   5.928  10.991  0.2504  0.0074  0.4308
  106OSM    C1S10788   3.224   5.994  10.643  0.4905  0.3617  0.2435
  106OSM    H1S10789   3.295   5.910  10.657 -1.3411 -1.1834  0.5212
  106OSM    H1T10790   3.280   6.090  10.628 -0.9176  1.1743  0.0247
  106OSM     NF10791   3.218   5.956  10.401 -0.5617 -0.3175 -0.8280
  106OSM    HNF10792   3.251   6.041  10.362 -3.2813  1.3051  0.1699
  106OSM    C2S10793   3.136   5.977  10.516  0.8965 -0.1594 -0.3855
  106OSM    H2S10794   3.069   5.892  10.541  0.6700  0.0794 -0.1726
  106OSM    C3S10795   3.048   6.109  10.510 -0.3688  0.9899 -0.1141
  106OSM    H3S10796   3.128   6.184  10.491  1.6153 -1.1432 -0.6869
  106OSM     O310797   2.966   6.135  10.623  0.2086  0.0628  0.5102
  106OSM    HO310798   3.018   6.100  10.696 -0.5991  0.3693  1.2519
  106OSM    C4S10799   2.970   6.099  10.386  0.6450 -0.4397 -0.3602
  106OSM    H4S10800   3.024   6.156  10.308  1.2706  0.1883  0.5053
  106OSM    C5S10801   2.858   6.038  10.343 -0.7567 -0.1017 -0.5151
  106OSM    H5S10802   2.818   5.957  10.405 -0.5556  1.0999  1.2679
  106OSM    C6S10803   2.789   6.063  10.210  0.5189 -0.4231 -0.0795
  106OSM    H6S10804   2.695   6.118  10.233  1.2574  0.5390  0.7615
  106OSM    H6T10805   2.752   5.967  10.168 -0.4907  0.0224 -0.2566
  106OSM    C7S10806   2.871   6.138  10.098  0.3463 -0.6823 -0.2471
  106OSM    H7S10807   2.959   6.077  10.069  0.0967 -2.1942  1.9926
  106OSM    H7T10808   2.904   6.241  10.123 -0.4656  0.0890 -2.1409
  106OSM    C8S10809   2.783   6.140   9.971  0.5197 -0.0823  0.5827
  106OSM    H8S10810   2.689   6.183  10.012  1.3403  2.0067  0.4462
  106OSM    H8T10811   2.761   6.036   9.941 -0.1175  0.2072  0.0346
  106OSM    C9S10812   2.842   6.222   9.856  0.0661  0.2009 -0.5065
  106OSM    H9S10813   2.942   6.179   9.834  0.5908  0.5891  1.0130
  106OSM    H9T10814   2.854   6.329   9.884  1.6082 -0.0967  0.0732
  106OSM   C10S10815   2.755   6.224   9.732  0.7029  0.3135  0.5069
  106OSM   H10S10816   2.660   6.283   9.738  0.3474  0.3060 -3.0915
  106OSM   H10T10817   2.726   6.121   9.702  0.0161  0.8096 -0.6060
  106OSM   C11S10818   2.826   6.264   9.613  0.0408 -0.5141  0.3385
  106OSM   H11S10819   2.918   6.207   9.588  0.0931 -0.7623  1.0849
  106OSM   H11T10820   2.853   6.369   9.634  1.2887 -0.5335 -0.9752
  106OSM   C12S10821   2.718   6.259   9.489 -0.6088  0.1290  0.2143
  106OSM   H12S10822   2.643   6.332   9.526 -0.3395 -0.2108  1.4751
  106OSM   H12T10823   2.682   6.154   9.483  2.5299 -0.9885 -0.7931
  106OSM   C13S10824   2.764   6.312   9.363 -0.4883  0.1680  0.6662
  106OSM   H13S10825   2.841   6.242   9.323  0.0370  0.4770  1.1109
  106OSM   H13T10826   2.830   6.399   9.384  0.4551 -0.7320  1.5369
  106OSM   C14S10827   2.654   6.350   9.262 -0.1325 -0.4124 -0.3239
  106OSM   H14S10828   2.594   6.433   9.306  0.5314 -1.7809  3.5971
  106OSM   H14T10829   2.587   6.265   9.235 -0.3971 -0.7957  1.4105
  106OSM   C15S10830   2.717   6.384   9.129  0.1523 -0.1691 -0.1742
  106OSM   H15S10831   2.794   6.463   9.123  2.1443 -2.1112 -2.4333
  106OSM   H15T10832   2.632   6.430   9.074 -0.9265  1.8760  2.9679
  106OSM   C16S10833   2.781   6.266   9.048 -0.1928 -0.8204  0.6225
  106OSM   H16S10834   2.706   6.188   9.024 -0.5714 -0.9540  2.1259
  106OSM   H16T10835   2.857   6.218   9.113  0.2254 -0.2026  0.5944
  106OSM   C17S10836   2.849   6.313   8.916 -0.7149 -0.1459 -0.2791
  106OSM   H17S10837   2.797   6.388   8.853 -1.3563  0.2743  0.7231
  106OSM   H17T10838   2.872   6.223   8.855 -0.4304 -0.1700 -0.1421
  106OSM   C18S10839   2.984   6.370   8.952 -1.2632 -0.1536 -0.2541
  106OSM   H18S10840   3.045   6.387   8.861  2.2288 -0.1693  1.9020
  106OSM   H18T10841   3.043   6.297   9.012 -0.8378  1.1673  0.9778
  106OSM   H18U10842   2.991   6.464   9.011  2.0453 -1.0465  1.0031
  106OSM    C1F10843   3.254   5.834  10.367  0.0838  0.3145  0.1111
  106OSM     OF10844   3.212   5.734  10.425  0.7039 -0.2851  0.9344
  106OSM    C2F10845   3.348   5.825  10.258  0.3361  0.1793  0.0133
  106OSM    H2F10846   3.432   5.755  10.279  1.0749  1.1690  0.4169
  106OSM    H2G10847   3.400   5.921  10.240 -1.0698  1.2626  1.4159
  106OSM    C3F10848   3.281   5.788  10.134 -0.7769  0.6095  1.1504
  106OSM    H3F10849   3.191   5.847  10.107 -0.9533  0.7482  2.0071
  106OSM    H3G10850   3.240   5.685  10.134 -0.9775  0.6810  0.5096
  106OSM    C4F10851   3.382   5.780  10.017  0.7274  0.0041 -0.2529
  106OSM    H4F10852   3.459   5.700  10.031  0.1248 -0.4583  0.4810
  106OSM    H4G10853   3.434   5.878  10.015  0.2019  0.2770 -0.5301
  106OSM    C5F10854   3.321   5.738   9.884 -0.3814  0.0224  0.0619
  106OSM    H5F10855   3.240   5.809   9.858  1.8249  2.4805 -0.5064
  106OSM    H5G10856   3.287   5.632   9.883 -1.9671  0.5133 -1.5203
  106OSM    C6F10857   3.415   5.755   9.767 -0.6406  0.2253  0.5082
  106OSM    H6F10858   3.496   5.679   9.772  0.9865  1.9357  1.4136
  106OSM    H6G10859   3.465   5.849   9.798  0.6772 -0.7070  1.3151
  106OSM    C7F10860   3.343   5.761   9.633  0.2003 -0.2215  0.1544
  106OSM    H7F10861   3.258   5.833   9.632 -0.9496 -1.5227  0.8808
  106OSM    H7G10862   3.299   5.660   9.622  2.6092 -1.2649 -0.5392
  106OSM    C8F10863   3.441   5.795   9.521 -1.0810  0.5350  0.1699
  106OSM    H8F10864   3.535   5.740   9.542 -0.6369  0.5499 -1.6141
  106OSM    H8G10865   3.460   5.905   9.518  0.0130  0.3425 -1.1211
  106OSM    C9F10866   3.377   5.757   9.391  0.0965 -0.0909 -0.0204
  106OSM    H9F10867   3.352   5.650   9.389  1.7484 -0.5811  1.9070
  106OSM   C10F10868   3.345   5.837   9.285  0.9117  0.3080  0.1036
  106OSM   H10F10869   3.293   5.790   9.201 -0.1047 -0.2322  1.0206
  106OSM   C11F10870   3.375   5.990   9.279 -0.4420 -0.3486  0.7382
  106OSM   H11F10871   3.409   6.039   9.373 -0.2476  3.7587 -1.2237
  106OSM   H11G10872   3.279   6.043   9.259  0.1022  0.2239 -0.4201
  106OSM   C12F10873   3.477   6.031   9.168 -0.0652 -0.6015  1.1456
  106OSM   H12F10874   3.565   5.962   9.170 -0.9832 -1.8201  0.8380
  106OSM   H12G10875   3.525   6.126   9.198 -1.5689  0.2890  0.8279
  106OSM   C13F10876   3.414   6.036   9.037  0.1605 -0.1415  0.6821
  106OSM   H13F10877   3.326   6.104   9.038  0.2207 -0.0637  0.6769
  106OSM   H13G10878   3.367   5.943   8.997 -0.7419  0.7138 -0.3120
  106OSM   C14F10879   3.516   6.082   8.934  0.1940 -0.4938  0.3283
  106OSM   H14F10880   3.584   6.155   8.982 -1.5386  1.8765 -0.6530
  106OSM   H14G10881   3.474   6.121   8.839  1.7019 -1.0838 -0.6220
  106OSM   C15F10882   3.607   5.967   8.898  0.1903  0.0032 -0.1291
  106OSM   H15F10883   3.555   5.895   8.831 -0.0456 -0.7440  0.8344
  106OSM   H15G10884   3.629   5.908   8.989 -1.8757 -0.9177 -0.1758
  106OSM   C16F10885   3.742   6.015   8.844 -0.2799 -0.3683  0.5299
  106OSM   H16F10886   3.775   6.086   8.924 -0.3975  2.1888 -1.5539
  106OSM   H16G10887   3.735   6.072   8.749 -0.7750 -1.0091  0.1799
  106OSM   C17F10888   3.848   5.896   8.827  0.6111  0.5177 -0.0234
  106OSM   H17F10889   3.813   5.845   8.734 -1.6184  1.1137  0.4131
  106OSM   H17G10890   3.834   5.830   8.915 -1.9415 -1.9667 -2.0977
  106OSM   C18F10891   3.992   5.953   8.802 -0.1272 -0.6403  0.0499
  106OSM   H18F10892   4.073   5.878   8.812 -0.6907 -1.1814  0.7894
  106OSM   H18G10893   4.009   6.037   8.873  1.5718 -2.4197  1.9155
  106OSM   H18H10894   3.996   5.999   8.701  0.2128  0.6319  0.6274
  107OSM      N10895   1.840   1.172  11.206  0.3450 -0.2465  0.0766
  107OSM    C1510896   1.750   1.281  11.259 -0.0489  0.4159 -0.2224
  107OSM   H15A10897   1.694   1.321  11.175 -0.2782 -0.2137 -0.3775
  107OSM   H15B10898   1.806   1.345  11.325  0.7920 -0.7697  0.2535
  107OSM   H15C10899   1.664   1.240  11.310  0.3157 -0.8568 -0.5774
  107OSM    C1410900   1.937   1.247  11.125  0.9471 -0.7951 -0.1529
  107OSM   H14A10901   1.996   1.186  11.059  0.3619 -0.5272 -0.9342
  107OSM   H14B10902   2.014   1.293  11.186  1.9369 -0.1956 -1.7871
  107OSM   H14C10903   1.895   1.325  11.063 -2.5852 -3.0850 -0.9301
  107OSM    C1310904   1.907   1.105  11.318  0.0687  0.4025  0.0800
  107OSM   H13A10905   1.841   1.061  11.391  2.2660 -2.9943  0.2649
  107OSM   H13B10906   1.982   1.173  11.356  1.8397 -1.3803 -0.0980
  107OSM   H13C10907   1.963   1.018  11.289  1.0548  0.2282  2.2729
  107OSM    C1210908   1.754   1.076  11.129 -0.1649 -0.6589 -0.4940
  107OSM   H12A10909   1.704   1.132  11.052  0.4572  1.8243  0.7907
  107OSM   H12B10910   1.668   1.058  11.192 -0.6869  2.4840 -0.1377
  107OSM    C1110911   1.816   0.944  11.084  0.3976  0.7787 -0.4476
  107OSM   H11A10912   1.740   0.880  11.034 -0.1221  0.5930  0.5673
  107OSM   H11B10913   1.861   0.899  11.175  0.1238  0.6105 -0.3939
  107OSM      P10914   2.025   0.880  10.946  0.4891  0.3295 -0.4616
  107OSM    O1310915   2.126   0.951  10.874 -0.0132 -0.1751  0.5181
  107OSM    O1410916   2.074   0.795  11.057  0.9731 -0.0039 -0.0831
  107OSM    O1110917   1.947   0.786  10.851  0.2199  0.2405  0.4308
  107OSM    O1210918   1.918   0.982  10.990  0.0128 -0.1877  0.5661
  107OSM    C1S10919   1.865   0.825  10.740  0.1250 -0.7394  0.4135
  107OSM    H1S10920   1.843   0.934  10.733  2.3179 -0.2736  0.0810
  107OSM    H1T10921   1.770   0.769  10.742 -0.0869 -0.3994  0.0901
  107OSM     NF10922   1.867   0.859  10.499 -0.1853  0.9652  1.0198
  107OSM    HNF10923   1.816   0.794  10.444 -0.1962  2.7718 -1.2584
  107OSM    C2S10924   1.943   0.802  10.610  0.1876  1.1100 -0.7655
  107OSM    H2S10925   2.040   0.856  10.613  0.2451  1.0587 -1.5449
  107OSM    C3S10926   1.968   0.649  10.597  0.1990  0.0760 -0.2904
  107OSM    H3S10927   1.871   0.593  10.598 -0.2622  0.8607  1.5324
  107OSM     O310928   2.050   0.587  10.698 -0.0537  0.0022 -0.5639
  107OSM    HO310929   2.055   0.651  10.770 -0.5371  0.1539 -0.6634
  107OSM    C4S10930   2.050   0.618  10.476 -0.7267  0.0779  0.4055
  107OSM    H4S10931   2.160   0.619  10.482 -0.2780 -3.8345 -2.8608
  107OSM    C5S10932   2.005   0.582  10.354  0.1212  0.3662  0.0492
  107OSM    H5S10933   1.900   0.568  10.324  0.7470 -0.8460 -1.7742
  107OSM    C6S10934   2.098   0.530  10.242  0.5551 -0.0382  0.7284
  107OSM    H6S10935   2.093   0.421  10.222 -0.6879  0.2496 -0.6546
  107OSM    H6T10936   2.205   0.536  10.273  0.9537 -0.9757 -0.4089
  107OSM    C7S10937   2.073   0.609  10.116 -0.3129  0.2491  0.1327
  107OSM    H7S10938   2.108   0.713  10.134  1.6399 -0.4040  0.4019
  107OSM    H7T10939   1.965   0.615  10.090 -0.3348  2.4871  0.5704
  107OSM    C8S10940   2.156   0.550  10.000  0.6736 -0.6409 -0.9790
  107OSM    H8S10941   2.119   0.449   9.974 -2.2166 -0.0406  0.3468
  107OSM    H8T10942   2.261   0.537  10.034 -0.0228  1.1820  2.2958
  107OSM    C9S10943   2.149   0.643   9.878 -0.1521 -0.2106 -0.0027
  107OSM    H9S10944   2.186   0.744   9.906 -1.2563  0.1640  0.1548
  107OSM    H9T10945   2.042   0.663   9.855  0.1675  1.2493 -0.3386
  107OSM   C10S10946   2.200   0.586   9.749  0.4237 -0.2655  0.6138
  107OSM   H10S10947   2.129   0.503   9.731 -0.7078  0.5628  1.1333
  107OSM   H10T10948   2.302   0.543   9.754  0.8155  0.7323  1.7522
  107OSM   C11S10949   2.194   0.689   9.638  0.0230  0.4217  0.7452
  107OSM   H11S10950   2.288   0.748   9.626 -0.5323  0.9637 -1.6818
  107OSM   H11T10951   2.109   0.759   9.650  0.5242  1.9262 -2.9244
  107OSM   C12S10952   2.154   0.623   9.501 -0.6670 -0.1123 -0.1269
  107OSM   H12S10953   2.065   0.563   9.529 -0.9211  0.7365  0.9970
  107OSM   H12T10954   2.232   0.551   9.469 -1.4215 -0.8695 -0.3054
  107OSM   C13S10955   2.120   0.728   9.392  0.4657  0.3842  0.2418
  107OSM   H13S10956   2.208   0.775   9.344  0.8099  0.6336  1.0997
  107OSM   H13T10957   2.051   0.804   9.435 -0.6480  0.7205 -2.0167
  107OSM   C14S10958   2.039   0.673   9.272 -0.0271 -0.3325 -0.1549
  107OSM   H14S10959   1.930   0.662   9.290 -0.1100 -0.4017 -0.6976
  107OSM   H14T10960   2.072   0.572   9.239  0.0616 -0.3515 -0.0113
  107OSM   C15S10961   2.054   0.772   9.162  0.5155  0.4138  0.1559
  107OSM   H15S10962   2.159   0.773   9.124  0.7913 -3.9556  0.3026
  107OSM   H15T10963   2.016   0.871   9.196 -2.5654 -0.5150 -0.2542
  107OSM   C16S10964   1.980   0.725   9.033 -0.5311  0.1168  0.0827
  107OSM   H16S10965   2.002   0.793   8.948 -3.2989  1.4429  0.2985
  107OSM   H16T10966   1.871   0.732   9.055 -0.2753  0.8504  1.1845
  107OSM   C17S10967   2.003   0.578   8.983  0.2195 -0.3497  0.0555
  107OSM   H17S10968   1.946   0.507   9.047 -1.1239  0.4849 -0.1921
  107OSM   H17T10969   2.111   0.554   8.989  0.4292  0.7783  1.0863
  107OSM   C18S10970   1.966   0.560   8.835  0.8728  0.0504  0.4640
  107OSM   H18S10971   2.021   0.635   8.775  0.2367  0.3814  0.2843
  107OSM   H18T10972   1.858   0.585   8.831  0.6384 -1.1126 -1.8626
  107OSM   H18U10973   1.974   0.453   8.805  0.4846  0.0476  0.3633
  107OSM    C1F10974   1.855   0.992  10.478 -0.0841 -0.0037 -0.4318
  107OSM     OF10975   1.931   1.070  10.539 -0.0933  0.1044 -0.4373
  107OSM    C2F10976   1.748   1.033  10.383 -0.4283 -0.5918 -0.2035
  107OSM    H2F10977   1.673   1.097  10.435 -0.0650  0.3355 -0.7873
  107OSM    H2G10978   1.702   0.939  10.345 -0.6338 -0.5610 -0.0306
  107OSM    C3F10979   1.819   1.105  10.264 -0.3228  0.0000 -0.2953
  107OSM    H3F10980   1.901   1.047  10.216 -1.0497  0.8234 -2.6534
  107OSM    H3G10981   1.856   1.201  10.307 -1.5433  1.1315 -1.7072
  107OSM    C4F10982   1.731   1.148  10.146 -0.0954  0.0433  0.0431
  107OSM    H4F10983   1.624   1.160  10.170  0.2781 -0.8097  2.4308
  107OSM    H4G10984   1.736   1.063  10.075 -1.1963 -0.6747  0.8048
  107OSM    C5F10985   1.796   1.263  10.074 -0.2121  0.2456 -0.9393
  107OSM    H5F10986   1.907   1.260  10.073 -0.1469  1.5886 -0.5555
  107OSM    H5G10987   1.763   1.353  10.131 -0.5424  0.0582 -0.8327
  107OSM    C6F10988   1.745   1.283   9.934 -0.3526 -0.0997  0.6343
  107OSM    H6F10989   1.635   1.268   9.929 -0.4652  0.7334  0.4145
  107OSM    H6G10990   1.803   1.210   9.873 -0.2443  0.7254 -0.2705
  107OSM    C7F10991   1.773   1.426   9.878 -0.2781 -0.4322 -0.1078
  107OSM    H7F10992   1.881   1.437   9.858 -0.5144 -1.5061 -2.2272
  107OSM    H7G10993   1.750   1.486   9.969 -0.1860 -1.9305  0.9382
  107OSM    C8F10994   1.688   1.455   9.760  0.9837  0.6617  0.2703
  107OSM    H8F10995   1.705   1.563   9.737  0.1875  1.0583  1.4121
  107OSM    H8G10996   1.585   1.453   9.802  1.0151  1.8746  0.4455
  107OSM    C9F10997   1.690   1.367   9.632 -0.5260 -0.2538  0.3388
  107OSM    H9F10998   1.720   1.261   9.642  0.7663  0.0504 -0.1939
  107OSM   C10F10999   1.642   1.405   9.512  0.1149  0.1302 -0.6557
  107OSM   H10F11000   1.645   1.328   9.433 -0.3824 -0.7856  0.2064
  107OSM   C11F11001   1.580   1.534   9.460 -0.6171 -0.6066  0.5792
  107OSM   H11F11002   1.577   1.614   9.537 -0.7137  0.6908 -0.7042
  107OSM   H11G11003   1.476   1.522   9.422  0.1646  1.2632 -2.5242
  107OSM   C12F11004   1.673   1.585   9.348  0.3296 -0.7468  0.0011
  107OSM   H12F11005   1.780   1.587   9.378  0.4655  0.8311 -0.4892
  107OSM   H12G11006   1.636   1.690   9.346  2.0948 -0.0801  0.3868
  107OSM   C13F11007   1.649   1.515   9.213  0.7567  0.4950  0.3651
  107OSM   H13F11008   1.551   1.462   9.211  1.2712 -0.5522  1.5272
  107OSM   H13G11009   1.724   1.436   9.190 -1.0352 -0.8236 -1.2017
  107OSM   C14F11010   1.640   1.606   9.095 -0.3179  0.2716  0.0089
  107OSM   H14F11011   1.736   1.660   9.079  0.6925 -2.0897 -2.7180
  107OSM   H14G11012   1.561   1.684   9.105  0.4757  1.3517 -1.5985
  107OSM   C15F11013   1.604   1.535   8.963  0.2766  0.0710  0.2117
  107OSM   H15F11014   1.512   1.475   8.981 -0.1385  0.2628 -1.1183
  107OSM   H15G11015   1.688   1.466   8.939  0.4732  1.1517 -2.5208
  107OSM   C16F11016   1.565   1.635   8.851  0.0159 -0.0952  0.2521
  107OSM   H16F11017   1.644   1.713   8.852 -0.1157  0.0610 -0.4934
  107OSM   H16G11018   1.459   1.670   8.860 -0.1751 -0.2405 -1.2063
  107OSM   C17F11019   1.564   1.572   8.714 -0.0346  0.4940  0.4943
  107OSM   H17F11020   1.510   1.640   8.645  0.7161  0.5257 -0.0845
  107OSM   H17G11021   1.527   1.468   8.722 -2.4145  1.2647  0.1858
  107OSM   C18F11022   1.713   1.567   8.654  0.5239 -0.3011  0.9219
  107OSM   H18F11023   1.718   1.496   8.569  2.2210 -0.7357  1.3477
  107OSM   H18G11024   1.788   1.549   8.734  1.1358 -2.6070 -0.1003
  107OSM   H18H11025   1.726   1.672   8.618  1.2116  0.3986  3.0640
  108OSM      N11026   2.758   0.686  11.219 -0.5303  0.1033 -0.4255
  108OSM    C1511027   2.714   0.752  11.350  0.5004  0.0611  0.3166
  108OSM   H15A11028   2.797   0.793  11.407  1.6006 -0.0511 -1.1545
  108OSM   H15B11029   2.655   0.692  11.418 -1.1197  2.3009  0.9874
  108OSM   H15C11030   2.656   0.837  11.319 -1.5623 -1.5541 -0.4530
  108OSM    C1411031   2.846   0.565  11.246 -0.2833  0.8978  0.3246
  108OSM   H14A11032   2.795   0.488  11.302 -1.0208  1.2491  0.1506
  108OSM   H14B11033   2.929   0.597  11.307 -1.2817  1.1782  1.5793
  108OSM   H14C11034   2.885   0.524  11.154  0.3424  0.9508  0.5569
  108OSM    C1311035   2.632   0.641  11.154 -0.9706 -0.0778  0.6651
  108OSM   H13A11036   2.560   0.719  11.132  1.5713  2.5649  1.1302
  108OSM   H13B11037   2.580   0.565  11.210  1.0045 -2.7631 -0.9282
  108OSM   H13C11038   2.651   0.588  11.061  1.7418  2.2620 -0.2573
  108OSM    C1211039   2.827   0.775  11.123 -0.5242 -0.0194  0.0602
  108OSM   H12A11040   2.928   0.781  11.160 -0.2744  1.7901 -0.8196
  108OSM   H12B11041   2.806   0.880  11.132 -0.0228 -0.0501  1.8195
  108OSM    C1111042   2.834   0.747  10.967 -0.6420  0.6846 -0.2498
  108OSM   H11A11043   2.904   0.829  10.940 -0.4164  0.8597  0.8043
  108OSM   H11B11044   2.734   0.772  10.925 -0.7162  0.6532 -0.0945
  108OSM      P11045   3.022   0.567  10.909 -0.0526 -0.3520  0.0919
  108OSM    O1311046   3.107   0.633  11.013  0.2261  0.2005 -0.4528
  108OSM    O1411047   3.013   0.417  10.908 -0.6926  0.5035 -0.3162
  108OSM    O1111048   3.057   0.631  10.770 -0.3806 -0.0536  0.0117
  108OSM    O1211049   2.878   0.616  10.930  0.5096  0.1949  0.2719
  108OSM    C1S11050   2.963   0.595  10.664  0.7724 -0.3285  0.0755
  108OSM    H1S11051   2.856   0.619  10.687  0.3508 -1.5432 -0.5310
  108OSM    H1T11052   2.969   0.487  10.639 -1.7556 -1.1027  2.3574
  108OSM     NF11053   2.886   0.645  10.436 -0.5127  0.4377 -0.3428
  108OSM    HNF11054   2.917   0.579  10.369  0.1638  1.6269 -1.2430
  108OSM    C2S11055   2.993   0.675  10.527  0.3412  0.9387  0.1047
  108OSM    H2S11056   2.990   0.783  10.551  1.9461  1.0587 -0.1178
  108OSM    C3S11057   3.141   0.650  10.469  0.2215  0.7797  0.1541
  108OSM    H3S11058   3.157   0.542  10.449 -1.2124  0.1644  2.0346
  108OSM     O311059   3.244   0.668  10.565 -0.3291  0.4828 -0.4401
  108OSM    HO311060   3.196   0.665  10.648 -0.0617  1.2515 -0.2544
  108OSM    C4S11061   3.166   0.745  10.359  0.1000 -0.1925  0.3650
  108OSM    H4S11062   3.187   0.689  10.267 -2.1845 -1.8111  0.7399
  108OSM    C5S11063   3.174   0.882  10.371  0.1038  0.6690  0.3365
  108OSM    H5S11064   3.158   0.927  10.470 -1.1850  0.4492  0.2435
  108OSM    C6S11065   3.204   0.975  10.253  0.3928 -0.7481  0.0354
  108OSM    H6S11066   3.311   1.005  10.255 -0.1069  1.3290 -1.1484
  108OSM    H6T11067   3.142   1.067  10.256 -0.2457 -1.1033 -1.4138
  108OSM    C7S11068   3.177   0.914  10.110  0.2354  0.1944  0.1094
  108OSM    H7S11069   3.072   0.877  10.108  0.4007 -0.2618 -1.6811
  108OSM    H7T11070   3.240   0.824  10.091  0.7731  0.9046 -1.5934
  108OSM    C8S11071   3.196   1.012   9.982 -0.1569  0.0532  0.3327
  108OSM    H8S11072   3.305   1.025   9.968 -0.6635  2.8664 -1.9752
  108OSM    H8T11073   3.156   1.114   9.997 -0.3121  0.0604 -0.1193
  108OSM    C9S11074   3.130   0.955   9.853  0.2311 -0.4910  0.7191
  108OSM    H9S11075   3.021   0.940   9.868 -0.2193 -0.0015 -1.6167
  108OSM    H9T11076   3.178   0.858   9.830  0.9645  0.1540 -0.5629
  108OSM   C10S11077   3.156   1.044   9.734  1.1724 -0.0845 -0.2698
  108OSM   H10S11078   3.256   1.075   9.696 -0.0597  2.0705 -1.9902
  108OSM   H10T11079   3.105   1.137   9.766 -2.9516 -1.3076 -2.5142
  108OSM   C11S11080   3.094   1.004   9.599  0.7754  0.2766  0.1157
  108OSM   H11S11081   2.990   0.967   9.615  0.0447  0.9988 -2.4701
  108OSM   H11T11082   3.154   0.924   9.552 -0.3146  0.1564 -1.1060
  108OSM   C12S11083   3.095   1.118   9.496  0.2901  0.2679 -0.0058
  108OSM   H12S11084   3.191   1.164   9.466  0.6495 -1.3617 -1.5601
  108OSM   H12T11085   3.034   1.205   9.529 -1.1117 -0.4074 -0.6994
  108OSM   C13S11086   3.035   1.074   9.356 -0.8133  0.1751  0.4389
  108OSM   H13S11087   2.933   1.040   9.383 -1.7504  0.4167 -2.5073
  108OSM   H13T11088   3.092   0.987   9.318  0.2395  0.6397  0.9259
  108OSM   C14S11089   3.043   1.178   9.248  0.0384 -0.5389 -0.0937
  108OSM   H14S11090   3.140   1.233   9.242 -1.3370  2.3112  1.5796
  108OSM   H14T11091   2.980   1.260   9.288 -0.3331 -1.1735  0.6305
  108OSM   C15S11092   3.007   1.137   9.102  0.6621  0.0664  0.3215
  108OSM   H15S11093   2.903   1.102   9.088  0.5900  0.1474  0.6393
  108OSM   H15T11094   3.079   1.056   9.078  0.3839 -0.2941  0.6762
  108OSM   C16S11095   3.035   1.244   9.003 -0.1598  0.1097  0.3144
  108OSM   H16S11096   3.134   1.290   9.027 -0.5824  0.3361  1.7534
  108OSM   H16T11097   2.973   1.334   9.022  0.3596  0.3898  0.7357
  108OSM   C17S11098   3.013   1.202   8.864  0.5674 -0.1644 -0.4990
  108OSM   H17S11099   2.907   1.170   8.853  0.3191  0.2816  0.4989
  108OSM   H17T11100   3.068   1.106   8.853  0.9420 -0.3880  2.4889
  108OSM   C18S11101   3.030   1.300   8.745  0.6398 -0.0720 -0.1737
  108OSM   H18S11102   2.992   1.257   8.650 -1.1684  1.0803 -0.0108
  108OSM   H18T11103   3.135   1.328   8.724  0.4422  0.4904 -0.4204
  108OSM   H18U11104   2.965   1.388   8.761 -0.1315 -0.5443 -0.6199
  108OSM    C1F11105   2.758   0.691  10.430 -0.1032 -0.6617  0.8654
  108OSM     OF11106   2.726   0.766  10.523 -0.1739 -0.2432 -0.1570
  108OSM    C2F11107   2.666   0.645  10.325  0.6182 -0.3697 -0.1938
  108OSM    H2F11108   2.593   0.579  10.376  1.9277  0.4000  2.8697
  108OSM    H2G11109   2.721   0.594  10.243  0.3370  1.4071 -1.5622
  108OSM    C3F11110   2.586   0.764  10.256 -0.2463  0.3775 -0.2546
  108OSM    H3F11111   2.660   0.835  10.213 -1.3829  1.6845 -0.1237
  108OSM    H3G11112   2.531   0.826  10.330 -1.5564  0.2851 -1.1290
  108OSM    C4F11113   2.489   0.720  10.146  0.7369  0.2981  0.3921
  108OSM    H4F11114   2.416   0.800  10.124  0.9459  0.4573  0.2782
  108OSM    H4G11115   2.444   0.623  10.176  0.3928 -0.3364 -1.9591
  108OSM    C5F11116   2.551   0.683  10.009 -0.0977  0.2428 -0.0270
  108OSM    H5F11117   2.472   0.626   9.956  1.0777  0.9560 -2.7802
  108OSM    H5G11118   2.641   0.621  10.030 -0.7282 -0.4403  0.7271
  108OSM    C6F11119   2.595   0.798   9.910  1.0263  0.2849 -0.0578
  108OSM    H6F11120   2.689   0.836   9.956  0.4701  0.9135  0.5872
  108OSM    H6G11121   2.520   0.880   9.909  1.7877  1.0252 -1.7500
  108OSM    C7F11122   2.617   0.736   9.766 -0.0612 -0.1360  0.0891
  108OSM    H7F11123   2.524   0.699   9.719  1.4612 -0.4720 -2.9525
  108OSM    H7G11124   2.675   0.641   9.766  0.8708  0.4159 -0.5312
  108OSM    C8F11125   2.689   0.827   9.665 -0.3212 -0.2434  0.0636
  108OSM    H8F11126   2.793   0.846   9.697  0.4149 -2.9336 -0.4288
  108OSM    H8G11127   2.638   0.925   9.656  0.5063  0.2709  0.8390
  108OSM    C9F11128   2.697   0.746   9.536  1.0488 -0.3078 -0.3597
  108OSM    H9F11129   2.765   0.660   9.527 -0.6434 -1.8600  0.8796
  108OSM   C10F11130   2.617   0.777   9.434  0.0655  0.2263  0.4670
  108OSM   H10F11131   2.635   0.715   9.345  1.8826  0.5496  0.5641
  108OSM   C11F11132   2.508   0.879   9.419  0.8420 -0.3454  0.4292
  108OSM   H11F11133   2.483   0.918   9.520 -2.1089 -0.2078 -0.2511
  108OSM   H11G11134   2.411   0.831   9.394  0.9965  0.0138 -0.9476
  108OSM   C12F11135   2.540   0.988   9.316 -0.7051  0.1418 -0.4420
  108OSM   H12F11136   2.643   1.026   9.328 -1.0833  1.9233 -2.1931
  108OSM   H12G11137   2.476   1.074   9.345  0.5219  0.4173  1.6123
  108OSM   C13F11138   2.514   0.952   9.169  0.1440  0.2315  0.7186
  108OSM   H13F11139   2.411   0.910   9.165 -1.5586  3.5754  3.9606
  108OSM   H13G11140   2.598   0.884   9.144 -0.0345  0.2052  0.1612
  108OSM   C14F11141   2.518   1.071   9.070 -0.1785  0.8208  1.0278
  108OSM   H14F11142   2.621   1.101   9.040 -0.0103 -1.1603 -0.5845
  108OSM   H14G11143   2.464   1.161   9.106 -1.8769  0.3044 -0.0924
  108OSM   C15F11144   2.444   1.049   8.932 -0.9151 -0.3695 -0.7075
  108OSM   H15F11145   2.473   0.951   8.888 -0.2732  0.6961 -2.7866
  108OSM   H15G11146   2.490   1.120   8.860 -0.7248  1.1142  0.8354
  108OSM   C16F11147   2.295   1.043   8.948  0.2311  0.0397 -0.2883
  108OSM   H16F11148   2.274   1.150   8.973  0.3753  0.5669 -2.2566
  108OSM   H16G11149   2.273   0.981   9.037  0.6490 -0.0269 -0.2287
  108OSM   C17F11150   2.228   1.008   8.817  0.4750  0.4342  0.2963
  108OSM   H17F11151   2.264   1.072   8.733 -1.1684 -0.1870 -0.9407
  108OSM   H17G11152   2.120   1.033   8.824  0.5337  1.7798 -2.1626
  108OSM   C18F11153   2.226   0.867   8.760 -0.6928 -0.0777  1.1713
  108OSM   H18F11154   2.179   0.850   8.660 -0.0383 -0.1308  0.8697
  108OSM   H18G11155   2.176   0.796   8.829 -0.8456 -1.7250 -0.5410
  108OSM   H18H11156   2.331   0.832   8.754 -0.5594  0.4035  0.4654
  109OSM      N11157   3.825   3.640  11.145 -0.4359 -0.1885 -0.2670
  109OSM    C1511158   3.971   3.642  11.132  0.1038 -1.1897  0.0455
  109OSM   H15A11159   4.010   3.680  11.226  0.1306 -0.8526 -0.1012
  109OSM   H15B11160   3.995   3.715  11.056 -2.1837 -2.4522 -2.0085
  109OSM   H15C11161   4.009   3.544  11.107 -2.8603 -2.0158 -1.7311
  109OSM    C1411162   3.752   3.587  11.026  0.3114 -0.1452 -0.1280
  109OSM   H14A11163   3.647   3.608  11.041  0.7193  0.9785  1.3933
  109OSM   H14B11164   3.771   3.481  11.017  1.1729 -0.0121  0.0907
  109OSM   H14C11165   3.768   3.633  10.929 -1.7632  0.4855 -0.2208
  109OSM    C1311166   3.795   3.556  11.262  0.1993  0.5872 -0.5464
  109OSM   H13A11167   3.831   3.592  11.357  0.4140 -1.3679  0.1548
  109OSM   H13B11168   3.833   3.455  11.257 -2.5464 -0.6566  1.2519
  109OSM   H13C11169   3.688   3.545  11.275  0.3967  0.2785  0.9735
  109OSM    C1211170   3.788   3.782  11.179  0.5726 -0.2677  0.5743
  109OSM   H12A11171   3.850   3.832  11.252 -0.2523  0.7116  0.6391
  109OSM   H12B11172   3.688   3.783  11.220  0.3360  0.1275  0.0187
  109OSM    C1111173   3.785   3.880  11.062  0.0510 -0.9640 -0.0668
  109OSM   H11A11174   3.714   3.847  10.983 -0.0362  0.6654 -0.7100
  109OSM   H11B11175   3.874   3.873  10.996 -0.6001  1.4440 -1.3491
  109OSM      P11176   3.892   4.105  11.138 -0.1454 -0.2380  0.4843
  109OSM    O1311177   3.861   4.251  11.132 -0.1307  0.6647 -0.3923
  109OSM    O1411178   3.951   4.051  11.264  0.1187  0.0178 -0.3922
  109OSM    O1111179   3.996   4.084  11.022  0.1142 -0.1901  0.8016
  109OSM    O1211180   3.761   4.015  11.104 -0.1832  0.5134 -0.2438
  109OSM    C1S11181   3.977   4.097  10.883 -0.2619 -0.4125 -0.1004
  109OSM    H1S11182   3.872   4.120  10.859  0.4159  0.4717 -2.4311
  109OSM    H1T11183   3.989   3.998  10.833 -0.2430 -0.6377  0.3457
  109OSM     NF11184   4.024   4.208  10.675 -0.4452  0.4705  0.0646
  109OSM    HNF11185   4.096   4.208  10.606  0.2801  0.6220  0.7958
  109OSM    C2S11186   4.067   4.201  10.814 -0.1588 -0.3825 -0.7728
  109OSM    H2S11187   4.056   4.305  10.852 -2.6949  0.4076 -3.2961
  109OSM    C3S11188   4.221   4.171  10.832 -0.6901 -0.3721 -0.6704
  109OSM    H3S11189   4.251   4.072  10.790 -1.0668 -0.0241 -1.7822
  109OSM     O311190   4.252   4.158  10.969 -0.2110  0.0787 -0.8159
  109OSM    HO311191   4.169   4.178  11.012 -0.5407  1.2223 -1.9194
  109OSM    C4S11192   4.306   4.271  10.760 -0.6649 -0.0766 -0.4932
  109OSM    H4S11193   4.302   4.368  10.812 -0.9727 -0.4939  0.2799
  109OSM    C5S11194   4.375   4.254  10.639  0.3814  0.0102 -1.2490
  109OSM    H5S11195   4.387   4.154  10.597  0.4573  0.2803 -1.8797
  109OSM    C6S11196   4.449   4.354  10.556 -0.1590 -0.2970 -0.1462
  109OSM    H6S11197   4.560   4.345  10.560 -0.0703  0.8895  0.2290
  109OSM    H6T11198   4.429   4.454  10.599  1.0951 -0.7487  1.5878
  109OSM    C7S11199   4.425   4.369  10.404 -0.4614  0.0414 -0.5295
  109OSM    H7S11200   4.466   4.471  10.386  1.3260 -0.0058  2.5702
  109OSM    H7T11201   4.317   4.367  10.378 -0.3366  0.2627 -1.0868
  109OSM    C8S11202   4.504   4.271  10.315 -0.2367 -0.6750 -0.2305
  109OSM    H8S11203   4.472   4.164  10.322 -0.2828 -0.8091 -2.0869
  109OSM    H8T11204   4.613   4.289  10.331 -0.4319 -0.7622  1.3485
  109OSM    C9S11205   4.473   4.315  10.168 -0.5516  0.4410  0.2584
  109OSM    H9S11206   4.494   4.424  10.163  2.9874 -0.1665 -1.1948
  109OSM    H9T11207   4.365   4.302  10.149 -0.9705  4.9065 -1.5270
  109OSM   C10S11208   4.539   4.219  10.070 -0.0547 -0.1550 -0.2950
  109OSM   H10S11209   4.500   4.117  10.094 -0.5705 -0.0676 -0.7370
  109OSM   H10T11210   4.643   4.220  10.107 -0.5638 -2.8747  1.5417
  109OSM   C11S11211   4.504   4.247   9.922  0.0585  0.5069 -0.2507
  109OSM   H11S11212   4.562   4.330   9.875  3.2065 -2.0992 -1.3197
  109OSM   H11T11213   4.395   4.267   9.912  0.0760  2.1467  2.0036
  109OSM   C12S11214   4.537   4.134   9.827 -0.0733 -0.0035  0.0006
  109OSM   H12S11215   4.466   4.049   9.842 -0.5728  0.6838  1.7093
  109OSM   H12T11216   4.635   4.084   9.845 -1.1573 -2.3071 -0.0659
  109OSM   C13S11217   4.524   4.158   9.674  0.2592 -0.1321 -0.2066
  109OSM   H13S11218   4.576   4.072   9.627  2.1197 -0.4789  2.2637
  109OSM   H13T11219   4.592   4.244   9.656  0.9352 -0.4999  0.5420
  109OSM   C14S11220   4.385   4.193   9.633  0.3800  0.7949  0.1476
  109OSM   H14S11221   4.337   4.264   9.703 -0.8815 -0.9033  1.1047
  109OSM   H14T11222   4.314   4.108   9.619 -0.3510  0.6833  3.6250
  109OSM   C15S11223   4.384   4.262   9.489 -0.1433  0.9410  0.0977
  109OSM   H15S11224   4.424   4.365   9.491  1.2971  0.4863 -2.3761
  109OSM   H15T11225   4.282   4.271   9.445 -0.4094 -2.1572 -0.1808
  109OSM   C16S11226   4.463   4.178   9.384  0.7559  0.7718  0.4448
  109OSM   H16S11227   4.425   4.074   9.395  0.0772  1.1603  1.9763
  109OSM   H16T11228   4.569   4.176   9.417  0.8837 -1.3897  0.0698
  109OSM   C17S11229   4.462   4.227   9.235 -0.2370  0.1438  0.0988
  109OSM   H17S11230   4.521   4.158   9.171  0.7847  1.0569  0.0176
  109OSM   H17T11231   4.519   4.322   9.228 -0.6049  0.2272 -4.0880
  109OSM   C18S11232   4.322   4.255   9.184 -0.1201  0.0289  0.2780
  109OSM   H18S11233   4.315   4.308   9.087  1.8711  1.0597  0.6392
  109OSM   H18T11234   4.262   4.329   9.241 -1.1766  0.1687 -0.9868
  109OSM   H18U11235   4.265   4.160   9.175 -0.7731  0.4803 -0.4151
  109OSM    C1F11236   3.902   4.240  10.638 -0.0117 -0.3729  0.2921
  109OSM     OF11237   3.819   4.289  10.712  0.3803  0.3784 -0.5708
  109OSM    C2F11238   3.868   4.201  10.497 -0.0008  0.6608  0.1724
  109OSM    H2F11239   3.771   4.248  10.470 -1.8589 -3.1109 -0.4271
  109OSM    H2G11240   3.841   4.093  10.495  0.4414  0.5036  1.4831
  109OSM    C3F11241   3.973   4.230  10.390 -0.4607  0.3345  0.5961
  109OSM    H3F11242   4.065   4.168  10.388 -0.2781  0.5567  1.4321
  109OSM    H3G11243   4.001   4.337  10.399 -1.4128  0.6734 -0.2630
  109OSM    C4F11244   3.920   4.218  10.244 -0.1263 -0.1871  0.0884
  109OSM    H4F11245   3.821   4.268  10.233 -0.7794 -1.2692  0.8213
  109OSM    H4G11246   3.898   4.112  10.220  2.0625 -0.8930  0.9373
  109OSM    C5F11247   4.027   4.270  10.139 -0.3659 -0.4897 -0.5395
  109OSM    H5F11248   4.116   4.205  10.148  1.0861  1.1163 -2.3473
  109OSM    H5G11249   4.051   4.372  10.176 -1.5694 -1.0068  1.8982
  109OSM    C6F11250   3.984   4.269  10.001  0.4861  0.5403  0.0220
  109OSM    H6F11251   3.893   4.332   9.989 -0.0715  0.0784  1.6836
  109OSM    H6G11252   3.940   4.172   9.971  0.3091  0.7845 -0.5294
  109OSM    C7F11253   4.086   4.314   9.886  0.2538  0.2162  0.3546
  109OSM    H7F11254   4.173   4.245   9.888 -0.7802 -1.1798 -0.7014
  109OSM    H7G11255   4.126   4.416   9.908  1.4378  0.0142 -0.7652
  109OSM    C8F11256   4.019   4.316   9.744 -0.8591  0.0532 -0.0018
  109OSM    H8F11257   4.096   4.350   9.672 -1.5090  0.1332 -0.6658
  109OSM    H8G11258   3.943   4.395   9.756 -1.4724 -0.6012  0.5043
  109OSM    C9F11259   3.958   4.194   9.687  0.0206  0.0014  0.0883
  109OSM    H9F11260   3.948   4.110   9.758 -1.0285 -0.3569 -0.4582
  109OSM   C10F11261   3.912   4.185   9.565  0.4095  0.3899 -0.3270
  109OSM   H10F11262   3.876   4.089   9.525 -1.5128  0.3945  1.2171
  109OSM   C11F11263   3.907   4.296   9.469 -0.6719 -0.2397 -0.6631
  109OSM   H11F11264   3.990   4.368   9.486 -1.1470  0.0974  0.3267
  109OSM   H11G11265   3.808   4.346   9.480 -0.0716  0.6787  0.9355
  109OSM   C12F11266   3.930   4.254   9.321 -0.2216 -0.7429 -0.3790
  109OSM   H12F11267   3.932   4.144   9.308  2.1161 -0.8391  0.3221
  109OSM   H12G11268   4.036   4.280   9.300 -0.3695 -1.1400 -1.6919
  109OSM   C13F11269   3.842   4.318   9.213  0.6720  0.1561 -0.3015
  109OSM   H13F11270   3.879   4.422   9.195  0.7222  0.8053  2.9878
  109OSM   H13G11271   3.736   4.325   9.244  0.7417  0.6548 -0.1722
  109OSM   C14F11272   3.859   4.246   9.072 -0.4289  0.5614  0.1522
  109OSM   H14F11273   3.968   4.227   9.058 -0.7561 -0.5128 -1.0150
  109OSM   H14G11274   3.823   4.312   8.990 -0.8366  2.4166  1.7265
  109OSM   C15F11275   3.804   4.104   9.062 -0.6338  0.2252  0.2265
  109OSM   H15F11276   3.865   4.044   9.133  2.4836  2.1279 -0.6944
  109OSM   H15G11277   3.833   4.070   8.961  0.9865  0.7953  0.4716
  109OSM   C16F11278   3.658   4.086   9.087  0.1736  0.4480  0.7131
  109OSM   H16F11279   3.612   4.160   9.019  2.3496  0.6135 -0.6912
  109OSM   H16G11280   3.631   4.129   9.186 -0.8262  2.1542 -0.2562
  109OSM   C17F11281   3.601   3.944   9.079 -0.3551 -0.7825  0.0510
  109OSM   H17F11282   3.494   3.953   9.105 -0.8473 -2.1383 -1.2765
  109OSM   H17G11283   3.653   3.878   9.152 -0.4494 -2.1800 -1.0845
  109OSM   C18F11284   3.598   3.879   8.940 -0.3232  0.7619 -0.3688
  109OSM   H18F11285   3.539   3.785   8.942 -3.0413  2.3187 -1.6924
  109OSM   H18G11286   3.697   3.850   8.899 -0.6900 -0.3058 -0.5311
  109OSM   H18H11287   3.551   3.943   8.862 -1.5318 -0.1723 -0.4507
  110OSM      N11288   3.467   1.430  11.300  0.1722  0.4853  0.7791
  110OSM    C1511289   3.527   1.332  11.391 -0.0330  0.2522 -0.3275
  110OSM   H15A11290   3.468   1.320  11.481 -1.7652  0.1497 -1.4408
  110OSM   H15B11291   3.627   1.346  11.430  0.1241 -2.9040  0.7557
  110OSM   H15C11292   3.531   1.234  11.346 -0.5429 -1.7470  3.4809
  110OSM    C1411293   3.326   1.389  11.271 -0.0604 -1.0383  0.4014
  110OSM   H14A11294   3.328   1.295  11.218  0.4660 -0.2740 -1.0100
  110OSM   H14B11295   3.290   1.464  11.202 -1.7841 -2.4841 -0.3338
  110OSM   H14C11296   3.261   1.375  11.356 -0.5496  1.5575  0.5402
  110OSM    C1311297   3.463   1.571  11.355  0.2465  0.4889  0.4446
  110OSM   H13A11298   3.556   1.606  11.397  1.5099 -1.3195 -0.6523
  110OSM   H13B11299   3.384   1.584  11.427 -1.5793  1.4358 -1.6127
  110OSM   H13C11300   3.441   1.641  11.275  2.0292  0.1955 -0.3632
  110OSM    C1211301   3.539   1.410  11.170 -0.2050  0.8422  1.0417
  110OSM   H12A11302   3.639   1.449  11.182  1.1104 -2.3153  1.5575
  110OSM   H12B11303   3.506   1.470  11.087 -0.4178 -0.1766  0.3730
  110OSM    C1111304   3.554   1.260  11.116 -0.1286  0.2976 -0.1672
  110OSM   H11A11305   3.606   1.201  11.194 -2.1426 -1.3252  0.0459
  110OSM   H11B11306   3.615   1.273  11.024 -1.9983  2.0342 -1.2482
  110OSM      P11307   3.407   1.068  11.002 -0.5390  0.1303 -0.1613
  110OSM    O1311308   3.461   0.945  11.066  0.1901 -0.0192 -0.0984
  110OSM    O1411309   3.265   1.067  10.956 -1.0050  0.4071 -0.0450
  110OSM    O1111310   3.491   1.098  10.873  0.3004  0.0276 -0.1941
  110OSM    O1211311   3.431   1.200  11.086 -0.3571  0.9353  0.3238
  110OSM    C1S11312   3.467   1.219  10.805 -0.1873  0.6713  0.2346
  110OSM    H1S11313   3.473   1.308  10.872 -2.3582  2.0008 -1.2306
  110OSM    H1T11314   3.362   1.218  10.768 -0.1683 -2.8253  0.0133
  110OSM     NF11315   3.502   1.360  10.595 -0.9218  0.6823 -0.1475
  110OSM    HNF11316   3.435   1.363  10.522 -2.1667  1.6395  1.0047
  110OSM    C2S11317   3.542   1.235  10.664  0.1921  0.7368 -0.5160
  110OSM    H2S11318   3.652   1.248  10.677  0.3945  1.7545 -2.7527
  110OSM    C3S11319   3.526   1.103  10.589 -0.3203  0.0370  0.7020
  110OSM    H3S11320   3.419   1.077  10.577  0.1226 -1.6107  0.0174
  110OSM     O311321   3.601   0.992  10.641  0.0496 -0.0877 -0.0553
  110OSM    HO311322   3.643   1.013  10.724  0.8567 -0.8983 -0.2404
  110OSM    C4S11323   3.581   1.124  10.452 -0.0102  0.9328 -0.1926
  110OSM    H4S11324   3.503   1.129  10.374 -2.6531 -0.4425  2.2060
  110OSM    C5S11325   3.713   1.100  10.410 -0.1332 -1.2447  0.1880
  110OSM    H5S11326   3.783   1.053  10.480  1.3691 -0.2467 -0.5943
  110OSM    C6S11327   3.759   1.106  10.268  0.0351 -0.0504 -1.1771
  110OSM    H6S11328   3.789   1.007  10.228 -1.7569 -1.5627  1.0027
  110OSM    H6T11329   3.843   1.177  10.285 -0.6735  0.3223  1.0803
  110OSM    C7S11330   3.654   1.155  10.170 -0.4872  0.8522 -1.2006
  110OSM    H7S11331   3.614   1.250  10.211  0.1791  0.8564 -0.5286
  110OSM    H7T11332   3.582   1.070  10.164  1.2249 -0.6726 -1.2085
  110OSM    C8S11333   3.705   1.193  10.034  0.6043 -0.3103  0.0883
  110OSM    H8S11334   3.779   1.117  10.001 -0.5084 -1.9256  1.1693
  110OSM    H8T11335   3.760   1.288  10.049  1.7065 -1.1510  1.5290
  110OSM    C9S11336   3.598   1.220   9.922 -0.1775  0.1209 -0.9704
  110OSM    H9S11337   3.544   1.312   9.955  1.6315  1.0180 -0.3660
  110OSM    H9T11338   3.531   1.132   9.917 -0.4801 -0.0424  2.8023
  110OSM   C10S11339   3.660   1.238   9.788  0.8227  0.2426  0.3906
  110OSM   H10S11340   3.716   1.145   9.763  1.2274  0.4275  0.5884
  110OSM   H10T11341   3.736   1.319   9.793  2.1963 -1.0199  0.6579
  110OSM   C11S11342   3.557   1.269   9.681  0.2338 -0.4085  0.0030
  110OSM   H11S11343   3.530   1.375   9.702  0.7416 -0.9631  4.1853
  110OSM   H11T11344   3.460   1.214   9.687 -0.1671  0.3832  1.1124
  110OSM   C12S11345   3.611   1.251   9.537  0.0828  0.5586  0.1539
  110OSM   H12S11346   3.626   1.141   9.526 -0.0598  0.5619 -0.0626
  110OSM   H12T11347   3.712   1.298   9.536  1.3243 -1.9232 -0.4590
  110OSM   C13S11348   3.505   1.277   9.430  0.4545 -0.1352 -0.0174
  110OSM   H13S11349   3.484   1.387   9.431  1.2635  0.0292 -0.2037
  110OSM   H13T11350   3.407   1.229   9.447 -0.7057  1.9716 -0.4293
  110OSM   C14S11351   3.546   1.256   9.282 -0.1789  0.4551  0.3517
  110OSM   H14S11352   3.608   1.164   9.273  1.3429  1.4986 -0.1921
  110OSM   H14T11353   3.610   1.337   9.242  0.6696  0.0334  0.8319
  110OSM   C15S11354   3.426   1.258   9.192 -0.5581  0.7275 -0.2317
  110OSM   H15S11355   3.375   1.354   9.213  0.1032  1.3644 -1.4242
  110OSM   H15T11356   3.360   1.170   9.209  0.3215 -0.1895 -1.4300
  110OSM   C16S11357   3.459   1.267   9.042  0.9631  0.3860  0.8418
  110OSM   H16S11358   3.533   1.342   9.007  0.0454  0.0273 -2.1424
  110OSM   H16T11359   3.373   1.313   8.990  2.4010  0.4713 -1.6194
  110OSM   C17S11360   3.508   1.136   8.977  0.2190  0.4463 -0.3909
  110OSM   H17S11361   3.595   1.109   9.040 -0.7799  1.1246  1.3550
  110OSM   H17T11362   3.539   1.154   8.871  0.9596  1.1727 -0.0653
  110OSM   C18S11363   3.404   1.019   8.995 -0.2898 -0.2696  0.4747
  110OSM   H18S11364   3.441   0.933   8.936  1.9866  0.8508  0.1585
  110OSM   H18T11365   3.305   1.060   8.965  0.0280  0.8171  0.8683
  110OSM   H18U11366   3.407   0.990   9.102 -0.9463 -1.6081  0.1441
  110OSM    C1F11367   3.535   1.470  10.659  0.1096  0.5387 -0.4052
  110OSM     OF11368   3.627   1.461  10.745  0.4395  0.6599 -0.6594
  110OSM    C2F11369   3.453   1.586  10.643  0.1521 -0.5246 -0.2509
  110OSM    H2F11370   3.378   1.571  10.724 -1.1849  2.3069 -0.8363
  110OSM    H2G11371   3.403   1.571  10.545  1.0582 -1.7115 -0.5431
  110OSM    C3F11372   3.526   1.722  10.638 -0.0197 -0.2804 -0.1357
  110OSM    H3F11373   3.570   1.743  10.738 -1.6724  0.5365  0.4521
  110OSM    H3G11374   3.461   1.805  10.604  0.9801  0.5548 -0.0587
  110OSM    C4F11375   3.634   1.732  10.524  0.4084  0.5636  0.5152
  110OSM    H4F11376   3.720   1.667  10.553  0.8282  1.0837  0.4438
  110OSM    H4G11377   3.663   1.838  10.515 -0.5100  0.7330 -0.7605
  110OSM    C5F11378   3.588   1.679  10.382 -0.3784  0.0807  0.1641
  110OSM    H5F11379   3.500   1.735  10.344 -0.6607 -0.7875 -0.4882
  110OSM    H5G11380   3.561   1.572  10.394  0.8600 -0.2783 -0.0531
  110OSM    C6F11381   3.705   1.699  10.279 -1.0370  0.3845  0.0730
  110OSM    H6F11382   3.794   1.648  10.322  0.1820  2.8885  0.7038
  110OSM    H6G11383   3.724   1.808  10.274  0.2210  0.2406  1.0741
  110OSM    C7F11384   3.687   1.645  10.131  0.5783 -0.2852  0.3761
  110OSM    H7F11385   3.617   1.699  10.064  1.2434 -0.5401 -0.5486
  110OSM    H7G11386   3.645   1.543  10.145  0.4943 -0.3424 -0.2880
  110OSM    C8F11387   3.815   1.648  10.046  0.5364 -0.4216 -0.1483
  110OSM    H8F11388   3.822   1.547  10.001  1.3777  0.3559 -1.8458
  110OSM    H8G11389   3.904   1.647  10.113 -0.8924  1.4506  1.9272
  110OSM    C9F11390   3.819   1.760   9.951 -0.0510 -0.8329  0.1146
  110OSM    H9F11391   3.844   1.858   9.995 -1.3762 -0.0682 -0.7687
  110OSM   C10F11392   3.811   1.757   9.820  0.3346 -0.3933  0.0800
  110OSM   H10F11393   3.827   1.845   9.756  1.7496 -0.3474  0.4616
  110OSM   C11F11394   3.784   1.634   9.737  0.6005  0.3583 -0.7352
  110OSM   H11F11395   3.771   1.537   9.789  0.8018  0.7531  0.0815
  110OSM   H11G11396   3.869   1.621   9.667  0.2163  0.2748 -1.1875
  110OSM   C12F11397   3.661   1.637   9.646 -0.1469 -0.1849  0.4693
  110OSM   H12F11398   3.570   1.685   9.688  0.4089  0.8916  0.4691
  110OSM   H12G11399   3.638   1.530   9.623 -2.0012  0.4457 -0.9563
  110OSM   C13F11400   3.693   1.680   9.497 -0.3075 -0.1811 -0.5562
  110OSM   H13F11401   3.594   1.673   9.447 -1.1191  2.4354  0.5162
  110OSM   H13G11402   3.769   1.606   9.463 -0.1640 -0.6167  0.6891
  110OSM   C14F11403   3.748   1.818   9.487 -0.0123  0.0778  0.0216
  110OSM   H14F11404   3.852   1.808   9.522 -0.2778  1.3427  1.2426
  110OSM   H14G11405   3.679   1.868   9.558  1.2209  0.5031  0.9510
  110OSM   C15F11406   3.735   1.884   9.345 -0.2128 -0.6897  0.6774
  110OSM   H15F11407   3.773   1.809   9.273  3.3520  2.0094 -0.5436
  110OSM   H15G11408   3.805   1.970   9.337 -0.5074 -0.3303  1.8609
  110OSM   C16F11409   3.587   1.917   9.306 -0.5385  0.3598 -0.1361
  110OSM   H16F11410   3.533   1.987   9.373  0.1415  2.6036 -1.8406
  110OSM   H16G11411   3.522   1.827   9.308 -0.6605  0.4482  1.0521
  110OSM   C17F11412   3.589   1.983   9.167 -0.1673 -0.2004  0.0288
  110OSM   H17F11413   3.550   1.910   9.093 -0.9319  0.5146 -0.2888
  110OSM   H17G11414   3.692   2.015   9.139  0.3487 -0.3209  1.6572
  110OSM   C18F11415   3.497   2.106   9.151 -0.1762 -0.2264  0.3621
  110OSM   H18F11416   3.543   2.191   9.205  1.4489 -0.0265 -1.2573
  110OSM   H18G11417   3.398   2.095   9.200 -1.2813  0.4861 -1.5960
  110OSM   H18H11418   3.489   2.128   9.042 -1.2224 -0.9440  0.2727
  111OSM      N11419   3.579   5.595  10.995  0.2916 -0.1597 -0.6125
  111OSM    C1511420   3.728   5.601  11.020  0.0875  0.2384 -0.0481
  111OSM   H15A11421   3.752   5.700  11.055 -0.2196  0.2534  0.1219
  111OSM   H15B11422   3.783   5.593  10.927 -1.9024  3.0560 -1.6514
  111OSM   H15C11423   3.758   5.527  11.092  0.2804  0.3673  0.0053
  111OSM    C1411424   3.550   5.466  10.930  0.2844 -0.2049  0.5910
  111OSM   H14A11425   3.589   5.379  10.981  1.8513  0.7748  1.1283
  111OSM   H14B11426   3.583   5.468  10.828  0.6074  0.6401  0.7031
  111OSM   H14C11427   3.446   5.443  10.911  0.5911 -1.8983  0.7811
  111OSM    C1311428   3.505   5.600  11.123  0.6686 -0.0632  0.6196
  111OSM   H13A11429   3.533   5.524  11.194  0.7566 -0.9904 -0.3751
  111OSM   H13B11430   3.398   5.590  11.110  0.7808  0.3394 -0.8509
  111OSM   H13C11431   3.509   5.697  11.170 -2.4572  0.1616  0.6386
  111OSM    C1211432   3.520   5.707  10.910  0.1382 -0.1123  0.2802
  111OSM   H12A11433   3.415   5.684  10.899 -0.2899  1.7002  0.3011
  111OSM   H12B11434   3.569   5.697  10.815  0.5717 -0.8347  0.5677
  111OSM    C1111435   3.523   5.859  10.955  0.8302 -0.8061  0.0621
  111OSM   H11A11436   3.467   5.870  11.050  0.8656  1.8809 -0.1473
  111OSM   H11B11437   3.449   5.916  10.894 -2.3526 -3.1388  1.4302
  111OSM      P11438   3.732   5.950  10.830  0.5065 -0.4602 -0.4490
  111OSM    O1311439   3.872   5.980  10.871  0.5112 -0.6359 -0.0623
  111OSM    O1411440   3.712   5.857  10.722  0.1061 -0.0131 -0.0357
  111OSM    O1111441   3.668   6.080  10.775  0.4588  0.4992  0.2997
  111OSM    O1211442   3.649   5.920  10.959  0.5595 -0.2814 -0.3861
  111OSM    C1S11443   3.728   6.157  10.672  0.1873 -0.0287  0.0360
  111OSM    H1S11444   3.798   6.103  10.605  1.6954 -1.3357  2.5063
  111OSM    H1T11445   3.776   6.250  10.708 -0.1702 -0.3200  1.2959
  111OSM     NF11446   3.668   6.257  10.453 -0.3319 -0.0273 -0.2813
  111OSM    HNF11447   3.712   6.345  10.466  0.0093 -0.4375  1.7552
  111OSM    C2S11448   3.610   6.211  10.580 -0.2591  0.9465 -0.8377
  111OSM    H2S11449   3.543   6.123  10.567  1.0174  0.0930 -1.8745
  111OSM    C3S11450   3.529   6.310  10.665  0.2376  0.3013 -0.4019
  111OSM    H3S11451   3.595   6.391  10.702 -0.6378  0.6747  0.3677
  111OSM     O311452   3.467   6.254  10.774 -0.0862 -0.4222 -0.4181
  111OSM    HO311453   3.514   6.174  10.798  1.0660  0.5920  0.9035
  111OSM    C4S11454   3.417   6.366  10.580 -0.2541 -0.0284 -0.0461
  111OSM    H4S11455   3.341   6.295  10.547 -1.3425 -0.1525  2.4876
  111OSM    C5S11456   3.400   6.499  10.555 -0.5103  0.7105  0.1762
  111OSM    H5S11457   3.473   6.569  10.598 -2.5607  1.6254  2.4074
  111OSM    C6S11458   3.295   6.559  10.475 -0.0295 -0.3273 -0.0734
  111OSM    H6S11459   3.335   6.586  10.375 -0.1181 -2.6549 -0.8021
  111OSM    H6T11460   3.252   6.652  10.519  0.1325 -0.0150 -0.5750
  111OSM    C7S11461   3.158   6.483  10.452 -0.7226  0.0732  0.6657
  111OSM    H7S11462   3.106   6.478  10.550 -1.8468  0.7590  0.1305
  111OSM    H7T11463   3.171   6.383  10.406 -2.6093 -0.4601  1.2110
  111OSM    C8S11464   3.051   6.551  10.355 -0.3049  0.5529 -0.8900
  111OSM    H8S11465   3.070   6.534  10.247  2.4359 -0.8328 -0.3056
  111OSM    H8T11466   3.037   6.659  10.377 -0.1741  0.2847  0.6575
  111OSM    C9S11467   2.910   6.483  10.381 -0.1949 -0.7220  0.0874
  111OSM    H9S11468   2.913   6.432  10.480  1.6676 -0.6285  0.1143
  111OSM    H9T11469   2.896   6.400  10.309  0.9671 -1.5654  0.7968
  111OSM   C10S11470   2.781   6.581  10.395  0.7552 -0.6184 -0.4711
  111OSM   H10S11471   2.798   6.642  10.487 -3.7491 -0.6143  0.5635
  111OSM   H10T11472   2.698   6.511  10.412  0.7609 -0.6695 -0.6515
  111OSM   C11S11473   2.767   6.682  10.288 -0.3023 -0.0465  0.1316
  111OSM   H11S11474   2.864   6.727  10.257 -0.4190 -0.0906 -0.3037
  111OSM   H11T11475   2.708   6.769  10.322  0.3266  0.4479 -0.0142
  111OSM   C12S11476   2.708   6.625  10.160  0.0562 -0.3203  0.6083
  111OSM   H12S11477   2.601   6.610  10.181 -0.0237 -1.2458 -0.3655
  111OSM   H12T11478   2.761   6.530  10.139  0.0530  0.1990 -2.1436
  111OSM   C13S11479   2.727   6.715  10.038 -0.8492  0.5688  0.3350
  111OSM   H13S11480   2.835   6.742  10.033 -0.7832  0.0702 -1.8979
  111OSM   H13T11481   2.675   6.813  10.032  0.8957  1.4454 -4.2731
  111OSM   C14S11482   2.698   6.648   9.908  0.1553  0.1591  0.3624
  111OSM   H14S11483   2.592   6.617   9.916 -0.0636  0.9501  0.6491
  111OSM   H14T11484   2.768   6.563   9.896  0.1521  0.1629  0.3145
  111OSM   C15S11485   2.721   6.732   9.781  0.1745 -0.0616 -0.2366
  111OSM   H15S11486   2.830   6.740   9.760  0.5017 -1.9035  0.4878
  111OSM   H15T11487   2.675   6.832   9.796 -0.8009 -0.6487  0.8711
  111OSM   C16S11488   2.659   6.672   9.648  0.3704  0.3998 -0.4892
  111OSM   H16S11489   2.551   6.658   9.669  0.4217 -2.1869 -1.5919
  111OSM   H16T11490   2.710   6.575   9.632 -0.8767 -0.2973 -0.3691
  111OSM   C17S11491   2.687   6.760   9.526 -0.3017 -0.0251 -0.0671
  111OSM   H17S11492   2.795   6.753   9.502 -0.9113 -2.0427 -2.7646
  111OSM   H17T11493   2.642   6.857   9.556 -0.7492 -0.7774  1.7856
  111OSM   C18S11494   2.630   6.706   9.394  0.1247 -0.7284 -0.4832
  111OSM   H18S11495   2.692   6.617   9.369  1.7514  0.9717 -2.9723
  111OSM   H18T11496   2.640   6.784   9.315  0.7462  0.5770  0.8241
  111OSM   H18U11497   2.523   6.679   9.401  0.1011 -0.2805  1.4298
  111OSM    C1F11498   3.687   6.178  10.352 -0.2730  0.0771  0.0417
  111OSM     OF11499   3.616   6.081  10.337  0.6358  0.3618  0.6060
  111OSM    C2F11500   3.798   6.219  10.259  0.1692  0.2926  0.0415
  111OSM    H2F11501   3.878   6.259  10.325 -0.7015  0.6880  0.8703
  111OSM    H2G11502   3.766   6.303  10.195  0.3953  1.0417  0.8976
  111OSM    C3F11503   3.860   6.102  10.180  0.0755  0.3547  0.2656
  111OSM    H3F11504   3.786   6.069  10.104 -0.0083 -2.3563  1.4195
  111OSM    H3G11505   3.850   6.017  10.251  1.4965  0.5160  0.6708
  111OSM    C4F11506   4.004   6.126  10.122  0.1830  0.2349 -0.2938
  111OSM    H4F11507   4.031   6.037  10.062 -1.3682  0.8160 -1.9691
  111OSM    H4G11508   4.075   6.143  10.206 -1.2058  1.7935  0.6378
  111OSM    C5F11509   4.006   6.252  10.033 -0.7612  0.8688 -0.4011
  111OSM    H5F11510   4.105   6.302  10.040  0.5036 -1.4337 -0.9010
  111OSM    H5G11511   3.931   6.331  10.057 -0.1490  0.7088  2.4859
  111OSM    C6F11512   3.971   6.194   9.894  0.0430  0.0139  0.0268
  111OSM    H6F11513   3.875   6.138   9.895 -0.0278  0.1287 -0.3098
  111OSM    H6G11514   4.049   6.123   9.860 -2.1903 -1.3984 -2.4660
  111OSM    C7F11515   3.964   6.290   9.775  0.0055 -0.1193 -0.4476
  111OSM    H7F11516   4.064   6.335   9.758  0.5066  0.1584  2.7155
  111OSM    H7G11517   3.893   6.373   9.794 -0.0194 -0.1455 -0.4259
  111OSM    C8F11518   3.919   6.229   9.642 -0.5439 -0.6682 -0.7870
  111OSM    H8F11519   3.999   6.155   9.623 -0.1117 -1.0846  2.1797
  111OSM    H8G11520   3.915   6.314   9.570  1.7094 -0.3790 -0.6429
  111OSM    C9F11521   3.795   6.161   9.639  0.8528  0.1741  0.4151
  111OSM    H9F11522   3.726   6.188   9.720  1.3239  0.0798  0.8550
  111OSM   C10F11523   3.749   6.089   9.538  0.4444  0.3535  0.1355
  111OSM   H10F11524   3.655   6.035   9.554 -0.1524  1.6788  1.3355
  111OSM   C11F11525   3.821   6.049   9.419  0.4842 -0.2463  0.1106
  111OSM   H11F11526   3.930   6.065   9.421  0.2819  1.5042  3.2418
  111OSM   H11G11527   3.776   6.114   9.340  0.1004 -0.2924  0.2860
  111OSM   C12F11528   3.793   5.904   9.386  1.2739  0.3172 -0.5641
  111OSM   H12F11529   3.684   5.882   9.386  1.5308 -1.1441  1.0386
  111OSM   H12G11530   3.831   5.848   9.473 -0.8375 -1.1262 -0.4983
  111OSM   C13F11531   3.869   5.844   9.264  0.0658 -0.1483  1.4828
  111OSM   H13F11532   3.963   5.903   9.256  0.5538 -1.0234  0.6308
  111OSM   H13G11533   3.816   5.857   9.167  1.4554 -0.4762  0.6588
  111OSM   C14F11534   3.911   5.696   9.277 -0.4326  0.2861  0.9401
  111OSM   H14F11535   3.860   5.626   9.208 -0.2234  1.1205 -0.0808
  111OSM   H14G11536   3.884   5.669   9.382 -1.2786 -1.4932  0.2953
  111OSM   C15F11537   4.062   5.670   9.262 -0.2497  0.2082  0.6650
  111OSM   H15F11538   4.092   5.578   9.317 -0.5442  0.4321  1.2062
  111OSM   H15G11539   4.109   5.756   9.314 -0.1604  1.0930 -0.8092
  111OSM   C16F11540   4.103   5.671   9.113 -0.0404  0.4489  0.0120
  111OSM   H16F11541   4.099   5.772   9.067  1.4546  0.8058  0.6031
  111OSM   H16G11542   4.048   5.590   9.061  1.8729  0.1946 -1.7419
  111OSM   C17F11543   4.248   5.624   9.090 -0.2096  0.4107 -0.5659
  111OSM   H17F11544   4.253   5.580   8.988  0.3502  0.4350 -0.5500
  111OSM   H17G11545   4.278   5.550   9.167  0.8267  1.2879 -0.0965
  111OSM   C18F11546   4.355   5.739   9.100  0.6354 -0.2958 -0.0567
  111OSM   H18F11547   4.351   5.802   9.192  1.5865 -0.8295  0.3670
  111OSM   H18G11548   4.328   5.790   9.005 -0.0926  0.8437  0.7316
  111OSM   H18H11549   4.456   5.697   9.083  0.4626 -1.3469  1.2665
  112OSM      N11550   1.822   0.477  11.001  0.1048  0.4011 -0.0419
  112OSM    C1511551   1.749   0.600  11.030  0.1299  0.1210 -0.2632
  112OSM   H15A11552   1.646   0.601  10.999  0.4788  3.1092 -1.7265
  112OSM   H15B11553   1.792   0.685  10.978 -1.2605  1.9475  1.4568
  112OSM   H15C11554   1.751   0.624  11.135 -2.6633  0.7366 -0.2896
  112OSM    C1411555   1.735   0.373  11.056 -0.1635 -0.3527 -0.3155
  112OSM   H14A11556   1.780   0.277  11.034  0.7105  0.0287 -0.2186
  112OSM   H14B11557   1.639   0.373  11.007  0.7482 -0.0906 -2.1927
  112OSM   H14C11558   1.716   0.380  11.162 -0.0448 -1.5020 -0.1995
  112OSM    C1311559   1.840   0.460  10.859  0.0983 -0.3166 -0.0778
  112OSM   H13A11560   1.884   0.365  10.834 -0.4183 -0.3908 -0.7523
  112OSM   H13B11561   1.913   0.533  10.829  1.2735 -0.3106  2.5210
  112OSM   H13C11562   1.745   0.472  10.809 -0.7990 -0.0086  1.6332
  112OSM    C1211563   1.959   0.486  11.065  0.2485  0.7238 -0.8877
  112OSM   H12A11564   1.947   0.477  11.172  2.2849 -3.9263 -0.8128
  112OSM   H12B11565   2.010   0.577  11.038 -2.2140  2.3297 -0.4411
  112OSM    C1111566   2.064   0.373  11.028  0.2865  0.0398 -0.4268
  112OSM   H11A11567   2.153   0.400  11.089 -0.3546  1.6123 -0.1483
  112OSM   H11B11568   2.086   0.373  10.919  0.1618 -1.3792 -0.4703
  112OSM      P11569   2.024   0.119  10.993 -0.2025  0.4343 -0.4524
  112OSM    O1311570   2.135   0.031  11.043  0.5746 -0.3786  0.3426
  112OSM    O1411571   1.894   0.053  10.982  0.5735  0.3677  0.8650
  112OSM    O1111572   2.070   0.164  10.850  0.3706  0.4169  0.3293
  112OSM    O1211573   2.019   0.254  11.078 -0.0295  0.0873  0.5322
  112OSM    C1S11574   1.985   0.146  10.740  0.0953 -0.3229 -0.0035
  112OSM    H1S11575   1.890   0.203  10.752  1.2310  1.9185 -0.9541
  112OSM    H1T11576   1.983   0.041  10.704  0.9587 -0.1074 -0.7150
  112OSM     NF11577   1.973   0.170  10.494 -0.2868 -0.1975  0.0431
  112OSM    HNF11578   1.979   0.078  10.456  0.9274 -0.5008  0.8896
  112OSM    C2S11579   2.049   0.211  10.614  0.6043 -0.1806 -0.6952
  112OSM    H2S11580   2.066   0.320  10.627 -0.2079  0.0217 -1.2626
  112OSM    C3S11581   2.203   0.175  10.586 -0.5268 -0.5761 -1.2916
  112OSM    H3S11582   2.215   0.067  10.560  0.6065 -0.4224 -1.4458
  112OSM     O311583   2.293   0.211  10.693  1.1403  0.6719  0.8023
  112OSM    HO311584   2.233   0.218  10.767 -2.2060  0.3813 -1.6682
  112OSM    C4S11585   2.259   0.262  10.474  0.3374  0.0224  0.0509
  112OSM    H4S11586   2.249   0.371  10.489  1.6149  0.3717 -1.3700
  112OSM    C5S11587   2.324   0.213  10.366 -0.4659  0.6306 -1.2142
  112OSM    H5S11588   2.350   0.106  10.366 -0.0854  0.7206 -0.5583
  112OSM    C6S11589   2.380   0.297  10.254 -0.3797  0.4155 -0.8896
  112OSM    H6S11590   2.378   0.407  10.267  1.4787  0.2903  1.1378
  112OSM    H6T11591   2.318   0.277  10.165  1.6519 -0.5527 -2.1729
  112OSM    C7S11592   2.515   0.254  10.203  1.1568  0.0331 -0.7568
  112OSM    H7S11593   2.520   0.144  10.196  0.4772 -0.0779  0.3113
  112OSM    H7T11594   2.591   0.285  10.278 -0.3416  2.1264  0.0006
  112OSM    C8S11595   2.567   0.307  10.064 -0.1590  0.0575  0.0703
  112OSM    H8S11596   2.668   0.262  10.056  0.0859  0.0358  2.5186
  112OSM    H8T11597   2.586   0.417  10.057 -0.1227  0.2660  2.5813
  112OSM    C9S11598   2.483   0.275   9.946 -0.1404 -0.4444  0.2324
  112OSM    H9S11599   2.395   0.340   9.965 -0.9117 -2.2236  3.3793
  112OSM    H9T11600   2.457   0.167   9.940 -0.2561 -0.4513  0.8468
  112OSM   C10S11601   2.545   0.325   9.812  0.0411 -0.4039 -0.4792
  112OSM   H10S11602   2.646   0.278   9.809 -0.0463 -0.6229 -0.0008
  112OSM   H10T11603   2.556   0.435   9.816  0.9135 -0.4449 -1.2699
  112OSM   C11S11604   2.449   0.290   9.701  0.2024 -0.2095 -0.2477
  112OSM   H11S11605   2.347   0.319   9.732  0.1756 -0.6818  0.1136
  112OSM   H11T11606   2.449   0.179   9.702 -0.1057 -0.3124  3.6438
  112OSM   C12S11607   2.476   0.343   9.560  0.3842  0.1913  0.6958
  112OSM   H12S11608   2.584   0.339   9.536  0.5613  0.4912  1.3984
  112OSM   H12T11609   2.453   0.451   9.550  0.4530  0.2897  1.5077
  112OSM   C13S11610   2.398   0.271   9.457 -0.3419 -0.1162 -0.3024
  112OSM   H13S11611   2.289   0.288   9.463 -0.4916 -0.9050 -0.6178
  112OSM   H13T11612   2.403   0.160   9.464 -2.4600 -0.4304 -2.4431
  112OSM   C14S11613   2.447   0.293   9.309  0.9563  0.1647 -0.0630
  112OSM   H14S11614   2.386   0.233   9.239  2.4938 -2.5890  0.7901
  112OSM   H14T11615   2.553   0.259   9.313  0.5845 -1.4265 -2.1255
  112OSM   C15S11616   2.439   0.436   9.256 -0.3406  0.2775 -0.1336
  112OSM   H15S11617   2.483   0.502   9.333  0.8497  1.0663 -1.4421
  112OSM   H15T11618   2.332   0.455   9.233 -1.0004 -3.2771 -0.6761
  112OSM   C16S11619   2.529   0.452   9.132  0.2659 -0.0701  0.2719
  112OSM   H16S11620   2.484   0.383   9.057  1.1695  0.1126 -0.4664
  112OSM   H16T11621   2.633   0.414   9.146 -0.0616 -0.8924  0.5707
  112OSM   C17S11622   2.542   0.598   9.078  0.0908 -0.4183  0.4601
  112OSM   H17S11623   2.635   0.611   9.017 -0.2463 -1.6151 -0.3545
  112OSM   H17T11624   2.554   0.672   9.160  0.3637 -0.8859  0.8524
  112OSM   C18S11625   2.420   0.642   8.995  0.6168 -0.2097  0.3798
  112OSM   H18S11626   2.423   0.753   8.985 -0.1602 -0.1894  0.3468
  112OSM   H18T11627   2.324   0.626   9.048  0.6274  0.6414  0.6733
  112OSM   H18U11628   2.419   0.592   8.896 -2.5017 -0.6907  0.5539
  112OSM    C1F11629   1.856   0.230  10.468  0.2577 -0.7186 -0.1546
  112OSM     OF11630   1.810   0.315  10.541 -0.2093 -0.6092 -0.0896
  112OSM    C2F11631   1.775   0.196  10.346 -0.5647 -0.3369 -0.4924
  112OSM    H2F11632   1.667   0.213  10.367 -0.5278 -0.1460 -0.4567
  112OSM    H2G11633   1.798   0.093  10.311  1.4020 -0.9384  2.2108
  112OSM    C3F11634   1.804   0.297  10.237  0.2163  0.2004  0.0587
  112OSM    H3F11635   1.914   0.297  10.219  0.3596  3.3137  0.3095
  112OSM    H3G11636   1.787   0.396  10.285  1.7996 -0.2307  1.6317
  112OSM    C4F11637   1.728   0.283  10.102  0.0029 -0.0072  0.1475
  112OSM    H4F11638   1.619   0.292  10.117 -0.0767  0.8528 -0.8544
  112OSM    H4G11639   1.748   0.178  10.071 -3.2512 -1.0084  1.0179
  112OSM    C5F11640   1.779   0.386  10.005 -0.0615  0.4286  0.1095
  112OSM    H5F11641   1.888   0.373   9.986  0.0608  0.2845  0.8567
  112OSM    H5G11642   1.763   0.486  10.052  2.5072  2.1662 -2.3385
  112OSM    C6F11643   1.692   0.381   9.882  0.1475  0.0837  0.5685
  112OSM    H6F11644   1.593   0.429   9.894  0.4109  1.6602 -2.6578
  112OSM    H6G11645   1.690   0.275   9.849  0.0958 -0.0323  0.9345
  112OSM    C7F11646   1.752   0.457   9.763 -0.3901  0.0779 -0.1402
  112OSM    H7F11647   1.855   0.416   9.757  0.4763  2.2494 -1.0218
  112OSM    H7G11648   1.756   0.568   9.768 -1.0361  0.1519 -0.9119
  112OSM    C8F11649   1.682   0.414   9.631  0.5956  0.1375  0.3435
  112OSM    H8F11650   1.572   0.426   9.635  0.2786 -2.5252  2.0488
  112OSM    H8G11651   1.703   0.305   9.626 -1.3489 -0.1947 -1.9569
  112OSM    C9F11652   1.740   0.486   9.515  0.1184 -0.4345 -0.5703
  112OSM    H9F11653   1.837   0.535   9.535 -0.8270  1.1904  0.2038
  112OSM   C10F11654   1.682   0.471   9.395 -0.0785  0.1306 -0.1219
  112OSM   H10F11655   1.724   0.537   9.317  1.6152 -0.6327  0.0989
  112OSM   C11F11656   1.557   0.407   9.352 -0.0953 -0.8618 -0.3043
  112OSM   H11F11657   1.487   0.492   9.339  0.0632 -0.4653  1.2702
  112OSM   H11G11658   1.506   0.338   9.423 -0.7336 -1.1191 -0.9871
  112OSM   C12F11659   1.554   0.336   9.214 -0.9002  0.3571 -0.4689
  112OSM   H12F11660   1.624   0.250   9.225  1.9600  2.4017 -1.2436
  112OSM   H12G11661   1.586   0.407   9.134  0.9870  1.1531  0.9162
  112OSM   C13F11662   1.418   0.275   9.187  0.5765 -0.4665  0.8717
  112OSM   H13F11663   1.364   0.231   9.274  1.9574 -0.3481  1.8170
  112OSM   H13G11664   1.433   0.195   9.111  0.3247  1.1101 -0.9063
  112OSM   C14F11665   1.310   0.373   9.125  0.0542 -0.2199 -0.2379
  112OSM   H14F11666   1.352   0.412   9.029 -0.3684  3.4557  0.9145
  112OSM   H14G11667   1.295   0.463   9.189  1.4264  0.0029 -0.1969
  112OSM   C15F11668   1.166   0.316   9.102 -0.1754  0.2054 -0.0328
  112OSM   H15F11669   1.103   0.396   9.056  1.3854  0.0313 -2.6938
  112OSM   H15G11670   1.125   0.283   9.200  1.4449  1.1825  1.0274
  112OSM   C16F11671   1.160   0.189   9.005  0.3126 -0.5826 -1.3620
  112OSM   H16F11672   1.238   0.115   9.035  1.0593 -0.5770 -3.1736
  112OSM   H16G11673   1.188   0.225   8.904 -0.8939  0.9062 -1.1920
  112OSM   C17F11674   1.026   0.118   9.009 -0.1792  0.5863 -0.2863
  112OSM   H17F11675   0.944   0.188   8.983  0.7194  1.6351 -0.3577
  112OSM   H17G11676   1.013   0.061   9.104  0.0633  1.6922  0.4324
  112OSM   C18F11677   1.025   0.002   8.902 -0.5883  0.5574  0.0438
  112OSM   H18F11678   1.067   0.057   8.815 -0.3461  0.8142  0.3170
  112OSM   H18G11679   0.925  -0.042   8.884 -0.5400  0.0138  1.0488
  112OSM   H18H11680   1.102  -0.075   8.925 -0.6587  0.5523  0.2596
  113OSM      N11681   4.395   4.627  11.652 -0.3406 -0.0591 -0.6581
  113OSM    C1511682   4.374   4.496  11.737 -0.4136  0.5478  0.6392
  113OSM   H15A11683   4.357   4.520  11.841 -0.7686  1.4409  0.3937
  113OSM   H15B11684   4.459   4.433  11.719 -0.5949 -0.5663  3.2670
  113OSM   H15C11685   4.295   4.432  11.700  0.7599  0.6200 -2.3222
  113OSM    C1411686   4.275   4.710  11.701  0.1954  0.5536 -0.2394
  113OSM   H14A11687   4.275   4.721  11.808  2.3917  1.7904 -0.3123
  113OSM   H14B11688   4.187   4.652  11.677 -1.3501  2.9712 -0.8106
  113OSM   H14C11689   4.290   4.802  11.646 -0.1352  0.2087 -0.9246
  113OSM    C1311690   4.523   4.695  11.700  0.5041 -0.3255  0.1027
  113OSM   H13A11691   4.565   4.757  11.623  1.3725 -2.0610 -0.8880
  113OSM   H13B11692   4.599   4.623  11.726 -1.9465 -2.7765  0.9685
  113OSM   H13C11693   4.493   4.756  11.784 -0.6086 -1.2106  0.3887
  113OSM    C1211694   4.384   4.591  11.506 -0.4639  0.3316 -0.2604
  113OSM   H12A11695   4.298   4.527  11.496 -0.5079  0.2856  0.3670
  113OSM   H12B11696   4.468   4.528  11.480 -2.3632 -2.7775  0.6244
  113OSM    C1111697   4.370   4.710  11.411  0.1562  0.1738 -0.4579
  113OSM   H11A11698   4.273   4.761  11.430  0.5264  1.3421 -1.5561
  113OSM   H11B11699   4.363   4.669  11.308  0.3713  0.2220 -0.4921
  113OSM      P11700   4.467   4.946  11.424 -0.0149  0.4720 -0.1802
  113OSM    O1311701   4.401   4.985  11.551 -0.5242  0.2093 -0.2914
  113OSM    O1411702   4.597   5.014  11.401 -0.6244 -0.4962 -0.6568
  113OSM    O1111703   4.367   4.975  11.309  0.0961 -0.4185  0.5709
  113OSM    O1211704   4.490   4.788  11.424 -0.0745 -0.3130 -0.0626
  113OSM    C1S11705   4.414   5.007  11.174 -0.1237 -0.6819  0.2821
  113OSM    H1S11706   4.519   4.978  11.154 -0.8758 -3.9018  0.4842
  113OSM    H1T11707   4.401   5.117  11.167  1.9288 -0.2008  2.7375
  113OSM     NF11708   4.379   4.997  10.936  0.0836 -0.3077 -0.5264
  113OSM    HNF11709   4.331   5.064  10.880  2.2512  0.6008 -1.4215
  113OSM    C2S11710   4.332   4.936  11.057  0.6631 -0.3761 -0.7480
  113OSM    H2S11711   4.338   4.826  11.063 -1.2233 -0.4448  0.6268
  113OSM    C3S11712   4.183   4.972  11.072  0.0109 -0.6069 -0.9992
  113OSM    H3S11713   4.170   5.079  11.044  1.5240 -0.6019 -1.7432
  113OSM     O311714   4.130   4.941  11.204  0.0574  0.2274  0.1531
  113OSM    HO311715   4.201   4.906  11.257 -0.1941  2.8669  2.4865
  113OSM    C4S11716   4.107   4.894  10.968  0.2954 -0.2404 -0.0369
  113OSM    H4S11717   4.096   4.949  10.873 -1.2216  1.3075  0.9572
  113OSM    C5S11718   4.066   4.767  10.972  0.7008  0.0725  0.2412
  113OSM    H5S11719   4.090   4.713  11.064 -0.5049  1.9968  1.7773
  113OSM    C6S11720   3.987   4.684  10.865 -0.1481 -0.2485  0.7826
  113OSM    H6S11721   3.956   4.757  10.787  2.2966  1.0309  0.8932
  113OSM    H6T11722   3.896   4.641  10.911  0.7790  0.3252  3.2938
  113OSM    C7S11723   4.078   4.580  10.793  0.5730  0.4769  0.0353
  113OSM    H7S11724   4.014   4.500  10.750 -0.6327  1.8152 -0.7871
  113OSM    H7T11725   4.134   4.524  10.870  0.7810 -0.4467 -0.7618
  113OSM    C8S11726   4.177   4.639  10.692 -0.3191 -0.3326  0.5295
  113OSM    H8S11727   4.249   4.555  10.679 -0.7065 -0.4829 -0.8520
  113OSM    H8T11728   4.225   4.733  10.725  0.5599 -0.1860 -1.0482
  113OSM    C9S11729   4.110   4.666  10.548  0.2771  1.2610 -0.0641
  113OSM    H9S11730   4.060   4.762  10.572 -2.4107 -0.4356  1.5603
  113OSM    H9T11731   4.030   4.593  10.524 -0.6371  1.9550  0.8322
  113OSM   C10S11732   4.222   4.669  10.444 -0.3560  0.5491 -0.0781
  113OSM   H10S11733   4.260   4.565  10.434  1.0511  1.0199  0.2177
  113OSM   H10T11734   4.304   4.732  10.485  0.2320 -0.0714 -0.2890
  113OSM   C11S11735   4.160   4.699  10.305  0.2101  0.3461  0.3650
  113OSM   H11S11736   4.115   4.801  10.308 -0.3933  0.1056 -0.1759
  113OSM   H11T11737   4.093   4.615  10.277 -1.8232  1.0731  2.7359
  113OSM   C12S11738   4.268   4.717  10.193 -0.4579 -0.1245 -0.3449
  113OSM   H12S11739   4.343   4.636  10.197 -0.6413 -0.2898 -0.1933
  113OSM   H12T11740   4.323   4.812  10.210 -0.8921  0.1285 -0.3227
  113OSM   C13S11741   4.208   4.724  10.055 -0.7221  0.4624  0.2628
  113OSM   H13S11742   4.133   4.804  10.045  0.7117  1.7254 -0.9397
  113OSM   H13T11743   4.152   4.631  10.031 -1.2468  1.0606 -0.9192
  113OSM   C14S11744   4.307   4.745   9.938 -0.1666  0.0729 -0.8501
  113OSM   H14S11745   4.368   4.653   9.928 -1.2793 -0.6564 -1.1374
  113OSM   H14T11746   4.367   4.832   9.972 -0.4964 -0.0775  0.1610
  113OSM   C15S11747   4.239   4.776   9.795 -0.2165  0.2358  0.0173
  113OSM   H15S11748   4.214   4.884   9.794  2.6590  0.9906 -1.4519
  113OSM   H15T11749   4.151   4.709   9.799 -1.4559  1.8142  0.1936
  113OSM   C16S11750   4.328   4.750   9.667 -0.5153 -0.5890 -0.3018
  113OSM   H16S11751   4.353   4.642   9.662 -1.4698 -0.7536 -2.7616
  113OSM   H16T11752   4.429   4.792   9.687 -1.6579  2.4043 -0.3463
  113OSM   C17S11753   4.264   4.799   9.534 -0.1616 -0.2694  0.1467
  113OSM   H17S11754   4.259   4.909   9.542  1.1376 -0.3195  2.3378
  113OSM   H17T11755   4.159   4.763   9.526  0.1370 -1.7580  2.1608
  113OSM   C18S11756   4.351   4.768   9.410 -0.0687  0.3068  0.0141
  113OSM   H18S11757   4.433   4.840   9.428 -1.6417  2.6674 -1.6083
  113OSM   H18T11758   4.296   4.792   9.316 -1.3052 -0.2456  0.5602
  113OSM   H18U11759   4.381   4.661   9.407 -5.3367 -1.5903  2.2883
  113OSM    C1F11760   4.492   4.958  10.883  0.2876  0.0545 -0.2084
  113OSM     OF11761   4.565   4.877  10.937  0.1092 -0.1242 -0.0390
  113OSM    C2F11762   4.518   5.025  10.754 -0.3644  0.5098  0.3187
  113OSM    H2F11763   4.629   5.028  10.752 -0.3797  1.1982  0.2588
  113OSM    H2G11764   4.468   5.124  10.747 -0.8744  0.3085  0.9870
  113OSM    C3F11765   4.473   4.925  10.646 -0.1791  0.2658  0.0680
  113OSM    H3F11766   4.363   4.915  10.653 -0.2307  0.9174  0.2620
  113OSM    H3G11767   4.528   4.828  10.647 -1.5869 -0.5872 -1.2446
  113OSM    C4F11768   4.492   4.980  10.504 -0.0701  0.3412 -0.7078
  113OSM    H4F11769   4.463   4.902  10.431 -0.7845  0.2333 -0.3209
  113OSM    H4G11770   4.600   5.006  10.498 -0.4858  2.6947  0.7471
  113OSM    C5F11771   4.421   5.112  10.474 -0.8103 -0.0412  0.1348
  113OSM    H5F11772   4.442   5.196  10.543  0.5135 -0.2669  0.0295
  113OSM    H5G11773   4.315   5.102  10.506 -1.2398  1.8675 -0.5579
  113OSM    C6F11774   4.449   5.169  10.333 -0.2374 -0.6157 -0.6892
  113OSM    H6F11775   4.556   5.197  10.344  0.1268 -2.2298  0.2131
  113OSM    H6G11776   4.390   5.262  10.323  1.8368  0.8565  0.1340
  113OSM    C7F11777   4.433   5.072  10.212 -0.1935 -0.7373 -0.1529
  113OSM    H7F11778   4.328   5.037  10.219 -0.7391  0.9746  0.7030
  113OSM    H7G11779   4.494   4.980  10.215 -0.0044 -0.7751 -2.5349
  113OSM    C8F11780   4.455   5.136  10.077  0.4410 -0.7435  0.5997
  113OSM    H8F11781   4.400   5.233  10.072  0.8775 -0.4226  1.6535
  113OSM    H8G11782   4.419   5.070   9.995  0.7688 -0.9021  0.5819
  113OSM    C9F11783   4.605   5.164  10.068  0.1608  0.3382 -0.4406
  113OSM    H9F11784   4.650   5.215  10.154  1.9053 -0.3824 -0.8787
  113OSM   C10F11785   4.689   5.112   9.979  0.3052  0.0765  0.1004
  113OSM   H10F11786   4.796   5.138   9.992 -0.1288  2.8207 -1.0785
  113OSM   C11F11787   4.651   5.024   9.860 -0.0987 -0.0076  0.2976
  113OSM   H11F11788   4.544   4.993   9.855 -0.9850  2.9008 -2.4860
  113OSM   H11G11789   4.708   4.929   9.865 -2.3417 -1.5256 -1.0001
  113OSM   C12F11790   4.695   5.099   9.724 -0.2384 -0.1590 -0.3750
  113OSM   H12F11791   4.794   5.148   9.741  0.2383 -0.8849 -1.0050
  113OSM   H12G11792   4.612   5.171   9.707 -0.1649 -0.4297 -2.0188
  113OSM   C13F11793   4.713   5.008   9.600  0.0029 -0.0952  0.1366
  113OSM   H13F11794   4.610   4.974   9.576  0.1426 -0.1154 -0.4392
  113OSM   H13G11795   4.782   4.921   9.604 -0.2102 -0.4123 -1.9817
  113OSM   C14F11796   4.742   5.081   9.465  0.4363 -0.6254 -0.9372
  113OSM   H14F11797   4.850   5.099   9.450  0.6724  0.1697  1.4101
  113OSM   H14G11798   4.694   5.180   9.453  1.4883  0.0064 -0.0272
  113OSM   C15F11799   4.699   4.987   9.350  0.1381  0.4745 -0.4742
  113OSM   H15F11800   4.589   4.975   9.341  0.4772 -1.1625 -4.0867
  113OSM   H15G11801   4.743   4.885   9.362 -2.1972 -0.4637  0.8674
  113OSM   C16F11802   4.736   5.050   9.219  0.1547 -0.0152  0.1562
  113OSM   H16F11803   4.847   5.059   9.223  0.2484 -1.3294  1.6083
  113OSM   H16G11804   4.687   5.150   9.215  1.4418  0.6011 -0.9142
  113OSM   C17F11805   4.708   4.969   9.094  1.0224  1.1329  0.0606
  113OSM   H17F11806   4.598   4.962   9.088  1.0951  0.8673 -1.1908
  113OSM   H17G11807   4.753   4.869   9.110 -0.1137  1.0228  3.2685
  113OSM   C18F11808   4.765   5.041   8.968 -0.1077 -0.3889 -0.1024
  113OSM   H18F11809   4.711   5.137   8.952  1.6562  0.7695  0.6272
  113OSM   H18G11810   4.757   4.972   8.881 -0.3489  0.2366 -0.5826
  113OSM   H18H11811   4.871   5.071   8.979  0.1332 -0.8823 -0.9947
  114OSM      N11812   5.623   3.909  11.340  0.1944  0.7040  0.2423
  114OSM    C1511813   5.623   3.953  11.480  0.4916 -0.3563 -0.1479
  114OSM   H15A11814   5.720   3.986  11.513  0.3508 -0.6771  0.6124
  114OSM   H15B11815   5.601   3.874  11.550  0.1761 -0.0906  0.0624
  114OSM   H15C11816   5.554   4.036  11.487  1.2191  0.1954  0.6245
  114OSM    C1411817   5.733   3.804  11.324 -0.1780 -0.6006 -0.2223
  114OSM   H14A11818   5.712   3.714  11.379  1.2069 -2.2465 -2.2403
  114OSM   H14B11819   5.832   3.841  11.347 -0.1910  0.8749 -2.3212
  114OSM   H14C11820   5.734   3.768  11.222  0.6176 -2.9501  0.5568
  114OSM    C1311821   5.496   3.840  11.312  0.4590  0.3064  0.4702
  114OSM   H13A11822   5.476   3.766  11.388  1.0770  1.5259  1.8723
  114OSM   H13B11823   5.500   3.794  11.214 -2.0466 -0.1817  0.5420
  114OSM   H13C11824   5.416   3.912  11.311  2.5069  2.7609  1.5094
  114OSM    C1211825   5.649   4.015  11.232  0.2394  0.0127 -0.0577
  114OSM   H12A11826   5.572   4.090  11.239  0.1194 -0.2412  1.5635
  114OSM   H12B11827   5.637   3.965  11.136 -1.3617  1.5801 -0.7336
  114OSM    C1111828   5.783   4.084  11.229 -0.0451 -0.2832 -0.1759
  114OSM   H11A11829   5.799   4.140  11.134 -0.6659 -1.1481 -0.8023
  114OSM   H11B11830   5.864   4.010  11.245 -0.2765 -0.0513  2.5671
  114OSM      P11831   5.740   4.312  11.363 -0.3415  0.3138  0.4766
  114OSM    O1311832   5.612   4.306  11.432 -0.0188 -0.3359 -0.0975
  114OSM    O1411833   5.847   4.395  11.420 -1.0641  0.1815  0.7935
  114OSM    O1111834   5.708   4.347  11.216 -0.2700 -0.0407 -0.0406
  114OSM    O1211835   5.798   4.172  11.342 -0.4741  0.7344 -0.1998
  114OSM    C1S11836   5.804   4.426  11.142 -1.0163 -0.0788  0.1334
  114OSM    H1S11837   5.905   4.382  11.149 -1.4817 -0.9221  2.8785
  114OSM    H1T11838   5.816   4.527  11.187  0.3585 -1.2873  2.7153
  114OSM     NF11839   5.845   4.539  10.921 -0.6835 -0.2689  0.1012
  114OSM    HNF11840   5.801   4.628  10.905  0.3804  0.5469  1.4655
  114OSM    C2S11841   5.767   4.431  10.988 -0.0743  0.0164 -0.5801
  114OSM    H2S11842   5.795   4.334  10.942 -0.7599 -0.9243  0.8964
  114OSM    C3S11843   5.614   4.450  10.972 -0.1139  0.5916 -0.3153
  114OSM    H3S11844   5.594   4.545  11.027  0.8132  1.4268 -1.3547
  114OSM     O311845   5.534   4.350  11.040 -0.3227  0.1119 -0.1626
  114OSM    HO311846   5.591   4.328  11.113 -1.4958 -2.0297  0.1839
  114OSM    C4S11847   5.578   4.459  10.828  0.9588  0.5333 -0.0890
  114OSM    H4S11848   5.553   4.558  10.788 -1.3866  1.2669  2.8055
  114OSM    C5S11849   5.558   4.355  10.745  0.2266  0.5045  0.0844
  114OSM    H5S11850   5.564   4.255  10.789 -0.7551  1.7560  3.3838
  114OSM    C6S11851   5.517   4.358  10.598 -0.4682  0.6787  0.4541
  114OSM    H6S11852   5.518   4.463  10.561 -0.6324  0.5751  0.1482
  114OSM    H6T11853   5.406   4.348  10.589 -0.9637 -0.5951  5.2948
  114OSM    C7S11854   5.604   4.274  10.505 -0.4148  0.2223  0.4314
  114OSM    H7S11855   5.594   4.166  10.528 -1.4364  0.3002  0.4092
  114OSM    H7T11856   5.708   4.305  10.527  0.0234 -2.0687  1.9834
  114OSM    C8S11857   5.567   4.283  10.351  0.1756 -0.2587 -0.2708
  114OSM    H8S11858   5.568   4.392  10.332  4.4452  0.0430  0.6058
  114OSM    H8T11859   5.463   4.249  10.330 -0.4296 -0.2859  2.4914
  114OSM    C9S11860   5.675   4.220  10.263  0.5741  0.6039 -0.9891
  114OSM    H9S11861   5.677   4.109  10.277  0.3642  0.4595 -1.9881
  114OSM    H9T11862   5.775   4.245  10.303  1.9016 -3.5324 -1.1728
  114OSM   C10S11863   5.665   4.237  10.113  0.2970  0.7990  0.2888
  114OSM   H10S11864   5.756   4.194  10.066  1.1375  1.1078  1.5742
  114OSM   H10T11865   5.662   4.341  10.073 -0.8507  0.5532 -0.3169
  114OSM   C11S11866   5.551   4.153  10.051 -0.3606  0.2759  0.2972
  114OSM   H11S11867   5.449   4.194  10.071  0.7723  3.7207 -0.2240
  114OSM   H11T11868   5.558   4.050  10.090  2.1645  0.3142  0.0704
  114OSM   C12S11869   5.553   4.130   9.892 -0.0991 -0.3371 -0.1218
  114OSM   H12S11870   5.660   4.117   9.866  0.2005 -0.9463  1.2936
  114OSM   H12T11871   5.523   4.223   9.839  0.0954  0.3284  0.8972
  114OSM   C13S11872   5.476   4.008   9.848 -0.1144 -0.2448  0.0088
  114OSM   H13S11873   5.372   4.031   9.877  0.6477  0.4897  2.3592
  114OSM   H13T11874   5.511   3.915   9.896  1.5516  0.8441  1.0150
  114OSM   C14S11875   5.490   3.994   9.695 -0.0752  0.3746 -0.3417
  114OSM   H14S11876   5.597   3.976   9.673  0.1582  0.8451  0.3606
  114OSM   H14T11877   5.477   4.090   9.641 -0.5936  0.2203 -0.5016
  114OSM   C15S11878   5.417   3.877   9.625  0.5655 -0.1750  0.3604
  114OSM   H15S11879   5.312   3.912   9.631  0.6870  0.0279  1.6387
  114OSM   H15T11880   5.432   3.782   9.681  0.6817 -0.1858  0.3104
  114OSM   C16S11881   5.449   3.854   9.479  0.6494 -0.1830 -0.1756
  114OSM   H16S11882   5.556   3.841   9.454  0.4382  0.1357 -1.3214
  114OSM   H16T11883   5.418   3.944   9.422  1.2575 -1.4516 -2.6622
  114OSM   C17S11884   5.371   3.739   9.417 -0.0306 -1.0413  0.6388
  114OSM   H17S11885   5.394   3.738   9.309  0.6355 -0.4325  0.7712
  114OSM   H17T11886   5.263   3.767   9.422  0.4113  0.9801 -0.2101
  114OSM   C18S11887   5.383   3.599   9.478 -0.3448 -0.4554  0.2625
  114OSM   H18S11888   5.488   3.563   9.476  0.3808  1.5500 -0.5535
  114OSM   H18T11889   5.331   3.524   9.413  1.1908 -0.9000 -0.4988
  114OSM   H18U11890   5.362   3.585   9.586 -0.3945 -2.7723  0.0191
  114OSM    C1F11891   5.976   4.527  10.918  0.4370 -0.3496  0.8859
  114OSM     OF11892   6.036   4.416  10.929  0.4319  0.0958 -0.8002
  114OSM    C2F11893   6.054   4.654  10.913 -0.6559  0.3488  0.2992
  114OSM    H2F11894   6.121   4.656  11.001  3.0054 -0.0586 -2.2583
  114OSM    H2G11895   5.983   4.740  10.915  0.3289  1.1951 -0.1649
  114OSM    C3F11896   6.139   4.669  10.781  0.3298 -0.2862 -0.1887
  114OSM    H3F11897   6.230   4.606  10.786  1.0205  0.7801  2.2258
  114OSM    H3G11898   6.173   4.775  10.780  0.5321 -0.3412  0.3408
  114OSM    C4F11899   6.072   4.644  10.644  0.3550  0.4536 -0.3334
  114OSM    H4F11900   6.037   4.542  10.617  2.1109 -0.0097 -0.9903
  114OSM    H4G11901   6.153   4.675  10.574  2.3291 -1.3745  1.0339
  114OSM    C5F11902   5.947   4.729  10.618 -0.0699  0.0909  0.3709
  114OSM    H5F11903   5.955   4.835  10.649 -3.7420  0.2171  1.2497
  114OSM    H5G11904   5.858   4.685  10.667  0.5438 -0.8210  0.6974
  114OSM    C6F11905   5.918   4.756  10.470 -0.0050 -0.2254 -0.1270
  114OSM    H6F11906   6.006   4.805  10.422 -0.7098  2.1319  0.8374
  114OSM    H6G11907   5.833   4.827  10.466 -0.6008 -0.9272 -0.0042
  114OSM    C7F11908   5.864   4.633  10.397  0.5950  0.3786 -0.5553
  114OSM    H7F11909   5.769   4.601  10.446  1.2219  1.1747  1.2594
  114OSM    H7G11910   5.924   4.540  10.401  0.5947  0.3791 -0.5504
  114OSM    C8F11911   5.819   4.653  10.257  0.6049 -0.1648  0.3500
  114OSM    H8F11912   5.766   4.750  10.265  0.7130 -0.2351  2.6693
  114OSM    H8G11913   5.747   4.583  10.210 -0.5451  2.2091 -1.6046
  114OSM    C9F11914   5.941   4.681  10.176  0.2484 -0.7522 -0.1165
  114OSM    H9F11915   6.016   4.755  10.206  1.3488 -1.7757 -0.2797
  114OSM   C10F11916   5.973   4.619  10.059 -0.1541  0.8406 -0.2928
  114OSM   H10F11917   6.057   4.666  10.005  1.3909  1.5632  2.5370
  114OSM   C11F11918   5.884   4.519   9.984 -1.1153  0.4175  0.4636
  114OSM   H11F11919   5.783   4.565   9.981 -1.3495 -0.0402  1.1067
  114OSM   H11G11920   5.867   4.425  10.042 -1.0889  0.0433 -0.1249
  114OSM   C12F11921   5.940   4.490   9.842 -0.6900 -0.4008  0.2927
  114OSM   H12F11922   6.044   4.452   9.846  0.1359  1.3307 -1.9274
  114OSM   H12G11923   5.943   4.586   9.786 -1.5037  0.4026  1.5947
  114OSM   C13F11924   5.843   4.400   9.765  0.3040 -0.2792 -0.5637
  114OSM   H13F11925   5.742   4.444   9.771  1.3457  2.2321 -0.0517
  114OSM   H13G11926   5.846   4.299   9.812  1.2572 -0.8321 -1.7530
  114OSM   C14F11927   5.880   4.386   9.618 -0.1962  0.2912  1.1991
  114OSM   H14F11928   5.987   4.357   9.609 -0.2888 -0.2278  1.7365
  114OSM   H14G11929   5.860   4.475   9.555  2.2215 -0.7766 -1.3128
  114OSM   C15F11930   5.799   4.274   9.549 -0.1239  0.0804 -0.0962
  114OSM   H15F11931   5.692   4.300   9.535 -0.8102 -2.1220  0.6335
  114OSM   H15G11932   5.796   4.183   9.612 -1.0776 -0.9788 -1.6073
  114OSM   C16F11933   5.846   4.238   9.405 -0.6760 -0.3318 -0.1566
  114OSM   H16F11934   5.951   4.204   9.417 -1.1670 -1.5623  0.9459
  114OSM   H16G11935   5.834   4.328   9.342 -1.4354 -1.2747 -1.4070
  114OSM   C17F11936   5.770   4.110   9.344  0.0192 -0.0324  0.0682
  114OSM   H17F11937   5.661   4.129   9.333 -0.9366 -2.8876  3.0673
  114OSM   H17G11938   5.784   4.027   9.416 -0.3117  1.8534  2.4747
  114OSM   C18F11939   5.830   4.062   9.209 -0.6558 -0.1646  0.3810
  114OSM   H18F11940   5.941   4.070   9.211 -0.6178  0.1218 -1.1742
  114OSM   H18G11941   5.791   4.111   9.116  0.6149 -0.4721 -0.3412
  114OSM   H18H11942   5.821   3.953   9.190 -0.3118  0.1264 -1.7326
  115OSM      N11943   0.519   0.707   6.039 -0.1561  0.6342  0.1214
  115OSM    C1511944   0.653   0.773   5.994  0.2028  0.3583 -0.6436
  115OSM   H15A11945   0.629   0.876   5.976 -2.0025  0.0077 -0.0642
  115OSM   H15B11946   0.689   0.729   5.903 -2.1268  0.2186 -1.5564
  115OSM   H15C11947   0.732   0.768   6.068 -1.6187  0.6088  1.4546
  115OSM    C1411948   0.463   0.788   6.158  0.3300  0.4477  0.5001
  115OSM   H14A11949   0.379   0.731   6.194  0.3674 -0.3997 -0.6724
  115OSM   H14B11950   0.428   0.884   6.124 -0.6313  0.6269  1.9340
  115OSM   H14C11951   0.543   0.803   6.229 -1.7058  1.7870  2.6284
  115OSM    C1311952   0.426   0.708   5.920 -0.0197 -0.1219  0.2037
  115OSM   H13A11953   0.414   0.808   5.883 -0.3909 -0.4133 -0.4825
  115OSM   H13B11954   0.328   0.672   5.946 -0.0838 -0.5789 -0.6152
  115OSM   H13C11955   0.481   0.644   5.852  2.0518  1.1424  0.5979
  115OSM    C1211956   0.541   0.567   6.084 -0.4274 -0.0218  0.0032
  115OSM   H12A11957   0.584   0.504   6.008 -0.8439 -2.2585  1.5163
  115OSM   H12B11958   0.444   0.522   6.097 -0.6707  0.5119  0.0544
  115OSM    C1111959   0.610   0.525   6.217 -0.0318 -0.6197  0.5742
  115OSM   H11A11960   0.711   0.570   6.223 -0.1801 -0.1884 -0.1129
  115OSM   H11B11961   0.627   0.416   6.215  1.0319 -0.4712  1.0598
  115OSM      P11962   0.447   0.465   6.406 -0.4010  0.2479 -0.0316
  115OSM    O1311963   0.338   0.532   6.484  0.2871  0.1951 -0.2525
  115OSM    O1411964   0.404   0.351   6.320  0.4113  0.3762 -0.0345
  115OSM    O1111965   0.556   0.419   6.514  0.4318  0.2170 -0.2349
  115OSM    O1211966   0.529   0.572   6.327 -0.0123 -0.5852  0.0417
  115OSM    C1S11967   0.613   0.502   6.611  0.3107  0.4723  0.2477
  115OSM    H1S11968   0.542   0.505   6.697 -1.1896  1.2524 -0.9793
  115OSM    H1T11969   0.636   0.600   6.564  0.4691 -0.4070 -1.5659
  115OSM     NF11970   0.782   0.533   6.783 -0.5971 -0.2549 -0.5686
  115OSM    HNF11971   0.875   0.571   6.785 -0.8245  0.2888  0.9741
  115OSM    C2S11972   0.746   0.450   6.673 -1.0896 -0.5132 -0.1833
  115OSM    H2S11973   0.726   0.350   6.717 -1.5788 -1.2122 -1.9088
  115OSM    C3S11974   0.860   0.427   6.562  0.2504 -0.8677 -0.8245
  115OSM    H3S11975   0.892   0.525   6.522 -0.8447 -0.2811 -0.2918
  115OSM     O311976   0.816   0.359   6.443 -0.2182 -0.2950 -0.6046
  115OSM    HO311977   0.723   0.382   6.451  0.2637  1.1010  1.7425
  115OSM    C4S11978   0.982   0.348   6.608 -0.1003  0.0697  0.2042
  115OSM    H4S11979   0.961   0.252   6.657 -1.0805 -0.3920 -1.0702
  115OSM    C5S11980   1.110   0.389   6.596  0.4259 -0.0010  0.1191
  115OSM    H5S11981   1.134   0.491   6.564  0.8249 -0.3856 -0.8509
  115OSM    C6S11982   1.228   0.310   6.642  0.1283  0.0283  0.0392
  115OSM    H6S11983   1.296   0.301   6.555  0.8792  1.8814  0.3791
  115OSM    H6T11984   1.199   0.207   6.673  0.1406 -0.2931 -0.9949
  115OSM    C7S11985   1.304   0.374   6.755 -0.6128 -0.1852  0.1450
  115OSM    H7S11986   1.330   0.479   6.730 -1.7084  0.1845  0.5169
  115OSM    H7T11987   1.405   0.329   6.768 -1.6671 -2.7968 -0.0714
  115OSM    C8S11988   1.220   0.357   6.887  0.6415 -0.6270 -0.5203
  115OSM    H8S11989   1.191   0.250   6.895 -0.0576 -0.3060  2.4076
  115OSM    H8T11990   1.133   0.424   6.882 -1.0383 -2.4555  1.7203
  115OSM    C9S11991   1.296   0.398   7.012  0.0716 -0.1275 -0.2459
  115OSM    H9S11992   1.340   0.499   6.997  3.1244 -1.1584  0.7992
  115OSM    H9T11993   1.387   0.335   7.025  1.5939  1.7682 -1.1765
  115OSM   C10S11994   1.227   0.394   7.152  0.8537 -0.5603  0.1486
  115OSM   H10S11995   1.190   0.289   7.158  1.4273 -0.7814 -0.1095
  115OSM   H10T11996   1.146   0.469   7.158 -0.5629 -1.8991 -1.2845
  115OSM   C11S11997   1.324   0.407   7.272  0.6327 -0.0539  0.6490
  115OSM   H11S11998   1.374   0.506   7.266  1.5946 -0.5912 -1.1807
  115OSM   H11T11999   1.396   0.322   7.269 -0.2069 -0.7829  0.6489
  115OSM   C12S12000   1.254   0.400   7.408 -0.3314 -0.1043 -0.2490
  115OSM   H12S12001   1.208   0.299   7.411  0.9280 -0.8789 -2.9680
  115OSM   H12T12002   1.175   0.477   7.418 -0.5081  0.3047 -3.6558
  115OSM   C13S12003   1.362   0.406   7.519 -0.3931 -0.0856  0.0121
  115OSM   H13S12004   1.398   0.511   7.525  1.7387 -0.7723  0.1473
  115OSM   H13T12005   1.430   0.318   7.511 -0.9744 -0.4158 -1.9873
  115OSM   C14S12006   1.289   0.386   7.655  0.2801  0.4689  0.2014
  115OSM   H14S12007   1.236   0.289   7.651 -0.1073  0.7265 -2.3660
  115OSM   H14T12008   1.204   0.457   7.668  1.5067  1.7599  1.5723
  115OSM   C15S12009   1.388   0.392   7.772 -0.2064  0.0129 -0.0815
  115OSM   H15S12010   1.438   0.490   7.783  0.3668 -0.3759  0.8847
  115OSM   H15T12011   1.462   0.311   7.753 -0.3822 -0.1397 -0.1283
  115OSM   C16S12012   1.313   0.356   7.908 -0.0626 -0.6116 -0.0698
  115OSM   H16S12013   1.273   0.253   7.896 -1.2324 -0.1695 -0.1750
  115OSM   H16T12014   1.236   0.436   7.911  0.4004 -0.1514 -0.2329
  115OSM   C17S12015   1.405   0.351   8.026 -0.0275 -0.2372 -0.1563
  115OSM   H17S12016   1.444   0.453   8.040  0.2677 -0.2336 -0.9491
  115OSM   H17T12017   1.487   0.280   8.002  2.1035  1.0689  2.7858
  115OSM   C18S12018   1.343   0.301   8.151  0.6580 -0.4263 -0.0654
  115OSM   H18S12019   1.239   0.337   8.161 -0.1630 -2.8218  0.8330
  115OSM   H18T12020   1.404   0.323   8.242 -1.9449  2.5147  1.1396
  115OSM   H18U12021   1.348   0.191   8.139  2.0009 -0.6663  2.0892
  115OSM    C1F12022   0.708   0.560   6.889 -0.4913 -0.9064 -0.7496
  115OSM     OF12023   0.599   0.505   6.912 -0.1292  0.2166 -0.1555
  115OSM    C2F12024   0.760   0.672   6.986  0.1458 -0.6442 -0.0626
  115OSM    H2F12025   0.785   0.758   6.920 -1.1951 -1.1871 -1.3358
  115OSM    H2G12026   0.855   0.624   7.017  0.1775 -2.0286 -2.0761
  115OSM    C3F12027   0.687   0.721   7.112 -0.6670  0.4818  0.3561
  115OSM    H3F12028   0.670   0.636   7.181  0.3717 -0.2251 -0.2269
  115OSM    H3G12029   0.590   0.749   7.067 -0.7144 -1.3757 -0.7705
  115OSM    C4F12030   0.756   0.838   7.171  0.2823 -0.1326  0.6885
  115OSM    H4F12031   0.775   0.922   7.101  1.9992  1.2651  2.6904
  115OSM    H4G12032   0.858   0.799   7.193 -0.0201 -1.9783 -0.9640
  115OSM    C5F12033   0.690   0.879   7.298  0.4784  0.6409 -0.2341
  115OSM    H5F12034   0.581   0.869   7.284  0.6772  0.5487 -2.0081
  115OSM    H5G12035   0.718   0.986   7.306  1.2683  0.2852  2.5534
  115OSM    C6F12036   0.739   0.814   7.430  0.1613 -0.0857 -0.2660
  115OSM    H6F12037   0.847   0.790   7.418  0.8776  0.5775  3.5009
  115OSM    H6G12038   0.686   0.717   7.445 -1.1871  0.7402  0.5117
  115OSM    C7F12039   0.711   0.896   7.560  0.0940 -0.5417  0.0994
  115OSM    H7F12040   0.601   0.910   7.574 -0.6237 -2.7772 -2.4367
  115OSM    H7G12041   0.753   0.997   7.540  1.0574 -1.0873 -0.6961
  115OSM    C8F12042   0.776   0.820   7.683 -0.4715 -0.0578  0.9307
  115OSM    H8F12043   0.877   0.786   7.652 -1.4473 -0.5876 -2.0000
  115OSM    H8G12044   0.710   0.731   7.695 -2.6452  1.3926  0.3666
  115OSM    C9F12045   0.808   0.898   7.805  0.1063  0.2265  0.6715
  115OSM    H9F12046   0.909   0.939   7.812  0.2260 -0.0859  0.7801
  115OSM   C10F12047   0.719   0.931   7.903  0.0455 -0.3387 -0.2623
  115OSM   H10F12048   0.746   1.002   7.982 -0.2125  1.2647 -1.5622
  115OSM   C11F12049   0.575   0.893   7.898  0.3068 -0.2508 -0.0125
  115OSM   H11F12050   0.546   0.848   7.995 -0.2241  0.0686 -0.0190
  115OSM   H11G12051   0.554   0.820   7.816  2.0449 -0.4734 -0.3079
  115OSM   C12F12052   0.470   1.010   7.897  0.1509  0.6402 -0.0711
  115OSM   H12F12053   0.371   0.965   7.874  0.2517 -0.0487  0.8013
  115OSM   H12G12054   0.492   1.079   7.812 -1.1357  0.0012 -0.9578
  115OSM   C13F12055   0.479   1.087   8.031  0.2032  0.1995 -0.0961
  115OSM   H13F12056   0.556   1.166   8.039  0.1500  0.1048  1.6998
  115OSM   H13G12057   0.485   1.018   8.118 -0.8072  2.5063  1.9413
  115OSM   C14F12058   0.350   1.166   8.055 -0.1237  0.0139  0.2830
  115OSM   H14F12059   0.270   1.091   8.040  0.5282 -0.2944 -2.0130
  115OSM   H14G12060   0.344   1.248   7.980 -1.7282 -1.3295 -1.1193
  115OSM   C15F12061   0.342   1.223   8.199  0.1655 -0.2352  0.2407
  115OSM   H15F12062   0.435   1.281   8.215 -0.2135  0.5049 -0.1981
  115OSM   H15G12063   0.327   1.139   8.271  3.3456  0.5379  2.0019
  115OSM   C16F12064   0.216   1.319   8.219  0.3753  0.1337  0.3534
  115OSM   H16F12065   0.115   1.278   8.195  0.3413 -0.4998  1.5386
  115OSM   H16G12066   0.230   1.394   8.138  3.0188 -2.1932 -1.5362
  115OSM   C17F12067   0.213   1.389   8.354  0.3942  0.0351  0.7380
  115OSM   H17F12068   0.124   1.455   8.355  1.7073  1.8799  1.0635
  115OSM   H17G12069   0.301   1.453   8.371  1.8621 -1.8142  0.5003
  115OSM   C18F12070   0.195   1.289   8.466  0.5215 -0.0477  0.6445
  115OSM   H18F12071   0.109   1.223   8.442  0.5326  0.1059  0.1806
  115OSM   H18G12072   0.157   1.337   8.559  1.5733 -0.0835  1.1115
  115OSM   H18H12073   0.286   1.229   8.484  1.3346  1.2056  0.8232
  116OSM      N12074   6.271   5.190   6.073 -0.8529 -0.5500  0.4081
  116OSM    C1512075   6.164   5.205   6.178  0.5188  0.1595 -0.0079
  116OSM   H15A12076   6.128   5.104   6.189  0.1364  0.3407  0.3985
  116OSM   H15B12077   6.077   5.251   6.135 -0.6296  0.3866  2.4086
  116OSM   H15C12078   6.205   5.246   6.269  1.9974  1.5078 -1.2225
  116OSM    C1412079   6.212   5.139   5.943  0.2735 -0.1461 -0.0699
  116OSM   H14A12080   6.289   5.130   5.867  0.2204  1.5216 -0.3608
  116OSM   H14B12081   6.135   5.206   5.906  0.5170  0.1942  0.0362
  116OSM   H14C12082   6.161   5.044   5.944 -2.7848  1.3329 -1.6908
  116OSM    C1312083   6.327   5.324   6.042  0.0201  0.7651 -0.5515
  116OSM   H13A12084   6.407   5.341   6.112 -0.1886  1.2297 -0.4230
  116OSM   H13B12085   6.253   5.403   6.050 -1.2062 -0.2286 -1.6576
  116OSM   H13C12086   6.379   5.318   5.948  2.4771 -3.5546  0.7859
  116OSM    C1212087   6.388   5.096   6.127 -0.3786 -0.1734 -0.4732
  116OSM   H12A12088   6.462   5.087   6.049 -1.0615  1.7559 -1.4275
  116OSM   H12B12089   6.350   4.997   6.144  0.6269  0.0172  3.9810
  116OSM    C1112090   6.468   5.131   6.252 -0.2190 -0.4567 -0.8687
  116OSM   H11A12091   6.519   5.040   6.288  1.6837 -0.5746 -3.6063
  116OSM   H11B12092   6.401   5.166   6.334 -0.4668 -2.1937 -0.2837
  116OSM      P12093   6.703   5.188   6.186  0.0827  0.1294  0.4547
  116OSM    O1312094   6.686   5.096   6.074  0.8134  0.2559  0.1249
  116OSM    O1412095   6.799   5.299   6.158  0.0157  0.3384 -0.0312
  116OSM    O1112096   6.751   5.116   6.317 -0.0592 -0.3573  0.0906
  116OSM    O1212097   6.555   5.239   6.224 -0.1232  0.0918  0.1645
  116OSM    C1S12098   6.756   5.208   6.435  0.3568  0.0914 -0.4763
  116OSM    H1S12099   6.655   5.204   6.481  0.6848 -0.4895  0.2215
  116OSM    H1T12100   6.764   5.315   6.407 -3.1036  0.6292  0.1991
  116OSM     NF12101   6.863   5.279   6.645 -0.3196 -0.5724  0.3118
  116OSM    HNF12102   6.904   5.369   6.648 -2.0107  0.3467 -1.4003
  116OSM    C2S12103   6.880   5.192   6.534 -0.1810  0.2235  1.2528
  116OSM    H2S12104   6.881   5.087   6.570 -0.0837  0.5081  2.1114
  116OSM    C3S12105   7.018   5.209   6.463  0.2937  0.7211 -0.4086
  116OSM    H3S12106   7.038   5.316   6.438  0.6579  1.0274  1.0967
  116OSM     O312107   7.047   5.133   6.346  0.1298  0.2298  0.0202
  116OSM    HO312108   6.964   5.143   6.300 -1.2928  0.2377  2.4608
  116OSM    C4S12109   7.126   5.160   6.560  0.0783  0.9834 -0.5720
  116OSM    H4S12110   7.096   5.056   6.581 -0.6282  1.2947  0.0422
  116OSM    C5S12111   7.221   5.227   6.623 -0.3257  0.1486  0.2065
  116OSM    H5S12112   7.240   5.330   6.589  2.0913  0.1433  1.2875
  116OSM    C6S12113   7.331   5.165   6.709 -0.0396 -0.5448  0.5719
  116OSM    H6S12114   7.403   5.128   6.633 -2.5425  0.3698 -2.4366
  116OSM    H6T12115   7.297   5.084   6.777  0.2727 -0.1864  1.1627
  116OSM    C7S12116   7.408   5.256   6.798 -0.2416 -0.4170  0.2789
  116OSM    H7S12117   7.351   5.307   6.879 -0.3124 -2.5796  1.6694
  116OSM    H7T12118   7.444   5.347   6.746  0.4882 -0.7250  0.2236
  116OSM    C8S12119   7.532   5.186   6.862 -0.0028  0.1407 -0.4746
  116OSM    H8S12120   7.583   5.262   6.925 -0.9149  0.2727  0.1272
  116OSM    H8T12121   7.599   5.143   6.785 -0.1213 -0.0417 -0.4756
  116OSM    C9S12122   7.502   5.072   6.971 -0.6583 -0.1840  0.3061
  116OSM    H9S12123   7.602   5.028   6.991 -0.3253 -0.0052 -0.8803
  116OSM    H9T12124   7.429   4.998   6.934  2.0535 -3.0162  0.2567
  116OSM   C10S12125   7.446   5.129   7.103 -1.1810  0.2736 -0.4376
  116OSM   H10S12126   7.335   5.138   7.093 -0.9624  2.7214 -1.1954
  116OSM   H10T12127   7.486   5.232   7.102  0.1829 -0.1786  1.7504
  116OSM   C11S12128   7.507   5.055   7.225  0.2207 -0.6358 -0.2157
  116OSM   H11S12129   7.617   5.069   7.226  0.1165  0.2001 -0.2543
  116OSM   H11T12130   7.471   4.950   7.214 -0.6603 -0.6627  2.3299
  116OSM   C12S12131   7.435   5.111   7.349  0.1054 -0.2091  0.0358
  116OSM   H12S12132   7.326   5.090   7.349  0.2078 -0.8949 -1.8311
  116OSM   H12T12133   7.461   5.218   7.339  0.0913 -0.1838  0.2497
  116OSM   C13S12134   7.505   5.053   7.475 -0.6591 -0.1530 -0.8164
  116OSM   H13S12135   7.614   5.068   7.457 -0.6672 -0.0233 -0.7610
  116OSM   H13T12136   7.495   4.943   7.476 -0.6016 -0.1577 -0.8089
  116OSM   C14S12137   7.463   5.123   7.609 -0.1047 -0.2366  0.2849
  116OSM   H14S12138   7.352   5.127   7.611 -0.0847  2.4225 -0.0862
  116OSM   H14T12139   7.496   5.229   7.599  0.2089 -0.4958 -1.8873
  116OSM   C15S12140   7.526   5.050   7.732 -0.4488 -0.3042  0.4876
  116OSM   H15S12141   7.636   5.060   7.741 -0.4005 -1.2052  1.0781
  116OSM   H15T12142   7.487   4.946   7.735 -2.4307  0.4097  2.3299
  116OSM   C16S12143   7.472   5.119   7.858  0.5329  0.1629 -0.1385
  116OSM   H16S12144   7.361   5.110   7.861  0.3034  2.5040  0.8843
  116OSM   H16T12145   7.500   5.227   7.862  1.2884 -0.0450  3.2684
  116OSM   C17S12146   7.529   5.064   7.990  0.8235  0.0473 -0.7426
  116OSM   H17S12147   7.635   5.097   7.988  0.6926  0.5647 -3.5332
  116OSM   H17T12148   7.516   4.953   7.990 -1.1338  0.2515  0.2060
  116OSM   C18S12149   7.470   5.125   8.113  0.0548  0.3095 -1.2881
  116OSM   H18S12150   7.518   5.092   8.208  0.8704  2.0561 -1.0476
  116OSM   H18T12151   7.363   5.103   8.136  0.3739  0.1081  0.1375
  116OSM   H18U12152   7.483   5.235   8.110 -0.5321  0.5313  1.4895
  116OSM    C1F12153   6.783   5.254   6.745  0.5353 -0.2180 -0.3843
  116OSM     OF12154   6.696   5.174   6.729 -0.1295  0.2060 -0.2888
  116OSM    C2F12155   6.797   5.328   6.871 -0.1099 -0.4324 -0.3084
  116OSM    H2F12156   6.716   5.404   6.883 -1.2615 -1.6126 -0.4044
  116OSM    H2G12157   6.893   5.384   6.876  0.5345 -1.6024  1.2108
  116OSM    C3F12158   6.804   5.244   7.003 -0.5696 -0.2600  0.1286
  116OSM    H3F12159   6.891   5.176   6.991 -0.3424  0.3735 -2.5677
  116OSM    H3G12160   6.712   5.185   7.023  0.2856 -1.4717  0.6384
  116OSM    C4F12161   6.838   5.327   7.130 -1.1154 -0.5005 -0.0423
  116OSM    H4F12162   6.945   5.351   7.117 -1.1098 -0.1994  0.4978
  116OSM    H4G12163   6.816   5.276   7.226 -0.9685 -0.1601  0.1751
  116OSM    C5F12164   6.760   5.459   7.135 -0.8645 -0.1480  0.1054
  116OSM    H5F12165   6.659   5.429   7.099  0.0265 -4.2632  0.5473
  116OSM    H5G12166   6.804   5.541   7.075 -0.1778  0.1115  0.9393
  116OSM    C6F12167   6.742   5.510   7.282 -0.2164 -0.0633 -0.0791
  116OSM    H6F12168   6.745   5.621   7.280 -1.6975 -0.0007 -1.9234
  116OSM    H6G12169   6.822   5.465   7.343  0.5645  0.2212 -0.8650
  116OSM    C7F12170   6.615   5.474   7.350  0.0020  0.0265 -0.4314
  116OSM    H7F12171   6.522   5.487   7.290 -0.0619 -1.6879 -0.7627
  116OSM    H7G12172   6.608   5.555   7.425 -2.1423 -0.5463  0.0489
  116OSM    C8F12173   6.604   5.348   7.432  0.3538  0.1321  0.2480
  116OSM    H8F12174   6.573   5.271   7.358  2.5297  0.8135 -1.4736
  116OSM    H8G12175   6.519   5.355   7.503  1.5767  0.6154  1.7322
  116OSM    C9F12176   6.728   5.286   7.493  0.3085  0.2835 -0.5494
  116OSM    H9F12177   6.774   5.216   7.421  1.1137 -1.4640  1.5339
  116OSM   C10F12178   6.788   5.303   7.613  1.3163 -0.5491 -0.3555
  116OSM   H10F12179   6.882   5.256   7.643  2.2229  0.5139 -1.4056
  116OSM   C11F12180   6.737   5.401   7.712  0.2667  0.0467 -0.8396
  116OSM   H11F12181   6.667   5.474   7.665 -1.2714 -1.0437 -0.3554
  116OSM   H11G12182   6.820   5.454   7.763 -1.5887  0.6910  1.7708
  116OSM   C12F12183   6.667   5.339   7.839 -0.0638  0.9619 -0.9228
  116OSM   H12F12184   6.567   5.292   7.825 -0.3697  1.2778  0.1265
  116OSM   H12G12185   6.658   5.426   7.908 -0.9370  1.0143 -1.0891
  116OSM   C13F12186   6.745   5.236   7.925  0.3062  0.3244 -1.2442
  116OSM   H13F12187   6.850   5.263   7.944 -0.0992 -0.0651  2.0802
  116OSM   H13G12188   6.734   5.132   7.887 -2.3771 -0.8880  2.2671
  116OSM   C14F12189   6.695   5.237   8.073 -0.0621  0.3763 -0.1079
  116OSM   H14F12190   6.598   5.182   8.070 -1.0959  2.0839  0.0715
  116OSM   H14G12191   6.674   5.340   8.109  1.2570  0.1899  1.2756
  116OSM   C15F12192   6.789   5.177   8.183 -0.8031 -0.6752  0.2360
  116OSM   H15F12193   6.886   5.231   8.184 -1.7554  1.4180 -2.9101
  116OSM   H15G12194   6.819   5.075   8.153 -0.1930 -0.8674  1.4454
  116OSM   C16F12195   6.727   5.182   8.321  0.4576  0.0326 -0.5818
  116OSM   H16F12196   6.622   5.146   8.322 -0.3719  2.3255  0.4915
  116OSM   H16G12197   6.712   5.288   8.351  2.6459 -0.2984  2.0553
  116OSM   C17F12198   6.824   5.128   8.428  0.0762  0.0122 -0.1516
  116OSM   H17F12199   6.918   5.187   8.415  0.3899 -0.1250  1.3052
  116OSM   H17G12200   6.832   5.019   8.413 -0.5671  0.1043 -1.2603
  116OSM   C18F12201   6.788   5.148   8.579  0.3314 -0.6913  0.8450
  116OSM   H18F12202   6.858   5.086   8.639  2.0989 -0.4547 -0.8726
  116OSM   H18G12203   6.682   5.116   8.578  0.6757 -1.9215 -0.5743
  116OSM   H18H12204   6.792   5.255   8.607  1.1630  0.4262 -2.9818
  117OSM      N12205   5.579   6.157   6.197 -0.8607  0.1710 -0.4018
  117OSM    C1512206   5.477   6.093   6.111  0.5373  0.1149 -0.3466
  117OSM   H15A12207   5.505   6.107   6.008  1.4409 -0.8716 -0.2497
  117OSM   H15B12208   5.385   6.149   6.121  1.5895  1.7533  0.8616
  117OSM   H15C12209   5.469   5.988   6.134 -0.7654  0.2596 -0.0430
  117OSM    C1412210   5.713   6.092   6.182 -0.9378 -0.4200 -0.3278
  117OSM   H14A12211   5.708   5.999   6.236 -1.5450 -0.0599  0.2554
  117OSM   H14B12212   5.788   6.138   6.243 -2.7833 -0.0480  1.7828
  117OSM   H14C12213   5.747   6.083   6.080  0.3722 -0.6100  0.1165
  117OSM    C1312214   5.585   6.295   6.135 -0.8248  0.2159  0.2309
  117OSM   H13A12215   5.677   6.343   6.165  0.6361 -1.8799 -0.5907
  117OSM   H13B12216   5.503   6.354   6.172 -0.9772  1.2775 -1.7048
  117OSM   H13C12217   5.596   6.290   6.028  3.4477 -1.9852  0.5292
  117OSM    C1212218   5.548   6.148   6.348  0.1210 -0.3435  0.4654
  117OSM   H12A12219   5.440   6.142   6.359  0.1136 -0.3190  0.3981
  117OSM   H12B12220   5.596   6.233   6.393  1.2716 -1.1865  0.8839
  117OSM    C1112221   5.576   6.018   6.417  0.5422  0.5455 -0.1438
  117OSM   H11A12222   5.527   5.932   6.368 -1.3550 -0.0020  2.4786
  117OSM   H11B12223   5.514   6.025   6.509  0.7403 -0.1219  0.0462
  117OSM      P12224   5.782   6.052   6.578 -0.3668  0.0048  0.1877
  117OSM    O1312225   5.902   5.969   6.607 -0.4843  0.5283  0.5087
  117OSM    O1412226   5.798   6.201   6.563  0.7242  0.6620 -0.4738
  117OSM    O1112227   5.678   6.017   6.691  0.4201  0.1042 -0.5963
  117OSM    O1212228   5.709   5.999   6.442  0.1718 -0.2154  0.0089
  117OSM    C1S12229   5.661   5.875   6.726 -0.6434 -0.4443 -0.1401
  117OSM    H1S12230   5.756   5.818   6.715  0.0230  0.7828 -1.1194
  117OSM    H1T12231   5.575   5.830   6.672 -1.2077  1.3576 -0.8143
  117OSM     NF12232   5.639   5.720   6.900 -0.2643  0.1135  0.3107
  117OSM    HNF12233   5.563   5.655   6.891 -0.5239  0.5051 -0.4127
  117OSM    C2S12234   5.612   5.858   6.873  0.4615  0.4287  0.3739
  117OSM    H2S12235   5.677   5.913   6.944  1.9722 -1.6971  0.7298
  117OSM    C3S12236   5.466   5.899   6.885 -0.2190 -0.0930  0.1031
  117OSM    H3S12237   5.396   5.819   6.854  2.5079 -2.4698 -0.3207
  117OSM     O312238   5.437   6.022   6.814  0.2450  0.4300  0.1352
  117OSM    HO312239   5.513   6.040   6.758  0.0495 -2.5009 -1.2536
  117OSM    C4S12240   5.440   5.921   7.035  0.0489 -0.2127 -0.1640
  117OSM    H4S12241   5.443   5.831   7.099 -0.7289 -1.0574 -1.2628
  117OSM    C5S12242   5.421   6.043   7.095  0.1156 -0.3527 -0.4441
  117OSM    H5S12243   5.435   6.134   7.034  0.4170  1.1005  1.6832
  117OSM    C6S12244   5.397   6.068   7.244  0.4513 -0.1469  0.2638
  117OSM    H6S12245   5.293   6.093   7.271  0.7761 -0.4478  1.8972
  117OSM    H6T12246   5.465   6.153   7.270  2.4799 -0.9968 -1.8488
  117OSM    C7S12247   5.454   5.960   7.336  0.1364  0.3087 -0.3442
  117OSM    H7S12248   5.561   5.937   7.317  0.8995  2.1877  1.3165
  117OSM    H7T12249   5.389   5.870   7.333  1.2793 -0.5261 -1.2500
  117OSM    C8S12250   5.437   6.004   7.486  0.0986  0.3153  0.2547
  117OSM    H8S12251   5.332   6.011   7.521 -0.0203 -0.6638  0.1263
  117OSM    H8T12252   5.490   6.102   7.492  0.8728 -0.0458 -0.4933
  117OSM    C9S12253   5.516   5.915   7.590  0.5570 -0.1476 -0.8777
  117OSM    H9S12254   5.622   5.926   7.556  0.1917  2.6431 -1.3648
  117OSM    H9T12255   5.488   5.808   7.596  2.7801 -0.6898  1.4823
  117OSM   C10S12256   5.506   5.966   7.735 -0.1849 -0.1647 -0.2861
  117OSM   H10S12257   5.404   5.969   7.779  0.1569 -1.4109  0.6506
  117OSM   H10T12258   5.552   6.067   7.739 -0.2435  0.0279 -3.0636
  117OSM   C11S12259   5.595   5.882   7.838 -0.2439  0.1142 -0.4295
  117OSM   H11S12260   5.698   5.888   7.797 -0.9166  3.6919 -1.9780
  117OSM   H11T12261   5.569   5.774   7.839 -0.7840  0.2381 -0.8723
  117OSM   C12S12262   5.592   5.943   7.980  0.1516  0.1634 -0.4445
  117OSM   H12S12263   5.488   5.972   8.008  0.4347  1.7462 -0.9192
  117OSM   H12T12264   5.643   6.041   7.970  0.5314  0.0527  0.3441
  117OSM   C13S12265   5.656   5.858   8.091  0.1088 -0.4598 -0.4806
  117OSM   H13S12266   5.757   5.839   8.049  0.0528  2.9269 -2.5186
  117OSM   H13T12267   5.587   5.772   8.105 -0.5613  0.3342  1.3241
  117OSM   C14S12268   5.666   5.928   8.229 -0.1731  0.2324  0.6622
  117OSM   H14S12269   5.573   5.979   8.262 -0.1424 -0.1178  1.2964
  117OSM   H14T12270   5.739   6.010   8.210 -0.8379  0.5754 -0.5087
  117OSM   C15S12271   5.714   5.850   8.353 -0.2934 -0.1498 -0.6042
  117OSM   H15S12272   5.811   5.802   8.329 -0.7222 -1.1446 -0.3606
  117OSM   H15T12273   5.637   5.780   8.391 -0.5958  0.7619  0.5322
  117OSM   C16S12274   5.732   5.942   8.477 -1.0710 -0.5377  0.0403
  117OSM   H16S12275   5.638   5.977   8.524 -0.0028  3.5503 -0.4578
  117OSM   H16T12276   5.796   6.029   8.450  0.1120 -1.7492 -1.2472
  117OSM   C17S12277   5.803   5.868   8.591  0.9380 -0.0698 -0.8955
  117OSM   H17S12278   5.856   5.944   8.653  0.0322 -0.7304  0.7542
  117OSM   H17T12279   5.886   5.808   8.548  2.4685 -0.7683  2.6639
  117OSM   C18S12280   5.707   5.777   8.671  0.3288 -0.1164 -0.0385
  117OSM   H18S12281   5.621   5.842   8.701 -2.0195 -2.7651 -0.5927
  117OSM   H18T12282   5.752   5.733   8.762  0.2086  1.4780  0.8321
  117OSM   H18U12283   5.655   5.699   8.612 -0.6242  0.3272  0.1796
  117OSM    C1F12284   5.754   5.676   6.947  0.3494 -0.0171 -0.2230
  117OSM     OF12285   5.850   5.744   6.977 -0.0100 -0.1265 -0.1542
  117OSM    C2F12286   5.771   5.526   6.962  0.5501 -0.7643  0.5034
  117OSM    H2F12287   5.829   5.497   6.872 -0.7451  2.8977 -1.7255
  117OSM    H2G12288   5.671   5.476   6.955  0.5049 -0.4161 -2.0341
  117OSM    C3F12289   5.849   5.474   7.081  0.2437  0.1701 -0.6204
  117OSM    H3F12290   5.943   5.532   7.088  0.4913  0.0467 -2.3221
  117OSM    H3G12291   5.873   5.368   7.056 -3.0110 -1.0154  0.6972
  117OSM    C4F12292   5.764   5.476   7.216 -0.1446 -0.0070 -0.0215
  117OSM    H4F12293   5.661   5.447   7.190 -0.0978  0.4712 -0.7667
  117OSM    H4G12294   5.770   5.579   7.257 -1.5560  0.7011 -1.5120
  117OSM    C5F12295   5.813   5.391   7.335  0.0225  0.6923  0.2396
  117OSM    H5F12296   5.916   5.425   7.359  0.0595  1.3419 -0.7528
  117OSM    H5G12297   5.814   5.285   7.303  0.2849  0.1523  1.9358
  117OSM    C6F12298   5.719   5.402   7.461  0.0860  0.2864 -0.2799
  117OSM    H6F12299   5.617   5.360   7.451  1.5389 -3.4041 -0.9938
  117OSM    H6G12300   5.718   5.512   7.481  3.8525  0.0677  2.1037
  117OSM    C7F12301   5.782   5.324   7.577 -0.1078 -0.0413  0.0825
  117OSM    H7F12302   5.884   5.360   7.600 -0.7162  1.9191 -0.0746
  117OSM    H7G12303   5.796   5.219   7.546  2.1961  0.4314 -0.6902
  117OSM    C8F12304   5.695   5.328   7.703  0.1948  0.0370  0.1904
  117OSM    H8F12305   5.743   5.260   7.775  1.0895 -0.8790 -1.2171
  117OSM    H8G12306   5.599   5.281   7.672  0.7734 -0.5171 -0.8498
  117OSM    C9F12307   5.660   5.461   7.760  0.2553 -0.3851  0.0485
  117OSM    H9F12308   5.556   5.494   7.746  0.8438  0.9937 -1.4713
  117OSM   C10F12309   5.749   5.542   7.819  0.0393 -0.0721 -0.5435
  117OSM   H10F12310   5.718   5.631   7.876 -0.5014 -0.9428  0.5625
  117OSM   C11F12311   5.896   5.515   7.847  0.0313 -0.4278  0.1056
  117OSM   H11F12312   5.954   5.561   7.765 -0.2359 -1.3693 -0.6289
  117OSM   H11G12313   5.923   5.407   7.852 -2.1002 -0.9720  0.9919
  117OSM   C12F12314   5.946   5.570   7.985  0.5839 -0.5523 -0.3843
  117OSM   H12F12315   5.933   5.680   7.979 -0.8627 -0.5710  1.5702
  117OSM   H12G12316   6.056   5.553   7.979  1.1194  1.5291  1.7765
  117OSM   C13F12317   5.871   5.500   8.099  0.6938  0.2490  0.9554
  117OSM   H13F12318   5.868   5.395   8.064  0.8052  0.4928  0.1953
  117OSM   H13G12319   5.771   5.547   8.103  0.6185  0.4947 -2.0062
  117OSM   C14F12320   5.937   5.494   8.239  0.9630  0.6299  0.5365
  117OSM   H14F12321   5.971   5.593   8.275  0.9403  0.7813  0.1374
  117OSM   H14G12322   6.037   5.450   8.223 -0.6957 -3.0759 -0.8792
  117OSM   C15F12323   5.862   5.401   8.338  0.6419 -0.1050 -0.3690
  117OSM   H15F12324   5.904   5.298   8.340 -0.6995 -0.6747 -0.5753
  117OSM   H15G12325   5.758   5.397   8.298  0.9180 -0.7520 -1.0388
  117OSM   C16F12326   5.878   5.456   8.481 -0.0866 -0.0968  0.0158
  117OSM   H16F12327   5.850   5.564   8.479  0.7224  0.1758  1.6920
  117OSM   H16G12328   5.983   5.443   8.514 -0.1223  1.3127  0.7547
  117OSM   C17F12329   5.790   5.368   8.581 -0.0055  0.2600 -0.1373
  117OSM   H17F12330   5.792   5.424   8.677 -0.9068 -0.5122  0.3558
  117OSM   H17G12331   5.686   5.362   8.543 -0.1287  2.4700 -0.2666
  117OSM   C18F12332   5.838   5.225   8.607  0.2979 -0.5616  0.1615
  117OSM   H18F12333   5.872   5.178   8.513 -2.2921  0.8878 -1.6345
  117OSM   H18G12334   5.744   5.172   8.631 -0.3295 -0.9480 -2.8712
  117OSM   H18H12335   5.912   5.220   8.691 -2.1368  1.2969  2.6288
  118OSM      N12336   6.491   1.814   6.296  0.1388  0.6472  0.2040
  118OSM    C1512337   6.399   1.927   6.245 -0.0199  0.8530  0.8430
  118OSM   H15A12338   6.451   2.004   6.189 -1.9265  1.4043 -0.2766
  118OSM   H15B12339   6.330   1.973   6.314 -0.6364  3.2040 -1.1483
  118OSM   H15C12340   6.336   1.874   6.175  2.0609 -0.7177  0.0851
  118OSM    C1412341   6.554   1.737   6.177  0.5164  0.0642 -0.2878
  118OSM   H14A12342   6.630   1.670   6.214 -0.7967 -0.5588  1.4236
  118OSM   H14B12343   6.593   1.812   6.109 -0.7754 -0.0965 -1.2235
  118OSM   H14C12344   6.480   1.674   6.131  0.5550 -1.4126  1.5642
  118OSM    C1312345   6.599   1.887   6.358  0.4193 -0.6621  0.0789
  118OSM   H13A12346   6.666   1.923   6.281  0.7547 -0.8043  0.2984
  118OSM   H13B12347   6.655   1.832   6.432 -0.1925  2.0502  2.7795
  118OSM   H13C12348   6.552   1.969   6.411  1.6976 -0.4801  0.9810
  118OSM    C1212349   6.412   1.719   6.388 -0.1556  0.1315 -0.4942
  118OSM   H12A12350   6.345   1.658   6.330  0.0286 -1.0088  0.4495
  118OSM   H12B12351   6.345   1.767   6.457 -0.5616 -0.6213 -0.3550
  118OSM    C1112352   6.514   1.625   6.475 -0.6765 -0.4872  0.6507
  118OSM   H11A12353   6.454   1.585   6.560  0.0778  0.9840  1.9396
  118OSM   H11B12354   6.591   1.694   6.517  1.2416 -0.4889 -2.5381
  118OSM      P12355   6.717   1.485   6.382 -0.0757  0.0386 -0.1107
  118OSM    O1312356   6.739   1.422   6.248  0.0055  0.2283 -0.5654
  118OSM    O1412357   6.811   1.596   6.402 -0.0874 -0.6128  0.1026
  118OSM    O1112358   6.725   1.374   6.489 -0.2618 -0.4518 -0.3980
  118OSM    O1212359   6.570   1.526   6.393 -0.0672  0.3493  0.3035
  118OSM    C1S12360   6.836   1.367   6.586 -0.1300 -0.3199 -0.6769
  118OSM    H1S12361   6.924   1.433   6.567 -1.3245  1.8914  0.9855
  118OSM    H1T12362   6.873   1.262   6.591 -0.8151 -0.5347  2.8284
  118OSM     NF12363   6.904   1.378   6.808  0.1889 -0.1115 -0.2866
  118OSM    HNF12364   6.912   1.286   6.845  0.7888 -0.7130 -1.8252
  118OSM    C2S12365   6.787   1.402   6.728 -0.0187  0.3766 -0.0810
  118OSM    H2S12366   6.769   1.511   6.739 -0.4486  0.5097 -1.8350
  118OSM    C3S12367   6.669   1.328   6.778  0.7692 -0.0343  0.1369
  118OSM    H3S12368   6.693   1.220   6.786 -0.4150 -0.3971 -0.9795
  118OSM     O312369   6.551   1.354   6.696 -0.1092 -0.0181  0.2271
  118OSM    HO312370   6.597   1.381   6.616  0.9520  0.6429  1.0258
  118OSM    C4S12371   6.632   1.374   6.921 -0.7076 -0.4081  0.0236
  118OSM    H4S12372   6.566   1.462   6.920 -0.6196 -0.3122 -2.1472
  118OSM    C5S12373   6.652   1.317   7.041 -0.6304  0.3351  0.0411
  118OSM    H5S12374   6.711   1.224   7.050 -1.9694 -0.5252  0.2376
  118OSM    C6S12375   6.602   1.378   7.176  0.7219  0.8567  0.1160
  118OSM    H6S12376   6.520   1.315   7.218 -1.4214  2.7750 -0.9339
  118OSM    H6T12377   6.551   1.476   7.162 -0.7306  0.0838 -0.2613
  118OSM    C7S12378   6.695   1.401   7.288 -0.1428  0.2123  0.5619
  118OSM    H7S12379   6.763   1.483   7.255 -3.1985  2.9059  0.4186
  118OSM    H7T12380   6.754   1.307   7.296 -1.1250 -0.5153 -0.4527
  118OSM    C8S12381   6.639   1.437   7.425 -0.6514  0.4352 -0.1105
  118OSM    H8S12382   6.589   1.536   7.420  1.1872  1.4056 -0.3618
  118OSM    H8T12383   6.727   1.454   7.491 -0.5593 -1.5408  0.3254
  118OSM    C9S12384   6.555   1.322   7.486  0.0286 -0.1321  0.6292
  118OSM    H9S12385   6.614   1.228   7.477  0.4313  0.2925 -1.7876
  118OSM    H9T12386   6.471   1.308   7.416  0.6165 -1.1881  0.1080
  118OSM   C10S12387   6.506   1.335   7.632  0.0738  1.9157 -0.1013
  118OSM   H10S12388   6.593   1.343   7.700  0.7951 -2.2149 -0.2982
  118OSM   H10T12389   6.452   1.240   7.651 -1.6721  3.0314  0.7519
  118OSM   C11S12390   6.423   1.455   7.643 -0.2793  0.4491 -0.3458
  118OSM   H11S12391   6.324   1.448   7.594 -0.3526 -2.3141 -0.0079
  118OSM   H11T12392   6.480   1.541   7.603 -0.6501  0.9481  0.1906
  118OSM   C12S12393   6.376   1.492   7.785  0.5173 -0.6922 -0.1362
  118OSM   H12S12394   6.452   1.490   7.865  0.9664  2.4709 -0.3490
  118OSM   H12T12395   6.305   1.412   7.814 -1.7674  0.8992 -1.0098
  118OSM   C13S12396   6.309   1.621   7.770 -0.0683 -0.2997 -0.3655
  118OSM   H13S12397   6.252   1.625   7.675 -0.3279 -0.3531 -0.2120
  118OSM   H13T12398   6.382   1.705   7.765 -1.3991  0.8385 -1.2094
  118OSM   C14S12399   6.198   1.651   7.879  0.5468  0.4944 -0.4379
  118OSM   H14S12400   6.125   1.569   7.865 -0.0108  1.0809 -1.0325
  118OSM   H14T12401   6.145   1.746   7.856  1.4949  0.7497 -1.6833
  118OSM   C15S12402   6.248   1.659   8.024  0.2274 -0.0521  0.2496
  118OSM   H15S12403   6.322   1.743   8.021 -0.9953  1.1400 -3.8217
  118OSM   H15T12404   6.312   1.574   8.056  1.3314 -0.4377 -2.6403
  118OSM   C16S12405   6.135   1.682   8.114 -0.7022  0.2226 -0.3839
  118OSM   H16S12406   6.059   1.602   8.103 -1.2974  0.6334  0.5903
  118OSM   H16T12407   6.076   1.776   8.107 -0.3329  0.7530  2.3342
  118OSM   C17S12408   6.180   1.670   8.259  0.2952 -0.3352 -0.2688
  118OSM   H17S12409   6.253   1.754   8.265 -0.7413  1.0099 -3.7901
  118OSM   H17T12410   6.240   1.578   8.276 -1.7156 -1.6493  0.0342
  118OSM   C18S12411   6.064   1.691   8.361 -0.1961  0.6181 -0.4501
  118OSM   H18S12412   6.001   1.602   8.341 -0.0847  0.4270  0.0360
  118OSM   H18T12413   6.007   1.782   8.333 -1.9035 -0.6901 -1.3734
  118OSM   H18U12414   6.100   1.687   8.466 -0.0581  0.7301 -0.4920
  118OSM    C1F12415   7.009   1.466   6.818 -0.2437 -0.2778 -0.3964
  118OSM     OF12416   7.001   1.580   6.770  0.3088 -0.0004 -0.1972
  118OSM    C2F12417   7.135   1.413   6.874 -0.1209  0.6700  0.0698
  118OSM    H2F12418   7.211   1.418   6.792  0.1796  0.5031  0.3349
  118OSM    H2G12419   7.122   1.304   6.892  3.9564 -0.1811 -1.1105
  118OSM    C3F12420   7.185   1.492   7.001 -0.1619  0.1697 -0.2082
  118OSM    H3F12421   7.196   1.601   6.982 -1.8912  0.1344 -1.6991
  118OSM    H3G12422   7.287   1.461   7.034 -0.0444 -1.5156 -1.9541
  118OSM    C4F12423   7.085   1.472   7.122  0.1564  0.0707  0.4072
  118OSM    H4F12424   7.049   1.367   7.129 -0.4523  0.3468  1.7149
  118OSM    H4G12425   6.990   1.523   7.097  0.7138 -0.6417 -3.9878
  118OSM    C5F12426   7.148   1.527   7.243 -0.3079  0.0635 -0.4080
  118OSM    H5F12427   7.186   1.629   7.222  1.0418  0.5746  3.5697
  118OSM    H5G12428   7.237   1.473   7.281 -0.1407 -0.3659 -1.3979
  118OSM    C6F12429   7.056   1.520   7.365 -0.7853 -0.3726  0.5422
  118OSM    H6F12430   7.022   1.416   7.385  0.0013 -0.4964  1.3038
  118OSM    H6G12431   6.965   1.575   7.333 -0.9888 -1.3054 -0.5682
  118OSM    C7F12432   7.112   1.600   7.488 -0.4211  0.3177 -0.1374
  118OSM    H7F12433   7.024   1.594   7.555  0.0127 -0.4845  0.3717
  118OSM    H7G12434   7.130   1.701   7.445  1.7703 -0.0947 -0.2712
  118OSM    C8F12435   7.236   1.531   7.550 -0.8573  0.4289  0.5887
  118OSM    H8F12436   7.312   1.507   7.472  1.0026 -0.3522  2.5265
  118OSM    H8G12437   7.205   1.436   7.598 -0.2800 -0.8088 -1.3917
  118OSM    C9F12438   7.314   1.626   7.641 -1.0698 -0.0052  0.0294
  118OSM    H9F12439   7.349   1.715   7.587  0.3970 -1.9605 -2.4663
  118OSM   C10F12440   7.346   1.595   7.764 -0.5068  0.0243 -0.2020
  118OSM   H10F12441   7.392   1.675   7.823  0.7265  0.3045 -1.5010
  118OSM   C11F12442   7.319   1.464   7.840  0.2180  0.2969  0.7712
  118OSM   H11F12443   7.391   1.383   7.816 -0.1534  0.4614 -1.0124
  118OSM   H11G12444   7.212   1.438   7.822  0.7546 -0.1200 -2.3571
  118OSM   C12F12445   7.323   1.490   7.988 -0.7082 -0.3634 -0.0545
  118OSM   H12F12446   7.295   1.397   8.042 -1.1703 -0.5286 -0.5694
  118OSM   H12G12447   7.245   1.562   8.020 -0.0571 -0.0377  0.8366
  118OSM   C13F12448   7.457   1.555   8.043  0.0398 -0.7213  0.3086
  118OSM   H13F12449   7.473   1.663   8.023 -1.8276 -0.3842  0.5179
  118OSM   H13G12450   7.546   1.503   8.002 -0.6643 -1.1376 -0.7315
  118OSM   C14F12451   7.460   1.527   8.194 -0.2582  0.2377  0.6484
  118OSM   H14F12452   7.466   1.417   8.210  1.5130  0.2225  0.0877
  118OSM   H14G12453   7.367   1.560   8.246 -1.6811 -3.4657  0.8209
  118OSM   C15F12454   7.582   1.574   8.281  0.1065 -0.4779 -0.2592
  118OSM   H15F12455   7.586   1.685   8.281 -0.1147 -0.3492 -3.7486
  118OSM   H15G12456   7.677   1.535   8.241 -0.4290 -0.9682 -1.0928
  118OSM   C16F12457   7.569   1.524   8.426 -0.4704  0.5162 -0.1140
  118OSM   H16F12458   7.603   1.419   8.431 -0.0281  0.7231  3.1761
  118OSM   H16G12459   7.470   1.538   8.473 -1.0055 -2.3573 -0.2347
  118OSM   C17F12460   7.672   1.582   8.531  0.3736 -0.2673 -0.1956
  118OSM   H17F12461   7.773   1.555   8.495  1.2773 -0.9749  2.6610
  118OSM   H17G12462   7.656   1.525   8.625  1.1315 -1.3628 -0.7248
  118OSM   C18F12463   7.675   1.736   8.543 -0.4448 -0.1541  0.3820
  118OSM   H18F12464   7.751   1.785   8.608  1.4971  0.0466 -1.9243
  118OSM   H18G12465   7.576   1.772   8.579  0.7858  0.7657  3.1329
  118OSM   H18H12466   7.689   1.788   8.446 -1.2986  2.1954  1.4490
  119OSM      N12467   0.752   2.151   6.142  0.4440  0.0839 -0.8767
  119OSM    C1512468   0.631   2.110   6.058 -0.2090 -0.4519 -0.5668
  119OSM   H15A12469   0.572   2.196   6.029  1.3349  0.3971 -1.2972
  119OSM   H15B12470   0.573   2.039   6.117  0.3662 -0.3706  0.1078
  119OSM   H15C12471   0.661   2.064   5.965  0.5044 -0.7327 -0.2077
  119OSM    C1412472   0.825   2.256   6.065 -0.2842 -0.0042 -0.2753
  119OSM   H14A12473   0.887   2.316   6.131 -1.6525 -2.3009  3.4472
  119OSM   H14B12474   0.755   2.318   6.012 -0.1630  0.2770 -0.1076
  119OSM   H14C12475   0.885   2.212   5.987 -1.0306 -0.5928 -0.5292
  119OSM    C1312476   0.703   2.212   6.277  0.2825  0.1564  0.2798
  119OSM   H13A12477   0.619   2.276   6.253  0.8248  0.3056 -1.2995
  119OSM   H13B12478   0.784   2.269   6.320  0.0509  1.0480 -0.4240
  119OSM   H13C12479   0.669   2.136   6.346  2.4397 -0.7161  0.4396
  119OSM    C1212480   0.842   2.027   6.158 -0.1121 -0.3996  0.1744
  119OSM   H12A12481   0.861   1.986   6.060 -3.1993 -1.1827 -0.1800
  119OSM   H12B12482   0.781   1.955   6.210 -1.3375  0.9199  0.6388
  119OSM    C1112483   0.976   2.058   6.238  0.7496  0.2351 -0.0202
  119OSM   H11A12484   1.000   1.952   6.259  0.1028  0.6322  3.2700
  119OSM   H11B12485   0.943   2.111   6.330 -1.2642  1.5380 -1.4078
  119OSM      P12486   1.189   2.210   6.196 -0.1713  0.2222  0.0737
  119OSM    O1312487   1.286   2.202   6.086  0.6186  0.4436 -0.0769
  119OSM    O1412488   1.135   2.342   6.233  0.2972  0.3093  0.3225
  119OSM    O1112489   1.233   2.130   6.328  0.3429 -0.2518  0.1249
  119OSM    O1212490   1.071   2.123   6.148  0.1699 -0.2077  0.0814
  119OSM    C1S12491   1.340   2.172   6.411  0.3998 -0.0016  0.5171
  119OSM    H1S12492   1.345   2.283   6.413 -1.5365  0.2988 -3.0984
  119OSM    H1T12493   1.443   2.148   6.376  0.9282 -0.7061  2.4293
  119OSM     NF12494   1.419   2.173   6.653  0.2968  0.3872 -0.0163
  119OSM    HNF12495   1.481   2.108   6.697 -0.8539 -1.1234 -0.5598
  119OSM    C2S12496   1.322   2.114   6.557  0.0645 -0.2001 -0.1595
  119OSM    H2S12497   1.223   2.153   6.589  1.9598  3.5161  1.6778
  119OSM    C3S12498   1.318   1.959   6.557 -0.0569  0.1760  0.4659
  119OSM    H3S12499   1.410   1.902   6.531 -1.0304 -1.6414  0.7904
  119OSM     O312500   1.221   1.900   6.466  0.2079 -0.4464 -0.2562
  119OSM    HO312501   1.196   1.980   6.418 -0.4751 -1.0996 -1.0184
  119OSM    C4S12502   1.297   1.909   6.702 -0.5879 -0.9300  0.2226
  119OSM    H4S12503   1.384   1.863   6.753 -0.5882 -0.5731  0.5511
  119OSM    C5S12504   1.186   1.921   6.780  0.8172  0.5373 -0.2785
  119OSM    H5S12505   1.090   1.945   6.732  0.5768 -0.1372 -0.1478
  119OSM    C6S12506   1.161   1.872   6.919 -0.6533 -0.0677 -0.2670
  119OSM    H6S12507   1.053   1.848   6.931 -0.2508 -2.3609 -0.6716
  119OSM    H6T12508   1.190   1.946   6.996 -1.1068 -0.8811  0.7042
  119OSM    C7S12509   1.243   1.743   6.955 -0.1286 -0.5449  0.3523
  119OSM    H7S12510   1.346   1.780   6.975 -0.6267  0.6481  0.7776
  119OSM    H7T12511   1.235   1.665   6.876 -2.7242  0.6080 -0.6526
  119OSM    C8S12512   1.210   1.670   7.085  0.1358 -0.5170  0.2005
  119OSM    H8S12513   1.260   1.571   7.089  1.6451  0.1991 -0.1464
  119OSM    H8T12514   1.100   1.662   7.068 -0.1337  2.0242  0.3005
  119OSM    C9S12515   1.242   1.745   7.210  0.4292 -0.4117 -0.1001
  119OSM    H9S12516   1.188   1.841   7.210  0.9679 -0.1011 -0.4857
  119OSM    H9T12517   1.349   1.774   7.217  0.1614  0.7188 -0.5454
  119OSM   C10S12518   1.188   1.674   7.343 -0.0041 -0.5758  0.3505
  119OSM   H10S12519   1.208   1.565   7.341 -0.4619 -0.6587  0.2177
  119OSM   H10T12520   1.077   1.677   7.336 -0.0052  2.5571 -0.0443
  119OSM   C11S12521   1.252   1.745   7.466  0.2896 -0.6025  0.2359
  119OSM   H11S12522   1.228   1.853   7.472  1.3096 -0.3762  0.6138
  119OSM   H11T12523   1.362   1.738   7.484  0.2137  0.0089  1.0068
  119OSM   C12S12524   1.185   1.693   7.595 -0.0193  0.4833  0.2372
  119OSM   H12S12525   1.185   1.583   7.603 -1.2765  0.2890 -1.6914
  119OSM   H12T12526   1.077   1.717   7.600 -0.0681  0.3814 -0.3217
  119OSM   C13S12527   1.243   1.754   7.721  0.1346 -0.0660 -0.7294
  119OSM   H13S12528   1.248   1.865   7.726 -0.3277 -0.1020  0.9996
  119OSM   H13T12529   1.346   1.724   7.747  1.1320  2.5325 -1.3557
  119OSM   C14S12530   1.143   1.720   7.839  0.4055  0.2757  0.1792
  119OSM   H14S12531   1.124   1.611   7.827 -1.4910  0.4437  1.2514
  119OSM   H14T12532   1.041   1.763   7.826  1.1419  1.9682 -0.2419
  119OSM   C15S12533   1.201   1.761   7.979  0.5691  0.1407  0.6753
  119OSM   H15S12534   1.187   1.868   8.005  3.9867  0.8285  0.2302
  119OSM   H15T12535   1.312   1.757   7.982  0.5163 -1.0745  2.6250
  119OSM   C16S12536   1.161   1.668   8.090 -0.6353  0.5000 -0.4878
  119OSM   H16S12537   1.203   1.566   8.074  0.0828  0.6643  0.3131
  119OSM   H16T12538   1.052   1.643   8.086 -0.2726 -2.2494  2.6106
  119OSM   C17S12539   1.192   1.713   8.240  0.5971 -0.0305  0.0578
  119OSM   H17S12540   1.165   1.622   8.298  3.1189 -1.3059 -0.6424
  119OSM   H17T12541   1.119   1.791   8.270 -0.4314 -0.8244 -0.3076
  119OSM   C18S12542   1.340   1.741   8.270 -0.2128 -0.7170  0.3182
  119OSM   H18S12543   1.355   1.843   8.227 -1.4843  0.1060  1.7013
  119OSM   H18T12544   1.416   1.671   8.228  1.3917  1.6437 -0.9863
  119OSM   H18U12545   1.364   1.744   8.379 -0.5762 -1.2678  0.4142
  119OSM    C1F12546   1.400   2.300   6.689  0.1116  0.2337  0.4398
  119OSM     OF12547   1.307   2.368   6.647 -0.1574  0.2841  0.3283
  119OSM    C2F12548   1.496   2.350   6.786 -0.3823 -0.3103 -0.1496
  119OSM    H2F12549   1.596   2.347   6.737 -0.1583  1.7607  0.1138
  119OSM    H2G12550   1.488   2.276   6.869  2.3158  0.5964  1.0326
  119OSM    C3F12551   1.468   2.494   6.834 -0.3788  0.1939  0.3438
  119OSM    H3F12552   1.366   2.494   6.878  0.2905 -0.3514  1.9929
  119OSM    H3G12553   1.477   2.554   6.742  0.2933 -3.0382 -1.8806
  119OSM    C4F12554   1.557   2.548   6.944  1.3683  0.0804  0.1182
  119OSM    H4F12555   1.553   2.658   6.935 -0.8557 -0.1099 -2.1503
  119OSM    H4G12556   1.660   2.513   6.918  0.5803 -1.6264 -0.8805
  119OSM    C5F12557   1.494   2.498   7.080 -0.4916  0.0658 -0.5727
  119OSM    H5F12558   1.474   2.389   7.087 -0.8710  0.1988  0.6989
  119OSM    H5G12559   1.399   2.555   7.086 -0.0013  1.1174 -2.3044
  119OSM    C6F12560   1.583   2.519   7.199 -0.3266  0.2364 -0.0646
  119OSM    H6F12561   1.626   2.621   7.205  0.4324 -0.0157 -1.0145
  119OSM    H6G12562   1.666   2.446   7.198 -0.9361 -0.4658 -0.1872
  119OSM    C7F12563   1.507   2.498   7.330  0.1412 -0.3978 -0.3449
  119OSM    H7F12564   1.444   2.408   7.313 -0.2136 -0.1403 -0.4038
  119OSM    H7G12565   1.443   2.587   7.343  0.5397 -0.2822  0.9464
  119OSM    C8F12566   1.597   2.501   7.459 -0.7473 -0.4305  0.3391
  119OSM    H8F12567   1.674   2.581   7.455 -0.6324 -0.5189  0.6817
  119OSM    H8G12568   1.658   2.408   7.457  2.8600  1.6076  3.2511
  119OSM    C9F12569   1.521   2.504   7.589  0.7100 -0.7819 -0.4362
  119OSM    H9F12570   1.466   2.412   7.615 -1.2112  0.9185  2.0058
  119OSM   C10F12571   1.514   2.613   7.668 -0.2842  0.1211  0.7570
  119OSM   H10F12572   1.445   2.609   7.754 -1.4587  1.0976 -0.1043
  119OSM   C11F12573   1.580   2.744   7.638 -0.0833 -0.4038  0.6222
  119OSM   H11F12574   1.502   2.822   7.640  1.0955  0.8679 -0.7098
  119OSM   H11G12575   1.614   2.752   7.532  1.1099  0.6692  1.0640
  119OSM   C12F12576   1.696   2.765   7.729 -0.2285 -0.2892  0.3022
  119OSM   H12F12577   1.745   2.858   7.693 -1.5745 -1.1180 -4.2120
  119OSM   H12G12578   1.762   2.676   7.722 -0.5133 -0.7199  2.2889
  119OSM   C13F12579   1.660   2.785   7.873  0.0072  0.7040 -0.0334
  119OSM   H13F12580   1.643   2.685   7.919 -1.0695  0.5706 -0.6798
  119OSM   H13G12581   1.558   2.829   7.884 -0.0966  0.8617 -1.4455
  119OSM   C14F12582   1.761   2.881   7.947  0.1293  0.2928 -0.1492
  119OSM   H14F12583   1.725   2.897   8.051  1.4772 -0.9129  0.5347
  119OSM   H14G12584   1.766   2.979   7.894 -1.2426 -0.7124 -2.2908
  119OSM   C15F12585   1.901   2.817   7.969  0.0506  0.3190  0.0407
  119OSM   H15F12586   1.957   2.887   8.034  3.2993 -0.4137 -1.7317
  119OSM   H15G12587   1.945   2.822   7.867  0.2553 -0.9426  0.0530
  119OSM   C16F12588   1.906   2.683   8.039  0.1235 -0.2341  0.0285
  119OSM   H16F12589   1.898   2.602   7.964 -0.0538 -0.7402  0.5865
  119OSM   H16G12590   1.819   2.680   8.107  0.9432 -0.9625  1.0835
  119OSM   C17F12591   2.023   2.664   8.138 -0.2135  0.2239  0.7330
  119OSM   H17F12592   2.035   2.764   8.186  1.4486 -0.3012  1.4706
  119OSM   H17G12593   2.119   2.638   8.090 -0.1523  0.4372  0.7412
  119OSM   C18F12594   1.991   2.570   8.256 -0.1651  0.4422  0.0219
  119OSM   H18F12595   1.978   2.466   8.220 -0.5106  0.6997 -0.6039
  119OSM   H18G12596   1.904   2.604   8.315 -0.9953  0.2896 -1.0866
  119OSM   H18H12597   2.081   2.570   8.322 -2.1612  0.8219  2.9492
  120OSM      N12598   5.837   4.649   6.424 -1.0545  0.1512  0.2991
  120OSM    C1512599   5.691   4.678   6.410  0.1479  0.1554  0.0471
  120OSM   H15A12600   5.677   4.760   6.341 -1.9136  1.1879  1.5937
  120OSM   H15B12601   5.635   4.704   6.498  0.8157  1.6666  0.0488
  120OSM   H15C12602   5.646   4.594   6.358  0.2156  0.9588 -1.3831
  120OSM    C1412603   5.852   4.504   6.481  0.1284 -0.2648  0.2483
  120OSM   H14A12604   5.802   4.498   6.577  0.1394 -1.6988  0.1872
  120OSM   H14B12605   5.954   4.482   6.506  0.5759  1.7825  0.4150
  120OSM   H14C12606   5.818   4.422   6.419 -0.6830  0.6325 -0.5428
  120OSM    C1312607   5.895   4.641   6.284  0.2933 -0.2969 -0.0603
  120OSM   H13A12608   5.828   4.596   6.213 -0.0731 -0.4833  0.3969
  120OSM   H13B12609   5.990   4.590   6.286 -0.1962 -1.3166 -1.4611
  120OSM   H13C12610   5.908   4.742   6.249  0.6527 -0.3986 -0.2281
  120OSM    C1212611   5.903   4.747   6.517 -0.1093 -0.2243 -0.0919
  120OSM   H12A12612   5.838   4.746   6.604 -2.8113  1.4623 -1.9177
  120OSM   H12B12613   5.882   4.844   6.475  0.1578 -0.4683 -0.8076
  120OSM    C1112614   6.054   4.739   6.546 -0.0728  0.4177 -0.0958
  120OSM   H11A12615   6.081   4.644   6.597  2.0368  0.5996 -0.7733
  120OSM   H11B12616   6.075   4.820   6.618 -0.6786  0.9111 -0.4702
  120OSM      P12617   6.275   4.739   6.392  0.2324  0.5019  0.1162
  120OSM    O1312618   6.281   4.594   6.393 -1.0123  0.4969 -0.6165
  120OSM    O1412619   6.310   4.808   6.271 -0.0995 -0.0989 -0.4143
  120OSM    O1112620   6.361   4.789   6.510 -0.1109  0.2654  0.2506
  120OSM    O1212621   6.130   4.775   6.425 -0.5885 -0.4418 -0.1255
  120OSM    C1S12622   6.381   4.931   6.533 -0.5770  0.1585 -0.8603
  120OSM    H1S12623   6.301   4.992   6.488  1.1843  2.2970 -1.2549
  120OSM    H1T12624   6.480   4.955   6.489  2.0932 -2.0951  3.1813
  120OSM     NF12625   6.424   5.099   6.705 -0.0006 -0.2908 -0.0016
  120OSM    HNF12626   6.519   5.119   6.726 -0.3741 -0.8627  2.5485
  120OSM    C2S12627   6.392   4.962   6.687  0.3983  0.0081  0.6519
  120OSM    H2S12628   6.291   4.950   6.732  0.8931 -0.1466  1.7444
  120OSM    C3S12629   6.505   4.875   6.748  0.7823  0.0391 -0.1122
  120OSM    H3S12630   6.601   4.908   6.703 -0.5394  3.6372 -0.6808
  120OSM     O312631   6.509   4.742   6.716 -0.1175 -0.4122  0.3645
  120OSM    HO312632   6.437   4.736   6.652 -0.0221  1.8141 -0.0414
  120OSM    C4S12633   6.502   4.891   6.898  0.5405 -0.5796 -0.3393
  120OSM    H4S12634   6.409   4.860   6.948 -0.7258  0.8640 -1.6530
  120OSM    C5S12635   6.611   4.939   6.962  0.3061 -1.3028  0.0259
  120OSM    H5S12636   6.693   4.971   6.896 -1.3414 -0.3111 -1.6381
  120OSM    C6S12637   6.633   4.960   7.111 -0.3051 -0.4327  0.1382
  120OSM    H6S12638   6.598   5.063   7.136  0.4280 -0.1747  0.1148
  120OSM    H6T12639   6.741   4.957   7.133 -0.4041 -0.7138  0.5857
  120OSM    C7S12640   6.569   4.858   7.202  0.3418  0.0701 -0.8092
  120OSM    H7S12641   6.608   4.756   7.182  1.4987  0.1695  0.7646
  120OSM    H7T12642   6.461   4.871   7.176  0.9081  2.6939 -2.2005
  120OSM    C8S12643   6.592   4.893   7.349  0.3045  0.2242  0.2421
  120OSM    H8S12644   6.575   5.000   7.370 -0.7911  0.1218 -0.0410
  120OSM    H8T12645   6.701   4.884   7.366  0.5589  0.7280 -1.0650
  120OSM    C9S12646   6.522   4.796   7.449  0.3146 -0.2438 -0.0646
  120OSM    H9S12647   6.556   4.695   7.418  0.0177 -0.3611 -0.0086
  120OSM    H9T12648   6.415   4.812   7.423  0.5860 -0.2204 -1.2159
  120OSM   C10S12649   6.549   4.818   7.597  0.7186  0.9143  0.0454
  120OSM   H10S12650   6.568   4.923   7.628 -1.7083  1.2113  0.6958
  120OSM   H10T12651   6.644   4.770   7.627 -0.8326 -0.8872  2.4097
  120OSM   C11S12652   6.436   4.753   7.685 -0.1604 -0.2070  1.3060
  120OSM   H11S12653   6.414   4.649   7.651 -2.3744  0.2153  1.3021
  120OSM   H11T12654   6.348   4.820   7.676  0.2646  0.1329 -0.7163
  120OSM   C12S12655   6.487   4.747   7.826  0.3521  0.3352 -0.3871
  120OSM   H12S12656   6.594   4.773   7.837  0.5934 -1.4616  2.9450
  120OSM   H12T12657   6.465   4.643   7.858  1.0425  0.4693  0.5427
  120OSM   C13S12658   6.397   4.833   7.921  0.1992  0.3169 -0.9229
  120OSM   H13S12659   6.287   4.829   7.904  0.3426  1.6927 -2.4107
  120OSM   H13T12660   6.424   4.940   7.907 -0.1463  0.6507  0.7169
  120OSM   C14S12661   6.413   4.788   8.066  0.6473 -0.5903 -0.5801
  120OSM   H14S12662   6.372   4.687   8.090 -1.1975  0.1598 -0.3805
  120OSM   H14T12663   6.346   4.848   8.132  1.4348 -2.5762  2.2136
  120OSM   C15S12664   6.557   4.806   8.126 -0.7309 -0.2949 -0.0682
  120OSM   H15S12665   6.573   4.915   8.111  1.0478 -0.8909 -3.3275
  120OSM   H15T12666   6.626   4.750   8.059  0.9604 -0.8515  2.0438
  120OSM   C16S12667   6.565   4.756   8.268 -0.1216  0.8570  0.0799
  120OSM   H16S12668   6.541   4.647   8.266  1.1171  0.5560 -2.5365
  120OSM   H16T12669   6.487   4.809   8.326 -1.3812 -0.7916 -0.0401
  120OSM   C17S12670   6.705   4.769   8.330  0.9698  0.9621 -0.1470
  120OSM   H17S12671   6.757   4.865   8.309  1.7116  0.3668 -1.1501
  120OSM   H17T12672   6.774   4.690   8.293  1.0679  1.7369 -1.7008
  120OSM   C18S12673   6.701   4.749   8.482  0.1643  0.1064  0.3074
  120OSM   H18S12674   6.800   4.777   8.525  0.1484  0.2472  0.2536
  120OSM   H18T12675   6.670   4.647   8.513 -0.1410  0.8980  2.8724
  120OSM   H18U12676   6.629   4.822   8.525  0.1587  0.5600 -0.4496
  120OSM    C1F12677   6.349   5.204   6.702  0.3417 -0.2368 -0.1332
  120OSM     OF12678   6.237   5.198   6.657  0.5135 -0.2535  0.3461
  120OSM    C2F12679   6.401   5.336   6.741  0.8336 -0.4939  0.2928
  120OSM    H2F12680   6.354   5.413   6.676  0.4460 -0.3796  0.7048
  120OSM    H2G12681   6.512   5.331   6.732  1.0555  0.9946  1.7532
  120OSM    C3F12682   6.362   5.372   6.886 -0.0298  0.4467  0.3856
  120OSM    H3F12683   6.251   5.375   6.882 -0.1229 -1.6083  0.1837
  120OSM    H3G12684   6.400   5.474   6.908  0.3884  0.5431 -0.7065
  120OSM    C4F12685   6.424   5.284   7.000 -0.4498 -0.4866  0.0767
  120OSM    H4F12686   6.492   5.334   7.072  0.0723 -1.9613  0.6514
  120OSM    H4G12687   6.488   5.219   6.936  0.9465 -0.9239  1.8466
  120OSM    C5F12688   6.332   5.194   7.083 -0.4849 -0.3287 -0.4640
  120OSM    H5F12689   6.379   5.112   7.139 -2.4777 -1.1852  0.0351
  120OSM    H5G12690   6.261   5.147   7.011 -1.0336 -0.1029 -0.0813
  120OSM    C6F12691   6.261   5.271   7.195  0.4851  0.1119 -0.0088
  120OSM    H6F12692   6.205   5.349   7.139 -1.8094 -1.3073  0.2128
  120OSM    H6G12693   6.338   5.325   7.255  1.4871 -0.1410 -1.0291
  120OSM    C7F12694   6.160   5.185   7.274  0.5335 -0.3202 -0.5486
  120OSM    H7F12695   6.175   5.075   7.269 -3.5876 -1.0231 -0.9071
  120OSM    H7G12696   6.059   5.200   7.232 -0.0576  0.3740  1.0596
  120OSM    C8F12697   6.148   5.222   7.430 -0.7545  0.2069 -0.5081
  120OSM    H8F12698   6.062   5.161   7.464 -0.0324 -0.6765 -0.2012
  120OSM    H8G12699   6.133   5.330   7.448  1.9201  0.3023  1.9639
  120OSM    C9F12700   6.272   5.167   7.501 -0.3718  0.0821  0.1769
  120OSM    H9F12701   6.368   5.146   7.452  0.7856  2.2025  1.3767
  120OSM   C10F12702   6.272   5.135   7.633  0.1768 -0.2837  0.2209
  120OSM   H10F12703   6.367   5.111   7.684  1.1159  4.0550  0.9894
  120OSM   C11F12704   6.150   5.139   7.720 -0.6796 -0.1797  0.6238
  120OSM   H11F12705   6.140   5.032   7.749 -0.0470 -0.5881 -0.6160
  120OSM   H11G12706   6.055   5.166   7.668 -1.4352 -0.2723  1.9125
  120OSM   C12F12707   6.151   5.242   7.840  0.5498  0.0916 -0.0504
  120OSM   H12F12708   6.049   5.234   7.883 -0.1387 -0.2773 -1.6494
  120OSM   H12G12709   6.163   5.349   7.811 -2.8319  0.2249 -1.4557
  120OSM   C13F12710   6.267   5.217   7.941  0.1131  0.7026  0.0638
  120OSM   H13F12711   6.355   5.243   7.879  1.1418  0.0574  1.1971
  120OSM   H13G12712   6.262   5.111   7.975  0.0693  0.7549  0.2219
  120OSM   C14F12713   6.242   5.293   8.078  0.5581  0.1378  0.1531
  120OSM   H14F12714   6.137   5.277   8.111  0.0718  0.8266 -0.9907
  120OSM   H14G12715   6.260   5.401   8.057 -3.3400  0.8076 -0.5401
  120OSM   C15F12716   6.337   5.274   8.202 -0.1094  0.0015 -0.2600
  120OSM   H15F12717   6.433   5.322   8.174 -0.9259  2.2253  0.6139
  120OSM   H15G12718   6.358   5.166   8.223  1.1761  0.5780  1.6585
  120OSM   C16F12719   6.296   5.340   8.330  0.1602 -0.0700  0.2273
  120OSM   H16F12720   6.196   5.302   8.361  0.4389 -0.7208  0.3587
  120OSM   H16G12721   6.274   5.446   8.305 -0.2473 -0.5106 -1.4073
  120OSM   C17F12722   6.401   5.345   8.442 -0.8169 -0.8296 -0.1113
  120OSM   H17F12723   6.480   5.411   8.399 -0.9172  0.6621  1.8502
  120OSM   H17G12724   6.449   5.250   8.471 -1.5614 -1.4235 -0.7999
  120OSM   C18F12725   6.347   5.424   8.565  0.1005  0.3642  0.4264
  120OSM   H18F12726   6.411   5.401   8.653 -0.2850  1.6081  1.0585
  120OSM   H18G12727   6.243   5.393   8.586  0.2283  0.7794  1.7877
  120OSM   H18H12728   6.350   5.534   8.547  0.2720  0.3218  0.1867
  121OSM      N12729   3.171   1.680   6.532 -0.2842  0.0697 -0.0471
  121OSM    C1512730   3.237   1.592   6.631  0.0403  0.3012 -0.2921
  121OSM   H15A12731   3.339   1.626   6.641  0.8429 -1.8103 -0.6590
  121OSM   H15B12732   3.243   1.487   6.604  0.3399 -0.4864  2.5290
  121OSM   H15C12733   3.187   1.599   6.726 -0.0624 -1.7371 -0.1578
  121OSM    C1412734   3.211   1.646   6.390  0.3789  0.2443  0.3085
  121OSM   H14A12735   3.165   1.715   6.321  0.4169  0.4141  0.4532
  121OSM   H14B12736   3.181   1.546   6.360 -2.0539  1.4473 -1.6836
  121OSM   H14C12737   3.318   1.642   6.378  0.2346 -0.1052 -1.0709
  121OSM    C1312738   3.019   1.673   6.549  0.1919 -0.0553  0.0059
  121OSM   H13A12739   2.986   1.701   6.648 -4.1255 -2.6879 -0.4352
  121OSM   H13B12740   2.978   1.576   6.528  0.9708 -0.0852 -1.5550
  121OSM   H13C12741   2.970   1.743   6.483  0.4897 -1.8831 -2.3144
  121OSM    C1212742   3.224   1.819   6.555  0.5522 -1.0369 -0.1779
  121OSM   H12A12743   3.331   1.824   6.536  0.3692  0.2690 -1.0100
  121OSM   H12B12744   3.207   1.849   6.657 -0.8841  1.0278 -0.9600
  121OSM    C1112745   3.166   1.929   6.467  0.0375  0.8590  0.3417
  121OSM   H11A12746   3.202   1.903   6.366  1.6294 -1.6125  1.4399
  121OSM   H11B12747   3.222   2.020   6.496 -0.1257  2.7470 -4.4642
  121OSM      P12748   2.922   1.980   6.363 -0.1173 -0.3221  0.1629
  121OSM    O1312749   2.958   2.110   6.297 -0.0733 -0.3318 -0.0984
  121OSM    O1412750   2.918   1.856   6.280  0.1834 -0.0076  0.0434
  121OSM    O1112751   2.790   2.009   6.440  0.4330  0.4190 -0.5505
  121OSM    O1212752   3.024   1.944   6.484 -0.3130  0.2126  0.8320
  121OSM    C1S12753   2.742   1.915   6.536 -0.4647 -0.4295  0.3781
  121OSM    H1S12754   2.804   1.927   6.628  1.0518 -0.3015 -0.6254
  121OSM    H1T12755   2.759   1.810   6.505 -0.8489 -1.6602  3.9097
  121OSM     NF12756   2.577   1.837   6.695  0.4762 -0.3784  0.0771
  121OSM    HNF12757   2.543   1.745   6.674  1.0144 -0.9035  1.4064
  121OSM    C2S12758   2.595   1.931   6.585 -0.3640 -0.1072 -0.7261
  121OSM    H2S12759   2.579   2.031   6.631 -2.1419 -1.3623  1.5714
  121OSM    C3S12760   2.503   1.914   6.465 -0.1439 -0.0289 -0.1381
  121OSM    H3S12761   2.507   1.811   6.424 -4.1968 -2.1553  3.8712
  121OSM     O312762   2.527   2.000   6.353  0.0263  0.1755  0.3333
  121OSM    HO312763   2.613   2.036   6.372  2.2346 -2.9753 -2.4536
  121OSM    C4S12764   2.361   1.938   6.515 -0.1217 -0.1494  0.1057
  121OSM    H4S12765   2.311   1.851   6.559  0.5660  0.5496  2.4399
  121OSM    C5S12766   2.291   2.055   6.502  0.1075  0.2007  0.0449
  121OSM    H5S12767   2.349   2.137   6.457  1.4069 -0.8953 -0.3346
  121OSM    C6S12768   2.149   2.076   6.539 -0.3827  0.2934  0.0273
  121OSM    H6S12769   2.092   1.989   6.500 -0.4912  1.2966 -2.2257
  121OSM    H6T12770   2.111   2.164   6.483 -1.4773  0.8735  1.5889
  121OSM    C7S12771   2.114   2.112   6.686  0.4610 -0.2436 -0.5148
  121OSM    H7S12772   2.004   2.127   6.696  0.3770  1.0727 -2.6819
  121OSM    H7T12773   2.162   2.211   6.704 -0.2549  0.5141 -2.4770
  121OSM    C8S12774   2.170   2.015   6.784 -0.4148  0.1697  0.1156
  121OSM    H8S12775   2.279   2.026   6.768 -0.2054  0.2316  1.5265
  121OSM    H8T12776   2.127   1.915   6.761 -0.0960  0.0252  0.1450
  121OSM    C9S12777   2.134   2.062   6.930 -0.2817  0.4520  0.6215
  121OSM    H9S12778   2.023   2.069   6.920 -0.2486 -0.4600 -0.8107
  121OSM    H9T12779   2.168   2.166   6.946 -0.6912  0.6361  0.3317
  121OSM   C10S12780   2.173   1.956   7.034  0.3769  0.1693 -0.0733
  121OSM   H10S12781   2.283   1.940   7.034  0.8682  3.0423 -0.7593
  121OSM   H10T12782   2.121   1.859   7.017 -1.0615  0.5276  1.9759
  121OSM   C11S12783   2.131   1.992   7.183  0.3683 -0.2511  1.0256
  121OSM   H11S12784   2.023   2.017   7.185  0.5160  0.3970  1.1900
  121OSM   H11T12785   2.169   2.088   7.224 -2.1765  0.5393  1.7326
  121OSM   C12S12786   2.163   1.881   7.280  0.5844 -0.0292 -0.0393
  121OSM   H12S12787   2.271   1.857   7.288  0.7937  0.8183 -0.2770
  121OSM   H12T12788   2.117   1.785   7.248  2.5600 -1.0327 -0.0405
  121OSM   C13S12789   2.120   1.918   7.419 -0.4432  0.1091 -0.6077
  121OSM   H13S12790   2.012   1.893   7.433 -0.0965 -1.4339 -0.4484
  121OSM   H13T12791   2.153   2.019   7.448  3.3120 -0.7699 -1.3401
  121OSM   C14S12792   2.208   1.832   7.511  0.4108  0.0301 -0.2271
  121OSM   H14S12793   2.311   1.876   7.510  0.3103  0.2899  0.3033
  121OSM   H14T12794   2.204   1.731   7.465 -1.5553 -0.5687  1.1234
  121OSM   C15S12795   2.158   1.820   7.656  0.0324  0.5637  0.5877
  121OSM   H15S12796   2.095   1.729   7.668  1.3907 -0.3074  1.4107
  121OSM   H15T12797   2.098   1.904   7.698  0.1343  0.0069  1.8929
  121OSM   C16S12798   2.279   1.797   7.756  0.1024 -0.4825 -0.5328
  121OSM   H16S12799   2.345   1.886   7.767  1.7482 -1.3410 -2.7077
  121OSM   H16T12800   2.345   1.724   7.704 -0.9162 -1.8519  0.0445
  121OSM   C17S12801   2.227   1.769   7.900  0.2878  0.1817 -0.4455
  121OSM   H17S12802   2.192   1.663   7.893 -2.4860  0.7825  2.3710
  121OSM   H17T12803   2.139   1.831   7.926  0.1679 -0.6421  1.2389
  121OSM   C18S12804   2.327   1.783   8.011  0.1498  0.6526  0.6862
  121OSM   H18S12805   2.429   1.743   7.995 -0.5528 -1.1919  0.5233
  121OSM   H18T12806   2.294   1.726   8.100  1.5342  1.9361  2.0609
  121OSM   H18U12807   2.335   1.891   8.031  0.3169  0.3735  2.2391
  121OSM    C1F12808   2.619   1.855   6.816 -0.3458 -0.2186 -0.1318
  121OSM     OF12809   2.664   1.963   6.849  0.0869 -0.2573  0.4448
  121OSM    C2F12810   2.614   1.737   6.909 -0.1720  0.6220 -0.5302
  121OSM    H2F12811   2.696   1.668   6.877  1.4207  1.5826  1.2487
  121OSM    H2G12812   2.515   1.688   6.901 -0.8029  1.8725 -0.5449
  121OSM    C3F12813   2.645   1.773   7.055 -0.3410  0.0322  0.4424
  121OSM    H3F12814   2.577   1.850   7.096 -0.3096  1.4513 -1.9945
  121OSM    H3G12815   2.745   1.822   7.053 -0.0767 -0.4942 -0.8303
  121OSM    C4F12816   2.643   1.649   7.148 -0.8145 -0.7897 -0.0538
  121OSM    H4F12817   2.715   1.571   7.117  0.5584 -0.5359  2.2729
  121OSM    H4G12818   2.537   1.615   7.156 -1.7655  1.6079 -1.3644
  121OSM    C5F12819   2.677   1.695   7.292  0.1309  0.0496  0.7317
  121OSM    H5F12820   2.604   1.771   7.327  0.9844  0.4397  1.7035
  121OSM    H5G12821   2.777   1.742   7.296  0.7231 -1.1504  0.1306
  121OSM    C6F12822   2.683   1.576   7.396 -0.7692  0.0906  0.0917
  121OSM    H6F12823   2.763   1.508   7.361  0.8153  1.0800  1.6108
  121OSM    H6G12824   2.585   1.525   7.406 -1.4768  0.6270 -3.0473
  121OSM    C7F12825   2.731   1.639   7.534 -0.4517  0.0688  0.8447
  121OSM    H7F12826   2.645   1.664   7.600 -0.1625 -0.5230  1.4489
  121OSM    H7G12827   2.790   1.733   7.522  0.5530 -0.4862  1.3641
  121OSM    C8F12828   2.819   1.538   7.616  0.1316 -0.2315  0.7963
  121OSM    H8F12829   2.874   1.593   7.695  0.5692  0.8792 -0.2407
  121OSM    H8G12830   2.905   1.508   7.552 -0.4962  2.3353 -1.4721
  121OSM    C9F12831   2.726   1.426   7.679 -0.4363 -0.2129  1.0007
  121OSM    H9F12832   2.705   1.346   7.606  0.7094 -1.4407  1.9749
  121OSM   C10F12833   2.679   1.423   7.799  0.0193  0.0359 -0.3462
  121OSM   H10F12834   2.621   1.334   7.825 -0.4027  0.7500  1.3032
  121OSM   C11F12835   2.695   1.529   7.909  0.1251  0.1616  0.7008
  121OSM   H11F12836   2.636   1.619   7.881 -0.0349 -0.0714  0.2807
  121OSM   H11G12837   2.800   1.564   7.903 -0.0069  0.4919  0.3307
  121OSM   C12F12838   2.660   1.462   8.049  0.2995  0.6821 -0.5395
  121OSM   H12F12839   2.550   1.468   8.065  0.6682 -1.2918  4.5031
  121OSM   H12G12840   2.697   1.529   8.130  1.4663 -0.9909  0.3743
  121OSM   C13F12841   2.730   1.331   8.077 -0.1017  0.4962 -0.6470
  121OSM   H13F12842   2.839   1.351   8.074  0.0800 -0.4595 -1.0226
  121OSM   H13G12843   2.705   1.253   8.002 -1.2017 -0.4739  0.6698
  121OSM   C14F12844   2.697   1.275   8.224 -0.8436 -0.2104  0.2067
  121OSM   H14F12845   2.586   1.264   8.225 -0.9612  0.8433  0.3003
  121OSM   H14G12846   2.730   1.342   8.307  1.5278 -0.7314 -0.2440
  121OSM   C15F12847   2.767   1.139   8.257 -0.1011 -0.6646 -0.0621
  121OSM   H15F12848   2.876   1.161   8.257 -0.3120  0.4715 -1.0164
  121OSM   H15G12849   2.751   1.061   8.180  1.4417 -1.4210  0.3461
  121OSM   C16F12850   2.728   1.065   8.386 -0.2928 -0.7710  0.6216
  121OSM   H16F12851   2.793   0.978   8.407 -1.6904 -1.4385  2.4489
  121OSM   H16G12852   2.632   1.019   8.355 -1.0305 -1.1324  3.2188
  121OSM   C17F12853   2.719   1.142   8.519 -0.1651  0.4125  0.3350
  121OSM   H17F12854   2.639   1.218   8.527 -0.9593 -0.5757  2.0791
  121OSM   H17G12855   2.815   1.198   8.527  1.4155 -1.6565 -2.3427
  121OSM   C18F12856   2.716   1.051   8.638  0.6250  0.1921 -0.6096
  121OSM   H18F12857   2.629   0.984   8.620  0.7785  0.0740 -0.9115
  121OSM   H18G12858   2.694   1.103   8.733  1.5763  1.3959 -1.0241
  121OSM   H18H12859   2.809   0.995   8.660  1.1587  1.6124  0.9447
  122OSM      N12860   0.173   3.138   6.400  0.3840  0.6549 -0.5124
  122OSM    C1512861   0.130   3.162   6.542  0.4077 -0.4575  0.3048
  122OSM   H15A12862   0.154   3.266   6.555 -0.6431 -0.3106  1.1465
  122OSM   H15B12863   0.185   3.098   6.609 -1.0207 -0.3212  1.6524
  122OSM   H15C12864   0.027   3.136   6.559  0.8383 -2.8455 -0.3533
  122OSM    C1412865   0.117   3.242   6.319  0.4293  0.2589 -0.1194
  122OSM   H14A12866   0.011   3.232   6.305 -0.1173  2.4307  1.8780
  122OSM   H14B12867   0.170   3.248   6.225 -1.4318 -1.7553 -1.3728
  122OSM   H14C12868   0.140   3.341   6.355  1.1441  0.2796 -0.6082
  122OSM    C1312869   0.326   3.139   6.391  0.6471 -0.0916 -0.6226
  122OSM   H13A12870   0.372   3.234   6.412 -1.0155  0.0376  3.2241
  122OSM   H13B12871   0.351   3.106   6.291  0.5885  2.6682 -1.6246
  122OSM   H13C12872   0.366   3.065   6.458  0.5923  1.3212  1.0337
  122OSM    C1212873   0.119   3.000   6.363 -0.0908 -0.8201 -0.1427
  122OSM   H12A12874   0.016   2.995   6.395 -0.2782  2.4490  0.0798
  122OSM   H12B12875   0.175   2.930   6.424  2.1252 -0.0383 -1.1838
  122OSM    C1112876   0.123   2.962   6.209 -0.7160  0.2313 -0.2080
  122OSM   H11A12877   0.228   2.989   6.184 -0.2845 -1.6035 -0.5141
  122OSM   H11B12878   0.054   3.027   6.151 -1.1050 -0.4270 -0.4845
  122OSM      P12879  -0.056   2.765   6.221  0.5661 -0.1208  0.3388
  122OSM    O1312880  -0.155   2.876   6.196 -0.6075  0.1394 -0.3768
  122OSM    O1412881  -0.079   2.635   6.145  0.5151 -0.2107  0.3710
  122OSM    O1112882  -0.049   2.736   6.375 -0.3225 -0.6227 -0.0964
  122OSM    O1212883   0.095   2.818   6.191  0.3954  0.1756  0.4745
  122OSM    C1S12884   0.050   2.647   6.424 -0.5696 -0.9462  0.0626
  122OSM    H1S12885   0.143   2.709   6.416 -1.2760  0.0450 -0.6785
  122OSM    H1T12886   0.071   2.558   6.361  0.2665  0.3057 -1.5075
  122OSM     NF12887   0.148   2.553   6.612 -0.0654  0.7756 -1.0213
  122OSM    HNF12888   0.164   2.455   6.622 -0.2714  0.8334 -0.0397
  122OSM    C2S12889   0.024   2.604   6.568  0.7469 -0.0362  0.0079
  122OSM    H2S12890  -0.000   2.689   6.635  1.1933 -0.1913  0.3699
  122OSM    C3S12891  -0.094   2.499   6.577  0.0515 -0.3160 -0.1786
  122OSM    H3S12892  -0.062   2.412   6.515 -0.0666 -0.2560 -0.3226
  122OSM     O312893  -0.222   2.544   6.524 -0.2531  0.0956 -0.1345
  122OSM    HO312894  -0.204   2.636   6.503  0.1301 -0.3741 -2.0735
  122OSM    C4S12895  -0.106   2.446   6.717  0.3026  0.5786 -0.6203
  122OSM    H4S12896  -0.040   2.361   6.740 -2.3264 -1.5447 -0.4739
  122OSM    C5S12897  -0.205   2.478   6.805  0.4813 -0.3798  0.3169
  122OSM    H5S12898  -0.274   2.561   6.781  1.6220  1.0380  1.7171
  122OSM    C6S12899  -0.227   2.424   6.948 -0.0400 -0.2280 -0.6134
  122OSM    H6S12900  -0.335   2.403   6.964 -0.6671  2.8588 -0.1773
  122OSM    H6T12901  -0.205   2.495   7.031  0.3406 -0.3201 -0.6343
  122OSM    C7S12902  -0.134   2.304   6.981  0.7253 -0.0534 -0.1057
  122OSM    H7S12903  -0.032   2.348   6.978  0.8891 -0.3052  1.1286
  122OSM    H7T12904  -0.174   2.228   6.910 -0.7088  0.0825  0.5210
  122OSM    C8S12905  -0.154   2.237   7.124  0.1444 -0.1390 -0.5147
  122OSM    H8S12906  -0.067   2.170   7.140 -0.5274 -0.7884  0.5213
  122OSM    H8T12907  -0.250   2.182   7.120 -0.3449  0.7332 -1.3488
  122OSM    C9S12908  -0.156   2.333   7.251 -0.3793 -0.1150  0.3007
  122OSM    H9S12909  -0.255   2.383   7.243 -0.3302 -0.0072  0.3608
  122OSM    H9T12910  -0.093   2.424   7.236 -1.8146  1.1750  1.7335
  122OSM   C10S12911  -0.131   2.260   7.377 -0.1369  0.5540 -0.1251
  122OSM   H10S12912  -0.039   2.200   7.370 -0.8694 -0.4902 -1.4455
  122OSM   H10T12913  -0.214   2.187   7.391 -0.1441  0.8860  1.7706
  122OSM   C11S12914  -0.119   2.358   7.501 -0.3583  0.5384  0.2787
  122OSM   H11S12915  -0.202   2.429   7.485  1.3274  2.5324 -0.0599
  122OSM   H11T12916  -0.022   2.410   7.482  1.1151 -0.2094  4.6467
  122OSM   C12S12917  -0.107   2.290   7.637  0.1708  0.1774  1.3967
  122OSM   H12S12918  -0.034   2.207   7.645  0.4360  0.2582  0.0497
  122OSM   H12T12919  -0.205   2.242   7.659 -0.6214  1.4418  0.7257
  122OSM   C13S12920  -0.079   2.391   7.754  0.0441 -0.1572  0.1768
  122OSM   H13S12921  -0.164   2.461   7.769 -0.1465  0.0380 -1.6738
  122OSM   H13T12922   0.011   2.449   7.725  1.1806 -0.9812  1.8470
  122OSM   C14S12923  -0.040   2.324   7.885  0.0408 -0.4281  0.1802
  122OSM   H14S12924   0.002   2.223   7.872 -1.1533 -1.1686  1.7681
  122OSM   H14T12925  -0.135   2.308   7.941 -0.0850  0.1493  0.1478
  122OSM   C15S12926   0.034   2.413   7.990  0.3118  0.7755  0.0720
  122OSM   H15S12927   0.132   2.455   7.958  0.2890 -0.1170 -1.2874
  122OSM   H15T12928   0.057   2.352   8.080  0.8058  0.3937 -0.3005
  122OSM   C16S12929  -0.053   2.531   8.040 -0.1021 -0.3245 -0.1384
  122OSM   H16S12930  -0.124   2.568   7.963 -1.5209  0.1473  1.3498
  122OSM   H16T12931   0.007   2.619   8.072 -2.9208  2.4152 -1.8429
  122OSM   C17S12932  -0.148   2.486   8.147  0.0718  0.2404  0.3802
  122OSM   H17S12933  -0.082   2.443   8.226  0.2716 -1.9590 -0.9214
  122OSM   H17T12934  -0.217   2.405   8.115  2.4132 -3.1010  2.9981
  122OSM   C18S12935  -0.240   2.601   8.197  0.2543 -0.0523 -0.3299
  122OSM   H18S12936  -0.294   2.645   8.110 -0.6264  0.2986  0.3822
  122OSM   H18T12937  -0.169   2.675   8.239  0.6861 -0.0235 -1.0910
  122OSM   H18U12938  -0.316   2.556   8.264  2.0092 -1.6121  0.7060
  122OSM    C1F12939   0.251   2.633   6.640 -0.5954  0.1272  0.4553
  122OSM     OF12940   0.233   2.753   6.632 -0.2298  0.3660  0.0713
  122OSM    C2F12941   0.388   2.573   6.648  1.0811 -0.0560  1.2836
  122OSM    H2F12942   0.434   2.578   6.548 -1.1615  2.2944  0.2516
  122OSM    H2G12943   0.382   2.463   6.668  1.3941 -0.2298  0.4394
  122OSM    C3F12944   0.476   2.636   6.757 -0.6306  0.2022  0.0502
  122OSM    H3F12945   0.429   2.620   6.856  3.6315 -0.1266  2.2749
  122OSM    H3G12946   0.485   2.746   6.747 -0.0730  0.1023 -0.6139
  122OSM    C4F12947   0.614   2.571   6.758  0.0529  0.6067 -0.0528
  122OSM    H4F12948   0.659   2.599   6.660 -3.6579  1.2366 -1.7441
  122OSM    H4G12949   0.601   2.461   6.750  0.4958  0.4148  1.4956
  122OSM    C5F12950   0.709   2.608   6.870 -0.2021 -0.1451 -0.1594
  122OSM    H5F12951   0.719   2.718   6.873 -0.4960 -0.1378  0.9949
  122OSM    H5G12952   0.808   2.564   6.846  0.2971  0.5003  0.6876
  122OSM    C6F12953   0.663   2.566   7.010  0.1701  0.3501  0.2412
  122OSM    H6F12954   0.671   2.457   7.026 -0.9373  0.1542 -0.4574
  122OSM    H6G12955   0.559   2.601   7.028  0.4346  1.7527 -0.7967
  122OSM    C7F12956   0.736   2.642   7.109  0.5318  0.5774  0.6603
  122OSM    H7F12957   0.722   2.750   7.085  0.7302  0.5110  0.2415
  122OSM    H7G12958   0.845   2.628   7.092  0.6208 -1.4918  2.4711
  122OSM    C8F12959   0.701   2.603   7.251 -0.4660  0.1533  0.4678
  122OSM    H8F12960   0.591   2.604   7.265 -0.2450 -0.5646  2.6549
  122OSM    H8G12961   0.736   2.685   7.318  1.0667 -0.2078  0.1560
  122OSM    C9F12962   0.740   2.459   7.289 -0.0744 -0.3084  0.6423
  122OSM    H9F12963   0.747   2.391   7.203  0.7087  0.2244  0.2677
  122OSM   C10F12964   0.785   2.427   7.412  0.0493  0.1028  0.7382
  122OSM   H10F12965   0.806   2.323   7.439  0.5385 -0.0188 -0.1080
  122OSM   C11F12966   0.808   2.524   7.530  0.7235  0.3685 -0.1714
  122OSM   H11F12967   0.750   2.618   7.517 -2.3418 -1.1819  1.0944
  122OSM   H11G12968   0.917   2.547   7.529  1.0849 -1.1503  0.4994
  122OSM   C12F12969   0.763   2.460   7.661  0.3524  0.2269  0.2954
  122OSM   H12F12970   0.821   2.366   7.675  0.2754  0.2211  0.5826
  122OSM   H12G12971   0.654   2.437   7.659  0.0557  1.4803  0.9680
  122OSM   C13F12972   0.775   2.553   7.785 -0.0211  0.6299  0.4027
  122OSM   H13F12973   0.708   2.640   7.765 -1.0973 -0.5266 -1.3759
  122OSM   H13G12974   0.878   2.591   7.801 -0.8069  1.4654  4.7440
  122OSM   C14F12975   0.735   2.481   7.913 -0.5736  0.1346 -0.3455
  122OSM   H14F12976   0.814   2.405   7.932  0.2718  1.2803  0.9726
  122OSM   H14G12977   0.634   2.437   7.906 -0.4400 -0.6273  1.7279
  122OSM   C15F12978   0.749   2.583   8.034 -0.2214  0.2879  0.0310
  122OSM   H15F12979   0.663   2.652   8.021  0.0550  0.3764 -1.5611
  122OSM   H15G12980   0.839   2.647   8.026 -0.8675  1.2997  0.6098
  122OSM   C16F12981   0.747   2.513   8.169  0.5847 -0.1029 -0.3491
  122OSM   H16F12982   0.808   2.423   8.145  0.8465  0.5229 -2.2650
  122OSM   H16G12983   0.645   2.477   8.195  0.7948 -0.8793 -0.5610
  122OSM   C17F12984   0.813   2.591   8.280  0.3057 -0.0541 -0.0735
  122OSM   H17F12985   0.756   2.678   8.318 -1.0098 -1.2750  0.8571
  122OSM   H17G12986   0.909   2.635   8.247 -0.4103  0.6645 -1.2664
  122OSM   C18F12987   0.843   2.517   8.405 -0.0917  0.5068 -0.2237
  122OSM   H18F12988   0.911   2.571   8.474  1.3885 -1.4778 -0.0320
  122OSM   H18G12989   0.887   2.418   8.383  1.3714  1.8374 -3.9788
  122OSM   H18H12990   0.753   2.526   8.471 -0.0326 -1.5346  0.2135
  123OSM      N12991   3.357   4.071   6.472  0.0851  0.1666  0.4587
  123OSM    C1512992   3.254   3.964   6.507  0.2583 -0.4421  0.5709
  123OSM   H15A12993   3.288   3.891   6.579 -0.8887 -0.8499  0.7181
  123OSM   H15B12994   3.238   3.903   6.419  0.6723 -0.8839  0.7937
  123OSM   H15C12995   3.159   4.006   6.534  0.5032  1.6100 -1.4560
  123OSM    C1412996   3.462   3.997   6.396  0.0923  0.7951  0.1228
  123OSM   H14A12997   3.435   3.946   6.305 -1.6095 -2.9464  2.4802
  123OSM   H14B12998   3.501   3.923   6.464  1.0291  2.0405  0.9838
  123OSM   H14C12999   3.554   4.052   6.380 -0.5411  1.5862 -0.9740
  123OSM    C1313000   3.292   4.176   6.388  0.1653 -0.4769  0.2218
  123OSM   H13A13001   3.350   4.267   6.389  0.9233 -0.9312 -1.0896
  123OSM   H13B13002   3.193   4.199   6.427  0.5794 -0.5957  1.3981
  123OSM   H13C13003   3.279   4.150   6.284  1.8176 -0.8442  0.0806
  123OSM    C1213004   3.416   4.128   6.600  0.1701 -0.2314 -0.5207
  123OSM   H12A13005   3.470   4.043   6.641 -0.4023 -0.5799 -0.4773
  123OSM   H12B13006   3.341   4.154   6.673  1.6340 -1.0000  1.3486
  123OSM    C1113007   3.509   4.247   6.574  1.0636  0.3444 -0.2992
  123OSM   H11A13008   3.525   4.308   6.666  1.4303  0.3288 -0.3520
  123OSM   H11B13009   3.459   4.319   6.506  0.5750 -0.2951 -0.6269
  123OSM      P13010   3.769   4.208   6.603  0.1224 -0.0931 -0.0591
  123OSM    O1313011   3.843   4.085   6.564 -0.5588  0.1006 -0.0140
  123OSM    O1413012   3.832   4.340   6.593 -0.2431  0.0224 -0.0188
  123OSM    O1113013   3.715   4.190   6.753  0.2647  0.1425  0.5112
  123OSM    O1213014   3.631   4.211   6.520 -0.0564 -0.7445  0.3523
  123OSM    C1S13015   3.759   4.286   6.855 -0.2031  0.5174 -0.5587
  123OSM    H1S13016   3.744   4.387   6.813 -1.2960 -0.0894 -1.6905
  123OSM    H1T13017   3.864   4.260   6.881 -1.1820 -1.4861  1.8212
  123OSM     NF13018   3.713   4.365   7.081  0.5100  0.2689 -0.2949
  123OSM    HNF13019   3.787   4.364   7.147 -0.7021  2.0994  1.2365
  123OSM    C2S13020   3.680   4.265   6.982 -0.2916 -0.3481 -0.3876
  123OSM    H2S13021   3.571   4.281   6.970 -0.8306  1.0509  4.3658
  123OSM    C3S13022   3.703   4.122   7.028 -0.1926  0.7748 -0.1323
  123OSM    H3S13023   3.808   4.109   7.061 -0.7089 -1.0966  0.8806
  123OSM     O313024   3.693   4.017   6.927  0.3936  0.6041  0.0021
  123OSM    HO313025   3.700   4.066   6.844  1.4275  1.1081  0.3806
  123OSM    C4S13026   3.627   4.088   7.152 -0.3348 -0.0720 -0.0067
  123OSM    H4S13027   3.677   4.113   7.247 -0.4059 -1.8393  0.5297
  123OSM    C5S13028   3.518   4.007   7.164  0.0249 -0.1635 -0.0788
  123OSM    H5S13029   3.473   3.971   7.070  0.4441  0.8968 -0.7012
  123OSM    C6S13030   3.440   3.964   7.289  0.2281 -0.0114 -0.2238
  123OSM    H6S13031   3.396   3.863   7.273  0.1321 -0.3342  1.8339
  123OSM    H6T13032   3.356   4.035   7.304 -1.9373 -2.6268  1.1131
  123OSM    C7S13033   3.524   3.956   7.420 -0.3620  0.1295  0.3365
  123OSM    H7S13034   3.567   4.053   7.455  2.1796 -1.6678  2.7024
  123OSM    H7T13035   3.608   3.890   7.389 -2.4422 -2.8662  0.7281
  123OSM    C8S13036   3.445   3.893   7.543  0.4063  0.3003 -0.4062
  123OSM    H8S13037   3.419   3.787   7.521  1.8327 -0.0507 -0.5204
  123OSM    H8T13038   3.345   3.939   7.556  0.2622 -0.3188  0.8588
  123OSM    C9S13039   3.507   3.909   7.684 -0.3168  0.2485  0.5040
  123OSM    H9S13040   3.539   4.015   7.697  0.1104  0.2065 -0.1609
  123OSM    H9T13041   3.603   3.855   7.697 -0.4976  0.1424  1.4961
  123OSM   C10S13042   3.416   3.864   7.802 -0.3041 -0.1643 -0.1586
  123OSM   H10S13043   3.407   3.754   7.810  2.6215 -0.5884 -1.5491
  123OSM   H10T13044   3.310   3.897   7.803 -0.5995 -0.9177  2.6065
  123OSM   C11S13045   3.470   3.904   7.942  0.0464  0.3917 -0.5971
  123OSM   H11S13046   3.468   4.015   7.948 -2.0037  0.4968 -2.0620
  123OSM   H11T13047   3.572   3.875   7.972  0.0756  0.8529 -0.2389
  123OSM   C12S13048   3.376   3.860   8.062 -0.4424  0.2614  0.5048
  123OSM   H12S13049   3.413   3.757   8.080  1.4241  0.6647 -0.7591
  123OSM   H12T13050   3.272   3.843   8.027 -0.6166  0.2717  1.0050
  123OSM   C13S13051   3.382   3.952   8.184 -0.3985  0.6581 -0.0363
  123OSM   H13S13052   3.335   4.043   8.141  1.1937  0.0520 -3.3990
  123OSM   H13T13053   3.491   3.951   8.206 -0.2611 -2.4832 -0.4355
  123OSM   C14S13054   3.324   3.892   8.312  0.0413  0.6276  0.4460
  123OSM   H14S13055   3.381   3.800   8.338  0.9727  1.4390  1.3494
  123OSM   H14T13056   3.216   3.876   8.292 -0.0675  0.9505  0.7633
  123OSM   C15S13057   3.338   3.995   8.422 -0.2581 -0.1252 -0.4799
  123OSM   H15S13058   3.446   4.020   8.428 -0.3156 -0.0634  0.5497
  123OSM   H15T13059   3.305   3.948   8.517 -0.7157 -0.6528 -0.9003
  123OSM   C16S13060   3.251   4.128   8.404 -0.2859 -0.1978  0.1473
  123OSM   H16S13061   3.257   4.173   8.302 -1.5520  2.4747  1.1586
  123OSM   H16T13062   3.291   4.207   8.472  1.6191  1.0316 -2.2303
  123OSM   C17S13063   3.101   4.096   8.425  0.0648 -0.1182 -0.3552
  123OSM   H17S13064   3.093   4.031   8.516  5.3240  0.5658  0.9038
  123OSM   H17T13065   3.066   4.030   8.343  0.9473 -0.1002 -0.7533
  123OSM   C18S13066   3.006   4.216   8.451  0.6667 -0.1706  0.5649
  123OSM   H18S13067   3.042   4.274   8.539 -2.6960  1.5202  0.9662
  123OSM   H18T13068   2.896   4.211   8.462  0.8800  0.9231  4.4813
  123OSM   H18U13069   3.036   4.288   8.371 -0.6367 -1.8169 -1.5146
  123OSM    C1F13070   3.678   4.495   7.057 -0.5194 -0.1492  0.0713
  123OSM     OF13071   3.610   4.531   6.963  0.4699 -0.1740  0.2962
  123OSM    C2F13072   3.724   4.588   7.159  0.0793 -0.5025  0.6644
  123OSM    H2F13073   3.792   4.531   7.226  1.2676 -0.0359 -0.1049
  123OSM    H2G13074   3.637   4.624   7.219  0.3774  3.1436 -0.8010
  123OSM    C3F13075   3.807   4.705   7.105  0.4109  0.1033  0.5002
  123OSM    H3F13076   3.755   4.772   7.033 -0.5684 -0.0090  1.0877
  123OSM    H3G13077   3.899   4.670   7.052  1.5928 -1.0822  3.1248
  123OSM    C4F13078   3.862   4.798   7.216  0.4023 -0.3654 -0.4114
  123OSM    H4F13079   3.775   4.818   7.282  0.8434 -1.6098  0.5788
  123OSM    H4G13080   3.889   4.897   7.173 -0.4384 -0.2353 -0.6599
  123OSM    C5F13081   3.969   4.737   7.314  0.2884  0.0554  0.3102
  123OSM    H5F13082   4.067   4.738   7.263 -0.4174 -1.7534 -1.2196
  123OSM    H5G13083   3.955   4.628   7.331 -0.4433 -0.0748 -0.9544
  123OSM    C6F13084   3.965   4.822   7.445  0.2190  0.0686 -0.1218
  123OSM    H6F13085   4.040   4.773   7.510  1.1809 -1.4702 -2.2679
  123OSM    H6G13086   3.865   4.819   7.494  0.6132  0.3538  0.7128
  123OSM    C7F13087   4.012   4.964   7.427 -0.7914  0.7953 -0.4682
  123OSM    H7F13088   3.960   5.023   7.349 -0.6124  1.1995 -0.2859
  123OSM    H7G13089   4.118   4.966   7.392 -0.6660  1.2539 -0.0720
  123OSM    C8F13090   4.003   5.037   7.568  0.2031  0.4826 -0.1827
  123OSM    H8F13091   4.058   5.132   7.557 -0.5503  0.7505 -1.9973
  123OSM    H8G13092   4.049   4.972   7.645  0.0939  1.2913  0.5797
  123OSM    C9F13093   3.860   5.058   7.608  0.9717  0.6418 -0.5174
  123OSM    H9F13094   3.792   5.022   7.530  1.1278  1.1315 -0.8856
  123OSM   C10F13095   3.809   5.100   7.726  0.2815 -0.1974 -0.5145
  123OSM   H10F13096   3.700   5.102   7.742  0.4448  1.3933  0.6194
  123OSM   C11F13097   3.888   5.134   7.848 -0.1027 -0.0770 -0.5375
  123OSM   H11F13098   3.911   5.242   7.850 -0.1094 -0.0771 -0.4327
  123OSM   H11G13099   3.982   5.074   7.856  0.0399  0.2192  0.0627
  123OSM   C12F13100   3.818   5.092   7.982 -0.8481  0.1456  0.5842
  123OSM   H12F13101   3.773   4.990   7.979  0.3328 -0.3666 -0.7292
  123OSM   H12G13102   3.732   5.158   8.007  1.4616  3.3695  0.5733
  123OSM   C13F13103   3.923   5.097   8.102  0.2206 -0.1192 -0.2117
  123OSM   H13F13104   3.989   5.183   8.080 -1.3902  1.2840  0.2233
  123OSM   H13G13105   3.986   5.005   8.097  0.7894  0.2779 -0.3918
  123OSM   C14F13106   3.870   5.104   8.250 -0.1568 -0.1234  0.0424
  123OSM   H14F13107   3.949   5.124   8.326 -0.0843 -2.7089  0.7361
  123OSM   H14G13108   3.842   5.000   8.278 -0.1450  0.2716  1.6393
  123OSM   C15F13109   3.758   5.202   8.259 -1.1195  0.2835  0.1660
  123OSM   H15F13110   3.670   5.161   8.204 -0.4778 -1.0044  0.0725
  123OSM   H15G13111   3.776   5.298   8.205 -2.7115 -1.0496 -3.0110
  123OSM   C16F13112   3.729   5.227   8.406 -0.6724  0.0308 -0.5477
  123OSM   H16F13113   3.825   5.266   8.445 -0.6355  0.7871 -1.3708
  123OSM   H16G13114   3.708   5.144   8.477  1.6624  1.7474  2.3741
  123OSM   C17F13115   3.621   5.333   8.428 -0.6907 -0.5022 -0.2551
  123OSM   H17F13116   3.520   5.288   8.425 -0.3414 -1.2297 -1.3542
  123OSM   H17G13117   3.625   5.403   8.342 -0.4937 -1.8439 -1.3540
  123OSM   C18F13118   3.647   5.405   8.568  0.9420  0.6775  0.2100
  123OSM   H18F13119   3.749   5.449   8.573  1.2768  0.1997 -1.5949
  123OSM   H18G13120   3.628   5.330   8.648 -1.9355 -1.3448 -2.1371
  123OSM   H18H13121   3.569   5.484   8.571  0.9328  0.7031 -0.4691
  124OSM      N13122   5.951   0.331   6.425 -0.4169 -0.4683  0.8643
  124OSM    C1513123   5.833   0.274   6.495  0.4299  0.7638 -1.1541
  124OSM   H15A13124   5.765   0.343   6.542 -0.7801  0.4587 -2.4150
  124OSM   H15B13125   5.873   0.213   6.575 -0.0857 -0.7669 -2.0181
  124OSM   H15C13126   5.774   0.211   6.430  1.5119  1.4012 -2.8135
  124OSM    C1413127   6.038   0.230   6.364  0.0409  0.0417  0.5211
  124OSM   H14A13128   6.129   0.263   6.317  0.7804 -2.3282  0.1273
  124OSM   H14B13129   5.984   0.155   6.308 -0.1628  0.6786 -0.1438
  124OSM   H14C13130   6.082   0.176   6.447  1.5399  1.5463  0.7551
  124OSM    C1313131   5.895   0.409   6.310  0.3908  0.4397  0.0551
  124OSM   H13A13132   5.975   0.467   6.265  2.4124 -1.3280  1.1602
  124OSM   H13B13133   5.819   0.477   6.344  1.4337  1.3401  0.6628
  124OSM   H13C13134   5.842   0.354   6.233 -0.6129  2.0025 -0.4121
  124OSM    C1213135   6.027   0.423   6.518 -0.7059  0.1111 -0.5088
  124OSM   H12A13136   6.061   0.362   6.599  1.2878  1.2393 -0.4413
  124OSM   H12B13137   5.958   0.497   6.556 -2.4713 -0.6931 -1.9922
  124OSM    C1113138   6.152   0.490   6.463 -0.4868  0.3839 -0.5081
  124OSM   H11A13139   6.216   0.420   6.406 -1.1872 -1.8390  1.2864
  124OSM   H11B13140   6.206   0.540   6.547 -2.7710  1.2004  0.5575
  124OSM      P13141   6.053   0.732   6.398  0.2698  0.0218 -0.0577
  124OSM    O1313142   6.154   0.835   6.367 -0.3059 -0.4866  0.5288
  124OSM    O1413143   5.918   0.732   6.336 -0.1265  0.5843 -0.3852
  124OSM    O1113144   6.028   0.731   6.550  0.5496 -0.2752  0.2780
  124OSM    O1213145   6.110   0.590   6.379 -0.3169  0.2884  0.2512
  124OSM    C1S13146   6.028   0.854   6.622 -0.3408 -0.7315  0.8258
  124OSM    H1S13147   5.963   0.930   6.574 -2.6133 -2.6303  0.7202
  124OSM    H1T13148   6.129   0.899   6.629  0.6143 -2.8653  1.5891
  124OSM     NF13149   5.993   0.968   6.832  0.9181 -0.1501  0.1244
  124OSM    HNF13150   6.074   1.004   6.876  0.8240 -0.7051  0.7700
  124OSM    C2S13151   5.996   0.835   6.767  0.7838  0.0552  0.0731
  124OSM    H2S13152   5.894   0.793   6.781  0.4929  0.0171 -1.9072
  124OSM    C3S13153   6.097   0.735   6.830 -0.2274 -0.2060 -0.3342
  124OSM    H3S13154   6.200   0.766   6.803  0.5247 -1.1122  1.3154
  124OSM     O313155   6.080   0.604   6.775  0.0397  0.3747  0.2073
  124OSM    HO313156   6.058   0.637   6.687  1.0973  0.0733 -0.1902
  124OSM    C4S13157   6.080   0.732   6.973 -0.7546 -0.6078 -0.6598
  124OSM    H4S13158   6.137   0.815   7.017 -1.1058  0.3390 -1.9314
  124OSM    C5S13159   6.009   0.653   7.060 -0.2087  0.2434 -0.2166
  124OSM    H5S13160   5.963   0.559   7.026  0.8206 -0.0539 -0.8072
  124OSM    C6S13161   5.998   0.677   7.208  0.8253  0.6722 -0.5392
  124OSM    H6S13162   6.051   0.600   7.268  0.9875  0.5173 -0.8831
  124OSM    H6T13163   5.888   0.676   7.224  0.6559 -0.2748 -1.6460
  124OSM    C7S13164   6.058   0.813   7.260  0.3944 -0.3463  0.4055
  124OSM    H7S13165   6.001   0.898   7.215 -0.1177 -0.8359  0.1103
  124OSM    H7T13166   6.166   0.822   7.237  0.1412 -1.0426 -1.2061
  124OSM    C8S13167   6.032   0.826   7.412  0.4731 -0.3491  0.6513
  124OSM    H8S13168   6.088   0.742   7.458 -0.7201 -0.6807  1.5500
  124OSM    H8T13169   5.925   0.814   7.438  0.6122  0.7319  1.8298
  124OSM    C9S13170   6.083   0.956   7.473  0.0138  0.8367  0.3233
  124OSM    H9S13171   6.019   1.040   7.440  0.5982  1.5373  0.9340
  124OSM    H9T13172   6.179   0.981   7.423  0.6180 -1.1479  0.3966
  124OSM   C10S13173   6.092   0.947   7.628 -0.3395  0.3910  0.0935
  124OSM   H10S13174   6.147   0.859   7.667 -0.5376 -0.0107 -0.5245
  124OSM   H10T13175   5.987   0.935   7.662 -0.9713  1.4080 -1.3870
  124OSM   C11S13176   6.141   1.073   7.694  0.0351 -0.7416 -0.0400
  124OSM   H11S13177   6.065   1.154   7.683  2.2446  1.1757 -2.3590
  124OSM   H11T13178   6.232   1.098   7.636  1.1425  4.0972  3.1789
  124OSM   C12S13179   6.169   1.043   7.834 -0.3690 -0.9561 -0.2156
  124OSM   H12S13180   6.242   0.960   7.840 -0.7374 -1.2123  1.2143
  124OSM   H12T13181   6.069   1.019   7.877 -1.6111 -0.2121 -2.5064
  124OSM   C13S13182   6.225   1.168   7.907  0.3641  0.1540  0.3281
  124OSM   H13S13183   6.166   1.260   7.885  1.9297  1.2087  0.3634
  124OSM   H13T13184   6.330   1.191   7.879 -0.1158  0.7097 -1.0865
  124OSM   C14S13185   6.240   1.146   8.063 -0.4735 -0.2059 -0.5697
  124OSM   H14S13186   6.329   1.081   8.080  1.6105  2.8902  1.1762
  124OSM   H14T13187   6.153   1.092   8.106 -0.9566  1.6947  0.9639
  124OSM   C15S13188   6.254   1.281   8.124  0.0642  0.2999 -0.6537
  124OSM   H15S13189   6.165   1.344   8.103  0.5419  2.1608  2.3067
  124OSM   H15T13190   6.344   1.333   8.085  0.7091  0.1006  0.5092
  124OSM   C16S13191   6.273   1.289   8.274  0.1105  0.2916  0.7112
  124OSM   H16S13192   6.319   1.384   8.309  0.8999 -0.2343  1.1295
  124OSM   H16T13193   6.353   1.216   8.297  0.8484  0.5625 -0.8285
  124OSM   C17S13194   6.152   1.259   8.353  0.0928  0.5137 -0.4374
  124OSM   H17S13195   6.082   1.212   8.282 -1.1854 -1.4985  1.9858
  124OSM   H17T13196   6.101   1.347   8.398 -0.6075  0.3561 -0.9196
  124OSM   C18S13197   6.179   1.154   8.462 -0.5282 -0.2382  0.3765
  124OSM   H18S13198   6.089   1.155   8.527 -1.7166 -0.7185 -1.1948
  124OSM   H18T13199   6.271   1.174   8.521 -0.4248 -0.4514  0.2884
  124OSM   H18U13200   6.191   1.051   8.423  1.7474 -0.2883  1.1016
  124OSM    C1F13201   5.904   1.064   6.811 -0.1878  0.3159  0.4692
  124OSM     OF13202   5.808   1.045   6.737  0.0537 -0.4698  0.2047
  124OSM    C2F13203   5.937   1.200   6.870 -0.4767  0.5475  0.2779
  124OSM    H2F13204   5.917   1.278   6.794 -1.3438 -0.3488 -0.4496
  124OSM    H2G13205   6.044   1.203   6.901 -0.7550  0.9919  1.2365
  124OSM    C3F13206   5.851   1.223   6.999  0.3538 -0.5811 -0.3193
  124OSM    H3F13207   5.751   1.177   6.982  0.8486 -1.7530 -0.1864
  124OSM    H3G13208   5.831   1.332   7.008  2.7998 -0.0554 -0.7183
  124OSM    C4F13209   5.921   1.168   7.137 -0.2481  0.6335  0.8394
  124OSM    H4F13210   6.013   1.111   7.116 -0.7976 -0.1770  0.5819
  124OSM    H4G13211   5.842   1.102   7.180  0.1642 -0.7510 -0.4632
  124OSM    C5F13212   5.955   1.291   7.226 -0.5807  0.0711 -0.1467
  124OSM    H5F13213   5.984   1.242   7.322 -0.8776  0.4658  0.1489
  124OSM    H5G13214   5.866   1.348   7.260  0.0301 -0.6361  2.9320
  124OSM    C6F13215   6.064   1.385   7.176 -0.6690 -0.2095  0.4552
  124OSM    H6F13216   6.016   1.461   7.111  0.4344  0.7300  0.7143
  124OSM    H6G13217   6.133   1.323   7.114 -0.4726 -0.4404  0.8988
  124OSM    C7F13218   6.144   1.459   7.291  0.7635 -0.1508  0.1498
  124OSM    H7F13219   6.187   1.391   7.368  0.5532 -1.1927 -0.6186
  124OSM    H7G13220   6.075   1.531   7.339 -1.7082 -2.1678 -0.1382
  124OSM    C8F13221   6.259   1.535   7.223  0.2422 -0.6974  0.7000
  124OSM    H8F13222   6.318   1.461   7.166  0.8834 -0.6233  1.2544
  124OSM    H8G13223   6.326   1.568   7.306  0.9086 -0.2585 -0.0037
  124OSM    C9F13224   6.218   1.650   7.143  0.1379 -0.0588 -0.1190
  124OSM    H9F13225   6.154   1.627   7.056  2.2491 -2.8341 -1.0984
  124OSM   C10F13226   6.252   1.780   7.161  0.2814 -0.2238 -1.2855
  124OSM   H10F13227   6.208   1.852   7.091  1.6775  0.1277 -1.8419
  124OSM   C11F13228   6.336   1.846   7.262  0.1161 -0.0918 -0.6721
  124OSM   H11F13229   6.389   1.935   7.221  2.7418 -2.1161 -1.9876
  124OSM   H11G13230   6.419   1.777   7.291  0.4066  0.9966  1.2642
  124OSM   C12F13231   6.261   1.881   7.395 -0.1290 -0.0080  0.3288
  124OSM   H12F13232   6.249   1.777   7.433  1.9892 -0.4046  0.0544
  124OSM   H12G13233   6.165   1.934   7.377 -1.4042 -2.1258  0.5230
  124OSM   C13F13234   6.350   1.963   7.485  0.1848 -0.1636 -0.5997
  124OSM   H13F13235   6.372   2.064   7.445  0.5824 -0.6133 -1.5533
  124OSM   H13G13236   6.453   1.921   7.485  0.3280  0.1827 -1.0302
  124OSM   C14F13237   6.300   1.960   7.634 -0.5397 -0.3899  0.9506
  124OSM   H14F13238   6.294   1.854   7.665 -1.1684 -1.3720 -2.1636
  124OSM   H14G13239   6.198   2.004   7.641  1.1075  3.6341  3.1427
  124OSM   C15F13240   6.388   2.032   7.731  0.0321 -0.2011  0.2423
  124OSM   H15F13241   6.403   2.136   7.695 -2.8653  0.3925  0.5228
  124OSM   H15G13242   6.482   1.973   7.735  1.3926  1.8135 -0.1736
  124OSM   C16F13243   6.314   2.047   7.868  0.6914 -0.2223 -0.0217
  124OSM   H16F13244   6.292   1.945   7.908 -0.6200  0.9993  2.5563
  124OSM   H16G13245   6.218   2.102   7.860  0.7172 -0.1956 -0.1487
  124OSM   C17F13246   6.397   2.125   7.969  0.2150  0.2462 -0.4081
  124OSM   H17F13247   6.340   2.146   8.062  0.4238  2.1005 -0.6763
  124OSM   H17G13248   6.422   2.226   7.932 -1.4284  0.3142 -1.4720
  124OSM   C18F13249   6.532   2.052   8.014  0.2414 -0.4133  0.3626
  124OSM   H18F13250   6.587   2.119   8.083  0.8327  1.3193 -1.6654
  124OSM   H18G13251   6.601   2.033   7.928 -0.7300 -2.1771 -0.0835
  124OSM   H18H13252   6.501   1.955   8.059  2.3883 -0.7008  1.3324
  125OSM      N13253   4.408   1.601   6.556  0.2230  0.7782 -0.0672
  125OSM    C1513254   4.547   1.567   6.606  0.6119  0.3828  0.3131
  125OSM   H15A13255   4.566   1.610   6.703 -0.4950 -0.8237  1.0991
  125OSM   H15B13256   4.619   1.604   6.535 -1.4461  1.5674 -1.2859
  125OSM   H15C13257   4.559   1.460   6.618 -0.8076  0.1131 -0.4738
  125OSM    C1413258   4.303   1.550   6.646  1.0766  0.4743 -0.6580
  125OSM   H14A13259   4.202   1.572   6.616 -0.0205 -1.8012  1.0726
  125OSM   H14B13260   4.324   1.567   6.750 -0.0492 -0.5298 -0.2407
  125OSM   H14C13261   4.297   1.443   6.633  0.0354  0.2805  1.0852
  125OSM    C1313262   4.400   1.749   6.558 -0.4272  0.3223 -0.2978
  125OSM   H13A13263   4.460   1.789   6.478  3.5219 -2.5596  0.9312
  125OSM   H13B13264   4.431   1.798   6.649 -2.1666  1.8435 -0.4621
  125OSM   H13C13265   4.300   1.790   6.550 -0.6183  0.1030  0.7870
  125OSM    C1213266   4.390   1.559   6.407  0.2367  0.3640  0.0321
  125OSM   H12A13267   4.467   1.595   6.340  0.7406  0.5393  0.6956
  125OSM   H12B13268   4.300   1.607   6.372  0.1366 -0.8589 -1.4952
  125OSM    C1113269   4.377   1.404   6.385 -0.3929 -0.1065 -0.3267
  125OSM   H11A13270   4.477   1.369   6.419 -0.7661  1.6816  3.0282
  125OSM   H11B13271   4.364   1.382   6.277  0.2212 -1.5309 -0.1360
  125OSM      P13272   4.126   1.326   6.418  0.4999  0.1132  0.4712
  125OSM    O1313273   4.039   1.440   6.462 -0.0602  0.1930 -0.3503
  125OSM    O1413274   4.129   1.303   6.271  0.5253  0.1381  0.3606
  125OSM    O1113275   4.074   1.196   6.495  0.2251 -0.7474 -0.6351
  125OSM    O1213276   4.274   1.339   6.464 -0.1881 -0.2238 -0.1809
  125OSM    C1S13277   4.113   1.161   6.629 -0.6655 -0.1925  0.5773
  125OSM    H1S13278   4.223   1.170   6.645 -0.7720  1.9117  0.4101
  125OSM    H1T13279   4.089   1.054   6.646 -1.4922  0.0140  0.7467
  125OSM     NF13280   4.096   1.175   6.865 -0.3779  0.1422  0.1143
  125OSM    HNF13281   4.041   1.102   6.905  1.8751 -2.0208 -0.5048
  125OSM    C2S13282   4.039   1.227   6.742 -0.1497 -0.2200 -0.5468
  125OSM    H2S13283   4.068   1.334   6.734  1.2644 -0.6586 -1.8377
  125OSM    C3S13284   3.890   1.208   6.730  0.5216  0.0283 -0.5140
  125OSM    H3S13285   3.850   1.104   6.723 -1.0055  0.5898 -0.4228
  125OSM     O313286   3.838   1.256   6.600  0.1768 -0.1258  0.2820
  125OSM    HO313287   3.912   1.258   6.540  0.5888 -1.4763  0.7048
  125OSM    C4S13288   3.819   1.279   6.845 -0.3759 -0.2428  0.0167
  125OSM    H4S13289   3.791   1.208   6.925  1.6655 -0.1645  0.8591
  125OSM    C5S13290   3.797   1.410   6.854 -0.8757  0.7433 -0.4973
  125OSM    H5S13291   3.834   1.467   6.767  0.7111  1.2815  0.4798
  125OSM    C6S13292   3.732   1.484   6.975  0.3016 -0.2886  0.1772
  125OSM    H6S13293   3.626   1.493   6.941  0.2596 -1.7066 -0.1629
  125OSM    H6T13294   3.774   1.586   6.980  1.1347 -0.6213  0.1685
  125OSM    C7S13295   3.738   1.415   7.114 -0.4747  0.4002  0.0735
  125OSM    H7S13296   3.674   1.324   7.113 -0.6080  0.4967 -0.0743
  125OSM    H7T13297   3.705   1.493   7.186 -0.9636 -1.5291  2.0496
  125OSM    C8S13298   3.878   1.375   7.160  0.2433 -0.5243  0.5569
  125OSM    H8S13299   3.963   1.437   7.125 -0.1002  0.4229  1.3468
  125OSM    H8T13300   3.892   1.278   7.108 -0.6376  0.2387 -1.1797
  125OSM    C9S13301   3.867   1.358   7.310 -0.6106  0.0556 -0.7690
  125OSM    H9S13302   3.937   1.284   7.356 -1.0187  0.6475  0.8554
  125OSM    H9T13303   3.766   1.319   7.333 -0.8839  0.2899 -1.5547
  125OSM   C10S13304   3.906   1.477   7.402  0.0088  0.0390  0.6681
  125OSM   H10S13305   3.839   1.560   7.369  0.2105 -0.4649 -1.1179
  125OSM   H10T13306   4.015   1.497   7.400  0.3516 -1.6701 -0.7069
  125OSM   C11S13307   3.867   1.444   7.546 -0.2470  0.1687  0.1479
  125OSM   H11S13308   3.949   1.435   7.620 -0.4054 -3.0319  0.0358
  125OSM   H11T13309   3.814   1.348   7.534  0.5133 -0.3361  0.7108
  125OSM   C12S13310   3.754   1.535   7.596  0.8602  0.0376  0.1930
  125OSM   H12S13311   3.678   1.558   7.518 -0.1966  0.5774  1.3588
  125OSM   H12T13312   3.785   1.641   7.600 -3.0294  1.4321 -1.2978
  125OSM   C13S13313   3.688   1.488   7.723 -0.1312  0.4329 -0.5638
  125OSM   H13S13314   3.642   1.390   7.701 -0.8204  0.8784 -1.1930
  125OSM   H13T13315   3.608   1.562   7.746 -0.7894 -0.2002 -0.7790
  125OSM   C14S13316   3.783   1.492   7.840 -0.1350  0.1074  0.1375
  125OSM   H14S13317   3.843   1.585   7.855  0.0903 -0.2248  1.4416
  125OSM   H14T13318   3.857   1.410   7.829 -0.3622 -0.0330 -0.3639
  125OSM   C15S13319   3.706   1.467   7.969  1.1097 -0.6292  0.1244
  125OSM   H15S13320   3.637   1.381   7.955  0.1725  0.1511 -0.1697
  125OSM   H15T13321   3.638   1.553   7.985  2.5283  0.5139  0.2696
  125OSM   C16S13322   3.794   1.440   8.085  0.6747  0.3894 -0.5071
  125OSM   H16S13323   3.874   1.518   8.092  2.0822 -0.9888 -0.7662
  125OSM   H16T13324   3.838   1.339   8.077  0.6888  0.0825  2.3584
  125OSM   C17S13325   3.698   1.438   8.208  0.4129 -0.0191 -0.6238
  125OSM   H17S13326   3.621   1.360   8.191 -0.4553  0.6786 -0.0281
  125OSM   H17T13327   3.639   1.529   8.234 -2.5274 -2.4034  1.8329
  125OSM   C18S13328   3.768   1.387   8.334  0.5792  0.0016  0.3571
  125OSM   H18S13329   3.792   1.281   8.310 -0.4486 -0.0009 -0.7549
  125OSM   H18T13330   3.708   1.396   8.426  1.8504 -1.9996  1.4554
  125OSM   H18U13331   3.865   1.439   8.351  1.2289 -0.1978 -2.2712
  125OSM    C1F13332   4.216   1.184   6.912 -0.3859 -0.3947 -0.0655
  125OSM     OF13333   4.300   1.262   6.866  0.5545  0.1409 -0.8618
  125OSM    C2F13334   4.242   1.100   7.035  0.0855  0.3315 -0.0129
  125OSM    H2F13335   4.265   0.995   7.009 -0.3863 -0.3483  2.1209
  125OSM    H2G13336   4.149   1.083   7.093 -0.5916 -1.0471 -1.4324
  125OSM    C3F13337   4.347   1.172   7.121  0.0397  0.2078  0.0751
  125OSM    H3F13338   4.445   1.185   7.070  0.1460 -0.2543  0.1569
  125OSM    H3G13339   4.365   1.111   7.212 -2.4575 -1.3828 -0.4218
  125OSM    C4F13340   4.312   1.319   7.153 -0.0524 -0.2877 -0.1889
  125OSM    H4F13341   4.258   1.379   7.077  0.7876  1.0873  0.2568
  125OSM    H4G13342   4.412   1.367   7.165 -0.4535  0.5993 -0.2849
  125OSM    C5F13343   4.243   1.336   7.293 -0.6558  0.6912 -0.3084
  125OSM    H5F13344   4.164   1.259   7.305 -0.5534  0.7256  0.6711
  125OSM    H5G13345   4.196   1.436   7.301 -2.1203  0.2097 -2.2999
  125OSM    C6F13346   4.341   1.304   7.414 -0.2762 -0.5815  0.6583
  125OSM    H6F13347   4.429   1.371   7.405  0.7749 -2.0666 -0.9758
  125OSM    H6G13348   4.378   1.198   7.412 -2.8590 -1.5615  1.6265
  125OSM    C7F13349   4.279   1.313   7.560  0.6114  0.6717 -0.7663
  125OSM    H7F13350   4.201   1.234   7.564  2.8370 -1.6144  1.7145
  125OSM    H7G13351   4.229   1.413   7.558  1.5752  1.1653 -2.2597
  125OSM    C8F13352   4.373   1.301   7.676 -1.1164  0.9190 -0.4500
  125OSM    H8F13353   4.440   1.390   7.671  1.5845 -0.9059  0.7999
  125OSM    H8G13354   4.443   1.217   7.655 -0.4265  1.5936 -0.9115
  125OSM    C9F13355   4.296   1.280   7.807  0.1581 -0.5142  0.3265
  125OSM    H9F13356   4.191   1.310   7.798  0.3728 -0.1177 -1.0840
  125OSM   C10F13357   4.337   1.218   7.915  0.1532 -0.0353  1.0516
  125OSM   H10F13358   4.267   1.211   8.000  0.5436  1.1894  1.4801
  125OSM   C11F13359   4.473   1.150   7.929 -0.3037 -0.2782  1.0888
  125OSM   H11F13360   4.551   1.182   7.856 -1.2342  0.8008  0.5490
  125OSM   H11G13361   4.460   1.040   7.931  0.8990 -0.4498  3.6753
  125OSM   C12F13362   4.546   1.185   8.053  0.1737  0.0612  0.8974
  125OSM   H12F13363   4.546   1.295   8.067 -0.0310  0.4698 -1.8030
  125OSM   H12G13364   4.648   1.140   8.050 -0.1434 -0.7451  1.6829
  125OSM   C13F13365   4.469   1.137   8.177 -0.4471 -0.4043 -0.8446
  125OSM   H13F13366   4.455   1.027   8.179  0.0179 -0.4588  0.5474
  125OSM   H13G13367   4.373   1.193   8.168 -0.4301 -0.6175 -2.9406
  125OSM   C14F13368   4.560   1.163   8.297 -0.4289 -0.6537  1.1789
  125OSM   H14F13369   4.563   1.274   8.302 -1.5401 -0.4925 -0.7462
  125OSM   H14G13370   4.665   1.130   8.281 -0.1172  1.3022 -1.6534
  125OSM   C15F13371   4.522   1.107   8.430  0.6904  0.1265 -0.2509
  125OSM   H15F13372   4.496   1.003   8.400 -0.0231 -0.2212  1.4584
  125OSM   H15G13373   4.428   1.147   8.475  1.0080  0.2938  0.2731
  125OSM   C16F13374   4.628   1.105   8.535  0.0009  0.5554  0.3597
  125OSM   H16F13375   4.712   1.053   8.485 -1.0618 -0.9638  0.0845
  125OSM   H16G13376   4.591   1.058   8.629  0.8882  2.3136  1.6574
  125OSM   C17F13377   4.674   1.233   8.584 -0.3936 -0.1877 -0.4562
  125OSM   H17F13378   4.588   1.293   8.619  0.3596  0.4859  0.2833
  125OSM   H17G13379   4.722   1.299   8.509  1.8935 -1.1258  0.0733
  125OSM   C18F13380   4.758   1.215   8.706  0.0510  0.2178 -0.6304
  125OSM   H18F13381   4.781   1.317   8.744 -0.8738  0.7689 -1.5044
  125OSM   H18G13382   4.843   1.145   8.693 -1.5797 -2.1462  0.6874
  125OSM   H18H13383   4.692   1.189   8.792 -0.2818 -0.4183 -1.0786
  126OSM      N13384   5.005   4.862   6.707  1.0283  0.2508  0.3898
  126OSM    C1513385   4.875   4.925   6.686 -0.4230 -0.1548  0.1681
  126OSM   H15A13386   4.834   4.966   6.777 -0.5588 -0.4667  0.2496
  126OSM   H15B13387   4.799   4.859   6.647 -1.6500  0.8006  0.8637
  126OSM   H15C13388   4.890   5.001   6.611 -0.1645 -0.5103 -0.1436
  126OSM    C1413389   5.001   4.790   6.835 -0.2470 -0.6243 -0.3457
  126OSM   H14A13390   4.971   4.859   6.912  1.2272 -1.7186  1.2754
  126OSM   H14B13391   5.093   4.742   6.863  0.3445  0.6202 -0.0881
  126OSM   H14C13392   4.922   4.716   6.842  0.6155 -1.7987 -2.2223
  126OSM    C1313393   5.043   4.755   6.608  0.7146 -0.4862 -0.0949
  126OSM   H13A13394   4.998   4.660   6.630 -0.6903  0.3341  0.7200
  126OSM   H13B13395   5.151   4.744   6.608  0.8576  0.5418  1.4950
  126OSM   H13C13396   5.017   4.788   6.508 -1.8309 -0.5206  0.4957
  126OSM    C1213397   5.124   4.952   6.715  0.4545 -0.0856  0.1371
  126OSM   H12A13398   5.209   4.909   6.767  0.8201  2.2292  1.5906
  126OSM   H12B13399   5.093   5.033   6.780 -1.2311 -0.2837 -0.3867
  126OSM    C1113400   5.175   5.020   6.582  0.1988 -0.0751 -0.8560
  126OSM   H11A13401   5.194   4.943   6.503 -0.5992  0.5560 -1.6830
  126OSM   H11B13402   5.260   5.086   6.609 -0.5909 -0.3011  2.6546
  126OSM      P13403   5.079   5.258   6.510  0.0142 -0.4474 -0.1550
  126OSM    O1313404   5.204   5.300   6.437  0.2528 -0.3655  0.1297
  126OSM    O1413405   4.940   5.307   6.474 -0.1761  0.9225  0.0912
  126OSM    O1113406   5.111   5.300   6.654  0.4943 -0.3949 -0.0919
  126OSM    O1213407   5.073   5.093   6.516 -0.9274 -0.4273  0.7316
  126OSM    C1S13408   5.017   5.310   6.758 -0.3570 -0.6113 -0.0835
  126OSM    H1S13409   4.969   5.211   6.771  0.6538 -1.0966 -0.0066
  126OSM    H1T13410   4.938   5.388   6.745  1.4702  2.1055  3.1709
  126OSM     NF13411   5.015   5.297   7.008  0.0365  0.2417 -0.8002
  126OSM    HNF13412   4.984   5.369   7.069  1.6494 -0.0816  0.4702
  126OSM    C2S13413   5.096   5.337   6.890  0.3099 -0.6027 -0.3011
  126OSM    H2S13414   5.183   5.269   6.900 -0.8918 -1.9606  1.4793
  126OSM    C3S13415   5.150   5.483   6.885 -0.2304  0.5856  0.2136
  126OSM    H3S13416   5.064   5.550   6.862 -0.8973  0.3075  1.7096
  126OSM     O313417   5.242   5.515   6.782 -0.0134  0.3518  0.1750
  126OSM    HO313418   5.224   5.443   6.721  0.7151  0.8575 -0.6766
  126OSM    C4S13419   5.202   5.512   7.023 -0.1856 -0.0632  0.6020
  126OSM    H4S13420   5.119   5.541   7.090 -1.3148 -0.2395 -0.6706
  126OSM    C5S13421   5.332   5.514   7.059  0.1110 -0.0566  0.0453
  126OSM    H5S13422   5.403   5.482   6.981 -0.6997 -0.0423 -0.7146
  126OSM    C6S13423   5.380   5.528   7.199  0.1972 -0.7609 -0.0151
  126OSM    H6S13424   5.463   5.601   7.206 -2.3112  2.5009 -1.6092
  126OSM    H6T13425   5.424   5.432   7.234  2.5469  0.5829  0.9355
  126OSM    C7S13426   5.279   5.578   7.295  0.1701 -0.5871 -0.1024
  126OSM    H7S13427   5.199   5.501   7.289  0.0422 -0.3707 -1.6574
  126OSM    H7T13428   5.249   5.682   7.267 -0.3969 -1.5221 -3.3974
  126OSM    C8S13429   5.327   5.569   7.442  0.0193  0.7012  0.0169
  126OSM    H8S13430   5.422   5.626   7.454  1.7523 -1.3117 -2.8247
  126OSM    H8T13431   5.355   5.463   7.457 -1.1192  0.3159 -0.4358
  126OSM    C9S13432   5.220   5.614   7.547  0.2997  0.6586  0.2794
  126OSM    H9S13433   5.134   5.549   7.521  0.5621  0.9355 -1.3462
  126OSM    H9T13434   5.201   5.721   7.526  0.8718  0.8141  0.5527
  126OSM   C10S13435   5.258   5.609   7.696  0.4197  0.1051 -1.0942
  126OSM   H10S13436   5.346   5.676   7.708  0.9730 -1.0376  2.4877
  126OSM   H10T13437   5.289   5.507   7.726 -0.8559 -0.4825 -1.7087
  126OSM   C11S13438   5.150   5.676   7.788  0.4482  0.2603  0.3483
  126OSM   H11S13439   5.048   5.634   7.773 -0.2348  2.2478 -0.9405
  126OSM   H11T13440   5.149   5.785   7.768  2.8872  0.3672  0.5455
  126OSM   C12S13441   5.180   5.665   7.940 -0.6407 -0.2808  0.0401
  126OSM   H12S13442   5.284   5.698   7.962 -1.2887  1.7934  0.2531
  126OSM   H12T13443   5.178   5.560   7.974 -2.9206  0.4066  2.3885
  126OSM   C13S13444   5.079   5.745   8.029 -0.5551 -0.7081  0.2081
  126OSM   H13S13445   5.097   5.701   8.130  2.6433  0.4195  0.2337
  126OSM   H13T13446   4.977   5.732   7.989  0.4986 -0.2195 -2.9018
  126OSM   C14S13447   5.104   5.899   8.031  0.2171  0.4173 -0.1546
  126OSM   H14S13448   5.098   5.945   7.930 -1.4041 -0.3803 -0.4693
  126OSM   H14T13449   5.204   5.934   8.061 -0.2636  1.1141  0.6863
  126OSM   C15S13450   4.996   5.975   8.111 -0.1472 -0.1168 -0.0228
  126OSM   H15S13451   4.898   5.965   8.060 -0.1605 -0.1302  0.0061
  126OSM   H15T13452   5.018   6.082   8.093  0.6015 -0.4749 -1.3249
  126OSM   C16S13453   4.973   5.946   8.257 -0.1674  0.2209 -0.2500
  126OSM   H16S13454   5.069   5.980   8.302  0.3863  1.8018 -2.4573
  126OSM   H16T13455   4.950   5.838   8.267  0.7553  0.1682  1.6383
  126OSM   C17S13456   4.850   6.005   8.312  0.6806  0.2056 -0.1355
  126OSM   H17S13457   4.766   5.971   8.247  0.1382 -0.8371  1.0902
  126OSM   H17T13458   4.854   6.115   8.297  2.1454 -0.0305 -1.8120
  126OSM   C18S13459   4.833   5.973   8.458 -0.0166 -0.0459  0.6735
  126OSM   H18S13460   4.759   6.048   8.492 -0.5841 -0.3840  0.2155
  126OSM   H18T13461   4.922   5.987   8.523 -1.2315  0.9022  2.2061
  126OSM   H18U13462   4.790   5.873   8.478  1.8576 -0.6224  2.1408
  126OSM    C1F13463   4.986   5.171   7.037  0.1143  0.3406  0.5504
  126OSM     OF13464   5.012   5.083   6.952  0.6527 -0.7629  0.1764
  126OSM    C2F13465   4.925   5.146   7.169 -0.2237 -0.5870 -0.5255
  126OSM    H2F13466   4.843   5.220   7.173 -0.1278 -0.4992 -0.1305
  126OSM    H2G13467   5.007   5.146   7.244  0.2832 -0.4410 -1.0780
  126OSM    C3F13468   4.835   5.018   7.160  0.4872  0.0069  0.0330
  126OSM    H3F13469   4.872   4.925   7.111 -1.2628 -1.5268  1.4752
  126OSM    H3G13470   4.746   5.037   7.096  0.7213  0.6054 -0.1246
  126OSM    C4F13471   4.771   4.979   7.293  0.4170  0.4240  0.6729
  126OSM    H4F13472   4.752   4.869   7.284 -0.0893  0.6442 -1.7274
  126OSM    H4G13473   4.670   5.025   7.305  0.2427 -0.4420  3.2010
  126OSM    C5F13474   4.857   4.994   7.415 -0.2138  0.1726  0.3888
  126OSM    H5F13475   4.893   5.099   7.416  0.2633  0.0257 -0.2382
  126OSM    H5G13476   4.946   4.929   7.404  0.9199  1.7258 -0.0536
  126OSM    C6F13477   4.785   4.951   7.542 -0.5907  0.5777 -0.2040
  126OSM    H6F13478   4.777   4.844   7.513 -0.7380  1.4905 -4.0468
  126OSM    H6G13479   4.683   4.992   7.553 -0.3479  0.7695  1.8703
  126OSM    C7F13480   4.868   4.955   7.666 -0.0926  0.4209 -0.7125
  126OSM    H7F13481   4.893   5.059   7.694  3.2628 -0.7575  1.1972
  126OSM    H7G13482   4.968   4.907   7.668  0.1581  0.8530  2.4558
  126OSM    C8F13483   4.808   4.887   7.792  0.0203  0.5834 -0.3449
  126OSM    H8F13484   4.881   4.875   7.875 -0.9100 -0.0382  0.4024
  126OSM    H8G13485   4.802   4.779   7.767  1.9726  0.5241 -0.7142
  126OSM    C9F13486   4.681   4.943   7.843  0.1521  0.2023 -0.1267
  126OSM    H9F13487   4.600   4.946   7.769 -0.3249 -1.2085  0.2998
  126OSM   C10F13488   4.652   4.977   7.970  0.5078 -0.5757  0.7400
  126OSM   H10F13489   4.550   5.011   7.992  0.6308  0.2541  0.0933
  126OSM   C11F13490   4.747   4.974   8.089 -0.0799 -0.2361 -0.0777
  126OSM   H11F13491   4.694   5.018   8.176 -0.6462 -1.4084  0.1933
  126OSM   H11G13492   4.844   5.025   8.074  1.0323 -1.6486  1.8061
  126OSM   C12F13493   4.792   4.838   8.137  0.1475  0.3531 -0.5444
  126OSM   H12F13494   4.819   4.767   8.056  1.4726 -0.5853  0.6694
  126OSM   H12G13495   4.695   4.797   8.171 -0.4760  1.4532 -0.9522
  126OSM   C13F13496   4.877   4.833   8.264 -0.0961  0.0174  0.6539
  126OSM   H13F13497   4.879   4.725   8.290  0.1932  0.4167  2.3757
  126OSM   H13G13498   4.822   4.893   8.339 -1.1871 -2.2534  1.7674
  126OSM   C14F13499   5.019   4.901   8.246 -0.2685  0.1744  0.0073
  126OSM   H14F13500   5.007   5.009   8.225  0.3505  0.3914  0.7057
  126OSM   H14G13501   5.064   4.857   8.154  1.7679  0.3937  0.8312
  126OSM   C15F13502   5.107   4.876   8.375  0.3199  0.3130 -0.5378
  126OSM   H15F13503   5.125   4.767   8.385 -3.0256 -0.2208  1.0308
  126OSM   H15G13504   5.050   4.894   8.469 -1.0791  0.4244 -1.3673
  126OSM   C16F13505   5.239   4.950   8.384  0.2472  0.4940 -0.4000
  126OSM   H16F13506   5.290   4.943   8.285  1.2112 -0.1792  0.1371
  126OSM   H16G13507   5.309   4.900   8.454  2.6954  0.7932 -2.4798
  126OSM   C17F13508   5.221   5.099   8.432  0.5458 -0.2709  0.6801
  126OSM   H17F13509   5.161   5.142   8.349  0.7026 -0.5770  0.4068
  126OSM   H17G13510   5.320   5.149   8.433  0.6699 -0.4935 -0.1641
  126OSM   C18F13511   5.136   5.128   8.557  0.4507 -0.2847 -0.8077
  126OSM   H18F13512   5.145   5.234   8.590 -2.8117 -0.3405  0.5694
  126OSM   H18G13513   5.168   5.057   8.636 -2.6229 -0.6470  0.2121
  126OSM   H18H13514   5.029   5.102   8.545  0.1513  0.5077  0.0703
  127OSM      N13515   3.620   4.879   6.335 -0.2396  0.0427 -0.0159
  127OSM    C1513516   3.747   4.858   6.402  0.6842 -0.2863  0.4391
  127OSM   H15A13517   3.774   4.755   6.386  0.6356  0.1605 -3.3932
  127OSM   H15B13518   3.745   4.879   6.508  0.3703 -3.4634  1.1471
  127OSM   H15C13519   3.821   4.919   6.353 -0.2851 -0.4627 -1.2919
  127OSM    C1413520   3.597   5.023   6.325  0.3927  0.5618 -0.6407
  127OSM   H14A13521   3.608   5.078   6.417  2.6372 -0.1015 -0.4428
  127OSM   H14B13522   3.496   5.051   6.302 -1.1249 -1.8163  2.3006
  127OSM   H14C13523   3.663   5.067   6.252  2.1557 -1.4123 -0.3391
  127OSM    C1313524   3.616   4.812   6.206 -0.0267 -0.3962  0.7206
  127OSM   H13A13525   3.527   4.834   6.149  0.4428 -2.7173 -1.0552
  127OSM   H13B13526   3.621   4.704   6.206  0.8775 -0.5358 -3.4972
  127OSM   H13C13527   3.699   4.849   6.147  0.8035 -3.5650 -0.3199
  127OSM    C1213528   3.522   4.807   6.424 -0.0548  0.1648  0.0576
  127OSM   H12A13529   3.531   4.831   6.529  2.8302 -1.5450  0.3120
  127OSM   H12B13530   3.548   4.704   6.405 -0.5833  0.1286 -0.4704
  127OSM    C1113531   3.379   4.828   6.373 -1.0929  0.6281  0.0518
  127OSM   H11A13532   3.368   4.800   6.266  1.9049 -0.0080 -0.1802
  127OSM   H11B13533   3.348   4.934   6.386  0.1005  0.7483  2.4992
  127OSM      P13534   3.288   4.582   6.438  0.4394  0.6739 -0.6173
  127OSM    O1313535   3.158   4.554   6.369  0.5123 -0.3495  0.7356
  127OSM    O1413536   3.403   4.539   6.363 -0.3358  0.1890 -0.1165
  127OSM    O1113537   3.287   4.536   6.590  0.2264  0.1804  0.4277
  127OSM    O1213538   3.292   4.740   6.451  0.1401  0.1459  0.2273
  127OSM    C1S13539   3.366   4.589   6.698  0.0994  0.3865 -0.4166
  127OSM    H1S13540   3.370   4.699   6.686 -0.4778  0.4431 -0.0979
  127OSM    H1T13541   3.470   4.551   6.702 -0.6346 -1.6857  0.0845
  127OSM     NF13542   3.365   4.661   6.931  0.1278 -0.6577 -0.2507
  127OSM    HNF13543   3.433   4.609   6.981  1.1522 -0.1959 -1.1152
  127OSM    C2S13544   3.294   4.573   6.832  0.7416 -0.0670 -0.0492
  127OSM    H2S13545   3.189   4.611   6.824  0.5599 -0.6619 -0.5331
  127OSM    C3S13546   3.291   4.417   6.867 -0.1642 -0.5172 -0.1058
  127OSM    H3S13547   3.397   4.388   6.887  0.2863  0.5829 -0.8228
  127OSM     O313548   3.222   4.339   6.773 -0.0834 -0.3907 -0.3766
  127OSM    HO313549   3.231   4.392   6.693 -1.9908  1.6622  0.6461
  127OSM    C4S13550   3.230   4.407   7.009 -0.0725 -0.4914 -0.0073
  127OSM    H4S13551   3.123   4.431   7.011 -0.1276 -0.6826  2.4308
  127OSM    C5S13552   3.294   4.363   7.121 -0.4146 -0.6909  0.0978
  127OSM    H5S13553   3.398   4.332   7.107 -0.1558 -0.4142  1.2794
  127OSM    C6S13554   3.233   4.342   7.261  0.6060 -0.2865 -0.1553
  127OSM    H6S13555   3.202   4.238   7.281 -1.3483  0.1339 -0.7896
  127OSM    H6T13556   3.133   4.389   7.266 -0.2916 -1.8436 -2.1158
  127OSM    C7S13557   3.318   4.378   7.385  0.1390 -0.0219 -1.5445
  127OSM    H7S13558   3.390   4.297   7.410  1.3702  1.2371 -0.8305
  127OSM    H7T13559   3.252   4.393   7.473 -0.6176 -0.9384 -1.9442
  127OSM    C8S13560   3.410   4.505   7.370  0.6633 -0.2329  0.1936
  127OSM    H8S13561   3.367   4.572   7.293 -0.5784  1.7689  2.4896
  127OSM    H8T13562   3.511   4.469   7.340  0.1541  0.0413 -1.9495
  127OSM    C9S13563   3.414   4.593   7.501 -1.4286 -0.0230 -0.5449
  127OSM    H9S13564   3.509   4.651   7.494 -0.4581 -1.7397 -3.0573
  127OSM    H9T13565   3.426   4.528   7.590 -1.4336  0.5269 -0.1420
  127OSM   C10S13566   3.290   4.686   7.520 -0.2732 -0.1843 -0.0033
  127OSM   H10S13567   3.199   4.623   7.522  1.4468 -2.9039 -1.5381
  127OSM   H10T13568   3.289   4.756   7.433 -0.5588  0.4986  0.5345
  127OSM   C11S13569   3.304   4.768   7.654 -0.4825 -0.3610  0.1699
  127OSM   H11S13570   3.276   4.713   7.746  2.5340 -0.7337  0.9795
  127OSM   H11T13571   3.225   4.844   7.636  0.7256  0.8049 -0.3933
  127OSM   C12S13572   3.440   4.840   7.675 -0.3451  0.3826 -0.1072
  127OSM   H12S13573   3.490   4.879   7.584 -0.2321 -2.0036 -1.1223
  127OSM   H12T13574   3.505   4.762   7.719  0.7094  1.0925 -0.3599
  127OSM   C13S13575   3.432   4.959   7.773  0.3234  0.5310 -0.3762
  127OSM   H13S13576   3.366   5.027   7.715  0.2452  0.9993  0.2469
  127OSM   H13T13577   3.537   4.993   7.782  0.1077  1.7426 -1.9971
  127OSM   C14S13578   3.374   4.914   7.909  0.0834 -0.5911 -0.6652
  127OSM   H14S13579   3.398   4.807   7.931  2.3873  0.3344  1.9348
  127OSM   H14T13580   3.263   4.915   7.908 -0.1936  2.6107  3.6853
  127OSM   C15S13581   3.428   4.992   8.018  0.1636 -0.0845  0.1118
  127OSM   H15S13582   3.395   5.098   8.007 -0.0448 -0.1077  0.5019
  127OSM   H15T13583   3.539   4.997   8.017  0.2025 -0.8441  0.1827
  127OSM   C16S13584   3.382   4.948   8.163 -0.2660  0.4098  0.6827
  127OSM   H16S13585   3.415   4.843   8.172  0.6047  0.6996  0.9298
  127OSM   H16T13586   3.272   4.930   8.157 -0.2012  0.3890 -2.2447
  127OSM   C17S13587   3.424   5.025   8.286  0.6827 -0.5970 -0.0618
  127OSM   H17S13588   3.397   5.133   8.282  1.5980 -0.3786 -0.4515
  127OSM   H17T13589   3.534   5.022   8.300  0.6311 -2.2369  0.2396
  127OSM   C18S13590   3.359   4.980   8.408  1.0655 -0.0479 -0.6276
  127OSM   H18S13591   3.249   4.973   8.395  1.2636  0.8041 -3.2813
  127OSM   H18T13592   3.382   5.032   8.504  0.6517  1.7685 -1.4630
  127OSM   H18U13593   3.374   4.871   8.421  0.1458 -0.3678 -2.0668
  127OSM    C1F13594   3.358   4.796   6.929 -0.0744  0.3042 -0.1173
  127OSM     OF13595   3.282   4.854   6.846 -0.0817 -0.0076 -0.6511
  127OSM    C2F13596   3.454   4.866   7.029 -0.4167 -0.1050 -0.8902
  127OSM    H2F13597   3.561   4.870   6.997 -0.4126  0.5229 -0.8068
  127OSM    H2G13598   3.449   4.823   7.131 -0.1422  2.4282  0.2524
  127OSM    C3F13599   3.403   5.012   7.052 -0.0542  0.2402  0.7085
  127OSM    H3F13600   3.295   5.012   7.078 -0.3594 -1.6796 -0.3427
  127OSM    H3G13601   3.410   5.075   6.961  1.2049 -0.8489  0.0131
  127OSM    C4F13602   3.474   5.092   7.161  0.6546 -0.3332  0.2978
  127OSM    H4F13603   3.431   5.194   7.154  0.3650 -0.4550  0.2897
  127OSM    H4G13604   3.577   5.116   7.128  0.0724  0.9199 -0.7124
  127OSM    C5F13605   3.480   5.027   7.296 -0.5201 -0.1881 -0.7436
  127OSM    H5F13606   3.557   4.948   7.310  0.0115  0.4602  0.0347
  127OSM    H5G13607   3.388   4.963   7.298 -0.0028 -0.9433 -0.6423
  127OSM    C6F13608   3.466   5.118   7.415  0.2767 -0.1454 -0.1001
  127OSM    H6F13609   3.486   5.065   7.511 -1.1066  0.8537  0.7790
  127OSM    H6G13610   3.360   5.149   7.415  0.4702  0.7560  2.5218
  127OSM    C7F13611   3.549   5.248   7.412 -0.2365 -0.0791  0.8396
  127OSM    H7F13612   3.515   5.300   7.320  1.3804 -1.2507 -0.4778
  127OSM    H7G13613   3.654   5.221   7.388  0.3582  1.0665  1.9967
  127OSM    C8F13614   3.549   5.323   7.544 -0.5620  0.5934 -0.8766
  127OSM    H8F13615   3.600   5.420   7.527  0.9984  0.2831  1.5625
  127OSM    H8G13616   3.608   5.257   7.611 -1.6579 -1.2710 -1.6703
  127OSM    C9F13617   3.417   5.352   7.617  0.3486  0.1177  0.4490
  127OSM    H9F13618   3.334   5.324   7.550  0.2100  0.0545  0.6475
  127OSM   C10F13619   3.395   5.386   7.751 -0.3159  0.4266  0.2831
  127OSM   H10F13620   3.294   5.404   7.791 -0.8168 -2.3025  0.3822
  127OSM   C11F13621   3.511   5.400   7.851 -0.7197 -0.3270 -0.9673
  127OSM   H11F13622   3.587   5.319   7.855 -1.4222 -0.9685  0.0905
  127OSM   H11G13623   3.466   5.392   7.953 -0.8197  0.6524 -0.9211
  127OSM   C12F13624   3.594   5.532   7.830 -0.3445 -0.1622  0.1345
  127OSM   H12F13625   3.532   5.621   7.805  0.4580  0.4010  0.1260
  127OSM   H12G13626   3.666   5.530   7.745  0.1477  1.7345  0.4447
  127OSM   C13F13627   3.675   5.564   7.959  0.3540 -0.3025 -0.0772
  127OSM   H13F13628   3.765   5.617   7.921 -1.7687  0.6238 -4.5755
  127OSM   H13G13629   3.700   5.464   8.001  0.7421 -0.8317 -1.4942
  127OSM   C14F13630   3.596   5.647   8.062 -0.0548 -0.1409 -0.0970
  127OSM   H14F13631   3.495   5.604   8.077 -1.0495  0.4348 -3.9764
  127OSM   H14G13632   3.577   5.744   8.011  1.7361 -0.4155 -1.3992
  127OSM   C15F13633   3.677   5.675   8.184 -0.5863 -0.4869 -0.1992
  127OSM   H15F13634   3.772   5.729   8.163 -1.5037  1.0382 -0.5692
  127OSM   H15G13635   3.705   5.581   8.236 -0.0230 -0.6749 -0.8235
  127OSM   C16F13636   3.613   5.762   8.285  0.0482 -1.2203  0.1792
  127OSM   H16F13637   3.510   5.726   8.306 -0.6806  1.0419  0.7684
  127OSM   H16G13638   3.606   5.866   8.245  0.1421 -1.0382  0.6299
  127OSM   C17F13639   3.687   5.775   8.417 -0.8144  0.0885 -0.4141
  127OSM   H17F13640   3.720   5.675   8.453 -0.7325  0.0820 -0.5057
  127OSM   H17G13641   3.618   5.818   8.493 -1.8019 -0.4718 -0.9675
  127OSM   C18F13642   3.810   5.868   8.417  0.7850  0.5598 -0.3830
  127OSM   H18F13643   3.788   5.965   8.368 -0.9000  0.8502  0.8491
  127OSM   H18G13644   3.893   5.822   8.359  0.2977  0.8647 -1.3444
  127OSM   H18H13645   3.835   5.900   8.521 -1.3402  1.0509  0.0232
  128OSM      N13646   3.581   2.716   6.308  0.6329  0.2719 -0.2730
  128OSM    C1513647   3.450   2.789   6.297 -0.2706 -0.9333 -0.3433
  128OSM   H15A13648   3.475   2.894   6.306 -1.1151 -0.7821  0.4661
  128OSM   H15B13649   3.386   2.757   6.378  0.3876  1.2766  1.1532
  128OSM   H15C13650   3.401   2.792   6.201  1.3384  0.9483 -1.1925
  128OSM    C1413651   3.553   2.572   6.273 -0.5406  0.0328  0.1410
  128OSM   H14A13652   3.515   2.574   6.172 -1.8493 -1.5235  0.5653
  128OSM   H14B13653   3.480   2.520   6.333 -1.7607 -1.0366 -2.1450
  128OSM   H14C13654   3.647   2.520   6.282  0.7460  1.9818 -1.1068
  128OSM    C1313655   3.673   2.776   6.205  0.6905  0.0181  0.3875
  128OSM   H13A13656   3.626   2.795   6.109  1.1955  1.2672  0.3719
  128OSM   H13B13657   3.763   2.718   6.193  1.8159  1.3821  1.9466
  128OSM   H13C13658   3.703   2.875   6.234 -1.8085  1.5213 -1.6901
  128OSM    C1213659   3.647   2.737   6.446  0.3404  0.4730 -0.3537
  128OSM   H12A13660   3.587   2.686   6.520  2.1400 -1.2132  0.0096
  128OSM   H12B13661   3.637   2.842   6.472  2.2290  0.9990 -1.5465
  128OSM    C1113662   3.799   2.701   6.463  0.6446  0.0899  0.3530
  128OSM   H11A13663   3.834   2.738   6.562 -0.2413  0.9629  0.3527
  128OSM   H11B13664   3.861   2.767   6.399  2.0009 -0.1667  1.3493
  128OSM      P13665   3.819   2.454   6.546 -0.1399  0.0862 -0.3476
  128OSM    O1313666   3.772   2.334   6.472 -0.0922  0.3041  0.3156
  128OSM    O1413667   3.941   2.446   6.625  0.0537  0.5058 -0.0435
  128OSM    O1113668   3.692   2.505   6.631  0.3357 -0.2509 -1.0589
  128OSM    O1213669   3.828   2.568   6.437  0.0570 -0.0617  0.3552
  128OSM    C1S13670   3.715   2.531   6.774  0.4666  0.1466 -0.2738
  128OSM    H1S13671   3.779   2.621   6.781 -0.6844  0.9114  0.8170
  128OSM    H1T13672   3.776   2.448   6.818  0.0711  0.1071  0.2108
  128OSM     NF13673   3.616   2.542   6.996 -0.5839 -0.3638  0.1551
  128OSM    HNF13674   3.580   2.469   7.054 -0.2122 -2.4299 -2.0590
  128OSM    C2S13675   3.585   2.539   6.859  0.8380  0.0025 -0.2597
  128OSM    H2S13676   3.533   2.630   6.824  0.2225 -0.4413 -0.5274
  128OSM    C3S13677   3.490   2.423   6.822 -0.0376 -0.5259 -0.0795
  128OSM    H3S13678   3.545   2.328   6.841  0.5879  0.4027  3.4732
  128OSM     O313679   3.453   2.424   6.689  0.2762 -0.5382 -0.5134
  128OSM    HO313680   3.534   2.449   6.643  1.2289  1.0586  1.8139
  128OSM    C4S13681   3.368   2.412   6.911  0.2044 -0.8972 -0.0914
  128OSM    H4S13682   3.391   2.345   6.995  2.8165  0.0958  0.0424
  128OSM    C5S13683   3.248   2.463   6.897 -0.1812  0.0581 -0.2455
  128OSM    H5S13684   3.230   2.526   6.809 -1.6127  1.6192  1.1032
  128OSM    C6S13685   3.126   2.454   6.991 -0.1992  0.8864  0.1010
  128OSM    H6S13686   3.034   2.429   6.934  1.4261 -0.8479 -1.9237
  128OSM    H6T13687   3.103   2.549   7.044 -0.9585  0.7847 -0.0289
  128OSM    C7S13688   3.144   2.366   7.108  1.2049 -0.4087 -0.6081
  128OSM    H7S13689   3.192   2.417   7.194 -0.7923  0.9435 -0.2292
  128OSM    H7T13690   3.205   2.282   7.070  0.8218  0.0473 -2.3094
  128OSM    C8S13691   3.006   2.309   7.165 -0.4808 -0.1751  0.2692
  128OSM    H8S13692   2.943   2.252   7.094  2.2842 -0.8435 -1.8163
  128OSM    H8T13693   2.936   2.390   7.196  0.0659 -0.0023  1.0973
  128OSM    C9S13694   3.042   2.202   7.281 -0.4921  0.2177 -0.6856
  128OSM    H9S13695   3.149   2.178   7.260 -0.4630 -0.3497  0.0735
  128OSM    H9T13696   2.980   2.110   7.280  1.2321 -1.0594  1.3497
  128OSM   C10S13697   3.031   2.262   7.419  0.3242 -0.8029 -0.3929
  128OSM   H10S13698   2.923   2.257   7.443 -0.5474  1.2799 -3.2686
  128OSM   H10T13699   3.058   2.369   7.410  0.4123 -0.8279 -0.4257
  128OSM   C11S13700   3.105   2.187   7.530  0.5338 -0.4254 -0.3817
  128OSM   H11S13701   3.207   2.180   7.487  0.3886 -0.7107 -0.6854
  128OSM   H11T13702   3.054   2.088   7.533 -2.3638  0.9084 -1.8419
  128OSM   C12S13703   3.108   2.252   7.666  0.0487 -0.3306 -0.4789
  128OSM   H12S13704   3.001   2.263   7.696 -0.2090  2.9620 -2.2021
  128OSM   H12T13705   3.145   2.354   7.645 -0.4870  0.4283  1.9423
  128OSM   C13S13706   3.191   2.196   7.777  0.2644  0.1545  0.2362
  128OSM   H13S13707   3.299   2.192   7.749  0.5961 -1.6048  1.5972
  128OSM   H13T13708   3.159   2.094   7.806 -1.5884  0.9591  1.1794
  128OSM   C14S13709   3.197   2.297   7.899 -0.0442  0.0235 -0.4347
  128OSM   H14S13710   3.092   2.309   7.934 -0.1430 -0.0384 -0.7061
  128OSM   H14T13711   3.224   2.395   7.855 -0.7855  0.1162 -0.6927
  128OSM   C15S13712   3.303   2.272   8.008  0.5688 -0.2073 -0.4976
  128OSM   H15S13713   3.401   2.269   7.957  0.7438  1.4897 -0.3293
  128OSM   H15T13714   3.282   2.177   8.060 -2.0422  0.5256 -0.0498
  128OSM   C16S13715   3.316   2.386   8.110  0.5160  0.4562 -0.2790
  128OSM   H16S13716   3.223   2.421   8.158 -0.1344 -1.2213 -0.2510
  128OSM   H16T13717   3.333   2.480   8.053 -0.5328  0.1572 -1.1178
  128OSM   C17S13718   3.428   2.365   8.216 -0.0006  0.4615 -0.2086
  128OSM   H17S13719   3.457   2.461   8.266  1.1502 -0.0489  0.1385
  128OSM   H17T13720   3.523   2.345   8.161 -1.2004  1.3962 -2.8103
  128OSM   C18S13721   3.390   2.278   8.328 -0.6224 -0.7171 -0.0477
  128OSM   H18S13722   3.308   2.320   8.389 -1.1092  0.9079 -1.7362
  128OSM   H18T13723   3.480   2.265   8.392 -0.3001  2.4650  0.3041
  128OSM   H18U13724   3.348   2.181   8.293  0.8593 -0.7243 -1.9773
  128OSM    C1F13725   3.691   2.640   7.048 -0.1220 -0.4281 -0.5310
  128OSM     OF13726   3.708   2.740   6.988 -0.1089 -0.1615  0.1427
  128OSM    C2F13727   3.740   2.634   7.187 -0.6542  0.2753  0.2236
  128OSM    H2F13728   3.832   2.571   7.188 -2.9173 -3.3862 -1.6885
  128OSM    H2G13729   3.663   2.589   7.254 -2.0833  0.3183 -1.3408
  128OSM    C3F13730   3.764   2.776   7.254  0.6963  0.0605 -0.1614
  128OSM    H3F13731   3.675   2.842   7.244 -0.9508 -1.9133  0.7837
  128OSM    H3G13732   3.847   2.823   7.196 -0.6263  1.4029 -1.0603
  128OSM    C4F13733   3.807   2.769   7.401 -0.0268  0.2196  0.2824
  128OSM    H4F13734   3.718   2.737   7.459  0.1741 -1.6529 -0.3834
  128OSM    H4G13735   3.841   2.871   7.427  1.7398 -0.4899  0.8690
  128OSM    C5F13736   3.928   2.680   7.426 -0.0303  0.0131  0.7000
  128OSM    H5F13737   4.002   2.720   7.353 -2.6460  3.2601 -0.4544
  128OSM    H5G13738   3.901   2.572   7.424  0.1583 -0.0189 -0.6661
  128OSM    C6F13739   3.983   2.701   7.568  0.1815 -0.0309  0.6671
  128OSM    H6F13740   3.988   2.811   7.584  0.8084  0.0817 -0.2373
  128OSM    H6G13741   4.084   2.658   7.581 -0.2442 -0.7523  1.7276
  128OSM    C7F13742   3.899   2.627   7.676 -0.3525  0.0598  0.0329
  128OSM    H7F13743   3.903   2.516   7.671  0.8886  0.0849  0.3462
  128OSM    H7G13744   3.794   2.660   7.655 -1.0201 -0.4094  2.3438
  128OSM    C8F13745   3.913   2.665   7.820  0.0381  0.2289 -0.0412
  128OSM    H8F13746   3.831   2.629   7.886 -0.5441  0.3712 -0.6751
  128OSM    H8G13747   3.900   2.775   7.830 -3.4404 -0.2129  1.9762
  128OSM    C9F13748   4.043   2.610   7.873 -0.5466  0.0544 -0.2496
  128OSM    H9F13749   4.128   2.637   7.809 -0.7397 -3.9438 -2.4741
  128OSM   C10F13750   4.068   2.522   7.970 -0.2684 -0.2736 -0.0867
  128OSM   H10F13751   4.171   2.508   8.005  0.3653  0.3864 -1.5649
  128OSM   C11F13752   3.970   2.463   8.064 -0.0799 -0.4017  0.0430
  128OSM   H11F13753   3.931   2.372   8.014 -0.1199  0.0197 -0.7115
  128OSM   H11G13754   3.883   2.527   8.088 -0.8335 -1.2802 -0.2691
  128OSM   C12F13755   4.037   2.431   8.194  0.0821 -0.0581 -0.1604
  128OSM   H12F13756   4.091   2.522   8.228 -1.5979  0.3089  1.7093
  128OSM   H12G13757   4.125   2.365   8.177 -0.4755 -1.0247  0.5935
  128OSM   C13F13758   3.954   2.362   8.299 -0.0449  0.5565 -0.4608
  128OSM   H13F13759   4.026   2.327   8.375 -2.1619 -1.1709  0.8681
  128OSM   H13G13760   3.901   2.270   8.266  0.3545  1.5161 -4.3817
  128OSM   C14F13761   3.856   2.461   8.375 -0.6076  0.0750 -0.2840
  128OSM   H14F13762   3.776   2.490   8.304  0.2497 -0.0023 -1.3060
  128OSM   H14G13763   3.919   2.539   8.423  0.0837 -2.3686  3.1338
  128OSM   C15F13764   3.797   2.396   8.502 -0.1539 -0.0969 -0.0476
  128OSM   H15F13765   3.877   2.368   8.574 -0.4189 -1.7458 -0.3502
  128OSM   H15G13766   3.760   2.297   8.465  1.3355 -0.7418  0.0936
  128OSM   C16F13767   3.697   2.479   8.567 -0.0005  0.3852 -0.2850
  128OSM   H16F13768   3.630   2.530   8.495 -0.3171 -0.7353 -0.8080
  128OSM   H16G13769   3.754   2.551   8.629  0.3528 -0.0849 -0.0569
  128OSM   C17F13770   3.606   2.390   8.651  0.1358 -0.0858  0.3155
  128OSM   H17F13771   3.639   2.379   8.756 -0.8923  0.5266  0.7226
  128OSM   H17G13772   3.596   2.288   8.608  1.2045  0.1172 -0.4417
  128OSM   C18F13773   3.469   2.462   8.672  0.8755 -0.3307  0.4623
  128OSM   H18F13774   3.475   2.533   8.757 -0.2550  2.2048 -1.4753
  128OSM   H18G13775   3.391   2.394   8.712 -0.9902  2.6196  2.1868
  128OSM   H18H13776   3.430   2.517   8.584 -2.2899 -2.1762  0.5685
  129OSM      N13777   2.372   4.402   6.244  0.0896  0.6628 -0.1099
  129OSM    C1513778   2.328   4.489   6.140  0.5214  0.1661  0.8422
  129OSM   H15A13779   2.333   4.444   6.043 -0.7372  0.9982  0.3596
  129OSM   H15B13780   2.376   4.586   6.131 -2.0464  1.3892 -1.1694
  129OSM   H15C13781   2.229   4.525   6.167  0.5954  0.9274  0.1217
  129OSM    C1413782   2.512   4.357   6.219  0.2009 -1.2023 -0.5867
  129OSM   H14A13783   2.584   4.429   6.256  1.0416 -1.9679 -0.6937
  129OSM   H14B13784   2.528   4.337   6.114  1.9702 -1.8832 -0.2365
  129OSM   H14C13785   2.521   4.262   6.270 -1.9604 -1.4265 -0.5620
  129OSM    C1313786   2.364   4.478   6.373  0.0446 -0.0372 -0.2657
  129OSM   H13A13787   2.438   4.556   6.381  0.1742  0.0682 -2.0852
  129OSM   H13B13788   2.392   4.407   6.450  1.8840  0.4984 -0.3850
  129OSM   H13C13789   2.269   4.527   6.391 -0.1955 -0.1005 -1.3229
  129OSM    C1213790   2.279   4.280   6.249  0.9118 -0.3359 -0.3356
  129OSM   H12A13791   2.285   4.223   6.158  2.5115  0.5870 -0.8462
  129OSM   H12B13792   2.181   4.324   6.258  0.8997 -0.7729  3.2538
  129OSM    C1113793   2.308   4.162   6.343 -0.7220  0.6872 -1.2555
  129OSM   H11A13794   2.214   4.103   6.340  0.0429 -0.5855 -1.0130
  129OSM   H11B13795   2.311   4.195   6.449  1.3325 -2.9911  0.0157
  129OSM      P13796   2.436   3.968   6.214 -0.1228  0.0271 -0.0910
  129OSM    O1313797   2.337   3.992   6.111  0.0203  0.1826  0.1845
  129OSM    O1413798   2.576   3.967   6.171 -0.6376  0.1341  0.2715
  129OSM    O1113799   2.402   3.842   6.301 -0.1556  0.4876 -0.3154
  129OSM    O1213800   2.424   4.089   6.317  0.0098  0.0144 -0.2296
  129OSM    C1S13801   2.508   3.760   6.351  0.1157 -0.6887  0.0483
  129OSM    H1S13802   2.610   3.800   6.332  0.3116 -1.3992 -0.4399
  129OSM    H1T13803   2.506   3.660   6.302 -1.0418 -0.6995  0.0798
  129OSM     NF13804   2.598   3.694   6.572  0.3221 -1.2731 -0.4091
  129OSM    HNF13805   2.605   3.605   6.617  0.8336 -0.9540  0.1629
  129OSM    C2S13806   2.478   3.730   6.502  0.0793  0.1292  0.0688
  129OSM    H2S13807   2.439   3.829   6.535 -2.9821 -1.2824  0.9842
  129OSM    C3S13808   2.360   3.633   6.529 -0.1351 -0.0087  0.6794
  129OSM    H3S13809   2.378   3.526   6.502 -1.8501 -0.1783  0.0779
  129OSM     O313810   2.244   3.650   6.443  0.1261 -0.0310 -0.8024
  129OSM    HO313811   2.271   3.708   6.372  2.9807  2.0065  1.7075
  129OSM    C4S13812   2.323   3.630   6.675  0.7032 -0.4671  0.0623
  129OSM    H4S13813   2.281   3.726   6.709  1.4738 -0.5014  1.1670
  129OSM    C5S13814   2.314   3.520   6.753  0.5140 -0.4383  0.0136
  129OSM    H5S13815   2.329   3.421   6.709 -1.9715 -1.1566  0.6285
  129OSM    C6S13816   2.259   3.510   6.894 -0.2793  0.1569  0.5659
  129OSM    H6S13817   2.344   3.479   6.959  1.1259  1.2097 -0.7025
  129OSM    H6T13818   2.190   3.423   6.897  0.5032 -0.5297 -0.5283
  129OSM    C7S13819   2.200   3.636   6.961  1.5847 -0.4428  1.0390
  129OSM    H7S13820   2.112   3.674   6.904 -0.6669 -1.9443  3.2708
  129OSM    H7T13821   2.275   3.717   6.973  1.8195 -0.4522 -0.2329
  129OSM    C8S13822   2.163   3.607   7.108  0.4194 -0.6666 -0.0675
  129OSM    H8S13823   2.250   3.547   7.144  0.3606 -0.5847  0.2143
  129OSM    H8T13824   2.082   3.531   7.108  0.4405 -0.7016  1.2176
  129OSM    C9S13825   2.125   3.728   7.190  0.0142 -0.5783  0.4725
  129OSM    H9S13826   2.072   3.802   7.126  1.7283  0.0881 -0.2421
  129OSM    H9T13827   2.218   3.780   7.221  0.0151 -0.8643  0.9587
  129OSM   C10S13828   2.028   3.703   7.307 -0.2187 -0.3931 -0.0274
  129OSM   H10S13829   2.066   3.637   7.388 -0.1641  0.0191  0.2864
  129OSM   H10T13830   1.940   3.646   7.271 -0.3399 -3.1574  3.9524
  129OSM   C11S13831   1.989   3.835   7.373 -0.0753 -0.1062 -0.2239
  129OSM   H11S13832   1.922   3.894   7.308 -1.2698  0.7155  1.6783
  129OSM   H11T13833   2.077   3.900   7.391  1.0973 -2.1884  2.3577
  129OSM   C12S13834   1.915   3.822   7.506  0.0147 -0.3642 -1.0739
  129OSM   H12S13835   1.944   3.731   7.562 -0.7663  1.1594  2.0090
  129OSM   H12T13836   1.807   3.805   7.490 -0.5013  1.4353  0.1641
  129OSM   C13S13837   1.950   3.930   7.612  0.8669  0.4738  0.0563
  129OSM   H13S13838   2.060   3.939   7.624  0.6771 -0.7580  4.6168
  129OSM   H13T13839   1.893   3.901   7.703 -2.4756  2.0440 -1.3661
  129OSM   C14S13840   1.902   4.073   7.580  0.3998 -0.2060  0.1097
  129OSM   H14S13841   1.797   4.062   7.543  0.5412 -1.2375 -0.0045
  129OSM   H14T13842   1.954   4.106   7.488 -0.3323  0.4620 -0.0770
  129OSM   C15S13843   1.922   4.168   7.701  0.0541  0.4061 -0.4834
  129OSM   H15S13844   1.843   4.135   7.772  0.7799  3.2738  1.8224
  129OSM   H15T13845   1.901   4.273   7.672  1.0880  0.7950  0.1390
  129OSM   C16S13846   2.064   4.153   7.760  0.5432 -0.3699 -0.6109
  129OSM   H16S13847   2.136   4.194   7.686  1.5035  1.3198  1.1523
  129OSM   H16T13848   2.093   4.051   7.793 -0.9592 -0.0005  2.2050
  129OSM   C17S13849   2.089   4.250   7.874  0.0004  0.3325  0.0197
  129OSM   H17S13850   2.039   4.348   7.859  1.5140  1.0306 -0.7447
  129OSM   H17T13851   2.198   4.274   7.871  0.4896 -1.6986  0.1823
  129OSM   C18S13852   2.046   4.196   8.012 -0.8111 -0.0574 -0.0790
  129OSM   H18S13853   2.051   4.274   8.092  2.4356 -1.2603  1.0654
  129OSM   H18T13854   2.118   4.118   8.046 -0.9510 -0.1501  0.0044
  129OSM   H18U13855   1.938   4.170   8.015 -0.7140 -0.4220  0.3975
  129OSM    C1F13856   2.687   3.789   6.605  0.2593 -0.3208 -0.4149
  129OSM     OF13857   2.671   3.905   6.572  0.1188  0.1935  0.3405
  129OSM    C2F13858   2.808   3.740   6.684  0.3124  1.4472 -0.4468
  129OSM    H2F13859   2.860   3.832   6.719 -1.1296  2.5675 -1.1535
  129OSM    H2G13860   2.873   3.671   6.626 -0.5442 -0.2867  0.5491
  129OSM    C3F13861   2.756   3.664   6.810  0.5400 -0.3359  0.0907
  129OSM    H3F13862   2.844   3.639   6.873  1.6495 -1.0018 -1.6554
  129OSM    H3G13863   2.722   3.565   6.773  1.6729 -0.3127 -1.0518
  129OSM    C4F13864   2.643   3.729   6.895  0.4700  0.7706 -0.1474
  129OSM    H4F13865   2.546   3.717   6.842  0.0392  0.7767  0.6130
  129OSM    H4G13866   2.665   3.838   6.902 -0.2015  0.9976 -1.2989
  129OSM    C5F13867   2.641   3.666   7.035 -0.3813  0.3131  0.1628
  129OSM    H5F13868   2.627   3.557   7.022  0.1270  0.2321  0.3091
  129OSM    H5G13869   2.551   3.702   7.090  0.2455  0.9883  0.7611
  129OSM    C6F13870   2.755   3.709   7.132  0.2044  0.5572 -0.6231
  129OSM    H6F13871   2.754   3.819   7.141  1.7696  0.6636 -1.4216
  129OSM    H6G13872   2.856   3.679   7.098 -0.3076 -0.1458 -1.5759
  129OSM    C7F13873   2.743   3.628   7.257 -0.3296 -0.6056 -0.0811
  129OSM    H7F13874   2.752   3.518   7.245  1.3147 -0.3016 -2.0378
  129OSM    H7G13875   2.636   3.643   7.285 -0.2324  0.9456 -0.4536
  129OSM    C8F13876   2.825   3.689   7.374  0.7468 -0.4202  0.0450
  129OSM    H8F13877   2.783   3.791   7.382  1.3104  0.1673 -3.0732
  129OSM    H8G13878   2.935   3.694   7.356  1.1108 -0.5539  1.9568
  129OSM    C9F13879   2.811   3.609   7.505  0.5787  0.1377 -0.0892
  129OSM    H9F13880   2.813   3.499   7.493  0.5764  0.2209 -0.8772
  129OSM   C10F13881   2.798   3.653   7.629 -0.3827  0.0017 -1.0590
  129OSM   H10F13882   2.790   3.582   7.712  0.7387  1.8783  0.7479
  129OSM   C11F13883   2.789   3.797   7.676 -0.4920  0.3497  0.5636
  129OSM   H11F13884   2.719   3.855   7.612 -1.2055  1.1433  2.0305
  129OSM   H11G13885   2.893   3.837   7.668 -0.6488  0.6912  0.1556
  129OSM   C12F13886   2.754   3.812   7.822 -0.0175 -0.0140  0.6923
  129OSM   H12F13887   2.652   3.776   7.850 -0.4192  0.7518  0.2405
  129OSM   H12G13888   2.737   3.919   7.847  0.8802  0.7332 -1.6449
  129OSM   C13F13889   2.851   3.756   7.923  0.3942  0.2751 -0.0436
  129OSM   H13F13890   2.950   3.782   7.881 -0.0434 -0.4704 -1.6170
  129OSM   H13G13891   2.852   3.645   7.933  2.9610  0.3643  1.9048
  129OSM   C14F13892   2.831   3.828   8.055  0.3401 -0.2671 -0.4398
  129OSM   H14F13893   2.728   3.812   8.092 -0.1753  0.1419 -1.6568
  129OSM   H14G13894   2.837   3.936   8.030  2.6618 -0.7155 -2.2096
  129OSM   C15F13895   2.926   3.794   8.166 -0.9925  0.6381 -0.0659
  129OSM   H15F13896   2.906   3.878   8.236  0.7165  0.7685  0.3073
  129OSM   H15G13897   3.031   3.808   8.135 -0.7145  1.3327  1.1516
  129OSM   C16F13898   2.898   3.668   8.253 -0.2234  0.6860 -0.0658
  129OSM   H16F13899   2.904   3.584   8.181  0.2119  0.2235  0.5040
  129OSM   H16G13900   2.800   3.681   8.303 -0.4880 -1.5916  0.0855
  129OSM   C17F13901   2.998   3.659   8.369 -0.2796  0.2728 -0.0357
  129OSM   H17F13902   3.013   3.757   8.419  0.4009 -0.5906  1.5294
  129OSM   H17G13903   3.096   3.631   8.323 -0.1964 -1.4452  1.1090
  129OSM   C18F13904   2.958   3.548   8.461  0.6884 -0.0472  0.3698
  129OSM   H18F13905   2.849   3.547   8.484  0.6272 -0.6341  0.0766
  129OSM   H18G13906   3.019   3.545   8.554  1.9626 -0.5335 -0.4581
  129OSM   H18H13907   2.958   3.443   8.424 -2.6171  0.2746 -0.9349
  130OSM      N13908   4.327   0.964   6.264 -0.8061  0.0538 -0.1604
  130OSM    C1513909   4.341   1.056   6.148 -0.4246  0.1776  0.3045
  130OSM   H15A13910   4.272   1.032   6.068  1.1213 -1.1979 -0.6840
  130OSM   H15B13911   4.441   1.047   6.107 -0.5080 -0.3043  0.1948
  130OSM   H15C13912   4.322   1.158   6.177 -1.4925 -0.0632  0.4988
  130OSM    C1413913   4.180   0.953   6.274 -0.4007  0.3049 -0.5987
  130OSM   H14A13914   4.146   1.052   6.304  4.1534  1.8871  0.2093
  130OSM   H14B13915   4.156   0.881   6.350  1.1948  0.3663  0.0029
  130OSM   H14C13916   4.142   0.924   6.178 -1.1009 -2.7473  0.4979
  130OSM    C1313917   4.403   0.846   6.226 -0.4631 -0.3995  0.8417
  130OSM   H13A13918   4.501   0.880   6.194 -0.4954  0.9862  2.1083
  130OSM   H13B13919   4.364   0.794   6.140 -1.3336 -2.0435  2.1650
  130OSM   H13C13920   4.416   0.770   6.302  3.2431  0.4702  1.2807
  130OSM    C1213921   4.391   1.035   6.387  0.3971 -0.7256  0.0784
  130OSM   H12A13922   4.360   1.139   6.392  4.1974  0.5642  0.0401
  130OSM   H12B13923   4.497   1.035   6.365  0.4658 -1.4147  0.3982
  130OSM    C1113924   4.381   0.971   6.518  0.8775  0.3525 -0.8483
  130OSM   H11A13925   4.277   0.952   6.553  1.4757 -2.5643 -0.3049
  130OSM   H11B13926   4.417   1.038   6.599 -1.8155  0.7919  0.1170
  130OSM      P13927   4.595   0.848   6.550 -0.2273 -0.3674 -0.0004
  130OSM    O1313928   4.650   0.723   6.499  0.5163  0.5411  0.0653
  130OSM    O1413929   4.650   0.980   6.499  0.7420  0.3688  0.1691
  130OSM    O1113930   4.601   0.839   6.702  0.0706  0.4499  0.0602
  130OSM    O1213931   4.445   0.847   6.517 -0.2448  0.4737  0.0487
  130OSM    C1S13932   4.535   0.747   6.794 -0.1088 -0.1071 -1.2871
  130OSM    H1S13933   4.552   0.645   6.753  1.6310  0.0069 -0.9136
  130OSM    H1T13934   4.426   0.769   6.796  0.2176  1.6058 -1.1030
  130OSM     NF13935   4.544   0.630   7.010 -0.2660  0.1432 -0.4084
  130OSM    HNF13936   4.471   0.639   7.077  1.2717  0.2093  1.3397
  130OSM    C2S13937   4.600   0.746   6.935  0.3957  0.5386 -0.2275
  130OSM    H2S13938   4.710   0.734   6.920  0.4949  1.0337  0.0876
  130OSM    C3S13939   4.580   0.889   6.999  0.1800  0.7731 -0.6097
  130OSM    H3S13940   4.473   0.916   7.013 -0.4899 -1.7120 -0.4146
  130OSM     O313941   4.620   0.995   6.915 -0.0750 -0.0083  0.0682
  130OSM    HO313942   4.632   0.949   6.831  0.2862  0.5487 -0.1935
  130OSM    C4S13943   4.648   0.893   7.132  0.5088 -0.2189  0.5085
  130OSM    H4S13944   4.581   0.875   7.217  3.0459 -0.0620  2.6303
  130OSM    C5S13945   4.778   0.902   7.155  0.1760  0.7943 -0.3251
  130OSM    H5S13946   4.837   0.912   7.063 -0.5793  2.1687 -0.6879
  130OSM    C6S13947   4.851   0.907   7.286  0.1160 -0.1717 -0.7613
  130OSM    H6S13948   4.912   0.999   7.276  1.8280 -1.2556 -0.8321
  130OSM    H6T13949   4.933   0.832   7.273 -1.4651 -1.7364 -2.1293
  130OSM    C7S13950   4.788   0.892   7.426  0.2989  0.0280 -0.4507
  130OSM    H7S13951   4.749   0.788   7.433  1.0960 -0.3297 -1.1154
  130OSM    H7T13952   4.699   0.958   7.442 -0.0838 -0.3218 -1.0635
  130OSM    C8S13953   4.889   0.919   7.538  0.0216 -0.5217 -0.2055
  130OSM    H8S13954   4.940   1.017   7.526  0.9061 -1.1304 -1.7931
  130OSM    H8T13955   4.976   0.851   7.529 -1.0169 -2.0005  0.5318
  130OSM    C9S13956   4.815   0.924   7.674  0.2069  0.7873  0.2870
  130OSM    H9S13957   4.775   0.822   7.683  0.0988  0.7533 -0.5418
  130OSM    H9T13958   4.727   0.991   7.679 -0.6361 -0.3768  2.8039
  130OSM   C10S13959   4.911   0.951   7.791  0.6240 -0.1503  0.1637
  130OSM   H10S13960   4.958   1.050   7.773 -2.3029  1.1754 -0.6803
  130OSM   H10T13961   4.993   0.876   7.785  0.1736 -0.5029 -2.2832
  130OSM   C11S13962   4.838   0.951   7.921  0.2099  0.2161  0.2764
  130OSM   H11S13963   4.800   0.847   7.928 -3.7292  1.5757  2.1162
  130OSM   H11T13964   4.752   1.022   7.923  0.1565  0.1517  0.2740
  130OSM   C12S13965   4.935   0.964   8.040 -0.2610 -0.1357  0.4776
  130OSM   H12S13966   4.960   1.069   8.066 -0.2973  0.0477 -0.2140
  130OSM   H12T13967   5.023   0.908   8.004  0.9863  0.7436  2.0170
  130OSM   C13S13968   4.878   0.918   8.174  0.5077 -0.0377 -0.0200
  130OSM   H13S13969   4.859   0.810   8.155 -1.5247  0.4892 -1.2884
  130OSM   H13T13970   4.776   0.959   8.189  0.8501  0.7945  0.0939
  130OSM   C14S13971   4.968   0.938   8.292  0.6356 -0.2921  0.3949
  130OSM   H14S13972   4.914   1.003   8.364 -0.1989 -1.3140  0.7148
  130OSM   H14T13973   5.058   0.995   8.259  2.1593 -2.5963  0.3222
  130OSM   C15S13974   5.016   0.816   8.366 -1.1449 -0.1677  0.2631
  130OSM   H15S13975   5.074   0.751   8.296 -1.0498 -1.0025  1.0798
  130OSM   H15T13976   4.925   0.772   8.412 -0.8534 -1.3765 -0.2620
  130OSM   C16S13977   5.112   0.865   8.475  0.4410 -0.1132  0.2540
  130OSM   H16S13978   5.188   0.928   8.424  1.2184 -1.9257 -0.9414
  130OSM   H16T13979   5.161   0.779   8.525  1.5211 -0.7689 -1.8502
  130OSM   C17S13980   5.032   0.928   8.591  0.1054  0.8699  0.8650
  130OSM   H17S13981   4.981   0.842   8.640  0.6494 -0.3885 -0.6995
  130OSM   H17T13982   4.948   0.991   8.554 -0.9601 -0.4744  0.9026
  130OSM   C18S13983   5.116   0.999   8.693 -0.4779 -0.2638 -0.3330
  130OSM   H18S13984   5.186   0.938   8.754  1.0875  0.7833 -1.0110
  130OSM   H18T13985   5.056   1.061   8.764 -0.5979  0.7032 -1.2516
  130OSM   H18U13986   5.180   1.077   8.645  0.6378 -1.6280 -1.1278
  130OSM    C1F13987   4.576   0.503   6.977 -0.4357  0.0250 -0.6277
  130OSM     OF13988   4.654   0.482   6.888 -0.0294  0.5133  0.1242
  130OSM    C2F13989   4.512   0.398   7.053  0.1972  0.3764 -0.5731
  130OSM    H2F13990   4.452   0.324   6.996 -0.8524  0.2324  0.6803
  130OSM    H2G13991   4.448   0.448   7.129  1.6176  0.1438  0.8281
  130OSM    C3F13992   4.620   0.331   7.141 -0.0815  0.4405  0.3794
  130OSM    H3F13993   4.703   0.293   7.078 -1.1223  1.0373 -1.4344
  130OSM    H3G13994   4.571   0.245   7.192 -0.2644  0.9904  1.1543
  130OSM    C4F13995   4.685   0.426   7.246  0.3213  0.3963 -0.0323
  130OSM    H4F13996   4.717   0.520   7.196 -1.9854  0.7801 -0.9227
  130OSM    H4G13997   4.767   0.362   7.285 -0.6851 -1.3850 -0.7319
  130OSM    C5F13998   4.592   0.471   7.361  0.5874 -0.4814 -0.3327
  130OSM    H5F13999   4.507   0.533   7.325  0.8725 -0.2552 -0.6282
  130OSM    H5G14000   4.654   0.531   7.431  0.5127 -1.0630  0.2395
  130OSM    C6F14001   4.522   0.355   7.438 -0.6882 -0.4012 -0.0966
  130OSM    H6F14002   4.589   0.268   7.452  1.7515  1.3660 -0.1079
  130OSM    H6G14003   4.430   0.327   7.382 -0.2354 -2.3298  0.0548
  130OSM    C7F14004   4.512   0.396   7.585 -0.2957  0.5706  0.1449
  130OSM    H7F14005   4.452   0.490   7.581 -1.5546 -0.2354 -0.5445
  130OSM    H7G14006   4.610   0.416   7.634 -1.1386  1.8539  1.3700
  130OSM    C8F14007   4.437   0.297   7.667  0.4151  0.1674  0.2753
  130OSM    H8F14008   4.341   0.302   7.611  1.6400  2.7451 -1.7957
  130OSM    H8G14009   4.415   0.351   7.761 -0.9614  0.3578 -0.1217
  130OSM    C9F14010   4.471   0.153   7.694 -0.5320 -0.5664  0.3030
  130OSM    H9F14011   4.495   0.096   7.603 -0.9235  0.9333 -0.7670
  130OSM   C10F14012   4.496   0.099   7.812  0.3165  0.0439 -0.7248
  130OSM   H10F14013   4.528  -0.006   7.811 -0.3857 -0.2365  1.3921
  130OSM   C11F14014   4.480   0.174   7.941 -0.2306  0.1304 -0.5140
  130OSM   H11F14015   4.375   0.164   7.977 -0.0270 -0.2319 -0.0196
  130OSM   H11G14016   4.513   0.280   7.941 -0.2423  0.1340  0.0744
  130OSM   C12F14017   4.549   0.109   8.061 -0.1994 -0.4887 -0.0399
  130OSM   H12F14018   4.659   0.124   8.061 -0.4578  1.6295  0.3052
  130OSM   H12G14019   4.532  -0.001   8.073 -0.5722 -0.4442 -0.1283
  130OSM   C13F14020   4.490   0.151   8.196 -0.2279  0.6235  0.0383
  130OSM   H13F14021   4.392   0.101   8.209 -0.8547  2.0480  1.0733
  130OSM   H13G14022   4.468   0.259   8.213  1.3841  0.8794  0.7085
  130OSM   C14F14023   4.572   0.098   8.308 -0.3596  0.2841  0.2031
  130OSM   H14F14024   4.678   0.131   8.295  0.0934 -0.2624  2.1574
  130OSM   H14G14025   4.571  -0.011   8.285  2.3610  0.8028 -3.2241
  130OSM   C15F14026   4.516   0.136   8.445  0.9345 -0.9031 -0.0432
  130OSM   H15F14027   4.410   0.104   8.453  1.2167 -1.9377 -0.3477
  130OSM   H15G14028   4.503   0.244   8.467  0.2461 -1.2368  1.2786
  130OSM   C16F14029   4.598   0.080   8.564  0.4944 -0.6978 -0.0593
  130OSM   H16F14030   4.702   0.116   8.549  0.3551 -0.3845 -0.2707
  130OSM   H16G14031   4.597  -0.032   8.565  0.9102 -0.7131  1.6522
  130OSM   C17F14032   4.557   0.128   8.704 -0.3580 -0.4379 -0.1083
  130OSM   H17F14033   4.613   0.072   8.782  0.0078  0.2783  0.1635
  130OSM   H17G14034   4.450   0.102   8.722 -0.2671  0.1060  1.3588
  130OSM   C18F14035   4.562   0.274   8.732 -0.5553 -0.3000 -0.1514
  130OSM   H18F14036   4.500   0.338   8.666  2.5051  0.5343 -2.4260
  130OSM   H18G14037   4.666   0.308   8.713  0.0574 -1.3744  1.0712
  130OSM   H18H14038   4.535   0.292   8.839  0.3998  1.5325 -0.1747
  131OSM      N14039   2.503   1.206   6.316  0.0308 -0.6389 -0.4371
  131OSM    C1514040   2.398   1.310   6.271 -0.1600 -0.5349  1.0181
  131OSM   H15A14041   2.441   1.406   6.295  0.9074 -1.1225  1.5422
  131OSM   H15B14042   2.296   1.298   6.302 -1.7964 -0.5515 -3.5852
  131OSM   H15C14043   2.389   1.314   6.163 -0.0555  1.3588  1.0539
  131OSM    C1414044   2.487   1.192   6.460  0.7144  0.1095  0.6733
  131OSM   H14A14045   2.532   1.103   6.500  0.6835 -0.6768 -0.9278
  131OSM   H14B14046   2.386   1.219   6.484  0.3030  0.9442 -1.6994
  131OSM   H14C14047   2.547   1.269   6.504  0.1085  0.7263  0.4310
  131OSM    C1314048   2.474   1.071   6.252  0.1681 -0.1883 -0.5122
  131OSM   H13A14049   2.372   1.036   6.252 -0.0693  0.2764 -3.3224
  131OSM   H13B14050   2.538   0.999   6.300 -0.6886 -0.1241  0.7690
  131OSM   H13C14051   2.496   1.084   6.147 -0.9473  0.2507 -0.7112
  131OSM    C1214052   2.649   1.248   6.292 -0.7925 -0.1382 -1.0991
  131OSM   H12A14053   2.659   1.341   6.345 -3.9789 -0.7759  0.8729
  131OSM   H12B14054   2.660   1.278   6.189  1.5026  1.3483 -0.5030
  131OSM    C1114055   2.761   1.150   6.334 -0.2277  0.4550 -0.2215
  131OSM   H11A14056   2.742   1.051   6.288  3.4208 -0.3447 -0.3580
  131OSM   H11B14057   2.767   1.142   6.445 -0.4532 -2.5617 -0.3491
  131OSM      P14058   2.936   1.340   6.323  0.1339  0.0902 -0.0642
  131OSM    O1314059   3.081   1.349   6.286 -0.3994  0.1790  0.0571
  131OSM    O1414060   2.845   1.442   6.270 -0.1748  0.8747 -0.1017
  131OSM    O1114061   2.916   1.353   6.480 -0.0154 -0.1764 -0.2732
  131OSM    O1214062   2.883   1.197   6.289 -0.5421  0.2433  0.6793
  131OSM    C1S14063   3.002   1.274   6.564  0.0871 -0.0407  0.4064
  131OSM    H1S14064   3.097   1.329   6.580 -0.4597  1.0814 -0.0640
  131OSM    H1T14065   3.004   1.172   6.519  0.3541  0.2542 -0.2633
  131OSM     NF14066   3.013   1.167   6.788  0.2265  0.2058 -0.3645
  131OSM    HNF14067   2.961   1.084   6.807  0.4471  0.3549  1.0137
  131OSM    C2S14068   2.947   1.272   6.713  0.1435  0.0373  0.4918
  131OSM    H2S14069   2.956   1.372   6.761 -0.6285  0.5586 -0.4317
  131OSM    C3S14070   2.792   1.241   6.715 -0.4037 -0.2541 -0.1189
  131OSM    H3S14071   2.788   1.144   6.660  0.1540  0.4835 -1.4968
  131OSM     O314072   2.718   1.332   6.633  1.0293 -0.2344 -0.1865
  131OSM    HO314073   2.776   1.353   6.560 -0.0957  2.5270 -0.3903
  131OSM    C4S14074   2.731   1.223   6.850  0.0292  0.4629  0.1199
  131OSM    H4S14075   2.742   1.127   6.903  1.7216  2.2215  3.2473
  131OSM    C5S14076   2.663   1.310   6.924  0.0620 -0.2424  0.6880
  131OSM    H5S14077   2.627   1.403   6.878  1.5198 -1.2805 -2.9927
  131OSM    C6S14078   2.614   1.264   7.059  0.0966  0.5235 -0.0060
  131OSM    H6S14079   2.592   1.343   7.133 -0.7431 -0.5925  0.9866
  131OSM    H6T14080   2.683   1.190   7.106 -3.0314 -2.0161  0.9899
  131OSM    C7S14081   2.486   1.168   7.036  0.3646 -0.6795  0.0777
  131OSM    H7S14082   2.508   1.083   6.967 -0.4438 -0.7080 -0.1474
  131OSM    H7T14083   2.407   1.228   6.986 -0.3133 -0.7844  1.0013
  131OSM    C8S14084   2.421   1.122   7.167 -0.0175  0.3155 -0.5431
  131OSM    H8S14085   2.319   1.088   7.139 -0.5418  1.2925  0.1226
  131OSM    H8T14086   2.414   1.212   7.232 -1.0469  1.1316 -1.7404
  131OSM    C9S14087   2.495   1.006   7.244 -0.2085  0.5222 -0.3111
  131OSM    H9S14088   2.593   1.044   7.279 -0.8056  0.5829  1.3598
  131OSM    H9T14089   2.505   0.931   7.163 -0.3391 -0.6912  0.7599
  131OSM   C10S14090   2.424   0.930   7.355  0.1261  0.2402  0.0589
  131OSM   H10S14091   2.401   1.006   7.433 -0.0013 -1.2087  1.5000
  131OSM   H10T14092   2.488   0.850   7.399 -0.7723 -0.1958  0.6050
  131OSM   C11S14093   2.297   0.862   7.312  0.3714 -0.4291  0.3597
  131OSM   H11S14094   2.331   0.787   7.237 -0.6530  1.4412 -2.0997
  131OSM   H11T14095   2.236   0.928   7.246  1.5311 -0.6980 -1.0324
  131OSM   C12S14096   2.223   0.805   7.435  0.5599 -0.2862 -0.2926
  131OSM   H12S14097   2.115   0.786   7.416  0.6240  0.9263 -2.0450
  131OSM   H12T14098   2.215   0.883   7.513  0.8119 -1.3697  0.8632
  131OSM   C13S14099   2.298   0.688   7.499 -0.4900  0.0837 -0.3936
  131OSM   H13S14100   2.391   0.723   7.549 -1.2215 -0.2609  1.2824
  131OSM   H13T14101   2.341   0.613   7.430 -3.6290 -2.4904  0.2371
  131OSM   C14S14102   2.216   0.633   7.618 -0.0841  0.5120 -0.7316
  131OSM   H14S14103   2.131   0.573   7.579 -1.9112  2.1358  0.5913
  131OSM   H14T14104   2.165   0.719   7.666 -0.1444 -0.0325  0.2020
  131OSM   C15S14105   2.296   0.558   7.731  0.6265 -0.0646 -0.0391
  131OSM   H15S14106   2.392   0.608   7.757 -0.0491  1.6104 -0.6303
  131OSM   H15T14107   2.315   0.461   7.681 -0.2033 -0.0995 -0.2970
  131OSM   C16S14108   2.218   0.552   7.868  0.0852 -0.5171  0.3158
  131OSM   H16S14109   2.294   0.509   7.937  1.1178 -0.0418 -0.4969
  131OSM   H16T14110   2.126   0.489   7.869 -0.2943  0.0301  0.0334
  131OSM   C17S14111   2.173   0.689   7.929 -0.5782  0.1886 -0.0390
  131OSM   H17S14112   2.129   0.671   8.029  1.0559  0.2818  0.7168
  131OSM   H17T14113   2.085   0.724   7.871 -1.0050 -0.3169  0.3016
  131OSM   C18S14114   2.262   0.810   7.954 -0.0365 -0.3572 -0.2090
  131OSM   H18S14115   2.327   0.832   7.866  1.6918  1.2122  1.3756
  131OSM   H18T14116   2.321   0.787   8.045 -0.1779 -0.6905 -0.2021
  131OSM   H18U14117   2.216   0.910   7.971  1.0018  0.5814 -2.4507
  131OSM    C1F14118   3.143   1.168   6.812 -0.2633  0.4200 -0.6039
  131OSM     OF14119   3.208   1.267   6.800 -0.9619 -0.3225 -0.5748
  131OSM    C2F14120   3.204   1.027   6.834  0.0119  0.3738 -0.2447
  131OSM    H2F14121   3.234   0.984   6.736 -1.5865  0.6478 -0.8840
  131OSM    H2G14122   3.113   0.973   6.869  1.2688  0.1543  3.0464
  131OSM    C3F14123   3.328   1.036   6.926 -0.2110 -1.0101 -0.2078
  131OSM    H3F14124   3.310   1.092   7.021 -1.5591 -0.5674 -0.7000
  131OSM    H3G14125   3.408   1.082   6.864 -1.1447 -1.1175 -1.5288
  131OSM    C4F14126   3.387   0.902   6.969  0.0848 -0.1699  0.7979
  131OSM    H4F14127   3.392   0.837   6.880  1.3425  1.8374 -0.6673
  131OSM    H4G14128   3.317   0.856   7.042 -0.0351  1.2169  1.6036
  131OSM    C5F14129   3.527   0.907   7.035 -0.3414  0.6244 -0.0511
  131OSM    H5F14130   3.598   0.957   6.966  0.8351  0.7866  1.2347
  131OSM    H5G14131   3.571   0.806   7.025 -0.0993  0.7707 -0.5169
  131OSM    C6F14132   3.524   0.976   7.174 -0.2604 -0.1503  0.2938
  131OSM    H6F14133   3.464   0.922   7.250  1.1148  0.8953  2.2382
  131OSM    H6G14134   3.476   1.076   7.166  0.9860  0.5241  0.8842
  131OSM    C7F14135   3.665   0.990   7.228  0.6988  0.5940 -0.0694
  131OSM    H7F14136   3.724   1.057   7.162 -1.1191 -1.7567 -4.5128
  131OSM    H7G14137   3.715   0.891   7.220  0.9457  0.8667 -3.1015
  131OSM    C8F14138   3.675   1.040   7.373 -0.1425 -0.4166  0.1320
  131OSM    H8F14139   3.591   1.113   7.380 -0.3083 -0.6714  0.8532
  131OSM    H8G14140   3.774   1.090   7.382  0.3030 -0.7639 -2.1825
  131OSM    C9F14141   3.643   0.939   7.479  0.9579 -0.0622  0.2723
  131OSM    H9F14142   3.556   0.874   7.462 -1.2083  2.5886  0.4879
  131OSM   C10F14143   3.725   0.919   7.583 -0.5095  0.5585 -0.4629
  131OSM   H10F14144   3.700   0.835   7.651 -1.2081  1.2651  0.1761
  131OSM   C11F14145   3.843   1.005   7.630  0.8193  0.3091 -0.2195
  131OSM   H11F14146   3.889   1.055   7.543 -1.8028  1.7648 -0.8780
  131OSM   H11G14147   3.912   0.938   7.686  0.9163 -1.3099 -2.1555
  131OSM   C12F14148   3.813   1.117   7.728  0.5768  1.4228 -0.7396
  131OSM   H12F14149   3.730   1.179   7.689 -0.3288 -0.3204 -1.7164
  131OSM   H12G14150   3.898   1.186   7.748  0.5259  1.1916  0.3705
  131OSM   C13F14151   3.790   1.053   7.867 -0.2382  0.4636  0.7378
  131OSM   H13F14152   3.744   0.952   7.867  2.3332 -0.8326 -1.7658
  131OSM   H13G14153   3.721   1.116   7.927 -0.9115 -0.8781  1.4189
  131OSM   C14F14154   3.920   1.045   7.950  0.0922 -0.0504  0.2006
  131OSM   H14F14155   3.968   1.145   7.944 -1.3959  0.7183  0.5438
  131OSM   H14G14156   3.985   0.960   7.923 -0.5854 -1.2193  2.0560
  131OSM   C15F14157   3.897   1.003   8.096  0.7502  0.7919 -0.1752
  131OSM   H15F14158   3.852   0.901   8.100 -0.6372  1.3465 -1.0141
  131OSM   H15G14159   3.817   1.064   8.142 -1.0887 -0.9188 -0.9590
  131OSM   C16F14160   4.026   1.010   8.180 -0.3555  0.1012 -0.4073
  131OSM   H16F14161   4.074   1.109   8.167  0.6238 -0.2890  0.1083
  131OSM   H16G14162   4.102   0.942   8.136 -1.6925 -0.1090 -2.5244
  131OSM   C17F14163   4.018   0.988   8.333 -0.0331 -0.1729 -0.6985
  131OSM   H17F14164   3.954   0.899   8.354  0.5718 -0.3948  0.2444
  131OSM   H17G14165   3.954   1.064   8.384  1.3848 -0.1279  1.0974
  131OSM   C18F14166   4.152   0.997   8.400 -0.0216  0.1644 -0.0820
  131OSM   H18F14167   4.211   1.087   8.373  0.1865  0.3374  0.9180
  131OSM   H18G14168   4.213   0.913   8.361 -0.2173  0.6573 -1.5071
  131OSM   H18H14169   4.148   0.971   8.508  0.7761 -0.2520 -0.1521
  132OSM      N14170   3.853   3.166   6.077 -0.3698 -0.4695  0.2175
  132OSM    C1514171   3.709   3.148   6.071 -0.3907  0.8906  0.3001
  132OSM   H15A14172   3.703   3.068   5.999  0.7399  0.7841  0.3166
  132OSM   H15B14173   3.659   3.238   6.037  0.1228  0.7373 -0.8970
  132OSM   H15C14174   3.669   3.114   6.166 -0.3531 -2.1587 -0.6816
  132OSM    C1414175   3.918   3.169   5.941 -0.4254  0.3491 -0.0177
  132OSM   H14A14176   4.026   3.174   5.932 -0.2506  0.3361  1.7026
  132OSM   H14B14177   3.869   3.245   5.883 -0.8208  0.8546  0.9699
  132OSM   H14C14178   3.886   3.078   5.892  1.4901  0.3742 -1.4619
  132OSM    C1314179   3.881   3.300   6.148  0.3234 -0.3495  0.2032
  132OSM   H13A14180   3.833   3.293   6.244 -3.6361  0.1419 -1.5245
  132OSM   H13B14181   3.834   3.381   6.094  2.1004  0.3862 -0.3052
  132OSM   H13C14182   3.986   3.324   6.142 -0.1157  1.8507  0.3366
  132OSM    C1214183   3.915   3.052   6.151  0.5134  0.2881  1.1382
  132OSM   H12A14184   4.019   3.049   6.121  0.9080 -0.8930  2.5271
  132OSM   H12B14185   3.881   2.955   6.117  1.2422 -0.1467  1.6314
  132OSM    C1114186   3.906   3.059   6.302 -0.3262  0.1686 -0.0758
  132OSM   H11A14187   3.944   3.158   6.336 -0.7791 -0.2690  1.8191
  132OSM   H11B14188   3.980   2.986   6.341  0.4584  0.6286 -0.6772
  132OSM      P14189   3.689   3.114   6.445  0.0405  0.0456  0.4305
  132OSM    O1314190   3.677   3.250   6.394  0.1457  0.0101 -0.0826
  132OSM    O1414191   3.568   3.034   6.476  0.4172  0.7236 -0.6859
  132OSM    O1114192   3.788   3.122   6.575  0.6208  0.5211 -0.2144
  132OSM    O1214193   3.774   3.023   6.348  0.2278 -0.0324  0.0906
  132OSM    C1S14194   3.806   3.004   6.660  0.1201 -0.6824  0.1528
  132OSM    H1S14195   3.885   2.944   6.612  0.0068 -0.4617 -0.3104
  132OSM    H1T14196   3.713   2.944   6.669  0.2696 -1.0594 -0.7289
  132OSM     NF14197   3.884   2.909   6.868  0.3734 -0.6485  1.0952
  132OSM    HNF14198   3.814   2.847   6.902 -1.2051  0.2321 -0.3902
  132OSM    C2S14199   3.846   3.039   6.812  0.1305 -0.2952 -0.8503
  132OSM    H2S14200   3.937   3.103   6.817 -0.3853  0.4158  3.4801
  132OSM    C3S14201   3.730   3.098   6.886  0.3943 -0.1109 -0.6858
  132OSM    H3S14202   3.649   3.022   6.897  0.6638 -0.2169  0.6532
  132OSM     O314203   3.668   3.215   6.827 -0.0824 -0.1879  0.1303
  132OSM    HO314204   3.692   3.200   6.736  2.1344  2.3988  0.1583
  132OSM    C4S14205   3.769   3.136   7.033 -0.0171  0.2506  0.2455
  132OSM    H4S14206   3.722   3.071   7.109 -0.7981  0.8028  0.2437
  132OSM    C5S14207   3.839   3.245   7.072 -0.0119  0.7738 -0.9836
  132OSM    H5S14208   3.872   3.312   6.991  3.7275 -0.2945 -0.4827
  132OSM    C6S14209   3.886   3.273   7.212 -0.5398  0.1529  0.5958
  132OSM    H6S14210   3.832   3.202   7.279 -1.0165 -1.4992 -1.4578
  132OSM    H6T14211   3.848   3.377   7.223  1.3146  0.9539 -0.1584
  132OSM    C7S14212   4.038   3.267   7.232  0.7889  0.2753 -0.6068
  132OSM    H7S14213   4.075   3.356   7.177 -0.5677 -1.1293 -4.0588
  132OSM    H7T14214   4.066   3.175   7.176 -1.9986  0.5187 -2.6278
  132OSM    C8S14215   4.088   3.293   7.379 -0.5644 -0.3035 -0.1773
  132OSM    H8S14216   4.046   3.388   7.418  0.3021 -0.1623  0.4272
  132OSM    H8T14217   4.198   3.290   7.367 -0.3537  0.4801  1.3917
  132OSM    C9S14218   4.035   3.188   7.470 -0.3965 -0.1900 -0.6750
  132OSM    H9S14219   4.074   3.088   7.443 -0.3368 -0.2436 -0.3989
  132OSM    H9T14220   3.924   3.182   7.470 -0.3704 -1.4195  0.7774
  132OSM   C10S14221   4.077   3.199   7.622 -0.7026 -0.2520  0.0887
  132OSM   H10S14222   4.063   3.306   7.647  0.2295  0.0721 -0.7284
  132OSM   H10T14223   4.187   3.187   7.634 -0.4772  1.0868 -0.4494
  132OSM   C11S14224   4.010   3.107   7.714  0.7352 -0.2372 -0.8518
  132OSM   H11S14225   4.025   2.998   7.693 -2.8729 -1.1975  0.7257
  132OSM   H11T14226   3.901   3.115   7.693  0.7240 -0.9899 -1.1333
  132OSM   C12S14227   4.027   3.140   7.864  0.0136  0.1052  0.8927
  132OSM   H12S14228   4.002   3.248   7.870 -1.8248 -0.2460  0.2213
  132OSM   H12T14229   4.128   3.113   7.900 -0.0407  0.9834  1.7554
  132OSM   C13S14230   3.945   3.055   7.962 -0.2135 -0.3499  0.1128
  132OSM   H13S14231   3.955   2.947   7.939 -0.4044 -0.4131  0.3215
  132OSM   H13T14232   3.836   3.077   7.954 -0.3054 -0.8166  0.0669
  132OSM   C14S14233   3.975   3.077   8.112 -0.3168  0.0525  0.8279
  132OSM   H14S14234   3.903   3.026   8.179 -0.7360 -2.3911 -1.3295
  132OSM   H14T14235   3.970   3.187   8.127  1.1345  0.3021 -0.2503
  132OSM   C15S14236   4.112   3.025   8.148 -0.4469  0.1109  0.3723
  132OSM   H15S14237   4.187   3.090   8.100 -0.6629 -0.9006 -1.4011
  132OSM   H15T14238   4.131   2.924   8.107  1.3121  0.1275  1.0718
  132OSM   C16S14239   4.127   3.024   8.306  0.3732  0.8426 -0.3276
  132OSM   H16S14240   4.232   3.018   8.343 -1.1729  0.3394  4.6018
  132OSM   H16T14241   4.060   2.943   8.341  2.5314 -1.1505 -0.5234
  132OSM   C17S14242   4.066   3.150   8.381  0.5603 -0.1923 -0.2742
  132OSM   H17S14243   3.958   3.166   8.365  0.3690 -0.4810  0.6943
  132OSM   H17T14244   4.124   3.239   8.345  0.5336 -0.2570 -0.4809
  132OSM   C18S14245   4.092   3.152   8.531 -0.1873  0.0517 -0.0941
  132OSM   H18S14246   4.202   3.159   8.544 -0.0542 -0.4040 -0.9520
  132OSM   H18T14247   4.047   3.063   8.578  0.2489  0.9198  2.0748
  132OSM   H18U14248   4.045   3.238   8.584  1.3777  0.4113  0.7703
  132OSM    C1F14249   4.001   2.859   6.833  0.1958  0.5391  0.2838
  132OSM     OF14250   4.092   2.920   6.770  0.4538  0.0902 -0.1452
  132OSM    C2F14251   4.027   2.714   6.873 -0.2256 -0.0040 -0.0362
  132OSM    H2F14252   4.023   2.647   6.785  1.6831 -1.6240  1.0439
  132OSM    H2G14253   3.955   2.682   6.952  0.8816 -0.6469  0.7460
  132OSM    C3F14254   4.161   2.696   6.952  0.3418  0.4262 -0.1921
  132OSM    H3F14255   4.236   2.718   6.873  0.0558  0.3821 -0.4748
  132OSM    H3G14256   4.171   2.589   6.981 -0.3709  0.3841 -0.0890
  132OSM    C4F14257   4.175   2.783   7.078  0.0784  0.1935 -0.2627
  132OSM    H4F14258   4.111   2.749   7.163  0.2047  0.1856 -0.1684
  132OSM    H4G14259   4.138   2.884   7.050 -2.5542 -0.9042 -1.0006
  132OSM    C5F14260   4.322   2.777   7.117 -1.1083 -0.4995  0.2998
  132OSM    H5F14261   4.375   2.817   7.028  1.4738 -1.0298  1.5166
  132OSM    H5G14262   4.360   2.672   7.121  1.4820  0.3974  0.8527
  132OSM    C6F14263   4.357   2.858   7.247  0.1733  1.0182 -0.7002
  132OSM    H6F14264   4.290   2.946   7.250 -0.4437  0.5416  1.1213
  132OSM    H6G14265   4.463   2.891   7.244  1.1392 -1.7560 -0.1610
  132OSM    C7F14266   4.332   2.772   7.382 -0.2959  0.5834 -1.1746
  132OSM    H7F14267   4.375   2.675   7.348 -0.4780  0.6377 -1.5682
  132OSM    H7G14268   4.222   2.765   7.390 -0.2682  0.1810 -1.1269
  132OSM    C8F14269   4.390   2.826   7.509 -0.8764 -0.1265 -0.1111
  132OSM    H8F14270   4.350   2.927   7.531  0.8263  0.0332  2.8032
  132OSM    H8G14271   4.496   2.842   7.482 -0.3171 -0.2894  1.8632
  132OSM    C9F14272   4.372   2.741   7.634  0.1705 -0.0706 -0.4469
  132OSM    H9F14273   4.363   2.633   7.615 -1.6345 -0.5647  2.5328
  132OSM   C10F14274   4.352   2.786   7.766 -0.1897  0.6872  0.3298
  132OSM   H10F14275   4.330   2.712   7.844  0.5381  2.0011  1.8561
  132OSM   C11F14276   4.352   2.925   7.822 -0.1069  0.1836  0.1378
  132OSM   H11F14277   4.344   2.919   7.932 -1.1120  1.3719  0.1511
  132OSM   H11G14278   4.270   2.982   7.774  0.3017  0.9936  0.3857
  132OSM   C12F14279   4.489   2.988   7.787 -0.1481  0.1100 -0.4780
  132OSM   H12F14280   4.519   2.987   7.679 -0.6933  1.4342 -0.6522
  132OSM   H12G14281   4.572   2.940   7.843  1.2426  0.0852 -2.4367
  132OSM   C13F14282   4.494   3.133   7.819 -0.6813 -0.2541  0.3971
  132OSM   H13F14283   4.405   3.183   7.775 -0.6898  0.6318  1.3736
  132OSM   H13G14284   4.587   3.182   7.783 -0.6911 -0.0547  0.6362
  132OSM   C14F14285   4.506   3.170   7.965 -0.3467 -1.0077  0.4917
  132OSM   H14F14286   4.593   3.113   8.003 -1.0360 -2.5365 -0.1373
  132OSM   H14G14287   4.413   3.137   8.017 -0.7124  0.7422  0.9901
  132OSM   C15F14288   4.524   3.320   7.992 -0.6808 -0.5044 -0.8748
  132OSM   H15F14289   4.430   3.357   7.946 -0.4287 -0.2285 -1.1762
  132OSM   H15G14290   4.617   3.355   7.941  0.2749 -2.6567 -0.7225
  132OSM   C16F14291   4.553   3.354   8.140  0.2886  0.6478  0.1835
  132OSM   H16F14292   4.650   3.301   8.154  0.9062  2.3018  3.2314
  132OSM   H16G14293   4.490   3.303   8.217  3.3695 -1.6670  1.3746
  132OSM   C17F14294   4.562   3.499   8.178  0.2890  0.2029  0.3088
  132OSM   H17F14295   4.485   3.565   8.132 -0.2351 -2.0424 -2.3068
  132OSM   H17G14296   4.662   3.536   8.147  1.1120 -1.0867  1.3142
  132OSM   C18F14297   4.560   3.509   8.336  0.9677 -0.2602  0.1462
  132OSM   H18F14298   4.464   3.472   8.378  0.1177  0.9460 -0.6782
  132OSM   H18G14299   4.576   3.613   8.371  0.3349  0.7080 -2.2594
  132OSM   H18H14300   4.644   3.450   8.378  3.5440  2.6035 -0.6137
  133SAPE     N14301   5.866   2.017  10.943 -0.2105  0.3317 -0.5772
  133SAPE   HN114302   5.908   1.989  10.852  0.6938  1.5481 -0.5515
  133SAPE   HN214303   5.815   1.932  10.973 -0.2670  0.5455 -0.0572
  133SAPE   HN314304   5.801   2.097  10.924  0.5693  1.4083  1.0640
  133SAPE   C1214305   5.967   2.085  11.035  0.6325  0.2470  0.2489
  133SAPE  H12A14306   6.046   2.011  11.062  0.7290  1.5067  3.9887
  133SAPE  H12B14307   5.914   2.092  11.132 -0.8759  0.1495 -0.5483
  133SAPE   C1114308   6.034   2.212  10.979  0.6173  0.6670 -0.2788
  133SAPE  H11A14309   6.070   2.205  10.874 -1.6963 -0.5278 -1.0578
  133SAPE  H11B14310   6.122   2.232  11.044 -1.0488 -1.1246  2.7773
  133SAPE     P14311   5.985   2.470  10.955 -0.5212 -0.0277  0.2933
  133SAPE   O1314312   5.867   2.552  10.957 -0.5148  0.6134 -0.3435
  133SAPE   O1414313   6.098   2.512  11.034 -0.1018 -0.0541  0.1917
  133SAPE   O1214314   5.937   2.317  10.987  0.2430 -0.6874 -0.2156
  133SAPE   O1114315   6.023   2.453  10.799 -0.3036  0.2822 -0.1536
  133SAPE    C114316   5.927   2.401  10.704  0.0045  0.3299 -0.3002
  133SAPE    HA14317   5.984   2.327  10.644  2.1975 -0.2599  2.3150
  133SAPE    HB14318   5.843   2.349  10.756  0.1016  0.8206  0.3475
  133SAPE    C214319   5.877   2.511  10.607  0.7119 -0.3821  0.1519
  133SAPE    HS14320   5.811   2.452  10.539  3.0358 -1.7807 -1.0505
  133SAPE   O2114321   5.984   2.580  10.543 -0.1642 -0.4846 -0.4069
  133SAPE   C2114322   6.039   2.518  10.436 -0.2603 -0.7709  0.0986
  133SAPE   O2214323   6.020   2.400  10.407  0.1747 -0.0984  0.1636
  133SAPE   C2214324   6.126   2.606  10.355 -0.2304  0.5057 -0.4255
  133SAPE   H2R14325   6.186   2.670  10.424 -2.1716  1.1467  0.7708
  133SAPE   H2S14326   6.197   2.544  10.298 -1.7091 -1.6464 -0.0243
  133SAPE    C314327   5.786   2.622  10.667 -0.4153 -0.3110 -0.0649
  133SAPE    HX14328   5.844   2.683  10.739  1.0736 -2.5012  0.7246
  133SAPE    HY14329   5.715   2.562  10.729  1.0294 -1.5289  0.4801
  133SAPE   O3114330   5.711   2.700  10.571 -0.5964  0.5369 -0.0820
  133SAPE   C3114331   5.674   2.824  10.605  0.6456  0.2505  0.8142
  133SAPE   O3214332   5.676   2.865  10.716  0.1984 -0.1540 -0.1459
  133SAPE   C3214333   5.632   2.902  10.478  0.0434 -0.3646  0.4179
  133SAPE   H2X14334   5.635   3.008  10.512 -1.7536  0.2877 -1.2399
  133SAPE   H2Y14335   5.529   2.869  10.454 -0.9444  1.2250  2.1447
  133SAPE   C2314336   6.056   2.721  10.281 -0.7924 -0.4705 -0.6732
  133SAPE   H3R14337   6.129   2.795  10.241 -0.3049  0.2105  1.3566
  133SAPE   H3S14338   6.016   2.771  10.372 -0.0370 -1.6632  0.3439
  133SAPE   C2414339   5.951   2.679  10.171 -0.3095 -0.0447  0.0037
  133SAPE   H4R14340   5.882   2.766  10.159  0.4245  0.4833 -0.4760
  133SAPE   H4S14341   5.888   2.595  10.206 -1.3849  0.0759 -1.5554
  133SAPE   C2514342   6.016   2.636  10.042 -0.8180 -1.1033 -0.6362
  133SAPE   H5R14343   6.070   2.541  10.049 -1.2052 -1.2481  0.5837
  133SAPE   C2614344   6.021   2.704   9.927 -0.1101 -0.1259 -0.1437
  133SAPE   H6R14345   6.073   2.656   9.842  0.6286  0.6601 -0.1475
  133SAPE   C2714346   5.946   2.829   9.890 -0.0042 -0.2527  0.6202
  133SAPE   H7R14347   6.025   2.905   9.876  1.6535 -1.6749  1.8086
  133SAPE   H7S14348   5.881   2.873   9.968 -2.7508  2.2980 -2.7856
  133SAPE   C2814349   5.850   2.820   9.765 -0.2966 -0.7924 -0.0600
  133SAPE   H8R14350   5.743   2.806   9.789 -1.0654  1.8118 -1.5905
  133SAPE   C2914351   5.892   2.831   9.638  0.0142  0.3560  0.1021
  133SAPE   H9R14352   5.816   2.819   9.559  1.6167  0.3897 -1.5145
  133SAPE  C21014353   6.028   2.844   9.576  0.5954  0.7218 -0.2430
  133SAPE  H10R14354   6.106   2.864   9.653 -0.6969  0.1787  1.2565
  133SAPE  H10S14355   6.022   2.929   9.504  1.1823  2.9490  2.2049
  133SAPE  C21114356   6.067   2.712   9.513  0.0616 -0.7114 -0.7547
  133SAPE  H11R14357   6.108   2.637   9.582  0.2188  1.4804  1.7029
  133SAPE  C21214358   6.038   2.678   9.389  0.1785  0.5486  0.3838
  133SAPE  H12R14359   6.067   2.581   9.346  0.2321  1.2556 -1.2248
  133SAPE  C21314360   5.966   2.772   9.291 -0.4140 -0.6790 -0.1447
  133SAPE  H13R14361   6.041   2.820   9.225  0.2125 -1.3197  0.0837
  133SAPE  H13S14362   5.907   2.856   9.333  0.5264 -0.5030  0.8896
  133SAPE  C21414363   5.874   2.703   9.196 -0.0416  0.0027 -0.6820
  133SAPE  H14R14364   5.791   2.652   9.248  0.9977  2.0167  3.4219
  133SAPE  C21514365   5.891   2.680   9.066 -0.1704 -0.7487 -0.2748
  133SAPE  H15R14366   5.816   2.614   9.020  0.1155 -1.5060  0.3255
  133SAPE  C21614367   6.013   2.711   8.985  0.3281  0.3875  0.0694
  133SAPE  H16R14368   6.001   2.660   8.887 -1.3655  0.5008  0.1865
  133SAPE  H16S14369   6.102   2.675   9.041  1.2650 -1.2322 -2.3280
  133SAPE  C21714370   6.016   2.861   8.944 -0.2108  0.4675  0.2321
  133SAPE  H17R14371   6.047   2.924   9.030  3.0204 -1.1977  0.4708
  133SAPE  H17S14372   5.921   2.892   8.896 -0.4644  0.2075  0.5616
  133SAPE  C21814373   6.123   2.886   8.837  0.1345  0.1487  0.2863
  133SAPE  H18R14374   6.091   2.824   8.751 -1.1757  1.2832 -0.0713
  133SAPE  H18S14375   6.219   2.844   8.875 -0.1570 -1.1114 -0.3256
  133SAPE  C21914376   6.132   3.032   8.789 -0.1396 -0.3087  0.5200
  133SAPE  H19R14377   6.130   3.091   8.883  1.4897 -0.9023  0.9732
  133SAPE  H19S14378   6.048   3.065   8.724  0.1931 -1.9965 -0.8378
  133SAPE  C22014379   6.256   3.069   8.708  0.6919  0.2780  0.3893
  133SAPE  H20R14380   6.259   3.030   8.605  0.0185  1.9299 -0.2948
  133SAPE  H20S14381   6.352   3.047   8.761 -0.5456 -1.7323  1.9318
  133SAPE  H20T14382   6.258   3.178   8.684 -0.5182  0.5083  1.2418
  133SAPE   C3314383   5.729   2.879  10.361 -0.6037  0.2839  0.0230
  133SAPE   H3X14384   5.737   2.769  10.347 -1.9586  0.1527  0.1645
  133SAPE   H3Y14385   5.827   2.916  10.398 -0.5160 -1.1417  1.3302
  133SAPE   C3414386   5.682   2.948  10.231  0.0118 -0.0812 -0.1343
  133SAPE   H4X14387   5.771   2.952  10.165 -0.3775 -2.1950 -0.8740
  133SAPE   H4Y14388   5.633   3.047  10.244  0.7503  0.3055 -0.2581
  133SAPE   C3514389   5.584   2.858  10.151  0.5027  0.3104 -0.8831
  133SAPE   H5X14390   5.490   2.860  10.209 -0.2571 -0.8559 -2.0460
  133SAPE   H5Y14391   5.622   2.754  10.154  0.7429  0.4171  0.0029
  133SAPE   C3614392   5.564   2.904  10.012 -0.1234 -0.0916 -0.0860
  133SAPE   H6X14393   5.659   2.914   9.956 -2.4766 -1.4829 -4.8902
  133SAPE   H6Y14394   5.503   2.997  10.001 -1.2950 -0.7488  0.6216
  133SAPE   C3714395   5.500   2.787   9.941  0.3988 -0.2727  0.0836
  133SAPE   H7X14396   5.418   2.754  10.008 -3.2813  1.9656 -2.9372
  133SAPE   H7Y14397   5.572   2.703   9.928 -0.7433 -1.4017  0.8055
  133SAPE   C3814398   5.437   2.808   9.803  0.1459 -0.4400  0.0940
  133SAPE   H8X14399   5.513   2.847   9.731  0.2515 -2.7479 -1.1154
  133SAPE   H8Y14400   5.355   2.882   9.816 -0.6192 -1.1285 -0.6521
  133SAPE   C3914401   5.376   2.681   9.751  0.0095  0.4539 -0.3573
  133SAPE   H9X14402   5.300   2.638   9.820 -1.0378  1.4338 -0.8752
  133SAPE   H9Y14403   5.452   2.601   9.743 -0.4863 -0.1467  0.6170
  133SAPE  C31014404   5.303   2.702   9.613  0.2184  0.6723  0.1880
  133SAPE  H10X14405   5.226   2.779   9.637  0.0220  0.6759 -0.4168
  133SAPE  H10Y14406   5.247   2.609   9.588 -1.2488  0.7406  2.9086
  133SAPE  C31114407   5.405   2.732   9.504  0.1201  0.9562  0.7065
  133SAPE  H11X14408   5.493   2.664   9.506  0.1414  0.7800 -1.9639
  133SAPE  H11Y14409   5.439   2.838   9.511 -2.7074  2.0180 -0.3951
  133SAPE  C31214410   5.347   2.702   9.359 -0.0894 -0.6166 -0.0352
  133SAPE  H12X14411   5.273   2.779   9.328 -2.5313 -3.3627 -1.5657
  133SAPE  H12Y14412   5.290   2.606   9.357 -2.1364  0.5465 -0.1141
  133SAPE  C31314413   5.447   2.701   9.241  0.0586  0.0309  0.4076
  133SAPE  H13X14414   5.518   2.617   9.252  0.4053 -0.0570 -1.9503
  133SAPE  H13Y14415   5.507   2.793   9.228 -0.5812  0.4302  0.2411
  133SAPE  C31414416   5.365   2.666   9.118  0.1669 -0.4308 -0.2792
  133SAPE  H14X14417   5.284   2.741   9.105  0.0729 -0.6813 -1.2490
  133SAPE  H14Y14418   5.310   2.573   9.146  0.1770 -0.0708  0.9869
  133SAPE  C31514419   5.458   2.649   8.997  0.8829  0.2828  0.6862
  133SAPE  H15X14420   5.534   2.569   9.012 -1.5943 -2.6576 -1.2927
  133SAPE  H15Y14421   5.500   2.747   8.966  0.1313  0.8572  1.4453
  133SAPE  C31614422   5.390   2.582   8.871  0.0667 -0.1545  1.1122
  133SAPE  H16X14423   5.320   2.652   8.819  0.5139 -0.9019 -0.5616
  133SAPE  H16Y14424   5.339   2.487   8.898  2.0443 -0.7884  2.8768
  133SAPE  C31714425   5.498   2.542   8.761  0.6723  0.0099 -0.9854
  133SAPE  H17X14426   5.563   2.459   8.795 -1.3705 -1.8096 -1.3288
  133SAPE  H17Y14427   5.562   2.620   8.715 -0.9934  0.0093 -3.4926
  133SAPE  C31814428   5.418   2.491   8.639  0.6550  0.3566 -0.1650
  133SAPE  H18X14429   5.353   2.573   8.602 -0.7319 -0.3846  0.5416
  133SAPE  H18Y14430   5.349   2.406   8.657 -0.0637  0.4549 -2.2545
  133SAPE  H18Z14431   5.476   2.454   8.552 -1.0992 -1.2404 -0.7226
  134SAPE     N14432   1.600   2.636  11.008  0.2989  0.2179  0.0054
  134SAPE   HN114433   1.671   2.695  11.056 -1.1243  0.7838  1.5184
  134SAPE   HN214434   1.502   2.660  11.032 -0.0555 -0.7863 -0.3884
  134SAPE   HN314435   1.611   2.534  11.026  0.9215  0.0003 -1.4166
  134SAPE   C1214436   1.625   2.642  10.860  0.4416 -0.4564  0.0779
  134SAPE  H12A14437   1.651   2.747  10.834  0.9951 -0.3889  0.8517
  134SAPE  H12B14438   1.537   2.612  10.800 -0.5986  1.1964  0.6993
  134SAPE   C1114439   1.745   2.554  10.812 -0.4698 -0.5423  0.0495
  134SAPE  H11A14440   1.757   2.557  10.702 -0.0776 -1.5591  0.0537
  134SAPE  H11B14441   1.732   2.444  10.824  1.0797 -1.0040 -1.9173
  134SAPE     P14442   2.002   2.522  10.841 -0.0434 -0.2370  0.3231
  134SAPE   O1314443   2.118   2.570  10.927 -0.0146  0.0510 -0.6817
  134SAPE   O1414444   1.973   2.376  10.839 -0.0253  0.1909  0.0660
  134SAPE   O1214445   1.869   2.599  10.868  0.2468 -0.1367  1.0188
  134SAPE   O1114446   2.018   2.573  10.689  0.1540  0.6406 -0.4025
  134SAPE    C114447   2.084   2.692  10.658  0.4233 -0.1812 -0.8322
  134SAPE    HA14448   2.089   2.762  10.744 -0.4984  1.9092 -2.3934
  134SAPE    HB14449   2.186   2.662  10.626  0.7544 -2.4919  2.0049
  134SAPE    C214450   2.019   2.773  10.541 -0.1616  0.4037 -0.0346
  134SAPE    HS14451   1.914   2.783  10.575  0.2438  0.3651  1.2599
  134SAPE   O2114452   2.028   2.693  10.415 -0.2760 -0.3530 -0.3370
  134SAPE   C2114453   1.909   2.672  10.353  0.0983  0.1570 -0.4054
  134SAPE   O2214454   1.803   2.720  10.394  0.0257  0.2122  0.6950
  134SAPE   C2214455   1.943   2.586  10.237  0.4249 -0.0637 -0.2215
  134SAPE   H2R14456   2.040   2.612  10.188 -0.0845  0.8265 -0.7699
  134SAPE   H2S14457   1.967   2.486  10.280  0.4767 -0.3835 -0.9752
  134SAPE    C314458   2.088   2.911  10.519  0.1648  0.0374  0.2092
  134SAPE    HX14459   2.197   2.893  10.503  0.6810  0.9682  2.3007
  134SAPE    HY14460   2.065   2.967  10.612  1.2735 -0.5196  0.8524
  134SAPE   O3114461   2.043   2.985  10.403 -0.6021  0.2032  0.0477
  134SAPE   C3114462   1.948   3.074  10.413 -0.8331 -0.2970 -0.9230
  134SAPE   O3214463   1.888   3.095  10.518  0.2173 -0.5380 -0.3007
  134SAPE   C3214464   1.931   3.159  10.289  0.3062  0.7233 -0.1184
  134SAPE   H2X14465   1.991   3.118  10.204 -0.9184 -0.1791 -0.5762
  134SAPE   H2Y14466   1.972   3.259  10.312  0.2959  0.8510 -0.6334
  134SAPE   C2314467   1.833   2.579  10.130  0.0383  0.0867 -0.5118
  134SAPE   H3R14468   1.851   2.667  10.065 -0.1213  1.9396  1.8232
  134SAPE   H3S14469   1.728   2.591  10.165 -0.1299 -3.4540  0.5846
  134SAPE   C2414470   1.827   2.447  10.053  0.3841  0.1200 -0.3138
  134SAPE   H4R14471   1.726   2.441  10.008  0.6740 -0.9144 -0.8672
  134SAPE   H4S14472   1.833   2.359  10.121  1.3930 -0.6124 -1.3013
  134SAPE   C2514473   1.934   2.429   9.945 -0.3535 -0.9985  0.0460
  134SAPE   H5R14474   2.033   2.406   9.985  0.7351  1.5531 -0.9539
  134SAPE   C2614475   1.916   2.432   9.808 -0.3117  0.4225  0.1637
  134SAPE   H6R14476   2.005   2.408   9.747  0.7433 -1.0426  2.1601
  134SAPE   C2714477   1.789   2.464   9.737  0.3276  0.4404 -0.2821
  134SAPE   H7R14478   1.720   2.518   9.806  1.3670  0.7380  0.5409
  134SAPE   H7S14479   1.742   2.366   9.714  0.9526  0.2582 -0.8046
  134SAPE   C2814480   1.820   2.539   9.610 -0.7861  0.1496  0.9248
  134SAPE   H8R14481   1.864   2.639   9.622 -0.5607 -0.0551  1.8746
  134SAPE   C2914482   1.782   2.505   9.483  0.4313  0.3788 -0.2754
  134SAPE   H9R14483   1.813   2.563   9.395  2.0241 -1.8783 -1.3033
  134SAPE  C21014484   1.699   2.377   9.463  0.2406  0.8971 -0.2531
  134SAPE  H10R14485   1.721   2.294   9.534  2.9772  0.5471 -1.3780
  134SAPE  H10S14486   1.745   2.330   9.374 -2.2525 -0.2295 -1.0381
  134SAPE  C21114487   1.552   2.388   9.451 -0.0456 -0.4511 -0.4201
  134SAPE  H11R14488   1.484   2.366   9.535 -0.4572  1.4351 -0.2105
  134SAPE  C21214489   1.492   2.439   9.340  0.8748 -0.1662 -1.4686
  134SAPE  H12R14490   1.384   2.456   9.342  1.3129  3.7295  1.1074
  134SAPE  C21314491   1.558   2.467   9.211 -0.8429  0.0478 -0.5217
  134SAPE  H13R14492   1.658   2.511   9.232 -0.4566 -0.6207 -0.9260
  134SAPE  H13S14493   1.517   2.561   9.167  0.9336  0.5675 -1.1829
  134SAPE  C21414494   1.560   2.349   9.108  0.4962  0.0544 -0.7546
  134SAPE  H14R14495   1.620   2.260   9.134  1.4184  1.0036  0.4705
  134SAPE  C21514496   1.484   2.336   8.994 -1.0444  0.5639  0.1044
  134SAPE  H15R14497   1.497   2.246   8.932  1.3831  1.7809 -1.3372
  134SAPE  C21614498   1.390   2.430   8.927  0.1419  1.0326 -0.5359
  134SAPE  H16R14499   1.377   2.518   8.993  2.7078  0.9249  0.2036
  134SAPE  H16S14500   1.292   2.379   8.918  0.9185 -0.6251 -0.0050
  134SAPE  C21714501   1.416   2.504   8.798 -0.3159 -0.7125 -0.2622
  134SAPE  H17R14502   1.342   2.587   8.789 -0.2786 -0.3274  2.3583
  134SAPE  H17S14503   1.395   2.437   8.712  0.2851  1.2510 -2.0270
  134SAPE  C21814504   1.557   2.563   8.784 -0.3960 -0.4012 -0.1428
  134SAPE  H18R14505   1.630   2.484   8.813  0.5465  0.0757 -1.1442
  134SAPE  H18S14506   1.567   2.651   8.850 -1.1047  0.9426 -1.7600
  134SAPE  C21914507   1.609   2.607   8.641 -0.2317  0.0755 -0.1055
  134SAPE  H19R14508   1.708   2.656   8.654 -0.2938 -0.1766  1.6384
  134SAPE  H19S14509   1.543   2.680   8.590  1.8848  1.6135 -0.7945
  134SAPE  C22014510   1.631   2.495   8.549  0.3930 -1.1138 -0.3442
  134SAPE  H20R14511   1.670   2.534   8.452 -0.8492  0.5411 -0.2253
  134SAPE  H20S14512   1.538   2.441   8.522 -0.1948 -0.7194  0.7894
  134SAPE  H20T14513   1.701   2.429   8.604  0.0524 -2.0539 -1.0171
  134SAPE   C3314514   1.785   3.171  10.234  0.5454  0.1808  0.0513
  134SAPE   H3X14515   1.794   3.228  10.139  0.1996 -0.1384 -0.1760
  134SAPE   H3Y14516   1.729   3.232  10.307 -0.4782  0.1247 -0.6699
  134SAPE   C3414517   1.708   3.041  10.220 -0.7832  0.3228  0.6514
  134SAPE   H4X14518   1.609   3.068  10.179 -0.0682  1.0674 -0.6182
  134SAPE   H4Y14519   1.701   2.990  10.319 -0.8686 -0.5467  0.2130
  134SAPE   C3514520   1.775   2.955  10.111 -0.0322  0.3442  0.2807
  134SAPE   H5X14521   1.837   2.873  10.154  0.5177  1.1291  1.0182
  134SAPE   H5Y14522   1.850   3.023  10.064 -0.4440  1.6331  1.4071
  134SAPE   C3614523   1.669   2.890  10.020 -0.1505 -0.0047 -0.6407
  134SAPE   H6X14524   1.572   2.942  10.028  0.1587  0.4480  0.3229
  134SAPE   H6Y14525   1.656   2.785  10.055 -0.8546  0.9324  2.1868
  134SAPE   C3714526   1.716   2.890   9.877  0.5838  0.2252  0.8452
  134SAPE   H7X14527   1.813   2.838   9.860 -0.2844 -1.4517  0.8075
  134SAPE   H7Y14528   1.721   2.999   9.854  2.1447 -0.4258 -2.6136
  134SAPE   C3814529   1.619   2.818   9.783 -0.3267  0.0646 -0.2312
  134SAPE   H8X14530   1.516   2.840   9.819  0.1082 -0.0586  1.1341
  134SAPE   H8Y14531   1.640   2.709   9.783 -2.6486 -0.4344 -0.6248
  134SAPE   C3914532   1.639   2.878   9.643  0.6506 -0.4018  0.2290
  134SAPE   H9X14533   1.740   2.861   9.601  0.3432 -0.4042 -0.5248
  134SAPE   H9Y14534   1.622   2.987   9.640  0.6204 -0.4268 -1.6987
  134SAPE  C31014535   1.537   2.823   9.543  0.2693  0.5211  0.4889
  134SAPE  H10X14536   1.431   2.835   9.575 -0.7458 -1.1963 -1.9281
  134SAPE  H10Y14537   1.546   2.714   9.524 -0.9349  0.8062 -2.1475
  134SAPE  C31114538   1.557   2.897   9.408  0.0534  0.7430 -0.0527
  134SAPE  H11X14539   1.661   2.878   9.372 -0.2813  0.8317 -1.0808
  134SAPE  H11Y14540   1.540   3.007   9.416 -0.4264  0.9763 -3.0661
  134SAPE  C31214541   1.459   2.834   9.311  0.2545  0.3163 -0.0162
  134SAPE  H12X14542   1.354   2.832   9.350 -0.5803 -1.7799 -2.1428
  134SAPE  H12Y14543   1.482   2.725   9.309  0.5028  0.3348  0.9970
  134SAPE  C31314544   1.456   2.894   9.170  0.2528  0.1458 -0.5820
  134SAPE  H13X14545   1.557   2.885   9.124 -0.2624  0.7709 -1.8974
  134SAPE  H13Y14546   1.439   3.003   9.182  1.6444  0.3244 -0.1603
  134SAPE  C31414547   1.349   2.830   9.079  0.6175 -0.9898  0.0692
  134SAPE  H14X14548   1.257   2.848   9.139  2.8469 -0.8615  3.6928
  134SAPE  H14Y14549   1.374   2.722   9.071 -0.7304 -1.4218  1.2475
  134SAPE  C31514550   1.352   2.903   8.939  0.4783  0.2406 -0.6478
  134SAPE  H15X14551   1.450   2.874   8.895  1.6315  0.4542  1.6423
  134SAPE  H15Y14552   1.348   3.009   8.970  1.2753 -0.6035  2.8164
  134SAPE  C31614553   1.227   2.876   8.866 -0.5970  0.1852 -0.2172
  134SAPE  H16X14554   1.136   2.920   8.912  0.1244  1.1125  0.3460
  134SAPE  H16Y14555   1.211   2.766   8.855 -1.6345  0.2707  0.2944
  134SAPE  C31714556   1.221   2.940   8.718  0.1302  0.1640 -0.1253
  134SAPE  H17X14557   1.214   3.050   8.734  0.4417  0.2396 -0.5006
  134SAPE  H17Y14558   1.119   2.921   8.677  0.5165  0.4507 -1.2559
  134SAPE  C31814559   1.337   2.906   8.629 -0.9412 -0.0908 -0.1262
  134SAPE  H18X14560   1.354   2.796   8.633 -1.6998 -0.3622 -2.5046
  134SAPE  H18Y14561   1.433   2.952   8.657 -0.2255 -1.7678  0.3151
  134SAPE  H18Z14562   1.306   2.938   8.527 -1.3172 -0.7726 -0.2366
  135SAPE     N14563   2.112   1.183  10.724  0.0422  0.2907  0.3494
  135SAPE   HN114564   2.036   1.174  10.653 -0.0022  2.2461  0.0693
  135SAPE   HN214565   2.205   1.171  10.678 -0.0197  0.8883  0.0485
  135SAPE   HN314566   2.104   1.099  10.784  0.5576 -0.2559 -0.3315
  135SAPE   C1214567   2.107   1.303  10.797  0.6891 -0.3438 -0.1298
  135SAPE  H12A14568   2.004   1.319  10.835  0.3302  0.7307 -1.4775
  135SAPE  H12B14569   2.129   1.389  10.730  1.6068 -0.2394  0.2853
  135SAPE   C1114570   2.220   1.304  10.906 -0.4070 -0.1436  0.0016
  135SAPE  H11A14571   2.203   1.219  10.976 -0.8436  0.3034  0.4464
  135SAPE  H11B14572   2.222   1.402  10.957 -0.8711  1.1148 -2.2369
  135SAPE     P14573   2.473   1.363  10.885  0.0891  0.0204  0.0505
  135SAPE   O1314574   2.447   1.505  10.906 -0.3108 -0.2474 -0.5853
  135SAPE   O1414575   2.543   1.292  10.995  0.2545  0.3389 -0.4453
  135SAPE   O1214576   2.351   1.275  10.851  0.5476 -0.7365  0.1595
  135SAPE   O1114577   2.558   1.346  10.752  0.1897  0.2976 -0.1442
  135SAPE    C114578   2.551   1.227  10.679 -1.1364 -0.3507 -0.2050
  135SAPE    HA14579   2.589   1.147  10.746 -1.4918  0.7467  1.3549
  135SAPE    HB14580   2.450   1.201  10.640 -0.4430 -0.2285 -2.1819
  135SAPE    C214581   2.638   1.239  10.550 -0.8140 -0.4812  0.7943
  135SAPE    HS14582   2.746   1.249  10.571 -0.4762 -0.3873 -0.8557
  135SAPE   O2114583   2.588   1.353  10.484  0.1904 -0.0039  0.1657
  135SAPE   C2114584   2.633   1.473  10.517  0.2665 -0.7074  0.6679
  135SAPE   O2214585   2.733   1.499  10.583  0.2302  0.4312 -0.2094
  135SAPE   C2214586   2.536   1.581  10.450 -0.0607  0.2499  0.6240
  135SAPE   H2R14587   2.452   1.522  10.406  1.0025 -0.8640  0.0271
  135SAPE   H2S14588   2.484   1.633  10.534  0.5365  0.3036  0.9600
  135SAPE    C314589   2.606   1.118  10.457 -0.1926  0.2453  0.0296
  135SAPE    HX14590   2.496   1.129  10.442 -0.3687 -1.9683 -0.7719
  135SAPE    HY14591   2.608   1.017  10.504 -0.1202  0.2020 -0.0657
  135SAPE   O3114592   2.677   1.121  10.337  1.1153 -0.1319 -0.0402
  135SAPE   C3114593   2.805   1.102  10.344  0.0392  0.6472  0.0619
  135SAPE   O3214594   2.873   1.083  10.445  0.1766  0.5385 -0.1337
  135SAPE   C3214595   2.870   1.111  10.197 -0.8896  0.5589 -0.4472
  135SAPE   H2X14596   2.934   1.020  10.188 -0.5836  0.5855  1.1906
  135SAPE   H2Y14597   2.926   1.206  10.206  0.1938 -0.0556 -0.5047
  135SAPE   C2314598   2.604   1.683  10.354  0.7317 -0.1855  0.2178
  135SAPE   H3R14599   2.682   1.737  10.413 -0.1017  0.8012  0.4354
  135SAPE   H3S14600   2.537   1.759  10.309 -0.2642 -2.0430 -1.5852
  135SAPE   C2414601   2.694   1.611  10.254  0.0791  0.5282  0.4452
  135SAPE   H4R14602   2.776   1.561  10.310  3.4779  3.4553 -1.4653
  135SAPE   H4S14603   2.743   1.683  10.184 -0.5164 -0.3507 -0.9239
  135SAPE   C2514604   2.592   1.528  10.180  0.2977 -0.2436 -0.0426
  135SAPE   H5R14605   2.547   1.443  10.233  2.0587 -1.1389  0.1133
  135SAPE   C2614606   2.556   1.553  10.052  0.1838  0.4004 -0.5955
  135SAPE   H6R14607   2.479   1.486  10.011  0.8346 -0.5801 -0.2290
  135SAPE   C2714608   2.601   1.670   9.966 -0.4675 -0.0342  0.4472
  135SAPE   H7R14609   2.650   1.620   9.880 -2.8394 -1.7519  0.0153
  135SAPE   H7S14610   2.687   1.726  10.009 -0.6443 -0.4968  1.4259
  135SAPE   C2814611   2.484   1.758   9.927 -0.3156  0.7759 -0.5885
  135SAPE   H8R14612   2.456   1.837   9.999 -0.7295  1.4908 -1.5055
  135SAPE   C2914613   2.432   1.752   9.804 -0.4573  0.8950  0.5139
  135SAPE   H9R14614   2.353   1.827   9.784 -0.9277 -0.0852 -1.4457
  135SAPE  C21014615   2.466   1.664   9.683  0.0139  0.0155  0.7004
  135SAPE  H10R14616   2.370   1.655   9.627  0.9284  0.6853 -1.0104
  135SAPE  H10S14617   2.482   1.564   9.728 -3.2001 -0.3707  1.2921
  135SAPE  C21114618   2.588   1.719   9.606  0.1633 -0.2647  0.0040
  135SAPE  H11R14619   2.688   1.703   9.648 -0.3919  2.5134  2.7211
  135SAPE  C21214620   2.575   1.777   9.485  0.2063 -0.0499 -0.1819
  135SAPE  H12R14621   2.668   1.810   9.436  0.8360  0.0662  1.0592
  135SAPE  C21314622   2.456   1.809   9.395 -0.0099 -0.0887  0.2961
  135SAPE  H13R14623   2.451   1.919   9.399  1.8219  0.0170  0.4478
  135SAPE  H13S14624   2.362   1.774   9.443 -0.3341  2.0572  1.3108
  135SAPE  C21414625   2.455   1.769   9.252 -0.9649  0.4471 -0.4804
  135SAPE  H14R14626   2.432   1.661   9.253 -1.3217  0.5062  1.1093
  135SAPE  C21514627   2.444   1.838   9.139 -0.1318 -0.6029 -0.6702
  135SAPE  H15R14628   2.438   1.773   9.050  1.8927 -1.1492 -0.4578
  135SAPE  C21614629   2.434   1.988   9.127 -0.6410 -0.6502  1.1062
  135SAPE  H16R14630   2.526   2.043   9.154 -0.0718 -0.5233 -0.9160
  135SAPE  H16S14631   2.346   2.031   9.179  1.1014  2.4447  1.7553
  135SAPE  C21714632   2.422   2.035   8.983  0.8353  0.0691  0.6829
  135SAPE  H17R14633   2.518   2.015   8.931  0.6687  0.7857  0.0745
  135SAPE  H17S14634   2.407   2.144   8.972 -0.2072  0.0016  1.2535
  135SAPE  C21814635   2.308   1.972   8.896 -0.2158  0.3325 -0.2217
  135SAPE  H18R14636   2.214   1.964   8.954  0.2891  0.7935  0.6833
  135SAPE  H18S14637   2.327   1.862   8.893 -0.3242  0.3023  0.1741
  135SAPE  C21914638   2.279   2.033   8.756 -0.1818  0.8616 -0.7551
  135SAPE  H19R14639   2.229   2.130   8.776  1.4010  0.9915  3.3592
  135SAPE  H19S14640   2.203   1.973   8.701 -0.1984  0.7992 -0.6643
  135SAPE  C22014641   2.397   2.038   8.659  0.7040 -0.8105  0.6472
  135SAPE  H20R14642   2.365   2.085   8.565  2.4468  0.6415  0.7180
  135SAPE  H20S14643   2.431   1.936   8.630  1.6308 -0.9049  1.9374
  135SAPE  H20T14644   2.483   2.091   8.706 -0.1744  1.1440  0.1159
  135SAPE   C3314645   2.765   1.124  10.089  0.5949 -0.3267  0.2582
  135SAPE   H3X14646   2.688   1.202  10.105  1.4005  0.3402  0.9884
  135SAPE   H3Y14647   2.709   1.028  10.084  0.9722 -0.5002 -0.9313
  135SAPE   C3414648   2.828   1.161   9.960  0.3204 -0.5484  0.8567
  135SAPE   H4X14649   2.899   1.077   9.942  0.1472 -0.1211 -2.3696
  135SAPE   H4Y14650   2.884   1.257   9.963 -2.7018  1.5113 -1.3711
  135SAPE   C3514651   2.735   1.199   9.833 -0.5754  0.2983  0.0024
  135SAPE   H5X14652   2.646   1.241   9.886  0.0767  1.4947  0.1884
  135SAPE   H5Y14653   2.704   1.101   9.791 -0.8392  0.9148 -1.2690
  135SAPE   C3614654   2.787   1.304   9.740 -0.3748  0.3501 -0.3402
  135SAPE   H6X14655   2.889   1.280   9.702  0.0676  1.2706  0.2064
  135SAPE   H6Y14656   2.801   1.398   9.799 -2.0903  0.3171  0.1706
  135SAPE   C3714657   2.698   1.336   9.618  0.0044 -0.5435 -0.1097
  135SAPE   H7X14658   2.623   1.411   9.648  0.1034 -0.6032  0.3027
  135SAPE   H7Y14659   2.647   1.240   9.593 -0.1826 -0.1034 -1.4537
  135SAPE   C3814660   2.769   1.386   9.496  0.9600  0.4875 -0.0763
  135SAPE   H8X14661   2.852   1.317   9.467 -0.1736 -1.4300  1.0198
  135SAPE   H8Y14662   2.811   1.486   9.520 -2.5372  1.6936  1.6390
  135SAPE   C3914663   2.684   1.384   9.365 -0.7904 -0.0484 -0.2156
  135SAPE   H9X14664   2.583   1.425   9.384 -0.1307  0.5865  2.2172
  135SAPE   H9Y14665   2.662   1.281   9.328  0.9249 -0.5815  0.1615
  135SAPE  C31014666   2.738   1.483   9.262 -0.7966  1.1664 -0.5777
  135SAPE  H10X14667   2.845   1.460   9.245 -0.8086  1.0844 -0.5414
  135SAPE  H10Y14668   2.714   1.584   9.301 -0.5739  1.1478 -0.3943
  135SAPE  C31114669   2.671   1.468   9.119 -0.1953  0.1516  0.2936
  135SAPE  H11X14670   2.562   1.462   9.139 -0.1700  0.7622  0.6244
  135SAPE  H11Y14671   2.725   1.380   9.077  0.3336  0.3739  0.5017
  135SAPE  C31214672   2.694   1.584   9.028 -0.2494 -0.0028  0.4141
  135SAPE  H12X14673   2.792   1.568   8.980  0.6317 -2.0805  2.6829
  135SAPE  H12Y14674   2.689   1.680   9.084  0.5825  0.4229 -0.2212
  135SAPE  C31314675   2.589   1.578   8.913 -0.1012  1.0523  0.3066
  135SAPE  H13X14676   2.571   1.679   8.871 -1.4269  1.2343  1.2683
  135SAPE  H13Y14677   2.497   1.543   8.964  1.4755 -3.1112  0.7064
  135SAPE  C31414678   2.620   1.466   8.808 -0.5124 -0.1355 -0.1468
  135SAPE  H14X14679   2.659   1.373   8.855 -1.8126 -0.4985  0.2626
  135SAPE  H14Y14680   2.695   1.507   8.736  1.3751 -0.1440  1.7282
  135SAPE  C31514681   2.490   1.420   8.731 -0.5060 -0.0887  0.2820
  135SAPE  H15X14682   2.409   1.406   8.805  0.0194  0.5727  0.9886
  135SAPE  H15Y14683   2.511   1.322   8.683 -0.2530  0.8142 -1.5588
  135SAPE  C31614684   2.443   1.524   8.631  0.6288  0.4665  0.1912
  135SAPE  H16X14685   2.410   1.619   8.679 -0.9981 -0.1875  0.4404
  135SAPE  H16Y14686   2.354   1.482   8.578  2.3839 -0.9976 -1.7774
  135SAPE  C31714687   2.544   1.557   8.524  0.2246  0.4290  0.2592
  135SAPE  H17X14688   2.586   1.468   8.473 -1.4214 -0.5994  0.5919
  135SAPE  H17Y14689   2.621   1.626   8.564 -0.0804  1.5338 -1.0034
  135SAPE  C31814690   2.473   1.638   8.410 -0.1996  0.7908  0.0886
  135SAPE  H18X14691   2.370   1.600   8.396  0.0100  0.0352  0.5128
  135SAPE  H18Y14692   2.527   1.621   8.314 -1.0383  2.0086 -0.6147
  135SAPE  H18Z14693   2.459   1.746   8.432  0.3619  0.9638 -0.3750
  136SAPE     N14694   5.395   5.050  11.275 -0.4921 -0.7717  0.1791
  136SAPE   HN114695   5.430   5.133  11.328  0.3467 -1.9308  1.5298
  136SAPE   HN214696   5.300   5.073  11.238 -0.4393  1.0233  1.0520
  136SAPE   HN314697   5.394   4.977  11.350 -1.3288  0.6576  1.6230
  136SAPE   C1214698   5.482   5.018  11.166 -0.6592  0.0371  0.6307
  136SAPE  H12A14699   5.449   4.921  11.121 -1.4382  1.1279 -1.2504
  136SAPE  H12B14700   5.587   5.003  11.200  0.3325 -1.6914 -2.7317
  136SAPE   C1114701   5.479   5.125  11.053  0.0374  0.1163 -0.8030
  136SAPE  H11A14702   5.381   5.131  11.000 -0.0707 -1.2348 -0.7959
  136SAPE  H11B14703   5.548   5.090  10.973 -1.1842 -1.4021 -1.2552
  136SAPE     P14704   5.659   5.314  11.129  0.0654  0.0504  0.2848
  136SAPE   O1314705   5.648   5.460  11.145  0.2713 -0.5444 -1.0489
  136SAPE   O1414706   5.723   5.237  11.237 -0.0689  1.1385 -0.1668
  136SAPE   O1214707   5.513   5.259  11.106 -0.2196  0.7125 -0.4519
  136SAPE   O1114708   5.741   5.275  10.997  0.1220 -0.1675 -0.2449
  136SAPE    C114709   5.741   5.366  10.889  0.2265  0.1357  0.7946
  136SAPE    HA14710   5.747   5.469  10.932  0.2819  0.1243  0.8147
  136SAPE    HB14711   5.838   5.362  10.835 -0.9416 -1.6400 -1.3268
  136SAPE    C214712   5.625   5.339  10.785  0.5399 -0.0143  0.3614
  136SAPE    HS14713   5.522   5.342  10.827  0.4351 -0.5210  0.1394
  136SAPE   O2114714   5.649   5.212  10.726 -0.8541  0.3683  0.6605
  136SAPE   C2114715   5.557   5.153  10.655 -0.0057 -0.5548  0.1891
  136SAPE   O2214716   5.447   5.196  10.636  0.4165  0.1524 -0.1797
  136SAPE   C2214717   5.605   5.009  10.620  0.6354 -0.1179 -0.1793
  136SAPE   H2R14718   5.675   5.013  10.535  0.1184 -1.5237 -0.6998
  136SAPE   H2S14719   5.661   4.976  10.711 -1.5994 -1.3254  0.8448
  136SAPE    C314720   5.612   5.460  10.690  0.7866 -0.6037  1.1302
  136SAPE    HX14721   5.555   5.530  10.754 -0.7895  0.6861 -1.5379
  136SAPE    HY14722   5.541   5.420  10.615  1.0278 -0.1636  0.6622
  136SAPE   O3114723   5.727   5.534  10.636  0.3357 -0.2702  0.2515
  136SAPE   C3114724   5.791   5.478  10.538  0.1051 -0.1918  0.3592
  136SAPE   O3214725   5.757   5.375  10.480  1.0725 -0.0839 -0.1165
  136SAPE   C3214726   5.925   5.553  10.520 -0.5598  0.1298  0.7342
  136SAPE   H2X14727   6.003   5.480  10.552  0.5770  1.3427  0.7960
  136SAPE   H2Y14728   5.921   5.645  10.582 -2.9748  1.3360 -1.0511
  136SAPE   C2314729   5.484   4.918  10.586  0.0484  0.0938  0.5144
  136SAPE   H3R14730   5.422   4.963  10.506  0.3743 -0.8997 -0.3258
  136SAPE   H3S14731   5.422   4.900  10.677  0.8625 -2.6446  0.6164
  136SAPE   C2414732   5.530   4.776  10.539 -0.1389 -0.2307  0.5139
  136SAPE   H4R14733   5.579   4.723  10.623  2.4112  1.2316  0.0354
  136SAPE   H4S14734   5.595   4.784  10.450  0.4598 -0.2440  0.9432
  136SAPE   C2514735   5.405   4.704  10.499 -0.2970 -0.1010 -0.0228
  136SAPE   H5R14736   5.370   4.642  10.583 -1.7357 -0.3925 -0.7990
  136SAPE   C2614737   5.359   4.694  10.376  0.1589  0.0578 -0.1262
  136SAPE   H6R14738   5.272   4.632  10.350  2.0782 -1.5676 -3.3638
  136SAPE   C2714739   5.421   4.758  10.255 -0.4018 -0.0700  0.3208
  136SAPE   H7R14740   5.510   4.693  10.245  0.0642  0.3323  1.6415
  136SAPE   H7S14741   5.457   4.861  10.278  1.4659 -0.3099 -1.2524
  136SAPE   C2814742   5.339   4.770  10.128 -0.1173  0.2415 -0.3890
  136SAPE   H8R14743   5.253   4.839  10.129  0.2848  0.7416  0.0812
  136SAPE   C2914744   5.344   4.699  10.012  0.2964  0.8991 -0.3053
  136SAPE   H9R14745   5.286   4.729   9.924  1.6865  0.2454 -1.4916
  136SAPE  C21014746   5.448   4.601   9.966  0.5399 -0.1773 -0.1534
  136SAPE  H10R14747   5.392   4.515   9.925  1.1748 -0.6462 -0.0553
  136SAPE  H10S14748   5.502   4.557  10.053  0.1342  2.2167  1.4005
  136SAPE  C21114749   5.554   4.652   9.870  0.1933  0.0678  0.3953
  136SAPE  H11R14750   5.645   4.695   9.915  0.8007 -0.6461 -0.1245
  136SAPE  C21214751   5.539   4.660   9.737 -0.6217  0.4100 -0.1924
  136SAPE  H12R14752   5.624   4.698   9.678 -0.2273  0.1532  0.2080
  136SAPE  C21314753   5.421   4.616   9.653  0.1472 -0.2603  0.5258
  136SAPE  H13R14754   5.427   4.683   9.564  0.4408  1.9876  2.1327
  136SAPE  H13S14755   5.326   4.637   9.707  0.2032 -1.1811  0.9933
  136SAPE  C21414756   5.418   4.470   9.629  0.9748  0.1419 -0.8148
  136SAPE  H14R14757   5.425   4.399   9.713  1.5201 -0.3896 -1.2981
  136SAPE  C21514758   5.405   4.398   9.519  0.3291 -0.1654 -0.1612
  136SAPE  H15R14759   5.420   4.290   9.530 -2.2794 -0.5412  0.1401
  136SAPE  C21614760   5.384   4.451   9.381  1.0809  0.4326 -0.4381
  136SAPE  H16R14761   5.484   4.474   9.338  2.2397 -0.8484  1.4343
  136SAPE  H16S14762   5.314   4.537   9.383 -2.7978 -2.5022  0.2257
  136SAPE  C21714763   5.298   4.356   9.298 -0.0447  0.4248 -0.7792
  136SAPE  H17R14764   5.280   4.393   9.194 -1.9696  1.1878 -0.2156
  136SAPE  H17S14765   5.197   4.354   9.346  0.7001 -0.0127  0.8240
  136SAPE  C21814766   5.335   4.209   9.292 -0.1878 -0.3393 -0.5262
  136SAPE  H18R14767   5.292   4.159   9.381 -1.2722  0.1524 -0.7597
  136SAPE  H18S14768   5.446   4.197   9.295 -0.1873 -0.2346  0.7830
  136SAPE  C21914769   5.287   4.155   9.161  0.4399  0.0649  0.6396
  136SAPE  H19R14770   5.345   4.193   9.074 -1.3580  0.9841 -0.2212
  136SAPE  H19S14771   5.179   4.179   9.145  0.1985 -1.3796 -0.0908
  136SAPE  C22014772   5.308   4.005   9.163  1.0463 -0.6066  0.5746
  136SAPE  H20R14773   5.418   3.990   9.155  1.3988  1.8629 -0.0816
  136SAPE  H20S14774   5.263   3.955   9.075  2.5556 -2.8190  0.9698
  136SAPE  H20T14775   5.271   3.949   9.252 -0.3712 -1.5573 -0.5739
  136SAPE   C3314776   5.952   5.601  10.374  1.2017  0.5654 -0.0865
  136SAPE   H3X14777   5.930   5.514  10.309 -1.2898  0.5175  0.7337
  136SAPE   H3Y14778   6.059   5.626  10.354  1.2999  2.4831  2.3906
  136SAPE   C3414779   5.863   5.718  10.326 -0.2473 -0.1698 -0.3053
  136SAPE   H4X14780   5.900   5.814  10.368  1.4761 -0.9418  0.0185
  136SAPE   H4Y14781   5.759   5.716  10.366  0.5568  0.8374  2.0016
  136SAPE   C3514782   5.851   5.718  10.169 -0.0742  0.1918 -0.1170
  136SAPE   H5X14783   5.759   5.778  10.151 -0.4012 -0.3361 -0.2462
  136SAPE   H5Y14784   5.821   5.614  10.144  0.8720  0.0065 -0.5238
  136SAPE   C3614785   5.971   5.761  10.076 -0.8228  0.1264  0.0216
  136SAPE   H6X14786   6.066   5.719  10.115  0.7916  1.5481 -2.1761
  136SAPE   H6Y14787   5.997   5.869  10.073  0.7104 -0.2486 -1.5922
  136SAPE   C3714788   5.948   5.702   9.932 -0.1896 -0.3021  0.4094
  136SAPE   H7X14789   5.942   5.591   9.939  0.0856 -0.3189  0.4191
  136SAPE   H7Y14790   6.041   5.721   9.873 -1.0362 -0.0329 -0.8869
  136SAPE   C3814791   5.812   5.748   9.859  0.3499  0.4317  0.0043
  136SAPE   H8X14792   5.793   5.856   9.877 -0.0639  0.3821 -0.1312
  136SAPE   H8Y14793   5.735   5.696   9.919  0.5431  1.6200  1.3338
  136SAPE   C3914794   5.808   5.696   9.715 -0.0287  0.9113  0.4756
  136SAPE   H9X14795   5.884   5.752   9.657 -0.3030  0.6343 -0.1612
  136SAPE   H9Y14796   5.710   5.716   9.666  1.4162  0.8463 -2.6223
  136SAPE  C31014797   5.833   5.540   9.696  0.0624 -0.1667 -0.2031
  136SAPE  H10X14798   5.764   5.489   9.766 -0.0361 -1.0769 -0.9482
  136SAPE  H10Y14799   5.938   5.535   9.732  0.8205  4.6114 -0.9883
  136SAPE  C31114800   5.828   5.474   9.561  0.0116  0.8239  0.0101
  136SAPE  H11X14801   5.826   5.364   9.581  1.2062  0.4859 -1.5232
  136SAPE  H11Y14802   5.924   5.485   9.505 -0.0197  2.1686  0.2003
  136SAPE  C31214803   5.717   5.520   9.471  0.2155 -0.3543  1.5652
  136SAPE  H12X14804   5.726   5.629   9.452 -2.1622 -0.4321 -0.5399
  136SAPE  H12Y14805   5.613   5.508   9.509 -0.8266 -0.3112 -1.0556
  136SAPE  C31314806   5.732   5.459   9.330  0.2173 -0.3655  0.5019
  136SAPE  H13X14807   5.758   5.352   9.346  1.0588 -0.2410 -0.0139
  136SAPE  H13Y14808   5.814   5.506   9.272 -1.6882  1.5813 -0.7488
  136SAPE  C31414809   5.600   5.457   9.250 -0.1475 -0.0253 -0.0016
  136SAPE  H14X14810   5.524   5.393   9.300  0.8978 -0.1636  1.4740
  136SAPE  H14Y14811   5.615   5.404   9.154 -1.0439 -3.8602  1.7872
  136SAPE  C31514812   5.542   5.600   9.218 -0.0472 -0.3737 -0.3251
  136SAPE  H15X14813   5.632   5.654   9.180 -0.4308 -0.5900 -1.5879
  136SAPE  H15Y14814   5.500   5.650   9.307  1.8876  0.7356  0.0374
  136SAPE  C31614815   5.443   5.600   9.101  0.5416  0.9203  0.2565
  136SAPE  H16X14816   5.354   5.554   9.149 -0.4808  0.6232 -1.8088
  136SAPE  H16Y14817   5.486   5.538   9.020  1.9480  2.3367 -0.1324
  136SAPE  C31714818   5.411   5.729   9.038 -0.0748 -0.3534  0.0321
  136SAPE  H17X14819   5.337   5.716   8.956 -0.6381 -2.6318  0.8205
  136SAPE  H17Y14820   5.500   5.778   8.994 -1.9025  1.3706 -2.0405
  136SAPE  C31814821   5.335   5.829   9.128  0.3012  0.9582  0.0018
  136SAPE  H18X14822   5.246   5.778   9.171  0.0277  1.2020 -0.2734
  136SAPE  H18Y14823   5.293   5.915   9.072 -0.0817  0.7023 -0.1037
  136SAPE  H18Z14824   5.398   5.870   9.210 -0.1467  1.5511  0.0570
  137SAPE     N14825   2.769   1.995  10.735 -0.5546 -0.1773 -0.2986
  137SAPE   HN114826   2.713   2.083  10.733  0.3285  0.4032 -3.2939
  137SAPE   HN214827   2.851   2.016  10.796 -1.0628  2.9216 -0.5255
  137SAPE   HN314828   2.803   1.970  10.640 -1.0155 -0.4676 -0.3895
  137SAPE   C1214829   2.680   1.882  10.783  0.1340 -1.1622  0.1062
  137SAPE  H12A14830   2.740   1.793  10.815 -1.0212 -1.2351  2.2683
  137SAPE  H12B14831   2.624   1.857  10.691 -0.0543  1.0949 -0.4451
  137SAPE   C1114832   2.583   1.928  10.895  0.1910  0.2844 -0.2550
  137SAPE  H11A14833   2.624   1.887  10.990 -2.3986 -0.1799  0.7277
  137SAPE  H11B14834   2.491   1.868  10.876  0.6627 -0.2166 -1.0347
  137SAPE     P14835   2.416   2.124  10.929  0.1842 -0.4751 -0.0807
  137SAPE   O1314836   2.343   2.019  11.003  0.5787 -0.0189 -0.6264
  137SAPE   O1414837   2.430   2.254  10.989  0.4898 -0.6473 -0.1431
  137SAPE   O1214838   2.561   2.066  10.899  0.0991 -0.7283  0.3688
  137SAPE   O1114839   2.360   2.133  10.782  0.9361 -0.5264 -0.0220
  137SAPE    C114840   2.252   2.223  10.752 -0.2225 -0.3602 -0.3438
  137SAPE    HA14841   2.163   2.169  10.712 -0.6690 -0.7824  1.1486
  137SAPE    HB14842   2.207   2.277  10.838 -1.0705  0.0270 -1.0109
  137SAPE    C214843   2.297   2.325  10.642  0.2913  0.2251  0.0594
  137SAPE    HS14844   2.205   2.366  10.594  1.1962  2.6151  0.2155
  137SAPE   O2114845   2.383   2.260  10.548  0.5252  0.5150  0.3115
  137SAPE   C2114846   2.323   2.198  10.434  0.5491 -0.7946 -0.2331
  137SAPE   O2214847   2.203   2.178  10.422 -0.2703  0.9199  0.6294
  137SAPE   C2214848   2.440   2.137  10.356 -0.7324 -0.1968 -0.0606
  137SAPE   H2R14849   2.527   2.206  10.358  0.4833 -1.6779  1.5376
  137SAPE   H2S14850   2.458   2.041  10.408 -2.4204  0.5229  2.0543
  137SAPE    C314851   2.377   2.446  10.695  0.0766  0.4605 -0.8173
  137SAPE    HX14852   2.472   2.409  10.739  1.1228  1.6046 -2.0121
  137SAPE    HY14853   2.318   2.490  10.779  0.9938 -0.6552  0.4505
  137SAPE   O3114854   2.392   2.544  10.595 -0.4322  0.9346 -0.0567
  137SAPE   C3114855   2.511   2.567  10.552  0.1499 -0.4002  0.2486
  137SAPE   O3214856   2.615   2.504  10.584  0.3564 -0.8126 -0.1392
  137SAPE   C3214857   2.498   2.681  10.454 -0.5192  0.2668  0.0219
  137SAPE   H2X14858   2.598   2.693  10.408 -1.3319  2.5975 -1.3195
  137SAPE   H2Y14859   2.488   2.775  10.514 -1.1746  0.7149 -0.7571
  137SAPE   C2314860   2.406   2.109  10.206  0.7213  0.0081 -0.1912
  137SAPE   H3R14861   2.316   2.043  10.214 -0.7923  2.0153  0.1071
  137SAPE   H3S14862   2.495   2.055  10.167  1.4982  2.5829 -2.2706
  137SAPE   C2414863   2.360   2.233  10.131 -0.0388 -0.0915  0.1840
  137SAPE   H4R14864   2.278   2.290  10.179 -1.6020  0.1558 -2.5830
  137SAPE   H4S14865   2.311   2.187  10.043 -0.0679 -0.2726  0.2930
  137SAPE   C2514866   2.466   2.336  10.097  0.5353  0.1115  0.5893
  137SAPE   H5R14867   2.504   2.403  10.175  0.0094  1.0687  0.0467
  137SAPE   C2614868   2.502   2.359   9.967 -0.2412  0.3802 -0.3577
  137SAPE   H6R14869   2.589   2.424   9.955  1.3342 -0.6829  3.5596
  137SAPE   C2714870   2.456   2.284   9.845 -0.2161 -0.0413  0.7214
  137SAPE   H7R14871   2.468   2.178   9.877  2.3799  0.4908  1.7817
  137SAPE   H7S14872   2.527   2.297   9.760 -1.8778  2.2060 -0.4484
  137SAPE   C2814873   2.312   2.300   9.801  0.2810  0.0012 -0.2870
  137SAPE   H8R14874   2.249   2.358   9.870  2.3110  2.0711 -0.0220
  137SAPE   C2914875   2.262   2.253   9.690 -0.2636 -0.1476  0.0611
  137SAPE   H9R14876   2.153   2.263   9.683 -0.2790 -0.0914  0.3579
  137SAPE  C21014877   2.329   2.174   9.576 -0.3347  0.7846 -0.2012
  137SAPE  H10R14878   2.248   2.128   9.515 -2.0712  1.9162  1.1483
  137SAPE  H10S14879   2.384   2.087   9.620 -1.8884  0.3359  0.9654
  137SAPE  C21114880   2.414   2.255   9.492 -0.2691 -0.3047 -0.2343
  137SAPE  H11R14881   2.519   2.260   9.525 -0.1648  0.6146 -0.6869
  137SAPE  C21214882   2.376   2.332   9.390  0.0869 -0.0041  0.2157
  137SAPE  H12R14883   2.447   2.390   9.331 -0.4769 -0.0230 -0.4976
  137SAPE  C21314884   2.233   2.351   9.343  0.1880  0.6282 -0.1545
  137SAPE  H13R14885   2.196   2.455   9.354  2.2439  1.7033 -2.4486
  137SAPE  H13S14886   2.168   2.299   9.417  2.4118 -1.0393  0.7498
  137SAPE  C21414887   2.218   2.302   9.203  0.2690  0.2412  0.3591
  137SAPE  H14R14888   2.269   2.206   9.186 -0.4917  0.1384 -1.6186
  137SAPE  C21514889   2.159   2.362   9.095 -0.3327 -0.4130 -0.6412
  137SAPE  H15R14890   2.158   2.314   8.996  0.5229 -0.4787 -0.6274
  137SAPE  C21614891   2.090   2.500   9.098  0.5114  0.9522 -0.4725
  137SAPE  H16R14892   2.163   2.582   9.084 -0.0819  1.6881  0.5567
  137SAPE  H16S14893   2.050   2.515   9.201 -2.1807  0.9416 -1.4515
  137SAPE  C21714894   1.969   2.510   9.012 -0.3922  0.2261 -0.8467
  137SAPE  H17R14895   1.924   2.408   9.015 -2.6769  1.1921 -1.1458
  137SAPE  H17S14896   2.003   2.516   8.906 -0.5395 -1.4310 -1.0133
  137SAPE  C21814897   1.868   2.615   9.050  0.2245  0.5915 -0.1005
  137SAPE  H18R14898   1.830   2.592   9.151  0.2105  1.5796  0.1264
  137SAPE  H18S14899   1.786   2.608   8.975  1.4863 -3.6225 -1.3737
  137SAPE  C21914900   1.931   2.759   9.054  0.7951  0.1272 -0.8148
  137SAPE  H19R14901   1.982   2.783   8.958  0.3404 -0.3355 -1.1800
  137SAPE  H19S14902   2.013   2.768   9.128  0.2773  0.3784 -0.2658
  137SAPE  C22014903   1.832   2.863   9.090  0.2664  0.3287 -0.2684
  137SAPE  H20R14904   1.747   2.836   9.023  0.0253  0.6320 -0.0858
  137SAPE  H20S14905   1.862   2.969   9.085 -2.9902  1.3818 -0.0511
  137SAPE  H20T14906   1.768   2.853   9.181 -4.0749  1.5235 -2.8976
  137SAPE   C3314907   2.389   2.649  10.356  0.0196  0.3957  0.3137
  137SAPE   H3X14908   2.311   2.716  10.397  1.2367  1.4948  0.9170
  137SAPE   H3Y14909   2.339   2.550  10.358 -3.0702  1.7559 -1.4645
  137SAPE   C3414910   2.427   2.702  10.221 -0.8622 -0.0600 -0.3854
  137SAPE   H4X14911   2.517   2.656  10.177  2.0533  2.0825  2.8478
  137SAPE   H4Y14912   2.451   2.810  10.234  1.4826 -0.7620  1.7909
  137SAPE   C3514913   2.313   2.686  10.112 -0.1013  0.6248 -0.5939
  137SAPE   H5X14914   2.221   2.735  10.151 -0.6672 -1.4182  0.8130
  137SAPE   H5Y14915   2.277   2.581  10.106 -1.3019  1.0665 -1.3559
  137SAPE   C3614916   2.340   2.722   9.962 -0.5561 -0.9060  0.7130
  137SAPE   H6X14917   2.433   2.681   9.917 -1.1241 -0.3531 -1.0488
  137SAPE   H6Y14918   2.353   2.832   9.963 -1.1802 -0.8202 -0.0367
  137SAPE   C3714919   2.228   2.674   9.875 -0.5126  1.0772 -0.0783
  137SAPE   H7X14920   2.133   2.693   9.929 -0.1148  3.9591 -0.2040
  137SAPE   H7Y14921   2.228   2.564   9.860 -2.9796  0.8124  1.3718
  137SAPE   C3814922   2.204   2.734   9.732  0.7815  0.0353  0.5815
  137SAPE   H8X14923   2.219   2.844   9.724 -1.0636  0.1686 -2.6949
  137SAPE   H8Y14924   2.098   2.724   9.700  1.2061 -0.6973 -0.6431
  137SAPE   C3914925   2.297   2.686   9.622  0.3594  0.9100 -0.3471
  137SAPE   H9X14926   2.297   2.574   9.618  0.3228  0.9460 -2.6712
  137SAPE   H9Y14927   2.399   2.724   9.642 -0.0482  0.7251  2.4132
  137SAPE  C31014928   2.247   2.737   9.484 -0.2132 -0.4815  0.3333
  137SAPE  H10X14929   2.150   2.690   9.456  1.2844 -2.3056 -2.2555
  137SAPE  H10Y14930   2.314   2.703   9.402 -1.1124  0.7257 -0.9351
  137SAPE  C31114931   2.221   2.888   9.464  0.4483  0.3877 -0.1788
  137SAPE  H11X14932   2.301   2.944   9.516  0.5482 -0.4889  0.6505
  137SAPE  H11Y14933   2.118   2.912   9.499  0.6698 -0.2973  0.9964
  137SAPE  C31214934   2.221   2.927   9.313 -0.8487 -0.3972  0.4934
  137SAPE  H12X14935   2.116   2.940   9.280 -0.9988  0.5036  1.2834
  137SAPE  H12Y14936   2.277   2.851   9.253  3.2067  0.0792  3.2351
  137SAPE  C31314937   2.281   3.072   9.299  0.9800 -0.3645 -0.1060
  137SAPE  H13X14938   2.386   3.077   9.335  1.4484  0.5419 -1.5144
  137SAPE  H13Y14939   2.220   3.135   9.368  0.4821 -0.3725 -0.5312
  137SAPE  C31414940   2.286   3.132   9.159 -0.0333 -0.4203 -0.0345
  137SAPE  H14X14941   2.187   3.106   9.117 -0.3394 -1.8098  1.4096
  137SAPE  H14Y14942   2.356   3.073   9.096 -0.4068 -0.0806 -0.7684
  137SAPE  C31514943   2.311   3.285   9.152  0.3379  0.5898 -0.1166
  137SAPE  H15X14944   2.407   3.298   9.207 -0.0766  1.2012  0.4865
  137SAPE  H15Y14945   2.231   3.344   9.203  0.4697  0.8017 -0.1571
  137SAPE  C31614946   2.306   3.330   8.998 -0.0339 -0.2051 -0.6607
  137SAPE  H16X14947   2.365   3.256   8.940  0.0061 -1.1478  0.5315
  137SAPE  H16Y14948   2.342   3.434   8.993 -1.4505  0.2948 -0.9411
  137SAPE  C31714949   2.162   3.334   8.934 -0.3364 -0.0270 -0.6827
  137SAPE  H17X14950   2.099   3.404   8.993 -1.3675 -0.2129 -1.5180
  137SAPE  H17Y14951   2.120   3.234   8.962 -0.6495  0.7717  1.9867
  137SAPE  C31814952   2.155   3.373   8.790 -0.3442 -0.4290  0.8837
  137SAPE  H18X14953   2.188   3.479   8.777  0.5661 -0.6579  1.2248
  137SAPE  H18Y14954   2.054   3.365   8.744 -1.4297  0.9241  2.8745
  137SAPE  H18Z14955   2.224   3.308   8.732  1.7187  2.5353 -0.2882
  138SAPE     N14956   0.474   2.802  10.890 -0.1294 -0.0371 -0.0706
  138SAPE   HN114957   0.530   2.884  10.860 -1.1729  0.7005 -0.0804
  138SAPE   HN214958   0.385   2.848  10.917 -0.7658 -0.9241 -0.5816
  138SAPE   HN314959   0.514   2.756  10.974 -0.2066 -0.7499 -0.4156
  138SAPE   C1214960   0.459   2.718  10.767  0.5218  0.4322  0.3470
  138SAPE  H12A14961   0.350   2.705  10.749  0.7968  0.1420 -1.3150
  138SAPE  H12B14962   0.489   2.614  10.792 -0.8961 -0.0196  0.2646
  138SAPE   C1114963   0.542   2.781  10.649  0.2030  0.5339  0.4237
  138SAPE  H11A14964   0.490   2.878  10.635 -1.5188 -0.4067  0.0838
  138SAPE  H11B14965   0.535   2.726  10.553  0.2194  2.2872 -0.6212
  138SAPE     P14966   0.783   2.689  10.710 -0.2154 -0.3122  0.2888
  138SAPE   O1314967   0.912   2.753  10.741 -0.0372 -0.1805  0.6590
  138SAPE   O1414968   0.727   2.602  10.818 -0.1042  0.3408 -0.8997
  138SAPE   O1214969   0.679   2.807  10.682  0.5116  0.2410  0.7922
  138SAPE   O1114970   0.788   2.622  10.573 -0.1804 -0.6190  0.0835
  138SAPE    C114971   0.803   2.696  10.450  0.2471 -0.0039 -0.6325
  138SAPE    HA14972   0.747   2.792  10.443  3.2211  2.0746  1.3409
  138SAPE    HB14973   0.907   2.732  10.434 -0.3777  1.4851 -1.6128
  138SAPE    C214974   0.764   2.603  10.329  0.2051  0.0760  0.1094
  138SAPE    HS14975   0.657   2.577  10.344 -0.0658  0.9056 -0.3319
  138SAPE   O2114976   0.847   2.483  10.331  0.8051  0.1125  0.0945
  138SAPE   C2114977   0.786   2.373  10.288 -0.1060 -1.4310 -0.4398
  138SAPE   O2214978   0.671   2.355  10.257  0.2946  0.3253 -0.1805
  138SAPE   C2214979   0.893   2.272  10.269 -0.6336 -0.4184 -0.0268
  138SAPE   H2R14980   0.985   2.333  10.284 -1.1709  0.8836 -1.6441
  138SAPE   H2S14981   0.886   2.186  10.338  3.0658 -0.7514  0.1409
  138SAPE    C314982   0.779   2.684  10.196  0.0729  0.2711 -0.0842
  138SAPE    HX14983   0.886   2.685  10.169 -0.2779  1.1577 -1.5543
  138SAPE    HY14984   0.756   2.792  10.209  1.1725  0.4185  0.7629
  138SAPE   O3114985   0.695   2.632  10.091 -0.1558 -0.7084  0.2808
  138SAPE   C3114986   0.759   2.554  10.000  0.7168  0.5550 -0.2112
  138SAPE   O3214987   0.876   2.523   9.996  0.5133  0.3326 -0.4472
  138SAPE   C3214988   0.646   2.492   9.918 -0.7198 -0.6539 -0.4212
  138SAPE   H2X14989   0.564   2.566   9.912 -0.3457 -0.0257  1.5780
  138SAPE   H2Y14990   0.613   2.409   9.983 -1.4148  0.3182  0.4825
  138SAPE   C2314991   0.901   2.214  10.131 -0.4329  0.0349 -0.1960
  138SAPE   H3R14992   0.884   2.291  10.053  3.0459 -1.1412 -2.3011
  138SAPE   H3S14993   0.817   2.142  10.120 -1.6610  0.6991  3.2711
  138SAPE   C2414994   1.044   2.167  10.097  0.0204 -0.1210 -0.2701
  138SAPE   H4R14995   1.111   2.255  10.103 -0.5134  0.2050  1.4074
  138SAPE   H4S14996   1.040   2.137   9.990 -1.4582  0.5313 -0.4213
  138SAPE   C2514997   1.090   2.058  10.182 -0.4448  0.3727  0.1417
  138SAPE   H5R14998   1.136   2.086  10.278  0.4024  0.8346 -0.3912
  138SAPE   C2614999   1.110   1.928  10.146 -0.4008  0.0599 -0.3002
  138SAPE   H6R15000   1.146   1.853  10.219  1.4787 -1.5568 -2.7067
  138SAPE   C2715001   1.084   1.868  10.014  0.6611 -0.1581 -0.3562
  138SAPE   H7R15002   1.145   1.775  10.019  1.0453  0.1108 -0.0027
  138SAPE   H7S15003   1.119   1.939   9.935 -1.0141 -0.5336 -1.4748
  138SAPE   C2815004   0.936   1.841   9.990  0.2111  0.0396  1.1381
  138SAPE   H8R15005   0.880   1.765  10.046  0.0634 -0.6589  0.0613
  138SAPE   C2915006   0.864   1.893   9.887 -0.0296  0.4627  0.3668
  138SAPE   H9R15007   0.759   1.862   9.879  0.1888  0.0486 -1.2880
  138SAPE  C21015008   0.903   1.989   9.787 -0.6533 -0.3826  0.1518
  138SAPE  H10R15009   1.012   1.975   9.766 -0.5448 -0.5933  0.8482
  138SAPE  H10S15010   0.901   2.086   9.841 -2.4810 -1.2125  1.6626
  138SAPE  C21115011   0.817   1.986   9.664  0.1501 -0.6716 -0.2977
  138SAPE  H11R15012   0.764   2.082   9.650 -0.1878 -0.4017  2.3232
  138SAPE  C21215013   0.806   1.892   9.571  0.0121  0.0455  0.3816
  138SAPE  H12R15014   0.729   1.906   9.494  1.2570 -2.1300 -1.3832
  138SAPE  C21315015   0.878   1.762   9.572  0.6645  0.0722 -0.4575
  138SAPE  H13R15016   0.953   1.748   9.653  0.1512 -2.0230 -0.2691
  138SAPE  H13S15017   0.937   1.750   9.479 -0.0098 -1.9235 -0.6856
  138SAPE  C21415018   0.783   1.645   9.586  0.4872  0.7607 -0.1368
  138SAPE  H14R15019   0.725   1.638   9.679  0.4076 -1.1871 -0.2876
  138SAPE  C21515020   0.782   1.528   9.509 -0.3970 -0.7946 -0.1635
  138SAPE  H15R15021   0.716   1.445   9.538  0.2629 -1.4591 -0.5480
  138SAPE  C21615022   0.876   1.502   9.396 -0.2272  0.3573  0.4476
  138SAPE  H16R15023   0.941   1.415   9.419 -0.7739 -0.3439 -0.5723
  138SAPE  H16S15024   0.938   1.590   9.367  0.5819 -0.3386  0.0370
  138SAPE  C21715025   0.793   1.463   9.274 -0.1571  0.6038  0.2867
  138SAPE  H17R15026   0.731   1.371   9.283  0.9268 -0.2152 -0.3221
  138SAPE  H17S15027   0.866   1.439   9.193 -0.3320  0.9924  0.0107
  138SAPE  C21815028   0.715   1.589   9.217  0.1281 -0.0830 -0.0339
  138SAPE  H18R15029   0.785   1.676   9.219 -0.6357  0.5923 -1.2648
  138SAPE  H18S15030   0.636   1.609   9.293 -1.5153  2.1315 -2.1753
  138SAPE  C21915031   0.646   1.575   9.081 -0.3568  0.1169  0.2301
  138SAPE  H19R15032   0.578   1.660   9.059 -1.1195 -0.1416  1.4758
  138SAPE  H19S15033   0.576   1.490   9.094  0.0441 -0.2207  0.2062
  138SAPE  C22015034   0.755   1.559   8.972 -0.0406 -0.6708 -0.9923
  138SAPE  H20R15035   0.810   1.463   8.988  3.3843  1.1449 -0.9499
  138SAPE  H20S15036   0.828   1.642   8.980 -0.5052 -0.4060  0.7587
  138SAPE  H20T15037   0.706   1.552   8.872  0.4108 -3.1323 -1.1007
  138SAPE   C3315038   0.701   2.434   9.787  0.1636 -0.0478 -0.0488
  138SAPE   H3X15039   0.799   2.383   9.797  0.6415  0.6946 -0.7592
  138SAPE   H3Y15040   0.718   2.521   9.720 -0.3441  0.3752  0.3631
  138SAPE   C3415041   0.600   2.349   9.703 -0.2507  0.2997  0.0987
  138SAPE   H4X15042   0.501   2.400   9.702  0.0737  0.9437  0.2825
  138SAPE   H4Y15043   0.595   2.248   9.749  1.1734  1.2335  2.4753
  138SAPE   C3515044   0.660   2.335   9.559 -0.1187 -0.8559 -0.5147
  138SAPE   H5X15045   0.748   2.268   9.567 -1.3868 -2.4935  0.2867
  138SAPE   H5Y15046   0.697   2.431   9.518 -0.1545 -0.2151  0.9132
  138SAPE   C3615047   0.563   2.268   9.467  0.1094 -0.0378  0.5289
  138SAPE   H6X15048   0.487   2.339   9.427  0.0964 -0.7248 -0.6966
  138SAPE   H6Y15049   0.498   2.201   9.527 -1.4524  1.6047  0.7664
  138SAPE   C3715050   0.638   2.202   9.348  0.1127  0.4432  0.0770
  138SAPE   H7X15051   0.685   2.115   9.399 -0.2547  0.8899  1.2184
  138SAPE   H7Y15052   0.712   2.262   9.291  0.4191 -1.1686 -1.3106
  138SAPE   C3815053   0.536   2.146   9.245  0.2048  0.4950  0.4250
  138SAPE   H8X15054   0.499   2.232   9.185 -0.4905 -0.0837  0.0077
  138SAPE   H8Y15055   0.450   2.090   9.290  0.3542 -0.4281 -0.4060
  138SAPE   C3915056   0.604   2.064   9.125  0.1783  0.1098  0.8869
  138SAPE   H9X15057   0.623   1.959   9.158 -0.1966 -0.8280 -1.6428
  138SAPE   H9Y15058   0.695   2.116   9.088 -0.6374  0.3388 -0.9015
  138SAPE  C31015059   0.510   2.063   9.000 -1.4331  0.2131 -0.6600
  138SAPE  H10X15060   0.519   2.165   8.955 -0.8481 -0.3578 -1.8822
  138SAPE  H10Y15061   0.409   2.052   9.044 -1.2327  1.0631  0.0472
  138SAPE  C31115062   0.540   1.951   8.898  0.0618  0.6619  0.1427
  138SAPE  H11X15063   0.531   1.853   8.951 -0.8343  0.7146  0.1088
  138SAPE  H11Y15064   0.639   1.956   8.849 -1.1624 -0.3713 -2.6715
  138SAPE  C31215065   0.440   1.958   8.777 -0.2652 -0.1175  0.7601
  138SAPE  H12X15066   0.419   2.063   8.747 -4.4872 -0.4928  1.8621
  138SAPE  H12Y15067   0.344   1.912   8.808 -0.6434  0.9550  1.1985
  138SAPE  C31315068   0.487   1.871   8.657  0.3699 -0.1469 -0.3007
  138SAPE  H13X15069   0.553   1.785   8.680 -0.5878 -1.2405 -1.5169
  138SAPE  H13Y15070   0.555   1.929   8.591  0.1259 -1.2581 -1.5555
  138SAPE  C31415071   0.372   1.826   8.573 -0.3461 -0.1438  0.5405
  138SAPE  H14X15072   0.307   1.914   8.552  1.4558  0.9717 -0.6555
  138SAPE  H14Y15073   0.321   1.750   8.636 -0.6497 -0.6654 -0.3111
  138SAPE  C31515074   0.412   1.765   8.439  0.1838 -0.1294 -0.1814
  138SAPE  H15X15075   0.419   1.657   8.465 -2.3095 -0.4408 -0.6029
  138SAPE  H15Y15076   0.511   1.797   8.400  0.2903 -0.2631 -0.0238
  138SAPE  C31615077   0.306   1.773   8.330 -0.2193 -0.1315  0.1811
  138SAPE  H16X15078   0.290   1.877   8.293 -1.9555 -1.0111 -1.6957
  138SAPE  H16Y15079   0.213   1.727   8.369 -2.4865  4.0696  0.3255
  138SAPE  C31715080   0.354   1.710   8.202  0.4563  0.3635 -0.2479
  138SAPE  H17X15081   0.382   1.605   8.222  1.6413  0.6433 -0.3541
  138SAPE  H17Y15082   0.446   1.764   8.170  1.7147  0.0018  2.4552
  138SAPE  C31815083   0.248   1.703   8.090  0.2607 -0.4646 -0.0241
  138SAPE  H18X15084   0.231   1.807   8.056 -0.3304 -0.4193  0.3996
  138SAPE  H18Y15085   0.150   1.673   8.132  0.7833 -0.1255  1.5304
  138SAPE  H18Z15086   0.284   1.642   8.004 -1.4944 -2.1882  0.3946
  139SAPE     N15087   0.581   4.999  11.087  0.1081 -1.0406  0.0190
  139SAPE   HN115088   0.630   5.078  11.040  0.7842 -1.1178  0.5766
  139SAPE   HN215089   0.493   4.982  11.036  0.7394 -2.1367 -0.7448
  139SAPE   HN315090   0.563   5.025  11.186  0.3866 -0.6816 -0.0233
  139SAPE   C1215091   0.671   4.877  11.085 -0.3478  0.1845  0.5009
  139SAPE  H12A15092   0.636   4.829  10.991 -0.8344 -0.5166  1.0263
  139SAPE  H12B15093   0.636   4.813  11.169  0.0036 -0.5160  0.1238
  139SAPE   C1115094   0.821   4.912  11.076  0.6116  0.3381 -0.1511
  139SAPE  H11A15095   0.872   4.814  11.065 -0.6497 -0.2226 -1.1980
  139SAPE  H11B15096   0.856   4.938  11.179  1.5317 -2.3058  0.2753
  139SAPE     P15097   0.919   4.978  10.836  0.0336  0.5600 -0.0280
  139SAPE   O1315098   0.966   5.101  10.765  0.1739 -0.0779 -0.2554
  139SAPE   O1415099   1.021   4.871  10.867  0.4392 -0.0315 -0.0130
  139SAPE   O1215100   0.856   5.015  10.975 -0.6322  0.4156 -1.2241
  139SAPE   O1115101   0.808   4.907  10.746 -0.2469 -0.6265  0.2387
  139SAPE    C115102   0.797   4.764  10.746 -0.2673 -0.5633  0.4438
  139SAPE    HA15103   0.811   4.731  10.851  2.2632  1.4220  0.8248
  139SAPE    HB15104   0.696   4.727  10.715 -0.9787 -1.2846  3.2954
  139SAPE    C215105   0.892   4.695  10.652 -0.8422  0.7620  0.8316
  139SAPE    HS15106   0.994   4.730  10.675  0.3435 -1.4793 -0.5847
  139SAPE   O2115107   0.863   4.730  10.515 -0.4502  0.2574  0.0529
  139SAPE   C2115108   0.967   4.702  10.432 -0.1233 -0.0960  0.1575
  139SAPE   O2215109   1.084   4.690  10.466 -0.4903  0.2185  0.2920
  139SAPE   C2215110   0.917   4.710  10.288  0.0771 -0.4601 -0.5120
  139SAPE   H2R15111   0.829   4.642  10.281  0.2652 -0.7690  0.1005
  139SAPE   H2S15112   0.880   4.813  10.266 -2.3661 -0.6381  2.1572
  139SAPE    C315113   0.907   4.541  10.676  0.2744 -0.1832 -0.0108
  139SAPE    HX15114   0.927   4.505  10.780 -1.9874 -0.5961  0.3216
  139SAPE    HY15115   0.992   4.504  10.615 -0.3952 -1.0718 -0.4278
  139SAPE   O3115116   0.784   4.475  10.633 -0.0910 -0.0252 -0.0252
  139SAPE   C3115117   0.788   4.401  10.519  1.0070 -0.1429  0.2545
  139SAPE   O3215118   0.886   4.396  10.442  0.4391  0.0818 -0.0114
  139SAPE   C3215119   0.665   4.307  10.501 -0.3201  0.1688 -0.0853
  139SAPE   H2X15120   0.619   4.311  10.602  2.4027  1.3589  1.2129
  139SAPE   H2Y15121   0.706   4.205  10.486  2.6337  0.7410  2.9292
  139SAPE   C2315122   1.033   4.674  10.192 -0.0222 -0.0292 -0.0772
  139SAPE   H3R15123   1.086   4.587  10.236  4.7527  1.0600 -2.8936
  139SAPE   H3S15124   1.101   4.761  10.186 -0.2693  0.1595 -0.1780
  139SAPE   C2415125   0.994   4.621  10.046  0.0933  0.5116 -0.1121
  139SAPE   H4R15126   0.945   4.522  10.034 -0.6006  0.7539  0.6323
  139SAPE   H4S15127   1.085   4.602   9.985  1.1507  0.9631  1.2538
  139SAPE   C2515128   0.911   4.732   9.979  0.0410 -0.4094  0.4449
  139SAPE   H5R15129   0.881   4.818  10.040 -1.2358  4.4311 -5.9370
  139SAPE   C2615130   0.870   4.723   9.851  0.6844 -0.4561 -0.0064
  139SAPE   H6R15131   0.812   4.804   9.805  3.9247  0.9852 -1.8703
  139SAPE   C2715132   0.888   4.615   9.747  0.4130 -0.4173 -0.6782
  139SAPE   H7R15133   0.836   4.655   9.657 -0.3943 -1.8521 -0.8851
  139SAPE   H7S15134   0.827   4.525   9.769 -0.0582 -0.0106 -0.2775
  139SAPE   C2815135   1.024   4.563   9.717  0.0418  0.1637  0.3414
  139SAPE   H8R15136   1.086   4.512   9.792 -0.5628 -0.7294  0.2540
  139SAPE   C2915137   1.087   4.560   9.601  0.4995  0.3317 -0.2373
  139SAPE   H9R15138   1.182   4.508   9.586  1.1564  0.4217  2.8610
  139SAPE  C21015139   1.022   4.610   9.475 -0.3501 -0.0879  0.0379
  139SAPE  H10R15140   1.009   4.720   9.484 -0.4963 -0.0745 -0.3202
  139SAPE  H10S15141   0.916   4.576   9.472 -0.6161  0.5261  1.4279
  139SAPE  C21115142   1.094   4.580   9.339 -0.8103 -0.3287  0.8054
  139SAPE  H11R15143   1.202   4.599   9.341 -0.6401 -1.2421  0.8871
  139SAPE  C21215144   1.043   4.520   9.227 -0.2457 -0.3145 -0.8480
  139SAPE  H12R15145   1.107   4.506   9.138  0.1625 -2.2873 -0.2703
  139SAPE  C21315146   0.901   4.458   9.221 -0.1586 -0.0209  0.2892
  139SAPE  H13R15147   0.818   4.520   9.262 -1.5850  0.8663 -3.5107
  139SAPE  H13S15148   0.903   4.361   9.276  1.8340 -0.0262  0.2792
  139SAPE  C21415149   0.852   4.424   9.085  0.2388  1.5351  0.2828
  139SAPE  H14R15150   0.870   4.318   9.064  3.5650  1.7981  1.1053
  139SAPE  C21515151   0.781   4.500   8.998  0.2238 -0.1857  0.1615
  139SAPE  H15R15152   0.756   4.454   8.901 -0.6925 -0.0530  0.3208
  139SAPE  C21615153   0.738   4.638   9.017  0.3703 -0.2718  0.0932
  139SAPE  H16R15154   0.736   4.663   9.126 -0.6406 -1.5633  0.3923
  139SAPE  H16S15155   0.637   4.649   8.973  1.1792 -1.2888 -2.1293
  139SAPE  C21715156   0.823   4.746   8.950  0.1322  0.0817 -0.0434
  139SAPE  H17R15157   0.828   4.721   8.842 -3.4246 -1.7043  0.0646
  139SAPE  H17S15158   0.923   4.762   8.997 -0.0063 -0.1945  0.3499
  139SAPE  C21815159   0.755   4.884   8.948  1.1726  0.5626  0.5067
  139SAPE  H18R15160   0.734   4.921   9.050 -0.2173 -0.9574  0.8046
  139SAPE  H18S15161   0.654   4.875   8.902  0.8180  1.6787  1.0361
  139SAPE  C21915162   0.847   4.996   8.887 -0.0440  0.3678  0.5801
  139SAPE  H19R15163   0.914   4.957   8.807 -0.5434 -1.2460  0.9110
  139SAPE  H19S15164   0.913   5.039   8.965  2.4608  0.9896 -1.7047
  139SAPE  C22015165   0.765   5.109   8.817 -0.3276 -0.2619  0.3502
  139SAPE  H20R15166   0.841   5.182   8.781 -0.4141 -0.2545  0.1844
  139SAPE  H20S15167   0.704   5.156   8.897 -0.8168 -1.7349  0.8829
  139SAPE  H20T15168   0.709   5.078   8.726  1.4462  0.6030 -1.0965
  139SAPE   C3315169   0.569   4.368  10.402  0.0469 -0.1900 -0.0536
  139SAPE   H3X15170   0.529   4.465  10.440  0.9931  0.0456  0.3650
  139SAPE   H3Y15171   0.475   4.310  10.398 -0.1097  0.1068 -1.0426
  139SAPE   C3415172   0.636   4.398  10.264  0.2949  0.0044  0.1855
  139SAPE   H4X15173   0.739   4.359  10.249 -0.3160 -1.8038  0.4255
  139SAPE   H4Y15174   0.646   4.508  10.253  1.6334 -0.2231 -1.1591
  139SAPE   C3515175   0.538   4.363  10.157  0.0405  0.0926  0.4113
  139SAPE   H5X15176   0.437   4.407  10.169 -0.6319 -1.2139 -0.2446
  139SAPE   H5Y15177   0.520   4.253  10.158 -1.0836  0.2677  1.8811
  139SAPE   C3615178   0.590   4.377  10.017 -0.5142 -0.6160 -0.2399
  139SAPE   H6X15179   0.652   4.290   9.987 -0.9402 -0.4048 -1.8518
  139SAPE   H6Y15180   0.665   4.460  10.017  0.0106 -1.0820 -0.8299
  139SAPE   C3715181   0.488   4.401   9.904  0.9385 -0.5053  0.2766
  139SAPE   H7X15182   0.542   4.458   9.826  2.5551 -0.2675  1.5068
  139SAPE   H7Y15183   0.409   4.472   9.935 -0.3067 -0.8947 -1.8056
  139SAPE   C3815184   0.415   4.266   9.857  0.4197 -0.3166  0.0906
  139SAPE   H8X15185   0.356   4.228   9.943 -0.2878  2.3622  0.8982
  139SAPE   H8Y15186   0.492   4.189   9.836  1.8546  0.8815  0.7707
  139SAPE   C3915187   0.332   4.267   9.725  0.3579  0.3794  0.1564
  139SAPE   H9X15188   0.264   4.354   9.726 -1.4338 -0.8500 -2.4265
  139SAPE   H9Y15189   0.272   4.173   9.727  3.1443 -1.6685 -2.7647
  139SAPE  C31015190   0.399   4.259   9.586  0.1302 -0.1893  0.2243
  139SAPE  H10X15191   0.318   4.250   9.510 -1.2930 -0.8318  1.7503
  139SAPE  H10Y15192   0.451   4.161   9.592  0.2280 -0.1905 -0.5274
  139SAPE  C31115193   0.497   4.374   9.560 -0.8533  0.4717  0.4950
  139SAPE  H11X15194   0.585   4.359   9.626  1.2153  1.8198 -1.7910
  139SAPE  H11Y15195   0.459   4.469   9.605  2.2247  1.3196  1.5087
  139SAPE  C31215196   0.544   4.393   9.418  0.1329 -0.3534  0.4078
  139SAPE  H12X15197   0.638   4.342   9.387 -1.2036 -2.4364 -0.4212
  139SAPE  H12Y15198   0.560   4.502   9.403 -2.2789 -0.3089 -2.8762
  139SAPE  C31315199   0.437   4.360   9.316 -0.7930 -0.2549 -0.2649
  139SAPE  H13X15200   0.343   4.415   9.339 -0.1592  1.3382 -1.3329
  139SAPE  H13Y15201   0.412   4.252   9.322  0.0002 -0.4279 -0.0499
  139SAPE  C31415202   0.484   4.403   9.175  0.2581  0.6023  0.3225
  139SAPE  H14X15203   0.569   4.334   9.155  0.4078  0.8694  0.0169
  139SAPE  H14Y15204   0.516   4.509   9.163 -2.2947  1.6022  1.5781
  139SAPE  C31515205   0.365   4.383   9.084 -0.8188 -0.1962 -0.0748
  139SAPE  H15X15206   0.281   4.435   9.135 -0.1359 -0.5630  1.4749
  139SAPE  H15Y15207   0.340   4.274   9.088  1.7690 -0.9006 -0.8367
  139SAPE  C31615208   0.397   4.427   8.938  0.1133 -0.1398 -0.4350
  139SAPE  H16X15209   0.433   4.532   8.938 -0.3470  0.0649  1.7965
  139SAPE  H16Y15210   0.480   4.363   8.900  1.4075  0.7831  0.7445
  139SAPE  C31715211   0.281   4.423   8.846  0.5922  0.4535 -0.0187
  139SAPE  H17X15212   0.204   4.474   8.907  1.6613  1.0218  0.9025
  139SAPE  H17Y15213   0.229   4.327   8.830  1.4074 -0.0145  0.0817
  139SAPE  C31815214   0.299   4.483   8.708  0.4883  0.1712  0.3977
  139SAPE  H18X15215   0.306   4.593   8.713  1.9107  0.1440 -0.4924
  139SAPE  H18Y15216   0.211   4.465   8.642  0.9061  0.2901 -0.1914
  139SAPE  H18Z15217   0.389   4.444   8.656  0.5459  2.9570 -1.8114
  140SAPE     N15218   2.677   5.455  10.905  0.5170  0.3386 -0.5692
  140SAPE   HN115219   2.666   5.503  10.813 -1.9641 -1.8315 -1.5273
  140SAPE   HN215220   2.741   5.496  10.975  0.2065 -1.7141  1.0158
  140SAPE   HN315221   2.716   5.362  10.877  3.1213  1.0817  0.3318
  140SAPE   C1215222   2.540   5.438  10.972 -0.1277  0.3315  0.0087
  140SAPE  H12A15223   2.497   5.539  10.958 -0.1931  0.1946 -0.8524
  140SAPE  H12B15224   2.552   5.414  11.080 -0.2493  1.6346  0.3201
  140SAPE   C1115225   2.471   5.322  10.903  0.3466  0.2344  0.0003
  140SAPE  H11A15226   2.447   5.350  10.799 -0.2438 -1.8962 -0.4916
  140SAPE  H11B15227   2.376   5.304  10.957 -0.3988  0.6308 -1.1509
  140SAPE     P15228   2.519   5.080  11.002 -0.4329 -0.2807  0.0683
  140SAPE   O1315229   2.629   4.981  11.007 -0.1588 -0.2250  0.2012
  140SAPE   O1415230   2.478   5.140  11.131  0.6240 -0.5151  0.3317
  140SAPE   O1215231   2.552   5.205  10.906  0.6118 -0.4140  0.3153
  140SAPE   O1115232   2.388   5.003  10.945 -0.3310 -0.0951  0.1967
  140SAPE    C115233   2.408   4.898  10.850 -0.1327  0.8930 -0.3582
  140SAPE    HA15234   2.510   4.904  10.805  0.2824 -0.3680  0.3601
  140SAPE    HB15235   2.394   4.799  10.900  0.9257 -0.6895 -3.0035
  140SAPE    C215236   2.302   4.921  10.733 -0.3831 -0.2634 -0.0329
  140SAPE    HS15237   2.206   4.973  10.751  0.1850  1.2296 -1.0774
  140SAPE   O2115238   2.292   4.793  10.669 -0.1060  0.1613 -0.1331
  140SAPE   C2115239   2.194   4.716  10.699 -0.3029 -0.3477 -0.2761
  140SAPE   O2215240   2.103   4.742  10.780 -0.1785  0.4042  0.2020
  140SAPE   C2215241   2.214   4.580  10.632 -0.1076  1.2119 -0.2450
  140SAPE   H2R15242   2.322   4.571  10.610  0.0664  4.4174 -1.1667
  140SAPE   H2S15243   2.195   4.505  10.712  2.6403  0.6964  0.0058
  140SAPE    C315244   2.358   5.020  10.632 -0.6007  0.5948  0.4459
  140SAPE    HX15245   2.456   4.971  10.616 -0.3851  0.2263  2.5888
  140SAPE    HY15246   2.385   5.114  10.684  0.0758  0.3634  0.5261
  140SAPE   O3115247   2.272   5.041  10.515 -0.4430  0.2050 -0.4143
  140SAPE   C3115248   2.180   5.136  10.529 -0.3837 -0.5677  0.1921
  140SAPE   O3215249   2.170   5.211  10.623  0.9387  0.1932 -0.3034
  140SAPE   C3215250   2.087   5.131  10.407  0.0676 -0.8262 -0.2624
  140SAPE   H2X15251   2.152   5.173  10.327  0.2174  1.2137  0.8717
  140SAPE   H2Y15252   2.010   5.208  10.429 -0.3407 -1.7691  1.8324
  140SAPE   C2315253   2.135   4.572  10.506  0.2437  0.2360  0.0639
  140SAPE   H3R15254   2.034   4.615  10.520  0.1825  0.1250 -0.0419
  140SAPE   H3S15255   2.128   4.465  10.478 -0.6504  0.2828  0.1043
  140SAPE   C2415256   2.196   4.640  10.380  0.1097  0.4072 -0.0335
  140SAPE   H4R15257   2.305   4.619  10.369  0.0178  0.3997 -1.0279
  140SAPE   H4S15258   2.202   4.750  10.390 -0.2833  0.4300 -0.0393
  140SAPE   C2515259   2.119   4.590  10.255  0.4762 -0.3550 -0.4971
  140SAPE   H5R15260   2.010   4.574  10.264  0.2499  0.0287 -2.1747
  140SAPE   C2615261   2.178   4.540  10.151  0.6337 -0.2214 -0.1951
  140SAPE   H6R15262   2.107   4.511  10.072  1.4849 -0.3885 -0.9129
  140SAPE   C2715263   2.322   4.539  10.117  0.6647  0.2499 -0.0374
  140SAPE   H7R15264   2.351   4.451  10.054 -0.6748 -0.4716  0.3233
  140SAPE   H7S15265   2.387   4.529  10.206 -0.7153  2.4704  1.2956
  140SAPE   C2815266   2.369   4.663  10.052  0.2258 -0.0887  0.0246
  140SAPE   H8R15267   2.330   4.754  10.101  1.0337 -0.0854  0.6884
  140SAPE   C2915268   2.443   4.687   9.945 -0.0898 -0.6429 -0.2827
  140SAPE   H9R15269   2.468   4.790   9.916 -1.4613 -0.1031  0.3662
  140SAPE  C21015270   2.494   4.573   9.860 -0.2869 -0.1122  0.3549
  140SAPE  H10R15271   2.476   4.587   9.751  0.9296  1.1678  0.2826
  140SAPE  H10S15272   2.446   4.476   9.885 -0.6519 -0.0266 -0.0100
  140SAPE  C21115273   2.642   4.552   9.853 -1.0329  0.0662  0.2055
  140SAPE  H11R15274   2.677   4.543   9.957  0.7803  1.9603 -0.1735
  140SAPE  C21215275   2.730   4.582   9.758 -0.3962  0.2873 -0.4632
  140SAPE  H12R15276   2.837   4.563   9.776 -0.5870  0.2165  0.6486
  140SAPE  C21315277   2.689   4.629   9.620  0.1171  0.0764 -0.4986
  140SAPE  H13R15278   2.595   4.689   9.627  0.4886  0.7354 -0.9672
  140SAPE  H13S15279   2.669   4.534   9.567 -0.4473  0.5903 -1.2403
  140SAPE  C21415280   2.800   4.716   9.569 -0.8069 -0.0859  0.4597
  140SAPE  H14R15281   2.778   4.819   9.600 -1.6654 -0.4273  1.0462
  140SAPE  C21515282   2.902   4.692   9.483 -0.1543 -0.8297 -0.2727
  140SAPE  H15R15283   2.978   4.770   9.472 -1.1549  0.4946  1.5759
  140SAPE  C21615284   2.934   4.556   9.422  0.2392  0.3074  0.5717
  140SAPE  H16R15285   2.909   4.475   9.493 -0.1592  0.1357  0.2403
  140SAPE  H16S15286   3.045   4.554   9.421  0.3665  2.7565 -1.4368
  140SAPE  C21715287   2.872   4.541   9.279 -0.1516 -0.1760 -0.6718
  140SAPE  H17R15288   2.763   4.519   9.283 -0.0199 -1.0545 -1.6323
  140SAPE  H17S15289   2.917   4.452   9.231 -0.7451 -1.2633  0.6982
  140SAPE  C21815290   2.890   4.665   9.186 -0.3821 -0.2001  0.4537
  140SAPE  H18R15291   2.992   4.696   9.154 -0.1056 -0.5214  0.9980
  140SAPE  H18S15292   2.860   4.758   9.240 -3.1234 -0.9109  0.2620
  140SAPE  C21915293   2.812   4.632   9.057 -0.2860  0.2643  0.3836
  140SAPE  H19R15294   2.788   4.729   9.010  0.6225 -0.3644 -1.5008
  140SAPE  H19S15295   2.720   4.573   9.075  0.0152 -0.0492  0.9332
  140SAPE  C22015296   2.894   4.552   8.956 -0.3208 -0.0731 -0.2266
  140SAPE  H20R15297   2.963   4.479   9.002  0.6712  1.0135  0.0650
  140SAPE  H20S15298   2.966   4.629   8.922  0.0267 -0.6297 -0.7530
  140SAPE  H20T15299   2.836   4.523   8.865  0.4961  2.0854 -1.5100
  140SAPE   C3315300   2.029   4.999  10.363 -0.0420 -0.3656 -0.5526
  140SAPE   H3X15301   1.990   4.942  10.450  1.7116  0.4567  0.8261
  140SAPE   H3Y15302   2.102   4.928  10.320 -0.0666  0.0458 -1.2806
  140SAPE   C3415303   1.901   5.022  10.279  0.4011 -0.1702 -0.1520
  140SAPE   H4X15304   1.909   5.107  10.208  0.6194  1.3961  1.6676
  140SAPE   H4Y15305   1.829   5.056  10.356  1.6286  0.4985  0.7426
  140SAPE   C3515306   1.845   4.904  10.208  0.3964 -0.8774 -0.4570
  140SAPE   H5X15307   1.745   4.940  10.173 -0.0776 -0.9263  0.8223
  140SAPE   H5Y15308   1.825   4.819  10.276  0.3730 -0.5998 -0.1189
  140SAPE   C3615309   1.938   4.863  10.093  0.1574 -0.4767  0.5846
  140SAPE   H6X15310   2.032   4.828  10.141  1.5245  1.7547 -0.2728
  140SAPE   H6Y15311   1.949   4.958  10.035 -2.5172  0.2612  1.1513
  140SAPE   C3715312   1.865   4.760  10.006 -0.5457 -0.3447  0.1275
  140SAPE   H7X15313   1.778   4.804   9.954  0.4672 -0.5193 -1.8220
  140SAPE   H7Y15314   1.832   4.678  10.074 -2.3988 -0.4422 -0.8167
  140SAPE   C3815315   1.947   4.706   9.892 -0.2922  0.5576  0.2482
  140SAPE   H8X15316   2.046   4.671   9.929  0.6943  0.9217 -1.8788
  140SAPE   H8Y15317   1.964   4.799   9.832 -0.3172  0.8328  0.6615
  140SAPE   C3915318   1.877   4.598   9.811  0.9593 -0.5646 -0.0643
  140SAPE   H9X15319   1.772   4.630   9.798  1.4674  0.7278 -1.1906
  140SAPE   H9Y15320   1.877   4.502   9.868  1.0669  0.1576  1.1816
  140SAPE  C31015321   1.947   4.565   9.681  0.0584 -0.4273  0.3735
  140SAPE  H10X15322   1.902   4.475   9.633  2.1433  0.0337 -2.7530
  140SAPE  H10Y15323   2.053   4.540   9.704 -0.1094 -0.3166  1.3215
  140SAPE  C31115324   1.943   4.681   9.581  0.4142 -0.7844 -0.2239
  140SAPE  H11X15325   2.004   4.767   9.616  0.3042 -1.7751  2.5924
  140SAPE  H11Y15326   1.838   4.711   9.559  0.7140 -0.5246 -1.3714
  140SAPE  C31215327   2.017   4.645   9.445  1.2851 -0.3677 -0.0317
  140SAPE  H12X15328   1.976   4.547   9.413  1.9182  0.2372 -2.9474
  140SAPE  H12Y15329   2.126   4.642   9.468  1.3642 -1.8321 -0.5048
  140SAPE  C31315330   1.991   4.754   9.346  0.4384 -0.1131  0.2730
  140SAPE  H13X15331   2.045   4.845   9.377  0.6367  0.3965 -1.4665
  140SAPE  H13Y15332   1.881   4.770   9.335  0.4339  0.0799  0.6137
  140SAPE  C31415333   2.045   4.715   9.211  0.1678 -0.2670 -0.4132
  140SAPE  H14X15334   2.147   4.679   9.235  0.1836 -0.9901 -1.4868
  140SAPE  H14Y15335   2.053   4.797   9.136  0.1639  1.2383  1.1661
  140SAPE  C31515336   1.978   4.594   9.139  0.0429 -0.0683  0.2104
  140SAPE  H15X15337   1.967   4.504   9.203  0.3464 -1.7094 -1.9357
  140SAPE  H15Y15338   2.049   4.545   9.068  0.6257  0.2219  0.5840
  140SAPE  C31615339   1.848   4.623   9.066 -0.5171 -0.4847 -0.9975
  140SAPE  H16X15340   1.770   4.649   9.141  1.7853  1.1493  0.9614
  140SAPE  H16Y15341   1.832   4.524   9.018 -0.5573 -1.6655  1.3247
  140SAPE  C31715342   1.847   4.729   8.956  0.1646  0.1428  0.4079
  140SAPE  H17X15343   1.920   4.687   8.883 -1.1426 -2.8241  0.6587
  140SAPE  H17Y15344   1.879   4.825   9.000  1.3055 -0.4784  0.9763
  140SAPE  C31815345   1.712   4.750   8.881 -0.0965 -0.0553  0.0385
  140SAPE  H18X15346   1.727   4.815   8.792 -0.8839  1.6938  1.1388
  140SAPE  H18Y15347   1.638   4.799   8.947 -0.1948 -1.4712  1.0267
  140SAPE  H18Z15348   1.667   4.655   8.844  0.9120 -0.6539  0.3077
  141SAPE     N15349   2.289   6.586  10.949 -0.3306  0.4563  0.6376
  141SAPE   HN115350   2.268   6.575  10.847 -3.6178 -0.7861  1.3552
  141SAPE   HN215351   2.285   6.495  10.997  2.8087 -0.1108  0.0914
  141SAPE   HN315352   2.232   6.663  10.988  0.2925  0.5464  1.3906
  141SAPE   C1215353   2.434   6.633  10.948  0.3146  0.1493 -0.1603
  141SAPE  H12A15354   2.458   6.657  11.053  0.7007 -2.0692  0.3132
  141SAPE  H12B15355   2.433   6.725  10.886  1.3879  0.0764 -0.3091
  141SAPE   C1115356   2.530   6.523  10.885  0.9765  0.3182 -0.3354
  141SAPE  H11A15357   2.630   6.569  10.877  0.4542  1.2689 -1.7280
  141SAPE  H11B15358   2.486   6.489  10.789 -3.9938 -1.1733  2.1189
  141SAPE     P15359   2.634   6.299  10.953 -0.0309  0.3089  0.2401
  141SAPE   O1315360   2.763   6.358  10.907 -0.4224 -0.2885 -0.4242
  141SAPE   O1415361   2.632   6.215  11.072 -0.2852 -0.6386  0.0800
  141SAPE   O1215362   2.528   6.412  10.974  0.7520 -0.4688 -0.1578
  141SAPE   O1115363   2.563   6.200  10.845 -0.8728 -0.7775 -0.1911
  141SAPE    C115364   2.614   6.187  10.717 -0.0585  0.8150 -0.5290
  141SAPE    HA15365   2.685   6.268  10.689  0.0696  1.2017  0.8752
  141SAPE    HB15366   2.660   6.087  10.702 -2.2945 -0.0332 -2.1964
  141SAPE    C215367   2.502   6.197  10.615 -0.6236  0.4033  0.2168
  141SAPE    HS15368   2.472   6.304  10.624 -2.1186 -0.1859  3.2489
  141SAPE   O2115369   2.395   6.107  10.658 -0.4423 -0.9317  0.6390
  141SAPE   C2115370   2.289   6.162  10.714  0.4577  0.0945 -0.1118
  141SAPE   O2215371   2.265   6.279  10.725  0.1077  0.5557  0.3753
  141SAPE   C2215372   2.196   6.049  10.776  0.4956 -0.4279  0.6169
  141SAPE   H2R15373   2.211   5.951  10.726 -0.9090 -1.2320  1.7070
  141SAPE   H2S15374   2.237   6.038  10.878  1.8923 -0.7742  0.0455
  141SAPE    C315375   2.544   6.153  10.470 -0.0030  0.1819  0.2649
  141SAPE    HX15376   2.559   6.043  10.465  3.2724  0.4824  1.0574
  141SAPE    HY15377   2.646   6.197  10.459  0.6731 -1.3370  0.1995
  141SAPE   O3115378   2.453   6.198  10.364  0.0981 -0.3045  0.0228
  141SAPE   C3115379   2.444   6.324  10.343 -0.2346 -0.8467 -0.7024
  141SAPE   O3215380   2.467   6.415  10.421 -0.1576 -0.2292  0.3809
  141SAPE   C3215381   2.391   6.343  10.200  0.6010 -0.0863 -0.6009
  141SAPE   H2X15382   2.385   6.452  10.182  0.9787  0.2065  0.9603
  141SAPE   H2Y15383   2.288   6.301  10.194  0.6659 -0.1808 -1.1600
  141SAPE   C2315384   2.043   6.090  10.782 -0.2173  0.5379 -0.1714
  141SAPE   H3R15385   2.032   6.182  10.843  2.7385  2.5494 -2.4254
  141SAPE   H3S15386   1.981   6.015  10.836  0.4327  0.0649 -0.0611
  141SAPE   C2415387   1.971   6.109  10.645 -0.1028 -0.6655  0.0698
  141SAPE   H4R15388   2.010   6.200  10.594 -2.1102  0.0811 -0.2336
  141SAPE   H4S15389   1.865   6.131  10.670 -0.0457 -0.4832  0.1553
  141SAPE   C2515390   1.988   5.988  10.557 -0.5036  0.3873  0.5127
  141SAPE   H5R15391   1.943   5.897  10.599  1.7868 -1.9294 -1.6595
  141SAPE   C2615392   2.052   5.990  10.442 -0.4451  0.4640  0.0819
  141SAPE   H6R15393   2.056   5.894  10.387 -1.5086  0.8428 -0.6961
  141SAPE   C2715394   2.119   6.104  10.373  0.0603 -0.9561 -0.1686
  141SAPE   H7R15395   2.184   6.060  10.294 -1.0420 -1.4346 -0.8455
  141SAPE   H7S15396   2.196   6.142  10.443  0.0968 -0.9690 -0.2015
  141SAPE   C2815397   2.034   6.209  10.313 -0.4837 -0.3217 -0.2263
  141SAPE   H8R15398   2.028   6.305  10.366 -0.5009 -0.8519  0.7457
  141SAPE   C2915399   1.963   6.197  10.202 -0.0894  0.1064  0.4732
  141SAPE   H9R15400   1.907   6.285  10.166  1.6163  1.8367  1.7614
  141SAPE  C21015401   1.943   6.073  10.118  0.4794  0.1295  0.1524
  141SAPE  H10R15402   1.859   6.102  10.051  1.0494  2.4401  0.3379
  141SAPE  H10S15403   1.897   5.999  10.187  2.9894 -1.8502 -0.1371
  141SAPE  C21115404   2.068   6.038  10.041 -0.7076  0.4230  0.1406
  141SAPE  H11R15405   2.150   5.983  10.087 -0.1703  1.6320  0.6727
  141SAPE  C21215406   2.082   6.084   9.913  0.0561 -0.4047  0.5864
  141SAPE  H12R15407   2.163   6.040   9.854 -0.4803 -1.2497  0.4718
  141SAPE  C21315408   1.992   6.182   9.837 -0.1083 -0.8180 -0.0398
  141SAPE  H13R15409   2.046   6.244   9.762 -0.4900 -0.1180  0.2553
  141SAPE  H13S15410   1.955   6.255   9.911  2.2778  0.2446  0.1705
  141SAPE  C21415411   1.885   6.109   9.756  0.9937 -0.2653  0.1993
  141SAPE  H14R15412   1.817   6.046   9.816 -0.5469 -0.8072 -1.9906
  141SAPE  C21515413   1.856   6.120   9.624 -0.7552  0.1711 -0.8653
  141SAPE  H15R15414   1.771   6.061   9.584 -0.3862  0.9823 -2.9894
  141SAPE  C21615415   1.918   6.196   9.517 -0.5186  0.1460  0.4140
  141SAPE  H16R15416   2.018   6.231   9.551 -0.2873  0.5448 -0.6459
  141SAPE  H16S15417   1.858   6.287   9.493 -0.6489  0.3627  1.4946
  141SAPE  C21715418   1.956   6.126   9.385  0.2530  0.6777  0.4162
  141SAPE  H17R15419   2.017   6.034   9.397  1.6568  1.4858 -0.1924
  141SAPE  H17S15420   2.019   6.190   9.319 -0.7217  0.1305 -1.0969
  141SAPE  C21815421   1.840   6.080   9.304 -0.7743 -0.1714 -0.0040
  141SAPE  H18R15422   1.754   6.148   9.289 -0.6459 -0.3488 -1.7553
  141SAPE  H18S15423   1.801   5.989   9.356 -2.9484 -0.2719 -1.6634
  141SAPE  C21915424   1.883   6.045   9.159  0.8916  0.1135 -0.8034
  141SAPE  H19R15425   1.972   5.978   9.158  0.9136  0.1451 -0.9193
  141SAPE  H19S15426   1.910   6.136   9.102 -1.4778 -0.1376 -2.4880
  141SAPE  C22015427   1.766   5.962   9.087  0.5453 -0.3045 -0.0138
  141SAPE  H20R15428   1.668   6.013   9.092 -2.7306 -5.2551 -3.3989
  141SAPE  H20S15429   1.748   5.865   9.139 -0.7016 -0.6380 -1.0044
  141SAPE  H20T15430   1.780   5.950   8.977  0.4968  0.4220 -0.1009
  141SAPE   C3315431   2.469   6.283  10.088 -0.2585 -0.5592  1.1011
  141SAPE   H3X15432   2.501   6.181  10.120  0.5825 -0.2210  1.3446
  141SAPE   H3Y15433   2.562   6.337  10.063  0.8557 -2.9690 -0.3817
  141SAPE   C3415434   2.379   6.260   9.966 -0.1087  0.4198 -0.0130
  141SAPE   H4X15435   2.271   6.251   9.993  0.3508  0.0674  1.8608
  141SAPE   H4Y15436   2.405   6.163   9.920 -1.9954 -0.7562  1.2812
  141SAPE   C3515437   2.382   6.367   9.861 -0.4483 -0.2357  0.4721
  141SAPE   H5X15438   2.491   6.380   9.839 -0.4666  2.6616  1.6255
  141SAPE   H5Y15439   2.346   6.464   9.900  0.5604 -0.3469  1.7405
  141SAPE   C3615440   2.311   6.336   9.723 -0.3081  0.3779  0.0439
  141SAPE   H6X15441   2.205   6.349   9.752 -0.1193  0.3852  0.7556
  141SAPE   H6Y15442   2.330   6.230   9.696  2.5820  0.9779 -0.7257
  141SAPE   C3715443   2.345   6.435   9.611 -0.2223 -0.4488 -0.0236
  141SAPE   H7X15444   2.453   6.458   9.597 -0.2849  1.3055  1.9200
  141SAPE   H7Y15445   2.292   6.528   9.639 -2.4216 -1.7238  0.2377
  141SAPE   C3815446   2.287   6.386   9.481  0.2761 -0.0866  0.5599
  141SAPE   H8X15447   2.180   6.363   9.501  0.1624 -0.1740 -0.1286
  141SAPE   H8Y15448   2.349   6.298   9.458  0.7949  0.5495 -0.5676
  141SAPE   C3915449   2.306   6.488   9.371 -0.0167 -0.2121 -0.0620
  141SAPE   H9X15450   2.413   6.517   9.370  0.4100 -1.6110  1.0669
  141SAPE   H9Y15451   2.253   6.576   9.411 -0.6419 -1.0842  1.1140
  141SAPE  C31015452   2.262   6.433   9.235 -0.7293  0.0855 -0.6532
  141SAPE  H10X15453   2.159   6.390   9.230 -1.0665  0.8251 -0.1816
  141SAPE  H10Y15454   2.343   6.371   9.192 -2.0228 -1.5048 -0.9026
  141SAPE  C31115455   2.257   6.546   9.126 -0.3266  0.3968 -0.0021
  141SAPE  H11X15456   2.353   6.603   9.127 -0.6159  0.8843  0.0589
  141SAPE  H11Y15457   2.180   6.622   9.152 -1.9828 -0.2972 -2.4956
  141SAPE  C31215458   2.224   6.497   8.981 -0.4016 -0.4378 -0.0580
  141SAPE  H12X15459   2.126   6.444   8.972 -0.9258  0.1794  1.6436
  141SAPE  H12Y15460   2.301   6.418   8.984  0.8712  0.7958  1.2766
  141SAPE  C31315461   2.240   6.600   8.875 -0.1383 -0.7783  0.6565
  141SAPE  H13X15462   2.173   6.687   8.891  4.6440  3.2281  1.5527
  141SAPE  H13Y15463   2.229   6.562   8.771  2.7544 -0.5974  0.1906
  141SAPE  C31415464   2.370   6.681   8.867  0.6143  0.2103 -0.1547
  141SAPE  H14X15465   2.451   6.607   8.883 -0.7773 -1.2274  0.5569
  141SAPE  H14Y15466   2.376   6.746   8.956  2.0753 -0.0495 -0.0462
  141SAPE  C31515467   2.394   6.749   8.742 -0.3189 -0.0212  0.0191
  141SAPE  H15X15468   2.380   6.678   8.658 -1.3791  1.1139 -0.8134
  141SAPE  H15Y15469   2.496   6.789   8.722  0.0791 -0.3672  1.3238
  141SAPE  C31615470   2.314   6.877   8.705  0.9068 -0.7125  0.2530
  141SAPE  H16X15471   2.209   6.844   8.693  0.6750  0.6386 -1.9725
  141SAPE  H16Y15472   2.337   6.911   8.602  0.2454 -0.0280  0.3322
  141SAPE  C31715473   2.330   6.989   8.803  0.7339  0.1926 -0.0899
  141SAPE  H17X15474   2.437   6.993   8.832  0.6636  1.3566  0.0599
  141SAPE  H17Y15475   2.280   6.959   8.897  0.8817  0.3936  0.0526
  141SAPE  C31815476   2.270   7.129   8.757  1.0172  0.6365  0.7037
  141SAPE  H18X15477   2.308   7.172   8.662 -2.6423  1.1192 -0.6881
  141SAPE  H18Y15478   2.268   7.200   8.843 -0.9215  2.0601 -0.4390
  141SAPE  H18Z15479   2.163   7.108   8.739  1.4765  0.0162 -1.5574
  142SAPE     N15480   4.369   5.418  11.059 -0.1800 -0.7353 -0.1062
  142SAPE   HN115481   4.364   5.329  11.006 -2.2034 -1.0640  0.5575
  142SAPE   HN215482   4.370   5.496  10.991 -1.4636  0.2587  0.9429
  142SAPE   HN315483   4.463   5.426  11.104 -0.5110 -1.3776  0.7289
  142SAPE   C1215484   4.255   5.441  11.159 -0.0143  0.6099 -0.5946
  142SAPE  H12A15485   4.163   5.473  11.104 -0.8414 -0.8501 -0.0954
  142SAPE  H12B15486   4.286   5.530  11.218  0.7444  0.5122 -0.8338
  142SAPE   C1115487   4.211   5.318  11.241 -0.6848 -0.7099 -0.4814
  142SAPE  H11A15488   4.307   5.286  11.287 -0.7145 -1.1517 -0.7257
  142SAPE  H11B15489   4.179   5.234  11.176  1.9593  0.2847 -3.2815
  142SAPE     P15490   3.964   5.374  11.323  0.3052 -0.4517 -0.1727
  142SAPE   O1315491   3.886   5.279  11.403  0.0311  0.5032 -0.1672
  142SAPE   O1415492   3.938   5.512  11.351  0.3781  0.1248 -0.1945
  142SAPE   O1215493   4.120   5.356  11.345 -0.5891  0.1359  0.2946
  142SAPE   O1115494   3.944   5.350  11.172  0.5564  0.6460 -0.1920
  142SAPE    C115495   3.886   5.226  11.127  0.7872 -0.4144 -1.1121
  142SAPE    HA15496   3.959   5.142  11.130 -0.3806 -1.4272 -0.1563
  142SAPE    HB15497   3.801   5.195  11.191  1.1883  2.6108  1.0896
  142SAPE    C215498   3.860   5.246  10.972  0.8957  0.1310 -0.2221
  142SAPE    HS15499   3.788   5.329  10.956  0.6986  0.3985  1.7992
  142SAPE   O2115500   3.816   5.125  10.912 -0.3433  0.0128  0.3323
  142SAPE   C2115501   3.692   5.096  10.938 -0.6036 -0.4169  0.0873
  142SAPE   O2215502   3.618   5.166  11.010  0.2044  0.3008 -0.2699
  142SAPE   C2215503   3.660   4.963  10.874  0.2276  0.5801  0.2077
  142SAPE   H2R15504   3.747   4.899  10.897  0.3637  1.0805  1.1784
  142SAPE   H2S15505   3.571   4.923  10.927  0.0246 -0.1627 -0.6666
  142SAPE    C315506   3.981   5.308  10.898 -0.0665 -0.0079 -0.1386
  142SAPE    HX15507   4.065   5.238  10.917 -0.2009  0.3500  2.0096
  142SAPE    HY15508   4.001   5.402  10.954  0.8617 -0.0202 -0.4402
  142SAPE   O3115509   3.955   5.331  10.762 -0.3421 -0.1989 -0.0376
  142SAPE   C3115510   4.002   5.244  10.683  0.1848  0.5582 -0.0202
  142SAPE   O3215511   4.083   5.150  10.709 -0.2221 -0.3519 -1.0849
  142SAPE   C3215512   3.944   5.269  10.541  0.2448  0.4086  0.5917
  142SAPE   H2X15513   3.934   5.379  10.533  0.3884  0.3813 -0.0692
  142SAPE   H2Y15514   3.838   5.236  10.553  0.0036  1.2468  0.8425
  142SAPE   C2315515   3.644   4.977  10.719 -0.2500  0.1950  0.1591
  142SAPE   H3R15516   3.747   4.982  10.679  0.3116  0.9771  1.6512
  142SAPE   H3S15517   3.587   5.070  10.696 -1.8197 -0.7182  0.1553
  142SAPE   C2415518   3.587   4.859  10.646 -0.9502 -0.1031 -0.5037
  142SAPE   H4R15519   3.575   4.888  10.540  0.5567  1.5745 -0.2713
  142SAPE   H4S15520   3.489   4.831  10.688  0.2639 -0.4642  2.3302
  142SAPE   C2515521   3.670   4.738  10.658  0.3800  0.3770 -0.0218
  142SAPE   H5R15522   3.691   4.712  10.763  0.6802  3.2541  0.7435
  142SAPE   C2615523   3.719   4.663  10.560  0.0095  0.3537  0.6093
  142SAPE   H6R15524   3.771   4.572  10.592 -0.1161  0.6110  1.5783
  142SAPE   C2715525   3.707   4.685  10.407  0.0153 -0.2904 -0.6216
  142SAPE   H7R15526   3.607   4.726  10.381 -1.1416 -1.0783  2.2041
  142SAPE   H7S15527   3.705   4.592  10.346  0.9480 -1.6650  1.3396
  142SAPE   C2815528   3.815   4.776  10.341 -0.2987 -0.0076 -0.3598
  142SAPE   H8R15529   3.888   4.819  10.411  2.2511 -2.1135 -1.5707
  142SAPE   C2915530   3.829   4.800  10.208  0.2614  0.3603  0.1680
  142SAPE   H9R15531   3.916   4.861  10.180 -1.3431  2.6232 -0.1858
  142SAPE  C21015532   3.756   4.741  10.089 -0.8585  0.1282 -0.0495
  142SAPE  H10R15533   3.720   4.828  10.031 -1.3602 -1.0318 -1.5501
  142SAPE  H10S15534   3.677   4.669  10.120  0.2659 -2.2615 -2.3595
  142SAPE  C21115535   3.848   4.666   9.993  0.6064 -0.4061 -0.9551
  142SAPE  H11R15536   3.873   4.566  10.029  2.0340  0.5240  0.7786
  142SAPE  C21215537   3.892   4.696   9.872 -0.2659 -0.6500  0.4496
  142SAPE  H12R15538   3.957   4.618   9.830 -0.4413 -1.0092  0.8349
  142SAPE  C21315539   3.870   4.823   9.776  0.3790 -0.2400 -0.1196
  142SAPE  H13R15540   3.945   4.840   9.696  0.2160 -0.6779 -0.3688
  142SAPE  H13S15541   3.885   4.915   9.837  0.3601  0.7655 -1.5878
  142SAPE  C21415542   3.729   4.820   9.717  0.4375  0.3180 -0.1643
  142SAPE  H14R15543   3.665   4.884   9.780  0.9333  1.3521 -0.6967
  142SAPE  C21515544   3.673   4.753   9.613  0.1244 -0.4139  0.3033
  142SAPE  H15R15545   3.564   4.760   9.607  0.2440  0.9868 -0.8540
  142SAPE  C21615546   3.751   4.657   9.525  0.5850  0.5749  0.2215
  142SAPE  H16R15547   3.704   4.556   9.532  2.7879 -0.7665 -2.3792
  142SAPE  H16S15548   3.854   4.648   9.565  0.2998  2.2257  1.4327
  142SAPE  C21715549   3.765   4.696   9.380  0.2659 -0.0090  0.2364
  142SAPE  H17R15550   3.665   4.727   9.342  0.2266 -1.0981 -0.6052
  142SAPE  H17S15551   3.797   4.609   9.319 -0.8003  0.2127 -0.6617
  142SAPE  C21815552   3.867   4.803   9.363 -0.9388  0.3799  0.1546
  142SAPE  H18R15553   3.959   4.747   9.390 -2.6628 -2.9042 -0.1817
  142SAPE  H18S15554   3.852   4.881   9.441  1.9643  0.8144  0.3845
  142SAPE  C21915555   3.879   4.859   9.221 -0.5388 -0.1186 -0.4352
  142SAPE  H19R15556   3.975   4.915   9.213 -0.4119  0.0510  1.5874
  142SAPE  H19S15557   3.792   4.922   9.191 -2.6350 -1.7256  1.8293
  142SAPE  C22015558   3.884   4.749   9.115  0.6374 -0.1302 -0.4211
  142SAPE  H20R15559   3.794   4.683   9.118  0.9013 -0.4685  1.8337
  142SAPE  H20S15560   3.963   4.675   9.136 -0.0125 -1.1430 -1.4673
  142SAPE  H20T15561   3.913   4.790   9.016  1.0045 -1.0966 -0.7226
  142SAPE   C3315562   4.041   5.202  10.444 -0.4932  1.5720  0.2334
  142SAPE   H3X15563   4.047   5.091  10.449  1.5841  1.6312 -0.1710
  142SAPE   H3Y15564   4.145   5.239  10.443  0.8722 -1.8265  1.2512
  142SAPE   C3415565   3.990   5.244  10.302  0.4244 -0.1946 -0.0275
  142SAPE   H4X15566   3.995   5.354  10.289 -2.1867  0.3744  2.8399
  142SAPE   H4Y15567   3.889   5.201  10.285  0.4976 -0.2937 -0.2190
  142SAPE   C3515568   4.078   5.194  10.191  0.0395  0.3917 -0.5029
  142SAPE   H5X15569   4.096   5.084  10.201  0.0718  0.4199 -0.2615
  142SAPE   H5Y15570   4.173   5.251  10.187 -0.6557  1.5782 -0.4184
  142SAPE   C3615571   4.010   5.208  10.060  1.0594 -0.2773  0.4397
  142SAPE   H6X15572   3.999   5.318  10.053  2.2045  0.0633  2.8203
  142SAPE   H6Y15573   3.908   5.165  10.064  0.2900  1.4060 -0.2543
  142SAPE   C3715574   4.081   5.157   9.938  0.3409  0.2063  0.1086
  142SAPE   H7X15575   4.097   5.047   9.946 -1.1125 -0.1475 -1.3002
  142SAPE   H7Y15576   4.183   5.200   9.942 -0.2349  1.5923  0.4683
  142SAPE   C3815577   4.014   5.199   9.810  0.2362  0.3352 -0.0277
  142SAPE   H8X15578   3.982   5.305   9.806  1.5379  0.8115  1.3155
  142SAPE   H8Y15579   3.915   5.148   9.809  0.6885 -0.5881  0.2543
  142SAPE   C3915580   4.105   5.164   9.691  0.6910 -0.4368 -0.0711
  142SAPE   H9X15581   4.123   5.055   9.686 -1.5416 -0.8511 -0.0433
  142SAPE   H9Y15582   4.196   5.226   9.706 -0.1987  0.6834  0.9153
  142SAPE  C31015583   4.025   5.191   9.567 -0.0158  0.1870 -0.5467
  142SAPE  H10X15584   3.992   5.297   9.567  0.6658  0.4345  1.4696
  142SAPE  H10Y15585   3.925   5.142   9.573 -0.3686  1.0747  2.9544
  142SAPE  C31115586   4.112   5.157   9.454 -0.4472 -0.3013 -0.3647
  142SAPE  H11X15587   4.151   5.055   9.471 -2.1372 -1.0387 -0.6902
  142SAPE  H11Y15588   4.191   5.234   9.445  0.6036 -1.4262 -0.9838
  142SAPE  C31215589   4.041   5.160   9.315 -0.2325 -0.2888  0.4201
  142SAPE  H12X15590   3.953   5.093   9.327 -0.3297 -0.4389 -0.9604
  142SAPE  H12Y15591   4.115   5.111   9.249 -1.6960  0.4228 -1.8569
  142SAPE  C31315592   4.033   5.301   9.252 -0.0180 -0.0161 -0.6221
  142SAPE  H13X15593   4.118   5.366   9.282  0.9387 -0.8189 -1.5207
  142SAPE  H13Y15594   3.942   5.352   9.291  1.5108  1.2489  1.5176
  142SAPE  C31415595   4.026   5.287   9.105 -0.7128 -0.5703 -0.8299
  142SAPE  H14X15596   4.122   5.249   9.064 -0.1142  1.3614 -1.2907
  142SAPE  H14Y15597   4.012   5.388   9.060 -3.1476 -1.4957 -2.3813
  142SAPE  C31515598   3.895   5.216   9.068  1.0506 -0.1926  0.7315
  142SAPE  H15X15599   3.812   5.261   9.128  0.7767 -1.8119  1.6088
  142SAPE  H15Y15600   3.904   5.111   9.101  0.4234 -0.3767  0.3351
  142SAPE  C31615601   3.858   5.218   8.919 -0.0252 -0.5313 -0.1866
  142SAPE  H16X15602   3.948   5.175   8.869  0.5900 -1.2010  1.4488
  142SAPE  H16Y15603   3.864   5.324   8.885  0.9121 -0.5615 -0.1533
  142SAPE  C31715604   3.728   5.158   8.860 -0.3248  0.3037 -0.9148
  142SAPE  H17X15605   3.731   5.194   8.755  1.6144  1.6113 -0.4782
  142SAPE  H17Y15606   3.635   5.199   8.904 -1.8206 -0.9331 -2.7381
  142SAPE  C31815607   3.720   5.003   8.873 -0.4517 -0.1879  0.4121
  142SAPE  H18X15608   3.679   4.960   8.780 -1.5543  1.3244  0.1545
  142SAPE  H18Y15609   3.650   4.963   8.950 -1.2920  0.0843 -0.1963
  142SAPE  H18Z15610   3.821   4.961   8.894  0.3743  0.7801 -1.4367
  143SAPE     N15611   5.890   0.841  10.985 -0.2336  0.2276  0.3033
  143SAPE   HN115612   5.844   0.757  10.943  0.2250  0.2030 -0.1550
  143SAPE   HN215613   5.821   0.886  11.048  1.3954  0.8020  1.7503
  143SAPE   HN315614   5.914   0.909  10.910  0.6556 -0.8326 -0.4028
  143SAPE   C1215615   6.016   0.792  11.058 -0.2693 -0.0154 -0.0530
  143SAPE  H12A15616   6.058   0.869  11.126  0.7114 -0.1250 -0.5165
  143SAPE  H12B15617   6.089   0.772  10.976  0.7015  2.9493 -0.0190
  143SAPE   C1115618   5.982   0.670  11.140 -0.1651  0.9882  0.0237
  143SAPE  H11A15619   5.913   0.699  11.222  0.5577  0.0795  0.9794
  143SAPE  H11B15620   6.072   0.633  11.193 -1.8060 -2.8201  0.4586
  143SAPE     P15621   5.860   0.438  11.141  0.0462 -0.2648 -0.2117
  143SAPE   O1315622   5.929   0.307  11.113  0.4256 -0.7125  0.3258
  143SAPE   O1415623   5.864   0.470  11.288  0.3910  0.2796 -0.0171
  143SAPE   O1215624   5.925   0.559  11.056 -0.3936 -0.6620 -0.1407
  143SAPE   O1115625   5.713   0.433  11.094 -0.2319  0.2314  0.3570
  143SAPE    C115626   5.665   0.505  10.977  0.1273 -0.3411 -0.0731
  143SAPE    HA15627   5.555   0.505  10.966  0.1133  2.7604 -0.8237
  143SAPE    HB15628   5.687   0.613  10.991 -0.1743 -0.3130  0.1856
  143SAPE    C215629   5.722   0.440  10.841 -0.0794 -1.0557  0.1388
  143SAPE    HS15630   5.831   0.424  10.848 -0.2500 -1.9646  1.0358
  143SAPE   O2115631   5.681   0.507  10.721  0.2067  0.1662 -0.2789
  143SAPE   C2115632   5.764   0.612  10.699 -0.3699  1.1575  0.1805
  143SAPE   O2215633   5.843   0.651  10.786  0.1298  0.1497  0.3224
  143SAPE   C2215634   5.756   0.648  10.550 -0.6087 -0.1918 -0.6827
  143SAPE   H2R15635   5.763   0.551  10.495 -0.1228 -1.0173  0.7855
  143SAPE   H2S15636   5.657   0.697  10.537 -1.7956 -0.8586  3.8899
  143SAPE    C315637   5.651   0.306  10.826  0.3025  0.4973 -0.3184
  143SAPE    HX15638   5.542   0.314  10.842  0.3425 -0.2920  0.4884
  143SAPE    HY15639   5.694   0.238  10.903 -0.5861  2.3587  1.9164
  143SAPE   O3115640   5.672   0.241  10.695  0.0293  0.3027 -0.5976
  143SAPE   C3115641   5.629   0.111  10.703  0.1828  0.3203  0.2062
  143SAPE   O3215642   5.570   0.054  10.794 -0.6560 -0.0544  0.0211
  143SAPE   C3215643   5.650   0.049  10.568 -0.0237  0.2412  0.3388
  143SAPE   H2X15644   5.692   0.116  10.490 -1.2710  0.0399 -0.5446
  143SAPE   H2Y15645   5.555   0.005  10.531  1.8740 -3.5288 -0.6398
  143SAPE   C2315646   5.867   0.752  10.506 -0.4959  0.2652 -0.1520
  143SAPE   H3R15647   5.969   0.728  10.542 -0.8186 -0.7789  0.0859
  143SAPE   H3S15648   5.849   0.849  10.558  0.9359  0.7765 -0.5462
  143SAPE   C2415649   5.886   0.747  10.358 -0.0839  0.2964 -0.2212
  143SAPE   H4R15650   5.920   0.648  10.322 -2.4415 -0.4611 -0.5246
  143SAPE   H4S15651   5.969   0.815  10.330  0.0072 -0.5535 -2.1295
  143SAPE   C2515652   5.767   0.789  10.280  0.1566  0.0231  0.1782
  143SAPE   H5R15653   5.681   0.837  10.330  0.1585  0.3965 -0.1729
  143SAPE   C2615654   5.757   0.781  10.150 -0.3952  0.2923 -0.1689
  143SAPE   H6R15655   5.656   0.798  10.109 -0.7981  0.4313  0.8346
  143SAPE   C2715656   5.857   0.729  10.055 -0.5570 -0.1070 -1.0525
  143SAPE   H7R15657   5.953   0.742  10.108 -1.4505  0.0230  0.6176
  143SAPE   H7S15658   5.879   0.787   9.963  2.1995 -0.0337 -0.4365
  143SAPE   C2815659   5.844   0.579  10.025  0.0489 -0.1610  0.2931
  143SAPE   H8R15660   5.902   0.501  10.078 -1.2164 -0.2647  1.6152
  143SAPE   C2915661   5.776   0.528   9.917  0.4791 -0.3082  0.3996
  143SAPE   H9R15662   5.777   0.420   9.893  1.7497  0.3826 -3.2812
  143SAPE  C21015663   5.714   0.623   9.814 -0.0584  0.1629  0.1908
  143SAPE  H10R15664   5.716   0.575   9.714 -1.1159  1.3194 -0.4280
  143SAPE  H10S15665   5.783   0.704   9.784 -0.6716  0.8433  0.5884
  143SAPE  C21115666   5.576   0.668   9.857  0.0019 -0.1596 -0.6044
  143SAPE  H11R15667   5.533   0.609   9.939 -2.5885  1.6106 -0.5842
  143SAPE  C21215668   5.516   0.786   9.836  0.2869  0.3076 -0.4069
  143SAPE  H12R15669   5.407   0.792   9.849  0.1181  1.4410 -2.0781
  143SAPE  C21315670   5.573   0.903   9.767  0.2004  0.3306 -0.1301
  143SAPE  H13R15671   5.672   0.880   9.724 -0.5137 -1.5046 -0.8869
  143SAPE  H13S15672   5.587   0.983   9.843 -2.0576  0.1346  0.5906
  143SAPE  C21415673   5.476   0.967   9.666 -0.7380  0.0591  0.2925
  143SAPE  H14R15674   5.407   1.039   9.713  1.8976  2.2700  1.0275
  143SAPE  C21515675   5.480   0.942   9.532  0.4258 -0.1654 -0.8491
  143SAPE  H15R15676   5.408   0.994   9.467  1.2152  1.3587 -0.5520
  143SAPE  C21615677   5.584   0.859   9.457 -0.3743 -0.6199 -0.4100
  143SAPE  H16R15678   5.526   0.778   9.407 -2.5083  1.1659 -0.9606
  143SAPE  H16S15679   5.656   0.799   9.517  1.8827  2.4018  0.1478
  143SAPE  C21715680   5.659   0.938   9.337 -0.4575  0.5661  0.1689
  143SAPE  H17R15681   5.718   1.022   9.377 -1.4605  0.6215  1.6259
  143SAPE  H17S15682   5.580   0.975   9.269  1.1099  1.4534 -1.2299
  143SAPE  C21815683   5.743   0.844   9.240  0.0428 -0.0974 -0.2439
  143SAPE  H18R15684   5.685   0.754   9.211 -0.9105  0.0009  1.2537
  143SAPE  H18S15685   5.826   0.812   9.307 -0.4663 -3.0057 -0.8696
  143SAPE  C21915686   5.785   0.924   9.120  0.6969  0.6048  0.5859
  143SAPE  H19R15687   5.696   0.978   9.081  2.0813  2.4799 -0.1488
  143SAPE  H19S15688   5.820   0.856   9.040 -1.5057  0.0121  0.0427
  143SAPE  C22015689   5.884   1.034   9.137 -0.0352 -0.2220  0.0964
  143SAPE  H20R15690   5.914   1.080   9.041  2.3802  0.1351  0.9688
  143SAPE  H20S15691   5.977   0.985   9.173  0.0575 -0.0272  0.1229
  143SAPE  H20T15692   5.860   1.115   9.210  0.6536 -0.2713  0.3829
  143SAPE   C3315693   5.756  -0.068  10.579 -0.7297 -0.1379 -0.7384
  143SAPE   H3X15694   5.766  -0.116  10.678 -3.3303  0.9195  0.1240
  143SAPE   H3Y15695   5.858  -0.030  10.560 -0.6375 -0.6421 -1.2966
  143SAPE   C3415696   5.721  -0.180  10.480  1.0983  1.0631  0.3678
  143SAPE   H4X15697   5.626  -0.236  10.498  0.1353  1.9964 -1.4817
  143SAPE   H4Y15698   5.807  -0.249  10.490 -0.7274 -1.1042  2.0862
  143SAPE   C3515699   5.719  -0.125  10.334  0.4332  0.3743  0.1112
  143SAPE   H5X15700   5.823  -0.089  10.321  0.7004 -0.0862  0.9448
  143SAPE   H5Y15701   5.641  -0.048  10.315 -1.4275 -1.4634 -0.0833
  143SAPE   C3615702   5.699  -0.236  10.236 -0.2076 -0.3562 -0.1168
  143SAPE   H6X15703   5.602  -0.288  10.252 -0.4487  0.3187  0.7085
  143SAPE   H6Y15704   5.785  -0.302  10.260  0.2417 -0.1925 -1.2451
  143SAPE   C3715705   5.714  -0.206  10.083  0.8234 -0.0549 -0.7201
  143SAPE   H7X15706   5.634  -0.134  10.056 -0.4343 -0.8914  0.6344
  143SAPE   H7Y15707   5.703  -0.298  10.022  0.2417 -0.1253 -0.5165
  143SAPE   C3815708   5.842  -0.143  10.045 -0.1014 -0.4490  0.5163
  143SAPE   H8X15709   5.925  -0.207  10.082 -0.0839 -0.5956  0.2232
  143SAPE   H8Y15710   5.849  -0.042  10.091 -0.6378 -0.5736  0.8831
  143SAPE   C3915711   5.864  -0.117   9.893 -0.5781 -0.8027  0.1645
  143SAPE   H9X15712   5.975  -0.121   9.889 -0.1993  1.8956  3.6021
  143SAPE   H9Y15713   5.828  -0.015   9.872 -1.0405 -1.0842 -0.4337
  143SAPE  C31015714   5.812  -0.213   9.786 -0.1598 -1.1633 -0.1896
  143SAPE  H10X15715   5.702  -0.198   9.775 -0.2864  0.1165  2.1157
  143SAPE  H10Y15716   5.831  -0.319   9.813 -2.3331 -1.5945 -0.1762
  143SAPE  C31115717   5.879  -0.171   9.659  0.1647 -0.0469  0.0626
  143SAPE  H11X15718   5.990  -0.164   9.667  0.4110 -1.3418 -1.7323
  143SAPE  H11Y15719   5.837  -0.071   9.636  1.5919  0.2260 -1.5846
  143SAPE  C31215720   5.851  -0.268   9.548 -0.5316  0.3096 -0.8387
  143SAPE  H12X15721   5.743  -0.292   9.537 -1.2815  2.0264  1.9122
  143SAPE  H12Y15722   5.897  -0.365   9.578  0.1682  0.9260  0.1276
  143SAPE  C31315723   5.896  -0.226   9.409  0.8899  0.1941  0.6067
  143SAPE  H13X15724   5.998  -0.183   9.406  1.0900 -0.3144 -1.7220
  143SAPE  H13Y15725   5.823  -0.152   9.371 -0.7140 -1.2985  0.6677
  143SAPE  C31415726   5.909  -0.357   9.330  0.9659  0.4049  0.0090
  143SAPE  H14X15727   5.811  -0.409   9.329  1.6312 -0.9120  0.9508
  143SAPE  H14Y15728   5.982  -0.428   9.374  2.0214  1.3969 -0.0937
  143SAPE  C31515729   5.966  -0.328   9.194  1.1726 -0.7038  0.1699
  143SAPE  H15X15730   5.999  -0.419   9.138 -1.9837 -1.8455 -0.0206
  143SAPE  H15Y15731   6.060  -0.272   9.215  0.7984  0.4134 -0.9933
  143SAPE  C31615732   5.874  -0.240   9.102  0.0837 -0.0344 -0.0722
  143SAPE  H16X15733   5.836  -0.154   9.160 -2.0207 -0.9222 -0.0469
  143SAPE  H16Y15734   5.786  -0.298   9.067  1.8051 -2.7538 -0.2622
  143SAPE  C31715735   5.948  -0.188   8.982  0.3223 -0.1159  0.1664
  143SAPE  H17X15736   5.972  -0.269   8.910  0.4332  0.7256 -0.7701
  143SAPE  H17Y15737   6.045  -0.145   9.017 -0.2998  1.9023 -0.4835
  143SAPE  C31815738   5.867  -0.073   8.916  0.5930 -0.0732  0.8246
  143SAPE  H18X15739   5.829   0.007   8.982 -1.2498 -0.1590 -0.0597
  143SAPE  H18Y15740   5.780  -0.127   8.871  0.1717  1.0220  0.3024
  143SAPE  H18Z15741   5.920  -0.036   8.826 -0.0973 -0.0913  0.3997
  144SAPE     N15742   1.338   5.012  10.841  0.2370 -0.2945  0.5278
  144SAPE   HN115743   1.326   4.909  10.831  0.2935 -0.1932 -0.6805
  144SAPE   HN215744   1.281   5.068  10.774  0.0571 -1.9209 -0.7444
  144SAPE   HN315745   1.438   5.011  10.815  0.0020  1.2517 -0.5544
  144SAPE   C1215746   1.320   5.069  10.978 -0.1882 -0.7735 -0.0558
  144SAPE  H12A15747   1.394   5.019  11.044 -2.0510 -2.2320  1.0321
  144SAPE  H12B15748   1.216   5.044  11.009 -0.8250  1.1040 -0.5651
  144SAPE   C1115749   1.339   5.218  10.963 -0.1744 -0.2675 -0.5067
  144SAPE  H11A15750   1.320   5.290  11.046  3.7258  0.5043 -0.0920
  144SAPE  H11B15751   1.264   5.241  10.884 -0.1558 -2.3236 -1.1768
  144SAPE     P15752   1.590   5.243  11.014  0.2974 -0.1299 -0.4157
  144SAPE   O1315753   1.584   5.377  11.081 -0.4851  0.1523  0.3215
  144SAPE   O1415754   1.583   5.127  11.101  0.1341  0.2148  0.7229
  144SAPE   O1215755   1.467   5.249  10.911  0.1500 -0.5467  0.4874
  144SAPE   O1115756   1.722   5.239  10.923 -0.7474  0.4631  0.1565
  144SAPE    C115757   1.737   5.319  10.807  0.3151 -0.2225 -0.8436
  144SAPE    HA15758   1.683   5.414  10.792  1.8767  0.5325 -1.9458
  144SAPE    HB15759   1.845   5.343  10.802  0.4575  0.0430  1.9654
  144SAPE    C215760   1.712   5.235  10.680  0.2946  0.2951  0.5193
  144SAPE    HS15761   1.601   5.224  10.681  0.3468 -0.7253  2.7085
  144SAPE   O2115762   1.788   5.112  10.676 -0.6130  0.3294  0.1100
  144SAPE   C2115763   1.714   5.006  10.722 -0.9279  0.1566 -0.2403
  144SAPE   O2215764   1.607   5.020  10.775 -0.1839  0.3946  0.0149
  144SAPE   C2215765   1.789   4.874  10.688  0.1654 -0.0913  0.2362
  144SAPE   H2R15766   1.877   4.890  10.622 -0.2907  0.7656 -0.1790
  144SAPE   H2S15767   1.819   4.839  10.789 -0.1082 -0.7844  0.0885
  144SAPE    C315768   1.751   5.319  10.560 -0.0846 -0.8768  0.0606
  144SAPE    HX15769   1.862   5.327  10.568 -0.2937  1.4165  1.8557
  144SAPE    HY15770   1.726   5.426  10.578  1.1939 -0.4749 -0.4238
  144SAPE   O3115771   1.729   5.275  10.423 -0.4156 -0.4889  0.0849
  144SAPE   C3115772   1.600   5.285  10.387 -0.7831  0.2457  0.4488
  144SAPE   O3215773   1.512   5.333  10.454  0.3032 -0.4762  0.9263
  144SAPE   C3215774   1.581   5.218  10.254  0.1574 -0.0660 -0.5731
  144SAPE   H2X15775   1.470   5.215  10.246 -0.2267  0.7112  3.0346
  144SAPE   H2Y15776   1.629   5.118  10.256  1.1680  0.3587 -1.8293
  144SAPE   C2315777   1.687   4.769  10.629  0.1696  0.1287  0.6854
  144SAPE   H3R15778   1.663   4.825  10.536 -0.8580  0.2020  0.9823
  144SAPE   H3S15779   1.597   4.753  10.692 -0.8805  0.7546 -0.5964
  144SAPE   C2415780   1.739   4.627  10.604 -1.0213 -0.1096 -0.0667
  144SAPE   H4R15781   1.684   4.565  10.678 -0.0649  1.4628  2.1006
  144SAPE   H4S15782   1.845   4.611  10.633 -0.6736  3.0720  0.8910
  144SAPE   C2515783   1.689   4.568  10.465  0.6311 -0.1347 -0.5767
  144SAPE   H5R15784   1.597   4.614  10.427 -0.0493  0.5226  1.7548
  144SAPE   C2615785   1.736   4.461  10.398 -0.5380  0.0317  0.2313
  144SAPE   H6R15786   1.693   4.428  10.303 -0.6348  2.6530 -0.7024
  144SAPE   C2715787   1.857   4.381  10.445  0.3354 -0.3096  0.1110
  144SAPE   H7R15788   1.883   4.420  10.546 -2.3976 -0.0606  0.7974
  144SAPE   H7S15789   1.943   4.388  10.376  1.5124  0.0702  1.5714
  144SAPE   C2815790   1.827   4.232  10.474 -0.3767 -0.7691 -0.2243
  144SAPE   H8R15791   1.799   4.216  10.580  1.2240  0.9796  0.5279
  144SAPE   C2915792   1.837   4.131  10.389 -0.0837  0.4392  0.3102
  144SAPE   H9R15793   1.778   4.042  10.416 -3.4943  2.4523  0.0855
  144SAPE  C21015794   1.873   4.145  10.242  1.0492 -0.0212  1.1918
  144SAPE  H10R15795   1.913   4.245  10.214  0.2535 -0.3929 -1.4891
  144SAPE  H10S15796   1.779   4.136  10.183  0.7664  0.2681  1.5840
  144SAPE  C21115797   1.967   4.034  10.201 -0.2689  0.5264  0.5834
  144SAPE  H11R15798   2.046   4.012  10.274  0.7146  4.9370  1.0944
  144SAPE  C21215799   1.971   3.969  10.082 -0.5010 -0.1385 -0.2850
  144SAPE  H12R15800   2.053   3.898  10.064 -0.4523  0.1347 -1.1678
  144SAPE  C21315801   1.881   3.990   9.960  0.2541  0.0102  0.4733
  144SAPE  H13R15802   1.777   4.002   9.997  1.0974  0.8221  2.7443
  144SAPE  H13S15803   1.894   3.900   9.895  1.9554 -0.0148  0.7834
  144SAPE  C21415804   1.924   4.110   9.886  1.1831 -0.6346  0.0419
  144SAPE  H14R15805   1.959   4.196   9.944 -0.5456 -0.6259  1.1690
  144SAPE  C21515806   1.957   4.113   9.756 -0.0603 -0.9278 -0.0295
  144SAPE  H15R15807   1.969   4.212   9.709  2.1833 -1.7406 -1.3305
  144SAPE  C21615808   1.943   4.006   9.653 -0.2252 -0.1850 -0.2749
  144SAPE  H16R15809   1.863   3.933   9.682 -1.4302  1.0079 -0.4873
  144SAPE  H16S15810   2.037   3.947   9.648  1.4633  2.5047 -2.8517
  144SAPE  C21715811   1.902   4.056   9.512  0.3180  0.2164 -0.1704
  144SAPE  H17R15812   1.807   4.113   9.516 -0.0112  0.2730 -4.3599
  144SAPE  H17S15813   1.866   3.966   9.458  0.2769  0.6630 -0.8886
  144SAPE  C21815814   2.017   4.133   9.455 -0.1733 -0.2919  0.5008
  144SAPE  H18R15815   2.115   4.084   9.476 -0.3336  0.0583  2.2411
  144SAPE  H18S15816   2.032   4.236   9.496 -0.0495  0.3449 -1.0853
  144SAPE  C21915817   2.002   4.156   9.304  0.6661  0.1916  0.5653
  144SAPE  H19R15818   2.008   4.058   9.252 -0.4132  1.2261 -1.6444
  144SAPE  H19S15819   2.089   4.211   9.264  0.0690  1.2749  0.7281
  144SAPE  C22015820   1.879   4.229   9.254  0.2619 -0.1210 -0.3698
  144SAPE  H20R15821   1.786   4.169   9.261  1.0344 -1.2984  0.2020
  144SAPE  H20S15822   1.899   4.249   9.147  1.5478  0.5139 -0.0279
  144SAPE  H20T15823   1.866   4.326   9.306 -3.1002 -1.0655  0.7888
  144SAPE   C3315824   1.643   5.301  10.140 -0.2002 -0.0266  0.3867
  144SAPE   H3X15825   1.753   5.304  10.154 -0.2627 -0.6525  1.0555
  144SAPE   H3Y15826   1.601   5.404  10.132  1.2070  0.4417 -2.4324
  144SAPE   C3415827   1.619   5.232  10.006 -0.0151  0.1461 -0.1280
  144SAPE   H4X15828   1.514   5.210   9.977 -0.0528 -0.8206  0.6891
  144SAPE   H4Y15829   1.673   5.135  10.014  3.1952  1.8852  1.6249
  144SAPE   C3515830   1.680   5.299   9.877  0.4285 -0.2716 -0.1466
  144SAPE   H5X15831   1.778   5.347   9.895 -0.6415  1.1411  2.6550
  144SAPE   H5Y15832   1.613   5.373   9.828 -1.7426 -2.1006 -0.1011
  144SAPE   C3615833   1.705   5.193   9.766 -0.5017 -0.1495  0.7978
  144SAPE   H6X15834   1.725   5.255   9.676  1.1342  1.7492  2.3747
  144SAPE   H6Y15835   1.610   5.138   9.750 -0.1982 -0.5530  0.3889
  144SAPE   C3715836   1.821   5.107   9.797 -0.2711  0.0229 -0.3474
  144SAPE   H7X15837   1.809   5.033   9.879  0.2261 -1.0158 -1.1869
  144SAPE   H7Y15838   1.913   5.169   9.801 -0.5039  0.3575 -0.1444
  144SAPE   C3815839   1.836   5.006   9.691 -0.6120  0.5812 -0.0503
  144SAPE   H8X15840   1.767   4.919   9.701  1.2821 -1.0771 -0.5526
  144SAPE   H8Y15841   1.934   4.959   9.714  1.3052  4.0341 -0.6000
  144SAPE   C3915842   1.856   5.059   9.542  0.2641  0.1960  0.1376
  144SAPE   H9X15843   1.931   5.002   9.484  0.3020  1.3693 -1.0176
  144SAPE   H9Y15844   1.901   5.160   9.551  0.3391  0.3990 -1.9026
  144SAPE  C31015845   1.730   5.055   9.458 -0.2194 -0.1361 -0.3813
  144SAPE  H10X15846   1.640   5.087   9.514  1.7020  1.6352  1.8784
  144SAPE  H10Y15847   1.708   4.954   9.416 -0.2724 -0.2804 -0.0106
  144SAPE  C31115848   1.728   5.150   9.332  0.2190  0.3214 -0.6320
  144SAPE  H11X15849   1.736   5.256   9.366  1.6064  0.2480 -0.6804
  144SAPE  H11Y15850   1.633   5.130   9.279 -1.3460  1.4725  1.5636
  144SAPE  C31215851   1.860   5.130   9.248  0.3681 -0.2703  0.4138
  144SAPE  H12X15852   1.864   5.021   9.225  1.3762 -0.7414  2.5601
  144SAPE  H12Y15853   1.950   5.161   9.306  0.3603  0.1570  0.2029
  144SAPE  C31315854   1.854   5.214   9.120 -0.1136 -0.7148  0.8313
  144SAPE  H13X15855   1.834   5.320   9.149 -1.8319 -0.2080 -1.8824
  144SAPE  H13Y15856   1.774   5.186   9.048  0.5764 -1.2252  0.2521
  144SAPE  C31415857   1.991   5.221   9.048  0.1143  0.3782  0.2876
  144SAPE  H14X15858   2.053   5.279   9.119  1.5562 -1.6157  0.7728
  144SAPE  H14Y15859   1.989   5.273   8.950  1.1670 -0.7552 -0.3720
  144SAPE  C31515860   2.061   5.090   9.010  0.3005  0.5434 -0.9399
  144SAPE  H15X15861   2.046   5.018   9.094  2.3107  0.1181 -0.8911
  144SAPE  H15Y15862   2.172   5.090   9.006  0.6535 -1.3506  3.0654
  144SAPE  C31615863   2.012   5.026   8.878  0.2341  0.2452 -0.3609
  144SAPE  H16X15864   1.901   5.023   8.875  0.2397 -1.5795 -0.0661
  144SAPE  H16Y15865   2.044   4.920   8.867 -0.1159  0.4259 -4.9793
  144SAPE  C31715866   2.068   5.105   8.753 -0.3998  0.7250 -0.2708
  144SAPE  H17X15867   2.178   5.113   8.756 -0.3054  1.0069 -2.6055
  144SAPE  H17Y15868   2.035   5.212   8.754 -0.0721  0.8782 -2.3283
  144SAPE  C31815869   2.020   5.043   8.627  0.2067 -0.3409 -0.0472
  144SAPE  H18X15870   2.071   5.086   8.538 -0.6690  0.0057 -0.3903
  144SAPE  H18Y15871   1.912   5.063   8.610  0.6229  0.8206 -1.5191
  144SAPE  H18Z15872   2.045   4.935   8.629  1.9670  0.0372  1.4706
  145SAPE     N15873   4.808   4.846  11.313  1.4015  0.5757 -0.3845
  145SAPE   HN115874   4.877   4.853  11.390  2.5722  1.8769 -1.4834
  145SAPE   HN215875   4.848   4.891  11.228 -0.5800 -1.6450 -2.6359
  145SAPE   HN315876   4.718   4.894  11.335  1.1121  0.2126 -0.7580
  145SAPE   C1215877   4.763   4.705  11.275  0.3330 -0.0912 -0.1857
  145SAPE  H12A15878   4.688   4.708  11.193 -1.4148  0.5844  1.3702
  145SAPE  H12B15879   4.720   4.657  11.366  1.0403 -2.9939 -1.2696
  145SAPE   C1115880   4.890   4.621  11.235 -0.3492  0.1009  1.0249
  145SAPE  H11A15881   4.923   4.659  11.136 -0.3796 -0.3453  0.8430
  145SAPE  H11B15882   4.858   4.515  11.225  1.1636 -0.1825 -1.7440
  145SAPE     P15883   5.149   4.642  11.305  0.0072 -0.3423  0.2912
  145SAPE   O1315884   5.184   4.784  11.273  0.1526 -0.0033  0.1321
  145SAPE   O1415885   5.216   4.581  11.424 -0.5905  0.4293  0.6650
  145SAPE   O1215886   4.990   4.641  11.337  0.2565  0.0058  0.0190
  145SAPE   O1115887   5.161   4.563  11.165  0.2027 -0.3779  0.1552
  145SAPE    C115888   5.281   4.576  11.081 -0.1016 -0.0248 -0.2755
  145SAPE    HA15889   5.341   4.668  11.096 -1.1309  0.8100 -1.1269
  145SAPE    HB15890   5.358   4.503  11.116 -0.7636  0.1899  1.7260
  145SAPE    C215891   5.244   4.568  10.923  0.2035 -0.3219  0.2934
  145SAPE    HS15892   5.335   4.567  10.860 -0.4067  0.8044 -0.6280
  145SAPE   O2115893   5.184   4.684  10.884  0.7059  0.3046  0.1277
  145SAPE   C2115894   5.266   4.787  10.875  0.1652 -0.8599 -0.5240
  145SAPE   O2215895   5.388   4.781  10.889  0.5470 -0.6435  0.1687
  145SAPE   C2215896   5.204   4.923  10.849 -0.0457  0.0144  0.0897
  145SAPE   H2R15897   5.150   4.952  10.942 -1.1754  0.1125 -0.5800
  145SAPE   H2S15898   5.302   4.974  10.836  0.7832 -1.4603  0.3473
  145SAPE    C315899   5.168   4.439  10.881 -0.3446  0.0042 -0.0024
  145SAPE    HX15900   5.076   4.440  10.944  0.9810  1.9492  2.0816
  145SAPE    HY15901   5.240   4.360  10.911 -0.7441 -0.1453  0.5762
  145SAPE   O3115902   5.143   4.436  10.736  0.1465 -0.4753 -0.1658
  145SAPE   C3115903   5.018   4.419  10.695 -0.2133  0.7687 -0.1643
  145SAPE   O3215904   4.917   4.411  10.763 -0.0323 -0.5658 -0.6140
  145SAPE   C3215905   5.016   4.401  10.541  0.2617  0.2018 -1.9880
  145SAPE   H2X15906   5.013   4.500  10.491  1.8048  2.1929  1.4543
  145SAPE   H2Y15907   4.914   4.360  10.524 -1.0928  2.8315 -0.8827
  145SAPE   C2315908   5.110   4.943  10.724  0.5679 -0.0557 -0.2395
  145SAPE   H3R15909   5.124   4.872  10.639 -2.3788 -0.0737 -0.8167
  145SAPE   H3S15910   5.145   5.040  10.685  1.3493  0.6808  2.1396
  145SAPE   C2415911   4.962   4.963  10.756 -0.0026  0.6064  0.2214
  145SAPE   H4R15912   4.910   5.008  10.668 -2.2415  1.1354  1.7354
  145SAPE   H4S15913   4.952   5.037  10.837 -1.4934 -0.5013  1.0883
  145SAPE   C2515914   4.903   4.837  10.810 -0.4170  0.3887 -0.6652
  145SAPE   H5R15915   4.921   4.814  10.916 -0.2785  1.9920 -0.3068
  145SAPE   C2615916   4.833   4.747  10.735  0.2560  0.4574 -0.1367
  145SAPE   H6R15917   4.799   4.654  10.783  1.3771 -0.2516 -0.6444
  145SAPE   C2715918   4.809   4.759  10.590  0.7039 -0.3572  0.2722
  145SAPE   H7R15919   4.909   4.779  10.545  0.8546 -0.7278  0.4336
  145SAPE   H7S15920   4.751   4.851  10.569  1.2661 -0.6713 -3.4177
  145SAPE   C2815921   4.746   4.631  10.519 -0.4204 -0.1703  0.7646
  145SAPE   H8R15922   4.692   4.560  10.584  1.2814 -0.8687  1.4811
  145SAPE   C2915923   4.752   4.613  10.386  0.1865 -0.2114  0.0861
  145SAPE   H9R15924   4.714   4.520  10.343 -1.9921 -0.2016  1.8377
  145SAPE  C21015925   4.806   4.708  10.287 -0.3423  0.7711  0.3106
  145SAPE  H10R15926   4.907   4.678  10.251  0.3812  1.5346  1.5874
  145SAPE  H10S15927   4.811   4.811  10.328  3.4698  0.9083 -0.0563
  145SAPE  C21115928   4.712   4.725  10.175  0.1251  0.4626  0.3110
  145SAPE  H11R15929   4.631   4.799  10.183 -0.4483 -0.1837  0.5285
  145SAPE  C21215930   4.709   4.649  10.062  0.3002 -0.1105  0.4515
  145SAPE  H12R15931   4.631   4.674   9.988  1.2879  0.9735 -0.2654
  145SAPE  C21315932   4.798   4.536  10.026  0.1600  0.1293  0.6536
  145SAPE  H13R15933   4.735   4.449   9.999 -0.9130  1.1372 -0.2061
  145SAPE  H13S15934   4.849   4.492  10.114 -0.6727  1.2131  1.7010
  145SAPE  C21415935   4.892   4.596   9.930  0.2918  0.3611  0.2624
  145SAPE  H14R15936   4.965   4.665   9.975 -1.6983  1.6923  1.6434
  145SAPE  C21515937   4.896   4.572   9.796 -0.7467  0.5555 -0.3334
  145SAPE  H15R15938   4.977   4.617   9.737 -0.3326  0.8861  0.4625
  145SAPE  C21615939   4.803   4.495   9.715 -0.4905 -0.2028  0.4492
  145SAPE  H16R15940   4.697   4.507   9.745 -1.1524  2.0584 -2.3821
  145SAPE  H16S15941   4.835   4.388   9.714  1.9134  0.4364  1.7826
  145SAPE  C21715942   4.801   4.545   9.566  0.2102  0.2377  0.1411
  145SAPE  H17R15943   4.882   4.616   9.539 -1.7193  1.3214 -3.3049
  145SAPE  H17S15944   4.710   4.608   9.571 -1.7001 -2.4132  2.9007
  145SAPE  C21815945   4.788   4.440   9.456  0.0481  0.1295 -0.1193
  145SAPE  H18R15946   4.695   4.383   9.475  0.6483 -0.3637  1.5644
  145SAPE  H18S15947   4.872   4.368   9.462 -1.9145 -2.1777  1.4007
  145SAPE  C21915948   4.762   4.494   9.313  0.3055 -0.4190 -0.0959
  145SAPE  H19R15949   4.826   4.584   9.299  1.7588 -1.4366 -0.2100
  145SAPE  H19S15950   4.664   4.546   9.304  1.6239  2.7571  1.8811
  145SAPE  C22015951   4.799   4.391   9.207  0.1134 -0.1870  0.1861
  145SAPE  H20R15952   4.732   4.305   9.188 -0.0560  0.0633 -0.3755
  145SAPE  H20S15953   4.906   4.362   9.221  0.0990 -0.1671  0.3368
  145SAPE  H20T15954   4.787   4.454   9.116  1.0232 -0.4554 -0.1308
  145SAPE   C3315955   5.127   4.311  10.492  0.1706  0.2182  0.2112
  145SAPE   H3X15956   5.152   4.220  10.550  0.8523 -0.2313 -0.7656
  145SAPE   H3Y15957   5.216   4.377  10.485  1.4341 -1.5895 -1.8875
  145SAPE   C3415958   5.132   4.264  10.339  1.3650  0.3945 -0.2924
  145SAPE   H4X15959   5.053   4.190  10.313 -1.8012  2.9894  1.2103
  145SAPE   H4Y15960   5.227   4.216  10.309  0.9072 -0.2706 -0.7325
  145SAPE   C3515961   5.103   4.379  10.244  0.4422 -0.7505  0.2562
  145SAPE   H5X15962   5.157   4.470  10.280 -0.3334 -0.5031  0.8155
  145SAPE   H5Y15963   4.999   4.418  10.248  0.8881  0.6527 -0.8335
  145SAPE   C3615964   5.150   4.352  10.098 -0.0705  0.1503  0.1057
  145SAPE   H6X15965   5.255   4.318  10.092 -0.3597 -0.6389 -0.7857
  145SAPE   H6Y15966   5.150   4.442  10.033  1.9474  0.4096  0.4255
  145SAPE   C3715967   5.071   4.247  10.014 -0.1183 -0.3116  0.7958
  145SAPE   H7X15968   4.963   4.271  10.023 -0.2763 -0.8337  0.3171
  145SAPE   H7Y15969   5.098   4.144  10.047 -0.2536 -0.6743 -0.1996
  145SAPE   C3815970   5.114   4.245   9.863 -0.5807  0.5181 -0.6865
  145SAPE   H8X15971   5.210   4.189   9.853 -0.7294 -0.2247  1.6154
  145SAPE   H8Y15972   5.128   4.342   9.810  1.1674  0.3291 -0.6517
  145SAPE   C3915973   5.020   4.155   9.786  0.1892 -0.5886 -0.3877
  145SAPE   H9X15974   4.929   4.218   9.786  0.4279 -0.2193 -1.5162
  145SAPE   H9Y15975   4.999   4.058   9.835  3.2514 -1.3724 -0.4227
  145SAPE  C31015976   5.068   4.126   9.638 -0.2079 -0.2226  0.3920
  145SAPE  H10X15977   5.156   4.057   9.640  0.1309  0.1600 -0.4646
  145SAPE  H10Y15978   5.114   4.208   9.578  0.1796 -1.1072 -0.5465
  145SAPE  C31115979   4.973   4.036   9.558 -0.3557 -0.1659 -0.0341
  145SAPE  H11X15980   4.870   4.073   9.573  0.5458  1.3072  3.4573
  145SAPE  H11Y15981   4.970   3.934   9.603 -1.1282 -0.6734 -1.1980
  145SAPE  C31215982   5.004   4.029   9.407 -0.6483  1.3366  0.8192
  145SAPE  H12X15983   5.101   3.980   9.386 -1.9579 -0.2246 -2.1854
  145SAPE  H12Y15984   4.998   4.132   9.367  0.5732  1.0927 -0.0106
  145SAPE  C31315985   4.900   3.943   9.325 -0.2276  0.4552 -0.3406
  145SAPE  H13X15986   4.810   4.008   9.320 -1.4765 -1.2441 -1.0719
  145SAPE  H13Y15987   4.872   3.844   9.368 -0.0406 -0.3573 -1.9924
  145SAPE  C31415988   4.931   3.914   9.178 -0.6233 -0.4850 -0.2898
  145SAPE  H14X15989   5.023   3.852   9.180 -1.7250 -2.2478 -1.3710
  145SAPE  H14Y15990   4.945   4.008   9.121 -0.2324 -0.9604 -1.0023
  145SAPE  C31515991   4.833   3.827   9.107  0.5495  0.1103  0.2474
  145SAPE  H15X15992   4.814   3.736   9.168  0.9925 -0.1704 -0.0286
  145SAPE  H15Y15993   4.877   3.796   9.010 -0.6260  0.0806 -0.2814
  145SAPE  C31615994   4.706   3.903   9.070 -0.6568  0.0781 -0.9749
  145SAPE  H16X15995   4.716   4.011   9.049 -0.6454  0.1820 -0.4617
  145SAPE  H16Y15996   4.644   3.917   9.161  2.2930 -0.6538  1.3202
  145SAPE  C31715997   4.623   3.839   8.961  0.2674 -0.3847  0.3025
  145SAPE  H17X15998   4.607   3.729   8.962 -0.1447 -0.3521 -0.8121
  145SAPE  H17Y15999   4.683   3.858   8.869 -0.3196  0.7128  0.1150
  145SAPE  C31816000   4.486   3.914   8.937  0.4333  0.1148  0.1983
  145SAPE  H18X16001   4.408   3.860   8.995  0.1955  1.3389  1.0443
  145SAPE  H18Y16002   4.460   3.908   8.829 -0.4238  0.9884  0.3443
  145SAPE  H18Z16003   4.491   4.016   8.979 -0.7076 -0.0154  0.7000
  146SAPE     N16004   2.987   1.784  11.383 -0.1099  0.2217  0.2614
  146SAPE   HN116005   2.969   1.743  11.477  0.1279 -1.6977 -0.4696
  146SAPE   HN216006   3.023   1.706  11.323 -3.3140 -0.9281 -0.3948
  146SAPE   HN316007   3.063   1.854  11.394  1.4213 -1.2180 -0.6365
  146SAPE   C1216008   2.872   1.849  11.321 -0.0399  0.2907 -0.4125
  146SAPE  H12A16009   2.849   1.941  11.379  0.0940 -0.7406  1.3574
  146SAPE  H12B16010   2.782   1.787  11.341 -0.5382  0.8548 -0.8555
  146SAPE   C1116011   2.888   1.869  11.166 -0.3885 -0.6696 -0.6921
  146SAPE  H11A16012   2.805   1.937  11.138 -0.6749 -0.6528  0.1681
  146SAPE  H11B16013   2.868   1.769  11.122 -1.9890 -0.4657 -0.5066
  146SAPE     P16014   3.045   1.963  10.980  0.4839  0.1897 -0.6320
  146SAPE   O1316015   2.928   2.046  10.932 -0.0986  0.4709 -0.0802
  146SAPE   O1416016   3.179   2.026  10.973 -0.2812 -0.3520  0.7046
  146SAPE   O1216017   3.015   1.925  11.130  0.8651  0.0627  0.6225
  146SAPE   O1116018   3.040   1.830  10.896  0.0517 -0.7386  0.4272
  146SAPE    C116019   3.149   1.808  10.806 -0.0576  1.0671 -0.0344
  146SAPE    HA16020   3.245   1.857  10.834 -0.6294  1.8007  0.6931
  146SAPE    HB16021   3.179   1.702  10.821 -1.4635  0.6965  0.3033
  146SAPE    C216022   3.113   1.836  10.658 -0.0399 -0.2276  0.0756
  146SAPE    HS16023   3.204   1.840  10.595 -0.4495  0.3945 -0.5019
  146SAPE   O2116024   3.060   1.967  10.659 -0.0669  0.0122  0.2294
  146SAPE   C2116025   3.153   2.065  10.675  0.1195 -0.1748 -0.1911
  146SAPE   O2216026   3.275   2.038  10.675  0.3530 -0.9109  0.0348
  146SAPE   C2216027   3.095   2.208  10.684 -0.7328  1.0010  0.1200
  146SAPE   H2R16028   3.025   2.218  10.770 -0.5445 -1.0424  0.5559
  146SAPE   H2S16029   3.176   2.282  10.701  0.7125 -0.1471 -1.4510
  146SAPE    C316030   3.015   1.734  10.595 -0.3794 -0.6116  0.4853
  146SAPE    HX16031   2.917   1.724  10.648 -0.4706 -1.6441  0.1302
  146SAPE    HY16032   3.065   1.638  10.617  1.0869  0.3575  1.5798
  146SAPE   O3116033   3.011   1.760  10.449 -0.5799  0.6489 -0.4280
  146SAPE   C3116034   2.930   1.855  10.416  0.7419 -0.4595  0.4341
  146SAPE   O3216035   2.854   1.918  10.488  0.0933 -0.9924 -0.3894
  146SAPE   C3216036   2.942   1.883  10.261  0.2775  0.3771  0.0524
  146SAPE   H2X16037   2.959   1.785  10.211 -1.6932  0.1798 -0.3124
  146SAPE   H2Y16038   3.034   1.941  10.239  0.7932 -1.0048 -1.6483
  146SAPE   C2316039   3.016   2.241  10.552 -0.8583  1.2680  0.2839
  146SAPE   H3R16040   2.978   2.345  10.554  1.1429  2.0767  2.9128
  146SAPE   H3S16041   2.928   2.174  10.547 -0.0939  0.3292 -2.2957
  146SAPE   C2416042   3.092   2.212  10.425 -0.7028 -0.4170 -0.0233
  146SAPE   H4R16043   3.025   2.210  10.337 -0.0828 -0.8499 -0.5002
  146SAPE   H4S16044   3.133   2.108  10.425  0.4946  0.0006  2.1549
  146SAPE   C2516045   3.211   2.310  10.404 -0.2121  0.1489  0.2124
  146SAPE   H5R16046   3.250   2.364  10.492 -1.7825  0.0377  1.0085
  146SAPE   C2616047   3.268   2.331  10.286 -0.6152 -0.2396 -0.1535
  146SAPE   H6R16048   3.353   2.400  10.298 -0.8401 -0.1381  1.0080
  146SAPE   C2716049   3.232   2.271  10.152  0.3138  0.3027  0.6926
  146SAPE   H7R16050   3.124   2.247  10.155  0.1063  1.0385 -0.2592
  146SAPE   H7S16051   3.290   2.181  10.124  1.8106  1.2921  0.5145
  146SAPE   C2816052   3.272   2.369  10.049 -0.1681  0.1561  0.1741
  146SAPE   H8R16053   3.378   2.397  10.044  0.2586 -1.5273 -1.1048
  146SAPE   C2916054   3.193   2.408   9.947  0.3052 -0.7120 -0.4130
  146SAPE   H9R16055   3.238   2.480   9.877  0.5917 -1.4702 -1.0260
  146SAPE  C21016056   3.046   2.372   9.918 -0.1881 -0.0900 -0.1599
  146SAPE  H10R16057   3.020   2.269   9.952 -1.5025  0.4052  0.3909
  146SAPE  H10S16058   3.015   2.373   9.812  0.2451  0.9602 -0.2845
  146SAPE  C21116059   2.950   2.466   9.992 -0.1918  0.2104 -0.0937
  146SAPE  H11R16060   2.982   2.490  10.095  0.5961  0.5219 -0.4007
  146SAPE  C21216061   2.839   2.524   9.947 -0.7132 -0.9258  0.4090
  146SAPE  H12R16062   2.777   2.591  10.008  0.7895  2.9975 -1.9461
  146SAPE  C21316063   2.779   2.520   9.805  0.2154 -0.1028 -0.8182
  146SAPE  H13R16064   2.679   2.566   9.795  0.7871  1.9449  1.7378
  146SAPE  H13S16065   2.769   2.414   9.772  0.7252 -0.0249 -1.2339
  146SAPE  C21416066   2.859   2.600   9.708 -0.1501  0.2459 -0.3355
  146SAPE  H14R16067   2.953   2.640   9.749  0.5568  0.5984 -2.2025
  146SAPE  C21516068   2.827   2.622   9.582 -0.5995 -0.1199 -0.0606
  146SAPE  H15R16069   2.889   2.682   9.514 -1.8178  1.1328 -0.1124
  146SAPE  C21616070   2.699   2.571   9.522 -0.6603 -0.0326  0.4897
  146SAPE  H16R16071   2.623   2.534   9.593 -1.0108 -0.0768  0.0973
  146SAPE  H16S16072   2.716   2.483   9.456  0.5820 -0.5248  1.4316
  146SAPE  C21716073   2.629   2.674   9.426 -0.1331  0.0653 -0.5466
  146SAPE  H17R16074   2.613   2.769   9.482  1.1951  0.5447 -0.9516
  146SAPE  H17S16075   2.528   2.638   9.396 -0.1126  0.3288 -0.9463
  146SAPE  C21816076   2.705   2.698   9.295  0.6807 -0.4023  0.0526
  146SAPE  H18R16077   2.741   2.598   9.262  2.5064  0.2433 -0.0288
  146SAPE  H18S16078   2.791   2.764   9.319 -0.6938  1.2508  0.6687
  146SAPE  C21916079   2.604   2.764   9.201  0.2153  0.9674 -0.1004
  146SAPE  H19R16080   2.552   2.851   9.248 -0.2815  0.2456  0.7288
  146SAPE  H19S16081   2.521   2.692   9.181 -0.5991  1.2019  2.1465
  146SAPE  C22016082   2.656   2.812   9.066  0.2489  0.6376 -0.0985
  146SAPE  H20R16083   2.688   2.721   9.011 -4.5281 -1.1199 -0.4631
  146SAPE  H20S16084   2.738   2.884   9.087  1.9001 -0.4360 -2.3806
  146SAPE  H20T16085   2.581   2.870   9.008 -0.5866  1.4420  1.6977
  146SAPE   C3316086   2.827   1.970  10.209  0.0393 -0.2903 -0.2074
  146SAPE   H3X16087   2.838   2.072  10.250  0.6451 -1.0429  1.6444
  146SAPE   H3Y16088   2.729   1.926  10.238 -1.0887  2.0315 -0.2663
  146SAPE   C3416089   2.847   1.981  10.057  0.1554  0.0332  0.1434
  146SAPE   H4X16090   2.819   1.887  10.005 -0.8117  0.5929 -0.3854
  146SAPE   H4Y16091   2.954   1.998  10.032  0.2366  0.8646  0.9950
  146SAPE   C3516092   2.759   2.082   9.990 -0.3957  0.2089  0.2027
  146SAPE   H5X16093   2.757   2.175  10.051  0.8961  0.2262  0.2420
  146SAPE   H5Y16094   2.656   2.040   9.984  0.1062 -0.8028 -3.2720
  146SAPE   C3616095   2.788   2.115   9.839 -0.2740 -0.0939 -0.4674
  146SAPE   H6X16096   2.886   2.162   9.817 -0.9640 -0.2605 -4.8477
  146SAPE   H6Y16097   2.710   2.189   9.807 -0.9522 -0.5974 -0.0052
  146SAPE   C3716098   2.769   1.995   9.743  0.3607  0.2711 -0.6817
  146SAPE   H7X16099   2.672   1.944   9.759 -1.3170  2.9664 -1.7239
  146SAPE   H7Y16100   2.848   1.918   9.759  0.9958  1.2261  0.9561
  146SAPE   C3816101   2.766   2.043   9.596  0.8725  0.2550 -0.2301
  146SAPE   H8X16102   2.663   2.074   9.570  0.3953 -2.3281 -1.8843
  146SAPE   H8Y16103   2.809   1.953   9.546  0.0046 -1.5773  2.1528
  146SAPE   C3916104   2.851   2.167   9.561 -0.2896 -0.0392 -0.1523
  146SAPE   H9X16105   2.958   2.157   9.591  0.3918  0.8451 -2.0895
  146SAPE   H9Y16106   2.818   2.263   9.605 -0.4560 -0.2622  0.2180
  146SAPE  C31016107   2.875   2.189   9.405 -0.7576  0.1291  0.3853
  146SAPE  H10X16108   2.948   2.116   9.363 -1.4759  0.2032 -1.0421
  146SAPE  H10Y16109   2.925   2.288   9.399  0.8011 -0.6088  0.6798
  146SAPE  C31116110   2.746   2.192   9.329  0.2334 -0.2969 -0.1470
  146SAPE  H11X16111   2.681   2.276   9.363  3.3592  2.4035 -0.2549
  146SAPE  H11Y16112   2.696   2.096   9.351  0.2699 -0.2268  0.2469
  146SAPE  C31216113   2.773   2.206   9.178  0.4464  0.1292 -0.1537
  146SAPE  H12X16114   2.689   2.169   9.115 -0.1158  0.2079  0.5336
  146SAPE  H12Y16115   2.865   2.148   9.154  0.7718  0.4862  0.2152
  146SAPE  C31316116   2.794   2.350   9.121 -0.1765  0.0540 -0.3291
  146SAPE  H13X16117   2.893   2.387   9.153 -0.1125  1.1258 -1.6402
  146SAPE  H13Y16118   2.714   2.414   9.164  0.8585 -0.4068  2.4510
  146SAPE  C31416119   2.812   2.356   8.960  0.9953 -0.1132 -0.8028
  146SAPE  H14X16120   2.887   2.277   8.941  0.0963 -1.1530 -0.1359
  146SAPE  H14Y16121   2.863   2.449   8.926  0.8442 -0.5880 -2.4243
  146SAPE  C31516122   2.685   2.325   8.883 -0.3193  0.5339 -0.1841
  146SAPE  H15X16123   2.633   2.233   8.918 -2.5915  1.4017 -1.0608
  146SAPE  H15Y16124   2.711   2.302   8.777  0.8976  1.4229 -0.0862
  146SAPE  C31616125   2.591   2.448   8.887  0.1069 -0.1819 -0.2750
  146SAPE  H16X16126   2.629   2.541   8.839 -2.4171  0.0691 -2.0066
  146SAPE  H16Y16127   2.565   2.472   8.993  1.2121  1.4556 -0.3368
  146SAPE  C31716128   2.457   2.422   8.821  0.1328 -0.2888 -0.5040
  146SAPE  H17X16129   2.382   2.500   8.847  1.0332 -0.1127  1.7738
  146SAPE  H17Y16130   2.417   2.333   8.875  2.0202 -0.8836 -0.0164
  146SAPE  C31816131   2.456   2.406   8.669 -0.2798  0.0182  0.3383
  146SAPE  H18X16132   2.486   2.502   8.622  1.6365 -0.3382  0.7728
  146SAPE  H18Y16133   2.356   2.388   8.624 -0.3009 -2.3775  1.2111
  146SAPE  H18Z16134   2.526   2.327   8.634  1.3532  2.2479 -1.8333
  147SAPE     N16135   1.256   6.492   6.358  0.1168  0.1759  0.0224
  147SAPE   HN116136   1.176   6.428   6.376 -0.0005 -0.4214 -2.2988
  147SAPE   HN216137   1.218   6.588   6.369 -2.1805 -0.8152  1.4827
  147SAPE   HN316138   1.285   6.471   6.260  1.3966  1.1139  0.1759
  147SAPE   C1216139   1.367   6.465   6.451  0.6320  0.7658  0.0275
  147SAPE  H12A16140   1.382   6.355   6.454  2.3991  0.9752 -0.0628
  147SAPE  H12B16141   1.330   6.495   6.552 -0.1454  0.9859 -0.3137
  147SAPE   C1116142   1.485   6.536   6.404 -0.9984 -0.3162  0.2051
  147SAPE  H11A16143   1.517   6.492   6.307 -1.4222  0.3981 -0.2632
  147SAPE  H11B16144   1.573   6.509   6.466  0.3894  1.6453 -0.8176
  147SAPE     P16145   1.556   6.782   6.461 -0.4294 -0.0762 -0.5437
  147SAPE   O1316146   1.701   6.732   6.474  0.2326 -0.3144 -0.8548
  147SAPE   O1416147   1.535   6.915   6.394  0.0517  0.0895  0.0940
  147SAPE   O1216148   1.467   6.675   6.385  0.1179  0.4681 -0.4359
  147SAPE   O1116149   1.479   6.777   6.601  0.6628  0.1158  0.0478
  147SAPE    C116150   1.552   6.812   6.711 -0.2514 -0.2396  0.2654
  147SAPE    HA16151   1.659   6.784   6.709  0.8973  2.7383  4.5802
  147SAPE    HB16152   1.552   6.923   6.715  0.7010 -0.1819 -0.9971
  147SAPE    C216153   1.498   6.747   6.842  0.4291  0.2345  0.1422
  147SAPE    HS16154   1.541   6.814   6.920  0.1771  0.5146  0.0412
  147SAPE   O2116155   1.544   6.612   6.868  0.0678 -0.3620 -0.0677
  147SAPE   C2116156   1.670   6.592   6.909  0.2732  0.2860 -0.8628
  147SAPE   O2216157   1.749   6.679   6.948 -0.2585  0.0891  0.3844
  147SAPE   C2216158   1.677   6.444   6.918 -0.0718  0.1238 -0.4847
  147SAPE   H2R16159   1.595   6.394   6.974  1.4130 -1.5550  0.3080
  147SAPE   H2S16160   1.667   6.410   6.812  0.8474 -0.1709 -0.4880
  147SAPE    C316161   1.340   6.760   6.863 -0.1175 -0.0165  0.1190
  147SAPE    HX16162   1.291   6.705   6.780  0.9673 -0.7354 -0.0703
  147SAPE    HY16163   1.305   6.865   6.852 -0.8165  0.0278  2.3318
  147SAPE   O3116164   1.292   6.717   6.993 -0.5450 -0.3277 -0.0554
  147SAPE   C3116165   1.157   6.728   7.002 -0.0221  0.1593 -0.7493
  147SAPE   O3216166   1.082   6.797   6.937  0.1273 -0.1706  0.0339
  147SAPE   C3216167   1.119   6.648   7.129 -0.3536  0.9704  0.5027
  147SAPE   H2X16168   1.179   6.556   7.139  0.9865  1.6975 -0.6128
  147SAPE   H2Y16169   1.019   6.607   7.103  0.7827 -2.0900  0.5896
  147SAPE   C2316170   1.816   6.393   6.971  0.4075 -0.0230  0.2858
  147SAPE   H3R16171   1.891   6.475   6.967  3.0333 -2.3038 -0.7514
  147SAPE   H3S16172   1.846   6.303   6.913 -0.2370  1.0313 -1.7805
  147SAPE   C2416173   1.800   6.347   7.124 -0.0481  0.0445  0.1410
  147SAPE   H4R16174   1.715   6.403   7.169 -0.0002 -0.7948  1.3260
  147SAPE   H4S16175   1.896   6.384   7.167 -1.3206  4.3221 -0.2099
  147SAPE   C2516176   1.772   6.202   7.160 -0.1129  0.7727 -0.0199
  147SAPE   H5R16177   1.684   6.157   7.112 -1.0208  1.1131  1.2716
  147SAPE   C2616178   1.845   6.130   7.242 -0.1384  0.0261 -0.5396
  147SAPE   H6R16179   1.812   6.025   7.247 -1.6583  0.4642 -1.0704
  147SAPE   C2716180   1.971   6.169   7.318 -0.3913  0.8720 -0.5172
  147SAPE   H7R16181   1.944   6.207   7.418 -0.9796  1.6805 -0.9738
  147SAPE   H7S16182   2.014   6.257   7.266 -0.0433  0.8140 -0.3319
  147SAPE   C2816183   2.085   6.067   7.325 -0.1337 -0.7037  0.4462
  147SAPE   H8R16184   2.153   6.070   7.238  1.0515  0.6992  1.3763
  147SAPE   C2916185   2.111   5.986   7.425 -0.5795 -0.1757 -0.0848
  147SAPE   H9R16186   2.192   5.913   7.413 -1.4267 -1.4337  1.3728
  147SAPE  C21016187   2.015   5.975   7.543 -0.4519  0.5630 -0.1521
  147SAPE  H10R16188   1.992   5.869   7.569  0.1244  0.3363 -0.5421
  147SAPE  H10S16189   1.912   6.014   7.528 -0.6246 -0.1023 -0.7168
  147SAPE  C21116190   2.079   6.041   7.661 -0.5403 -0.1686  0.5311
  147SAPE  H11R16191   2.145   6.127   7.638  3.2107 -2.1516  2.8769
  147SAPE  C21216192   2.063   5.997   7.786  0.3464 -0.6660 -0.4908
  147SAPE  H12R16193   2.107   6.058   7.866  0.5807 -0.4374 -0.7912
  147SAPE  C21316194   1.983   5.871   7.819 -0.1667  0.1035 -0.6623
  147SAPE  H13R16195   2.043   5.782   7.792 -1.2101 -0.8626  0.1250
  147SAPE  H13S16196   1.891   5.879   7.757  0.0570 -0.4271 -1.0675
  147SAPE  C21416197   1.941   5.859   7.962 -0.1344  0.1053  0.2253
  147SAPE  H14R16198   1.833   5.858   7.984  0.2664 -0.0837  2.4234
  147SAPE  C21516199   2.018   5.829   8.067  0.4632 -0.2705 -0.2696
  147SAPE  H15R16200   1.967   5.814   8.163  0.4499  0.3974 -0.1743
  147SAPE  C21616201   2.164   5.797   8.081 -0.1431  0.4219 -0.4004
  147SAPE  H16R16202   2.205   5.800   7.977 -1.1012 -0.3449 -0.8112
  147SAPE  H16S16203   2.175   5.691   8.111 -1.1889  0.3777 -0.1301
  147SAPE  C21716204   2.251   5.882   8.169 -0.0316  0.6476 -0.1170
  147SAPE  H17R16205   2.254   5.987   8.132  0.0512  0.4232 -0.7650
  147SAPE  H17S16206   2.355   5.843   8.157 -0.1121  0.0278  1.0925
  147SAPE  C21816207   2.219   5.869   8.320 -0.1159 -0.2924  0.2928
  147SAPE  H18R16208   2.108   5.868   8.331 -0.1116 -1.5349  0.3852
  147SAPE  H18S16209   2.239   5.971   8.360 -1.3293  0.3972 -0.7798
  147SAPE  C21916210   2.303   5.763   8.390 -0.1981 -0.1196  0.6119
  147SAPE  H19R16211   2.409   5.782   8.365 -0.4163 -0.3537 -0.5682
  147SAPE  H19S16212   2.280   5.662   8.349 -1.7077  0.3591  0.1901
  147SAPE  C22016213   2.278   5.753   8.544 -0.0271 -0.1760  0.1297
  147SAPE  H20R16214   2.310   5.847   8.594 -1.7254  0.1819  0.5838
  147SAPE  H20S16215   2.338   5.679   8.601  0.6525  1.0428  1.0447
  147SAPE  H20T16216   2.169   5.736   8.557 -0.1447  0.0570 -0.5137
  147SAPE   C3316217   1.135   6.738   7.250  0.3173 -0.1881 -0.1052
  147SAPE   H3X16218   1.072   6.829   7.247 -2.8210 -1.9983  3.0023
  147SAPE   H3Y16219   1.244   6.757   7.241  0.5109 -2.0150 -2.4070
  147SAPE   C3416220   1.126   6.673   7.384 -0.1940  0.0240  0.4127
  147SAPE   H4X16221   1.218   6.614   7.399 -0.7264 -0.5496  1.5588
  147SAPE   H4Y16222   1.038   6.605   7.385 -0.1560 -0.0225  1.1994
  147SAPE   C3516223   1.119   6.770   7.511  0.2328  0.0039 -0.2094
  147SAPE   H5X16224   1.045   6.853   7.501  1.9282  1.7656  1.2198
  147SAPE   H5Y16225   1.214   6.828   7.516  0.5471 -0.5222 -0.0876
  147SAPE   C3616226   1.084   6.695   7.642 -0.2722 -0.1826 -0.8341
  147SAPE   H6X16227   1.159   6.624   7.684 -2.0135 -1.1293  0.8498
  147SAPE   H6Y16228   0.993   6.636   7.620 -0.6973 -0.0593  0.5004
  147SAPE   C3716229   1.047   6.788   7.755 -0.2133 -0.2469  0.0908
  147SAPE   H7X16230   0.946   6.825   7.728 -0.7811 -1.5873  0.3027
  147SAPE   H7Y16231   1.125   6.865   7.739 -1.3103  0.6032 -1.5348
  147SAPE   C3816232   1.047   6.722   7.889  0.7206 -0.4669 -0.2294
  147SAPE   H8X16233   1.125   6.642   7.899 -1.6371 -2.7799  1.0439
  147SAPE   H8Y16234   0.954   6.663   7.906 -0.0086  1.1010  1.5359
  147SAPE   C3916235   1.039   6.823   8.005  0.1734  0.8150  0.1648
  147SAPE   H9X16236   0.942   6.874   7.985 -0.4588 -1.3188 -3.0473
  147SAPE   H9Y16237   1.120   6.899   7.999  0.0008  1.6578  4.7097
  147SAPE  C31016238   1.052   6.764   8.147  0.2177 -0.0052  0.0379
  147SAPE  H10X16239   1.148   6.709   8.162 -0.5792 -1.2581  0.6965
  147SAPE  H10Y16240   0.976   6.685   8.163  1.3079 -0.9367  0.8236
  147SAPE  C31116241   1.024   6.869   8.256 -0.0199  0.1992  0.2609
  147SAPE  H11X16242   0.928   6.921   8.238  1.0772  2.1321 -0.2131
  147SAPE  H11Y16243   1.093   6.956   8.256 -0.3089  0.4544  1.4810
  147SAPE  C31216244   1.006   6.805   8.399 -0.0368 -0.1808  0.3422
  147SAPE  H12X16245   1.105   6.761   8.424 -0.2709  0.2662  2.1852
  147SAPE  H12Y16246   0.932   6.722   8.408 -1.0408  0.8223  1.7412
  147SAPE  C31316247   0.977   6.910   8.511 -0.3651 -0.3741  0.0844
  147SAPE  H13X16248   0.958   6.852   8.603 -1.8600 -1.1990 -0.6970
  147SAPE  H13Y16249   0.881   6.962   8.492  0.2027  1.1706  1.2170
  147SAPE  C31416250   1.085   7.014   8.539  0.4888 -0.0119  0.1356
  147SAPE  H14X16251   1.090   7.082   8.451  2.1320 -0.7559 -0.3759
  147SAPE  H14Y16252   1.183   6.967   8.561  0.1814 -0.3221  0.8639
  147SAPE  C31516253   1.063   7.101   8.662 -0.0061  0.5359  0.5611
  147SAPE  H15X16254   1.086   7.057   8.762 -0.1263  2.2144  1.3495
  147SAPE  H15Y16255   0.957   7.132   8.664 -0.5572 -0.9913 -1.3452
  147SAPE  C31616256   1.162   7.222   8.659 -0.0107 -0.0041 -0.3116
  147SAPE  H16X16257   1.217   7.224   8.562  0.7788  2.1214  0.1265
  147SAPE  H16Y16258   1.239   7.204   8.737 -0.7601 -1.0765  0.2080
  147SAPE  C31716259   1.106   7.360   8.685  0.7307 -0.2088  1.0716
  147SAPE  H17X16260   1.193   7.423   8.659 -0.5222  0.4220 -1.9338
  147SAPE  H17Y16261   1.068   7.373   8.789  3.1794 -0.5037  2.0837
  147SAPE  C31816262   1.005   7.407   8.574 -0.0038 -0.4641  0.1160
  147SAPE  H18X16263   0.915   7.344   8.585  0.4756 -1.3486 -0.8417
  147SAPE  H18Y16264   1.040   7.401   8.469 -0.1096  1.0711 -0.0361
  147SAPE  H18Z16265   0.982   7.514   8.593 -1.1003 -0.8560  1.0325
  148SAPE     N16266   2.127   5.973   6.556  0.0814  0.3525 -0.1638
  148SAPE   HN116267   2.152   5.881   6.515 -0.7980 -0.8781  1.8872
  148SAPE   HN216268   2.055   5.959   6.630 -0.0259  1.0095 -0.1349
  148SAPE   HN316269   2.080   6.021   6.476  0.3967 -0.3298 -0.7624
  148SAPE   C1216270   2.238   6.059   6.607  0.3103 -0.4506  0.1189
  148SAPE  H12A16271   2.242   6.056   6.718  0.3460  1.3088  0.1945
  148SAPE  H12B16272   2.201   6.162   6.589 -0.4266 -0.0440  3.4076
  148SAPE   C1116273   2.372   6.008   6.540  0.7016 -0.1363 -0.2170
  148SAPE  H11A16274   2.443   6.090   6.568 -2.6981  1.7599  4.1211
  148SAPE  H11B16275   2.374   6.009   6.429 -1.8797  0.0271 -0.3126
  148SAPE     P16276   2.545   5.825   6.618 -0.0067  0.0496  0.4105
  148SAPE   O1316277   2.546   5.684   6.563 -0.4149 -0.8011  0.1855
  148SAPE   O1416278   2.649   5.921   6.572  0.2492  0.4042  0.6436
  148SAPE   O1216279   2.395   5.875   6.586 -0.0911 -0.0654  1.3101
  148SAPE   O1116280   2.547   5.822   6.767  0.4428 -0.1903 -0.5375
  148SAPE    C116281   2.433   5.803   6.853 -0.5214 -0.1776 -0.1056
  148SAPE    HA16282   2.394   5.901   6.886 -1.4101 -0.3016 -0.7677
  148SAPE    HB16283   2.357   5.743   6.799  0.1136 -3.7983  2.6436
  148SAPE    C216284   2.472   5.710   6.975 -0.2835 -0.4350 -0.3407
  148SAPE    HS16285   2.384   5.647   7.001 -0.9431  0.5740 -0.0362
  148SAPE   O2116286   2.517   5.785   7.090  0.2174 -0.3360  0.4410
  148SAPE   C2116287   2.423   5.858   7.150 -0.1274 -0.2396 -0.4240
  148SAPE   O2216288   2.303   5.851   7.121  0.2724  0.5500 -1.2617
  148SAPE   C2216289   2.470   5.940   7.266  0.5231 -0.3649  0.6011
  148SAPE   H2R16290   2.415   5.916   7.359 -0.3506 -0.4293  0.0836
  148SAPE   H2S16291   2.578   5.928   7.287  1.4706  1.3050 -2.6644
  148SAPE    C316292   2.579   5.603   6.945  0.2923 -0.2679 -0.1510
  148SAPE    HX16293   2.673   5.663   6.952 -1.2653  2.4541 -0.9852
  148SAPE    HY16294   2.576   5.578   6.837 -2.9354  3.8944 -1.3218
  148SAPE   O3116295   2.573   5.494   7.041 -0.0805  0.4970  0.5684
  148SAPE   C3116296   2.619   5.381   7.012  0.6663 -0.1777  0.4616
  148SAPE   O3216297   2.687   5.356   6.911  0.5445  0.1513 -0.2656
  148SAPE   C3216298   2.587   5.288   7.131  0.6948 -0.2399  0.5613
  148SAPE   H2X16299   2.478   5.296   7.149  0.9407  0.9573  1.6565
  148SAPE   H2Y16300   2.638   5.339   7.216  1.6971  1.4323 -0.9928
  148SAPE   C2316301   2.458   6.091   7.239 -0.2424  0.0321  0.3015
  148SAPE   H3R16302   2.357   6.104   7.194 -1.1907 -0.6228  2.1181
  148SAPE   H3S16303   2.536   6.120   7.165 -0.0240 -0.5238  0.3135
  148SAPE   C2416304   2.447   6.172   7.370 -0.1879 -0.6532  0.5229
  148SAPE   H4R16305   2.349   6.143   7.413 -1.2105  1.3504 -0.3107
  148SAPE   H4S16306   2.422   6.277   7.345 -4.4029 -1.3594  0.9768
  148SAPE   C2516307   2.569   6.145   7.452  0.1230  0.1469 -0.7603
  148SAPE   H5R16308   2.666   6.138   7.400 -0.2634 -3.3835 -1.2107
  148SAPE   C2616309   2.574   6.109   7.580  0.2208 -0.0325 -0.0382
  148SAPE   H6R16310   2.671   6.092   7.629  0.2339 -0.2499 -0.1364
  148SAPE   C2716311   2.459   6.103   7.670  1.0186 -0.5420 -0.6193
  148SAPE   H7R16312   2.375   6.151   7.616  2.3709  0.0069 -2.3325
  148SAPE   H7S16313   2.481   6.157   7.764  1.0978  1.6387 -1.8374
  148SAPE   C2816314   2.428   5.955   7.691 -0.5968 -0.4992 -0.2256
  148SAPE   H8R16315   2.342   5.918   7.633  0.3525 -2.4004 -0.5003
  148SAPE   C2916316   2.494   5.872   7.766 -0.0680  0.4580  0.3558
  148SAPE   H9R16317   2.455   5.770   7.780 -0.6732  0.5330 -0.6927
  148SAPE  C21016318   2.614   5.916   7.853  0.1291 -0.0308 -0.0468
  148SAPE  H10R16319   2.643   6.022   7.866  2.1630 -0.6925  1.2116
  148SAPE  H10S16320   2.704   5.869   7.808  1.0920  0.1853  1.5953
  148SAPE  C21116321   2.598   5.838   7.986 -0.2075  0.3197 -0.0642
  148SAPE  H11R16322   2.540   5.745   7.976 -0.4426  0.2187  1.9429
  148SAPE  C21216323   2.639   5.863   8.107  0.0003 -0.4819 -0.1029
  148SAPE  H12R16324   2.599   5.802   8.189 -0.1801 -0.9338 -0.5188
  148SAPE  C21316325   2.709   5.996   8.148  0.3900 -0.3246 -0.2479
  148SAPE  H13R16326   2.784   6.029   8.073  0.2108 -0.3033 -0.4166
  148SAPE  H13S16327   2.776   5.966   8.232  3.0570  1.5818 -1.5147
  148SAPE  C21416328   2.613   6.112   8.170 -0.4187 -0.4812  0.8133
  148SAPE  H14R16329   2.550   6.140   8.084 -1.9935  0.7162  2.3011
  148SAPE  C21516330   2.608   6.193   8.276 -0.3237 -0.0538 -0.3607
  148SAPE  H15R16331   2.534   6.274   8.267 -0.8619 -0.4953 -0.0039
  148SAPE  C21616332   2.690   6.165   8.399 -0.2253 -0.7091  0.0809
  148SAPE  H16R16333   2.782   6.225   8.384  0.0190 -0.5640  1.9031
  148SAPE  H16S16334   2.724   6.060   8.413  2.2274 -0.0415 -0.2905
  148SAPE  C21716335   2.628   6.196   8.533 -1.1937  0.0140  0.0176
  148SAPE  H17R16336   2.559   6.283   8.526 -1.1053  0.1587  0.7883
  148SAPE  H17S16337   2.702   6.229   8.610  0.4672  1.4542 -2.0951
  148SAPE  C21816338   2.560   6.069   8.582  0.1721  0.2240 -0.3952
  148SAPE  H18R16339   2.511   6.018   8.496 -1.0386  0.8840 -0.1251
  148SAPE  H18S16340   2.493   6.108   8.662 -0.4299  1.4241 -1.4524
  148SAPE  C21916341   2.646   5.970   8.662 -0.0273  0.2453  1.1578
  148SAPE  H19R16342   2.642   6.008   8.767 -2.7829 -1.3338  1.7353
  148SAPE  H19S16343   2.753   5.971   8.633  0.4243 -1.6343  2.5305
  148SAPE  C22016344   2.587   5.831   8.668  0.0068 -0.1792  0.3583
  148SAPE  H20R16345   2.486   5.820   8.714  0.1649 -2.4317  0.2702
  148SAPE  H20S16346   2.653   5.771   8.733  0.5916  0.7103  0.5980
  148SAPE  H20T16347   2.586   5.791   8.564  0.2762  1.0529 -0.1324
  148SAPE   C3316348   2.656   5.153   7.127 -0.0870 -0.0361 -0.1520
  148SAPE   H3X16349   2.758   5.157   7.084 -0.2463  0.0667 -0.5306
  148SAPE   H3Y16350   2.608   5.084   7.053 -0.1143 -1.1637  0.8910
  148SAPE   C3416351   2.673   5.101   7.271 -0.5200 -0.3109  0.0985
  148SAPE   H4X16352   2.723   5.185   7.325  1.1600 -0.8697 -0.5286
  148SAPE   H4Y16353   2.748   5.019   7.259  2.6618  2.2282  1.1553
  148SAPE   C3516354   2.545   5.057   7.329  0.7533 -0.8817 -0.0889
  148SAPE   H5X16355   2.509   4.974   7.264  1.3748 -0.0035 -1.6308
  148SAPE   H5Y16356   2.475   5.144   7.325  0.2168 -1.3358 -1.7248
  148SAPE   C3616357   2.560   5.015   7.474  0.1057  0.0470  0.5475
  148SAPE   H6X16358   2.639   4.937   7.468 -2.3004 -2.4830 -1.1544
  148SAPE   H6Y16359   2.470   4.958   7.505  0.1244  0.7186  1.9059
  148SAPE   C3716360   2.583   5.114   7.590 -0.1634  0.2777  0.2214
  148SAPE   H7X16361   2.520   5.204   7.580 -2.1182 -0.9128  1.1212
  148SAPE   H7Y16362   2.686   5.154   7.584 -0.4568  1.0175  0.1301
  148SAPE   C3816363   2.566   5.042   7.730  0.5996 -0.7411  0.0033
  148SAPE   H8X16364   2.625   4.948   7.727  0.0464 -1.0676 -1.1991
  148SAPE   H8Y16365   2.460   5.020   7.755 -0.0948  1.2018 -1.0429
  148SAPE   C3916366   2.600   5.127   7.852 -0.3496  0.7549  0.2514
  148SAPE   H9X16367   2.692   5.184   7.825  0.2314  0.4961  1.6072
  148SAPE   H9Y16368   2.625   5.077   7.948  0.0154 -3.2907 -1.7650
  148SAPE  C31016369   2.489   5.229   7.874  0.3385  0.1808 -0.3558
  148SAPE  H10X16370   2.425   5.174   7.947 -0.9377  2.8694  0.7111
  148SAPE  H10Y16371   2.446   5.246   7.773 -2.1154 -0.4710  0.5097
  148SAPE  C31116372   2.520   5.371   7.933 -0.6489  0.0802  0.4651
  148SAPE  H11X16373   2.438   5.445   7.918  0.2421  0.9281 -0.3978
  148SAPE  H11Y16374   2.608   5.408   7.877  1.2904 -1.4562  2.3400
  148SAPE  C31216375   2.569   5.363   8.079 -0.4577  0.1965 -1.2642
  148SAPE  H12X16376   2.647   5.284   8.086  0.0738  0.8321  0.9317
  148SAPE  H12Y16377   2.489   5.315   8.141  1.8473 -1.0919  0.8937
  148SAPE  C31316378   2.610   5.495   8.149 -0.5784  0.1536  0.3587
  148SAPE  H13X16379   2.526   5.568   8.145 -0.8694 -0.1504  0.7801
  148SAPE  H13Y16380   2.703   5.535   8.104 -0.1077 -0.3749  0.8397
  148SAPE  C31416381   2.636   5.476   8.301 -0.3818 -0.0651 -0.0323
  148SAPE  H14X16382   2.651   5.581   8.332 -3.1440  0.7757 -1.2810
  148SAPE  H14Y16383   2.729   5.415   8.303 -0.9393 -1.1440 -2.4649
  148SAPE  C31516384   2.523   5.414   8.388  1.0987  0.0053  0.0250
  148SAPE  H15X16385   2.478   5.318   8.354  1.3645  0.3593 -1.3885
  148SAPE  H15Y16386   2.438   5.484   8.378 -0.0660 -1.5333 -1.3975
  148SAPE  C31616387   2.568   5.395   8.535  0.0345 -0.1048  0.4830
  148SAPE  H16X16388   2.613   5.483   8.586 -1.0394 -0.1682  1.5916
  148SAPE  H16Y16389   2.650   5.321   8.526 -0.9045 -0.9613 -1.8161
  148SAPE  C31716390   2.454   5.332   8.616  0.2878 -0.6465 -0.2629
  148SAPE  H17X16391   2.417   5.237   8.572  0.2679  0.8548 -3.8026
  148SAPE  H17Y16392   2.377   5.413   8.623  1.1223  0.1015  0.4817
  148SAPE  C31816393   2.488   5.308   8.763 -0.0158 -0.0771 -0.1537
  148SAPE  H18X16394   2.577   5.367   8.793 -0.3498  0.1478  0.3980
  148SAPE  H18Y16395   2.509   5.202   8.789 -0.1412  0.0320  0.3913
  148SAPE  H18Z16396   2.404   5.346   8.823 -0.6998 -0.6868 -0.7096
  149SAPE     N16397   5.386   0.244   6.347  0.1692 -0.2235 -0.3961
  149SAPE   HN116398   5.375   0.315   6.272  0.5129 -1.4145 -1.6136
  149SAPE   HN216399   5.292   0.211   6.376 -0.0586 -0.0761 -0.9562
  149SAPE   HN316400   5.435   0.296   6.422 -1.0288  0.8250 -0.3098
  149SAPE   C1216401   5.459   0.124   6.305 -0.2559  0.0145 -0.0355
  149SAPE  H12A16402   5.563   0.161   6.288 -0.5498  0.5075 -0.7610
  149SAPE  H12B16403   5.416   0.085   6.211 -2.0521  4.2809 -1.2128
  149SAPE   C1116404   5.481   0.029   6.424 -0.2804 -0.6802  0.5283
  149SAPE  H11A16405   5.534  -0.060   6.385  3.2309  1.2839  0.4264
  149SAPE  H11B16406   5.377   0.001   6.452 -1.9251  2.0120 -2.1701
  149SAPE     P16407   5.544   0.023   6.669  0.3195 -0.1123 -0.1473
  149SAPE   O1316408   5.421  -0.056   6.694 -0.7210  0.5551 -0.1641
  149SAPE   O1416409   5.675  -0.044   6.677  0.2245  0.6968  0.2098
  149SAPE   O1216410   5.544   0.099   6.534  0.2924 -0.1961  0.0830
  149SAPE   O1116411   5.550   0.149   6.773  0.0920 -0.8015  0.1272
  149SAPE    C116412   5.440   0.244   6.775 -0.1519  0.1522 -0.5914
  149SAPE    HA16413   5.408   0.270   6.671 -1.4818 -2.5558 -0.9414
  149SAPE    HB16414   5.364   0.195   6.839  0.2482  0.5286  0.1846
  149SAPE    C216415   5.488   0.371   6.856  0.3696 -0.5221 -0.1943
  149SAPE    HS16416   5.577   0.417   6.807 -0.2982  0.4349 -0.5408
  149SAPE   O2116417   5.507   0.330   6.995  0.4028 -0.9733 -0.0171
  149SAPE   C2116418   5.624   0.367   7.039  0.2727  0.7723 -0.1189
  149SAPE   O2216419   5.697   0.448   6.986  0.1754  0.6491 -0.0292
  149SAPE   C2216420   5.661   0.294   7.166  0.2002 -0.5496  0.2964
  149SAPE   H2R16421   5.583   0.310   7.244  1.0630 -0.2804  1.1212
  149SAPE   H2S16422   5.662   0.185   7.146 -2.5917 -0.6583  0.3503
  149SAPE    C316423   5.380   0.488   6.850 -0.8190 -0.6082 -0.0324
  149SAPE    HX16424   5.279   0.452   6.879 -0.7623  0.3348  1.4389
  149SAPE    HY16425   5.362   0.523   6.746  0.3733 -1.6518 -0.6121
  149SAPE   O3116426   5.399   0.602   6.940 -0.0736  0.2232  0.1997
  149SAPE   C3116427   5.494   0.686   6.906 -0.0900 -0.0493 -0.4729
  149SAPE   O3216428   5.570   0.686   6.812  0.6302  0.6626 -0.4482
  149SAPE   C3216429   5.489   0.801   7.008  0.2634  0.0933  0.0306
  149SAPE   H2X16430   5.385   0.797   7.047  0.2071 -2.2436 -0.2170
  149SAPE   H2Y16431   5.493   0.897   6.951 -1.0234 -0.9019 -1.8718
  149SAPE   C2316432   5.803   0.338   7.209 -0.1670 -0.1574 -0.2509
  149SAPE   H3R16433   5.798   0.445   7.236 -2.7048  0.2975 -2.0883
  149SAPE   H3S16434   5.880   0.341   7.129  1.3289 -0.0660  1.1534
  149SAPE   C2416435   5.856   0.265   7.332  0.5079  0.0815  0.0154
  149SAPE   H4R16436   5.901   0.165   7.312  2.2599  1.0219 -1.0108
  149SAPE   H4S16437   5.773   0.239   7.401  0.4488 -2.5872 -0.9502
  149SAPE   C2516438   5.958   0.349   7.412  0.4181  0.3012 -0.5854
  149SAPE   H5R16439   6.056   0.359   7.362  1.6495 -0.7653  1.4650
  149SAPE   C2616440   5.949   0.411   7.527 -0.2041  0.0180 -0.4354
  149SAPE   H6R16441   6.044   0.448   7.567  0.0491 -2.0390  1.0709
  149SAPE   C2716442   5.840   0.421   7.632  0.3416 -0.0431 -0.1367
  149SAPE   H7R16443   5.849   0.343   7.711 -0.7516  0.2697  0.3190
  149SAPE   H7S16444   5.743   0.395   7.585  0.3217  1.3191 -0.8895
  149SAPE   C2816445   5.821   0.564   7.682 -0.2282  0.1247 -0.1460
  149SAPE   H8R16446   5.803   0.630   7.596 -0.7496 -0.3414 -0.4052
  149SAPE   C2916447   5.821   0.610   7.808 -0.5190 -1.0903 -0.0855
  149SAPE   H9R16448   5.822   0.720   7.820 -5.2157 -0.7670 -0.8728
  149SAPE  C21016449   5.855   0.539   7.932  0.0581 -0.0564  0.5407
  149SAPE  H10R16450   5.915   0.610   7.994 -1.2238  0.3739  1.3229
  149SAPE  H10S16451   5.927   0.458   7.906  1.9079  1.8871 -0.6637
  149SAPE  C21116452   5.728   0.486   7.991  0.0843 -0.0319  0.2246
  149SAPE  H11R16453   5.719   0.376   7.987 -1.8688  0.0712  0.9849
  149SAPE  C21216454   5.618   0.557   8.041 -0.2251  0.9791  0.0357
  149SAPE  H12R16455   5.538   0.489   8.075  0.2788 -0.9252 -2.2642
  149SAPE  C21316456   5.590   0.704   8.046 -0.9862  0.0002 -0.6189
  149SAPE  H13R16457   5.612   0.754   7.949  1.3817 -1.6108 -0.9864
  149SAPE  H13S16458   5.665   0.746   8.118  0.5137 -0.5879 -1.7821
  149SAPE  C21416459   5.451   0.718   8.101 -0.5637  0.0388  0.2337
  149SAPE  H14R16460   5.437   0.733   8.209 -0.6317 -0.5508  0.3128
  149SAPE  C21516461   5.345   0.708   8.023 -0.1101  0.1554  0.0597
  149SAPE  H15R16462   5.247   0.700   8.074 -0.2573 -1.4138 -0.4147
  149SAPE  C21616463   5.333   0.666   7.882 -0.6800  0.1677  0.1500
  149SAPE  H16R16464   5.238   0.608   7.887  0.9706 -2.7399 -0.4654
  149SAPE  H16S16465   5.421   0.601   7.865 -1.0120 -0.2106 -0.1734
  149SAPE  C21716466   5.313   0.778   7.776 -0.5109 -0.7813 -0.3276
  149SAPE  H17R16467   5.387   0.856   7.804 -0.1555 -1.6337  1.2438
  149SAPE  H17S16468   5.212   0.823   7.786 -0.1724  0.3003 -1.5569
  149SAPE  C21816469   5.327   0.714   7.636  0.5308  0.2471 -0.1394
  149SAPE  H18R16470   5.273   0.781   7.565 -0.8478  1.2049  1.7521
  149SAPE  H18S16471   5.276   0.615   7.639 -0.0948  0.5825  0.4884
  149SAPE  C21916472   5.471   0.687   7.596 -0.1461 -0.2290 -0.2948
  149SAPE  H19R16473   5.532   0.640   7.676  2.7748  0.2641 -2.0709
  149SAPE  H19S16474   5.499   0.791   7.568  0.4481 -0.5999 -1.1438
  149SAPE  C22016475   5.483   0.596   7.471 -0.6234  0.3876 -0.3549
  149SAPE  H20R16476   5.493   0.493   7.510 -1.3865  1.7457  3.8885
  149SAPE  H20S16477   5.571   0.622   7.408 -0.4331 -2.1080 -1.2053
  149SAPE  H20T16478   5.394   0.615   7.407 -1.3791  0.1620  0.6158
  149SAPE   C3316479   5.598   0.801   7.112  0.1987 -0.4903 -0.0162
  149SAPE   H3X16480   5.700   0.797   7.068  0.3955 -0.1604  0.4126
  149SAPE   H3Y16481   5.588   0.713   7.179 -1.3912 -1.7392 -1.7649
  149SAPE   C3416482   5.582   0.917   7.205  0.0199  0.1336  0.5059
  149SAPE   H4X16483   5.479   0.933   7.241 -1.4204 -0.0652 -3.1462
  149SAPE   H4Y16484   5.611   0.996   7.132 -1.5177  0.0667 -0.2119
  149SAPE   C3516485   5.659   0.892   7.334 -0.6055 -0.5101  0.0613
  149SAPE   H5X16486   5.766   0.906   7.308 -0.6640 -1.3138 -0.6337
  149SAPE   H5Y16487   5.637   0.795   7.383 -0.5442 -1.4395 -1.6688
  149SAPE   C3616488   5.638   1.006   7.436  0.2675  0.8105  0.2256
  149SAPE   H6X16489   5.531   1.005   7.467  0.1721  0.4834 -0.1010
  149SAPE   H6Y16490   5.662   1.102   7.387  0.1227  0.2061 -1.0577
  149SAPE   C3716491   5.716   0.985   7.568  0.5459  0.2287  0.6246
  149SAPE   H7X16492   5.820   1.011   7.537  0.3804 -0.4443 -0.5578
  149SAPE   H7Y16493   5.720   0.875   7.580 -2.3400  0.0469  0.6379
  149SAPE   C3816494   5.654   1.050   7.692  0.0722 -0.4919  0.1194
  149SAPE   H8X16495   5.554   1.004   7.705 -0.1414 -0.4094 -1.1245
  149SAPE   H8Y16496   5.634   1.158   7.672 -2.3299 -0.9412 -0.1420
  149SAPE   C3916497   5.740   1.035   7.816  0.1708  0.8747 -0.8653
  149SAPE   H9X16498   5.832   1.096   7.808  0.2240  1.0302  0.5880
  149SAPE   H9Y16499   5.767   0.929   7.832  0.7338  1.1528  0.1061
  149SAPE  C31016500   5.661   1.076   7.944  0.3391 -0.1791 -0.0103
  149SAPE  H10X16501   5.571   1.011   7.948  0.3822 -0.1785  1.4364
  149SAPE  H10Y16502   5.631   1.184   7.943  1.0647  0.0217 -0.5422
  149SAPE  C31116503   5.750   1.053   8.070  0.1245  0.0950  0.4024
  149SAPE  H11X16504   5.835   1.123   8.058  1.0429 -1.1620 -0.7405
  149SAPE  H11Y16505   5.782   0.948   8.054  1.6434  0.7524 -1.1857
  149SAPE  C31216506   5.662   1.083   8.195  0.1571 -0.1085 -0.5966
  149SAPE  H12X16507   5.614   0.986   8.222  0.4322 -0.5022 -1.5156
  149SAPE  H12Y16508   5.586   1.156   8.161 -2.1941 -2.8844 -1.7461
  149SAPE  C31316509   5.741   1.139   8.315  0.3120 -0.0075  0.8969
  149SAPE  H13X16510   5.776   1.241   8.288 -0.3782 -0.2942 -1.2692
  149SAPE  H13Y16511   5.833   1.079   8.331  1.1882  1.2893  0.8261
  149SAPE  C31416512   5.659   1.146   8.445  0.4074 -0.1858 -0.1369
  149SAPE  H14X16513   5.633   1.040   8.466  0.8146 -0.3083 -0.2540
  149SAPE  H14Y16514   5.568   1.210   8.445  0.1394 -0.5243  1.2949
  149SAPE  C31516515   5.738   1.216   8.555  0.5971  0.0149 -0.7761
  149SAPE  H15X16516   5.790   1.308   8.519  1.1333 -0.0793 -0.2650
  149SAPE  H15Y16517   5.822   1.154   8.594 -0.8452 -0.8710  1.0336
  149SAPE  C31616518   5.655   1.241   8.684 -0.0147 -0.3816  0.5230
  149SAPE  H16X16519   5.562   1.183   8.702  0.1227 -1.3870 -1.7560
  149SAPE  H16Y16520   5.619   1.342   8.654 -3.1424 -1.7537 -0.7123
  149SAPE  C31716521   5.753   1.252   8.800  0.7050 -0.1442 -0.3699
  149SAPE  H17X16522   5.847   1.296   8.763  1.7359 -1.0269  1.0642
  149SAPE  H17Y16523   5.760   1.149   8.842 -0.4437  0.2725  0.9199
  149SAPE  C31816524   5.708   1.342   8.913  0.4788  0.3017  0.2273
  149SAPE  H18X16525   5.607   1.312   8.948 -0.3926  0.3518 -2.0359
  149SAPE  H18Y16526   5.685   1.442   8.868 -2.5974 -0.2664  0.3037
  149SAPE  H18Z16527   5.779   1.354   8.997  0.5499 -0.7371  0.3192
  150SAPE     N16528   6.403   0.957   6.345 -0.2031  0.4104  0.4603
  150SAPE   HN116529   6.425   0.998   6.252 -1.1163  1.9430  0.8848
  150SAPE   HN216530   6.471   0.878   6.349 -0.6419  0.0842  2.0533
  150SAPE   HN316531   6.308   0.915   6.354  0.0893 -0.1898  0.8259
  150SAPE   C1216532   6.422   1.056   6.461 -0.0127  0.0572 -0.3407
  150SAPE  H12A16533   6.386   1.006   6.554  0.0517 -2.0345 -1.3810
  150SAPE  H12B16534   6.361   1.146   6.441  2.0408  1.7381  0.6287
  150SAPE   C1116535   6.567   1.091   6.469 -0.7875 -0.1350  0.3531
  150SAPE  H11A16536   6.594   1.147   6.561  2.3171 -1.6077  0.4629
  150SAPE  H11B16537   6.579   1.168   6.391 -1.1250  1.2379  1.6088
  150SAPE     P16538   6.710   0.912   6.584 -0.2315 -0.1480 -0.6577
  150SAPE   O1316539   6.751   0.779   6.540 -0.0371 -0.3162 -0.6767
  150SAPE   O1416540   6.804   0.991   6.666 -0.2517  0.2013 -0.5513
  150SAPE   O1216541   6.665   0.991   6.459 -0.1533 -0.2400  0.0702
  150SAPE   O1116542   6.575   0.897   6.653 -0.2663 -0.1203  0.0395
  150SAPE    C116543   6.524   0.786   6.726 -0.4259  0.4903  0.1809
  150SAPE    HA16544   6.414   0.805   6.729 -0.0099  3.3656  0.9598
  150SAPE    HB16545   6.544   0.687   6.682 -2.8508 -1.2821  2.7250
  150SAPE    C216546   6.578   0.769   6.876 -0.3590 -0.0458 -0.1874
  150SAPE    HS16547   6.680   0.726   6.868 -0.0111 -0.2873  3.6634
  150SAPE   O2116548   6.490   0.674   6.949 -0.9765  0.9788  0.0519
  150SAPE   C2116549   6.548   0.596   7.034  0.6568  0.0800  0.1085
  150SAPE   O2216550   6.667   0.587   7.062  0.1888  0.9319  0.5186
  150SAPE   C2216551   6.433   0.516   7.100 -0.2668 -0.1751 -0.3621
  150SAPE   H2R16552   6.349   0.586   7.123 -2.5038 -3.8023  4.1365
  150SAPE   H2S16553   6.392   0.440   7.030 -3.1706 -0.5672  1.5599
  150SAPE    C316554   6.596   0.906   6.948  0.3210 -0.0943 -0.1150
  150SAPE    HX16555   6.502   0.960   6.922 -0.8069 -2.3070 -0.9095
  150SAPE    HY16556   6.680   0.953   6.891 -0.1069 -1.4077 -1.9341
  150SAPE   O3116557   6.618   0.910   7.089 -0.4242  0.6681  1.0835
  150SAPE   C3116558   6.516   0.907   7.177 -0.2504 -0.3701  0.7909
  150SAPE   O3216559   6.402   0.936   7.144 -0.0932 -0.5832  0.2517
  150SAPE   C3216560   6.585   0.854   7.309  0.4900  0.4586 -0.3633
  150SAPE   H2X16561   6.695   0.860   7.294  0.5441 -1.6386 -1.0790
  150SAPE   H2Y16562   6.566   0.745   7.308  2.4313  0.0364 -3.0503
  150SAPE   C2316563   6.474   0.445   7.229 -0.3376 -0.2065 -0.0697
  150SAPE   H3R16564   6.547   0.509   7.283  1.7049 -2.1463 -0.3992
  150SAPE   H3S16565   6.535   0.355   7.206 -0.8014 -0.3064 -0.9719
  150SAPE   C2416566   6.367   0.390   7.332 -0.6077 -0.2902  0.6522
  150SAPE   H4R16567   6.418   0.311   7.392  0.4727 -0.8524 -0.9520
  150SAPE   H4S16568   6.288   0.336   7.275 -0.9275  0.7281  0.1046
  150SAPE   C2516569   6.312   0.508   7.407  0.2856  0.2128 -0.0891
  150SAPE   H5R16570   6.277   0.586   7.337  1.3659 -1.1232 -2.2332
  150SAPE   C2616571   6.317   0.521   7.541 -0.4872  0.3959 -0.1592
  150SAPE   H6R16572   6.275   0.614   7.581  0.8900  0.2863  1.6937
  150SAPE   C2716573   6.374   0.428   7.644  0.2600  0.1329  0.5778
  150SAPE   H7R16574   6.461   0.484   7.684  1.2037  0.5676 -1.8709
  150SAPE   H7S16575   6.411   0.335   7.595 -0.4932  0.7354 -1.2547
  150SAPE   C2816576   6.274   0.398   7.755  0.3123 -0.3342 -0.1507
  150SAPE   H8R16577   6.223   0.303   7.733  0.9203 -0.9166  0.8741
  150SAPE   C2916578   6.243   0.482   7.859  0.7313  0.0029 -0.0654
  150SAPE   H9R16579   6.174   0.450   7.938  1.3250  3.1954  1.9344
  150SAPE  C21016580   6.299   0.624   7.883  0.1305  0.4077  0.1542
  150SAPE  H10R16581   6.221   0.701   7.902 -1.3733 -0.8695 -0.5981
  150SAPE  H10S16582   6.342   0.667   7.790  0.6920 -0.9342 -0.2315
  150SAPE  C21116583   6.393   0.621   8.005  0.0556  0.0214 -0.1631
  150SAPE  H11R16584   6.500   0.623   7.982  0.0711  1.8860 -0.0898
  150SAPE  C21216585   6.356   0.640   8.134 -0.0974  0.6015  0.4966
  150SAPE  H12R16586   6.434   0.622   8.209  0.6062 -0.0219 -0.3698
  150SAPE  C21316587   6.214   0.666   8.188  0.9045  0.7640  0.3030
  150SAPE  H13R16588   6.205   0.661   8.299 -0.4709  1.0949  0.2242
  150SAPE  H13S16589   6.138   0.591   8.159  0.7493  1.4180 -1.0795
  150SAPE  C21416590   6.154   0.802   8.156 -0.0698  0.8993 -0.4364
  150SAPE  H14R16591   6.207   0.867   8.085  0.0588  0.6056 -0.6125
  150SAPE  C21516592   6.029   0.830   8.198  0.3104  0.0612  0.7305
  150SAPE  H15R16593   5.987   0.929   8.179 -1.6874 -1.2837 -2.8738
  150SAPE  C21616594   5.934   0.743   8.282 -0.6153 -0.0474 -0.5646
  150SAPE  H16R16595   5.961   0.636   8.268  0.3411  0.3657 -2.1411
  150SAPE  H16S16596   5.832   0.747   8.239 -1.7960  1.2923  2.1279
  150SAPE  C21716597   5.936   0.778   8.436  0.0275 -0.0333 -0.0005
  150SAPE  H17R16598   5.928   0.889   8.434 -2.7256 -0.1634 -0.1801
  150SAPE  H17S16599   6.027   0.743   8.489 -1.0982  0.3198  2.3342
  150SAPE  C21816600   5.810   0.718   8.506  0.2135  0.1130 -0.0623
  150SAPE  H18R16601   5.801   0.610   8.486 -4.1701  0.1018  1.0599
  150SAPE  H18S16602   5.722   0.774   8.468  0.7640  0.8567 -0.2600
  150SAPE  C21916603   5.813   0.743   8.657 -0.5809  0.4879 -0.3829
  150SAPE  H19R16604   5.898   0.685   8.698  0.2593  1.3695 -0.8364
  150SAPE  H19S16605   5.722   0.693   8.697 -0.2779  0.3404  0.1381
  150SAPE  C22016606   5.830   0.889   8.698 -0.1336  0.3968  0.5329
  150SAPE  H20R16607   5.829   0.891   8.809 -1.5680 -0.8422  0.5634
  150SAPE  H20S16608   5.740   0.950   8.675 -0.7613  0.1805  2.2868
  150SAPE  H20T16609   5.923   0.945   8.672  0.5273  1.5826  4.7246
  150SAPE   C3316610   6.545   0.929   7.437  0.4416  0.3374  0.4271
  150SAPE   H3X16611   6.436   0.952   7.431 -0.9657 -5.2354 -1.3175
  150SAPE   H3Y16612   6.587   1.032   7.432 -2.0060  1.3641 -1.0200
  150SAPE   C3416613   6.579   0.866   7.571  0.2899 -0.3364  0.0041
  150SAPE   H4X16614   6.690   0.860   7.579  0.3289 -0.9156 -0.8728
  150SAPE   H4Y16615   6.547   0.760   7.564 -0.5774 -0.1569  0.9389
  150SAPE   C3516616   6.523   0.952   7.694 -0.8170 -0.4768  1.0673
  150SAPE   H5X16617   6.421   0.917   7.723 -0.7013 -0.9644  0.8824
  150SAPE   H5Y16618   6.525   1.060   7.668 -1.2337 -0.7248 -0.0813
  150SAPE   C3616619   6.614   0.927   7.811  0.1420 -0.0245 -0.3155
  150SAPE   H6X16620   6.719   0.933   7.775 -0.3547  1.3684 -1.6012
  150SAPE   H6Y16621   6.598   0.822   7.845 -0.7155  0.0179 -0.5744
  150SAPE   C3716622   6.586   1.016   7.938 -0.1672  0.4179  0.3727
  150SAPE   H7X16623   6.480   0.997   7.967 -0.1910  1.4591  1.0235
  150SAPE   H7Y16624   6.600   1.120   7.904  1.3793  0.1858  0.2318
  150SAPE   C3816625   6.678   1.001   8.061  0.5034  0.3696  0.1937
  150SAPE   H8X16626   6.771   1.040   8.016  0.3540  0.5170  0.0129
  150SAPE   H8Y16627   6.691   0.897   8.100 -1.9373  0.4743  1.5235
  150SAPE   C3916628   6.647   1.097   8.176  0.0777 -0.1901  0.3904
  150SAPE   H9X16629   6.738   1.081   8.238  1.6453  2.4525 -1.0533
  150SAPE   H9Y16630   6.555   1.057   8.224 -1.7925  1.2302 -1.8017
  150SAPE  C31016631   6.630   1.245   8.126 -0.0567  0.4545  0.3149
  150SAPE  H10X16632   6.538   1.264   8.067  0.1850 -0.1271 -0.2630
  150SAPE  H10Y16633   6.723   1.258   8.067  0.0536  1.9480  0.7798
  150SAPE  C31116634   6.618   1.351   8.241 -0.4102  0.1977 -0.4309
  150SAPE  H11X16635   6.716   1.346   8.295 -0.1051  3.2240 -0.5513
  150SAPE  H11Y16636   6.533   1.327   8.308 -1.0459 -0.3554 -1.4245
  150SAPE  C31216637   6.596   1.489   8.186 -0.3559  0.2928 -0.0728
  150SAPE  H12X16638   6.491   1.498   8.151 -1.3914 -0.2059  2.6926
  150SAPE  H12Y16639   6.665   1.508   8.101  3.0312 -1.4860  2.0638
  150SAPE  C31316640   6.605   1.588   8.300 -0.1751 -0.6788 -0.3249
  150SAPE  H13X16641   6.713   1.610   8.310 -0.3128  0.7135 -1.6041
  150SAPE  H13Y16642   6.554   1.549   8.391  1.7946 -0.2426  1.0314
  150SAPE  C31416643   6.546   1.720   8.263  0.2304 -0.5750 -0.0611
  150SAPE  H14X16644   6.444   1.704   8.223  0.2731  1.6393 -1.2305
  150SAPE  H14Y16645   6.597   1.766   8.175  0.1965  1.8019  1.0979
  150SAPE  C31516646   6.543   1.827   8.381  0.0385  0.3073  0.1321
  150SAPE  H15X16647   6.470   1.785   8.453  0.4660  1.0564  1.0177
  150SAPE  H15Y16648   6.505   1.922   8.336  1.6686  1.7887  1.7291
  150SAPE  C31616649   6.675   1.847   8.456 -0.3026  0.6488  0.1671
  150SAPE  H16X16650   6.761   1.861   8.387  0.0667 -1.5668  0.0940
  150SAPE  H16Y16651   6.700   1.762   8.523 -0.5795 -0.6077 -1.2732
  150SAPE  C31716652   6.684   1.986   8.537  0.4023  0.4085  0.1027
  150SAPE  H17X16653   6.791   1.980   8.567  0.4736  1.0619 -0.0068
  150SAPE  H17Y16654   6.627   1.979   8.633  0.0139 -0.5205 -0.1829
  150SAPE  C31816655   6.660   2.116   8.466  0.5149  0.2615  0.5840
  150SAPE  H18X16656   6.659   2.200   8.538  2.2499  1.3515 -0.6107
  150SAPE  H18Y16657   6.566   2.110   8.407  0.8042  0.4154  0.1083
  150SAPE  H18Z16658   6.743   2.136   8.396  0.5021 -2.8569 -0.4797
  151SAPE     N16659   2.573   0.294   6.515  0.0710  0.0179 -0.2818
  151SAPE   HN116660   2.567   0.206   6.570 -0.1637 -0.5706 -1.2266
  151SAPE   HN216661   2.510   0.302   6.433 -0.0487  1.1165 -0.0968
  151SAPE   HN316662   2.666   0.290   6.468  0.6703  0.9244  0.7854
  151SAPE   C1216663   2.581   0.410   6.616  1.2211 -0.0659 -0.6561
  151SAPE  H12A16664   2.650   0.366   6.692 -0.5640 -2.1087 -0.1231
  151SAPE  H12B16665   2.477   0.417   6.654  0.7403  2.5216 -2.2336
  151SAPE   C1116666   2.640   0.536   6.550 -0.1345  0.2099 -0.1617
  151SAPE  H11A16667   2.744   0.514   6.517 -0.6457  0.3333 -1.9847
  151SAPE  H11B16668   2.653   0.620   6.621  1.7847 -0.1773  0.0063
  151SAPE     P16669   2.516   0.719   6.406  0.6518 -0.2143 -0.0506
  151SAPE   O1316670   2.629   0.815   6.431 -0.7482  0.7503 -0.0965
  151SAPE   O1416671   2.448   0.719   6.274  0.2248  0.9118  0.4369
  151SAPE   O1216672   2.562   0.572   6.438 -0.4394 -0.5209  0.7237
  151SAPE   O1116673   2.405   0.740   6.515  0.2726 -0.5769  0.3557
  151SAPE    C116674   2.320   0.634   6.557  0.3196 -0.1240 -0.5163
  151SAPE    HA16675   2.217   0.640   6.517  1.7404  0.6871 -4.4592
  151SAPE    HB16676   2.351   0.533   6.522  0.1322 -0.9404  1.4978
  151SAPE    C216677   2.288   0.648   6.712 -0.2003 -0.1888  0.3030
  151SAPE    HS16678   2.267   0.755   6.729  2.0589  0.4726 -0.6878
  151SAPE   O2116679   2.399   0.608   6.789  0.9187 -0.1716 -0.1854
  151SAPE   C2116680   2.463   0.696   6.856 -0.2760  0.1428  0.4017
  151SAPE   O2216681   2.457   0.815   6.836 -0.6153  0.3811 -0.1605
  151SAPE   C2216682   2.569   0.616   6.938  0.5079 -0.5036  0.4631
  151SAPE   H2R16683   2.520   0.614   7.037  2.0178 -2.4820  1.2510
  151SAPE   H2S16684   2.560   0.509   6.909 -1.6833 -0.7328  1.7909
  151SAPE    C316685   2.156   0.570   6.751 -0.4870 -0.3396  1.0845
  151SAPE    HX16686   2.159   0.471   6.700  1.8639  0.9149 -1.4541
  151SAPE    HY16687   2.070   0.620   6.701 -0.4307 -2.3034 -1.1172
  151SAPE   O3116688   2.144   0.559   6.895 -0.0004  0.4777  0.4249
  151SAPE   C3116689   2.162   0.441   6.953 -0.5393 -0.6289 -0.5627
  151SAPE   O3216690   2.184   0.334   6.896 -0.2384 -0.6662 -0.4115
  151SAPE   C3216691   2.146   0.452   7.103 -0.4046  0.1793  0.5855
  151SAPE   H2X16692   2.036   0.458   7.120 -1.0649 -4.5572 -0.6802
  151SAPE   H2Y16693   2.206   0.538   7.140  0.4729 -1.1589  2.4216
  151SAPE   C2316694   2.711   0.673   6.930 -0.2854 -0.1584  0.0670
  151SAPE   H3R16695   2.743   0.706   6.828 -0.2484  0.9578  0.4252
  151SAPE   H3S16696   2.768   0.582   6.956 -3.5275 -2.5646 -0.6992
  151SAPE   C2416697   2.736   0.791   7.025 -0.0794  0.1619 -0.5417
  151SAPE   H4R16698   2.685   0.760   7.119 -1.1037 -1.7073 -1.6701
  151SAPE   H4S16699   2.680   0.882   6.996  1.7560  0.8511 -2.1419
  151SAPE   C2516700   2.880   0.844   7.049  0.1644  0.0029  0.4327
  151SAPE   H5R16701   2.947   0.840   6.962 -1.2338 -0.5575 -0.6571
  151SAPE   C2616702   2.927   0.885   7.172 -0.4455  0.0362 -0.0225
  151SAPE   H6R16703   3.032   0.915   7.175 -0.3867  0.0284 -1.4311
  151SAPE   C2716704   2.846   0.872   7.301 -0.0375 -0.8028 -0.0734
  151SAPE   H7R16705   2.782   0.781   7.305 -0.7581 -0.2670  1.2169
  151SAPE   H7S16706   2.768   0.951   7.295 -1.3201 -1.4835  4.2620
  151SAPE   C2816707   2.918   0.880   7.433  0.0808  0.3825  0.1585
  151SAPE   H8R16708   3.027   0.869   7.430  0.3352  1.5376  2.6116
  151SAPE   C2916709   2.864   0.878   7.557  0.3995  0.4780  0.2016
  151SAPE   H9R16710   2.927   0.885   7.647  0.1130 -0.5635  0.4965
  151SAPE  C21016711   2.716   0.863   7.585 -0.1471 -0.0917  0.9451
  151SAPE  H10R16712   2.696   0.755   7.602 -2.7892  0.1817  0.1227
  151SAPE  H10S16713   2.663   0.882   7.489  1.8280 -1.9272 -0.5907
  151SAPE  C21116714   2.651   0.952   7.692  0.4766 -0.6507 -0.3746
  151SAPE  H11R16715   2.615   1.053   7.664 -1.2665 -1.3707 -0.8541
  151SAPE  C21216716   2.658   0.929   7.821 -0.1982  0.4491 -0.2539
  151SAPE  H12R16717   2.625   1.009   7.889 -0.4694 -1.8530  2.5504
  151SAPE  C21316718   2.728   0.807   7.884 -0.2609  0.7409 -0.0406
  151SAPE  H13R16719   2.805   0.833   7.960 -1.9204  0.9788  1.6112
  151SAPE  H13S16720   2.781   0.755   7.801 -3.0658 -2.1650 -0.2060
  151SAPE  C21416721   2.647   0.690   7.940 -0.1161 -0.4736 -0.1952
  151SAPE  H14R16722   2.583   0.638   7.866 -0.4588  0.5080 -0.6073
  151SAPE  C21516723   2.662   0.629   8.053 -0.3772 -0.0878  0.2091
  151SAPE  H15R16724   2.606   0.537   8.075 -1.1566  0.1326 -0.7911
  151SAPE  C21616725   2.747   0.666   8.170 -0.1669  0.2896 -0.0023
  151SAPE  H16R16726   2.755   0.776   8.180  0.8838  0.4074 -1.7292
  151SAPE  H16S16727   2.846   0.615   8.164 -0.1427  0.0701  1.6510
  151SAPE  C21716728   2.677   0.610   8.289 -0.3291  0.2643 -0.3334
  151SAPE  H17R16729   2.683   0.499   8.295 -2.7747  0.1522  1.8708
  151SAPE  H17S16730   2.569   0.633   8.299  0.0312  1.8223  0.1627
  151SAPE  C21816731   2.729   0.669   8.418  0.4411  0.4443 -0.1705
  151SAPE  H18R16732   2.711   0.779   8.414  1.0410  0.5886  0.9171
  151SAPE  H18S16733   2.837   0.645   8.431  0.1321 -0.5509  0.6297
  151SAPE  C21916734   2.664   0.602   8.535  0.0683 -0.1314 -0.4450
  151SAPE  H19R16735   2.685   0.494   8.550 -1.1351 -0.3304 -0.0277
  151SAPE  H19S16736   2.554   0.611   8.524 -0.2434 -1.4099  1.1930
  151SAPE  C22016737   2.700   0.672   8.663  0.0655 -0.1603 -0.7782
  151SAPE  H20R16738   2.677   0.781   8.664 -1.7761 -0.5045 -1.9175
  151SAPE  H20S16739   2.639   0.627   8.744  2.4176 -1.8159  0.1911
  151SAPE  H20T16740   2.804   0.660   8.701  0.2390  0.8476 -0.8841
  151SAPE   C3316741   2.182   0.324   7.181 -0.7905 -0.0233  0.0786
  151SAPE   H3X16742   2.290   0.300   7.170 -1.0391 -0.9842 -0.2954
  151SAPE   H3Y16743   2.118   0.245   7.138  0.6117 -1.2436  0.1503
  151SAPE   C3416744   2.172   0.335   7.338  0.2535  0.2412  0.2240
  151SAPE   H4X16745   2.079   0.391   7.361  0.8902  1.0799  0.8103
  151SAPE   H4Y16746   2.261   0.392   7.374  1.2453 -1.7205  1.0156
  151SAPE   C3516747   2.179   0.201   7.418 -0.3543  0.2875  0.4803
  151SAPE   H5X16748   2.270   0.142   7.391 -1.4486 -1.6139  0.7749
  151SAPE   H5Y16749   2.099   0.128   7.395 -0.4905  0.3964  0.6031
  151SAPE   C3616750   2.173   0.232   7.569  0.0319 -0.5589  0.7309
  151SAPE   H6X16751   2.102   0.308   7.606  0.0550  0.0009 -0.3354
  151SAPE   H6Y16752   2.272   0.281   7.584 -0.7869  0.8229  1.8122
  151SAPE   C3716753   2.183   0.104   7.650  0.0597 -0.8490  0.4188
  151SAPE   H7X16754   2.118   0.032   7.596  0.2476  0.1425 -1.2072
  151SAPE   H7Y16755   2.145   0.117   7.753 -0.2352  0.8727  0.1370
  151SAPE   C3816756   2.337   0.077   7.659  0.0017  0.3601 -0.1604
  151SAPE   H8X16757   2.403   0.076   7.570 -1.7356 -1.1870 -1.4980
  151SAPE   H8Y16758   2.341  -0.023   7.707  0.0322  1.1261  1.5302
  151SAPE   C3916759   2.416   0.157   7.770  0.0902 -0.2636 -0.0929
  151SAPE   H9X16760   2.372   0.125   7.867  4.2276 -0.2837  1.9862
  151SAPE   H9Y16761   2.390   0.265   7.764  0.0002 -0.2280  0.7527
  151SAPE  C31016762   2.564   0.122   7.766 -0.1879  0.0245  1.1716
  151SAPE  H10X16763   2.597   0.153   7.664  0.1837 -0.1922  1.2238
  151SAPE  H10Y16764   2.575   0.012   7.779 -0.6585  0.1425  2.7126
  151SAPE  C31116765   2.642   0.201   7.870  0.2968  0.2439  0.1662
  151SAPE  H11X16766   2.632   0.309   7.848  1.6348  0.2373 -0.5712
  151SAPE  H11Y16767   2.750   0.175   7.864  0.3551  0.6794 -0.7393
  151SAPE  C31216768   2.598   0.173   8.017  0.4838  0.5054 -0.7534
  151SAPE  H12X16769   2.490   0.192   8.033  0.0837 -0.1030 -2.4796
  151SAPE  H12Y16770   2.648   0.245   8.085  0.0924  0.4028 -0.3552
  151SAPE  C31316771   2.655   0.036   8.067  0.3703 -0.1243  0.3872
  151SAPE  H13X16772   2.764   0.041   8.047  0.5617  2.9972  1.6623
  151SAPE  H13Y16773   2.592  -0.035   8.009 -0.3201  1.8786 -1.4668
  151SAPE  C31416774   2.625  -0.005   8.212  1.1310  0.1768  0.6858
  151SAPE  H14X16775   2.516  -0.015   8.228  0.9406  1.5771  0.3651
  151SAPE  H14Y16776   2.666   0.079   8.272 -0.8946  0.4751  1.7325
  151SAPE  C31516777   2.686  -0.138   8.251  0.2444 -0.6272  0.5867
  151SAPE  H15X16778   2.797  -0.136   8.251  0.3227 -2.5960  0.9267
  151SAPE  H15Y16779   2.667  -0.205   8.164  1.5365  0.6206 -0.6999
  151SAPE  C31616780   2.635  -0.189   8.383 -0.1703 -0.5502 -0.5655
  151SAPE  H16X16781   2.665  -0.296   8.377 -1.3851 -1.1965  2.7003
  151SAPE  H16Y16782   2.525  -0.180   8.394 -0.3041 -1.5691 -0.9663
  151SAPE  C31716783   2.701  -0.123   8.509  0.0702  0.6031  0.0580
  151SAPE  H17X16784   2.665  -0.019   8.520 -0.4523  0.5497 -1.0355
  151SAPE  H17Y16785   2.812  -0.114   8.497  0.0175 -0.2493 -1.2892
  151SAPE  C31816786   2.666  -0.206   8.631  0.8282  0.3800 -0.7306
  151SAPE  H18X16787   2.557  -0.204   8.651  1.0017  0.9297  0.2013
  151SAPE  H18Y16788   2.722  -0.180   8.723  1.4276  0.4347 -1.1062
  151SAPE  H18Z16789   2.699  -0.311   8.614  2.8335  0.8058  0.2682
  152SAPE     N16790   4.687   2.386   6.318 -0.2422 -0.4937 -0.3030
  152SAPE   HN116791   4.768   2.451   6.306  0.2474 -0.4444  2.5639
  152SAPE   HN216792   4.718   2.288   6.301 -0.1873 -0.2965 -1.3814
  152SAPE   HN316793   4.610   2.417   6.257  1.3057  3.3054 -0.6289
  152SAPE   C1216794   4.629   2.401   6.455 -0.5811 -0.2786 -0.6486
  152SAPE  H12A16795   4.716   2.392   6.524 -1.1972 -0.6114  0.1023
  152SAPE  H12B16796   4.576   2.303   6.462  1.3476 -1.3823 -0.6548
  152SAPE   C1116797   4.544   2.527   6.473  0.4762 -0.1931 -0.3648
  152SAPE  H11A16798   4.490   2.509   6.569  1.3127  3.2082  0.8781
  152SAPE  H11B16799   4.479   2.549   6.386  1.7777  4.6601 -0.4183
  152SAPE     P16800   4.588   2.792   6.477 -0.2789 -0.1607 -0.2850
  152SAPE   O1316801   4.697   2.890   6.504  0.0348 -0.4268 -0.5479
  152SAPE   O1416802   4.519   2.806   6.351 -0.4617  0.4790 -0.5232
  152SAPE   O1216803   4.636   2.641   6.487  0.4385  0.0490 -0.3400
  152SAPE   O1116804   4.480   2.800   6.597  0.3277 -0.2583 -0.7061
  152SAPE    C116805   4.527   2.782   6.735 -0.0343 -0.0821 -0.0695
  152SAPE    HA16806   4.437   2.747   6.790 -0.3129  0.1107 -0.3951
  152SAPE    HB16807   4.603   2.703   6.752 -0.5112 -0.4327  0.4851
  152SAPE    C216808   4.573   2.913   6.812  0.4924 -0.8085 -0.3850
  152SAPE    HS16809   4.665   2.944   6.758 -0.0164  0.9068 -0.3317
  152SAPE   O2116810   4.593   2.883   6.952  0.2018  0.1209  0.1754
  152SAPE   C2116811   4.725   2.889   6.988 -1.0261  1.6357  0.8323
  152SAPE   O2216812   4.818   2.919   6.917 -0.0015 -0.1649 -0.0190
  152SAPE   C2216813   4.743   2.835   7.126 -0.8755 -0.0814  0.1896
  152SAPE   H2R16814   4.843   2.877   7.153 -1.3843  2.0385 -1.0097
  152SAPE   H2S16815   4.670   2.896   7.184  0.3100  1.3320  0.2760
  152SAPE    C316816   4.458   3.017   6.785 -0.1817  0.2177 -0.7264
  152SAPE    HX16817   4.356   2.972   6.792  0.2755 -1.1347 -2.0468
  152SAPE    HY16818   4.455   3.055   6.681  1.7188 -1.9009 -1.6303
  152SAPE   O3116819   4.467   3.118   6.886 -0.1548 -0.2695 -0.2531
  152SAPE   C3116820   4.437   3.239   6.851 -0.1611  0.7121  0.2554
  152SAPE   O3216821   4.427   3.278   6.737 -0.2725 -0.8252  0.5301
  152SAPE   C3216822   4.402   3.318   6.975 -0.1227  0.0372 -0.2004
  152SAPE   H2X16823   4.453   3.282   7.066  0.7834  2.7716  0.4896
  152SAPE   H2Y16824   4.291   3.307   6.982 -0.3814  2.3683  0.3436
  152SAPE   C2316825   4.745   2.681   7.127 -0.9044  0.2656 -0.8544
  152SAPE   H3R16826   4.809   2.648   7.043  0.9432 -0.8336  0.9151
  152SAPE   H3S16827   4.642   2.641   7.114 -0.8665  0.6578 -2.5120
  152SAPE   C2416828   4.796   2.629   7.266  0.1816 -0.2066 -0.3303
  152SAPE   H4R16829   4.745   2.687   7.346 -0.3818  0.3093 -1.0501
  152SAPE   H4S16830   4.905   2.645   7.285  0.0111 -0.0766  0.5791
  152SAPE   C2516831   4.788   2.480   7.279 -0.0030  0.1915  0.0304
  152SAPE   H5R16832   4.795   2.419   7.188 -2.1294 -0.3832  0.1943
  152SAPE   C2616833   4.748   2.411   7.385 -0.2935  0.1063  0.3837
  152SAPE   H6R16834   4.729   2.304   7.369  0.7268 -0.0311  0.0140
  152SAPE   C2716835   4.699   2.461   7.519  1.0710  0.7425 -0.7204
  152SAPE   H7R16836   4.620   2.395   7.560 -0.6124  1.9295 -1.9383
  152SAPE   H7S16837   4.645   2.558   7.513 -0.2962 -0.0074 -0.9451
  152SAPE   C2816838   4.803   2.477   7.628 -0.0701  0.1779 -0.4273
  152SAPE   H8R16839   4.906   2.488   7.591  0.1079  1.7521  0.4543
  152SAPE   C2916840   4.777   2.479   7.761  1.3905 -0.4904  0.5457
  152SAPE   H9R16841   4.861   2.493   7.830  1.2629 -1.4389  0.9144
  152SAPE  C21016842   4.645   2.464   7.830 -0.4750 -0.9847  0.1729
  152SAPE  H10R16843   4.569   2.397   7.784  0.3344 -1.0732 -1.0848
  152SAPE  H10S16844   4.606   2.567   7.819  4.0982  0.9252 -0.3384
  152SAPE  C21116845   4.659   2.423   7.980  0.4205 -0.3387  0.7979
  152SAPE  H11R16846   4.757   2.375   7.995 -0.0132 -1.3644  0.4210
  152SAPE  C21216847   4.583   2.451   8.086  0.1745  0.4722 -0.9095
  152SAPE  H12R16848   4.612   2.406   8.182 -2.4312  3.2973  1.3957
  152SAPE  C21316849   4.456   2.532   8.081 -0.7103  0.8295 -0.1289
  152SAPE  H13R16850   4.379   2.468   8.127 -0.0726  0.1985  0.0794
  152SAPE  H13S16851   4.423   2.550   7.977 -1.0759 -1.0040 -0.3549
  152SAPE  C21416852   4.462   2.673   8.134 -0.6368 -0.2542  0.4974
  152SAPE  H14R16853   4.510   2.758   8.083  0.3226 -2.0261 -1.6685
  152SAPE  C21516854   4.411   2.703   8.253 -0.1818  0.5267  0.1163
  152SAPE  H15R16855   4.406   2.804   8.297 -0.6572 -0.0721  1.4962
  152SAPE  C21616856   4.338   2.612   8.348 -0.1452 -0.4486 -0.8413
  152SAPE  H16R16857   4.411   2.551   8.404  1.7497  2.6663  0.3702
  152SAPE  H16S16858   4.279   2.534   8.297  0.3097 -1.9748  0.9001
  152SAPE  C21716859   4.251   2.676   8.452  0.2388  0.1056 -0.5839
  152SAPE  H17R16860   4.205   2.599   8.517 -2.1862 -0.6902 -3.0820
  152SAPE  H17S16861   4.166   2.733   8.410  1.4271  1.5653 -1.0843
  152SAPE  C21816862   4.332   2.765   8.554  0.2175 -0.1550  0.2247
  152SAPE  H18R16863   4.398   2.840   8.507 -0.1356 -0.7214 -1.2360
  152SAPE  H18S16864   4.393   2.698   8.619 -0.8780 -0.8950  0.5335
  152SAPE  C21916865   4.235   2.823   8.666  0.2300 -0.3625 -0.0964
  152SAPE  H19R16866   4.175   2.737   8.703 -0.5850  0.2542  0.0475
  152SAPE  H19S16867   4.161   2.884   8.610 -0.5462 -0.1346  1.1603
  152SAPE  C22016868   4.309   2.906   8.778  0.2226 -0.1300 -0.0924
  152SAPE  H20R16869   4.374   2.836   8.835  0.1246 -2.1435 -2.2889
  152SAPE  H20S16870   4.243   2.971   8.839  0.2061  3.1947 -3.2648
  152SAPE  H20T16871   4.373   2.982   8.726 -1.0616 -1.1238 -3.4126
  152SAPE   C3316872   4.438   3.463   6.943 -0.2485  0.0425 -0.7929
  152SAPE   H3X16873   4.399   3.497   6.845  1.8789  0.4842 -1.5514
  152SAPE   H3Y16874   4.547   3.484   6.936 -0.5290  1.8288 -0.4554
  152SAPE   C3416875   4.386   3.549   7.066  0.5253 -0.1535  0.6260
  152SAPE   H4X16876   4.277   3.532   7.077  0.8100 -1.2137  2.3812
  152SAPE   H4Y16877   4.406   3.650   7.024  0.2574 -0.4098 -0.1300
  152SAPE   C3516878   4.467   3.540   7.190  0.0885  0.0567  0.5373
  152SAPE   H5X16879   4.569   3.583   7.181 -0.2653  0.5797 -1.5783
  152SAPE   H5Y16880   4.485   3.435   7.224 -1.8101 -0.8816 -1.1488
  152SAPE   C3616881   4.403   3.620   7.305 -0.1349  0.3878  0.1331
  152SAPE   H6X16882   4.296   3.597   7.319 -0.5538  0.2693 -2.6921
  152SAPE   H6Y16883   4.411   3.729   7.284 -0.7377  0.6627  1.2433
  152SAPE   C3716884   4.486   3.597   7.438  0.3964 -0.0367  0.4463
  152SAPE   H7X16885   4.574   3.664   7.429  0.4873 -0.4244 -2.3581
  152SAPE   H7Y16886   4.508   3.490   7.453 -2.3188 -1.2478 -2.7614
  152SAPE   C3816887   4.411   3.644   7.562 -0.8033  0.6882 -0.1775
  152SAPE   H8X16888   4.377   3.743   7.526 -1.2770 -0.2316 -2.4064
  152SAPE   H8Y16889   4.486   3.672   7.639 -0.4874  0.1663 -0.2812
  152SAPE   C3916890   4.301   3.554   7.622 -0.0448 -0.0861  1.1957
  152SAPE   H9X16891   4.329   3.447   7.611 -1.3026 -0.2138 -1.6555
  152SAPE   H9Y16892   4.213   3.576   7.557  0.4377  0.5921  0.7481
  152SAPE  C31016893   4.263   3.591   7.768 -0.1956  0.2805  0.0369
  152SAPE  H10X16894   4.235   3.698   7.765  1.7352  0.8483  0.7233
  152SAPE  H10Y16895   4.355   3.580   7.830  0.9227  2.0297 -1.2270
  152SAPE  C31116896   4.165   3.498   7.834 -0.0946 -0.5555 -0.4999
  152SAPE  H11X16897   4.202   3.393   7.840  3.0148  0.4238 -0.7599
  152SAPE  H11Y16898   4.081   3.499   7.761 -0.8814 -1.9321  0.3436
  152SAPE  C31216899   4.098   3.559   7.963  0.8587  0.1367 -0.0748
  152SAPE  H12X16900   4.013   3.492   7.991  0.9911  0.1451  0.3560
  152SAPE  H12Y16901   4.044   3.655   7.947  0.5738  0.0070  0.0834
  152SAPE  C31316902   4.183   3.561   8.089  0.1418  0.8867 -0.1761
  152SAPE  H13X16903   4.282   3.599   8.057  1.0079 -0.5132  0.6885
  152SAPE  H13Y16904   4.201   3.458   8.128 -0.7356  0.8817  0.2452
  152SAPE  C31416905   4.126   3.656   8.192  0.0423  0.2149  0.6693
  152SAPE  H14X16906   4.019   3.638   8.216 -0.7523  2.8617 -0.5159
  152SAPE  H14Y16907   4.130   3.756   8.142 -0.5987 -0.1282 -0.0738
  152SAPE  C31516908   4.207   3.633   8.313 -0.1211  0.1965 -0.1350
  152SAPE  H15X16909   4.315   3.641   8.291 -0.1439 -0.5270 -0.5441
  152SAPE  H15Y16910   4.194   3.529   8.350  2.4280 -0.2918 -0.4512
  152SAPE  C31616911   4.171   3.727   8.419  0.2493 -0.6258 -0.4031
  152SAPE  H16X16912   4.064   3.726   8.449  0.4697  0.0326  0.4653
  152SAPE  H16Y16913   4.187   3.826   8.372 -2.7124  0.5519  0.8031
  152SAPE  C31716914   4.249   3.728   8.550  0.3310 -0.0366 -0.0593
  152SAPE  H17X16915   4.207   3.809   8.614  0.7979 -0.0406  0.2649
  152SAPE  H17Y16916   4.355   3.750   8.525  0.3621  0.0132  0.1135
  152SAPE  C31816917   4.248   3.603   8.636 -0.1427 -0.4593 -0.2996
  152SAPE  H18X16918   4.292   3.518   8.581  0.5518 -0.7882  0.7323
  152SAPE  H18Y16919   4.143   3.572   8.659 -1.3432  3.0117 -0.5084
  152SAPE  H18Z16920   4.300   3.614   8.734  0.1899 -2.2339 -0.2438
  153SAPE     N16921   0.301   1.708   6.404  0.3326  0.2344 -0.1796
  153SAPE   HN116922   0.334   1.708   6.503 -2.5598 -0.7706  0.8979
  153SAPE   HN216923   0.211   1.657   6.401 -0.2570  1.2337  0.1657
  153SAPE   HN316924   0.369   1.658   6.344  2.0485  1.2831  0.7868
  153SAPE   C1216925   0.292   1.855   6.365  0.0074 -0.0377  0.0899
  153SAPE  H12A16926   0.219   1.902   6.435  0.1868 -2.2587  1.9248
  153SAPE  H12B16927   0.267   1.860   6.257  4.5115 -2.3531 -1.2838
  153SAPE   C1116928   0.439   1.919   6.383  0.6047 -0.0465  0.4799
  153SAPE  H11A16929   0.468   1.927   6.490 -0.2231  1.0998  0.6262
  153SAPE  H11B16930   0.429   2.025   6.354  1.0949 -0.1208  0.0212
  153SAPE     P16931   0.635   1.754   6.319  0.0624  0.0227  0.3718
  153SAPE   O1316932   0.550   1.635   6.308  0.5962  0.5560 -0.5092
  153SAPE   O1416933   0.757   1.761   6.235  0.1403 -0.0017 -0.3562
  153SAPE   O1216934   0.535   1.870   6.284  0.0552 -0.2043 -0.0192
  153SAPE   O1116935   0.674   1.784   6.469  0.1337  0.1498  0.1019
  153SAPE    C116936   0.780   1.880   6.495  0.3772 -0.6983 -0.8369
  153SAPE    HA16937   0.881   1.849   6.459  1.4424 -0.3744  1.5938
  153SAPE    HB16938   0.740   1.975   6.455  0.1825 -0.1226  0.6358
  153SAPE    C216939   0.787   1.892   6.647 -1.2415  1.2058  1.0477
  153SAPE    HS16940   0.683   1.905   6.685 -2.4718 -2.5167 -0.6439
  153SAPE   O2116941   0.873   2.003   6.695  0.2271  0.2046  0.3075
  153SAPE   C2116942   0.821   2.124   6.690 -0.1298  0.9132  0.0764
  153SAPE   O2216943   0.708   2.149   6.648  0.1788  0.2351  0.3574
  153SAPE   C2216944   0.915   2.227   6.751  0.2892  0.9839  0.5504
  153SAPE   H2R16945   1.022   2.205   6.729 -0.4262 -1.7346 -0.5604
  153SAPE   H2S16946   0.891   2.328   6.711 -0.0836  1.2307  1.3668
  153SAPE    C316947   0.853   1.760   6.695  0.0821  0.6638 -0.2428
  153SAPE    HX16948   0.953   1.770   6.650  0.1666  1.2029  0.0581
  153SAPE    HY16949   0.797   1.675   6.651  1.1918  1.4515 -3.4396
  153SAPE   O3116950   0.875   1.749   6.838 -0.1698 -0.1697  0.2175
  153SAPE   C3116951   0.761   1.717   6.894  0.3239  0.0287  0.1668
  153SAPE   O3216952   0.654   1.714   6.836 -0.0929  0.6829 -0.2498
  153SAPE   C3216953   0.765   1.688   7.041 -0.0316 -0.6731 -0.3776
  153SAPE   H2X16954   0.830   1.599   7.058 -2.0192 -2.1951 -0.3588
  153SAPE   H2Y16955   0.664   1.649   7.069  0.2956 -0.6003  0.9770
  153SAPE   C2316956   0.898   2.226   6.907  0.2021 -0.7304 -0.6964
  153SAPE   H3R16957   0.925   2.126   6.946  3.0072 -0.1889 -1.0377
  153SAPE   H3S16958   0.794   2.253   6.934  0.4919 -0.5040  0.2329
  153SAPE   C2416959   0.979   2.340   6.966  0.7221 -0.7892 -0.0282
  153SAPE   H4R16960   0.944   2.357   7.070  1.3490 -1.8075  0.3550
  153SAPE   H4S16961   0.954   2.440   6.922  0.5236 -0.9532 -0.2937
  153SAPE   C2516962   1.124   2.316   6.965  0.5716 -0.1029  0.2780
  153SAPE   H5R16963   1.176   2.355   6.876 -3.2417  0.1087 -2.0885
  153SAPE   C2616964   1.192   2.249   7.054  0.2369 -0.1062 -0.3374
  153SAPE   H6R16965   1.302   2.252   7.050  0.2013  0.5389 -1.2326
  153SAPE   C2716966   1.139   2.203   7.186 -0.2350 -0.0528  0.0591
  153SAPE   H7R16967   1.186   2.114   7.234  0.1406  0.0454 -0.1154
  153SAPE   H7S16968   1.035   2.168   7.175 -0.1193 -0.2102 -0.5994
  153SAPE   C2816969   1.139   2.318   7.288 -0.5316  0.1509  0.5476
  153SAPE   H8R16970   1.160   2.418   7.247  1.6396 -0.8217 -0.8706
  153SAPE   C2916971   1.129   2.298   7.422  0.3919  0.3341 -0.3683
  153SAPE   H9R16972   1.129   2.392   7.480 -0.4394 -0.7558  1.5011
  153SAPE  C21016973   1.111   2.171   7.501  0.0767  0.6183 -0.9544
  153SAPE  H10R16974   1.089   2.077   7.447 -1.4490 -0.9744  2.1904
  153SAPE  H10S16975   1.018   2.194   7.558  1.0053  0.3928  0.7284
  153SAPE  C21116976   1.241   2.170   7.569 -0.1584  0.9392 -0.6107
  153SAPE  H11R16977   1.329   2.146   7.509 -0.2887  1.4032 -0.9957
  153SAPE  C21216978   1.270   2.178   7.698  0.7270 -0.2708  0.0200
  153SAPE  H12R16979   1.376   2.172   7.727  1.0323 -1.1878 -1.2051
  153SAPE  C21316980   1.170   2.191   7.806 -0.4715  0.5464 -0.0340
  153SAPE  H13R16981   1.198   2.130   7.895  0.3575  0.4144 -0.3751
  153SAPE  H13S16982   1.074   2.154   7.765 -1.3521  1.8005  0.8102
  153SAPE  C21416983   1.146   2.326   7.860  0.0072 -0.3564 -0.0521
  153SAPE  H14R16984   1.099   2.403   7.797  1.3809  0.6726  0.1092
  153SAPE  C21516985   1.189   2.371   7.981 -0.7932 -0.4374  0.5015
  153SAPE  H15R16986   1.153   2.470   8.010  1.3668  0.7201 -0.5027
  153SAPE  C21616987   1.268   2.302   8.088 -0.3417 -0.4798 -0.5406
  153SAPE  H16R16988   1.317   2.208   8.054  0.4539  0.0772 -0.9723
  153SAPE  H16S16989   1.199   2.278   8.171 -3.0946 -0.4080 -2.6525
  153SAPE  C21716990   1.389   2.380   8.140 -0.5387  0.2712  0.5412
  153SAPE  H17R16991   1.422   2.328   8.232  1.2879 -0.6279 -0.5715
  153SAPE  H17S16992   1.352   2.482   8.165 -0.3870  1.1474 -2.4361
  153SAPE  C21816993   1.510   2.378   8.043 -0.2378 -0.4753  0.2710
  153SAPE  H18R16994   1.501   2.456   7.965  0.1872 -0.7129 -0.0178
  153SAPE  H18S16995   1.503   2.282   7.987  1.3307  1.0127 -2.6712
  153SAPE  C21916996   1.647   2.382   8.107  0.7427  0.0304  0.5216
  153SAPE  H19R16997   1.676   2.477   8.155  0.9856  0.6518 -0.8068
  153SAPE  H19S16998   1.721   2.384   8.024  1.0050  1.5623  0.7677
  153SAPE  C22016999   1.671   2.273   8.210 -0.3032  0.1296 -0.6446
  153SAPE  H20R17000   1.774   2.254   8.247 -0.6467  2.5707  1.8911
  153SAPE  H20S17001   1.631   2.176   8.172 -4.1055  1.1338  0.3586
  153SAPE  H20T17002   1.613   2.302   8.300  0.9377 -0.7460  0.4809
  153SAPE   C3317003   0.816   1.802   7.129 -0.8655  0.3469 -0.1724
  153SAPE   H3X17004   0.763   1.895   7.099 -0.9974 -0.5137 -2.7956
  153SAPE   H3Y17005   0.923   1.821   7.106 -1.5651  2.8066 -1.7033
  153SAPE   C3417006   0.790   1.768   7.279 -1.0052 -0.7870 -0.0434
  153SAPE   H4X17007   0.833   1.673   7.317  0.9350  0.0563 -0.0277
  153SAPE   H4Y17008   0.680   1.761   7.294 -1.4489 -0.3879 -2.7531
  153SAPE   C3517009   0.845   1.878   7.374  0.8816 -0.6837  0.0631
  153SAPE   H5X17010   0.813   1.977   7.336 -0.0060 -1.0970 -0.2867
  153SAPE   H5Y17011   0.955   1.862   7.373  0.9048 -0.5299 -0.6914
  153SAPE   C3617012   0.785   1.859   7.517  0.3469  0.0335  0.6687
  153SAPE   H6X17013   0.797   1.753   7.546  1.9934 -0.4129 -1.4499
  153SAPE   H6Y17014   0.675   1.873   7.507  0.3438 -0.9145 -0.8857
  153SAPE   C3717015   0.855   1.941   7.633  0.4951  0.3833  0.3924
  153SAPE   H7X17016   0.849   2.050   7.611 -1.8602  0.7069  2.3012
  153SAPE   H7Y17017   0.965   1.927   7.634  0.4579  0.0228 -0.1194
  153SAPE   C3817018   0.807   1.914   7.776  0.5827  0.2227 -0.1441
  153SAPE   H8X17019   0.800   1.806   7.801  1.2280  0.2949  0.3729
  153SAPE   H8Y17020   0.699   1.940   7.776 -0.5122 -3.2343 -3.6687
  153SAPE   C3917021   0.864   1.997   7.884  0.3354 -0.9054 -0.6972
  153SAPE   H9X17022   0.855   2.101   7.846  1.1330 -0.8949 -0.8913
  153SAPE   H9Y17023   0.972   1.973   7.895 -0.0329 -3.2728 -1.5242
  153SAPE  C31017024   0.788   1.984   8.017 -0.1689  0.3576 -0.0806
  153SAPE  H10X17025   0.782   1.885   8.067 -2.1169  0.3020 -0.3368
  153SAPE  H10Y17026   0.679   1.994   7.997 -0.0937 -1.7152 -1.8723
  153SAPE  C31117027   0.854   2.078   8.123  0.4543  0.1038  0.5234
  153SAPE  H11X17028   0.836   2.186   8.103  0.2504 -0.1377 -0.6848
  153SAPE  H11Y17029   0.962   2.059   8.107 -0.1254 -1.7811 -1.7585
  153SAPE  C31217030   0.809   2.036   8.267  0.1524  0.4914  0.0283
  153SAPE  H12X17031   0.817   1.926   8.282 -1.1076  0.5905  1.8478
  153SAPE  H12Y17032   0.703   2.066   8.283 -0.1326 -0.8910  0.9567
  153SAPE  C31317033   0.879   2.119   8.375 -0.0639 -0.0184 -0.7493
  153SAPE  H13X17034   0.818   2.119   8.468  1.0466 -1.1305  0.0152
  153SAPE  H13Y17035   0.889   2.224   8.340 -1.2261 -0.2228 -1.7851
  153SAPE  C31417036   1.022   2.074   8.399 -0.1555  0.1070  0.1292
  153SAPE  H14X17037   1.060   2.057   8.296 -0.5587 -0.9573  0.1457
  153SAPE  H14Y17038   1.013   1.982   8.461 -0.8118  0.2972  0.3277
  153SAPE  C31517039   1.103   2.185   8.465 -0.5465  0.1789 -0.1352
  153SAPE  H15X17040   1.052   2.220   8.557  1.6051  1.3532  0.7005
  153SAPE  H15Y17041   1.107   2.275   8.400  0.7082  0.1021 -0.2006
  153SAPE  C31617042   1.248   2.143   8.507  0.2569 -0.3789  0.0266
  153SAPE  H16X17043   1.300   2.232   8.548  2.6173 -2.0369  0.9255
  153SAPE  H16Y17044   1.306   2.114   8.416  1.4029 -0.8305  0.8753
  153SAPE  C31717045   1.256   2.041   8.630 -0.0521 -0.5871 -0.0683
  153SAPE  H17X17046   1.205   1.949   8.594 -0.0913 -0.5280 -0.1635
  153SAPE  H17Y17047   1.207   2.084   8.720  0.0092 -1.5787  0.4624
  153SAPE  C31817048   1.400   1.991   8.665  0.6691 -0.0033  0.0410
  153SAPE  H18X17049   1.398   1.881   8.674 -0.3832  0.1300  2.3145
  153SAPE  H18Y17050   1.440   2.031   8.761 -1.0795  1.4188  0.2507
  153SAPE  H18Z17051   1.463   2.014   8.576  1.5157 -2.1737  0.0298
  154SAPE     N17052   5.279   2.238   6.404  0.6976  0.3021 -0.2519
  154SAPE   HN117053   5.238   2.197   6.490  0.3707  1.8775  0.3628
  154SAPE   HN217054   5.380   2.209   6.406  0.3475 -1.0783 -1.1411
  154SAPE   HN317055   5.271   2.341   6.411  1.1267  0.3284 -0.0988
  154SAPE   C1217056   5.211   2.193   6.277  0.0933  1.1577 -1.1328
  154SAPE  H12A17057   5.250   2.089   6.272  1.0203  1.4806 -0.7279
  154SAPE  H12B17058   5.258   2.245   6.191  3.4927  0.7704  0.3411
  154SAPE   C1117059   5.056   2.204   6.283  0.2450  0.6190 -0.6875
  154SAPE  H11A17060   5.019   2.198   6.179  1.1555  0.3270 -0.9999
  154SAPE  H11B17061   5.039   2.308   6.318 -0.1650  0.3753 -0.1483
  154SAPE     P17062   4.868   2.039   6.360 -0.1910 -0.2562 -0.3567
  154SAPE   O1317063   4.761   2.140   6.343 -0.1771 -0.1028  0.0625
  154SAPE   O1417064   4.890   1.934   6.258 -0.1939 -0.7283  0.7879
  154SAPE   O1217065   5.004   2.119   6.381  0.1163  0.0573  0.0691
  154SAPE   O1117066   4.867   1.971   6.505 -0.3444  0.3997 -0.0997
  154SAPE    C117067   4.822   2.043   6.618  0.0752  0.1327  0.0942
  154SAPE    HA17068   4.755   2.125   6.586 -0.3716 -0.9939 -2.0303
  154SAPE    HB17069   4.770   1.973   6.687 -2.1185  0.0560 -1.5432
  154SAPE    C217070   4.944   2.086   6.689  0.1655  0.0068 -0.3682
  154SAPE    HS17071   4.981   2.170   6.627 -1.5783  0.6854 -0.5575
  154SAPE   O2117072   5.039   1.979   6.718 -0.0830 -0.7970 -0.5265
  154SAPE   C2117073   5.161   1.992   6.663 -0.3641  0.0485 -0.3261
  154SAPE   O2217074   5.196   2.092   6.601  0.2071  0.0208  0.4651
  154SAPE   C2217075   5.240   1.866   6.686 -0.0719 -0.3950 -0.3310
  154SAPE   H2R17076   5.247   1.860   6.797 -0.2166  2.5011 -0.0860
  154SAPE   H2S17077   5.190   1.779   6.639  2.3397 -3.2211  1.8678
  154SAPE    C317078   4.908   2.148   6.827 -0.3177  0.2359  0.3657
  154SAPE    HX17079   5.000   2.192   6.870  0.0854 -0.3368  0.1017
  154SAPE    HY17080   4.871   2.062   6.887 -1.4857  0.1322 -0.4692
  154SAPE   O3117081   4.795   2.238   6.809 -0.2762  0.3839 -0.5452
  154SAPE   C3117082   4.753   2.289   6.928  0.0730 -0.3238  0.6843
  154SAPE   O3217083   4.800   2.260   7.039  1.0014 -0.4323  0.5095
  154SAPE   C3217084   4.644   2.391   6.902 -0.0420 -0.1443 -0.1861
  154SAPE   H2X17085   4.606   2.370   6.800 -1.8202 -2.5102  0.8526
  154SAPE   H2Y17086   4.683   2.495   6.911  0.0052 -0.3331  2.9915
  154SAPE   C2317087   5.381   1.889   6.623  0.4624  1.1228  0.4581
  154SAPE   H3R17088   5.421   1.989   6.650  2.0207  1.3869 -2.4226
  154SAPE   H3S17089   5.375   1.897   6.512  1.6551 -2.4576  0.0074
  154SAPE   C2417090   5.477   1.776   6.655  0.8443  0.2239  0.2993
  154SAPE   H4R17091   5.446   1.684   6.601  0.2995  1.0647 -0.8811
  154SAPE   H4S17092   5.461   1.751   6.762 -0.8912  0.4782  0.1197
  154SAPE   C2517093   5.626   1.798   6.617  0.1968 -0.4848  0.1364
  154SAPE   H5R17094   5.655   1.842   6.521  0.4976 -1.4226 -0.2171
  154SAPE   C2617095   5.730   1.752   6.688 -0.2119  0.4880  0.4723
  154SAPE   H6R17096   5.834   1.762   6.654 -0.0882 -0.1990  0.6369
  154SAPE   C2717097   5.715   1.663   6.805  0.2778  0.1874  0.7676
  154SAPE   H7R17098   5.661   1.569   6.779 -1.9598  1.7870 -0.7879
  154SAPE   H7S17099   5.642   1.705   6.877  0.5703  2.3002 -0.0803
  154SAPE   C2817100   5.838   1.643   6.887  0.0205 -0.7684  0.3522
  154SAPE   H8R17101   5.888   1.549   6.860 -0.8402 -1.6859  1.8243
  154SAPE   C2917102   5.874   1.730   6.983  0.1025  0.1736 -0.9553
  154SAPE   H9R17103   5.961   1.707   7.046 -1.0659 -2.2334 -0.1064
  154SAPE  C21017104   5.799   1.851   7.032  0.2914  0.5141 -0.3091
  154SAPE  H10R17105   5.752   1.897   6.942 -1.0295 -0.8422 -0.3563
  154SAPE  H10S17106   5.877   1.920   7.070 -1.3400  2.0527  0.3984
  154SAPE  C21117107   5.692   1.818   7.131 -0.4274  0.6472  0.2185
  154SAPE  H11R17108   5.600   1.772   7.091 -1.3057  2.1235  0.4830
  154SAPE  C21217109   5.690   1.853   7.255  0.2704 -0.1432 -1.0666
  154SAPE  H12R17110   5.595   1.830   7.306  0.6293  1.9799  0.7623
  154SAPE  C21317111   5.805   1.920   7.331 -0.6803 -0.1196  0.1119
  154SAPE  H13R17112   5.764   1.992   7.406 -0.8034 -0.2413  0.1634
  154SAPE  H13S17113   5.872   1.978   7.263 -1.4449 -1.2985 -1.7187
  154SAPE  C21417114   5.888   1.818   7.409 -0.4029 -1.0575  0.3561
  154SAPE  H14R17115   5.945   1.745   7.350  2.6229 -0.0902  1.9052
  154SAPE  C21517116   5.906   1.825   7.544 -0.7569 -0.0676 -0.0544
  154SAPE  H15R17117   5.973   1.748   7.584 -1.4572 -1.0421 -0.7079
  154SAPE  C21617118   5.853   1.927   7.645 -0.5128  0.6293 -0.2991
  154SAPE  H16R17119   5.743   1.912   7.652 -0.3617 -0.2390  0.4360
  154SAPE  H16S17120   5.878   2.034   7.630 -2.6129  1.2149 -0.0142
  154SAPE  C21717121   5.882   1.891   7.791 -0.7762 -0.7564  0.2137
  154SAPE  H17R17122   5.990   1.869   7.806 -1.1783 -1.9428  1.5852
  154SAPE  H17S17123   5.833   1.799   7.830  2.1841 -2.5323  0.0211
  154SAPE  C21817124   5.848   2.008   7.884 -0.0684 -0.0009 -0.7262
  154SAPE  H18R17125   5.745   2.036   7.853 -0.0097 -0.3009 -1.1942
  154SAPE  H18S17126   5.907   2.101   7.870 -0.2322  0.6866  2.3451
  154SAPE  C21917127   5.875   1.975   8.030  0.1384 -0.8543  0.0407
  154SAPE  H19R17128   5.980   1.944   8.047  0.5873  1.0912  1.1427
  154SAPE  H19S17129   5.799   1.897   8.055  1.1066 -1.4764  1.1347
  154SAPE  C22017130   5.847   2.100   8.112 -0.2890 -0.4431  0.4038
  154SAPE  H20R17131   5.931   2.172   8.096  0.6514 -1.5239  0.3509
  154SAPE  H20S17132   5.852   2.081   8.222  2.8475 -1.2449  0.2312
  154SAPE  H20T17133   5.751   2.145   8.079 -1.0614 -2.0056  0.4096
  154SAPE   C3317134   4.525   2.379   7.005 -0.6902 -0.7245 -0.0454
  154SAPE   H3X17135   4.489   2.480   7.034  0.1091  0.0570 -1.6750
  154SAPE   H3Y17136   4.574   2.335   7.094 -1.0109 -0.6686  0.1612
  154SAPE   C3417137   4.420   2.272   6.959  0.8240  0.5578 -0.2727
  154SAPE   H4X17138   4.471   2.191   6.903 -1.1899 -2.2664  1.7311
  154SAPE   H4Y17139   4.339   2.316   6.895 -0.3589 -1.3674 -0.1711
  154SAPE   C3517140   4.340   2.214   7.077 -0.4504  0.2762 -0.6688
  154SAPE   H5X17141   4.400   2.167   7.158 -2.6200  2.2809  2.3395
  154SAPE   H5Y17142   4.257   2.150   7.040  1.9316 -2.4156 -1.7307
  154SAPE   C3617143   4.255   2.326   7.143 -0.0465  0.4560  0.0990
  154SAPE   H6X17144   4.170   2.354   7.077  0.7116  2.4023 -0.1179
  154SAPE   H6Y17145   4.311   2.419   7.167 -1.4209  1.0039  1.3182
  154SAPE   C3717146   4.192   2.276   7.270 -0.0908 -0.3064  0.0966
  154SAPE   H7X17147   4.121   2.191   7.257 -0.6670 -0.1115  1.7949
  154SAPE   H7Y17148   4.136   2.361   7.312  0.6497  0.4327 -0.3801
  154SAPE   C3817149   4.300   2.233   7.382  0.4945  0.3367  0.1561
  154SAPE   H8X17150   4.381   2.309   7.384  1.9088 -1.1327  1.7439
  154SAPE   H8Y17151   4.328   2.127   7.371 -0.1716  0.0554  1.0144
  154SAPE   C3917152   4.230   2.250   7.521  0.0925  0.1545  0.5437
  154SAPE   H9X17153   4.144   2.180   7.522  1.4457 -1.8192 -2.6770
  154SAPE   H9Y17154   4.207   2.358   7.533 -0.4130 -0.1060  2.1834
  154SAPE  C31017155   4.316   2.212   7.641 -0.0209  0.7931  0.5248
  154SAPE  H10X17156   4.420   2.252   7.635  1.1225 -1.6832  2.2316
  154SAPE  H10Y17157   4.320   2.103   7.661  2.2267  0.7351  0.0758
  154SAPE  C31117158   4.244   2.258   7.766  0.9633 -0.1906 -0.4543
  154SAPE  H11X17159   4.133   2.249   7.760  0.6625  2.2812  0.3767
  154SAPE  H11Y17160   4.256   2.368   7.771 -0.8931 -0.0206  2.1707
  154SAPE  C31217161   4.297   2.215   7.899 -0.0045 -0.1325 -0.2178
  154SAPE  H12X17162   4.264   2.287   7.978  1.5404  0.4561 -0.0639
  154SAPE  H12Y17163   4.408   2.227   7.897 -0.1279  1.1482 -0.3279
  154SAPE  C31317164   4.246   2.080   7.939  0.3014  0.0371 -0.2497
  154SAPE  H13X17165   4.284   2.007   7.864  2.3280  1.9710 -1.2295
  154SAPE  H13Y17166   4.137   2.087   7.920  0.4113  1.4244 -0.4960
  154SAPE  C31417167   4.276   2.046   8.092 -0.0850 -0.3847 -0.1138
  154SAPE  H14X17168   4.339   2.127   8.134  0.0679 -1.1466  1.1729
  154SAPE  H14Y17169   4.329   1.948   8.091 -3.3314 -2.2747 -0.7192
  154SAPE  C31517170   4.156   2.039   8.192 -1.4540  0.1660  0.2307
  154SAPE  H15X17171   4.111   1.938   8.178  0.6796 -0.3771 -5.6470
  154SAPE  H15Y17172   4.079   2.117   8.172 -1.6608  0.7812  3.0467
  154SAPE  C31617173   4.194   2.057   8.334 -0.7471 -0.8998 -0.0265
  154SAPE  H16X17174   4.229   2.161   8.352 -1.9524 -0.3773 -0.5999
  154SAPE  H16Y17175   4.275   1.986   8.360  1.2088  0.7100 -1.3667
  154SAPE  C31717176   4.079   2.027   8.428  0.2363 -0.2353 -0.4416
  154SAPE  H17X17177   4.048   1.921   8.416 -2.6274  0.7065 -2.4134
  154SAPE  H17Y17178   3.987   2.076   8.392  1.3635  0.9354 -1.8821
  154SAPE  C31817179   4.111   2.059   8.574  0.0944  0.3057  0.4043
  154SAPE  H18X17180   4.025   2.032   8.639 -1.5219  4.3151  0.2168
  154SAPE  H18Y17181   4.140   2.166   8.588  2.7594 -0.4494  1.3139
  154SAPE  H18Z17182   4.194   1.998   8.616 -0.4607  0.0950  1.2101
  155SAPE     N17183   5.901   1.780   6.194  0.4016 -0.1972  0.0996
  155SAPE   HN117184   5.919   1.787   6.296  2.1977 -3.5479  0.1665
  155SAPE   HN217185   5.813   1.824   6.162 -0.8102 -2.0654  0.6607
  155SAPE   HN317186   5.892   1.678   6.173 -1.8597  0.1848 -1.1839
  155SAPE   C1217187   6.025   1.836   6.135 -0.2979  0.0884  0.1174
  155SAPE  H12A17188   6.011   1.826   6.025 -3.1816  0.3084  0.3877
  155SAPE  H12B17189   6.111   1.780   6.179  1.1445  0.6494 -1.8351
  155SAPE   C1117190   6.052   1.984   6.170 -0.4550  0.0007 -0.0792
  155SAPE  H11A17191   5.962   2.042   6.141 -0.0956  0.7668  0.3249
  155SAPE  H11B17192   6.140   2.010   6.106 -1.2517 -1.5968 -1.9530
  155SAPE     P17193   6.106   2.152   6.360 -0.0625  0.2660 -0.0045
  155SAPE   O1317194   6.253   2.167   6.399  1.0458  0.9261  0.1318
  155SAPE   O1417195   6.064   2.253   6.262  0.8387  0.2482  0.9026
  155SAPE   O1217196   6.078   1.999   6.316 -0.6413  0.0024  0.3227
  155SAPE   O1117197   6.013   2.169   6.486  0.3430 -0.3279  0.0962
  155SAPE    C117198   5.892   2.100   6.481 -0.2292 -0.1912 -0.7929
  155SAPE    HA17199   5.839   2.106   6.383 -1.4044  2.0678 -0.0805
  155SAPE    HB17200   5.913   1.993   6.502  0.5931  0.0820 -0.1975
  155SAPE    C217201   5.791   2.152   6.587  0.5864  0.0418 -0.1279
  155SAPE    HS17202   5.696   2.099   6.567  1.7597 -2.0357 -0.4177
  155SAPE   O2117203   5.779   2.293   6.578 -0.1158 -0.5127 -0.1283
  155SAPE   C2117204   5.658   2.341   6.538 -0.2030 -0.2342  0.1837
  155SAPE   O2217205   5.559   2.276   6.515  0.1348 -0.5555  0.0318
  155SAPE   C2217206   5.655   2.493   6.550 -0.0933  0.3264  0.1987
  155SAPE   H2R17207   5.759   2.532   6.539  0.6604 -1.4126  0.7602
  155SAPE   H2S17208   5.586   2.530   6.471 -0.0345 -2.9937 -1.5897
  155SAPE    C317209   5.846   2.104   6.726 -0.0445 -0.2109 -0.3030
  155SAPE    HX17210   5.938   2.156   6.759 -0.0754  0.5583 -1.3786
  155SAPE    HY17211   5.867   1.996   6.710 -0.6473 -0.5507  1.0217
  155SAPE   O3117212   5.734   2.114   6.823 -0.2667 -0.2089  0.2916
  155SAPE   C3117213   5.736   2.222   6.900 -0.4370 -0.1225  0.4987
  155SAPE   O3217214   5.823   2.310   6.890 -0.3597  0.5476 -0.0595
  155SAPE   C3217215   5.610   2.222   6.995  0.6964  0.8523  0.1196
  155SAPE   H2X17216   5.582   2.116   7.018 -1.2204  1.1072 -0.8102
  155SAPE   H2Y17217   5.530   2.265   6.931  0.7881  1.6309  0.5231
  155SAPE   C2317218   5.608   2.545   6.686  0.3279 -0.0682 -0.0391
  155SAPE   H3R17219   5.633   2.653   6.678 -0.9990  0.3267  0.8207
  155SAPE   H3S17220   5.650   2.497   6.777 -1.0551 -0.0164  0.6663
  155SAPE   C2417221   5.453   2.549   6.688  0.1640 -0.4561  0.4915
  155SAPE   H4R17222   5.414   2.551   6.584  0.4884 -0.0714  0.3755
  155SAPE   H4S17223   5.420   2.641   6.739  1.2691  0.9368 -1.1980
  155SAPE   C2517224   5.381   2.425   6.733  0.4549 -0.0258 -0.5259
  155SAPE   H5R17225   5.400   2.332   6.678  0.5750 -0.3177  0.0008
  155SAPE   C2617226   5.294   2.426   6.839 -0.2231 -0.0037  0.1417
  155SAPE   H6R17227   5.229   2.342   6.867  0.7072 -0.8296 -0.1382
  155SAPE   C2717228   5.252   2.544   6.924  0.0827 -0.2315  0.5456
  155SAPE   H7R17229   5.159   2.520   6.978  0.8575 -2.0498  1.1369
  155SAPE   H7S17230   5.247   2.643   6.873  0.0929 -0.6081 -0.2006
  155SAPE   C2817231   5.356   2.563   7.028  0.2557 -0.8125  0.0152
  155SAPE   H8R17232   5.459   2.577   6.990  0.6329 -1.5654  0.7474
  155SAPE   C2917233   5.346   2.555   7.161 -0.6667  0.4655 -0.3468
  155SAPE   H9R17234   5.434   2.571   7.225 -1.6526  0.7993  0.9709
  155SAPE  C21017235   5.223   2.529   7.247 -0.2456  0.5807 -0.5212
  155SAPE  H10R17236   5.138   2.588   7.205  0.0784  1.0553 -0.5147
  155SAPE  H10S17237   5.239   2.573   7.347  3.7384  1.3049 -1.3047
  155SAPE  C21117238   5.182   2.383   7.266  0.2977 -0.3815 -0.3383
  155SAPE  H11R17239   5.181   2.334   7.168 -0.4795 -3.7379  1.2141
  155SAPE  C21217240   5.153   2.308   7.375  0.6967 -1.1653  0.0959
  155SAPE  H12R17241   5.142   2.199   7.369 -0.3628 -1.0301 -0.8940
  155SAPE  C21317242   5.155   2.356   7.514  0.0890  0.2532  0.1212
  155SAPE  H13R17243   5.075   2.301   7.568  1.2691 -1.5356  0.1560
  155SAPE  H13S17244   5.135   2.465   7.511  2.9527  0.9006  0.8863
  155SAPE  C21417245   5.291   2.342   7.590  0.3970 -0.4693 -0.0421
  155SAPE  H14R17246   5.381   2.321   7.530  0.0263 -3.2448  0.2514
  155SAPE  C21517247   5.296   2.360   7.726 -0.2381 -0.1667  0.2482
  155SAPE  H15R17248   5.397   2.357   7.768  0.0078  0.4022 -0.2888
  155SAPE  C21617249   5.185   2.393   7.814  1.1310  0.1161  0.7383
  155SAPE  H16R17250   5.116   2.306   7.825  0.3400  0.5478 -0.5954
  155SAPE  H16S17251   5.130   2.481   7.774  1.6499  0.3949  0.6301
  155SAPE  C21717252   5.229   2.417   7.954 -0.1669 -0.0292  0.5732
  155SAPE  H17R17253   5.275   2.516   7.969  0.6253 -0.6087  2.3201
  155SAPE  H17S17254   5.304   2.347   7.996 -1.2002 -2.1836 -0.9695
  155SAPE  C21817255   5.110   2.416   8.045 -0.6880  0.5014 -0.3761
  155SAPE  H18R17256   5.062   2.316   8.038  1.7155 -0.9479  1.8475
  155SAPE  H18S17257   5.031   2.488   8.015 -1.5793 -0.3112 -0.0518
  155SAPE  C21917258   5.138   2.441   8.196 -0.1614  1.2587 -0.5598
  155SAPE  H19R17259   5.202   2.532   8.194 -0.0140  1.2642  1.7225
  155SAPE  H19S17260   5.203   2.363   8.242 -1.8759  0.4786  0.6581
  155SAPE  C22017261   5.017   2.474   8.283  0.1761 -0.0575 -0.0598
  155SAPE  H20R17262   4.943   2.391   8.279  1.5234 -1.2493 -1.4039
  155SAPE  H20S17263   4.973   2.567   8.241  0.3563 -1.0577 -2.6275
  155SAPE  H20T17264   5.053   2.500   8.385  0.7744  0.9104 -0.4999
  155SAPE   C3317265   5.609   2.297   7.131 -0.2307  0.2563 -0.6392
  155SAPE   H3X17266   5.504   2.309   7.167  0.8331  0.4514  2.7459
  155SAPE   H3Y17267   5.645   2.401   7.113 -1.1591  0.6167 -0.4777
  155SAPE   C3417268   5.690   2.224   7.241 -0.1031  0.1651  0.4912
  155SAPE   H4X17269   5.780   2.193   7.184  0.3660  2.2245  0.0505
  155SAPE   H4Y17270   5.632   2.134   7.273 -2.1767  1.0051 -0.6919
  155SAPE   C3517271   5.736   2.309   7.364 -0.1383 -0.5079  0.2439
  155SAPE   H5X17272   5.801   2.388   7.319  1.1909 -1.0821  1.0796
  155SAPE   H5Y17273   5.791   2.244   7.436 -0.1800  0.1657  0.8860
  155SAPE   C3617274   5.619   2.363   7.445 -0.2939 -0.9259 -0.1428
  155SAPE   H6X17275   5.550   2.276   7.449 -0.3364 -0.9276 -0.7498
  155SAPE   H6Y17276   5.559   2.435   7.385 -0.9793 -2.1164 -0.9469
  155SAPE   C3717277   5.656   2.428   7.584  0.2837 -0.9313  1.2208
  155SAPE   H7X17278   5.567   2.485   7.615  1.1505  1.7148 -0.8059
  155SAPE   H7Y17279   5.729   2.510   7.565 -2.3914  1.4978  0.8562
  155SAPE   C3817280   5.716   2.330   7.682  0.3040 -0.0581  0.1342
  155SAPE   H8X17281   5.801   2.279   7.633 -1.3202 -2.6060 -0.2045
  155SAPE   H8Y17282   5.637   2.262   7.719 -1.0039  0.9490 -0.7299
  155SAPE   C3917283   5.769   2.399   7.815 -1.0278 -0.3132  0.6534
  155SAPE   H9X17284   5.819   2.494   7.786  0.7520 -1.5822 -0.6831
  155SAPE   H9Y17285   5.842   2.327   7.859 -1.0914  0.0201  1.3154
  155SAPE  C31017286   5.664   2.415   7.917  0.6350 -0.1273 -0.3661
  155SAPE  H10X17287   5.622   2.317   7.947  0.9499 -0.1615 -0.0296
  155SAPE  H10Y17288   5.590   2.478   7.863  0.2957  0.1537  0.3997
  155SAPE  C31117289   5.706   2.488   8.050  0.5579  0.4834  0.4064
  155SAPE  H11X17290   5.741   2.589   8.017 -1.7778  1.3322  0.3769
  155SAPE  H11Y17291   5.788   2.429   8.094 -1.2586 -2.1394  0.4567
  155SAPE  C31217292   5.591   2.502   8.149  0.1336  0.1514 -0.0812
  155SAPE  H12X17293   5.523   2.415   8.152 -0.2515  0.2631 -2.6532
  155SAPE  H12Y17294   5.534   2.596   8.133  2.6882  1.9497  0.6498
  155SAPE  C31317295   5.634   2.523   8.295  0.5741 -0.0653 -0.0217
  155SAPE  H13X17296   5.548   2.561   8.353  1.5028 -2.1414  2.9626
  155SAPE  H13Y17297   5.706   2.607   8.313 -1.4798  1.3216  2.3008
  155SAPE  C31417298   5.683   2.393   8.360 -0.7023 -0.0810 -0.0673
  155SAPE  H14X17299   5.740   2.338   8.282 -1.8540  1.1430 -1.8543
  155SAPE  H14Y17300   5.601   2.336   8.409  0.1745 -0.8963  0.4827
  155SAPE  C31517301   5.791   2.422   8.475 -0.1618  0.0333 -0.3804
  155SAPE  H15X17302   5.753   2.497   8.547  1.1659 -0.9214  1.3834
  155SAPE  H15Y17303   5.879   2.471   8.428  0.3694  1.2907  1.7807
  155SAPE  C31617304   5.844   2.294   8.537  0.0819 -0.6870  0.4587
  155SAPE  H16X17305   5.933   2.320   8.599  0.3387 -2.2282  0.7703
  155SAPE  H16Y17306   5.876   2.232   8.450 -1.7049  1.1413 -1.6367
  155SAPE  C31717307   5.753   2.221   8.639 -0.1849  0.5314 -0.2517
  155SAPE  H17X17308   5.678   2.160   8.585  0.5551 -1.4754  0.8648
  155SAPE  H17Y17309   5.706   2.290   8.712 -2.5615 -0.1439 -1.0455
  155SAPE  C31817310   5.839   2.113   8.716 -0.4881  0.0005 -0.4345
  155SAPE  H18X17311   5.927   2.153   8.770 -0.7556  0.3583 -0.2644
  155SAPE  H18Y17312   5.872   2.036   8.642 -0.4969 -1.9704  1.4951
  155SAPE  H18Z17313   5.778   2.053   8.788 -0.1494 -0.8444 -0.8319
  156SAPE     N17314   1.554   4.555   6.749 -0.3329  0.2283  0.3800
  156SAPE   HN117315   1.601   4.630   6.694 -1.0939  1.4198  1.2971
  156SAPE   HN217316   1.508   4.489   6.683  0.5028 -0.9454  0.9272
  156SAPE   HN317317   1.471   4.606   6.785  0.5606  1.5597  0.6149
  156SAPE   C1217318   1.635   4.491   6.859 -0.1662 -0.0941  0.2966
  156SAPE  H12A17319   1.612   4.535   6.959  1.9031 -2.0899  1.7407
  156SAPE  H12B17320   1.739   4.526   6.843 -0.0206 -0.1325  1.1096
  156SAPE   C1117321   1.621   4.340   6.879  0.3865  0.4156 -0.8618
  156SAPE  H11A17322   1.534   4.323   6.946  1.4392 -1.2677  0.1586
  156SAPE  H11B17323   1.712   4.289   6.919 -0.0583 -0.6730 -1.2062
  156SAPE     P17324   1.695   4.213   6.649  0.3778 -0.3501  0.0397
  156SAPE   O1317325   1.643   4.098   6.570 -0.6216 -0.2274  0.1872
  156SAPE   O1417326   1.751   4.336   6.577 -0.0678  0.5346  0.1446
  156SAPE   O1217327   1.590   4.273   6.755  0.6367 -0.3139 -0.0032
  156SAPE   O1117328   1.808   4.175   6.755  0.2487 -0.3403  0.5066
  156SAPE    C117329   1.827   4.040   6.812 -0.3986 -0.1793 -0.4995
  156SAPE    HA17330   1.778   4.044   6.912 -1.1247 -2.4683 -0.6927
  156SAPE    HB17331   1.778   3.954   6.761 -0.5399 -1.0012  0.9657
  156SAPE    C217332   1.979   3.994   6.823  0.5250 -0.6122  0.0036
  156SAPE    HS17333   1.989   3.889   6.858  4.4645  0.1450  1.6849
  156SAPE   O2117334   2.042   4.082   6.913  0.4428  0.0298  0.1009
  156SAPE   C2117335   2.000   4.076   7.037  0.3621 -0.2043  0.1655
  156SAPE   O2217336   1.920   3.994   7.079 -0.0696  0.3980  0.6555
  156SAPE   C2217337   2.039   4.207   7.109 -0.0930 -0.2941 -0.5258
  156SAPE   H2R17338   2.146   4.219   7.083 -0.5295  2.6882 -1.2244
  156SAPE   H2S17339   1.986   4.294   7.064  0.9633  1.5450  1.6226
  156SAPE    C317340   2.055   4.007   6.680  1.3337  0.5465  0.1110
  156SAPE    HX17341   2.031   4.104   6.633  0.7604  0.0574 -0.6335
  156SAPE    HY17342   2.018   3.922   6.618  1.6134 -0.5565  1.4021
  156SAPE   O3117343   2.195   3.984   6.704 -0.5889 -0.5912  0.5109
  156SAPE   C3117344   2.269   4.090   6.726  0.8092  0.0012  0.1710
  156SAPE   O3217345   2.233   4.209   6.730 -0.3316 -0.0107 -0.4052
  156SAPE   C3217346   2.410   4.038   6.753 -0.9807  0.4971 -0.8251
  156SAPE   H2X17347   2.474   4.087   6.676  1.3122  1.0652  1.3064
  156SAPE   H2Y17348   2.416   3.927   6.743 -3.1054  0.1607  0.8851
  156SAPE   C2317349   2.011   4.199   7.259  0.0499 -0.0324  0.2645
  156SAPE   H3R17350   2.049   4.103   7.300 -0.7526 -0.7364 -0.5760
  156SAPE   H3S17351   1.904   4.203   7.287  0.2653  2.3515  0.9602
  156SAPE   C2417352   2.089   4.316   7.330 -0.4805 -0.8224 -0.2458
  156SAPE   H4R17353   2.194   4.339   7.302  0.1569 -0.8648  1.9735
  156SAPE   H4S17354   2.087   4.280   7.435  0.8267 -1.3397 -0.3862
  156SAPE   C2517355   2.008   4.442   7.317  0.4723  0.0744  0.4812
  156SAPE   H5R17356   1.943   4.451   7.229  0.8273 -1.2123  0.0792
  156SAPE   C2617357   2.000   4.543   7.412 -0.6676  0.0956  0.0257
  156SAPE   H6R17358   1.946   4.635   7.383 -1.4195 -0.3600 -0.0459
  156SAPE   C2717359   2.079   4.550   7.540  0.1204 -0.0054 -0.1865
  156SAPE   H7R17360   2.172   4.613   7.537 -0.2350  0.5057 -0.7847
  156SAPE   H7S17361   2.095   4.445   7.572 -2.8445 -0.1918  0.9902
  156SAPE   C2817362   1.985   4.601   7.646  0.3129 -0.6723  0.0638
  156SAPE   H8R17363   1.883   4.625   7.612  0.0208 -0.4358  1.0629
  156SAPE   C2917364   2.038   4.644   7.767 -0.1915 -0.3661  0.1764
  156SAPE   H9R17365   1.969   4.692   7.838 -0.3000 -1.5703  0.9205
  156SAPE  C21017366   2.181   4.629   7.817 -0.3591  0.3902  0.2145
  156SAPE  H10R17367   2.231   4.719   7.773 -0.4347 -0.0428 -0.7868
  156SAPE  H10S17368   2.248   4.552   7.772 -1.9150 -1.0709  0.3092
  156SAPE  C21117369   2.204   4.642   7.968  0.5890  0.1055  0.8190
  156SAPE  H11R17370   2.116   4.638   8.034 -2.1283 -1.4210 -2.5702
  156SAPE  C21217371   2.323   4.668   8.020  0.1473  0.1884  0.2765
  156SAPE  H12R17372   2.330   4.660   8.130  0.9489  0.5554  0.2609
  156SAPE  C21317373   2.450   4.699   7.946  0.0709  0.6296  0.2746
  156SAPE  H13R17374   2.431   4.788   7.882  1.0637  0.1405 -0.7511
  156SAPE  H13S17375   2.482   4.616   7.878 -0.2092  0.7584 -0.0158
  156SAPE  C21417376   2.577   4.732   8.022  0.0529 -0.5409 -0.1094
  156SAPE  H14R17377   2.613   4.829   7.985 -3.9342  0.7505 -1.1558
  156SAPE  C21517378   2.646   4.660   8.106 -0.8517  0.2689  0.7995
  156SAPE  H15R17379   2.724   4.705   8.170  0.2391  2.8503 -2.1371
  156SAPE  C21617380   2.612   4.527   8.161  0.1172  0.4192 -0.0998
  156SAPE  H16R17381   2.684   4.452   8.123  0.3439  0.7703 -0.3737
  156SAPE  H16S17382   2.514   4.490   8.124  0.5770  0.8387 -1.8271
  156SAPE  C21717383   2.614   4.525   8.320 -0.3643  0.5027  0.1855
  156SAPE  H17R17384   2.527   4.576   8.367  1.4405  4.8228 -0.6780
  156SAPE  H17S17385   2.715   4.544   8.363  0.4413  1.5960 -2.0717
  156SAPE  C21817386   2.593   4.374   8.361 -0.1567 -0.3564  0.1794
  156SAPE  H18R17387   2.650   4.297   8.306 -1.0064  0.0343 -1.2965
  156SAPE  H18S17388   2.488   4.354   8.329  0.2531  1.6168 -2.7624
  156SAPE  C21917389   2.608   4.350   8.511  0.1596 -0.4519 -0.2625
  156SAPE  H19R17390   2.696   4.395   8.561  0.6384  1.7014 -2.8664
  156SAPE  H19S17391   2.616   4.239   8.518 -1.4377 -0.5110  1.4914
  156SAPE  C22017392   2.487   4.391   8.594 -0.8386 -0.0934  0.2663
  156SAPE  H20R17393   2.470   4.340   8.691  1.2092  0.4533  0.9744
  156SAPE  H20S17394   2.399   4.370   8.530 -2.5661  0.0360  2.4699
  156SAPE  H20T17395   2.489   4.498   8.625  0.3238  0.0111 -0.1019
  156SAPE   C3317396   2.461   4.085   6.887  0.0746 -0.5465 -0.2369
  156SAPE   H3X17397   2.442   4.194   6.895  0.5265 -0.4894  0.0684
  156SAPE   H3Y17398   2.570   4.064   6.899  0.2659  0.1200 -0.7549
  156SAPE   C3417399   2.392   4.016   7.005 -0.2615 -1.0798  0.4241
  156SAPE   H4X17400   2.403   3.908   6.984  1.4035 -1.0729  1.0568
  156SAPE   H4Y17401   2.282   4.027   7.001 -0.0542  1.5453  0.1378
  156SAPE   C3517402   2.465   4.045   7.135 -0.1176  0.5413  0.0183
  156SAPE   H5X17403   2.462   4.156   7.140  1.1517  0.5802  0.2189
  156SAPE   H5Y17404   2.572   4.016   7.134 -0.5366 -1.1210  0.1580
  156SAPE   C3617405   2.411   3.984   7.261 -0.0580 -0.5604  0.0416
  156SAPE   H6X17406   2.413   3.873   7.259  0.8344 -0.5378 -0.7251
  156SAPE   H6Y17407   2.308   4.026   7.266 -0.1552 -0.4426 -2.0604
  156SAPE   C3717408   2.477   4.025   7.391  0.2194  1.0667  0.3517
  156SAPE   H7X17409   2.468   4.135   7.399 -1.6372  1.0849 -1.1248
  156SAPE   H7Y17410   2.579   3.982   7.394 -1.1036 -2.7296 -1.8256
  156SAPE   C3817411   2.401   3.969   7.510 -0.4829  0.0287  0.2980
  156SAPE   H8X17412   2.304   4.020   7.529  0.5275  1.5207  1.6747
  156SAPE   H8Y17413   2.460   3.993   7.600 -0.2530 -0.3767  0.2585
  156SAPE   C3917414   2.395   3.813   7.509 -0.1272 -0.4958 -0.5939
  156SAPE   H9X17415   2.490   3.774   7.468  1.9695  1.8698  1.6783
  156SAPE   H9Y17416   2.312   3.791   7.438 -1.4134  0.0211  0.6821
  156SAPE  C31017417   2.366   3.735   7.638  0.5785  0.2231  0.1139
  156SAPE  H10X17418   2.268   3.769   7.677  1.2157 -0.5855  2.5602
  156SAPE  H10Y17419   2.454   3.761   7.700 -0.0994  1.7716  0.4681
  156SAPE  C31117420   2.377   3.584   7.608  0.1053 -0.5455  0.3625
  156SAPE  H11X17421   2.475   3.570   7.558  1.7353  0.1722  3.1620
  156SAPE  H11Y17422   2.302   3.548   7.534 -3.0745  0.5836  2.8285
  156SAPE  C31217423   2.378   3.497   7.730 -0.2638 -0.0249  0.7051
  156SAPE  H12X17424   2.371   3.392   7.697  1.8145  0.0630 -0.1387
  156SAPE  H12Y17425   2.285   3.505   7.791 -0.0123 -0.8983  1.2174
  156SAPE  C31317426   2.500   3.516   7.824 -0.1516  0.5155  0.1537
  156SAPE  H13X17427   2.497   3.621   7.860 -1.1062  0.8124 -0.7235
  156SAPE  H13Y17428   2.595   3.484   7.777  0.6333 -1.6625  2.9627
  156SAPE  C31417429   2.486   3.419   7.950 -0.7892 -0.1454  0.3671
  156SAPE  H14X17430   2.472   3.313   7.919  0.6498 -0.5908  1.1284
  156SAPE  H14Y17431   2.397   3.453   8.006 -2.9148  0.7786 -3.2778
  156SAPE  C31517432   2.614   3.432   8.040  0.4544 -0.6739  0.7073
  156SAPE  H15X17433   2.614   3.532   8.089  2.0827 -1.4173  2.3567
  156SAPE  H15Y17434   2.707   3.424   7.981  0.2897  1.4108  0.0584
  156SAPE  C31617435   2.587   3.329   8.150 -0.2767  0.2658  0.0186
  156SAPE  H16X17436   2.606   3.224   8.118 -0.1168  0.4711 -0.5627
  156SAPE  H16Y17437   2.479   3.333   8.176  0.3604  1.4751  2.8282
  156SAPE  C31717438   2.679   3.361   8.270  0.2885  0.5196  0.4401
  156SAPE  H17X17439   2.664   3.463   8.312 -0.2853  0.3937  0.5562
  156SAPE  H17Y17440   2.784   3.353   8.235  0.7697 -1.0879  2.0952
  156SAPE  C31817441   2.658   3.255   8.374  0.0627 -0.8021  1.3132
  156SAPE  H18X17442   2.560   3.270   8.425 -0.2355  0.8425  0.3169
  156SAPE  H18Y17443   2.736   3.262   8.453 -1.4800 -1.3741  2.9912
  156SAPE  H18Z17444   2.657   3.150   8.337  0.9638 -0.0219 -1.0251
  157SAPE     N17445   1.659   4.765   6.435 -0.7305 -0.0776 -0.0228
  157SAPE   HN117446   1.606   4.676   6.423  0.1550 -0.6627  0.2890
  157SAPE   HN217447   1.752   4.745   6.393 -0.3458 -1.1088  1.2332
  157SAPE   HN317448   1.679   4.778   6.536  1.8057  2.7638 -0.7520
  157SAPE   C1217449   1.597   4.885   6.388 -0.4083 -0.0733 -1.1728
  157SAPE  H12A17450   1.580   4.877   6.278 -3.0682 -0.7723 -0.7901
  157SAPE  H12B17451   1.669   4.963   6.419 -1.4192 -0.3954  2.5411
  157SAPE   C1117452   1.461   4.907   6.444  0.5589  0.3343 -0.1009
  157SAPE  H11A17453   1.421   5.007   6.414 -1.1411 -0.5844 -1.0166
  157SAPE  H11B17454   1.471   4.891   6.553  2.7117  1.2304 -0.1163
  157SAPE     P17455   1.227   4.830   6.337  0.1312 -0.2216 -0.7784
  157SAPE   O1317456   1.208   4.975   6.305  0.2154 -0.5060 -0.0772
  157SAPE   O1417457   1.199   4.730   6.232  0.0124 -0.2285  0.1489
  157SAPE   O1217458   1.379   4.808   6.390  0.1661  0.5167 -0.3883
  157SAPE   O1117459   1.133   4.783   6.461 -0.1763  0.4266 -0.0732
  157SAPE    C117460   1.085   4.878   6.558 -0.1136  0.0923 -0.5576
  157SAPE    HA17461   1.100   4.986   6.535 -1.5871  0.4740  0.1727
  157SAPE    HB17462   0.976   4.867   6.542  0.1123 -0.2138 -2.0084
  157SAPE    C217463   1.123   4.842   6.701 -0.4440 -0.4223 -0.7457
  157SAPE    HS17464   1.232   4.865   6.702  0.1394 -2.9063 -0.9972
  157SAPE   O2117465   1.107   4.702   6.736 -0.0978  0.1684  0.0906
  157SAPE   C2117466   1.203   4.631   6.777  0.5013 -0.7431 -0.2814
  157SAPE   O2217467   1.320   4.664   6.796 -0.2330  1.0509 -0.0772
  157SAPE   C2217468   1.148   4.494   6.818 -0.2415  0.3739 -0.1774
  157SAPE   H2R17469   1.041   4.501   6.846 -0.1038 -0.2426  0.5428
  157SAPE   H2S17470   1.142   4.445   6.718 -0.6396  0.0420  0.0068
  157SAPE    C317471   1.050   4.920   6.807  0.0799  0.3649  0.6255
  157SAPE    HX17472   0.941   4.905   6.796 -0.0008  0.1448  1.6430
  157SAPE    HY17473   1.065   5.028   6.786 -1.4827  0.7543  1.3982
  157SAPE   O3117474   1.090   4.885   6.941  0.4398  0.3500  0.3547
  157SAPE   C3117475   1.195   4.949   6.986  0.1850 -0.0647 -0.7620
  157SAPE   O3217476   1.252   5.043   6.933  0.0112 -0.4356 -0.1132
  157SAPE   C3217477   1.253   4.866   7.102 -0.1378  0.7071 -0.4497
  157SAPE   H2X17478   1.306   4.777   7.063 -2.2110 -0.9816  0.3639
  157SAPE   H2Y17479   1.166   4.831   7.162  1.2265  1.3722  2.0447
  157SAPE   C2317480   1.234   4.413   6.909 -0.9970 -0.2958 -0.0998
  157SAPE   H3R17481   1.343   4.406   6.886 -0.4046 -0.7424  2.5369
  157SAPE   H3S17482   1.206   4.306   6.916  0.6260 -0.7004  0.8145
  157SAPE   C2417483   1.203   4.458   7.057  0.6869  0.9060  0.7408
  157SAPE   H4R17484   1.100   4.423   7.079  0.6431  0.9032  0.5299
  157SAPE   H4S17485   1.207   4.567   7.075  0.6405  1.2168 -0.9792
  157SAPE   C2517486   1.303   4.379   7.144 -0.6361 -0.4770  0.0859
  157SAPE   H5R17487   1.409   4.408   7.140 -0.5914  0.2078  3.2239
  157SAPE   C2617488   1.282   4.305   7.256  0.8136 -0.1521  0.1514
  157SAPE   H6R17489   1.363   4.272   7.322  0.6344 -2.2311 -0.5659
  157SAPE   C2717490   1.147   4.274   7.315  0.1855  0.7790 -0.2025
  157SAPE   H7R17491   1.074   4.345   7.271  0.7693 -0.1842 -2.9375
  157SAPE   H7S17492   1.152   4.299   7.423  0.9921 -1.8136  0.4474
  157SAPE   C2817493   1.079   4.141   7.280  0.2717 -0.2764 -0.5728
  157SAPE   H8R17494   1.082   4.116   7.173  3.6601  0.0731 -0.6747
  157SAPE   C2917495   1.010   4.063   7.365 -0.3961 -0.2513  0.4862
  157SAPE   H9R17496   0.964   3.974   7.319  1.1926 -0.5498 -0.6050
  157SAPE  C21017497   0.973   4.098   7.509  0.2753 -0.5764 -0.3819
  157SAPE  H10R17498   0.862   4.099   7.524  0.4397 -0.2986  0.9333
  157SAPE  H10S17499   1.010   4.200   7.532  0.8023 -0.7777 -0.3245
  157SAPE  C21117500   1.024   3.998   7.609 -0.5636 -0.1225  0.3077
  157SAPE  H11R17501   1.075   3.912   7.561 -0.1609  0.7171 -0.8049
  157SAPE  C21217502   1.038   4.028   7.743  0.2261  0.4226 -0.3076
  157SAPE  H12R17503   1.081   3.943   7.798  1.1222  1.2900  0.3672
  157SAPE  C21317504   0.993   4.157   7.811  0.9770 -0.7371  0.0679
  157SAPE  H13R17505   0.924   4.137   7.896 -2.3883 -1.0588 -2.5236
  157SAPE  H13S17506   0.943   4.230   7.744 -0.8808 -1.0056  1.0997
  157SAPE  C21417507   1.120   4.235   7.847  0.2888  0.0018  0.4765
  157SAPE  H14R17508   1.138   4.316   7.775 -0.3853 -0.4458 -0.1955
  157SAPE  C21517509   1.194   4.217   7.961  0.1371 -0.5479 -0.4432
  157SAPE  H15R17510   1.289   4.272   7.964 -0.5245  0.6507 -0.6957
  157SAPE  C21617511   1.163   4.112   8.067  0.3028 -1.0150 -0.0659
  157SAPE  H16R17512   1.174   4.008   8.030 -0.5927 -0.8599 -0.8074
  157SAPE  H16S17513   1.054   4.120   8.090 -0.2032  0.5664 -2.6863
  157SAPE  C21717514   1.246   4.115   8.198  0.4886 -0.2713  0.2850
  157SAPE  H17R17515   1.352   4.106   8.167 -0.1592 -3.1046 -1.3669
  157SAPE  H17S17516   1.218   4.024   8.254  1.8646 -0.3327  0.9107
  157SAPE  C21817517   1.216   4.236   8.283 -0.1305  0.3295  0.3907
  157SAPE  H18R17518   1.242   4.324   8.221 -0.0397 -1.5450 -2.4010
  157SAPE  H18S17519   1.280   4.220   8.373  0.7988 -0.9785 -0.4556
  157SAPE  C21917520   1.075   4.258   8.327  0.0748 -0.0385 -0.8002
  157SAPE  H19R17521   1.022   4.160   8.323  2.6059 -1.5245 -0.1038
  157SAPE  H19S17522   1.024   4.318   8.249 -1.2207 -0.1237 -0.0479
  157SAPE  C22017523   1.052   4.320   8.468  0.3912 -0.0953  0.2868
  157SAPE  H20R17524   1.102   4.250   8.539 -0.7421 -2.1859 -0.9081
  157SAPE  H20S17525   0.944   4.316   8.494  0.0982  3.7317  0.2577
  157SAPE  H20T17526   1.096   4.422   8.475  1.2407 -0.2184 -2.3394
  157SAPE   C3317527   1.339   4.951   7.193 -0.0740 -0.0012  0.5455
  157SAPE   H3X17528   1.273   5.004   7.265 -1.2934 -2.0916  1.0301
  157SAPE   H3Y17529   1.399   5.022   7.131 -1.3055  1.1108  0.5607
  157SAPE   C3417530   1.439   4.859   7.274  0.5143  0.2039 -0.1858
  157SAPE   H4X17531   1.494   4.928   7.341  2.2016 -1.3717  0.1060
  157SAPE   H4Y17532   1.516   4.821   7.204  2.0132  4.5752 -1.2544
  157SAPE   C3517533   1.378   4.737   7.342  0.2913  0.2670  0.3817
  157SAPE   H5X17534   1.362   4.670   7.255  2.3981 -0.8052  0.7783
  157SAPE   H5Y17535   1.280   4.755   7.391  1.1251  1.9414  1.5457
  157SAPE   C3617536   1.471   4.673   7.441  0.1346 -0.1938 -0.5082
  157SAPE   H6X17537   1.492   4.754   7.514  0.0516  0.7971 -1.5521
  157SAPE   H6Y17538   1.567   4.638   7.396  0.5975 -3.1492  2.3854
  157SAPE   C3717539   1.414   4.553   7.516 -0.2662 -0.1133 -0.3006
  157SAPE   H7X17540   1.394   4.471   7.444 -2.4362  1.6682 -1.8731
  157SAPE   H7Y17541   1.326   4.579   7.578 -0.2072 -0.5680 -0.0235
  157SAPE   C3817542   1.517   4.479   7.616 -0.6156  0.0746 -0.5275
  157SAPE   H8X17543   1.621   4.505   7.586 -0.2200 -0.5079  0.3267
  157SAPE   H8Y17544   1.498   4.371   7.600 -1.8542  0.4629 -1.9168
  157SAPE   C3917545   1.494   4.513   7.764 -0.2646 -0.7727 -0.0703
  157SAPE   H9X17546   1.392   4.484   7.798  0.4103 -1.3512  1.5786
  157SAPE   H9Y17547   1.502   4.623   7.780  0.2352 -0.8141 -0.0292
  157SAPE  C31017548   1.597   4.456   7.863  0.1707  0.0646 -0.5864
  157SAPE  H10X17549   1.694   4.507   7.842  0.4956 -0.2985 -0.0196
  157SAPE  H10Y17550   1.614   4.347   7.852 -2.4552 -0.3938 -0.6572
  157SAPE  C31117551   1.558   4.463   8.017  0.3452 -0.1033  1.0066
  157SAPE  H11X17552   1.449   4.445   8.030  0.3849 -0.6143  0.6491
  157SAPE  H11Y17553   1.577   4.567   8.052 -0.7800  0.5699 -0.2657
  157SAPE  C31217554   1.640   4.368   8.103  0.6598  0.5820 -0.4768
  157SAPE  H12X17555   1.672   4.273   8.057  0.5263 -0.5758  1.6866
  157SAPE  H12Y17556   1.575   4.332   8.186 -1.3897  0.2553 -2.1284
  157SAPE  C31317557   1.772   4.431   8.151 -0.5392  0.0245  0.6457
  157SAPE  H13X17558   1.760   4.537   8.181  3.3322  0.2830  1.8742
  157SAPE  H13Y17559   1.839   4.439   8.063  0.3989  0.2159  1.3644
  157SAPE  C31417560   1.837   4.354   8.270  0.2229 -0.2092 -0.3131
  157SAPE  H14X17561   1.867   4.252   8.241 -1.1953 -0.5154 -0.8041
  157SAPE  H14Y17562   1.762   4.332   8.350  0.2672 -0.1368 -0.2504
  157SAPE  C31517563   1.958   4.429   8.325 -0.7099 -0.3570 -0.2257
  157SAPE  H15X17564   2.037   4.446   8.249  0.5083 -0.6304  0.9482
  157SAPE  H15Y17565   1.996   4.358   8.401  0.2116  0.1765 -0.1745
  157SAPE  C31617566   1.924   4.563   8.382 -0.3527  0.3397  0.9302
  157SAPE  H16X17567   1.835   4.539   8.444 -0.0765 -2.7231  0.2990
  157SAPE  H16Y17568   1.904   4.633   8.298  0.2729 -0.6883 -0.1021
  157SAPE  C31717569   2.032   4.612   8.472 -0.8201 -0.4899  0.4554
  157SAPE  H17X17570   2.063   4.526   8.536 -0.1738  0.2997  1.2225
  157SAPE  H17Y17571   1.991   4.698   8.529  0.6690  0.7461 -0.2531
  157SAPE  C31817572   2.158   4.659   8.397  0.6627 -0.2163 -0.4620
  157SAPE  H18X17573   2.217   4.730   8.458 -0.7489 -0.8483  1.7535
  157SAPE  H18Y17574   2.129   4.704   8.299 -0.0229  1.8738  0.6316
  157SAPE  H18Z17575   2.217   4.568   8.373 -0.2319 -1.3018  1.2411
  158SAPE     N17576   1.241   3.584   6.003 -0.5655 -0.1000 -0.0194
  158SAPE   HN117577   1.280   3.668   5.956  1.0642 -0.3149  0.8555
  158SAPE   HN217578   1.217   3.514   5.929 -1.5783 -0.6404  0.8004
  158SAPE   HN317579   1.147   3.602   6.043 -0.8349 -0.3975 -0.4978
  158SAPE   C1217580   1.335   3.536   6.109 -0.0864 -0.0772 -0.5043
  158SAPE  H12A17581   1.436   3.525   6.064 -0.0524 -0.3711 -0.3547
  158SAPE  H12B17582   1.301   3.441   6.155 -2.8940  1.1311  0.1622
  158SAPE   C1117583   1.352   3.617   6.240  0.3169 -0.2917 -0.3303
  158SAPE  H11A17584   1.415   3.705   6.214  0.6776  0.3342  2.3019
  158SAPE  H11B17585   1.408   3.561   6.318  1.2442  0.4830 -0.4264
  158SAPE     P17586   1.207   3.738   6.421 -0.2056 -0.5087  0.4872
  158SAPE   O1317587   1.301   3.855   6.416  0.6062 -0.1696 -0.3206
  158SAPE   O1417588   1.064   3.767   6.457  0.2249 -0.0041 -0.0310
  158SAPE   O1217589   1.221   3.663   6.286 -0.1246 -1.1720 -0.5353
  158SAPE   O1117590   1.277   3.645   6.525 -0.2743  0.9009  0.3189
  158SAPE    C117591   1.261   3.505   6.534 -0.8087 -0.3768 -0.1487
  158SAPE    HA17592   1.205   3.455   6.451  1.1373 -2.2995 -0.3983
  158SAPE    HB17593   1.362   3.460   6.531 -0.5959 -0.0836  1.6619
  158SAPE    C217594   1.196   3.471   6.675  0.8696 -0.1024 -0.0892
  158SAPE    HS17595   1.165   3.365   6.686 -0.3873  0.1856 -0.5853
  158SAPE   O2117596   1.078   3.558   6.701 -0.3443  0.3029  0.2920
  158SAPE   C2117597   0.971   3.521   6.636  0.2336 -0.8430 -0.1069
  158SAPE   O2217598   0.971   3.431   6.549 -0.3617 -0.0465 -0.5712
  158SAPE   C2217599   0.845   3.599   6.687  0.7793  0.3509 -0.3242
  158SAPE   H2R17600   0.850   3.707   6.659 -2.2465  0.5768 -0.2497
  158SAPE   H2S17601   0.762   3.557   6.628  2.3882 -0.0328 -2.4494
  158SAPE    C317602   1.305   3.507   6.785 -0.3611  0.5515 -0.0117
  158SAPE    HX17603   1.315   3.617   6.770 -0.6450  0.4085 -1.3897
  158SAPE    HY17604   1.397   3.454   6.753 -1.2547 -2.5030  2.0436
  158SAPE   O3117605   1.262   3.476   6.920 -0.6108  0.2898 -0.2921
  158SAPE   C3117606   1.268   3.348   6.951  0.0863 -1.0119  0.1634
  158SAPE   O3217607   1.307   3.260   6.878  0.4733 -0.4525 -0.0220
  158SAPE   C3217608   1.222   3.330   7.093  0.3202 -0.2567 -0.4507
  158SAPE   H2X17609   1.124   3.380   7.108  1.5503  2.0835  0.3754
  158SAPE   H2Y17610   1.299   3.383   7.153  1.6570 -0.9079 -1.5326
  158SAPE   C2317611   0.823   3.584   6.833  0.0167 -0.1001 -0.1575
  158SAPE   H3R17612   0.857   3.484   6.866  2.3544  0.6660 -0.0748
  158SAPE   H3S17613   0.718   3.597   6.867 -0.3115  2.7701 -1.9252
  158SAPE   C2417614   0.915   3.681   6.911  0.4658 -0.7000 -0.2952
  158SAPE   H4R17615   0.884   3.786   6.895  3.0286  0.4203  1.5184
  158SAPE   H4S17616   1.025   3.685   6.893  0.6583  0.9333  1.0501
  158SAPE   C2517617   0.889   3.651   7.055  0.0870  0.4834 -0.0547
  158SAPE   H5R17618   0.799   3.590   7.070  0.6779 -0.2653  0.6105
  158SAPE   C2617619   0.965   3.678   7.162 -0.4414 -0.6055  0.3179
  158SAPE   H6R17620   0.934   3.653   7.264  0.1412  3.7384  1.7651
  158SAPE   C2717621   1.096   3.750   7.158 -0.4742  0.4911 -0.1663
  158SAPE   H7R17622   1.090   3.834   7.085 -2.0735  1.8643  1.4664
  158SAPE   H7S17623   1.166   3.686   7.100 -0.0527 -1.0341  1.9161
  158SAPE   C2817624   1.180   3.781   7.285  0.0051  1.0856 -0.3183
  158SAPE   H8R17625   1.219   3.883   7.281 -3.3882  2.6025  1.2472
  158SAPE   C2917626   1.197   3.705   7.402 -0.6343 -0.4113  0.3461
  158SAPE   H9R17627   1.267   3.742   7.478  0.1413 -1.4869  0.1724
  158SAPE  C21017628   1.149   3.570   7.442 -0.8792  0.0277  0.1229
  158SAPE  H10R17629   1.242   3.523   7.481 -1.0448 -0.8887 -0.5507
  158SAPE  H10S17630   1.112   3.503   7.362 -2.1718 -0.0947  0.7948
  158SAPE  C21117631   1.048   3.588   7.550  0.5344  0.0243 -0.2967
  158SAPE  H11R17632   0.946   3.616   7.519 -0.7974 -1.4749  2.2910
  158SAPE  C21217633   1.067   3.563   7.683  0.1437 -0.4123 -0.7042
  158SAPE  H12R17634   0.981   3.586   7.747  0.1532 -0.0381 -0.8228
  158SAPE  C21317635   1.198   3.533   7.756  0.7850  0.6770  0.1039
  158SAPE  H13R17636   1.273   3.615   7.748  0.0442  1.4153  0.4975
  158SAPE  H13S17637   1.241   3.443   7.708 -0.3852  0.7834 -1.2215
  158SAPE  C21417638   1.171   3.486   7.898  0.1286 -0.3350  0.3711
  158SAPE  H14R17639   1.109   3.395   7.900  0.9080 -0.8855 -0.0403
  158SAPE  C21517640   1.219   3.538   8.010  0.2642  0.4313 -0.3255
  158SAPE  H15R17641   1.180   3.495   8.103  3.0465 -0.3469  0.5813
  158SAPE  C21617642   1.297   3.665   8.032 -0.4020 -0.0909 -0.3353
  158SAPE  H16R17643   1.272   3.731   7.946 -0.0755 -1.1777 -1.2858
  158SAPE  H16S17644   1.406   3.651   8.019 -0.1356  0.6050  0.9715
  158SAPE  C21717645   1.273   3.741   8.159 -0.3173 -0.2710  0.6321
  158SAPE  H17R17646   1.171   3.776   8.184  0.0626  4.0256 -2.6705
  158SAPE  H17S17647   1.341   3.828   8.153  2.0530 -1.7480  3.3739
  158SAPE  C21817648   1.342   3.674   8.283  0.5167  0.2348  0.6083
  158SAPE  H18R17649   1.442   3.642   8.247  0.5008  0.4096  0.4096
  158SAPE  H18S17650   1.298   3.575   8.309  0.4654  0.4537  1.3716
  158SAPE  C21917651   1.362   3.769   8.406 -0.2387  0.0297 -0.6444
  158SAPE  H19R17652   1.263   3.803   8.443 -0.2510 -2.0897  1.4477
  158SAPE  H19S17653   1.421   3.860   8.381 -1.5668  1.0605 -0.1314
  158SAPE  C22017654   1.430   3.701   8.531 -0.2269 -0.2764  0.1035
  158SAPE  H20R17655   1.527   3.660   8.495 -0.2359  1.4868 -2.1947
  158SAPE  H20S17656   1.382   3.606   8.562  3.1664 -2.8727 -1.8260
  158SAPE  H20T17657   1.451   3.774   8.612  1.1033  1.8827 -2.0416
  158SAPE   C3317658   1.214   3.186   7.137 -0.5466 -0.6984 -0.2780
  158SAPE   H3X17659   1.304   3.130   7.103  0.2040  1.0043 -1.2026
  158SAPE   H3Y17660   1.132   3.127   7.091 -0.0206 -2.1367  0.5601
  158SAPE   C3417661   1.191   3.181   7.286 -0.5062 -0.0958 -0.0056
  158SAPE   H4X17662   1.132   3.089   7.305  1.5067 -2.2509 -3.2841
  158SAPE   H4Y17663   1.125   3.265   7.317 -0.9126 -0.0171 -1.0116
  158SAPE   C3517664   1.317   3.173   7.366 -0.8823  0.0350  0.4300
  158SAPE   H5X17665   1.389   3.257   7.354 -0.5648 -0.2797  0.1111
  158SAPE   H5Y17666   1.371   3.084   7.328 -2.6543 -0.0133 -2.2281
  158SAPE   C3617667   1.284   3.154   7.518 -0.6922 -0.2612 -0.1845
  158SAPE   H6X17668   1.215   3.068   7.532 -1.8993  0.7179  0.1221
  158SAPE   H6Y17669   1.228   3.246   7.544 -0.0101 -0.1687  1.0185
  158SAPE   C3717670   1.407   3.122   7.601  0.6996  0.0012 -0.1550
  158SAPE   H7X17671   1.434   3.014   7.600  1.2388  0.1354 -0.1714
  158SAPE   H7Y17672   1.502   3.169   7.571  1.3911 -0.3145  1.4398
  158SAPE   C3817673   1.378   3.170   7.746 -0.6170 -0.0025  0.7914
  158SAPE   H8X17674   1.296   3.103   7.782  2.5622 -2.8422  3.3743
  158SAPE   H8Y17675   1.359   3.279   7.750 -2.7864 -0.3020  0.2996
  158SAPE   C3917676   1.502   3.157   7.833 -1.0977 -0.2025 -0.1557
  158SAPE   H9X17677   1.589   3.218   7.801 -1.6489  1.6692  1.6787
  158SAPE   H9Y17678   1.534   3.051   7.836 -0.2343  0.0297 -0.8762
  158SAPE  C31017679   1.470   3.200   7.980  0.4037 -0.0116  1.1397
  158SAPE  H10X17680   1.463   3.103   8.035  2.4457 -0.8918 -0.0187
  158SAPE  H10Y17681   1.370   3.247   7.991  0.2805  0.2678 -0.8219
  158SAPE  C31117682   1.574   3.284   8.046  0.7556  0.4185 -0.1109
  158SAPE  H11X17683   1.590   3.371   7.979  0.1998  0.3594 -0.3240
  158SAPE  H11Y17684   1.672   3.235   8.035  0.3432 -0.5736  0.5085
  158SAPE  C31217685   1.538   3.324   8.190  0.3851  0.4561  0.3142
  158SAPE  H12X17686   1.521   3.229   8.243 -0.0449 -0.0059 -0.6249
  158SAPE  H12Y17687   1.444   3.383   8.198 -0.5843 -0.7285 -1.6451
  158SAPE  C31317688   1.640   3.417   8.258 -0.5535  1.5122 -0.1405
  158SAPE  H13X17689   1.607   3.453   8.357  1.4764 -1.4369  1.7633
  158SAPE  H13Y17690   1.661   3.504   8.193 -2.0670  1.3474 -0.9185
  158SAPE  C31417691   1.775   3.338   8.276  0.6271  0.4262  0.1783
  158SAPE  H14X17692   1.834   3.405   8.342  1.8383 -0.8031  0.3693
  158SAPE  H14Y17693   1.830   3.330   8.181  0.0325  1.7548 -0.3093
  158SAPE  C31517694   1.780   3.212   8.350  0.6674  0.5335  0.0552
  158SAPE  H15X17695   1.744   3.124   8.292  0.7503 -0.2161  1.1179
  158SAPE  H15Y17696   1.719   3.216   8.442  0.5952 -0.5713  0.0698
  158SAPE  C31617697   1.917   3.160   8.394 -0.1160 -0.0077 -0.5400
  158SAPE  H16X17698   1.913   3.062   8.445  0.5252  0.5839  0.6790
  158SAPE  H16Y17699   1.954   3.236   8.466  2.8973 -0.3566 -1.5757
  158SAPE  C31717700   2.011   3.133   8.289 -0.0553 -0.1745 -0.0187
  158SAPE  H17X17701   2.030   3.233   8.244  1.0414  0.6524  2.1418
  158SAPE  H17Y17702   1.957   3.060   8.225 -1.1492  0.1889  0.4608
  158SAPE  C31817703   2.146   3.081   8.335 -0.6719 -0.1832  0.0633
  158SAPE  H18X17704   2.222   3.060   8.257  2.0373 -0.3156  2.5594
  158SAPE  H18Y17705   2.133   2.990   8.397 -1.2544 -0.2041 -0.0868
  158SAPE  H18Z17706   2.189   3.160   8.400 -1.2917  0.7638 -0.6569
  159SAPE     N17707   3.449   6.243   6.354  0.5683  0.0834 -0.2502
  159SAPE   HN117708   3.505   6.194   6.281 -0.0858  1.1225 -1.4995
  159SAPE   HN217709   3.359   6.279   6.316 -0.5965 -1.5636  0.7874
  159SAPE   HN317710   3.502   6.328   6.380 -1.2994  0.8946  1.1403
  159SAPE   C1217711   3.433   6.156   6.472  0.5809  0.2012 -1.1127
  159SAPE  H12A17712   3.531   6.135   6.519  0.8090  0.3179 -1.5366
  159SAPE  H12B17713   3.390   6.060   6.435 -1.2090  0.0238  1.1791
  159SAPE   C1117714   3.338   6.222   6.581 -0.0827  0.1846  0.2033
  159SAPE  H11A17715   3.399   6.303   6.627  1.7150  0.7091 -2.8496
  159SAPE  H11B17716   3.323   6.150   6.664 -0.3239  0.1592  0.1377
  159SAPE     P17717   3.087   6.188   6.528 -0.1063 -0.0776  0.0629
  159SAPE   O1317718   2.975   6.275   6.490  0.5432 -0.1403 -1.2937
  159SAPE   O1417719   3.103   6.071   6.441  0.3215  0.8064 -0.0767
  159SAPE   O1217720   3.220   6.276   6.522 -0.0079 -0.2286 -0.0683
  159SAPE   O1117721   3.083   6.139   6.681  0.2225 -0.2586 -0.2980
  159SAPE    C117722   2.994   6.044   6.735 -0.1411  0.0449  0.0813
  159SAPE    HA17723   2.973   5.965   6.659  3.3266 -0.8641 -0.1305
  159SAPE    HB17724   3.033   5.996   6.827  0.0238 -1.2749 -0.6430
  159SAPE    C217725   2.858   6.116   6.785 -0.2829 -1.2506  0.5068
  159SAPE    HS17726   2.796   6.140   6.696  0.7008  1.1402  0.3916
  159SAPE   O2117727   2.896   6.242   6.855 -0.6308  0.8348 -0.2810
  159SAPE   C2117728   2.814   6.340   6.844  0.7399  0.3872 -0.2218
  159SAPE   O2217729   2.716   6.349   6.771  0.4385 -0.1808 -0.2848
  159SAPE   C2217730   2.863   6.450   6.949  0.0436  0.2468  0.1709
  159SAPE   H2R17731   2.974   6.448   6.956  0.0051  1.0527  1.2280
  159SAPE   H2S17732   2.840   6.550   6.905  1.1338  0.2150 -0.5330
  159SAPE    C317733   2.763   6.019   6.864 -0.7093 -0.5963  0.0920
  159SAPE    HX17734   2.776   5.933   6.796  1.3415  0.6902 -1.2438
  159SAPE    HY17735   2.658   6.057   6.868 -0.0614  1.3964 -0.8531
  159SAPE   O3117736   2.817   5.986   6.986  0.4279 -0.4284 -0.5193
  159SAPE   C3117737   2.863   5.871   7.009 -0.3113  0.2525  0.2126
  159SAPE   O3217738   2.874   5.774   6.930  0.0578 -0.2264 -0.4132
  159SAPE   C3217739   2.922   5.875   7.147 -0.1729 -0.4214  0.0408
  159SAPE   H2X17740   2.847   5.908   7.222  1.5544  0.5929  1.3833
  159SAPE   H2Y17741   2.999   5.955   7.145  0.0667 -0.6514  0.0363
  159SAPE   C2317742   2.799   6.434   7.085 -0.0302  0.0449 -0.0552
  159SAPE   H3R17743   2.689   6.444   7.068 -0.2754  0.7778  1.7095
  159SAPE   H3S17744   2.825   6.529   7.137  1.8559  0.8452 -2.3109
  159SAPE   C2417745   2.825   6.304   7.160  0.7035 -0.2482  0.3761
  159SAPE   H4R17746   2.772   6.218   7.113  1.4252 -0.4878 -0.0170
  159SAPE   H4S17747   2.784   6.316   7.262  0.1091  1.1586 -0.0073
  159SAPE   C2517748   2.979   6.282   7.175  0.7686  0.1405 -0.3853
  159SAPE   H5R17749   3.033   6.288   7.079  3.3368  1.9816  1.0480
  159SAPE   C2617750   3.045   6.263   7.289  0.2280 -0.5217 -0.5585
  159SAPE   H6R17751   3.153   6.247   7.272 -0.1076 -0.3494 -3.2623
  159SAPE   C2717752   2.995   6.251   7.429 -0.0087  0.2815  0.5081
  159SAPE   H7R17753   2.888   6.275   7.445 -0.0675 -0.8836  2.2280
  159SAPE   H7S17754   3.050   6.320   7.497  0.3241 -1.4791  2.1158
  159SAPE   C2817755   3.001   6.111   7.488  0.1271  0.1415 -0.0601
  159SAPE   H8R17756   3.027   6.025   7.425 -2.1459  0.0410 -0.9317
  159SAPE   C2917757   2.979   6.080   7.616 -0.1036  0.1973 -0.2460
  159SAPE   H9R17758   2.979   5.973   7.639 -1.8707 -0.6716 -3.7127
  159SAPE  C21017759   2.937   6.174   7.728  0.1468  0.7518  0.0241
  159SAPE  H10R17760   2.832   6.147   7.751 -0.6525  0.9521 -2.9735
  159SAPE  H10S17761   2.924   6.278   7.692 -4.0809  0.9379  1.5147
  159SAPE  C21117762   3.034   6.169   7.845  0.2082  0.4437  0.4421
  159SAPE  H11R17763   3.122   6.105   7.831 -0.2727 -1.0270  3.3705
  159SAPE  C21217764   3.012   6.230   7.957  0.1324  0.3868 -0.0462
  159SAPE  H12R17765   3.085   6.218   8.039  0.0330 -0.6099 -0.0895
  159SAPE  C21317766   2.889   6.309   7.987 -0.6873  0.6222 -0.2899
  159SAPE  H13R17767   2.886   6.321   8.097 -0.2777  1.6950 -0.3825
  159SAPE  H13S17768   2.804   6.247   7.953  0.6781 -0.7716 -1.3057
  159SAPE  C21417769   2.889   6.448   7.927 -0.2291 -0.0059  0.5544
  159SAPE  H14R17770   2.982   6.501   7.950 -0.9632  0.7678  1.8554
  159SAPE  C21517771   2.792   6.512   7.852 -0.3820  0.2732  0.3167
  159SAPE  H15R17772   2.807   6.616   7.819 -1.6913  0.6152  0.7361
  159SAPE  C21617773   2.662   6.457   7.806 -0.2502  0.1344 -0.8722
  159SAPE  H16R17774   2.591   6.533   7.844 -0.4295  0.8425 -2.5184
  159SAPE  H16S17775   2.642   6.362   7.860 -0.1842  0.9791  0.6703
  159SAPE  C21717776   2.652   6.443   7.656 -0.5885  0.4434 -0.4324
  159SAPE  H17R17777   2.560   6.383   7.639 -0.4839 -0.8682  2.8776
  159SAPE  H17S17778   2.737   6.383   7.617  0.1126  1.2268 -0.1412
  159SAPE  C21817779   2.644   6.580   7.587  0.7565  0.4275 -0.5856
  159SAPE  H18R17780   2.728   6.644   7.623  1.5140 -0.8810  0.0720
  159SAPE  H18S17781   2.547   6.631   7.602  0.5700  0.0996 -0.6814
  159SAPE  C21917782   2.662   6.563   7.436 -0.2031 -0.1879 -0.0022
  159SAPE  H19R17783   2.584   6.499   7.391 -1.4311  1.3334 -0.1194
  159SAPE  H19S17784   2.764   6.521   7.417 -0.2321  0.0638 -0.7777
  159SAPE  C22017785   2.657   6.695   7.355 -0.5578 -0.0088  0.1765
  159SAPE  H20R17786   2.704   6.676   7.256 -1.0399  0.3763 -0.1306
  159SAPE  H20S17787   2.720   6.768   7.411 -1.1439 -0.5460  1.5935
  159SAPE  H20T17788   2.553   6.731   7.342 -0.2840  0.7623  0.0879
  159SAPE   C3317789   3.006   5.748   7.190  0.2552 -0.0411  0.7640
  159SAPE   H3X17790   3.110   5.786   7.193  0.2302  0.1152 -0.1525
  159SAPE   H3Y17791   2.997   5.666   7.115  1.5600  1.5338 -1.2118
  159SAPE   C3417792   2.974   5.684   7.321  0.2285  0.4955 -0.3412
  159SAPE   H4X17793   2.978   5.768   7.394 -0.0025  2.3093 -2.3076
  159SAPE   H4Y17794   3.053   5.607   7.336 -1.2578 -1.3541 -1.5486
  159SAPE   C3517795   2.836   5.623   7.331 -0.2398  0.4702  0.0606
  159SAPE   H5X17796   2.820   5.533   7.268 -0.1212 -0.1144  0.8483
  159SAPE   H5Y17797   2.770   5.706   7.297  1.2495  2.0020  0.7533
  159SAPE   C3617798   2.791   5.588   7.475 -0.3976 -0.3832  0.5373
  159SAPE   H6X17799   2.804   5.682   7.532 -1.1514  0.4661 -0.6617
  159SAPE   H6Y17800   2.867   5.514   7.509  1.6609  0.8582 -1.1313
  159SAPE   C3717801   2.643   5.535   7.492 -0.8270  0.0418  0.8268
  159SAPE   H7X17802   2.623   5.521   7.601 -0.7189 -0.5404  0.7713
  159SAPE   H7Y17803   2.651   5.438   7.439 -0.5883  0.8344 -0.6462
  159SAPE   C3817804   2.535   5.619   7.430  0.3813 -0.5862  0.9521
  159SAPE   H8X17805   2.547   5.620   7.320  1.4231 -0.9920  1.0451
  159SAPE   H8Y17806   2.543   5.728   7.448 -2.6511 -0.0307 -0.5251
  159SAPE   C3917807   2.393   5.589   7.475 -0.4213 -0.7317 -0.3477
  159SAPE   H9X17808   2.325   5.658   7.422  1.1866 -0.5252 -2.2677
  159SAPE   H9Y17809   2.372   5.613   7.582  0.7446 -0.1339 -0.2400
  159SAPE  C31017810   2.350   5.444   7.453 -0.6238  0.1732  0.9661
  159SAPE  H10X17811   2.416   5.386   7.521  0.1369 -0.1898 -0.0569
  159SAPE  H10Y17812   2.377   5.414   7.350  1.0590  2.5065  0.6372
  159SAPE  C31117813   2.198   5.422   7.471  0.6191  0.1443  0.0233
  159SAPE  H11X17814   2.190   5.446   7.579 -1.8368  0.5286 -0.1952
  159SAPE  H11Y17815   2.171   5.319   7.439  0.1859 -0.9377  3.4785
  159SAPE  C31217816   2.102   5.516   7.400  0.5196 -0.1293  0.1659
  159SAPE  H12X17817   2.121   5.542   7.294  0.9619  1.7369  0.6608
  159SAPE  H12Y17818   2.107   5.617   7.445 -2.6599  1.1357 -1.9549
  159SAPE  C31317819   1.960   5.470   7.422 -0.2208  0.6944 -0.4577
  159SAPE  H13X17820   1.961   5.453   7.532  2.1519  3.2362  0.0195
  159SAPE  H13Y17821   1.941   5.377   7.363 -2.5735  1.2679 -0.6978
  159SAPE  C31417822   1.854   5.568   7.383  0.3832 -0.3162  0.5237
  159SAPE  H14X17823   1.859   5.587   7.274 -0.3080 -1.3060  0.2994
  159SAPE  H14Y17824   1.868   5.662   7.440 -1.0826  0.5287 -0.4314
  159SAPE  C31517825   1.712   5.513   7.411  0.0759 -0.0356  0.4579
  159SAPE  H15X17826   1.692   5.409   7.377  0.4383  0.5013 -1.5208
  159SAPE  H15Y17827   1.632   5.569   7.359 -1.8435 -1.2290  1.9747
  159SAPE  C31617828   1.664   5.531   7.555 -0.5591  0.6976 -0.1549
  159SAPE  H16X17829   1.670   5.641   7.569  0.7610  0.5063  1.0318
  159SAPE  H16Y17830   1.733   5.479   7.625  1.0054  1.2261 -1.2628
  159SAPE  C31717831   1.525   5.472   7.575  0.5436 -0.4449  0.2788
  159SAPE  H17X17832   1.534   5.370   7.530  0.4447 -0.6866  0.8001
  159SAPE  H17Y17833   1.466   5.536   7.506  2.7740  3.5991  1.8191
  159SAPE  C31817834   1.484   5.476   7.720  0.3291  0.0038 -0.4868
  159SAPE  H18X17835   1.543   5.408   7.785 -1.4863 -2.3484 -1.1610
  159SAPE  H18Y17836   1.375   5.452   7.727  0.5112 -0.3475  2.3846
  159SAPE  H18Z17837   1.495   5.581   7.757  1.0481  0.8675 -2.9901
  160SAPE     N17838   3.434   3.369   6.292  0.2277 -0.4112 -0.0323
  160SAPE   HN117839   3.370   3.318   6.356 -2.4547  1.1187 -1.2867
  160SAPE   HN217840   3.427   3.338   6.193  2.2569  3.7102 -1.7027
  160SAPE   HN317841   3.528   3.331   6.313  0.0481 -0.3483  0.9409
  160SAPE   C1217842   3.428   3.522   6.301  0.0435 -0.0958  0.5504
  160SAPE  H12A17843   3.321   3.545   6.280  0.1059  0.2095  0.5555
  160SAPE  H12B17844   3.494   3.571   6.227 -1.4672  0.1440 -0.6963
  160SAPE   C1117845   3.463   3.576   6.443  0.4281  0.7931 -0.7769
  160SAPE  H11A17846   3.410   3.526   6.527  1.5164  1.1128  0.1312
  160SAPE  H11B17847   3.429   3.682   6.436  1.1792  1.1430  0.5520
  160SAPE     P17848   3.687   3.686   6.540  0.4067 -0.0540 -0.0005
  160SAPE   O1317849   3.821   3.631   6.556 -0.2121  0.2772  0.3628
  160SAPE   O1417850   3.677   3.793   6.439  0.3816  0.3488  0.6087
  160SAPE   O1217851   3.596   3.564   6.490  0.1805 -0.4658 -0.2081
  160SAPE   O1117852   3.636   3.742   6.676 -0.0032  0.0753  0.1532
  160SAPE    C117853   3.639   3.661   6.797  0.1771 -0.4594 -0.7205
  160SAPE    HA17854   3.725   3.591   6.800 -1.1012 -2.1334 -1.2291
  160SAPE    HB17855   3.644   3.725   6.888 -1.3713 -3.5781  1.7607
  160SAPE    C217856   3.510   3.575   6.824  0.2219  0.0885 -0.0640
  160SAPE    HS17857   3.503   3.507   6.736  3.1716  1.7279 -1.7609
  160SAPE   O2117858   3.393   3.653   6.833  0.6443 -0.1180 -0.3398
  160SAPE   C2117859   3.276   3.592   6.835 -0.8224  0.0970 -0.1370
  160SAPE   O2217860   3.257   3.474   6.812 -0.6210 -0.6385 -0.0644
  160SAPE   C2217861   3.157   3.693   6.851 -0.5617  0.4425 -0.1202
  160SAPE   H2R17862   3.164   3.763   6.765  2.2381  2.6155  1.6881
  160SAPE   H2S17863   3.074   3.619   6.853  1.0826 -1.5162 -0.9239
  160SAPE    C317864   3.528   3.482   6.948 -0.2749  0.0641  0.8673
  160SAPE    HX17865   3.623   3.426   6.936 -0.5465 -0.2226 -0.0266
  160SAPE    HY17866   3.437   3.419   6.946 -2.2851  2.8373 -0.1921
  160SAPE   O3117867   3.532   3.557   7.065  0.2229 -0.0962 -0.2554
  160SAPE   C3117868   3.522   3.482   7.169  0.2325  0.8552 -0.0873
  160SAPE   O3217869   3.468   3.371   7.177  0.1118  0.2516  0.0179
  160SAPE   C3217870   3.568   3.562   7.290  0.2326 -0.7684  0.0781
  160SAPE   H2X17871   3.491   3.636   7.318 -2.4239 -3.0934 -0.6694
  160SAPE   H2Y17872   3.660   3.621   7.270 -1.6783  1.3162 -3.6082
  160SAPE   C2317873   3.153   3.777   6.986  0.4301  0.4010 -0.0066
  160SAPE   H3R17874   3.253   3.822   7.008 -0.3818  2.2272  0.1321
  160SAPE   H3S17875   3.129   3.701   7.062 -0.7632 -0.7553 -1.4834
  160SAPE   C2417876   3.048   3.891   6.980  0.2056  0.1629  0.6003
  160SAPE   H4R17877   3.054   3.934   7.083  0.4437  1.6980 -0.0259
  160SAPE   H4S17878   2.943   3.859   6.966  0.0338  0.5621  0.9610
  160SAPE   C2517879   3.098   3.992   6.883  0.1975 -0.6258  0.6705
  160SAPE   H5R17880   3.206   3.994   6.863  0.3096  1.0953  1.3543
  160SAPE   C2617881   3.020   4.083   6.812 -0.2328 -0.1663 -0.2961
  160SAPE   H6R17882   3.058   4.148   6.732  1.2875  0.4350  0.8582
  160SAPE   C2717883   2.875   4.097   6.838  0.2337  0.4415  0.3789
  160SAPE   H7R17884   2.858   4.090   6.948  0.0800  0.6716  0.3709
  160SAPE   H7S17885   2.819   4.033   6.767  1.2635  2.5925 -2.6091
  160SAPE   C2817886   2.819   4.235   6.795 -0.0599 -0.1941 -0.6066
  160SAPE   H8R17887   2.787   4.247   6.690 -1.9233  0.3185 -0.0287
  160SAPE   C2917888   2.791   4.340   6.880 -0.1643 -0.1049 -0.1428
  160SAPE   H9R17889   2.769   4.436   6.832 -0.8089  0.5773  1.4311
  160SAPE  C21017890   2.811   4.363   7.029  0.0450 -0.0762 -0.2725
  160SAPE  H10R17891   2.805   4.471   7.050  0.9830  0.1713 -1.1882
  160SAPE  H10S17892   2.920   4.353   7.048 -0.0390 -0.3845  0.0785
  160SAPE  C21117893   2.720   4.291   7.124 -0.1971 -0.1627  0.0072
  160SAPE  H11R17894   2.615   4.284   7.091 -0.2556  2.4009 -0.5706
  160SAPE  C21217895   2.738   4.235   7.240 -0.6265  0.9575  0.5151
  160SAPE  H12R17896   2.649   4.197   7.292 -0.4246  0.7352  0.7032
  160SAPE  C21317897   2.865   4.221   7.317 -0.1113 -0.8939 -0.2150
  160SAPE  H13R17898   2.891   4.305   7.385 -1.9314 -1.7475  1.6432
  160SAPE  H13S17899   2.947   4.219   7.242 -0.7381  0.5083 -0.9845
  160SAPE  C21417900   2.879   4.085   7.375 -0.6287  0.3540 -0.0258
  160SAPE  H14R17901   2.810   4.009   7.335 -0.9227  0.6866 -0.1530
  160SAPE  C21517902   2.962   4.050   7.481  0.4569 -0.0989  0.0993
  160SAPE  H15R17903   2.966   3.943   7.504 -0.6189 -0.3804 -0.9863
  160SAPE  C21617904   3.058   4.130   7.567  0.2035  0.3675  0.2307
  160SAPE  H16R17905   3.045   4.231   7.522 -1.5711 -0.1554 -0.4958
  160SAPE  H16S17906   3.157   4.090   7.536 -0.1582  0.8087 -1.5943
  160SAPE  C21717907   3.053   4.130   7.718  0.1293 -0.2250  0.7621
  160SAPE  H17R17908   3.046   4.023   7.746  0.5721 -0.4975 -0.1353
  160SAPE  H17S17909   2.955   4.180   7.733 -0.6699 -0.4352 -2.8281
  160SAPE  C21817910   3.167   4.206   7.779  0.9947 -0.5266 -0.9072
  160SAPE  H18R17911   3.159   4.316   7.768 -1.6147 -0.6164 -0.6365
  160SAPE  H18S17912   3.265   4.187   7.731  0.9537  1.9129 -2.0954
  160SAPE  C21917913   3.186   4.160   7.928 -1.0438 -0.1016 -0.6192
  160SAPE  H19R17914   3.275   4.214   7.967 -1.7162  0.6874 -0.1372
  160SAPE  H19S17915   3.207   4.051   7.921  1.3777  0.1806  1.0146
  160SAPE  C22017916   3.077   4.198   8.031  0.9172 -0.0036 -0.0425
  160SAPE  H20R17917   3.019   4.288   8.003 -0.2190 -0.9331 -0.7826
  160SAPE  H20S17918   3.100   4.205   8.140  0.6791  0.7093 -0.0348
  160SAPE  H20T17919   3.004   4.114   8.041  1.7642 -0.6185  1.3411
  160SAPE   C3317920   3.593   3.476   7.407  0.1125  0.3675  0.3067
  160SAPE   H3X17921   3.670   3.400   7.380 -0.4361 -0.6753  1.5591
  160SAPE   H3Y17922   3.498   3.429   7.440 -1.5345  2.9773 -0.4697
  160SAPE   C3417923   3.637   3.568   7.524  0.2750  0.5902 -0.6135
  160SAPE   H4X17924   3.555   3.634   7.558  0.1481 -1.1059  2.7502
  160SAPE   H4Y17925   3.727   3.628   7.499  1.2870 -0.6827 -0.1866
  160SAPE   C3517926   3.682   3.493   7.653  0.0889  0.1291  0.1583
  160SAPE   H5X17927   3.791   3.471   7.647  0.5112  1.7398  1.0761
  160SAPE   H5Y17928   3.608   3.411   7.662 -1.6063  1.3839 -1.5867
  160SAPE   C3617929   3.671   3.580   7.781 -0.0420 -0.1048 -0.0015
  160SAPE   H6X17930   3.568   3.622   7.777 -0.3075 -0.7401  0.1153
  160SAPE   H6Y17931   3.726   3.676   7.772 -0.8825  0.3001 -1.0293
  160SAPE   C3717932   3.695   3.493   7.915 -0.0299 -0.3514 -0.6664
  160SAPE   H7X17933   3.800   3.459   7.904  0.9843  2.2830  0.1471
  160SAPE   H7Y17934   3.623   3.408   7.921 -1.2226  0.7065  3.6828
  160SAPE   C3817935   3.686   3.573   8.045  0.0749  0.5737  0.1242
  160SAPE   H8X17936   3.581   3.602   8.066 -1.0705 -2.9399 -0.0643
  160SAPE   H8Y17937   3.759   3.657   8.049  2.7254 -1.6012  0.9083
  160SAPE   C3917938   3.726   3.469   8.153  0.4386 -0.5468 -0.4978
  160SAPE   H9X17939   3.828   3.431   8.133  1.2424  1.2572  0.0053
  160SAPE   H9Y17940   3.661   3.379   8.143 -1.6561  0.8620 -0.3432
  160SAPE  C31017941   3.721   3.513   8.304 -0.7946 -0.2264  0.5155
  160SAPE  H10X17942   3.621   3.555   8.327 -0.6088 -0.9201  2.8527
  160SAPE  H10Y17943   3.792   3.596   8.324 -1.0632  0.1502 -0.0657
  160SAPE  C31117944   3.744   3.399   8.402 -0.0011 -0.2990 -0.0307
  160SAPE  H11X17945   3.848   3.360   8.392  0.4174  0.6419  0.5067
  160SAPE  H11Y17946   3.670   3.324   8.367 -0.3052 -0.5236  1.0669
  160SAPE  C31217947   3.719   3.443   8.543 -1.1078 -0.9483 -0.3549
  160SAPE  H12X17948   3.627   3.505   8.549  0.1482  0.9748  0.1216
  160SAPE  H12Y17949   3.810   3.498   8.573 -0.5991 -1.8856 -0.1290
  160SAPE  C31317950   3.712   3.325   8.640 -0.3563  0.2142 -0.6407
  160SAPE  H13X17951   3.808   3.268   8.641  0.2437  1.1419 -2.1555
  160SAPE  H13Y17952   3.629   3.261   8.602  0.8397 -2.3117  0.7226
  160SAPE  C31417953   3.695   3.365   8.791 -0.2037  0.3208  0.3294
  160SAPE  H14X17954   3.591   3.403   8.796  0.3964  2.2209 -0.8561
  160SAPE  H14Y17955   3.765   3.451   8.795 -0.1281  0.5253 -2.9785
  160SAPE  C31517956   3.715   3.256   8.903 -0.4325 -0.2117  0.9498
  160SAPE  H15X17957   3.694   3.303   9.001  1.1677  1.5798  0.4833
  160SAPE  H15Y17958   3.822   3.226   8.899 -0.9747 -2.2651 -0.0382
  160SAPE  C31617959   3.629   3.130   8.892  0.1015  0.0059  0.4674
  160SAPE  H16X17960   3.653   3.086   8.793 -0.2520  2.8940 -1.0160
  160SAPE  H16Y17961   3.523   3.162   8.893  0.1652  0.2688 -0.1906
  160SAPE  C31717962   3.660   3.024   9.003  0.3417 -0.9670 -0.3204
  160SAPE  H17X17963   3.653   3.077   9.100  0.8252 -2.7266  0.7217
  160SAPE  H17Y17964   3.764   2.988   8.988  0.4607 -0.0083 -2.0980
  160SAPE  C31817965   3.571   2.896   9.000 -0.3822  0.7332  0.6554
  160SAPE  H18X17966   3.617   2.817   9.064  0.5811  1.6856  1.1809
  160SAPE  H18Y17967   3.588   2.857   8.897  0.3291  0.2488  0.9423
  160SAPE  H18Z17968   3.462   2.905   9.019 -0.4623  3.0923 -0.5510
  161SOPE     N17969   5.082   1.367  11.185  0.2786  0.4383  0.0333
  161SOPE   HN117970   5.007   1.339  11.119 -0.2385  1.0368  0.3587
  161SOPE   HN217971   5.103   1.275  11.229 -0.8827 -1.5705 -3.2308
  161SOPE   HN317972   5.034   1.431  11.251 -1.3281 -2.7347  2.1647
  161SOPE   C1217973   5.193   1.430  11.106  0.3157  0.0140 -0.5202
  161SOPE  H12A17974   5.270   1.468  11.177 -0.3254  1.5550 -0.6052
  161SOPE  H12B17975   5.149   1.506  11.038 -0.3919 -0.1826 -0.2885
  161SOPE   C1117976   5.262   1.333  11.006 -0.1572  0.2485 -0.1942
  161SOPE  H11A17977   5.184   1.278  10.950 -2.5049  3.8537 -0.7626
  161SOPE  H11B17978   5.321   1.260  11.066 -2.3239 -1.3868  0.0403
  161SOPE     P17979   5.329   1.461  10.772 -0.0065  0.1349  0.0057
  161SOPE   O1317980   5.316   1.352  10.678 -0.2286  0.7637  0.2578
  161SOPE   O1417981   5.430   1.560  10.749 -0.5741  0.6821  0.6303
  161SOPE   O1217982   5.352   1.403  10.916 -0.3285  0.7362  0.2686
  161SOPE   O1117983   5.189   1.541  10.771 -0.5112  0.4890 -0.0853
  161SOPE    C117984   5.069   1.483  10.739  0.8715 -0.0834 -0.5097
  161SOPE    HA17985   4.992   1.525  10.806  0.7896  1.3224 -1.4393
  161SOPE    HB17986   5.064   1.373  10.751 -0.4057 -0.0949 -0.9728
  161SOPE    C217987   5.016   1.497  10.590 -0.1371  0.2366 -0.4874
  161SOPE    HS17988   4.917   1.453  10.570 -0.5069  1.1696 -0.7891
  161SOPE   O2117989   5.096   1.426  10.500 -0.8075 -0.1175  0.5559
  161SOPE   C2117990   5.071   1.293  10.499  0.3946 -0.1786  0.3585
  161SOPE   O2217991   4.997   1.228  10.571 -0.2608  0.6554  0.7667
  161SOPE   C2217992   5.163   1.229  10.389  0.5687 -0.1888  0.5168
  161SOPE   H2R17993   5.195   1.128  10.425  3.0870  1.0752  2.1147
  161SOPE   H2S17994   5.257   1.288  10.386  0.9330 -0.7868 -0.6659
  161SOPE    C317995   5.009   1.650  10.558  0.0620 -0.0106 -0.3047
  161SOPE    HX17996   5.109   1.695  10.573  0.0308  0.3361 -1.1076
  161SOPE    HY17997   4.958   1.705  10.640  0.2076 -0.7796  0.3222
  161SOPE   O3117998   4.971   1.698  10.424 -0.0856  0.2119 -0.3819
  161SOPE   C3117999   4.842   1.678  10.406 -0.2779 -0.4640  0.7993
  161SOPE   O3218000   4.761   1.637  10.489 -0.5124  0.9590  0.2603
  161SOPE   C3218001   4.802   1.744  10.269 -0.7907  0.0001  0.0283
  161SOPE   H2X18002   4.898   1.785  10.230 -0.1967 -1.0200  0.3862
  161SOPE   H2Y18003   4.730   1.827  10.288 -0.3452  0.5389 -0.5950
  161SOPE   C2318004   5.108   1.242  10.242 -0.1817  0.0250 -0.8072
  161SOPE   H3R18005   5.089   1.347  10.213 -1.8041  0.0076  0.0714
  161SOPE   H3S18006   5.008   1.193  10.240 -1.0627  1.7276 -2.8644
  161SOPE   C2418007   5.195   1.166  10.136 -0.7921  0.0711  0.1127
  161SOPE   H4R18008   5.287   1.224  10.114 -0.6534  0.4663  1.6166
  161SOPE   H4S18009   5.216   1.061  10.168 -3.1309 -0.0266  1.6220
  161SOPE   C2518010   5.113   1.161  10.003 -0.5357  0.3701 -0.7964
  161SOPE   H5R18011   5.003   1.169  10.015 -0.5458 -1.1940  0.4472
  161SOPE   H5S18012   5.153   1.249   9.947  0.8031  0.4484  0.2311
  161SOPE   C2618013   5.157   1.048   9.913  0.8815  0.0628  0.4412
  161SOPE   H6R18014   5.264   1.023   9.925  1.0824  1.2435  1.3071
  161SOPE   H6S18015   5.095   0.963   9.949 -0.4895  1.7225  2.2133
  161SOPE   C2718016   5.120   1.075   9.766  0.4454 -0.6423 -0.1916
  161SOPE   H7R18017   5.021   1.124   9.764  1.2426  1.0235 -1.5611
  161SOPE   H7S18018   5.187   1.144   9.711 -0.0622 -0.6256 -0.7921
  161SOPE   C2818019   5.117   0.947   9.679  0.0966  0.0057  0.0603
  161SOPE   H8R18020   5.209   0.888   9.693  0.5396  0.1382 -1.9835
  161SOPE   H8S18021   5.037   0.878   9.715  0.8904 -2.6663 -2.9134
  161SOPE   C2918022   5.099   0.971   9.531 -1.1183  0.1908 -0.3013
  161SOPE   H9118023   5.179   1.025   9.479 -1.9159  1.6918 -0.0229
  161SOPE  C21018024   4.995   0.944   9.456 -0.2623 -0.1961 -0.4274
  161SOPE  H10118025   5.001   0.954   9.346  0.2299  0.3973 -0.3488
  161SOPE  C21118026   4.868   0.878   9.505 -0.0835 -0.1417 -0.3152
  161SOPE  H11R18027   4.771   0.922   9.473  0.3750  2.1900  1.2485
  161SOPE  H11S18028   4.856   0.876   9.616 -0.5044  0.4084 -0.3449
  161SOPE  C21218029   4.872   0.724   9.468 -0.7210 -0.3129 -0.3701
  161SOPE  H12R18030   4.788   0.669   9.515  0.0198 -1.3157 -0.1935
  161SOPE  H12S18031   4.965   0.671   9.498 -1.3209 -0.7411  0.8002
  161SOPE  C21318032   4.851   0.697   9.319 -0.3900  0.4052  0.8564
  161SOPE  H13R18033   4.750   0.739   9.296 -0.6560  1.6129  3.8280
  161SOPE  H13S18034   4.839   0.588   9.300  1.1376  0.7825 -3.4990
  161SOPE  C21418035   4.955   0.747   9.198  0.1746 -0.1112 -0.2701
  161SOPE  H14R18036   5.058   0.752   9.241  1.1919  1.0256 -2.6523
  161SOPE  H14S18037   4.932   0.851   9.168  1.0098  0.2558  0.3235
  161SOPE  C21518038   4.972   0.651   9.080  0.5353 -0.1018 -0.3820
  161SOPE  H15R18039   5.020   0.552   9.096  2.1231  0.6158 -0.4726
  161SOPE  H15S18040   5.042   0.699   9.009  2.1222 -1.3620  0.2655
  161SOPE  C21618041   4.836   0.617   8.999 -1.2617  0.2467 -0.3994
  161SOPE  H16R18042   4.765   0.655   9.075 -1.8731  2.0425 -1.8131
  161SOPE  H16S18043   4.837   0.506   8.987 -1.7857  0.2523 -0.4961
  161SOPE  C21718044   4.823   0.685   8.862 -0.3109 -0.4819  0.4564
  161SOPE  H17R18045   4.727   0.663   8.810  0.5381 -2.7964 -0.2379
  161SOPE  H17S18046   4.912   0.648   8.807 -0.7322 -1.8013  0.6329
  161SOPE  C21818047   4.837   0.838   8.875  0.7235  0.4787 -0.0213
  161SOPE  H18R18048   4.797   0.881   8.780  0.0098  0.0334  0.0709
  161SOPE  H18S18049   4.940   0.874   8.892 -0.0897  2.3167  1.3986
  161SOPE  H18T18050   4.788   0.875   8.967 -0.7745 -1.2959 -0.0405
  161SOPE   C3318051   4.752   1.642  10.155  0.8573 -0.5490 -0.0094
  161SOPE   H3X18052   4.721   1.707  10.071  1.0834  1.4014  1.3475
  161SOPE   H3Y18053   4.665   1.580  10.187  1.7168 -2.6869 -1.5550
  161SOPE   C3418054   4.859   1.553  10.087  0.3075 -0.1170  1.1001
  161SOPE   H4X18055   4.886   1.478  10.165  1.1754 -1.7054 -0.6495
  161SOPE   H4Y18056   4.947   1.621  10.092  0.6372 -0.3047 -1.2646
  161SOPE   C3518057   4.812   1.482   9.962  0.6241  1.0924  0.1880
  161SOPE   H5X18058   4.703   1.461   9.967  0.5585  1.2673 -0.3667
  161SOPE   H5Y18059   4.859   1.381   9.959 -1.0209  0.0097  4.4213
  161SOPE   C3618060   4.852   1.554   9.836 -0.2962 -0.2930  0.7826
  161SOPE   H6X18061   4.963   1.549   9.827 -0.3278 -1.8155  0.9512
  161SOPE   H6Y18062   4.832   1.663   9.843  0.5908 -0.0573 -0.0242
  161SOPE   C3718063   4.777   1.501   9.716  0.0861  0.2905  0.2976
  161SOPE   H7X18064   4.670   1.497   9.743  0.7315 -1.8395  2.9751
  161SOPE   H7Y18065   4.808   1.398   9.691 -4.9379 -1.2900 -0.4372
  161SOPE   C3818066   4.796   1.583   9.586  0.1127  0.1383 -0.0685
  161SOPE   H8X18067   4.906   1.586   9.566  0.2926 -1.3713  0.5041
  161SOPE   H8Y18068   4.767   1.687   9.609  1.0468  0.9555 -2.2790
  161SOPE   C3918069   4.710   1.537   9.470  0.0526  0.2602  0.0242
  161SOPE   H9X18070   4.702   1.620   9.396  0.5989  0.2453 -0.0540
  161SOPE   H9Y18071   4.609   1.530   9.516 -0.5629 -1.3755 -1.4654
  161SOPE  C31018072   4.766   1.413   9.396  0.5473  0.6336  0.1951
  161SOPE  H10X18073   4.679   1.383   9.333  2.3728  0.9871 -2.6495
  161SOPE  H10Y18074   4.786   1.340   9.477  1.9761 -1.4143 -1.8719
  161SOPE  C31118075   4.894   1.420   9.305  0.5086 -0.3003 -0.2097
  161SOPE  H11X18076   4.970   1.475   9.364 -0.6093 -0.0006  1.0045
  161SOPE  H11Y18077   4.866   1.486   9.220  0.0079  1.7358  1.4325
  161SOPE  C31218078   4.952   1.285   9.262 -0.5002  0.1130 -0.8525
  161SOPE  H12X18079   4.865   1.219   9.244  1.4173 -2.2078 -2.0695
  161SOPE  H12Y18080   5.007   1.234   9.344  1.1441  1.0357 -1.3317
  161SOPE  C31318081   5.065   1.288   9.163  0.0552  0.3919  0.2972
  161SOPE  H13X18082   5.158   1.339   9.198  0.7317 -0.1096 -0.6996
  161SOPE  H13Y18083   5.027   1.341   9.073 -1.3438 -0.0123  0.6278
  161SOPE  C31418084   5.097   1.140   9.122  0.7307 -0.0642  0.1982
  161SOPE  H14X18085   5.002   1.098   9.082 -0.3116  2.1850  0.1229
  161SOPE  H14Y18086   5.134   1.087   9.213 -0.0597  0.5925  0.9233
  161SOPE  C31518087   5.207   1.134   9.017 -0.4224 -0.3706 -0.5073
  161SOPE  H15X18088   5.276   1.219   9.037  0.6525 -1.0236 -1.3356
  161SOPE  H15Y18089   5.161   1.155   8.918 -1.1182 -0.2263 -0.1546
  161SOPE  C31618090   5.288   1.002   9.014 -0.0502 -0.3497 -0.8120
  161SOPE  H16X18091   5.224   0.931   8.959 -0.2539  0.6323 -1.8787
  161SOPE  H16Y18092   5.324   0.968   9.114  3.4867  2.1891 -1.0167
  161SOPE  C31718093   5.418   1.027   8.934  0.2182  0.8863  0.9372
  161SOPE  H17X18094   5.495   1.080   8.994  2.3216 -1.1203  0.2062
  161SOPE  H17Y18095   5.414   1.097   8.847  0.3836  0.6056  0.6978
  161SOPE  C31818096   5.489   0.896   8.897 -0.1642  0.5465 -0.3072
  161SOPE  H18X18097   5.417   0.829   8.845 -0.0805  0.0119  0.2516
  161SOPE  H18Y18098   5.519   0.835   8.985  1.5802  3.2244  1.0697
  161SOPE  H18Z18099   5.581   0.921   8.840  1.6105  1.0872  2.5827
  162SOPE     N18100   0.085   0.570  10.951  0.1009  0.1821  0.1792
  162SOPE   HN118101   0.070   0.611  10.856 -1.6941  1.5226  0.9740
  162SOPE   HN218102   0.184   0.587  10.977 -0.2632 -0.1032  1.8601
  162SOPE   HN318103   0.084   0.466  10.943 -1.5279  0.2673 -1.5742
  162SOPE   C1218104  -0.015   0.632  11.045  0.6329  0.2125 -0.1505
  162SOPE  H12A18105   0.009   0.739  11.062 -0.0819  0.6953 -1.9149
  162SOPE  H12B18106  -0.003   0.585  11.145  0.1952  1.0022  0.2766
  162SOPE   C1118107  -0.158   0.610  10.983  0.3438 -0.7731  0.3510
  162SOPE  H11A18108  -0.182   0.509  10.943  0.2333 -1.3706  1.8326
  162SOPE  H11B18109  -0.179   0.680  10.899 -1.4904 -1.6360  0.0399
  162SOPE     P18110  -0.375   0.717  11.092 -0.0121 -0.0600  0.3846
  162SOPE   O1318111  -0.332   0.855  11.057 -0.0229 -0.1342  0.2157
  162SOPE   O1418112  -0.433   0.700  11.223 -0.4564  0.0026 -0.2667
  162SOPE   O1218113  -0.246   0.632  11.094  0.3758  0.6104  0.1579
  162SOPE   O1118114  -0.463   0.654  10.979 -0.0744 -0.0663 -0.6275
  162SOPE    C118115  -0.488   0.515  10.976 -0.4738 -0.5469 -0.0279
  162SOPE    HA18116  -0.585   0.513  11.030 -1.1850 -0.5423 -1.2898
  162SOPE    HB18117  -0.423   0.454  11.044 -1.0088 -0.6456  0.4059
  162SOPE    C218118  -0.496   0.453  10.833  0.3592  0.2935 -0.0595
  162SOPE    HS18119  -0.509   0.343  10.831  0.5337  0.2721  0.0300
  162SOPE   O2118120  -0.372   0.480  10.761 -0.3423  0.0007  0.4235
  162SOPE   C2118121  -0.353   0.412  10.650 -0.2583  0.0152 -0.5215
  162SOPE   O2218122  -0.421   0.314  10.614 -0.8729  0.0200  0.1090
  162SOPE   C2218123  -0.241   0.469  10.568  0.7869 -0.3274  0.8031
  162SOPE   H2R18124  -0.146   0.480  10.624  0.5509 -1.9759  1.6017
  162SOPE   H2S18125  -0.268   0.574  10.544  2.5837  0.0350  0.1922
  162SOPE    C318126  -0.629   0.511  10.759 -1.2891  0.3685 -1.1141
  162SOPE    HX18127  -0.617   0.620  10.776 -0.3432  0.2045 -0.6386
  162SOPE    HY18128  -0.717   0.486  10.822 -0.4483  2.7125  1.1466
  162SOPE   O3118129  -0.636   0.475  10.619  0.1467 -0.3198  0.0151
  162SOPE   C3118130  -0.729   0.372  10.589  0.8573  0.3666  1.1004
  162SOPE   O3218131  -0.788   0.308  10.675  0.7472 -0.0728  0.0462
  162SOPE   C3218132  -0.734   0.357  10.444 -0.4871  0.1253  0.1576
  162SOPE   H2X18133  -0.637   0.336  10.394 -1.2466 -0.0348 -1.3245
  162SOPE   H2Y18134  -0.767   0.456  10.405  0.6601  1.1367  1.6509
  162SOPE   C2318135  -0.229   0.399  10.431  0.1487 -0.0500  0.2313
  162SOPE   H3R18136  -0.313   0.403  10.359  0.6323 -1.4140 -0.4405
  162SOPE   H3S18137  -0.194   0.295  10.451  0.4656 -0.1609 -0.8300
  162SOPE   C2418138  -0.104   0.457  10.363 -0.4937 -0.4744  0.1831
  162SOPE   H4R18139  -0.120   0.564  10.338  3.0709  0.2648  0.6050
  162SOPE   H4S18140  -0.020   0.455  10.436  1.3491 -0.6135 -1.8229
  162SOPE   C2518141  -0.048   0.378  10.237  0.1325 -0.7287  0.9215
  162SOPE   H5R18142   0.039   0.423  10.185 -2.2065  0.2083 -2.5788
  162SOPE   H5S18143  -0.027   0.272  10.260 -1.7069 -1.5462 -0.8894
  162SOPE   C2618144  -0.155   0.379  10.124  0.5000 -0.5934  0.4638
  162SOPE   H6R18145  -0.241   0.316  10.155  0.0316 -1.3911 -2.2274
  162SOPE   H6S18146  -0.190   0.476  10.082 -1.6665 -1.1696  0.8594
  162SOPE   C2718147  -0.090   0.308  10.003 -0.2162  0.6423  0.2446
  162SOPE   H7R18148   0.008   0.349   9.970  0.4074  0.7914  2.1650
  162SOPE   H7S18149  -0.048   0.210  10.034 -1.4544 -0.7257 -2.1561
  162SOPE   C2818150  -0.194   0.280   9.893  0.0657 -0.6388  0.0912
  162SOPE   H8R18151  -0.265   0.206   9.935 -2.2056  1.0188 -0.6452
  162SOPE   H8S18152  -0.268   0.362   9.882 -0.2892 -1.1230 -1.2811
  162SOPE   C2918153  -0.134   0.228   9.766 -0.3187  0.0919  1.2575
  162SOPE   H9118154  -0.080   0.132   9.773  1.6360  0.7897 -2.0606
  162SOPE  C21018155  -0.146   0.277   9.635  0.6224  0.0064 -0.1414
  162SOPE  H10118156  -0.110   0.218   9.550 -0.7827 -1.6232  0.3232
  162SOPE  C21118157  -0.232   0.393   9.594 -0.2293  0.1925  0.5469
  162SOPE  H11R18158  -0.200   0.484   9.648 -0.9175  0.7550  0.0260
  162SOPE  H11S18159  -0.341   0.372   9.608 -0.5329 -0.3258 -2.0387
  162SOPE  C21218160  -0.222   0.416   9.444 -0.6004  0.7822 -0.2606
  162SOPE  H12R18161  -0.125   0.463   9.417 -0.0074  0.7765  1.7278
  162SOPE  H12S18162  -0.293   0.498   9.420 -0.1197  1.3431  0.1967
  162SOPE  C21318163  -0.245   0.304   9.347  0.6758  0.2067  1.0041
  162SOPE  H13R18164  -0.356   0.292   9.350  0.4126  0.2855 -3.2479
  162SOPE  H13S18165  -0.207   0.204   9.377 -0.4329 -0.7330 -0.5315
  162SOPE  C21418166  -0.204   0.339   9.195 -0.1619  0.3680  0.4015
  162SOPE  H14R18167  -0.094   0.353   9.202 -0.2878  1.9103 -0.3180
  162SOPE  H14S18168  -0.252   0.435   9.168 -1.7270  0.4189  2.9839
  162SOPE  C21518169  -0.257   0.230   9.104  0.0180 -0.3522  0.4822
  162SOPE  H15R18170  -0.242   0.265   8.999  1.7243  0.1169  0.8528
  162SOPE  H15S18171  -0.362   0.198   9.120  0.2509 -0.2696  2.4038
  162SOPE  C21618172  -0.178   0.098   9.116  0.2584 -0.3898  0.3738
  162SOPE  H16R18173  -0.189   0.072   9.224 -2.0080  0.3214  0.3633
  162SOPE  H16S18174  -0.075   0.132   9.095 -0.1952  0.7087 -0.1085
  162SOPE  C21718175  -0.227  -0.009   9.020 -0.3265 -0.1328 -0.7814
  162SOPE  H17R18176  -0.168  -0.102   9.033  0.4068  0.1911 -1.6506
  162SOPE  H17S18177  -0.211   0.027   8.916 -1.0666 -0.7820 -1.1309
  162SOPE  C21818178  -0.375  -0.051   9.021 -0.2395  0.5428  0.7869
  162SOPE  H18R18179  -0.428   0.030   8.966  0.4390  0.5454  0.1297
  162SOPE  H18S18180  -0.416  -0.074   9.122  0.6717 -2.8384  0.5335
  162SOPE  H18T18181  -0.398  -0.148   8.972 -0.5936  0.8230  0.3891
  162SOPE   C3318182  -0.818   0.232  10.398 -0.1916  0.2882 -0.3445
  162SOPE   H3X18183  -0.917   0.223  10.448  0.2729 -0.3993  0.4770
  162SOPE   H3Y18184  -0.765   0.136  10.417 -0.1832  0.3269 -0.1706
  162SOPE   C3418185  -0.841   0.237  10.248 -0.3344 -0.2337 -0.4339
  162SOPE   H4X18186  -0.898   0.325  10.213  0.5403  1.6336  2.4847
  162SOPE   H4Y18187  -0.897   0.148  10.213  0.6368 -0.4206 -1.5698
  162SOPE   C3518188  -0.715   0.227  10.168  0.8271  0.1446  0.5513
  162SOPE   H5X18189  -0.645   0.148  10.202 -0.1538 -1.2331 -0.5302
  162SOPE   H5Y18190  -0.660   0.324  10.167  0.8368  0.1850  2.0538
  162SOPE   C3618191  -0.742   0.191  10.024 -0.2523  0.6370 -0.4944
  162SOPE   H6X18192  -0.820   0.242   9.964 -1.6919 -0.8072  0.0610
  162SOPE   H6Y18193  -0.781   0.087  10.027  0.0902  0.4979  2.4156
  162SOPE   C3718194  -0.611   0.198   9.942  0.2286 -0.3131 -0.2694
  162SOPE   H7X18195  -0.560   0.115   9.996 -1.2908 -1.0511  0.0962
  162SOPE   H7Y18196  -0.546   0.287   9.956  0.2621 -0.2754 -0.6694
  162SOPE   C3818197  -0.635   0.167   9.801  0.1603  0.2334 -0.3605
  162SOPE   H8X18198  -0.683   0.261   9.766  3.6167  2.8144  1.2127
  162SOPE   H8Y18199  -0.700   0.077   9.787  0.4071 -0.3231  1.7723
  162SOPE   C3918200  -0.503   0.141   9.724  0.8304 -0.4584  0.1448
  162SOPE   H9X18201  -0.474   0.037   9.752 -1.3015 -1.6625 -1.7927
  162SOPE   H9Y18202  -0.427   0.217   9.752  0.7000  0.0382 -0.7911
  162SOPE  C31018203  -0.519   0.151   9.569  0.2902  0.0651  0.4604
  162SOPE  H10X18204  -0.417   0.163   9.527  0.5767  1.4513  1.4720
  162SOPE  H10Y18205  -0.571   0.246   9.544 -0.7218 -0.0106  2.1425
  162SOPE  C31118206  -0.590   0.037   9.494  0.5257 -0.3887  0.3659
  162SOPE  H11X18207  -0.667  -0.004   9.562 -1.2836  2.4407  0.1753
  162SOPE  H11Y18208  -0.510  -0.039   9.479 -0.1537 -0.9297 -0.6564
  162SOPE  C31218209  -0.667   0.070   9.369  0.4242 -0.0901  0.7152
  162SOPE  H12X18210  -0.766   0.096   9.411 -0.1582  0.5006 -0.9556
  162SOPE  H12Y18211  -0.686  -0.021   9.308  1.0910  0.2810 -0.0651
  162SOPE  C31318212  -0.623   0.182   9.280 -0.3363 -0.3587  0.5743
  162SOPE  H13X18213  -0.517   0.170   9.248 -1.1561 -0.7995 -2.1270
  162SOPE  H13Y18214  -0.625   0.284   9.325  0.0796  0.7613 -1.8184
  162SOPE  C31418215  -0.710   0.190   9.156  0.5845  0.8012 -0.4510
  162SOPE  H14X18216  -0.816   0.215   9.177 -0.1746 -0.6381 -2.2817
  162SOPE  H14Y18217  -0.705   0.094   9.101  2.0670  0.8225 -0.3981
  162SOPE  C31518218  -0.662   0.304   9.065  0.4143 -0.9604 -0.2806
  162SOPE  H15X18219  -0.556   0.283   9.039  0.9050 -0.8560  1.5609
  162SOPE  H15Y18220  -0.651   0.393   9.131  0.6640 -1.7179  0.7121
  162SOPE  C31618221  -0.742   0.328   8.931 -0.5541 -0.3734  0.8224
  162SOPE  H16X18222  -0.717   0.253   8.853 -3.2312 -0.8154  0.3020
  162SOPE  H16Y18223  -0.704   0.423   8.887 -2.1278  1.8383  3.7968
  162SOPE  C31718224  -0.890   0.359   8.950 -0.6360  0.1189 -0.0072
  162SOPE  H17X18225  -0.939   0.270   8.995  0.2667 -0.1116  0.5439
  162SOPE  H17Y18226  -0.937   0.362   8.849  0.4823  2.1933 -0.5292
  162SOPE  C31818227  -0.917   0.492   9.016  0.1125  0.2704  0.0726
  162SOPE  H18X18228  -0.864   0.502   9.113  1.3446 -1.9847 -0.3023
  162SOPE  H18Y18229  -1.023   0.511   9.040 -0.1302  0.9544 -1.4288
  162SOPE  H18Z18230  -0.884   0.573   8.948 -0.4352  3.5769  3.4057
  163SOPE     N18231   1.872   2.130  10.887  0.1907  0.2589  0.0930
  163SOPE   HN118232   1.777   2.122  10.844 -0.2080 -0.5997  1.0841
  163SOPE   HN218233   1.902   2.229  10.884  0.1989  0.2639  0.3652
  163SOPE   HN318234   1.936   2.062  10.841 -1.0716 -0.7071 -0.3035
  163SOPE   C1218235   1.861   2.081  11.025 -0.0302 -0.1053 -1.0703
  163SOPE  H12A18236   1.960   2.088  11.076 -0.6007  1.7825 -0.1269
  163SOPE  H12B18237   1.821   1.978  11.032 -0.4860  0.0968 -0.6136
  163SOPE   C1118238   1.778   2.169  11.123  0.0121  0.2051 -0.1353
  163SOPE  H11A18239   1.810   2.275  11.120  1.3146 -0.1505 -3.3226
  163SOPE  H11B18240   1.807   2.136  11.225 -0.4592  0.7612  0.1847
  163SOPE     P18241   1.546   2.250  11.025 -0.0608  0.4232  0.0223
  163SOPE   O1318242   1.594   2.383  11.065  0.1947 -0.4305  0.5705
  163SOPE   O1418243   1.406   2.233  11.061 -0.4828  1.0394 -0.7090
  163SOPE   O1218244   1.636   2.154  11.109  0.4367  0.3302  0.7463
  163SOPE   O1118245   1.591   2.201  10.884  0.4292 -0.2689 -0.3082
  163SOPE    C118246   1.527   2.099  10.809  0.3805  0.5123 -0.3942
  163SOPE    HA18247   1.457   2.036  10.868  1.2827  0.6013  0.7979
  163SOPE    HB18248   1.607   2.023  10.797 -0.6921 -1.2612  2.6798
  163SOPE    C218249   1.457   2.153  10.681  0.0941  0.4671  0.2766
  163SOPE    HS18250   1.366   2.092  10.662 -0.0502  0.9091 -0.4999
  163SOPE   O2118251   1.551   2.129  10.570 -0.3652  0.3032  0.3675
  163SOPE   C2118252   1.527   2.017  10.503 -0.2493  0.8924 -0.2790
  163SOPE   O2218253   1.462   1.921  10.542 -0.1847  0.2784 -0.2378
  163SOPE   C2218254   1.615   2.027  10.382 -0.9700  0.0532 -0.1118
  163SOPE   H2R18255   1.689   1.944  10.383 -1.0262 -0.0334 -1.2887
  163SOPE   H2S18256   1.668   2.124  10.371 -3.0709  1.9253  4.0501
  163SOPE    C318257   1.418   2.304  10.680 -0.2380 -0.0799 -0.6438
  163SOPE    HX18258   1.510   2.362  10.700 -1.4574  1.8450 -0.3883
  163SOPE    HY18259   1.348   2.313  10.766  0.7651  0.9303  0.0933
  163SOPE   O3118260   1.344   2.349  10.568 -0.3818 -0.4390 -0.1593
  163SOPE   C3118261   1.398   2.438  10.482 -0.1224  0.0290  0.5563
  163SOPE   O3218262   1.510   2.477  10.481 -0.4028 -0.4482  0.3759
  163SOPE   C3218263   1.287   2.492  10.393  0.2293  0.9156  0.2005
  163SOPE   H2X18264   1.210   2.541  10.456 -1.1759 -1.3001  0.3205
  163SOPE   H2Y18265   1.232   2.411  10.339  1.6352  0.3140 -0.3854
  163SOPE   C2318266   1.522   2.000  10.256  0.3131  0.0354 -0.6925
  163SOPE   H3R18267   1.457   1.910  10.259  2.1272 -1.3221 -0.1544
  163SOPE   H3S18268   1.596   1.970  10.179 -0.1253  1.4932 -1.7230
  163SOPE   C2418269   1.445   2.129  10.202  0.2736 -0.6222  0.4726
  163SOPE   H4R18270   1.375   2.098  10.122 -0.8142 -0.4283  1.3407
  163SOPE   H4S18271   1.390   2.182  10.282  2.1536 -0.3718  1.6798
  163SOPE   C2518272   1.537   2.241  10.150 -0.2743 -0.0947 -0.4963
  163SOPE   H5R18273   1.587   2.287  10.238  0.9358 -0.9596 -0.7083
  163SOPE   H5S18274   1.616   2.203  10.081  0.0657  0.5127 -0.4472
  163SOPE   C2618275   1.451   2.340  10.071 -0.1631 -0.3141 -0.3065
  163SOPE   H6R18276   1.354   2.351  10.124  1.8274  0.8937  3.3772
  163SOPE   H6S18277   1.493   2.442  10.058  0.0028 -0.4327 -0.7373
  163SOPE   C2718278   1.442   2.299   9.916  0.3775  0.0459 -0.3070
  163SOPE   H7R18279   1.549   2.288   9.885  0.6899 -0.6830  0.9626
  163SOPE   H7S18280   1.387   2.204   9.901  1.3229 -0.2764 -1.9852
  163SOPE   C2818281   1.373   2.410   9.825 -0.2833  0.6277 -0.1275
  163SOPE   H8R18282   1.438   2.500   9.833  0.4113  0.2427 -1.2710
  163SOPE   H8S18283   1.388   2.386   9.718  1.9817  1.5416 -0.0704
  163SOPE   C2918284   1.229   2.437   9.863  0.1027  0.2382  0.4791
  163SOPE   H9118285   1.224   2.491   9.959  1.6758  2.3109 -0.5031
  163SOPE  C21018286   1.119   2.411   9.791 -0.2433  0.4837  0.8804
  163SOPE  H10118287   1.030   2.469   9.818 -1.7437  0.1914 -2.7830
  163SOPE  C21118288   1.112   2.351   9.651  0.0112 -0.3672 -0.2106
  163SOPE  H11R18289   1.023   2.286   9.641  0.4848 -1.2071  0.9088
  163SOPE  H11S18290   1.198   2.284   9.631  1.0157  0.5324  0.9319
  163SOPE  C21218291   1.109   2.461   9.545  0.3874  0.1973 -0.4050
  163SOPE  H12R18292   1.209   2.510   9.552  0.1222  0.8514 -1.0200
  163SOPE  H12S18293   1.031   2.536   9.570  1.0299  0.5985  0.4445
  163SOPE  C21318294   1.089   2.405   9.402  0.2274 -0.6152 -0.2778
  163SOPE  H13R18295   0.984   2.370   9.412  0.4908 -0.8471  2.3063
  163SOPE  H13S18296   1.155   2.322   9.369  1.0133  0.5743 -1.8895
  163SOPE  C21418297   1.090   2.529   9.309  0.8556  0.3933  0.0673
  163SOPE  H14R18298   1.196   2.564   9.306  0.8772  0.3838  0.5365
  163SOPE  H14S18299   1.028   2.611   9.350  0.6611  0.3494 -0.1390
  163SOPE  C21518300   1.039   2.477   9.175  0.2710  0.5256 -0.5085
  163SOPE  H15R18301   0.947   2.420   9.197  1.2102 -0.1954  1.9220
  163SOPE  H15S18302   1.095   2.388   9.139 -0.3330 -0.4162  0.7655
  163SOPE  C21618303   1.015   2.587   9.071 -0.6112  1.2462 -0.3317
  163SOPE  H16R18304   1.112   2.607   9.019 -1.3312  0.4006 -2.0842
  163SOPE  H16S18305   0.982   2.681   9.120  1.6798  2.0441 -0.1925
  163SOPE  C21718306   0.895   2.545   8.983  0.0424  0.2554  0.3195
  163SOPE  H17R18307   0.801   2.528   9.039 -1.0131  0.7878 -1.2237
  163SOPE  H17S18308   0.926   2.448   8.938 -2.2886 -0.5063  0.2396
  163SOPE  C21818309   0.870   2.652   8.875  0.4952  0.0621 -0.5200
  163SOPE  H18R18310   0.938   2.736   8.899 -0.4717 -0.3187  4.5527
  163SOPE  H18S18311   0.766   2.690   8.864  0.1959 -0.8166 -0.8273
  163SOPE  H18T18312   0.902   2.608   8.778 -1.1768 -2.5227  0.0038
  163SOPE   C3318313   1.342   2.606  10.292  0.4808 -0.0730 -0.2496
  163SOPE   H3X18314   1.431   2.562  10.244  0.1331 -2.0921  0.8290
  163SOPE   H3Y18315   1.384   2.686  10.357 -2.5098  0.8979  0.6865
  163SOPE   C3418316   1.243   2.665  10.202  0.0745 -0.1539 -0.4162
  163SOPE   H4X18317   1.158   2.697  10.266  0.1581 -0.3041 -0.2272
  163SOPE   H4Y18318   1.193   2.593  10.134  1.0029 -1.3206  0.0992
  163SOPE   C3518319   1.282   2.782  10.112  0.0637 -0.0059 -0.1019
  163SOPE   H5X18320   1.356   2.746  10.037 -0.0338  0.9063 -0.6595
  163SOPE   H5Y18321   1.338   2.861  10.168  3.2183 -2.9306  1.2452
  163SOPE   C3618322   1.158   2.829  10.034 -0.2006 -0.5033  0.6895
  163SOPE   H6X18323   1.085   2.873  10.105 -1.3666  0.0523 -0.8069
  163SOPE   H6Y18324   1.099   2.753   9.979  0.6158 -1.3391  0.9510
  163SOPE   C3718325   1.206   2.923   9.927  0.8983  0.6176  0.8365
  163SOPE   H7X18326   1.291   2.869   9.881  0.3892  1.4697 -1.2357
  163SOPE   H7Y18327   1.236   3.017   9.978 -0.6322  0.7467  1.5633
  163SOPE   C3818328   1.085   2.956   9.825  0.2270  0.6747  0.0829
  163SOPE   H8X18329   1.113   3.053   9.778  1.4122  0.9992  1.3874
  163SOPE   H8Y18330   0.990   2.976   9.878 -0.0692 -0.3578 -0.0478
  163SOPE   C3918331   1.086   2.860   9.711  0.8490  0.5753 -0.1661
  163SOPE   H9X18332   1.047   2.763   9.748 -2.0976  2.0761  0.9382
  163SOPE   H9Y18333   1.181   2.840   9.657 -0.0798 -3.4357 -0.5825
  163SOPE  C31018334   0.997   2.901   9.594 -0.0445  0.4411 -0.3316
  163SOPE  H10X18335   0.898   2.940   9.626  0.5150 -0.5389  2.9734
  163SOPE  H10Y18336   0.971   2.816   9.529  2.1809  1.6608 -3.0170
  163SOPE  C31118337   1.051   2.999   9.494  0.3240  0.3914 -0.2679
  163SOPE  H11X18338   1.136   2.964   9.431  0.2656  0.7365 -0.5458
  163SOPE  H11Y18339   1.095   3.083   9.552  0.1095 -0.0317  0.5230
  163SOPE  C31218340   0.937   3.050   9.394 -0.4283 -0.6870  0.0940
  163SOPE  H12X18341   0.981   3.141   9.348 -2.0614  0.4374  0.6964
  163SOPE  H12Y18342   0.845   3.082   9.447  0.6242 -0.6112  1.9484
  163SOPE  C31318343   0.902   2.942   9.291  0.3045 -0.2876 -0.1229
  163SOPE  H13X18344   0.862   2.854   9.346 -0.1558 -0.1298 -0.1990
  163SOPE  H13Y18345   0.989   2.918   9.226 -1.1935 -1.6188 -1.7610
  163SOPE  C31418346   0.791   2.989   9.196 -0.4339 -0.0731 -0.1924
  163SOPE  H14X18347   0.712   3.041   9.254  0.6420 -2.2560  3.5649
  163SOPE  H14Y18348   0.759   2.902   9.136  2.9510 -2.0072  0.5516
  163SOPE  C31518349   0.850   3.086   9.094  0.7918  0.0147  0.8039
  163SOPE  H15X18350   0.919   3.032   9.026 -0.0554  1.7846 -1.6115
  163SOPE  H15Y18351   0.890   3.176   9.146  0.0522  0.5951  0.3888
  163SOPE  C31618352   0.745   3.134   8.989  0.2783 -0.5146 -0.9570
  163SOPE  H16X18353   0.664   3.193   9.039 -0.5201 -2.0691 -0.3467
  163SOPE  H16Y18354   0.686   3.047   8.954 -1.1877 -0.5791  1.4176
  163SOPE  C31718355   0.805   3.220   8.886 -0.3378 -0.2690 -0.1660
  163SOPE  H17X18356   0.861   3.151   8.819  1.0838  1.0525 -0.3981
  163SOPE  H17Y18357   0.875   3.295   8.930  2.0227 -2.4232  0.0407
  163SOPE  C31818358   0.700   3.296   8.800  0.1033  0.7752  0.4073
  163SOPE  H18X18359   0.624   3.231   8.752 -1.7382  2.3120  1.0798
  163SOPE  H18Y18360   0.758   3.351   8.723 -0.0902  2.6937  1.5543
  163SOPE  H18Z18361   0.644   3.379   8.849 -1.0443  0.4717 -0.3324
  164SOPE     N18362   0.578   0.718  11.277  0.3940  0.2913 -0.2734
  164SOPE   HN118363   0.617   0.636  11.228  0.2478  0.7413 -1.1746
  164SOPE   HN218364   0.639   0.801  11.260 -0.1454  0.5078 -1.2688
  164SOPE   HN318365   0.561   0.706  11.379  0.5944 -1.8491 -0.4626
  164SOPE   C1218366   0.448   0.754  11.214  0.6843 -0.7867  0.5519
  164SOPE  H12A18367   0.392   0.825  11.279 -2.6895 -0.6811 -2.1828
  164SOPE  H12B18368   0.382   0.666  11.198 -0.7749 -0.0355  2.0602
  164SOPE   C1118369   0.476   0.831  11.076  0.0411 -0.1521 -0.7062
  164SOPE  H11A18370   0.543   0.914  11.106 -0.0141 -0.3257 -0.0879
  164SOPE  H11B18371   0.386   0.883  11.036  1.4180  1.3412 -2.0008
  164SOPE     P18372   0.460   0.664  10.871 -0.0241 -0.0872  0.2347
  164SOPE   O1318373   0.354   0.600  10.950  0.1696 -0.3182 -0.0494
  164SOPE   O1418374   0.553   0.575  10.788  0.2381 -0.2474  1.0957
  164SOPE   O1218375   0.537   0.746  10.973 -0.3476 -0.0744 -0.0634
  164SOPE   O1118376   0.406   0.779  10.777 -0.7149 -0.1420 -0.2093
  164SOPE    C118377   0.488   0.867  10.706 -0.5456 -0.4947  0.4243
  164SOPE    HA18378   0.595   0.861  10.736 -0.5903 -1.1825  0.4634
  164SOPE    HB18379   0.446   0.969  10.715 -1.7167 -0.8897 -0.2401
  164SOPE    C218380   0.469   0.828  10.562 -0.3105 -0.5404  0.2381
  164SOPE    HS18381   0.504   0.727  10.533 -1.6515 -0.8297 -0.4299
  164SOPE   O2118382   0.530   0.922  10.479 -0.7523 -0.3873  0.1533
  164SOPE   C2118383   0.656   0.906  10.463  0.2384  0.0297 -0.1724
  164SOPE   O2218384   0.730   0.824  10.519 -0.2974  0.8984 -0.3235
  164SOPE   C2218385   0.716   1.002  10.365  0.4246  0.2652  0.2896
  164SOPE   H2R18386   0.824   0.975  10.355  0.9014  1.2096  2.3547
  164SOPE   H2S18387   0.702   1.096  10.423  0.4397 -0.1883  1.0458
  164SOPE    C318388   0.324   0.836  10.517  0.6101  0.0542  0.1736
  164SOPE    HX18389   0.274   0.926  10.559  0.9934  1.5944 -2.4725
  164SOPE    HY18390   0.289   0.741  10.564 -0.9022  0.5100  0.0248
  164SOPE   O3118391   0.307   0.820  10.375 -0.1477 -0.4362  0.1134
  164SOPE   C3118392   0.192   0.760  10.340  0.6197 -0.5986  0.3735
  164SOPE   O3218393   0.106   0.732  10.419 -0.2986 -0.5683 -0.1717
  164SOPE   C3218394   0.196   0.725  10.194 -0.1115  0.2026 -0.4928
  164SOPE   H2X18395   0.210   0.616  10.176 -0.1530  0.1064  0.0409
  164SOPE   H2Y18396   0.278   0.777  10.141 -0.1647 -0.3433 -1.1303
  164SOPE   C2318397   0.635   1.005  10.236  0.7122  1.0015  0.5750
  164SOPE   H3R18398   0.550   1.073  10.259 -0.6162 -1.5250  4.0726
  164SOPE   H3S18399   0.590   0.907  10.208 -0.0270  1.8618 -1.4024
  164SOPE   C2418400   0.711   1.054  10.113 -0.1708  0.3981 -0.3141
  164SOPE   H4R18401   0.736   1.162  10.121  1.1411  0.0528  0.4714
  164SOPE   H4S18402   0.805   0.997  10.108 -0.6420 -0.5175  0.8475
  164SOPE   C2518403   0.638   1.047   9.983 -0.1510 -0.1447 -0.2267
  164SOPE   H5R18404   0.622   0.940   9.955 -1.0248  0.2317 -1.2482
  164SOPE   H5S18405   0.537   1.091   9.999  0.3160  0.5953  0.7803
  164SOPE   C2618406   0.701   1.128   9.874  0.0836 -0.2972  0.5966
  164SOPE   H6R18407   0.664   1.233   9.868  0.0236 -0.2834  1.1685
  164SOPE   H6S18408   0.809   1.114   9.891 -0.0926 -1.7462  0.6149
  164SOPE   C2718409   0.653   1.076   9.739 -0.0001 -0.0302 -0.1508
  164SOPE   H7R18410   0.709   0.984   9.709  0.0417  0.7352 -2.6825
  164SOPE   H7S18411   0.545   1.051   9.750  0.5252 -1.5108  2.6235
  164SOPE   C2818412   0.671   1.183   9.628  0.3047  0.3305 -0.1653
  164SOPE   H8R18413   0.622   1.145   9.536 -0.3535 -0.5359  0.5186
  164SOPE   H8S18414   0.624   1.274   9.669  0.5011  0.0941  0.6113
  164SOPE   C2918415   0.817   1.181   9.591  0.8773 -0.6635 -0.5981
  164SOPE   H9118416   0.886   1.222   9.667  0.6364 -1.5793  0.1341
  164SOPE  C21018417   0.876   1.138   9.476  0.3674  0.1428 -0.3756
  164SOPE  H10118418   0.985   1.146   9.466  0.2246  1.0230 -1.3794
  164SOPE  C21118419   0.817   1.066   9.360 -0.4114 -0.7665 -0.6051
  164SOPE  H11R18420   0.709   1.094   9.357  0.0923  1.3635 -0.6912
  164SOPE  H11S18421   0.816   0.958   9.385 -1.1015  0.0362  3.7669
  164SOPE  C21218422   0.883   1.100   9.222 -0.7297 -0.4420 -0.4571
  164SOPE  H12R18423   0.972   1.035   9.208 -0.7194 -0.1520 -1.8725
  164SOPE  H12S18424   0.910   1.208   9.219  0.0664 -0.5324  1.6176
  164SOPE  C21318425   0.796   1.073   9.103 -0.1313 -0.3970 -0.4224
  164SOPE  H13R18426   0.872   1.081   9.022  0.5498  1.6421  0.3470
  164SOPE  H13S18427   0.721   1.151   9.076 -3.9711 -2.9859  1.7602
  164SOPE  C21418428   0.725   0.928   9.103  0.4590 -0.4319  1.0429
  164SOPE  H14R18429   0.622   0.940   9.143  0.2902 -0.0576  0.5084
  164SOPE  H14S18430   0.779   0.858   9.170  1.8404  0.1641  0.5815
  164SOPE  C21518431   0.724   0.876   8.953  0.5096  0.3842 -1.0015
  164SOPE  H15R18432   0.827   0.876   8.912 -0.4396  2.2189 -3.6733
  164SOPE  H15S18433   0.663   0.950   8.896  0.0687  1.8035  1.1765
  164SOPE  C21618434   0.660   0.736   8.942 -0.0476  0.2122 -0.8998
  164SOPE  H16R18435   0.704   0.670   9.019 -0.3703  1.3251  0.2707
  164SOPE  H16S18436   0.675   0.691   8.841  0.5748  0.7610 -1.0604
  164SOPE  C21718437   0.508   0.729   8.975  0.1719 -1.3312  0.2647
  164SOPE  H17R18438   0.495   0.726   9.085 -0.4166  2.3927  0.4168
  164SOPE  H17S18439   0.472   0.637   8.924  0.1764 -0.0814 -2.1593
  164SOPE  C21818440   0.430   0.847   8.922  0.8375  0.5332 -0.1212
  164SOPE  H18R18441   0.447   0.942   8.977 -0.6879  1.1699 -0.6952
  164SOPE  H18S18442   0.327   0.806   8.914  0.9633  0.4710 -2.0641
  164SOPE  H18T18443   0.460   0.853   8.815  1.6547  1.0497  0.1243
  164SOPE   C3318444   0.059   0.774  10.139  0.1818  0.3159 -0.4702
  164SOPE   H3X18445   0.044   0.881  10.164 -1.4312  0.4460 -1.7830
  164SOPE   H3Y18446  -0.026   0.719  10.185 -0.5770  0.5058 -1.5993
  164SOPE   C3418447   0.050   0.743   9.988  0.0559 -0.2770 -0.5862
  164SOPE   H4X18448   0.068   0.633   9.985  0.4155 -0.4583  3.2392
  164SOPE   H4Y18449   0.121   0.805   9.929  1.7554 -1.2769  0.3267
  164SOPE   C3518450  -0.091   0.776   9.936  0.8315 -0.1088  0.0878
  164SOPE   H5X18451  -0.116   0.883   9.952 -1.4496 -0.6304  0.2395
  164SOPE   H5Y18452  -0.153   0.715  10.005  1.9386  0.9788  2.1399
  164SOPE   C3618453  -0.103   0.736   9.783  0.1506  0.0109  0.2063
  164SOPE   H6X18454  -0.212   0.716   9.775  0.2020 -1.3006  2.1477
  164SOPE   H6Y18455  -0.053   0.637   9.775 -0.8510 -0.5524  0.6718
  164SOPE   C3718456  -0.043   0.835   9.683 -0.5376 -0.4515  0.0357
  164SOPE   H7X18457   0.048   0.872   9.735 -0.9096  1.8022 -0.8037
  164SOPE   H7Y18458  -0.117   0.913   9.657 -0.2275  0.1321  0.8522
  164SOPE   C3818459  -0.019   0.777   9.538  0.2198  0.5131  0.0297
  164SOPE   H8X18460  -0.121   0.758   9.500  0.1491 -1.1835  0.9519
  164SOPE   H8Y18461   0.026   0.676   9.539  0.2966  0.5459  0.3783
  164SOPE   C3918462   0.065   0.872   9.448  0.9021 -0.0474 -0.1376
  164SOPE   H9X18463   0.154   0.908   9.505  1.8644 -1.8292 -0.4290
  164SOPE   H9Y18464   0.010   0.968   9.436 -1.9908 -1.3627  1.5098
  164SOPE  C31018465   0.096   0.810   9.311 -0.5801  0.0806  0.8588
  164SOPE  H10X18466   0.170   0.732   9.338 -0.1400  0.3827  0.5432
  164SOPE  H10Y18467   0.141   0.889   9.246  0.0837 -0.4605  0.6403
  164SOPE  C31118468  -0.032   0.745   9.241 -0.3878  0.1636 -0.2220
  164SOPE  H11X18469  -0.102   0.831   9.246  0.3318  0.6999  3.8402
  164SOPE  H11Y18470  -0.076   0.664   9.303 -0.9706  1.7779  1.5730
  164SOPE  C31218471  -0.003   0.686   9.099 -0.5613 -0.0192 -0.0834
  164SOPE  H12X18472   0.001   0.768   9.024 -1.7792  1.7829  1.7227
  164SOPE  H12Y18473  -0.085   0.618   9.069 -0.3231 -0.5779  0.5073
  164SOPE  C31318474   0.127   0.610   9.095  0.6143 -0.6651  1.2472
  164SOPE  H13X18475   0.120   0.542   9.182 -3.0944 -0.2709  1.3956
  164SOPE  H13Y18476   0.205   0.685   9.121 -0.9338  0.9059  1.4904
  164SOPE  C31418477   0.144   0.533   8.961  0.2029 -0.5184  0.1733
  164SOPE  H14X18478   0.249   0.496   8.960  0.1706 -0.7486  2.0121
  164SOPE  H14Y18479   0.129   0.602   8.875  0.7223 -2.2488 -1.3694
  164SOPE  C31518480   0.049   0.414   8.936 -0.3561 -0.5075  0.4134
  164SOPE  H15X18481  -0.056   0.449   8.921  0.2839  1.2501 -0.2381
  164SOPE  H15Y18482   0.057   0.351   9.027  1.8496 -0.1843  0.4846
  164SOPE  C31618483   0.083   0.342   8.806  0.6037 -0.5095 -0.2668
  164SOPE  H16X18484   0.183   0.294   8.811  1.4311  0.9221 -1.9545
  164SOPE  H16Y18485   0.067   0.417   8.726 -0.3495 -0.8104 -0.3758
  164SOPE  C31718486  -0.014   0.221   8.785 -0.3257 -0.1288  0.0174
  164SOPE  H17X18487  -0.112   0.267   8.760  0.9666  1.4187 -2.6119
  164SOPE  H17Y18488  -0.029   0.166   8.880 -1.2543  1.8609  1.0770
  164SOPE  C31818489   0.045   0.131   8.672 -0.4687  0.2230  0.2110
  164SOPE  H18X18490   0.153   0.109   8.692  0.4117  2.7544 -1.3202
  164SOPE  H18Y18491   0.050   0.189   8.578  1.3384 -1.6423 -0.9270
  164SOPE  H18Z18492  -0.006   0.034   8.652  1.1398 -0.5572 -0.3456
  165SOPE     N18493   2.259   3.127  11.316  0.7007 -0.1507 -0.8916
  165SOPE   HN118494   2.321   3.073  11.253  0.2553  0.9592 -2.3348
  165SOPE   HN218495   2.316   3.174  11.389  2.2482 -1.5042 -1.1685
  165SOPE   HN318496   2.189   3.062  11.357  0.2471 -0.5846 -2.2954
  165SOPE   C1218497   2.182   3.225  11.234 -1.0301 -0.0233  0.9133
  165SOPE  H12A18498   2.263   3.295  11.204 -0.6412 -0.0863  1.7839
  165SOPE  H12B18499   2.108   3.261  11.309 -1.6225 -1.6509  1.1666
  165SOPE   C1118500   2.109   3.159  11.115 -0.4468 -0.0410 -0.1452
  165SOPE  H11A18501   2.050   3.233  11.058 -2.8171 -2.1540 -0.6148
  165SOPE  H11B18502   2.044   3.078  11.155 -0.2277  0.6948  1.8036
  165SOPE     P18503   2.167   3.061  10.890 -0.5905 -0.1229 -0.5527
  165SOPE   O1318504   2.037   2.996  10.893  0.0829  0.1117  0.3309
  165SOPE   O1418505   2.275   2.983  10.823  0.6837 -0.4353  0.0678
  165SOPE   O1218506   2.214   3.107  11.033 -0.3004  0.2867 -0.4317
  165SOPE   O1118507   2.150   3.191  10.813  0.5646  0.5576 -0.1623
  165SOPE    C118508   2.243   3.297  10.818 -0.3777  0.6214  0.1890
  165SOPE    HA18509   2.348   3.260  10.828 -0.3449  0.7019  0.1371
  165SOPE    HB18510   2.219   3.367  10.900 -0.1922  2.6796 -1.4470
  165SOPE    C218511   2.232   3.391  10.698 -0.9552  0.0519  0.3957
  165SOPE    HS18512   2.123   3.389  10.675 -0.7183 -3.1858 -0.9090
  165SOPE   O2118513   2.324   3.352  10.594 -0.1609 -0.4641  0.0395
  165SOPE   C2118514   2.286   3.261  10.509  0.8401 -0.2185 -0.2785
  165SOPE   O2218515   2.165   3.236  10.492  0.2828  0.5743 -0.5154
  165SOPE   C2218516   2.406   3.202  10.423  0.9267 -0.0449 -0.5336
  165SOPE   H2R18517   2.467   3.141  10.494  1.4987 -1.5340 -2.2393
  165SOPE   H2S18518   2.466   3.294  10.407  0.9787  0.1344  0.5783
  165SOPE    C318519   2.258   3.537  10.736 -0.1848  0.2060 -0.7264
  165SOPE    HX18520   2.366   3.541  10.763 -0.2440  0.4255 -0.5225
  165SOPE    HY18521   2.202   3.573  10.825  0.1245 -2.7811  0.8247
  165SOPE   O3118522   2.238   3.630  10.628  0.1842 -0.6373 -0.8551
  165SOPE   C3118523   2.112   3.656  10.600 -0.4281 -0.5293 -0.3538
  165SOPE   O3218524   2.016   3.629  10.664  0.6219  1.1295  0.4505
  165SOPE   C3218525   2.108   3.730  10.464 -0.3179 -0.1876  0.8371
  165SOPE   H2X18526   2.071   3.832  10.487 -2.0404 -0.4950 -0.3763
  165SOPE   H2Y18527   2.026   3.680  10.408 -0.9542  0.3922  1.2319
  165SOPE   C2318528   2.366   3.113  10.306 -0.4527  0.2572  0.1319
  165SOPE   H3R18529   2.288   3.042  10.339 -0.2271 -0.0860 -0.0723
  165SOPE   H3S18530   2.451   3.060  10.258  0.3357  0.3470  1.3754
  165SOPE   C2418531   2.303   3.198  10.193 -0.2950 -0.0665  0.5387
  165SOPE   H4R18532   2.200   3.239  10.204 -0.4030  0.1439 -0.9867
  165SOPE   H4S18533   2.360   3.287  10.162 -2.1308  0.8519 -0.3841
  165SOPE   C2518534   2.289   3.120  10.062 -0.4144  0.0020  0.5612
  165SOPE   H5R18535   2.388   3.105  10.016  0.4614  0.1381  2.3168
  165SOPE   H5S18536   2.245   3.019  10.081 -0.9143 -0.4627 -2.5918
  165SOPE   C2618537   2.206   3.197   9.958 -0.0434 -0.2092 -0.6954
  165SOPE   H6R18538   2.106   3.196  10.006  1.5439 -1.0248  2.8902
  165SOPE   H6S18539   2.241   3.302   9.955 -0.5608  0.1380  2.4670
  165SOPE   C2718540   2.203   3.140   9.812 -0.0759 -0.0611  0.3618
  165SOPE   H7R18541   2.308   3.131   9.776 -0.2459 -2.3112  0.2386
  165SOPE   H7S18542   2.172   3.034   9.801 -0.5110  0.2020 -1.3018
  165SOPE   C2818543   2.133   3.221   9.705 -0.2056 -0.3636  0.3338
  165SOPE   H8R18544   2.174   3.323   9.689  1.0159 -1.1913 -2.3637
  165SOPE   H8S18545   2.142   3.167   9.608  1.9816  1.5944 -0.6634
  165SOPE   C2918546   1.988   3.239   9.745  0.3593  0.2595 -0.2547
  165SOPE   H9118547   1.974   3.288   9.842  0.8294  0.5035 -0.3077
  165SOPE  C21018548   1.878   3.199   9.666 -0.1814 -0.8343 -0.5726
  165SOPE  H10118549   1.783   3.234   9.709  1.2778  1.2791  1.1926
  165SOPE  C21118550   1.874   3.143   9.524  0.4045 -0.1830 -0.3056
  165SOPE  H11R18551   1.862   3.033   9.516  3.7984 -0.6453 -0.5915
  165SOPE  H11S18552   1.971   3.151   9.471 -0.3132 -1.5027 -1.9020
  165SOPE  C21218553   1.761   3.216   9.437  0.0318  0.1200 -0.7552
  165SOPE  H12R18554   1.757   3.324   9.462 -2.3474 -0.3249  1.1551
  165SOPE  H12S18555   1.666   3.173   9.475  0.6877 -1.1508 -0.5228
  165SOPE  C21318556   1.776   3.201   9.282 -0.3442  0.3144 -0.3676
  165SOPE  H13R18557   1.804   3.099   9.249  1.9954  0.5723  0.5836
  165SOPE  H13S18558   1.865   3.263   9.255  0.5776 -0.4483  0.8068
  165SOPE  C21418559   1.659   3.244   9.192  0.9427 -0.1173 -0.2354
  165SOPE  H14R18560   1.615   3.342   9.218 -0.9453 -0.0557 -3.2042
  165SOPE  H14S18561   1.568   3.181   9.201 -0.5258  1.8813 -0.4216
  165SOPE  C21518562   1.698   3.242   9.042 -0.0125  0.5239 -0.0530
  165SOPE  H15R18563   1.720   3.136   9.017 -1.3705  0.1117  0.4329
  165SOPE  H15S18564   1.790   3.301   9.022  1.2521 -1.6314 -0.9799
  165SOPE  C21618565   1.586   3.296   8.952  0.0433  0.2014  0.6590
  165SOPE  H16R18566   1.581   3.406   8.963 -0.8154  0.2637 -0.2147
  165SOPE  H16S18567   1.493   3.248   8.990  0.3685 -0.5996  0.4739
  165SOPE  C21718568   1.600   3.248   8.805 -0.1671 -0.5267  0.0851
  165SOPE  H17R18569   1.634   3.143   8.798  0.1261 -0.3980 -0.5213
  165SOPE  H17S18570   1.691   3.297   8.763 -0.3352 -0.6274 -0.4030
  165SOPE  C21818571   1.467   3.256   8.719 -0.0713 -0.1191  0.3243
  165SOPE  H18R18572   1.433   3.361   8.718 -0.7042 -0.3223  0.5229
  165SOPE  H18S18573   1.387   3.207   8.777 -2.0382  0.5003 -1.7341
  165SOPE  H18T18574   1.477   3.207   8.620  0.6542  1.1853 -0.2722
  165SOPE   C3318575   2.223   3.736  10.364 -0.0871  0.0388  0.8983
  165SOPE   H3X18576   2.310   3.779  10.418 -0.4922  2.0604  0.0006
  165SOPE   H3Y18577   2.192   3.811  10.289 -2.0491  1.1612  2.7286
  165SOPE   C3418578   2.249   3.598  10.299  0.5505  0.5799 -0.0389
  165SOPE   H4X18579   2.156   3.540  10.313  0.1484  1.2323  0.0406
  165SOPE   H4Y18580   2.307   3.550  10.381  0.1370  1.2150  0.6306
  165SOPE   C3518581   2.312   3.595  10.154 -0.1649  1.0320  0.2222
  165SOPE   H5X18582   2.374   3.504  10.141 -3.6065 -1.4786 -0.1567
  165SOPE   H5Y18583   2.375   3.686  10.142  1.3864 -0.1819 -1.2061
  165SOPE   C3618584   2.205   3.613  10.044 -0.1085  0.0515 -0.4283
  165SOPE   H6X18585   2.144   3.701  10.073  1.4564  0.7299  1.0072
  165SOPE   H6Y18586   2.126   3.536  10.034 -0.2360  0.4065 -2.5777
  165SOPE   C3718587   2.258   3.636   9.905 -0.1425  0.6826  0.3207
  165SOPE   H7X18588   2.312   3.541   9.881 -1.2324 -0.4344  2.0903
  165SOPE   H7Y18589   2.343   3.707   9.907  0.5522 -0.1359  1.4792
  165SOPE   C3818590   2.159   3.685   9.799 -0.1947 -0.6591 -1.0269
  165SOPE   H8X18591   2.132   3.788   9.831 -0.4608 -0.3497 -2.1873
  165SOPE   H8Y18592   2.067   3.629   9.825 -0.0047  0.7776  3.8012
  165SOPE   C3918593   2.200   3.679   9.655  0.3980  0.7172  0.1539
  165SOPE   H9X18594   2.116   3.682   9.582 -1.2049  0.2031  1.9229
  165SOPE   H9Y18595   2.254   3.583   9.638  1.2310  1.0827  0.6926
  165SOPE  C31018596   2.296   3.792   9.608  0.0327 -0.3636 -0.3422
  165SOPE  H10X18597   2.385   3.788   9.674 -1.2782  0.4947  1.5761
  165SOPE  H10Y18598   2.245   3.888   9.630  1.0134  0.4506 -1.5407
  165SOPE  C31118599   2.337   3.790   9.458  0.2463  0.8050 -0.5385
  165SOPE  H11X18600   2.392   3.697   9.434  1.0054  1.3089 -0.7885
  165SOPE  H11Y18601   2.420   3.863   9.446 -0.9467  2.0747 -1.4450
  165SOPE  C31218602   2.228   3.839   9.357 -0.4698  0.2017  0.0019
  165SOPE  H12X18603   2.233   3.949   9.368  0.9639  0.0911  0.6456
  165SOPE  H12Y18604   2.123   3.803   9.363 -0.3469 -0.2872 -0.6880
  165SOPE  C31318605   2.275   3.815   9.211 -0.0818 -0.6399 -0.0456
  165SOPE  H13X18606   2.255   3.706   9.200 -0.6266 -0.4351 -1.1548
  165SOPE  H13Y18607   2.383   3.837   9.196 -0.3730  1.5176  0.6418
  165SOPE  C31418608   2.192   3.899   9.107  0.2935 -0.2467 -0.3562
  165SOPE  H14X18609   2.210   4.006   9.130 -0.7202 -0.1418  0.0410
  165SOPE  H14Y18610   2.086   3.868   9.123  0.0694  0.5870 -0.1968
  165SOPE  C31518611   2.230   3.867   8.968  0.4832  0.8188 -0.1302
  165SOPE  H15X18612   2.208   3.759   8.952 -0.1219  0.9077  0.0895
  165SOPE  H15Y18613   2.341   3.867   8.963  0.5494 -0.6260  0.7152
  165SOPE  C31618614   2.177   3.961   8.858  0.0656 -0.2445  0.1728
  165SOPE  H16X18615   2.224   4.061   8.865  1.5815 -1.0033  2.3690
  165SOPE  H16Y18616   2.067   3.971   8.859 -0.1974 -1.7744 -2.8468
  165SOPE  C31718617   2.208   3.903   8.716 -0.5373  0.0496 -0.0863
  165SOPE  H17X18618   2.167   3.800   8.712  2.0024 -1.0649  0.6949
  165SOPE  H17Y18619   2.316   3.893   8.693 -0.3710  2.3131 -0.5361
  165SOPE  C31818620   2.143   3.987   8.606 -0.3818  0.8365 -0.1688
  165SOPE  H18X18621   2.132   3.920   8.518 -1.1291 -1.0724  1.2939
  165SOPE  H18Y18622   2.202   4.079   8.586  0.5997 -0.2255 -2.4944
  165SOPE  H18Z18623   2.042   4.019   8.639 -0.2646 -0.0548  1.1551
  166SOPE     N18624   6.298   3.388  11.083  0.3395  0.2084 -0.0246
  166SOPE   HN118625   6.344   3.422  11.170  1.5536 -0.3317 -0.4319
  166SOPE   HN218626   6.361   3.319  11.038  1.3092  1.7808 -1.2157
  166SOPE   HN318627   6.288   3.464  11.013  1.5614 -0.2215 -0.6958
  166SOPE   C1218628   6.164   3.324  11.112 -0.1842 -0.1649 -0.8017
  166SOPE  H12A18629   6.182   3.237  11.179 -2.3814  0.5649  0.8380
  166SOPE  H12B18630   6.122   3.291  11.014  1.3182 -0.4824 -1.3666
  166SOPE   C1118631   6.081   3.428  11.192 -0.0755 -0.6429 -0.2262
  166SOPE  H11A18632   6.153   3.472  11.265 -0.4266  2.3910 -1.5730
  166SOPE  H11B18633   5.999   3.382  11.251  0.5058 -1.0419  0.2968
  166SOPE     P18634   5.892   3.587  11.092  0.2521 -0.3188 -0.0730
  166SOPE   O1318635   5.894   3.727  11.047  0.4147 -0.6848 -0.4815
  166SOPE   O1418636   5.816   3.550  11.215 -0.3918  0.2581 -0.0589
  166SOPE   O1218637   6.048   3.538  11.095 -0.4518 -0.1547 -0.6207
  166SOPE   O1118638   5.821   3.504  10.976 -0.3211 -0.3730  0.3701
  166SOPE    C118639   5.901   3.461  10.871 -0.4002 -0.0017  0.3793
  166SOPE    HA18640   5.895   3.351  10.853  0.9721 -0.2194  1.1070
  166SOPE    HB18641   6.010   3.479  10.872 -0.3771 -0.1487  0.5998
  166SOPE    C218642   5.848   3.520  10.734  0.4893 -0.3268 -0.4747
  166SOPE    HS18643   5.888   3.455  10.653  2.1835  0.0956 -0.0130
  166SOPE   O2118644   5.887   3.670  10.725  0.1018  0.6899 -0.7040
  166SOPE   C2118645   6.013   3.683  10.692  0.1932 -0.1762  0.2924
  166SOPE   O2218646   6.095   3.593  10.664 -0.5951  0.0756  0.0655
  166SOPE   C2218647   6.060   3.833  10.681 -0.2081  0.6975 -0.5017
  166SOPE   H2R18648   6.130   3.859  10.763 -0.4358  1.3482 -0.5136
  166SOPE   H2S18649   5.971   3.894  10.705 -0.3660  0.0224  0.7098
  166SOPE    C318650   5.694   3.508  10.735  0.6601 -0.6777  0.1005
  166SOPE    HX18651   5.656   3.570  10.819 -1.7943 -0.7589 -0.8611
  166SOPE    HY18652   5.670   3.403  10.763  1.3624 -0.4229  1.7710
  166SOPE   O3118653   5.641   3.553  10.605  0.2630  0.2128  0.1152
  166SOPE   C3118654   5.621   3.458  10.523  0.4331 -0.0396 -0.1080
  166SOPE   O3218655   5.619   3.339  10.559  0.1061  0.0593 -0.2269
  166SOPE   C3218656   5.605   3.508  10.378  0.2224 -0.3616 -0.1687
  166SOPE   H2X18657   5.710   3.520  10.343 -0.5213 -1.0149 -2.8754
  166SOPE   H2Y18658   5.555   3.607  10.383  1.9006  0.4494  2.1026
  166SOPE   C2318659   6.109   3.870  10.543 -0.1037  0.5844  0.1593
  166SOPE   H3R18660   6.208   3.825  10.524  1.1679  1.8017  3.3353
  166SOPE   H3S18661   6.134   3.978  10.551  0.2810  0.3340  3.7075
  166SOPE   C2418662   6.005   3.851  10.433  0.3087 -0.7513  0.0164
  166SOPE   H4R18663   6.005   3.746  10.395  1.3953 -1.0073  0.6894
  166SOPE   H4S18664   5.905   3.863  10.481  0.8056 -0.1455  0.9344
  166SOPE   C2518665   6.033   3.947  10.316 -0.4325  0.4881  0.1276
  166SOPE   H5R18666   6.021   4.053  10.346 -1.1283  0.6829 -0.7794
  166SOPE   H5S18667   6.128   3.925  10.263 -0.3717 -0.3951  0.5763
  166SOPE   C2618668   5.921   3.936  10.210 -0.5934  0.3848  0.4304
  166SOPE   H6R18669   5.867   3.842  10.236  0.2668  0.1245  1.3319
  166SOPE   H6S18670   5.861   4.029  10.225  2.7197  2.6817  0.6634
  166SOPE   C2718671   5.967   3.930  10.064 -0.1367  0.5203  0.1468
  166SOPE   H7R18672   6.017   4.028  10.054  0.5391  0.5048  2.7094
  166SOPE   H7S18673   6.040   3.848  10.048  0.3128  1.0293 -0.4390
  166SOPE   C2818674   5.871   3.920   9.947  0.0015 -0.3300 -0.2940
  166SOPE   H8R18675   5.816   4.016   9.942  0.6527  0.0064 -1.3802
  166SOPE   H8S18676   5.930   3.928   9.853 -1.6625 -1.4591 -1.5189
  166SOPE   C2918677   5.775   3.804   9.958 -0.1891 -0.1027 -0.5899
  166SOPE   H9118678   5.724   3.796  10.055 -0.2247 -0.0135 -0.6005
  166SOPE  C21018679   5.762   3.704   9.879  0.5666  0.2545 -0.4971
  166SOPE  H10118680   5.699   3.621   9.912  0.9312 -1.2640 -3.3188
  166SOPE  C21118681   5.849   3.678   9.755 -0.5778  0.2757 -0.4989
  166SOPE  H11R18682   5.914   3.593   9.784 -1.8754 -0.7480 -0.5092
  166SOPE  H11S18683   5.919   3.764   9.742  2.0245 -1.2486  2.2168
  166SOPE  C21218684   5.761   3.669   9.635  0.3449 -0.2419  0.2324
  166SOPE  H12R18685   5.707   3.764   9.619  0.3545 -0.1950  0.4795
  166SOPE  H12S18686   5.689   3.585   9.644  0.5019 -0.3607  0.4098
  166SOPE  C21318687   5.854   3.643   9.515  0.1304 -0.2974 -0.5349
  166SOPE  H13R18688   5.899   3.541   9.520 -0.2839 -0.6002 -2.3245
  166SOPE  H13S18689   5.931   3.720   9.493 -0.2688 -0.0653 -1.1442
  166SOPE  C21418690   5.773   3.637   9.383 -0.3029 -0.6832  0.0009
  166SOPE  H14R18691   5.736   3.740   9.363  0.7398 -0.3113 -0.0392
  166SOPE  H14S18692   5.686   3.567   9.391 -1.2594 -0.3661 -4.6952
  166SOPE  C21518693   5.858   3.596   9.268 -0.6906  0.0217 -0.5603
  166SOPE  H15R18694   5.911   3.499   9.278 -0.3515  0.2771  0.1680
  166SOPE  H15S18695   5.937   3.674   9.269 -1.6840  1.0566  0.3230
  166SOPE  C21618696   5.763   3.587   9.144  0.0311  0.1371 -0.4872
  166SOPE  H16R18697   5.725   3.686   9.109  1.7837  1.2362  0.5323
  166SOPE  H16S18698   5.677   3.524   9.174  0.7265  0.8156  3.4749
  166SOPE  C21718699   5.843   3.530   9.027  0.0782 -0.6258 -0.4397
  166SOPE  H17R18700   5.885   3.430   9.053  0.1384 -0.3143  0.7461
  166SOPE  H17S18701   5.933   3.594   9.029 -0.9874  0.9450 -0.4309
  166SOPE  C21818702   5.780   3.526   8.895 -0.3242 -0.1867  0.5172
  166SOPE  H18R18703   5.758   3.633   8.873  1.0730  0.3177  1.4805
  166SOPE  H18S18704   5.700   3.449   8.885  1.5948 -2.1815 -0.1957
  166SOPE  H18T18705   5.849   3.485   8.819 -1.1864 -1.0219  0.1587
  166SOPE   C3318706   5.528   3.399  10.306 -0.0506 -0.4016 -1.0674
  166SOPE   H3X18707   5.427   3.378  10.348  0.2047 -0.7544 -0.6253
  166SOPE   H3Y18708   5.576   3.299  10.308 -1.8801 -1.3104 -0.4920
  166SOPE   C3418709   5.504   3.444  10.159  0.5664  0.5243  0.7964
  166SOPE   H4X18710   5.587   3.476  10.092 -0.8636  0.9759 -0.8013
  166SOPE   H4Y18711   5.455   3.544  10.167 -1.3749 -0.3651  0.5369
  166SOPE   C3518712   5.414   3.341  10.087  1.0769 -0.4953  0.6064
  166SOPE   H5X18713   5.313   3.337  10.135  0.3135  1.1749 -0.7706
  166SOPE   H5Y18714   5.449   3.236  10.095  0.0957 -0.8505  0.4415
  166SOPE   C3618715   5.396   3.369   9.943 -0.3432  0.3725  0.7287
  166SOPE   H6X18716   5.499   3.384   9.903 -0.0391  1.6806  1.9301
  166SOPE   H6Y18717   5.342   3.464   9.927 -0.0123  0.2741 -1.1659
  166SOPE   C3718718   5.327   3.256   9.866 -0.5557  0.3930  0.2780
  166SOPE   H7X18719   5.217   3.268   9.870 -0.5578  0.2385  0.6390
  166SOPE   H7Y18720   5.353   3.157   9.908  1.0839  1.3418  1.6551
  166SOPE   C3818721   5.375   3.259   9.719 -0.2231 -0.8970 -0.1561
  166SOPE   H8X18722   5.486   3.254   9.715 -0.2077 -0.8848  0.1865
  166SOPE   H8Y18723   5.362   3.361   9.678  3.4045 -0.3948 -0.4408
  166SOPE   C3918724   5.312   3.157   9.626 -0.5825 -0.2975 -0.5144
  166SOPE   H9X18725   5.215   3.126   9.672 -0.1899 -0.1121  0.4545
  166SOPE   H9Y18726   5.373   3.065   9.629 -0.4881 -0.2526 -1.1011
  166SOPE  C31018727   5.288   3.196   9.479  0.0081 -0.1697 -0.6451
  166SOPE  H10X18728   5.371   3.255   9.435 -1.8807  0.8715 -3.0389
  166SOPE  H10Y18729   5.205   3.266   9.503  2.1500  1.4693  2.8456
  166SOPE  C31118730   5.263   3.077   9.379 -0.7205 -0.2990 -0.7683
  166SOPE  H11X18731   5.176   3.031   9.431  0.2683 -0.5645  0.7144
  166SOPE  H11Y18732   5.356   3.016   9.379 -0.4738  0.0243  0.8555
  166SOPE  C31218733   5.224   3.124   9.242 -0.5408 -0.6635 -0.2028
  166SOPE  H12X18734   5.126   3.173   9.261  0.3054  0.4771  1.4025
  166SOPE  H12Y18735   5.200   3.030   9.187 -0.4263  0.1495 -1.6983
  166SOPE  C31318736   5.310   3.221   9.155  0.9033 -0.1638  0.7923
  166SOPE  H13X18737   5.383   3.152   9.107 -0.1308  0.7269 -2.2388
  166SOPE  H13Y18738   5.365   3.290   9.223 -1.1714  1.5062  0.8688
  166SOPE  C31418739   5.228   3.282   9.041 -0.4249 -0.9331  0.9019
  166SOPE  H14X18740   5.292   3.367   9.011 -1.3414 -0.0558  1.3793
  166SOPE  H14Y18741   5.131   3.332   9.063  0.4298  1.9007 -1.2433
  166SOPE  C31518742   5.211   3.195   8.917 -0.4174 -0.2549 -0.9573
  166SOPE  H15X18743   5.126   3.233   8.857 -0.3023 -1.6158 -2.0233
  166SOPE  H15Y18744   5.188   3.091   8.948 -0.1304 -0.0398  0.0118
  166SOPE  C31618745   5.329   3.194   8.822 -0.4802 -0.1257 -0.3771
  166SOPE  H16X18746   5.422   3.150   8.863  2.5480  4.1005 -1.9755
  166SOPE  H16Y18747   5.360   3.299   8.804  1.9305 -0.4987  1.1378
  166SOPE  C31718748   5.300   3.125   8.695  0.1530  0.0528  0.1494
  166SOPE  H17X18749   5.224   3.047   8.715 -0.2000  0.5683  0.8478
  166SOPE  H17Y18750   5.386   3.074   8.647  0.8407  1.7294 -0.5022
  166SOPE  C31818751   5.245   3.231   8.597  0.9292  0.1228  0.6967
  166SOPE  H18X18752   5.207   3.194   8.499 -1.8106  1.0515  1.3057
  166SOPE  H18Y18753   5.317   3.309   8.565  0.2024  0.6470  0.2982
  166SOPE  H18Z18754   5.156   3.285   8.635 -0.4451 -1.6982  0.2287
  167SOPE     N18755   3.789   1.510   6.376 -0.2050  0.3858  0.1033
  167SOPE   HN118756   3.784   1.454   6.288 -1.5884 -0.4863  0.7063
  167SOPE   HN218757   3.806   1.607   6.343 -0.5050  0.4700  0.1882
  167SOPE   HN318758   3.870   1.473   6.430 -0.4852  0.2820  0.4561
  167SOPE   C1218759   3.655   1.504   6.450  0.1702 -0.5650  0.4604
  167SOPE  H12A18760   3.634   1.405   6.495  1.2427 -0.9049  0.2569
  167SOPE  H12B18761   3.580   1.529   6.372  0.6852  0.9174  0.4040
  167SOPE   C1118762   3.656   1.619   6.562  0.0114 -0.0120  0.4892
  167SOPE  H11A18763   3.718   1.587   6.648 -1.7088 -0.3252  1.6503
  167SOPE  H11B18764   3.551   1.618   6.598 -0.2936  2.4251 -0.1119
  167SOPE     P18765   3.588   1.846   6.458 -0.2240 -0.3063 -0.4167
  167SOPE   O1318766   3.503   1.765   6.367 -0.4757  0.1328 -0.1001
  167SOPE   O1418767   3.653   1.958   6.392  0.4956 -0.2099 -0.0663
  167SOPE   O1218768   3.694   1.747   6.516 -0.6480 -0.2178 -0.2148
  167SOPE   O1118769   3.500   1.899   6.583 -0.4569 -0.0173 -0.2897
  167SOPE    C118770   3.529   2.009   6.665 -0.0812 -0.2808  0.3743
  167SOPE    HA18771   3.438   2.072   6.656 -2.1368 -3.2070 -1.2733
  167SOPE    HB18772   3.618   2.070   6.639 -0.0998 -0.2986  0.2702
  167SOPE    C218773   3.552   1.967   6.818 -0.2964 -0.7166 -0.2795
  167SOPE    HS18774   3.522   2.056   6.877 -1.9248 -1.0347 -0.5890
  167SOPE   O2118775   3.690   1.930   6.837 -0.0400 -0.6566 -0.2292
  167SOPE   C2118776   3.742   1.967   6.957  0.4203  0.1383  0.1119
  167SOPE   O2218777   3.683   2.039   7.039 -0.4217  0.0002  0.5944
  167SOPE   C2218778   3.880   1.911   6.967  0.2209  0.1662  0.1902
  167SOPE   H2R18779   3.936   1.930   6.873  0.8247 -0.6641  0.3678
  167SOPE   H2S18780   3.874   1.800   6.979  1.0828  0.0637 -0.2647
  167SOPE    C318781   3.466   1.850   6.851 -0.1467  0.7390  0.1956
  167SOPE    HX18782   3.496   1.765   6.786 -0.4061  2.8857 -2.9149
  167SOPE    HY18783   3.368   1.877   6.808 -0.2386  0.0413 -0.0480
  167SOPE   O3118784   3.463   1.806   6.991  0.0504  0.5615  0.0694
  167SOPE   C3118785   3.376   1.870   7.075  0.6035  0.4051  0.0022
  167SOPE   O3218786   3.306   1.968   7.047  0.1402  0.6012 -0.1023
  167SOPE   C3218787   3.374   1.802   7.210  0.0687  0.0385  0.2019
  167SOPE   H2X18788   3.475   1.804   7.257  1.2012  3.7641 -1.9312
  167SOPE   H2Y18789   3.333   1.701   7.192 -1.9932  0.2579  2.9149
  167SOPE   C2318790   3.959   1.963   7.084 -0.3869 -0.9359  0.3914
  167SOPE   H3R18791   3.933   2.068   7.106  0.2582 -0.5895 -0.4314
  167SOPE   H3S18792   4.067   1.968   7.057 -0.8155 -2.1006 -1.8727
  167SOPE   C2418793   3.943   1.865   7.201  0.5545  0.5047  0.2508
  167SOPE   H4R18794   3.835   1.860   7.227  0.3448 -2.7569 -0.8376
  167SOPE   H4S18795   3.963   1.758   7.181 -4.4482 -0.4539 -0.9609
  167SOPE   C2518796   4.022   1.907   7.327  0.3354 -0.1917  0.0654
  167SOPE   H5R18797   4.131   1.898   7.306  0.5574  1.0999  0.5585
  167SOPE   H5S18798   4.011   2.016   7.343 -0.8426 -0.4972  1.5211
  167SOPE   C2618799   3.982   1.832   7.453 -1.0047 -0.3469  0.2456
  167SOPE   H6R18800   3.872   1.837   7.465 -0.9829 -1.3912  0.9530
  167SOPE   H6S18801   4.006   1.727   7.427 -1.3472  0.1663 -2.4840
  167SOPE   C2718802   4.054   1.884   7.584  0.1778  0.5847  0.0485
  167SOPE   H7R18803   4.162   1.886   7.559  0.2596 -2.3542 -0.2116
  167SOPE   H7S18804   4.027   1.987   7.617 -0.8449 -0.2341  1.9418
  167SOPE   C2818805   4.032   1.792   7.704 -0.5917  0.4290 -0.2963
  167SOPE   H8R18806   4.044   1.850   7.799  0.4988  1.9754 -1.3326
  167SOPE   H8S18807   3.926   1.759   7.710 -1.1260  1.1536 -3.7176
  167SOPE   C2918808   4.125   1.674   7.714 -0.3178  0.0639  0.9742
  167SOPE   H9118809   4.118   1.600   7.633 -1.1907  0.4063  0.7271
  167SOPE  C21018810   4.198   1.637   7.821 -0.0126  0.0176 -0.0925
  167SOPE  H10118811   4.278   1.562   7.815  0.9866  1.0923 -0.4068
  167SOPE  C21118812   4.205   1.702   7.957 -0.0564  0.1383 -0.2687
  167SOPE  H11R18813   4.113   1.760   7.977  0.4135 -0.0072  2.8329
  167SOPE  H11S18814   4.290   1.773   7.970 -1.1056  1.2340  0.8983
  167SOPE  C21218815   4.219   1.617   8.088 -0.0095  0.6206 -0.3086
  167SOPE  H12R18816   4.321   1.574   8.093 -0.3371 -1.0294 -4.3196
  167SOPE  H12S18817   4.154   1.527   8.091  2.4303 -1.2184  0.9536
  167SOPE  C21318818   4.201   1.691   8.221  0.2020 -0.1242  0.0805
  167SOPE  H13R18819   4.096   1.729   8.223  0.8088  1.7413 -1.5811
  167SOPE  H13S18820   4.255   1.787   8.231  0.5448 -0.3980  0.9785
  167SOPE  C21418821   4.231   1.621   8.355 -0.5819 -0.4757  0.2917
  167SOPE  H14R18822   4.205   1.684   8.442  1.7281  0.6605  0.2224
  167SOPE  H14S18823   4.341   1.607   8.353 -0.4321  0.6283  0.2248
  167SOPE  C21518824   4.171   1.478   8.383  0.0594  0.0075 -0.1252
  167SOPE  H15R18825   4.205   1.443   8.283  1.9184  0.3414  0.3507
  167SOPE  H15S18826   4.060   1.474   8.387  0.0853 -0.7568  0.1637
  167SOPE  C21618827   4.238   1.395   8.495 -0.1736 -0.1142 -0.3901
  167SOPE  H16R18828   4.349   1.391   8.487  0.1124  1.1930  2.0711
  167SOPE  H16S18829   4.212   1.288   8.482  0.7654 -0.4763  0.5236
  167SOPE  C21718830   4.201   1.447   8.630 -0.8866  0.1010 -0.3247
  167SOPE  H17R18831   4.091   1.438   8.641 -0.6296 -1.5821  1.3297
  167SOPE  H17S18832   4.228   1.555   8.634  1.4812 -0.4467  1.5383
  167SOPE  C21818833   4.282   1.362   8.738  0.2178 -0.6102 -0.4091
  167SOPE  H18R18834   4.272   1.253   8.716  0.6773 -0.4449 -1.4566
  167SOPE  H18S18835   4.242   1.381   8.840  0.7117  1.8661 -0.6306
  167SOPE  H18T18836   4.386   1.398   8.751 -0.2279  0.2836  0.8375
  167SOPE   C3318837   3.264   1.856   7.303  0.1283 -0.0589  0.2756
  167SOPE   H3X18838   3.165   1.858   7.252 -0.2862 -2.5713  0.8800
  167SOPE   H3Y18839   3.286   1.962   7.331 -1.2751  0.1133  0.7973
  167SOPE   C3418840   3.270   1.771   7.428 -0.0495 -0.1404 -0.0006
  167SOPE   H4X18841   3.373   1.761   7.469 -1.2628 -1.6402  2.9414
  167SOPE   H4Y18842   3.235   1.668   7.404 -2.8291  0.2933  1.7360
  167SOPE   C3518843   3.164   1.830   7.527 -0.0272  0.9341  0.1389
  167SOPE   H5X18844   3.065   1.849   7.480  0.2488 -0.5960 -1.1445
  167SOPE   H5Y18845   3.206   1.928   7.559  0.2589  1.0631 -0.6186
  167SOPE   C3618846   3.142   1.735   7.647  0.3372  0.3211 -0.2204
  167SOPE   H6X18847   3.139   1.632   7.605  0.0744  0.9968 -1.9376
  167SOPE   H6Y18848   3.039   1.758   7.683  0.0821 -1.5617  0.3414
  167SOPE   C3718849   3.248   1.736   7.756  0.4254  0.5943  0.3679
  167SOPE   H7X18850   3.245   1.836   7.803 -2.3778  1.4234 -1.3035
  167SOPE   H7Y18851   3.343   1.704   7.707 -0.2074 -0.1620 -0.4060
  167SOPE   C3818852   3.220   1.617   7.857  0.3086  0.9396 -1.1668
  167SOPE   H8X18853   3.315   1.568   7.887 -0.9315 -1.2746 -0.6717
  167SOPE   H8Y18854   3.151   1.546   7.807  0.0858  1.4703 -1.6343
  167SOPE   C3918855   3.154   1.669   7.988 -0.0970  0.1166  0.1817
  167SOPE   H9X18856   3.053   1.709   7.967 -1.1394 -1.4707  1.8704
  167SOPE   H9Y18857   3.216   1.747   8.036  0.3989  0.7819 -1.4711
  167SOPE  C31018858   3.130   1.559   8.098 -0.1157 -0.2253  0.4214
  167SOPE  H10X18859   3.225   1.523   8.143  1.1797  1.0609 -1.1455
  167SOPE  H10Y18860   3.071   1.478   8.051  0.8922 -0.6330 -0.1780
  167SOPE  C31118861   3.033   1.606   8.197  0.0911  0.2787 -0.0336
  167SOPE  H11X18862   2.944   1.631   8.135  1.6871 -0.2421 -2.6822
  167SOPE  H11Y18863   3.069   1.698   8.248  3.7202 -0.4395 -1.0465
  167SOPE  C31218864   3.004   1.502   8.309 -0.9208  0.1899 -0.1276
  167SOPE  H12X18865   2.961   1.415   8.255  3.7356 -1.2062 -2.0081
  167SOPE  H12Y18866   2.927   1.543   8.378 -1.7437 -2.4167  0.6475
  167SOPE  C31318867   3.124   1.458   8.390 -0.8041 -0.0573  0.2987
  167SOPE  H13X18868   3.192   1.403   8.321 -0.7156  0.7937 -0.3049
  167SOPE  H13Y18869   3.108   1.386   8.473  1.0042  2.2444  2.8057
  167SOPE  C31418870   3.207   1.575   8.447 -0.0243  0.4349 -0.0057
  167SOPE  H14X18871   3.129   1.647   8.478 -2.1736 -2.0669  0.7285
  167SOPE  H14Y18872   3.266   1.609   8.359  1.0660 -3.4851 -0.9965
  167SOPE  C31518873   3.310   1.534   8.558 -0.5278 -0.5889  0.3032
  167SOPE  H15X18874   3.257   1.500   8.649 -2.1825  0.0862 -0.3733
  167SOPE  H15Y18875   3.363   1.630   8.578 -0.9634 -0.4841  1.0137
  167SOPE  C31618876   3.417   1.437   8.506 -0.1768  0.5683 -0.0410
  167SOPE  H16X18877   3.478   1.491   8.430  1.1874  0.9476  1.2620
  167SOPE  H16Y18878   3.364   1.355   8.455  1.6264  1.3071 -3.3880
  167SOPE  C31718879   3.515   1.388   8.621 -0.2948  0.4461  0.0462
  167SOPE  H17X18880   3.566   1.305   8.568  1.1542  0.6139  1.1423
  167SOPE  H17Y18881   3.450   1.358   8.706  2.0014 -0.8132  1.4383
  167SOPE  C31818882   3.609   1.495   8.671 -0.1000 -0.3174  0.3215
  167SOPE  H18X18883   3.669   1.451   8.753 -1.3594  0.4925  1.7155
  167SOPE  H18Y18884   3.559   1.583   8.717  2.8345  1.9436 -0.5199
  167SOPE  H18Z18885   3.676   1.541   8.595 -0.5128 -1.3409 -0.7041
  168SOPE     N18886   2.028   5.141   6.619 -0.2731 -0.5015 -0.4972
  168SOPE   HN118887   2.114   5.197   6.637 -0.7941 -0.0734  0.7880
  168SOPE   HN218888   2.012   5.129   6.517 -3.9576 -1.2418  0.0323
  168SOPE   HN318889   1.942   5.191   6.651  0.9882  1.0742  0.6254
  168SOPE   C1218890   2.047   5.006   6.690  0.3701  0.0887 -0.2925
  168SOPE  H12A18891   2.090   5.024   6.791 -2.7417  0.7314  1.0528
  168SOPE  H12B18892   2.121   4.950   6.630  1.2332 -0.0563  0.8760
  168SOPE   C1118893   1.916   4.926   6.703 -0.2700  0.2958 -0.0798
  168SOPE  H11A18894   1.952   4.846   6.771  0.2447 -0.0336 -0.7409
  168SOPE  H11B18895   1.900   4.877   6.604 -1.8173 -0.2298  0.3926
  168SOPE     P18896   1.657   4.928   6.780  0.3083 -0.0148 -0.0317
  168SOPE   O1318897   1.645   4.809   6.694 -0.2645  0.3122 -0.3379
  168SOPE   O1418898   1.548   5.028   6.758 -0.1784 -0.5779  0.0941
  168SOPE   O1218899   1.796   4.997   6.736 -0.0274  0.6198  0.3490
  168SOPE   O1118900   1.665   4.883   6.936  0.3335  0.4522 -0.4350
  168SOPE    C118901   1.688   4.973   7.039 -0.3165  0.3324  0.4205
  168SOPE    HA18902   1.659   4.935   7.139 -2.2211  3.3223  1.1183
  168SOPE    HB18903   1.621   5.061   7.026  0.7104  0.8399 -1.9379
  168SOPE    C218904   1.839   5.016   7.049  0.2100  0.2867 -0.2339
  168SOPE    HS18905   1.858   5.040   6.942  2.1386 -2.7690 -0.7040
  168SOPE   O2118906   1.909   4.902   7.096  0.2403  0.0651  0.0898
  168SOPE   C2118907   2.041   4.909   7.087  0.5383 -0.2770 -1.0337
  168SOPE   O2218908   2.101   4.992   7.024  0.0620  0.5222 -0.5045
  168SOPE   C2218909   2.099   4.806   7.180 -0.1282 -0.2933 -0.1634
  168SOPE   H2R18910   2.152   4.738   7.109  2.0114  1.8728 -0.7860
  168SOPE   H2S18911   2.020   4.758   7.241 -0.7722 -0.8542 -1.4215
  168SOPE    C318912   1.851   5.141   7.145 -0.2094  0.4053 -0.7216
  168SOPE    HX18913   1.780   5.224   7.127 -0.9432  0.3272  1.4720
  168SOPE    HY18914   1.946   5.196   7.128 -0.7712  1.1200 -1.6417
  168SOPE   O3118915   1.837   5.095   7.281 -0.1666  0.6929  0.1386
  168SOPE   C3118916   1.722   5.113   7.340  0.2057 -0.3842 -0.0034
  168SOPE   O3218917   1.629   5.185   7.308  0.6199  0.1415  0.4074
  168SOPE   C3218918   1.728   5.038   7.479 -0.3074 -0.2742 -0.0831
  168SOPE   H2X18919   1.820   5.073   7.530 -1.2457  0.1813  1.3565
  168SOPE   H2Y18920   1.738   4.929   7.458 -0.0234 -0.5618  1.4031
  168SOPE   C2318921   2.195   4.874   7.286  0.6512  0.4279  0.6284
  168SOPE   H3R18922   2.283   4.924   7.240 -0.0952  1.5938  0.4557
  168SOPE   H3S18923   2.233   4.777   7.326 -0.7155 -0.4325 -0.0925
  168SOPE   C2418924   2.113   4.961   7.376  0.4549 -0.3302 -0.6069
  168SOPE   H4R18925   2.084   5.057   7.327 -1.2042  0.8094  2.3251
  168SOPE   H4S18926   2.019   4.908   7.403  0.0340 -0.2281 -1.8412
  168SOPE   C2518927   2.179   5.003   7.506  0.1960  0.5273  0.0869
  168SOPE   H5R18928   2.205   4.909   7.559 -0.2014  0.6832  0.5604
  168SOPE   H5S18929   2.270   5.064   7.486  0.5107  0.7082  1.9465
  168SOPE   C2618930   2.088   5.085   7.595  0.1166  0.3099  0.5734
  168SOPE   H6R18931   2.037   5.172   7.549  0.8983  0.4341 -0.0767
  168SOPE   H6S18932   2.005   5.018   7.628 -0.5204  0.9770  0.3501
  168SOPE   C2718933   2.159   5.115   7.728  0.0779 -0.3041 -0.0757
  168SOPE   H7R18934   2.201   5.015   7.753  0.5554  0.2258  1.3499
  168SOPE   H7S18935   2.239   5.190   7.711  0.5186 -1.1950 -2.1361
  168SOPE   C2818936   2.052   5.148   7.842  0.4455 -0.5871  0.0285
  168SOPE   H8R18937   1.968   5.078   7.823 -0.1184  0.0811  0.0704
  168SOPE   H8S18938   2.085   5.128   7.946 -1.3827  0.6750  0.8908
  168SOPE   C2918939   1.997   5.285   7.819  0.6277  0.1101  0.2554
  168SOPE   H9118940   1.925   5.297   7.737  0.4594 -0.9828  0.2234
  168SOPE  C21018941   2.026   5.385   7.900  0.3219 -0.0932  0.0306
  168SOPE  H10118942   1.986   5.485   7.876  1.9307  0.3063 -1.1491
  168SOPE  C21118943   2.119   5.388   8.009  0.0794  0.0759  0.3231
  168SOPE  H11R18944   2.194   5.468   7.990  0.3201  0.3409  2.2066
  168SOPE  H11S18945   2.184   5.299   8.013  1.8787  1.3262 -0.0170
  168SOPE  C21218946   2.047   5.391   8.140 -0.1304  0.0478  1.1017
  168SOPE  H12R18947   1.984   5.300   8.149 -0.5558  0.0953 -0.8296
  168SOPE  H12S18948   1.969   5.469   8.152 -0.7593 -0.5573  1.0417
  168SOPE  C21318949   2.149   5.392   8.261  0.5016  0.1267 -0.2105
  168SOPE  H13R18950   2.222   5.475   8.248 -0.7274  0.9777 -2.0665
  168SOPE  H13S18951   2.221   5.308   8.268 -0.5726 -0.7916 -0.0099
  168SOPE  C21418952   2.067   5.391   8.390  0.3469 -0.5760 -0.4442
  168SOPE  H14R18953   2.133   5.373   8.477 -2.6002 -0.3830  2.0001
  168SOPE  H14S18954   1.981   5.320   8.389 -0.2564  0.1319  0.0851
  168SOPE  C21518955   1.999   5.526   8.420 -0.5911  0.4952 -1.0403
  168SOPE  H15R18956   1.916   5.551   8.350 -0.1116  2.9813 -0.8060
  168SOPE  H15S18957   2.087   5.593   8.414  0.8035 -1.0936  0.4128
  168SOPE  C21618958   1.939   5.523   8.567 -0.4590  0.0115  0.3971
  168SOPE  H16R18959   1.893   5.624   8.581  1.8512  1.1762  0.0513
  168SOPE  H16S18960   2.019   5.508   8.643  0.9468  2.2255 -0.5252
  168SOPE  C21718961   1.829   5.420   8.591 -0.6697  0.0516  0.2921
  168SOPE  H17R18962   1.870   5.317   8.586  0.9712  0.6421  0.8409
  168SOPE  H17S18963   1.743   5.433   8.522 -0.0803 -0.3107 -0.5297
  168SOPE  C21818964   1.782   5.434   8.739  0.2332 -0.1285 -0.2954
  168SOPE  H18R18965   1.734   5.533   8.752 -2.8015 -1.6602  1.3422
  168SOPE  H18S18966   1.870   5.410   8.803 -0.0116  0.5601  0.3079
  168SOPE  H18T18967   1.691   5.371   8.755  0.7899 -0.9638 -0.3368
  168SOPE   C3318968   1.606   5.067   7.573 -0.2295  0.1853  0.2828
  168SOPE   H3X18969   1.517   5.011   7.537 -0.3148  0.7557 -0.3988
  168SOPE   H3Y18970   1.592   5.177   7.569  0.7537  0.2976 -0.4432
  168SOPE   C3418971   1.641   5.025   7.719 -0.5621  0.1715 -0.1012
  168SOPE   H4X18972   1.548   5.041   7.777 -1.2603  1.3565 -1.4713
  168SOPE   H4Y18973   1.713   5.100   7.756 -0.0121 -1.2649  1.9082
  168SOPE   C3518974   1.693   4.882   7.743 -0.2785  0.4597  0.8485
  168SOPE   H5X18975   1.793   4.860   7.700  0.1936  0.7721  1.7590
  168SOPE   H5Y18976   1.622   4.812   7.694 -2.1908  0.7647  2.9993
  168SOPE   C3618977   1.701   4.845   7.889  0.6145 -0.8471  0.2616
  168SOPE   H6X18978   1.728   4.738   7.886  0.6043 -0.8332 -0.4367
  168SOPE   H6Y18979   1.599   4.852   7.934 -0.4252  0.8565 -2.1405
  168SOPE   C3718980   1.797   4.921   7.984 -0.1339  0.3013 -0.5372
  168SOPE   H7X18981   1.781   5.031   7.982  1.1925  0.5967  1.6318
  168SOPE   H7Y18982   1.896   4.908   7.935 -0.0461  0.8948 -0.5217
  168SOPE   C3818983   1.804   4.874   8.129 -0.0097  0.3438  0.1429
  168SOPE   H8X18984   1.894   4.914   8.181 -0.5747  0.1726  1.2929
  168SOPE   H8Y18985   1.818   4.765   8.118 -2.0415 -0.0193  0.7562
  168SOPE   C3918986   1.676   4.906   8.209  0.2637  0.8812  0.2654
  168SOPE   H9X18987   1.607   4.825   8.175  0.0718  1.1693 -0.0410
  168SOPE   H9Y18988   1.631   5.000   8.169 -1.7750 -0.5924 -1.1204
  168SOPE  C31018989   1.704   4.940   8.357  0.0187  0.5885 -0.5264
  168SOPE  H10X18990   1.767   5.032   8.355  1.1188 -0.0913  0.9353
  168SOPE  H10Y18991   1.763   4.861   8.408  0.2907  0.3832 -1.1532
  168SOPE  C31118992   1.586   4.981   8.450 -0.0421  0.1443  0.2799
  168SOPE  H11X18993   1.604   4.951   8.556  1.8172  0.7929  0.1771
  168SOPE  H11Y18994   1.485   4.946   8.419 -0.9231  3.0185 -0.4258
  168SOPE  C31218995   1.573   5.137   8.458 -0.0173 -0.0049 -0.1621
  168SOPE  H12X18996   1.535   5.174   8.361 -1.7318 -2.7918 -0.6300
  168SOPE  H12Y18997   1.671   5.189   8.468  0.1505 -0.1884 -0.8035
  168SOPE  C31318998   1.488   5.184   8.582 -0.0415  0.5684  0.2892
  168SOPE  H13X18999   1.495   5.294   8.595  1.6338  0.5363 -0.0650
  168SOPE  H13Y19000   1.551   5.147   8.666  2.8667 -0.9253 -2.3029
  168SOPE  C31419001   1.355   5.109   8.594 -0.2460 -0.2046  1.1197
  168SOPE  H14X19002   1.313   5.155   8.686  0.0717  0.9533  0.7115
  168SOPE  H14Y19003   1.364   4.999   8.606 -2.1483 -1.1552 -3.7508
  168SOPE  C31519004   1.243   5.139   8.493 -0.5304  0.2042 -0.1387
  168SOPE  H15X19005   1.279   5.107   8.393 -1.1666  1.9772 -0.9697
  168SOPE  H15Y19006   1.232   5.249   8.498  0.4339  0.3043 -0.0824
  168SOPE  C31619007   1.115   5.062   8.533 -1.3227 -0.3551  0.4222
  168SOPE  H16X19008   1.077   5.085   8.634 -0.8628  0.8205  0.3440
  168SOPE  H16Y19009   1.155   4.958   8.529 -0.0144  0.0718  1.5184
  168SOPE  C31719010   1.007   5.075   8.420 -0.2876  0.4816 -0.0950
  168SOPE  H17X19011   0.924   5.008   8.451 -0.8870  0.4169 -1.7516
  168SOPE  H17Y19012   1.046   5.042   8.321 -0.8745 -1.5760  0.2977
  168SOPE  C31819013   0.944   5.213   8.407  0.3233 -0.2110 -0.1775
  168SOPE  H18X19014   0.879   5.219   8.497  0.3643  0.9627 -0.2149
  168SOPE  H18Y19015   0.877   5.210   8.319  1.3530  0.5001 -1.0108
  168SOPE  H18Z19016   1.009   5.301   8.387  0.3633 -0.2340 -0.1496
  169SOPE     N19017   3.669   1.017   6.482 -0.0187  0.2868 -0.7386
  169SOPE   HN119018   3.664   1.121   6.478 -0.4683  0.2287 -2.0955
  169SOPE   HN219019   3.765   0.982   6.465  1.1337  2.6594  0.3080
  169SOPE   HN319020   3.606   0.979   6.409  0.5567  0.0961 -1.1342
  169SOPE   C1219021   3.624   0.970   6.619  0.3029 -0.4902  0.0272
  169SOPE  H12A19022   3.513   0.960   6.614  0.4050 -0.9604 -2.9449
  169SOPE  H12B19023   3.649   1.053   6.689 -1.7633 -0.9989  1.4818
  169SOPE   C1119024   3.692   0.835   6.653  0.7098 -0.9466  0.0132
  169SOPE  H11A19025   3.656   0.768   6.572 -1.4228 -0.6507  0.6568
  169SOPE  H11B19026   3.638   0.782   6.735 -0.7472 -3.7618 -2.5698
  169SOPE     P19027   3.923   0.789   6.552  0.7966 -0.0458  0.5465
  169SOPE   O1319028   3.906   0.883   6.439  0.5695  0.1830 -0.1605
  169SOPE   O1419029   3.887   0.647   6.528 -0.2071 -0.6680  0.9215
  169SOPE   O1219030   3.834   0.846   6.672  0.5134  0.4936 -0.3851
  169SOPE   O1119031   4.068   0.793   6.609 -0.7552  0.0340 -0.2263
  169SOPE    C119032   4.103   0.777   6.745  0.4456 -0.6112 -0.2002
  169SOPE    HA19033   4.054   0.857   6.805 -0.3062 -2.8431  2.3574
  169SOPE    HB19034   4.213   0.787   6.749  0.4081 -0.5679  1.3073
  169SOPE    C219035   4.067   0.638   6.812 -0.0697  0.1105  0.3159
  169SOPE    HS19036   4.102   0.561   6.741 -0.0893 -1.1710  1.6465
  169SOPE   O2119037   3.920   0.629   6.839  0.0865  0.7785 -0.7367
  169SOPE   C2119038   3.888   0.515   6.889 -0.3003  0.0104 -0.5343
  169SOPE   O2219039   3.959   0.414   6.898  0.0741  0.7659 -0.4569
  169SOPE   C2219040   3.748   0.516   6.943  0.2120  0.8073  0.1405
  169SOPE   H2R19041   3.720   0.409   6.937 -0.0502  0.9502 -1.6853
  169SOPE   H2S19042   3.683   0.578   6.877 -1.5594  0.7636  1.7500
  169SOPE    C319043   4.156   0.616   6.944  0.3427  0.1837  1.0748
  169SOPE    HX19044   4.260   0.631   6.909 -0.5136  0.0456 -1.7880
  169SOPE    HY19045   4.155   0.514   6.990  0.0256 -0.4941 -0.3911
  169SOPE   O3119046   4.110   0.713   7.038  0.0622  0.4898 -0.4397
  169SOPE   C3119047   4.191   0.751   7.136  0.4142  0.1428 -0.5824
  169SOPE   O3219048   4.308   0.729   7.144 -0.4851  0.1681 -0.8642
  169SOPE   C3219049   4.107   0.843   7.225  0.2679 -0.3088  0.4945
  169SOPE   H2X19050   4.017   0.870   7.167  1.0850  1.1281 -0.1444
  169SOPE   H2Y19051   4.163   0.936   7.249  0.5205  0.5521 -2.9020
  169SOPE   C2319052   3.739   0.573   7.085 -0.4982 -0.5163  0.5573
  169SOPE   H3R19053   3.631   0.585   7.107 -0.6016  0.1688 -0.2752
  169SOPE   H3S19054   3.797   0.667   7.086  0.7538 -1.1576 -2.4018
  169SOPE   C2419055   3.796   0.477   7.197 -0.1996  0.2422 -0.5070
  169SOPE   H4R19056   3.740   0.382   7.212 -2.0614  1.6055  1.7757
  169SOPE   H4S19057   3.906   0.467   7.179 -0.0146  1.1632  0.0711
  169SOPE   C2519058   3.773   0.533   7.339  0.1790 -0.5320 -0.1496
  169SOPE   H5R19059   3.786   0.644   7.345  2.9671 -0.6354 -2.2564
  169SOPE   H5S19060   3.666   0.527   7.370  0.1575  2.1932  0.5655
  169SOPE   C2619061   3.844   0.457   7.450  0.8309 -0.6195  0.0458
  169SOPE   H6R19062   3.820   0.348   7.446 -1.0828 -0.1977 -1.1428
  169SOPE   H6S19063   3.952   0.472   7.433  0.4250  2.0918 -0.5469
  169SOPE   C2719064   3.807   0.502   7.595 -0.0831 -0.0593  0.4765
  169SOPE   H7R19065   3.826   0.611   7.585  0.4335 -0.2088 -0.2372
  169SOPE   H7S19066   3.696   0.497   7.601 -0.1322 -0.6942 -0.5864
  169SOPE   C2819067   3.879   0.437   7.710  0.5962  0.2285 -0.0086
  169SOPE   H8R19068   3.863   0.333   7.674  2.4776 -0.1103  0.0400
  169SOPE   H8S19069   3.986   0.460   7.695  0.1004  3.0620  0.1438
  169SOPE   C2919070   3.825   0.455   7.859 -0.7552  0.2506  0.2705
  169SOPE   H9119071   3.722   0.418   7.865 -0.3788 -1.8783 -3.5794
  169SOPE  C21019072   3.887   0.513   7.970  0.0425 -0.0309 -0.0566
  169SOPE  H10119073   3.830   0.512   8.064 -0.5373 -0.0430 -0.4054
  169SOPE  C21119074   4.028   0.575   7.983  0.0923 -0.2704  0.0475
  169SOPE  H11R19075   4.033   0.674   7.933 -0.4793 -1.3902 -2.3452
  169SOPE  H11S19076   4.105   0.528   7.918  1.9496  1.5336  0.7921
  169SOPE  C21219077   4.076   0.590   8.130 -0.2917 -0.6970  0.3191
  169SOPE  H12R19078   3.994   0.616   8.201 -0.1104 -0.2531  0.3634
  169SOPE  H12S19079   4.147   0.675   8.138 -2.7583  1.6088 -0.8744
  169SOPE  C21319080   4.137   0.462   8.192 -0.9732 -0.1863  0.0558
  169SOPE  H13R19081   4.178   0.489   8.292  2.0543 -0.1452 -1.1080
  169SOPE  H13S19082   4.229   0.434   8.137 -0.5543  1.0370  0.1041
  169SOPE  C21419083   4.040   0.340   8.208 -0.0845  0.0477  0.3102
  169SOPE  H14R19084   4.102   0.248   8.208  1.9207  1.2802  2.4249
  169SOPE  H14S19085   3.971   0.333   8.122  1.0068  0.9960 -0.6733
  169SOPE  C21519086   3.956   0.335   8.332 -0.3778  0.0562 -0.6127
  169SOPE  H15R19087   3.896   0.242   8.330 -4.2811  2.3373 -0.7220
  169SOPE  H15S19088   3.889   0.424   8.328  0.9360  1.0224 -3.3091
  169SOPE  C21619089   4.034   0.357   8.461  0.3029 -0.6455  0.0651
  169SOPE  H16R19090   4.057   0.463   8.485  1.3766 -0.6066 -0.9969
  169SOPE  H16S19091   4.137   0.314   8.460 -0.1503 -1.8151 -1.7855
  169SOPE  C21719092   3.963   0.289   8.591  0.2312 -0.1449  0.1416
  169SOPE  H17R19093   3.931   0.186   8.564 -3.4607  1.3924 -2.1865
  169SOPE  H17S19094   3.866   0.343   8.599  0.3648  0.0606  0.3725
  169SOPE  C21819095   4.050   0.303   8.709 -0.3014  0.0700 -0.1117
  169SOPE  H18R19096   4.097   0.404   8.710  0.3232 -0.2063  1.1204
  169SOPE  H18S19097   4.120   0.217   8.713 -0.4890 -0.0921 -0.3557
  169SOPE  H18T19098   3.981   0.300   8.796 -1.6971 -0.9001 -1.2212
  169SOPE   C3319099   4.069   0.776   7.353  0.6445  0.2632 -0.1543
  169SOPE   H3X19100   4.015   0.679   7.344  1.4107 -0.9577  4.8737
  169SOPE   H3Y19101   3.997   0.840   7.410  1.7855  0.3795  1.2110
  169SOPE   C3419102   4.192   0.748   7.450 -0.3965  0.4931 -0.1371
  169SOPE   H4X19103   4.264   0.688   7.391 -1.5002 -1.6257  0.5827
  169SOPE   H4Y19104   4.157   0.691   7.538 -1.6156 -1.6631 -1.9121
  169SOPE   C3519105   4.267   0.871   7.504 -0.1711 -0.4166 -0.4411
  169SOPE   H5X19106   4.186   0.934   7.546  0.6089 -0.3705  1.0485
  169SOPE   H5Y19107   4.303   0.942   7.427  1.4312  0.1723  0.8146
  169SOPE   C3619108   4.369   0.852   7.623 -0.3770 -0.7574  0.3742
  169SOPE   H6X19109   4.402   0.947   7.670  0.1874 -1.2291  0.9535
  169SOPE   H6Y19110   4.449   0.789   7.577 -0.9527 -1.9696  0.9730
  169SOPE   C3719111   4.311   0.759   7.728 -0.2180 -0.4975 -0.2390
  169SOPE   H7X19112   4.304   0.658   7.682  3.0183 -0.5335 -0.8783
  169SOPE   H7Y19113   4.213   0.796   7.764  0.0699  0.2300 -0.2039
  169SOPE   C3819114   4.404   0.753   7.859 -0.4069  0.3893 -0.6015
  169SOPE   H8X19115   4.496   0.815   7.865  0.8232 -1.5124  2.4557
  169SOPE   H8Y19116   4.332   0.784   7.937 -0.2305 -0.9947  0.1381
  169SOPE   C3919117   4.444   0.613   7.907 -0.5722  0.7188 -1.0890
  169SOPE   H9X19118   4.441   0.551   7.815  0.1075 -1.6521  0.3835
  169SOPE   H9Y19119   4.361   0.571   7.968 -0.5690 -1.0395 -2.2224
  169SOPE  C31019120   4.579   0.606   7.988 -0.2803  0.5655  0.3502
  169SOPE  H10X19121   4.669   0.636   7.930  0.0869 -0.7439  0.2058
  169SOPE  H10Y19122   4.599   0.499   8.008 -1.4668 -0.3580 -2.8171
  169SOPE  C31119123   4.572   0.675   8.124  0.0211 -0.4980 -0.6538
  169SOPE  H11X19124   4.575   0.785   8.107  2.7371 -0.4857 -0.5870
  169SOPE  H11Y19125   4.674   0.660   8.166 -0.4894  0.5918  1.0970
  169SOPE  C31219126   4.461   0.621   8.218  0.1859  0.4410  0.3691
  169SOPE  H12X19127   4.452   0.511   8.217  0.1138  0.4485  0.2331
  169SOPE  H12Y19128   4.361   0.656   8.184  0.4200 -0.1093 -0.9652
  169SOPE  C31319129   4.478   0.663   8.366 -0.6794  0.3654  0.8330
  169SOPE  H13X19130   4.487   0.773   8.353  0.1193  0.1094 -1.0841
  169SOPE  H13Y19131   4.578   0.628   8.401  1.0775  3.6350 -0.4264
  169SOPE  C31419132   4.365   0.629   8.458  0.2388 -0.1176 -0.3352
  169SOPE  H14X19133   4.356   0.519   8.464  0.7602 -0.1310  0.4007
  169SOPE  H14Y19134   4.275   0.673   8.410 -0.5557 -0.9104  0.4051
  169SOPE  C31519135   4.393   0.669   8.603  0.1964 -0.8336  0.1555
  169SOPE  H15X19136   4.471   0.607   8.651  1.3808  1.6363  1.5925
  169SOPE  H15Y19137   4.300   0.638   8.657  0.0600 -1.3839 -0.3759
  169SOPE  C31619138   4.422   0.819   8.640 -0.2524  0.0892  0.0962
  169SOPE  H16X19139   4.359   0.883   8.575  4.1591  4.9695 -0.0340
  169SOPE  H16Y19140   4.529   0.837   8.615 -0.4865  0.3394 -0.7584
  169SOPE  C31719141   4.381   0.853   8.789  0.0694 -0.0325 -0.0172
  169SOPE  H17X19142   4.458   0.800   8.849 -0.3646  1.4173  1.9080
  169SOPE  H17Y19143   4.277   0.822   8.811  0.3072 -0.9546 -0.1494
  169SOPE  C31819144   4.383   1.005   8.816 -0.3967  0.2110 -0.3092
  169SOPE  H18X19145   4.319   1.026   8.904 -2.5183 -0.9977 -1.4728
  169SOPE  H18Y19146   4.337   1.056   8.728 -1.7052 -1.8246 -0.8743
  169SOPE  H18Z19147   4.487   1.045   8.819 -1.5755  3.4677  1.1821
  170SOPE     N19148   4.470   5.247   6.491 -0.1009  0.5250  0.4643
  170SOPE   HN119149   4.560   5.297   6.480 -0.9923  1.7291 -2.2893
  170SOPE   HN219150   4.402   5.316   6.453 -1.6668 -0.5685  1.1808
  170SOPE   HN319151   4.441   5.232   6.590 -1.3062 -2.4903 -0.2274
  170SOPE   C1219152   4.478   5.125   6.406  0.2377 -0.5460  0.0841
  170SOPE  H12A19153   4.527   5.148   6.310  1.1943 -0.6392  0.5357
  170SOPE  H12B19154   4.371   5.100   6.386  0.2419 -0.3904 -0.1262
  170SOPE   C1119155   4.535   5.005   6.486  0.6721 -0.1929 -0.0649
  170SOPE  H11A19156   4.633   5.024   6.534  0.6075 -2.5510  1.1760
  170SOPE  H11B19157   4.541   4.929   6.405 -2.3752 -0.8958  0.2136
  170SOPE     P19158   4.507   4.863   6.696  0.1519 -0.2368 -0.0745
  170SOPE   O1319159   4.551   4.933   6.820 -0.1795 -0.1163 -0.5350
  170SOPE   O1419160   4.617   4.778   6.636 -0.5771  0.1003  0.3271
  170SOPE   O1219161   4.448   4.970   6.597  0.1386 -0.0197  0.8879
  170SOPE   O1119162   4.378   4.781   6.730 -0.3097 -0.0882 -0.0523
  170SOPE    C119163   4.249   4.831   6.712  0.2316 -0.0656 -0.3244
  170SOPE    HA19164   4.183   4.742   6.725  0.8505 -0.8869 -2.4181
  170SOPE    HB19165   4.228   4.852   6.605 -0.8024  2.2890  0.2681
  170SOPE    C219166   4.207   4.945   6.800 -0.3147 -0.5010 -0.1736
  170SOPE    HS19167   4.250   5.038   6.757  0.7829 -1.5612 -1.4634
  170SOPE   O2119168   4.249   4.925   6.939  0.0165 -0.4177  0.0112
  170SOPE   C2119169   4.291   5.037   7.004  0.0507  0.1016  0.1605
  170SOPE   O2219170   4.305   5.148   6.953 -0.3354 -0.2968 -0.1071
  170SOPE   C2219171   4.317   5.001   7.142 -0.0059 -0.2572 -0.0753
  170SOPE   H2R19172   4.388   4.916   7.137 -0.4797 -0.6642 -0.0415
  170SOPE   H2S19173   4.224   4.962   7.190  0.5881  1.0855  2.3641
  170SOPE    C319174   4.052   4.956   6.793  0.0800  0.7055  0.2851
  170SOPE    HX19175   4.008   4.862   6.833 -1.3011  0.7958 -0.9290
  170SOPE    HY19176   4.035   4.967   6.683  0.5140  0.8058  0.2273
  170SOPE   O3119177   4.009   5.069   6.870 -0.2372  0.5295 -0.3902
  170SOPE   C3119178   3.901   5.128   6.829  0.5910  0.4087  0.2302
  170SOPE   O3219179   3.829   5.093   6.738  0.1411 -0.2957 -0.0657
  170SOPE   C3219180   3.882   5.240   6.937 -0.8118 -0.1348  0.3898
  170SOPE   H2X19181   3.828   5.200   7.025  1.3805 -1.5213  1.1809
  170SOPE   H2Y19182   3.815   5.314   6.888  1.3147  1.0292 -0.9268
  170SOPE   C2319183   4.386   5.118   7.218 -0.3735  0.1644 -0.4740
  170SOPE   H3R19184   4.477   5.154   7.164 -0.5950 -1.0880 -1.7596
  170SOPE   H3S19185   4.421   5.069   7.311  1.1467  0.4382 -0.8699
  170SOPE   C2419186   4.296   5.232   7.259  0.0756 -0.1282 -0.4074
  170SOPE   H4R19187   4.269   5.276   7.161  2.4879  0.8921 -0.6759
  170SOPE   H4S19188   4.208   5.191   7.313  0.2187 -0.3857 -0.3688
  170SOPE   C2519189   4.373   5.340   7.349 -0.3236  0.1371  1.1510
  170SOPE   H5R19190   4.452   5.375   7.279 -1.3638 -0.9146 -0.6171
  170SOPE   H5S19191   4.299   5.415   7.384 -2.8261 -0.5979 -2.0919
  170SOPE   C2619192   4.443   5.277   7.477 -0.8822  0.0177  0.2640
  170SOPE   H6R19193   4.517   5.200   7.446 -0.1786 -0.4864  2.9426
  170SOPE   H6S19194   4.500   5.352   7.536 -3.8743  0.1241  3.3404
  170SOPE   C2719195   4.348   5.197   7.569  0.3988 -0.0975  0.0827
  170SOPE   H7R19196   4.255   5.250   7.597 -0.0151 -1.1289  0.7350
  170SOPE   H7S19197   4.328   5.103   7.512  2.2034 -0.5345  0.1023
  170SOPE   C2819198   4.431   5.157   7.696  0.6472  0.3675  0.5930
  170SOPE   H8R19199   4.522   5.098   7.669  0.0377  0.5393 -2.1367
  170SOPE   H8S19200   4.458   5.251   7.749  0.0723  0.9711 -0.1620
  170SOPE   C2919201   4.335   5.080   7.776  0.4752 -0.6923 -0.3543
  170SOPE   H9119202   4.317   4.981   7.733 -3.3836  0.2829 -1.4160
  170SOPE  C21019203   4.274   5.112   7.890  0.0226  0.2518 -0.5830
  170SOPE  H10119204   4.197   5.043   7.929 -0.8112  2.4374  1.9975
  170SOPE  C21119205   4.286   5.246   7.958 -0.5968 -0.3357  0.1933
  170SOPE  H11R19206   4.199   5.271   8.022 -1.8836  1.2321 -2.0042
  170SOPE  H11S19207   4.300   5.332   7.889 -2.6608  1.0006  1.3171
  170SOPE  C21219208   4.401   5.247   8.058 -0.1534  0.7032 -0.7447
  170SOPE  H12R19209   4.424   5.352   8.087  0.6890  1.1582 -2.8874
  170SOPE  H12S19210   4.495   5.206   8.015 -0.2976  0.4383 -0.8103
  170SOPE  C21319211   4.373   5.170   8.196  0.0531 -0.6460 -0.4030
  170SOPE  H13R19212   4.378   5.060   8.184 -2.0827 -0.6681 -1.5828
  170SOPE  H13S19213   4.266   5.196   8.212  0.5117  2.0526 -1.2178
  170SOPE  C21419214   4.462   5.219   8.311 -0.4062  0.1566  0.7955
  170SOPE  H14R19215   4.441   5.326   8.331  1.7574  0.0560  4.5480
  170SOPE  H14S19216   4.570   5.201   8.293 -0.3397  1.5896 -0.4459
  170SOPE  C21519217   4.428   5.148   8.444  0.1814 -0.0781 -0.7697
  170SOPE  H15R19218   4.491   5.187   8.527 -3.5760  1.8526  1.4473
  170SOPE  H15S19219   4.472   5.046   8.445  3.1528  1.0951  0.3922
  170SOPE  C21619220   4.277   5.148   8.481  0.6503 -0.2811  0.5241
  170SOPE  H16R19221   4.219   5.115   8.392 -2.4670  3.8104  0.7063
  170SOPE  H16S19222   4.236   5.248   8.506 -0.3696 -0.6695  0.4779
  170SOPE  C21719223   4.242   5.072   8.609  0.3875 -0.7155 -0.2539
  170SOPE  H17R19224   4.296   4.975   8.606  0.0930 -0.8731 -2.5070
  170SOPE  H17S19225   4.132   5.057   8.605  0.3366 -0.2673 -0.8304
  170SOPE  C21819226   4.300   5.145   8.732 -0.1886  0.3185 -0.4522
  170SOPE  H18R19227   4.410   5.154   8.741 -0.2079  0.4107 -0.2816
  170SOPE  H18S19228   4.253   5.101   8.823  0.8532 -0.0467 -0.0771
  170SOPE  H18T19229   4.261   5.249   8.727 -0.4446  0.4372  2.1827
  170SOPE   C3319230   4.018   5.307   6.975  0.3880 -0.3321  0.3601
  170SOPE   H3X19231   4.055   5.349   6.879 -1.1131  1.3358  0.4682
  170SOPE   H3Y19232   4.104   5.252   7.021  1.9104  2.0985  0.6242
  170SOPE   C3419233   3.993   5.421   7.078  0.3445 -0.2537 -0.0415
  170SOPE   H4X19234   3.930   5.503   7.036  0.4522  0.4556  1.1388
  170SOPE   H4Y19235   4.092   5.471   7.079  0.5394 -0.6512  0.5808
  170SOPE   C3519236   3.948   5.363   7.206  0.5440 -0.2161 -0.5751
  170SOPE   H5X19237   4.006   5.269   7.222  0.0188 -0.8146 -2.0428
  170SOPE   H5Y19238   3.843   5.328   7.200 -0.3725  2.3605 -0.8026
  170SOPE   C3619239   3.946   5.468   7.323  0.2217  0.2755  0.2542
  170SOPE   H6X19240   3.851   5.525   7.326 -0.4123 -0.6347 -1.4938
  170SOPE   H6Y19241   4.015   5.544   7.281 -2.1480  1.9684 -0.8004
  170SOPE   C3719242   3.987   5.417   7.462  0.4641 -0.4131 -0.3118
  170SOPE   H7X19243   4.085   5.364   7.457  1.2042  0.6542  1.9346
  170SOPE   H7Y19244   3.905   5.354   7.503  0.5403  0.1958  0.8017
  170SOPE   C3819245   4.018   5.535   7.564 -0.5438  0.0292  0.3154
  170SOPE   H8X19246   3.920   5.584   7.582  0.1952  2.0136 -0.7575
  170SOPE   H8Y19247   4.088   5.602   7.511 -1.2891  1.7042  1.3582
  170SOPE   C3919248   4.082   5.508   7.704  0.5910  0.2973  0.4479
  170SOPE   H9X19249   4.175   5.459   7.667  0.2745  1.8037 -2.5810
  170SOPE   H9Y19250   4.015   5.441   7.763  1.7376 -1.1882  0.1365
  170SOPE  C31019251   4.116   5.633   7.781 -0.4388 -0.2800 -0.4705
  170SOPE  H10X19252   4.032   5.704   7.795 -1.6123 -1.4281 -1.4170
  170SOPE  H10Y19253   4.183   5.691   7.713 -1.0032  0.2698 -0.5624
  170SOPE  C31119254   4.186   5.609   7.916  0.0641 -0.0184 -0.5440
  170SOPE  H11X19255   4.224   5.707   7.953 -0.1163 -0.0223 -0.3406
  170SOPE  H11Y19256   4.281   5.554   7.903 -0.0462 -0.3362 -0.0335
  170SOPE  C31219257   4.100   5.552   8.026  0.1629  0.3713  0.1847
  170SOPE  H12X19258   4.081   5.446   7.999  0.5258  0.2392  0.4450
  170SOPE  H12Y19259   4.003   5.606   8.015 -0.3139 -0.8795 -2.9793
  170SOPE  C31319260   4.146   5.570   8.171 -0.3355  0.2216 -0.5964
  170SOPE  H13X19261   4.151   5.681   8.174 -2.5786  0.3553  0.2155
  170SOPE  H13Y19262   4.248   5.526   8.171 -0.0886  0.7895 -0.4412
  170SOPE  C31419263   4.050   5.503   8.271 -0.4952  0.1757 -0.2289
  170SOPE  H14X19264   4.044   5.395   8.243 -3.3556  0.5922 -1.6482
  170SOPE  H14Y19265   3.946   5.540   8.258 -1.0617 -1.8902 -2.2943
  170SOPE  C31519266   4.119   5.522   8.412  0.1321  0.8453 -0.0238
  170SOPE  H15X19267   4.139   5.630   8.426 -0.6176  0.9989 -0.0735
  170SOPE  H15Y19268   4.209   5.457   8.407 -1.1360 -1.0554  0.5104
  170SOPE  C31619269   4.029   5.476   8.532 -0.4625 -0.0640  0.3140
  170SOPE  H16X19270   3.976   5.384   8.498 -0.9441  0.1192  0.5626
  170SOPE  H16Y19271   3.953   5.556   8.546  1.3287  1.8162 -0.2002
  170SOPE  C31719272   4.097   5.458   8.670  0.4451 -0.4235 -0.0989
  170SOPE  H17X19273   4.206   5.447   8.652  0.5193  1.2784 -0.8991
  170SOPE  H17Y19274   4.069   5.360   8.714 -1.1157  1.0219  2.3612
  170SOPE  C31819275   4.058   5.568   8.771  0.1593  0.8328  0.4510
  170SOPE  H18X19276   4.084   5.517   8.867  2.7301 -0.7548 -0.9562
  170SOPE  H18Y19277   3.948   5.582   8.764 -0.1974 -1.1620  1.2890
  170SOPE  H18Z19278   4.109   5.664   8.748 -1.5918  1.5298 -0.6341
  171SOPE     N19279   5.043   1.055   6.203  0.1453  0.0559 -0.0931
  171SOPE   HN119280   4.942   1.033   6.219 -0.8284  0.8582 -4.1357
  171SOPE   HN219281   5.074   0.997   6.123  0.1288 -1.0258  0.6503
  171SOPE   HN319282   5.105   1.021   6.280  0.0545 -1.0188 -0.4801
  171SOPE   C1219283   5.058   1.199   6.169  0.0092  0.1014 -0.3357
  171SOPE  H12A19284   4.965   1.243   6.128  0.7837  1.2572 -0.9308
  171SOPE  H12B19285   5.138   1.206   6.092  0.5209 -1.3013  0.0320
  171SOPE   C1119286   5.105   1.273   6.295  0.0178 -0.0341 -0.2321
  171SOPE  H11A19287   5.036   1.247   6.378  1.0940 -0.6647  0.4759
  171SOPE  H11B19288   5.087   1.378   6.262  0.2302 -0.3018 -1.2502
  171SOPE     P19289   5.318   1.338   6.419 -0.1381 -0.2012  0.2325
  171SOPE   O1319290   5.394   1.418   6.331  0.4546  0.4150 -0.0443
  171SOPE   O1419291   5.397   1.259   6.509  0.0505 -0.2371 -0.7536
  171SOPE   O1219292   5.239   1.235   6.333  0.6905  0.3767  0.2027
  171SOPE   O1119293   5.213   1.429   6.493 -0.0758  0.3396 -0.2803
  171SOPE    C119294   5.131   1.381   6.605 -0.2043  0.5923 -0.6875
  171SOPE    HA19295   5.157   1.274   6.623 -0.7781  0.5454 -0.0651
  171SOPE    HB19296   5.023   1.379   6.577 -0.8318 -0.8787  1.5401
  171SOPE    C219297   5.157   1.467   6.732  0.2134 -0.7619  0.0546
  171SOPE    HS19298   5.183   1.572   6.704  1.8801 -0.8358  1.1978
  171SOPE   O2119299   5.268   1.419   6.807 -0.1196  0.4651 -0.0399
  171SOPE   C2119300   5.323   1.493   6.899 -0.2822 -0.5394  0.6193
  171SOPE   O2219301   5.274   1.600   6.934 -0.0323  0.0501 -0.0257
  171SOPE   C2219302   5.446   1.429   6.958  0.3026  0.3492  0.6392
  171SOPE   H2R19303   5.532   1.495   6.932  0.3986  0.0022  0.0677
  171SOPE   H2S19304   5.460   1.329   6.912 -1.7881  0.4272 -0.2761
  171SOPE    C319305   5.023   1.472   6.816 -0.5927 -0.3617  0.1430
  171SOPE    HX19306   4.953   1.523   6.748 -1.4734  1.5962  2.3910
  171SOPE    HY19307   5.026   1.546   6.898 -3.0931 -0.2470  0.1908
  171SOPE   O3119308   4.973   1.349   6.867 -1.0340 -0.2891  0.2621
  171SOPE   C3119309   4.875   1.374   6.949  0.7103 -0.3045  0.0405
  171SOPE   O3219310   4.825   1.486   6.970 -0.1631  0.2299  0.2269
  171SOPE   C3219311   4.841   1.249   7.012  0.0953  0.0423 -0.3384
  171SOPE   H2X19312   4.934   1.197   7.042  0.8150  0.7196 -1.3142
  171SOPE   H2Y19313   4.795   1.194   6.928  2.2056  0.2288 -1.7106
  171SOPE   C2319314   5.448   1.392   7.111  0.1261  0.3180  0.7109
  171SOPE   H3R19315   5.468   1.283   7.114 -0.3098  0.1570 -1.1100
  171SOPE   H3S19316   5.350   1.414   7.158  0.4308  1.8657  0.6729
  171SOPE   C2419317   5.558   1.465   7.183  0.0813 -0.0630  0.6174
  171SOPE   H4R19318   5.650   1.454   7.121 -1.7351  1.4563 -2.6034
  171SOPE   H4S19319   5.540   1.575   7.187 -0.8096 -0.1924  0.3055
  171SOPE   C2519320   5.575   1.414   7.328 -0.9125  0.2386 -0.3383
  171SOPE   H5R19321   5.478   1.410   7.381  0.3816 -0.4069  2.1521
  171SOPE   H5S19322   5.612   1.309   7.325 -0.4382  0.3838  0.2945
  171SOPE   C2619323   5.671   1.491   7.420  0.9102 -0.6379  0.5654
  171SOPE   H6R19324   5.770   1.501   7.369 -0.2362  1.9742 -1.3750
  171SOPE   H6S19325   5.634   1.595   7.433  1.2110 -0.4488 -0.0568
  171SOPE   C2719326   5.688   1.418   7.550  0.0491 -0.2701  0.0336
  171SOPE   H7R19327   5.599   1.453   7.607  0.0277  0.6611 -0.5641
  171SOPE   H7S19328   5.677   1.307   7.545  2.9742 -0.6314 -0.3376
  171SOPE   C2819329   5.823   1.458   7.617 -1.0022  0.2449 -0.0605
  171SOPE   H8R19330   5.911   1.429   7.556 -0.9949 -0.8719  0.4379
  171SOPE   H8S19331   5.832   1.568   7.629  2.5029 -0.0348  0.9520
  171SOPE   C2919332   5.842   1.382   7.750  0.8764  0.0010 -0.2116
  171SOPE   H9119333   5.910   1.296   7.741  0.7474 -0.0086 -1.1806
  171SOPE  C21019334   5.789   1.412   7.875 -0.2526  0.0942  0.2915
  171SOPE  H10119335   5.818   1.354   7.963  0.4260  0.5680  0.3885
  171SOPE  C21119336   5.706   1.531   7.905 -0.1506  0.4643  0.5310
  171SOPE  H11R19337   5.598   1.508   7.918 -0.4353  0.9295 -0.8092
  171SOPE  H11S19338   5.713   1.600   7.819 -2.0839 -0.6968 -0.6194
  171SOPE  C21219339   5.741   1.609   8.034 -0.6597  0.2901  0.3334
  171SOPE  H12R19340   5.678   1.700   8.030 -0.2359  0.5569 -2.5553
  171SOPE  H12S19341   5.848   1.636   8.038 -0.9197  1.2688  1.1880
  171SOPE  C21319342   5.716   1.530   8.167 -0.3941 -0.0261  0.0779
  171SOPE  H13R19343   5.801   1.463   8.190  0.5459  0.5744 -1.5017
  171SOPE  H13S19344   5.629   1.463   8.150 -0.7539  0.0472  1.5214
  171SOPE  C21419345   5.708   1.639   8.278  0.1353  0.4661  0.4010
  171SOPE  H14R19346   5.609   1.688   8.273 -0.1087 -0.0977 -0.5547
  171SOPE  H14S19347   5.789   1.710   8.250 -1.6137  2.6729  0.6648
  171SOPE  C21519348   5.728   1.591   8.421 -0.0384  0.1876  0.2798
  171SOPE  H15R19349   5.822   1.531   8.426  0.6879  1.3586  1.2694
  171SOPE  H15S19350   5.649   1.521   8.455  0.9789 -0.4478  1.4498
  171SOPE  C21619351   5.750   1.705   8.514 -0.6897 -0.6788 -0.5580
  171SOPE  H16R19352   5.663   1.773   8.507 -0.0111  0.1376 -1.1776
  171SOPE  H16S19353   5.837   1.766   8.483 -2.1142  1.0351 -1.3697
  171SOPE  C21719354   5.776   1.659   8.660  0.5614 -0.6509 -0.6150
  171SOPE  H17R19355   5.691   1.599   8.700  1.5184 -0.2000  2.4007
  171SOPE  H17S19356   5.795   1.745   8.728  2.8016 -1.1984 -0.4979
  171SOPE  C21819357   5.893   1.561   8.678  0.3029 -0.6841 -0.5508
  171SOPE  H18R19358   5.887   1.476   8.607 -1.8829 -0.6139 -0.5119
  171SOPE  H18S19359   5.910   1.530   8.783  0.3159 -2.0877 -0.9498
  171SOPE  H18T19360   5.990   1.608   8.650  0.1124 -1.2244 -2.2116
  171SOPE   C3319361   4.754   1.264   7.145  0.4636 -0.0880  1.1460
  171SOPE   H3X19362   4.711   1.174   7.193 -1.5119  0.1789 -0.0179
  171SOPE   H3Y19363   4.669   1.332   7.126 -0.1840 -0.8162  1.4032
  171SOPE   C3419364   4.835   1.321   7.261  0.1438 -0.6978  0.8552
  171SOPE   H4X19365   4.818   1.431   7.251 -0.2075 -0.7869  0.4834
  171SOPE   H4Y19366   4.944   1.305   7.249  0.0779 -1.4843  1.2976
  171SOPE   C3519367   4.792   1.279   7.402 -0.5474  0.3159  0.0296
  171SOPE   H5X19368   4.801   1.169   7.414 -1.8159 -0.0780 -2.0929
  171SOPE   H5Y19369   4.686   1.311   7.410 -0.9060 -0.2598 -1.8568
  171SOPE   C3619370   4.872   1.356   7.507  0.4033  0.1944  0.1721
  171SOPE   H6X19371   4.833   1.460   7.509  1.1552  0.5377 -1.4472
  171SOPE   H6Y19372   4.982   1.371   7.497  0.0705  2.9918 -0.2784
  171SOPE   C3719373   4.853   1.300   7.647 -0.6121  0.3300  0.2181
  171SOPE   H7X19374   4.884   1.195   7.666  0.6308  1.1244  3.1449
  171SOPE   H7Y19375   4.744   1.316   7.664 -0.0864  1.5919  3.0337
  171SOPE   C3819376   4.919   1.383   7.762 -0.1964 -0.4023  0.3065
  171SOPE   H8X19377   4.888   1.485   7.731  0.5224 -0.2593  0.0471
  171SOPE   H8Y19378   5.029   1.370   7.754 -0.3742 -1.3810 -0.9521
  171SOPE   C3919379   4.868   1.343   7.895 -0.0510 -0.0248 -0.1080
  171SOPE   H9X19380   4.911   1.241   7.903 -0.0338 -0.0286 -0.2485
  171SOPE   H9Y19381   4.758   1.341   7.905 -0.1448  0.7954 -0.8652
  171SOPE  C31019382   4.923   1.420   8.019 -0.1196 -0.2756 -0.2411
  171SOPE  H10X19383   4.889   1.526   8.023  2.7919  0.7428  1.2352
  171SOPE  H10Y19384   5.033   1.432   8.009  0.2434 -1.4325  1.7034
  171SOPE  C31119385   4.885   1.347   8.145  0.0668  0.1460 -0.6105
  171SOPE  H11X19386   4.928   1.245   8.152  0.6090  0.4634  1.2523
  171SOPE  H11Y19387   4.775   1.336   8.154  0.0876  0.3539 -0.0421
  171SOPE  C31219388   4.932   1.420   8.276  0.1132  0.0393 -0.0576
  171SOPE  H12X19389   5.034   1.463   8.269  0.1761 -0.3553 -2.3671
  171SOPE  H12Y19390   4.920   1.341   8.353  3.6806 -1.1148 -0.4892
  171SOPE  C31319391   4.842   1.538   8.309  0.5342  0.1876  0.0977
  171SOPE  H13X19392   4.739   1.496   8.303  0.0694  1.2550  0.3628
  171SOPE  H13Y19393   4.849   1.628   8.244 -0.7649  0.3276  0.1120
  171SOPE  C31419394   4.881   1.588   8.448  0.8773 -0.6888  0.1192
  171SOPE  H14X19395   4.977   1.643   8.436 -0.8890  2.1340 -2.1466
  171SOPE  H14Y19396   4.901   1.504   8.519  0.5761 -1.3253 -0.5286
  171SOPE  C31519397   4.773   1.681   8.501 -0.5336  0.0009 -0.6106
  171SOPE  H15X19398   4.744   1.774   8.448 -2.0460  0.9827  1.7693
  171SOPE  H15Y19399   4.800   1.710   8.604 -0.4946 -0.1694 -0.5721
  171SOPE  C31619400   4.634   1.604   8.514 -0.0441  0.7954  0.5801
  171SOPE  H16X19401   4.662   1.503   8.551  2.9826  1.8091  1.4402
  171SOPE  H16Y19402   4.579   1.596   8.418  1.3816  0.6247 -0.2604
  171SOPE  C31719403   4.543   1.684   8.617 -0.3198  0.0393  0.1131
  171SOPE  H17X19404   4.592   1.680   8.717 -0.9700 -0.7284  0.4165
  171SOPE  H17Y19405   4.446   1.631   8.605  0.2305 -0.2441 -6.1766
  171SOPE  C31819406   4.508   1.825   8.571  0.5399  0.5446  0.6080
  171SOPE  H18X19407   4.452   1.827   8.476  0.3127  0.9730  0.7503
  171SOPE  H18Y19408   4.600   1.888   8.571  1.1010 -0.2620  0.2570
  171SOPE  H18Z19409   4.438   1.862   8.649 -1.0862 -0.6633 -0.2371
  172SOPE     N19410   4.951   4.165   6.881  1.3082  0.1466  0.1449
  172SOPE   HN119411   4.978   4.237   6.951  0.9806 -1.2531  1.7541
  172SOPE   HN219412   4.987   4.208   6.793  1.4969  1.6292  0.9089
  172SOPE   HN319413   4.848   4.160   6.872  1.3632  1.4549 -1.8659
  172SOPE   C1219414   5.030   4.042   6.898  0.3473  0.9338  0.2118
  172SOPE  H12A19415   5.028   4.006   7.003  0.1355  0.2069 -0.0348
  172SOPE  H12B19416   5.134   4.054   6.861 -0.1189  0.5969 -1.3022
  172SOPE   C1119417   4.965   3.933   6.809  0.1937 -0.3180  0.2199
  172SOPE  H11A19418   4.866   3.896   6.843 -0.8498  1.8427 -0.3012
  172SOPE  H11B19419   5.030   3.842   6.807 -0.9757 -1.1773  0.1409
  172SOPE     P19420   4.923   3.874   6.550  0.0019 -0.3842  0.2561
  172SOPE   O1319421   4.940   3.941   6.419  0.6463 -0.2188  0.4362
  172SOPE   O1419422   4.790   3.819   6.570 -0.2081 -0.4028 -0.1968
  172SOPE   O1219423   4.958   3.976   6.669 -0.4098 -0.1282  0.0419
  172SOPE   O1119424   5.024   3.754   6.550 -1.2209 -0.1758  0.2106
  172SOPE    C119425   5.002   3.622   6.604  0.0663 -0.1057  0.0508
  172SOPE    HA19426   4.977   3.626   6.713  0.6974  2.2204  0.1470
  172SOPE    HB19427   5.096   3.563   6.611  0.0394 -0.0487  1.2653
  172SOPE    C219428   4.907   3.523   6.527 -0.9295 -0.2934 -0.4169
  172SOPE    HS19429   4.815   3.582   6.504 -0.3903 -0.1516 -2.3447
  172SOPE   O2119430   4.905   3.409   6.616  0.9151  0.0795  0.6763
  172SOPE   C2119431   4.785   3.386   6.682 -0.3877 -0.6873 -0.2138
  172SOPE   O2219432   4.689   3.454   6.664  0.0683  0.2238 -0.0521
  172SOPE   C2219433   4.797   3.277   6.776 -0.4227 -0.9516  0.1694
  172SOPE   H2R19434   4.880   3.208   6.747  0.1301 -0.1052 -0.2884
  172SOPE   H2S19435   4.706   3.214   6.790 -0.2035 -1.6205 -1.2113
  172SOPE    C319436   4.975   3.488   6.400 -0.5917  0.7117  0.1346
  172SOPE    HX19437   4.988   3.580   6.340 -0.5883 -0.0526 -1.0746
  172SOPE    HY19438   4.899   3.421   6.354  1.4403 -1.7595  0.1346
  172SOPE   O3119439   5.107   3.428   6.418  0.1902 -0.0736  0.4038
  172SOPE   C3119440   5.115   3.295   6.429  0.4120  0.4677 -0.7121
  172SOPE   O3219441   5.020   3.215   6.421 -0.2016 -0.2474  0.3223
  172SOPE   C3219442   5.250   3.241   6.454  0.2084 -0.1115  0.0404
  172SOPE   H2X19443   5.324   3.310   6.409  1.7598 -1.4695  0.4184
  172SOPE   H2Y19444   5.264   3.136   6.419 -1.5604 -0.5355  0.5021
  172SOPE   C2319445   4.831   3.346   6.910 -0.1866  0.2610  0.3046
  172SOPE   H3R19446   4.767   3.433   6.935 -0.9556 -0.0603 -0.5200
  172SOPE   H3S19447   4.938   3.373   6.909 -0.4288  1.2439 -0.4802
  172SOPE   C2419448   4.817   3.255   7.033 -0.0779 -0.7827 -0.6865
  172SOPE   H4R19449   4.709   3.246   7.059 -0.3615  0.3338 -1.3707
  172SOPE   H4S19450   4.870   3.158   7.024  0.4335 -0.5801  0.0385
  172SOPE   C2519451   4.883   3.322   7.155  0.0472  0.2251  1.2147
  172SOPE   H5R19452   4.989   3.342   7.128 -0.0714 -0.1913  0.4078
  172SOPE   H5S19453   4.830   3.419   7.162 -0.0514  0.1884  0.9871
  172SOPE   C2619454   4.883   3.243   7.289 -0.2598  0.1485  0.2792
  172SOPE   H6R19455   4.896   3.135   7.269 -1.2373  0.4784 -2.8589
  172SOPE   H6S19456   4.969   3.280   7.348 -0.7239  2.4534 -0.3876
  172SOPE   C2719457   4.753   3.265   7.371  0.3117 -0.2733  0.5491
  172SOPE   H7R19458   4.743   3.374   7.392 -0.5257 -0.4093  0.9272
  172SOPE   H7S19459   4.659   3.245   7.315  0.5571  0.2277 -0.0651
  172SOPE   C2819460   4.764   3.190   7.505  0.4355 -0.0874 -0.7506
  172SOPE   H8R19461   4.863   3.205   7.553  0.3352 -1.1368 -0.1661
  172SOPE   H8S19462   4.694   3.241   7.575  0.3124 -0.1800 -0.8053
  172SOPE   C2919463   4.724   3.042   7.499 -0.1180  0.9294  0.3809
  172SOPE   H9119464   4.620   3.030   7.467 -0.2612  2.3232  0.2388
  172SOPE  C21019465   4.797   2.927   7.509 -0.9142 -0.1075  0.7312
  172SOPE  H10119466   4.748   2.828   7.507 -0.4162 -0.3415 -0.7052
  172SOPE  C21119467   4.945   2.925   7.566  0.1215 -0.0204  0.5481
  172SOPE  H11R19468   4.981   3.028   7.548 -0.2880  0.6107  3.0097
  172SOPE  H11S19469   4.998   2.848   7.507 -2.2857 -1.1331 -0.2753
  172SOPE  C21219470   4.951   2.922   7.720 -0.1569  0.9174  0.0643
  172SOPE  H12R19471   4.904   3.013   7.762 -2.8799  0.1280 -1.0270
  172SOPE  H12S19472   5.057   2.919   7.755 -0.1933  0.9800  0.1809
  172SOPE  C21319473   4.880   2.798   7.781 -1.1346 -0.9877 -0.1274
  172SOPE  H13R19474   4.908   2.715   7.713  0.2179  0.1710 -1.0478
  172SOPE  H13S19475   4.773   2.816   7.762 -0.5721  1.7673 -1.1028
  172SOPE  C21419476   4.907   2.772   7.923 -0.6251 -0.7438 -0.4113
  172SOPE  H14R19477   5.014   2.745   7.937 -0.7123 -0.6687  0.4955
  172SOPE  H14S19478   4.860   2.675   7.953  0.5030 -1.4076 -0.7202
  172SOPE  C21519479   4.865   2.881   8.026 -0.4390  0.4149 -0.1825
  172SOPE  H15R19480   4.782   2.944   7.986 -0.7404  0.1216 -0.0268
  172SOPE  H15S19481   4.948   2.949   8.054 -0.5731 -0.3926  2.4931
  172SOPE  C21619482   4.814   2.820   8.159  0.5805  0.4674 -0.7691
  172SOPE  H16R19483   4.899   2.795   8.227  0.4681 -0.3563 -0.9216
  172SOPE  H16S19484   4.750   2.731   8.140  1.6991 -0.6001  0.2545
  172SOPE  C21719485   4.720   2.915   8.237 -0.2452  0.4082 -0.1295
  172SOPE  H17R19486   4.694   2.862   8.332 -0.1160 -0.5947 -0.6391
  172SOPE  H17S19487   4.623   2.911   8.182  0.0926 -1.4893 -0.6539
  172SOPE  C21819488   4.765   3.062   8.270 -0.7563 -0.1792  0.2091
  172SOPE  H18R19489   4.707   3.114   8.350 -0.3046  1.9223 -0.7613
  172SOPE  H18S19490   4.760   3.118   8.174  0.8366 -1.1042 -0.4524
  172SOPE  H18T19491   4.872   3.068   8.301 -0.3516 -0.5234 -1.0682
  172SOPE   C3319492   5.284   3.233   6.612  0.2361 -0.0716  0.2206
  172SOPE   H3X19493   5.249   3.330   6.655 -1.8860 -1.0930  0.9458
  172SOPE   H3Y19494   5.395   3.226   6.611  0.4946  2.2630 -3.0886
  172SOPE   C3419495   5.217   3.113   6.693  0.3353 -0.0461 -0.0176
  172SOPE   H4X19496   5.271   3.019   6.666 -1.0825 -0.2905 -2.2227
  172SOPE   H4Y19497   5.109   3.115   6.668  0.4484  1.5401 -0.5103
  172SOPE   C3519498   5.224   3.127   6.850  0.7016 -0.4648  0.5832
  172SOPE   H5X19499   5.176   3.221   6.884  0.5397  0.4095 -1.8327
  172SOPE   H5Y19500   5.332   3.133   6.872  1.2593 -1.0854 -1.6978
  172SOPE   C3619501   5.171   3.007   6.921  0.2438 -0.0551 -0.5374
  172SOPE   H6X19502   5.211   2.914   6.877 -0.3034 -0.5145 -0.0722
  172SOPE   H6Y19503   5.062   2.994   6.902 -0.1077  0.0389  1.2548
  172SOPE   C3719504   5.190   3.021   7.071  0.1943  0.3744 -0.1722
  172SOPE   H7X19505   5.129   2.949   7.128  1.0592  0.4263  0.8496
  172SOPE   H7Y19506   5.161   3.122   7.108  1.7093  1.5988 -2.0913
  172SOPE   C3819507   5.336   3.014   7.111 -0.4242 -0.3153  0.1760
  172SOPE   H8X19508   5.390   3.097   7.060 -0.4577 -0.8663 -0.7815
  172SOPE   H8Y19509   5.391   2.924   7.075 -1.9319 -0.7503 -1.1585
  172SOPE   C3919510   5.377   3.027   7.259 -0.8775  0.4688  1.2323
  172SOPE   H9X19511   5.296   3.070   7.322 -1.7030 -2.2157  2.1661
  172SOPE   H9Y19512   5.462   3.098   7.271 -0.3192  0.4000 -1.6585
  172SOPE  C31019513   5.423   2.891   7.315  0.6928  0.1694  0.1165
  172SOPE  H10X19514   5.503   2.863   7.243  1.0796 -0.1827  0.6698
  172SOPE  H10Y19515   5.333   2.825   7.319  0.0691  1.0587  1.1968
  172SOPE  C31119516   5.485   2.888   7.451  0.1592 -1.3189 -0.8463
  172SOPE  H11X19517   5.567   2.961   7.467 -1.4736 -0.0450  2.9647
  172SOPE  H11Y19518   5.525   2.789   7.484  1.2460 -0.3224  0.9894
  172SOPE  C31219519   5.385   2.898   7.571 -0.4032 -0.0880  0.4344
  172SOPE  H12X19520   5.310   2.820   7.543  3.3542 -3.2638 -1.8806
  172SOPE  H12Y19521   5.345   3.001   7.578 -0.2904  0.3044 -2.9631
  172SOPE  C31319522   5.435   2.841   7.709  0.2528  1.1194 -0.6368
  172SOPE  H13X19523   5.512   2.906   7.754  0.3613  0.9970 -0.6439
  172SOPE  H13Y19524   5.480   2.741   7.692 -1.8752 -0.0321  0.0903
  172SOPE  C31419525   5.332   2.821   7.817 -0.1129  0.3805 -0.1556
  172SOPE  H14X19526   5.277   2.725   7.816 -0.5636  0.5662  1.8857
  172SOPE  H14Y19527   5.249   2.894   7.805 -0.7324 -0.4984 -1.4429
  172SOPE  C31519528   5.402   2.833   7.954  0.2925 -0.3987  0.3480
  172SOPE  H15X19529   5.454   2.931   7.948 -2.2204  0.9635 -0.6331
  172SOPE  H15Y19530   5.476   2.751   7.970  3.0208  1.3991 -2.1093
  172SOPE  C31619531   5.301   2.848   8.068 -0.2194 -0.3622  0.3014
  172SOPE  H16X19532   5.243   2.753   8.076  0.5080 -0.7271  1.6158
  172SOPE  H16Y19533   5.245   2.941   8.045  0.0009 -1.1050 -4.0462
  172SOPE  C31719534   5.382   2.864   8.201 -0.7263  0.1428 -0.5124
  172SOPE  H17X19535   5.347   2.963   8.238  1.0652 -0.1507  2.2153
  172SOPE  H17Y19536   5.491   2.865   8.181 -0.4442 -1.0239  0.8229
  172SOPE  C31819537   5.341   2.765   8.311 -0.2620 -0.0600  0.0427
  172SOPE  H18X19538   5.396   2.792   8.404  0.0677  1.3775 -0.5438
  172SOPE  H18Y19539   5.360   2.657   8.291 -2.1628 -0.9298  2.4676
  172SOPE  H18Z19540   5.233   2.786   8.321 -0.0602  2.3788 -1.9404
  173SAPI   C1219541   1.298   3.676  10.930  0.5340 -0.6967 -0.2588
  173SAPI    H219542   1.396   3.703  10.885 -0.3905  0.5514 -1.6260
  173SAPI    O219543   1.302   3.630  11.065  0.2703 -0.6002 -0.1218
  173SAPI   HO219544   1.382   3.580  11.082  0.7360  0.2528  0.2354
  173SAPI   C1319545   1.217   3.802  10.916  0.5404  0.0888  0.2595
  173SAPI    H319546   1.214   3.836  10.811  1.0069 -1.3446 -0.2436
  173SAPI    O319547   1.277   3.921  10.976  0.0034  0.1978  0.3716
  173SAPI   HO319548   1.313   3.899  11.062 -0.6624  1.3129  0.9507
  173SAPI   C1419549   1.071   3.780  10.964  0.1843  0.1379  0.0545
  173SAPI    H419550   1.064   3.755  11.072 -1.0005  1.0547  0.2108
  173SAPI    O419551   0.988   3.896  10.945  0.5167 -0.2183 -0.1523
  173SAPI   HO419552   0.961   3.930  11.031 -0.0948 -0.3032 -0.3057
  173SAPI   C1519553   1.011   3.661  10.889  0.0610 -0.3433 -0.4025
  173SAPI    H519554   0.989   3.686  10.783  2.3176 -2.1295 -1.3775
  173SAPI    O519555   0.883   3.626  10.945 -0.1840  0.0740 -0.0173
  173SAPI   HO519556   0.903   3.574  11.024  4.8269  1.3604 -0.1232
  173SAPI   C1619557   1.099   3.536  10.890 -0.7554  0.6479  0.2595
  173SAPI    H619558   1.102   3.496  10.994 -0.8019  0.6378  0.2568
  173SAPI    O619559   1.055   3.427  10.811  0.3146 -0.1473  0.2572
  173SAPI   HO619560   1.030   3.463  10.726  1.9884  1.5797  0.4308
  173SAPI   C1119561   1.236   3.571  10.843 -0.7751  0.0514 -0.7271
  173SAPI    H119562   1.226   3.621  10.744 -0.3536  1.9371  0.1288
  173SAPI     P19563   1.389   3.420  10.696 -0.0574  0.1553 -0.1390
  173SAPI   O1319564   1.271   3.396  10.608  0.4871 -0.2734 -0.0164
  173SAPI   O1419565   1.489   3.307  10.725  0.1284 -0.2647  0.2065
  173SAPI   O1219566   1.330   3.460  10.843  0.3492  0.2788  0.7275
  173SAPI   O1119567   1.468   3.545  10.656 -0.1154  0.1068  0.1924
  173SAPI    C119568   1.602   3.575  10.702 -0.4154 -0.0038 -0.2491
  173SAPI    HA19569   1.597   3.669  10.761 -0.5632  0.1076 -0.4369
  173SAPI    HB19570   1.647   3.488  10.755  0.8539  0.0555 -1.1656
  173SAPI    C219571   1.685   3.614  10.579 -0.0253  0.5415 -0.0101
  173SAPI    HS19572   1.777   3.669  10.608  1.0290  0.2718 -2.5202
  173SAPI   O2119573   1.601   3.693  10.496 -0.2731 -0.5485  0.2529
  173SAPI   C2119574   1.586   3.822  10.532  0.4527  0.0826 -0.0146
  173SAPI   O2219575   1.661   3.879  10.610  0.7560  0.1160  0.3907
  173SAPI   C2219576   1.464   3.882  10.465 -0.0420 -0.0597  0.0510
  173SAPI   H2R19577   1.383   3.807  10.458 -2.0692  1.9044  1.3054
  173SAPI   H2S19578   1.416   3.954  10.534 -0.5500 -1.1089  0.8102
  173SAPI    C319579   1.741   3.496  10.504  0.1082 -0.0479 -0.4090
  173SAPI    HX19580   1.664   3.417  10.493 -0.8164  0.6989  0.3937
  173SAPI    HY19581   1.828   3.456  10.561 -1.2266 -2.5412  0.0296
  173SAPI   O3119582   1.797   3.538  10.378  0.6765  0.1004  0.5122
  173SAPI   C3119583   1.708   3.539  10.279  0.6636 -0.6127  0.4414
  173SAPI   O3219584   1.593   3.502  10.282 -0.4740 -0.0433  0.1998
  173SAPI   C3219585   1.789   3.576  10.155 -0.9712 -0.3113 -0.5500
  173SAPI   H2X19586   1.874   3.505  10.159 -0.4617  0.3392  0.8378
  173SAPI   H2Y19587   1.822   3.681  10.168 -0.8463 -0.6314  2.0495
  173SAPI   C2319588   1.489   3.978  10.343 -0.2903 -0.2122  0.1933
  173SAPI   H3R19589   1.559   4.059  10.373  0.1039 -0.3836 -0.2443
  173SAPI   H3S19590   1.395   4.017  10.299 -0.3116  1.2452  1.4568
  173SAPI   C2419591   1.563   3.912  10.226 -0.6198  1.0300 -0.0679
  173SAPI   H4R19592   1.660   3.883  10.271  1.4080  3.6056 -2.4312
  173SAPI   H4S19593   1.575   3.993  10.151  2.8402  0.0731 -0.6878
  173SAPI   C2519594   1.478   3.796  10.179  0.1317  0.0791 -0.7133
  173SAPI   H5R19595   1.461   3.717  10.253 -3.1434  2.2500  1.1357
  173SAPI   C2619596   1.409   3.798  10.058 -0.3150 -0.1344 -0.0924
  173SAPI   H6R19597   1.347   3.713  10.026 -0.0205 -1.1602  1.9130
  173SAPI   C2719598   1.421   3.908   9.960  0.4127 -0.5426  0.7340
  173SAPI   H7R19599   1.419   4.010  10.004 -2.1391 -0.8657  1.5130
  173SAPI   H7S19600   1.326   3.900   9.904  1.3836 -0.2910 -1.0479
  173SAPI   C2819601   1.538   3.896   9.868 -0.0630 -0.3918  0.2599
  173SAPI   H8R19602   1.630   3.865   9.919 -0.2474 -1.9614 -0.2929
  173SAPI   C2919603   1.538   3.897   9.731  0.4825  0.2898  0.3608
  173SAPI   H9R19604   1.638   3.888   9.687  0.0987 -0.8725 -0.3198
  173SAPI  C21019605   1.416   3.906   9.641 -0.5765 -0.0410  0.6294
  173SAPI  H10R19606   1.342   3.848   9.700  1.5221 -0.6941  2.7791
  173SAPI  H10S19607   1.446   3.840   9.557 -2.3324 -1.7462  1.2857
  173SAPI  C21119608   1.365   4.040   9.612  0.7963  0.4629 -0.7795
  173SAPI  H11R19609   1.338   4.108   9.694 -1.4859  0.8204 -1.7705
  173SAPI  C21219610   1.336   4.080   9.486  1.1806  0.2905  0.1636
  173SAPI  H12R19611   1.285   4.178   9.478  0.5290 -0.1286 -1.0854
  173SAPI  C21319612   1.347   4.016   9.353  1.1428  0.2554  0.2374
  173SAPI  H13R19613   1.250   4.035   9.302  0.8092  0.0315  0.7687
  173SAPI  H13S19614   1.370   3.908   9.360  0.3743 -0.0212 -1.2609
  173SAPI  C21419615   1.451   4.083   9.269  0.1985  0.4142 -0.2173
  173SAPI  H14R19616   1.553   4.041   9.273 -0.5707 -2.0176 -2.7545
  173SAPI  C21519617   1.427   4.179   9.183  0.1420  0.1635  0.6689
  173SAPI  H15R19618   1.518   4.224   9.141  0.5669 -0.1724  1.2101
  173SAPI  C21619619   1.296   4.246   9.145 -0.2212  0.1179 -0.4562
  173SAPI  H16R19620   1.281   4.331   9.215  2.1154 -0.6823  1.1606
  173SAPI  H16S19621   1.209   4.182   9.170  0.2645  0.0220  1.1142
  173SAPI  C21719622   1.291   4.282   8.999  0.2928 -0.4000  0.6939
  173SAPI  H17R19623   1.184   4.289   8.969  0.3933 -0.4326  0.3163
  173SAPI  H17S19624   1.338   4.200   8.940  0.3681  1.3035 -1.7340
  173SAPI  C21819625   1.362   4.413   8.968  0.3127 -0.2483  0.1062
  173SAPI  H18R19626   1.471   4.394   8.979  0.5995  0.9674 -0.4268
  173SAPI  H18S19627   1.331   4.483   9.049 -3.0162  0.2914 -1.4881
  173SAPI  C21919628   1.318   4.473   8.833  0.0742  0.1876 -0.7986
  173SAPI  H19R19629   1.336   4.405   8.747  0.7856 -2.0345  1.0070
  173SAPI  H19S19630   1.374   4.566   8.808  1.7463 -0.2031  1.2713
  173SAPI  C22019631   1.170   4.510   8.821 -0.4521 -0.3926 -0.2547
  173SAPI  H20R19632   1.128   4.540   8.920 -1.2908  2.1839 -1.3245
  173SAPI  H20S19633   1.116   4.416   8.795  0.4402 -1.5807  1.8596
  173SAPI  H20T19634   1.149   4.584   8.741  0.7005  2.0451  1.5652
  173SAPI   C3319635   1.722   3.558  10.019  0.6404  0.5940 -0.2085
  173SAPI   H3X19636   1.643   3.637  10.019 -1.0041 -0.7958  3.5614
  173SAPI   H3Y19637   1.674   3.458  10.011  1.1487  0.3718 -0.4964
  173SAPI   C3419638   1.810   3.580   9.893 -0.0582  0.1540  0.2393
  173SAPI   H4X19639   1.894   3.507   9.895  0.4320  0.7085  0.0494
  173SAPI   H4Y19640   1.861   3.678   9.881  2.0895 -1.0918 -1.5228
  173SAPI   C3519641   1.724   3.568   9.766 -0.3169 -0.3228  0.8439
  173SAPI   H5X19642   1.650   3.651   9.763 -0.1627 -0.2025  0.1242
  173SAPI   H5Y19643   1.667   3.473   9.755 -0.8527  0.1358 -0.5574
  173SAPI   C3619644   1.805   3.583   9.642  0.3450 -0.4065 -0.0448
  173SAPI   H6X19645   1.862   3.487   9.643 -0.7471 -1.0668  0.5959
  173SAPI   H6Y19646   1.875   3.668   9.655 -1.4749  1.1948 -0.3892
  173SAPI   C3719647   1.721   3.594   9.516  0.3127 -0.3256  0.0045
  173SAPI   H7X19648   1.649   3.677   9.530 -2.1826 -2.5241  0.9666
  173SAPI   H7Y19649   1.653   3.506   9.522 -2.9327  1.9011 -1.6588
  173SAPI   C3819650   1.797   3.596   9.380 -0.2607  0.2563 -0.5462
  173SAPI   H8X19651   1.838   3.496   9.354  0.2412  0.1391  0.6255
  173SAPI   H8Y19652   1.881   3.666   9.398 -0.5004  0.9422 -1.9919
  173SAPI   C3919653   1.719   3.657   9.264 -0.0316 -0.3150  0.3741
  173SAPI   H9X19654   1.673   3.754   9.294 -0.6285 -0.8647  1.2760
  173SAPI   H9Y19655   1.634   3.587   9.248 -1.0069  0.9326 -0.0972
  173SAPI  C31019656   1.790   3.655   9.134 -0.4940  0.5234  0.5142
  173SAPI  H10X19657   1.825   3.554   9.105 -1.1660  0.0269  1.3936
  173SAPI  H10Y19658   1.887   3.709   9.130  0.1062 -0.5513 -2.6589
  173SAPI  C31119659   1.702   3.709   9.018  0.0451  1.0999 -0.4300
  173SAPI  H11X19660   1.602   3.662   9.025  0.1193  1.0602  0.5345
  173SAPI  H11Y19661   1.749   3.668   8.926  3.3429  0.8390  1.2099
  173SAPI  C31219662   1.698   3.861   8.998 -0.0113 -0.1430  1.1695
  173SAPI  H12X19663   1.797   3.906   8.975 -0.5374  0.9411  0.9861
  173SAPI  H12Y19664   1.662   3.911   9.090  0.3872 -1.8869  2.3343
  173SAPI  C31319665   1.610   3.895   8.871  0.2767 -0.1601 -0.1108
  173SAPI  H13X19666   1.514   3.840   8.882  0.1810 -0.4355 -2.0210
  173SAPI  H13Y19667   1.645   3.848   8.777 -1.1169 -2.7750  0.5765
  173SAPI  C31419668   1.581   4.049   8.859  0.1738  0.5750  0.1427
  173SAPI  H14X19669   1.553   4.091   8.958 -1.7987 -1.7776  0.6701
  173SAPI  H14Y19670   1.495   4.051   8.788  2.2193  0.3861 -2.5036
  173SAPI  C31519671   1.701   4.127   8.811 -0.4900 -0.0352  0.3430
  173SAPI  H15X19672   1.750   4.062   8.736  1.2694  0.8062  0.7209
  173SAPI  H15Y19673   1.775   4.148   8.891  0.0847 -0.9154  0.0563
  173SAPI  C31619674   1.663   4.255   8.743 -0.2937  0.6185 -0.0194
  173SAPI  H16X19675   1.620   4.334   8.809 -0.0998  0.4312  0.3344
  173SAPI  H16Y19676   1.589   4.220   8.669  0.3256 -2.0751  0.5521
  173SAPI  C31719677   1.776   4.326   8.670 -0.5011  0.1445  0.1782
  173SAPI  H17X19678   1.721   4.401   8.609  1.2510  0.2400 -1.3652
  173SAPI  H17Y19679   1.817   4.249   8.601  1.3594  0.7703  0.5363
  173SAPI  C31819680   1.891   4.381   8.762 -0.2158 -0.1485  0.6343
  173SAPI  H18X19681   1.983   4.407   8.705  0.3514 -1.6836  0.8034
  173SAPI  H18Y19682   1.927   4.294   8.820  0.9794 -0.0321  0.0957
  173SAPI  H18Z19683   1.846   4.462   8.824  0.4567 -0.5707  1.7073
  174SAPI   C1219684   0.069   2.877  11.246 -0.1753  0.1795 -0.2745
  174SAPI    H219685   0.127   2.971  11.252 -0.2504  0.1490  2.8811
  174SAPI    O219686   0.171   2.782  11.279  0.2178 -0.1025  0.1963
  174SAPI   HO219687   0.251   2.834  11.270 -0.3763  0.6587 -1.0673
  174SAPI   C1319688  -0.039   2.891  11.356 -0.7405 -0.0161  0.1463
  174SAPI    H319689  -0.114   2.972  11.342 -0.8461 -0.4571 -2.2372
  174SAPI    O319690   0.028   2.929  11.478 -0.0255  0.1930 -0.4254
  174SAPI   HO319691   0.091   2.857  11.476 -0.0782  0.1383 -3.2952
  174SAPI   C1419692  -0.123   2.768  11.358  0.2019  0.1036 -0.0767
  174SAPI    H419693  -0.047   2.696  11.393  0.8372  0.6356 -0.3443
  174SAPI    O419694  -0.230   2.776  11.453  0.2730 -0.1100 -0.4771
  174SAPI   HO419695  -0.185   2.766  11.537  0.0674  1.3518 -0.1707
  174SAPI   C1519696  -0.177   2.740  11.223 -0.0976 -0.3712  0.8147
  174SAPI    H519697  -0.246   2.824  11.198 -0.7927 -0.8429  1.1261
  174SAPI    O519698  -0.252   2.618  11.213 -0.8102  0.1478  0.2203
  174SAPI   HO519699  -0.333   2.618  11.161 -1.2819  0.4956  0.9369
  174SAPI   C1619700  -0.077   2.743  11.101 -0.2742 -0.0892  0.0709
  174SAPI    H619701   0.003   2.668  11.116  1.0897  1.3961  0.5614
  174SAPI    O619702  -0.137   2.740  10.971  0.1498 -0.8578  0.0745
  174SAPI   HO619703  -0.173   2.825  10.945  0.4676 -1.9182 -4.8910
  174SAPI   C1119704   0.006   2.871  11.108  0.0800  0.7156  0.2660
  174SAPI    H119705  -0.066   2.955  11.095  0.6563  1.2749  0.5969
  174SAPI     P19706   0.155   3.012  10.931  0.1808 -0.4002  0.3021
  174SAPI   O1319707   0.270   2.980  10.843 -0.7601  0.3459  0.2553
  174SAPI   O1419708   0.182   3.118  11.031 -0.1281  0.4138  0.6484
  174SAPI   O1219709   0.108   2.867  11.006  0.5594  0.5656 -0.1166
  174SAPI   O1119710   0.032   3.059  10.850 -0.2522  0.1776 -0.1833
  174SAPI    C119711  -0.036   2.983  10.745 -0.4613 -0.2610 -0.7712
  174SAPI    HA19712  -0.042   2.875  10.769  1.4738  0.1951  2.4398
  174SAPI    HB19713  -0.137   3.027  10.728  1.0019  3.4359 -0.8353
  174SAPI    C219714   0.033   2.994  10.601  0.1474 -0.0842 -0.1954
  174SAPI    HS19715   0.138   3.028  10.613 -0.3249  1.2231  0.5163
  174SAPI   O2119716  -0.045   3.087  10.518 -0.4206  0.7574  0.3038
  174SAPI   C2119717  -0.021   3.216  10.539 -0.2302  0.3943 -0.3608
  174SAPI   O2219718   0.071   3.259  10.609  0.0904 -0.2354  0.4721
  174SAPI   C2219719  -0.091   3.301  10.434 -0.2597 -0.4562 -0.2444
  174SAPI   H2R19720  -0.011   3.366  10.393 -1.7294  2.0362  0.6321
  174SAPI   H2S19721  -0.133   3.233  10.357  0.7529 -0.5426 -0.7325
  174SAPI    C319722   0.041   2.851  10.544 -0.5247  0.4381  0.2351
  174SAPI    HX19723   0.104   2.782  10.604  1.9932  0.9712 -1.6272
  174SAPI    HY19724   0.095   2.859  10.447 -2.0704  0.2005 -0.6800
  174SAPI   O3119725  -0.090   2.784  10.523 -0.4166 -0.2351  0.3078
  174SAPI   C3119726  -0.072   2.660  10.468  0.4851 -0.2884 -0.8139
  174SAPI   O3219727   0.033   2.603  10.453 -0.3673 -0.7898 -0.4572
  174SAPI   C3219728  -0.203   2.584  10.445  0.6100  0.5070 -0.0151
  174SAPI   H2X19729  -0.287   2.653  10.470 -0.9142 -1.5248  0.7313
  174SAPI   H2Y19730  -0.214   2.500  10.517 -2.0540  0.3529 -0.5036
  174SAPI   C2319731  -0.200   3.392  10.498 -1.0438 -0.0714  0.2945
  174SAPI   H3R19732  -0.159   3.436  10.591 -0.9210  1.8798 -0.6171
  174SAPI   H3S19733  -0.282   3.321  10.524  0.1388 -1.0798  1.3802
  174SAPI   C2419734  -0.250   3.492  10.397 -0.2916 -0.5193  0.2365
  174SAPI   H4R19735  -0.254   3.462  10.290  2.1516  3.4304 -1.1942
  174SAPI   H4S19736  -0.169   3.568  10.403 -1.5139  1.1645 -2.6058
  174SAPI   C2519737  -0.383   3.544  10.437  0.1774  0.4040 -0.2367
  174SAPI   H5R19738  -0.418   3.528  10.540  1.4444  0.0059  0.1498
  174SAPI   C2619739  -0.474   3.597  10.350 -0.5520  0.1391  0.5731
  174SAPI   H6R19740  -0.576   3.621  10.386 -0.2979 -1.3176  2.4779
  174SAPI   C2719741  -0.446   3.627  10.198  0.1413  0.4399  0.5626
  174SAPI   H7R19742  -0.376   3.557  10.148  0.4019  2.3790 -1.9754
  174SAPI   H7S19743  -0.392   3.723  10.184  0.9750 -0.4575 -3.5142
  174SAPI   C2819744  -0.583   3.637  10.136  0.3715  0.5378  0.0817
  174SAPI   H8R19745  -0.641   3.721  10.178 -2.4991 -0.4420 -1.6161
  174SAPI   C2919746  -0.627   3.560  10.027 -0.5762 -0.8102 -0.4522
  174SAPI   H9R19747  -0.726   3.583   9.984 -0.6515 -1.7701 -0.8104
  174SAPI  C21019748  -0.530   3.462   9.960  0.2678  0.5147 -0.5333
  174SAPI  H10R19749  -0.469   3.406  10.034  0.8344  0.1259 -1.2879
  174SAPI  H10S19750  -0.460   3.528   9.905 -0.5231  1.2452 -0.6838
  174SAPI  C21119751  -0.592   3.353   9.871 -0.2555  0.0321 -0.1807
  174SAPI  H11R19752  -0.639   3.272   9.928 -1.1856  2.0603  2.1217
  174SAPI  C21219753  -0.608   3.354   9.738 -0.3194  0.4037 -0.6418
  174SAPI  H12R19754  -0.649   3.266   9.687 -0.5248  1.3621 -2.1670
  174SAPI  C21319755  -0.566   3.458   9.643  0.9759 -0.3238  1.1326
  174SAPI  H13R19756  -0.564   3.555   9.696  0.4620  0.7226 -0.6735
  174SAPI  H13S19757  -0.650   3.482   9.574  2.4093  1.5870 -0.0554
  174SAPI  C21419758  -0.441   3.427   9.560  0.4801  0.1800 -0.2632
  174SAPI  H14R19759  -0.350   3.464   9.609  0.0305  1.0324 -0.0451
  174SAPI  C21519760  -0.438   3.380   9.434 -1.0669  0.8617 -0.8733
  174SAPI  H15R19761  -0.348   3.355   9.375  0.2940 -0.1141  1.4630
  174SAPI  C21619762  -0.555   3.340   9.347 -0.1738 -1.1056  0.5942
  174SAPI  H16R19763  -0.539   3.384   9.246 -0.9304  0.6691  1.2125
  174SAPI  H16S19764  -0.650   3.378   9.389 -0.5882 -2.9642  1.4397
  174SAPI  C21719765  -0.560   3.188   9.355 -0.5297 -0.1802  0.3669
  174SAPI  H17R19766  -0.647   3.156   9.294 -1.0880  0.3876  0.8464
  174SAPI  H17S19767  -0.585   3.148   9.456 -3.0886  0.9833  0.2878
  174SAPI  C21819768  -0.431   3.122   9.296  0.2339 -0.1089  0.6644
  174SAPI  H18R19769  -0.349   3.147   9.367  0.3188  1.4401  0.0486
  174SAPI  H18S19770  -0.416   3.143   9.188 -2.5897 -1.2566 -0.0630
  174SAPI  C21919771  -0.450   2.971   9.290 -0.4336 -0.1896 -0.4983
  174SAPI  H19R19772  -0.546   2.953   9.342  0.0656 -1.5603 -0.0080
  174SAPI  H19S19773  -0.376   2.908   9.343 -0.9706 -1.3471 -1.0934
  174SAPI  C22019774  -0.459   2.924   9.145 -1.1472 -0.1457 -0.0230
  174SAPI  H20R19775  -0.470   2.814   9.142  0.6711 -0.3722  0.4942
  174SAPI  H20S19776  -0.371   2.955   9.085 -0.1117 -1.3523  0.8242
  174SAPI  H20T19777  -0.545   2.975   9.096 -2.0346 -1.2481  0.3469
  174SAPI   C3319778  -0.221   2.549  10.289 -0.6792 -0.1326 -0.2059
  174SAPI   H3X19779  -0.195   2.641  10.233  1.5375  0.9423  2.3491
  174SAPI   H3Y19780  -0.320   2.502  10.272 -0.7195 -0.8323  1.6509
  174SAPI   C3419781  -0.130   2.434  10.229 -0.7029  0.2454 -0.3179
  174SAPI   H4X19782  -0.166   2.343  10.283  1.3454 -0.3962  0.0628
  174SAPI   H4Y19783  -0.028   2.456  10.265 -0.3785 -1.4463 -0.0815
  174SAPI   C3519784  -0.134   2.425  10.076  0.0718 -0.0875 -0.2059
  174SAPI   H5X19785  -0.087   2.329  10.046  0.7482  0.3189 -0.4887
  174SAPI   H5Y19786  -0.069   2.503  10.031  1.5092 -1.9756 -1.5612
  174SAPI   C3619787  -0.273   2.413  10.010  0.0277 -0.1597  1.0013
  174SAPI   H6X19788  -0.276   2.423   9.900 -0.4899  1.7402  1.1477
  174SAPI   H6Y19789  -0.338   2.493  10.053 -1.7706  1.0004 -3.3940
  174SAPI   C3719790  -0.351   2.288  10.065 -0.1905 -0.1580 -0.2261
  174SAPI   H7X19791  -0.333   2.273  10.173 -1.5102  1.4507  0.2525
  174SAPI   H7Y19792  -0.305   2.198  10.018  2.0258 -0.9031  3.0214
  174SAPI   C3819793  -0.503   2.289  10.059 -0.1113  0.4124  0.3391
  174SAPI   H8X19794  -0.540   2.365  10.131  2.5580  2.7635 -0.6023
  174SAPI   H8Y19795  -0.540   2.189  10.090  0.4942 -0.0370 -0.3758
  174SAPI   C3919796  -0.570   2.325   9.921 -0.2066 -0.8832 -0.2433
  174SAPI   H9X19797  -0.546   2.431   9.902 -3.0005 -0.1897 -0.1837
  174SAPI   H9Y19798  -0.680   2.319   9.934 -0.1978  1.1238  1.3393
  174SAPI  C31019799  -0.516   2.247   9.803  0.1855  0.8123  0.5873
  174SAPI  H10X19800  -0.526   2.137   9.817 -0.1167  0.9443  1.5198
  174SAPI  H10Y19801  -0.407   2.267   9.793  0.2444  1.9001  2.7805
  174SAPI  C31119802  -0.582   2.296   9.673 -0.6056 -0.8089 -0.2183
  174SAPI  H11X19803  -0.562   2.405   9.667  0.8460 -0.9204  1.5806
  174SAPI  H11Y19804  -0.692   2.286   9.683 -0.5748 -0.3306  0.7500
  174SAPI  C31219805  -0.532   2.233   9.550  0.3155 -0.0265  0.5746
  174SAPI  H12X19806  -0.585   2.139   9.523 -0.9447  0.5393  0.9703
  174SAPI  H12Y19807  -0.429   2.196   9.568 -0.5126 -1.9182  1.7355
  174SAPI  C31319808  -0.547   2.326   9.434 -0.6584 -0.4135  0.3174
  174SAPI  H13X19809  -0.492   2.415   9.472 -2.4855  0.4415  1.0628
  174SAPI  H13Y19810  -0.648   2.360   9.402 -0.3106  0.3208 -0.0266
  174SAPI  C31419811  -0.486   2.280   9.296 -0.2522  1.0812 -0.6307
  174SAPI  H14X19812  -0.382   2.250   9.321 -1.2931 -0.7355  2.0548
  174SAPI  H14Y19813  -0.495   2.359   9.219  0.9635  1.9386  0.0750
  174SAPI  C31519814  -0.560   2.156   9.247 -0.3080  0.2557  0.2275
  174SAPI  H15X19815  -0.661   2.199   9.234 -0.6620 -1.3754 -4.3641
  174SAPI  H15Y19816  -0.571   2.076   9.322  0.3440  0.2210  0.2884
  174SAPI  C31619817  -0.506   2.100   9.114 -0.1538  0.1460 -0.3004
  174SAPI  H16X19818  -0.594   2.050   9.069  0.2823 -0.6172 -0.3203
  174SAPI  H16Y19819  -0.429   2.021   9.122 -0.3911  0.0674  2.4580
  174SAPI  C31719820  -0.453   2.206   9.008  0.0571 -0.3492 -0.4902
  174SAPI  H17X19821  -0.362   2.255   9.050 -0.9603  0.8230  0.4424
  174SAPI  H17Y19822  -0.524   2.287   8.980 -1.7601 -1.1719  1.4171
  174SAPI  C31819823  -0.399   2.135   8.881 -0.1103  0.3395 -0.2838
  174SAPI  H18X19824  -0.368   2.209   8.804 -1.1731  1.5628  0.4222
  174SAPI  H18Y19825  -0.481   2.084   8.827 -0.8015  1.5186 -0.3811
  174SAPI  H18Z19826  -0.326   2.054   8.905  0.6188  1.8688  3.2936
  175SAPI   C1219827   6.422   5.880   6.414  0.0553 -0.0205 -0.0973
  175SAPI    H219828   6.323   5.904   6.459  0.6607  1.0082  0.7104
  175SAPI    O219829   6.515   5.823   6.501 -0.0916 -0.9507 -0.0997
  175SAPI   HO219830   6.561   5.894   6.547 -1.5637 -0.8629  1.3399
  175SAPI   C1319831   6.385   5.790   6.299 -0.4863 -0.7808 -0.1282
  175SAPI    H319832   6.319   5.857   6.240  0.9171  3.0735  2.2686
  175SAPI    O319833   6.307   5.674   6.342  0.5101 -0.2245 -0.3518
  175SAPI   HO319834   6.374   5.609   6.363  0.1666 -0.2968  0.5701
  175SAPI   C1419835   6.507   5.762   6.217  0.0493 -0.4233 -0.0316
  175SAPI    H419836   6.590   5.712   6.271 -0.8819 -1.5456  0.4164
  175SAPI    O419837   6.469   5.668   6.115  0.3908  0.4465  0.6430
  175SAPI   HO419838   6.552   5.634   6.080  0.8464  0.6530  1.4854
  175SAPI   C1519839   6.560   5.883   6.155 -0.0764  0.0511 -0.4608
  175SAPI    H519840   6.485   5.921   6.083  0.3335  1.7435 -0.0602
  175SAPI    O519841   6.676   5.860   6.069  0.1825  0.2991  0.2198
  175SAPI   HO519842   6.719   5.943   6.050  0.5570  0.3004  1.0400
  175SAPI   C1619843   6.589   5.982   6.263 -0.6941  0.1940  0.5245
  175SAPI    H619844   6.674   5.945   6.323  0.0752 -1.9210 -1.7133
  175SAPI    O619845   6.630   6.104   6.200 -0.0484 -0.3800  0.4734
  175SAPI   HO619846   6.716   6.131   6.233 -0.4686 -0.3001  1.5674
  175SAPI   C1119847   6.474   6.014   6.358 -0.4194  0.3355 -0.1834
  175SAPI    H119848   6.395   6.054   6.291  0.8824  0.4733 -1.6688
  175SAPI     P19849   6.417   6.161   6.579 -0.1324 -0.0528  0.0462
  175SAPI   O1319850   6.276   6.172   6.528 -0.2710 -0.5031  0.2122
  175SAPI   O1419851   6.471   6.288   6.637  0.3195 -0.0209  0.1854
  175SAPI   O1219852   6.517   6.111   6.459 -0.4540  1.6616  0.4448
  175SAPI   O1119853   6.429   6.044   6.689  0.1212  0.5024  0.5996
  175SAPI    C119854   6.307   6.006   6.755  0.1919 -0.2471  0.5165
  175SAPI    HA19855   6.224   5.986   6.683  1.3820 -0.8067 -0.7516
  175SAPI    HB19856   6.333   5.916   6.814 -0.6585 -1.6001 -1.0664
  175SAPI    C219857   6.253   6.105   6.860  0.6287 -0.1251 -0.0409
  175SAPI    HS19858   6.242   6.208   6.820 -0.7875 -0.4729 -0.5977
  175SAPI   O2119859   6.345   6.100   6.968 -0.8447 -0.2357 -0.1206
  175SAPI   C2119860   6.333   6.205   7.045  0.5428  0.1087  0.3999
  175SAPI   O2219861   6.289   6.318   7.013 -0.3455 -0.8315  0.2998
  175SAPI   C2219862   6.387   6.173   7.185 -0.3133  0.6183  0.0062
  175SAPI   H2R19863   6.460   6.090   7.171 -0.6272  0.1685  0.9547
  175SAPI   H2S19864   6.446   6.260   7.220 -0.4304  0.4635  0.6099
  175SAPI    C319865   6.112   6.057   6.916 -1.0684 -0.0404 -0.7516
  175SAPI    HX19866   6.146   5.957   6.953  2.9362  1.5851  0.4542
  175SAPI    HY19867   6.029   6.041   6.845 -1.7700 -1.5294  0.3376
  175SAPI   O3119868   6.057   6.128   7.035  0.4382 -0.2384 -0.0224
  175SAPI   C3119869   5.948   6.198   7.023 -0.6426 -0.8689 -0.2546
  175SAPI   O3219870   5.888   6.218   6.916 -0.2389 -0.6059 -0.5252
  175SAPI   C3219871   5.894   6.240   7.164  0.8461  0.7485 -0.1037
  175SAPI   H2X19872   5.785   6.247   7.142  0.5401 -0.7633  0.7606
  175SAPI   H2Y19873   5.940   6.338   7.188  0.8759  0.5448  0.7250
  175SAPI   C2319874   6.288   6.139   7.289 -0.4200 -0.3973 -0.4274
  175SAPI   H3R19875   6.243   6.037   7.282 -1.7075  0.1842 -0.9825
  175SAPI   H3S19876   6.199   6.205   7.287  0.6972  1.1497 -1.1361
  175SAPI   C2419877   6.337   6.133   7.434 -1.0568 -0.1725  1.2504
  175SAPI   H4R19878   6.255   6.097   7.500 -1.1433 -2.3691  0.0430
  175SAPI   H4S19879   6.365   6.233   7.473 -1.1800  0.4707 -0.2538
  175SAPI   C2519880   6.448   6.032   7.446 -0.7266  0.1032 -0.4965
  175SAPI   H5R19881   6.536   6.055   7.384  0.4941 -0.7362  0.8484
  175SAPI   C2619882   6.458   5.914   7.516  0.4544  0.4985 -0.9858
  175SAPI   H6R19883   6.550   5.854   7.530 -0.6956 -1.3990 -1.2357
  175SAPI   C2719884   6.358   5.848   7.612 -0.5091  0.0928  0.1272
  175SAPI   H7R19885   6.252   5.881   7.608 -0.1977  0.9798 -1.3422
  175SAPI   H7S19886   6.393   5.851   7.717 -0.7619 -2.8368  0.3841
  175SAPI   C2819887   6.343   5.707   7.566 -0.7218 -0.1358 -0.6764
  175SAPI   H8R19888   6.319   5.696   7.459 -1.3313  0.6301 -0.6221
  175SAPI   C2919889   6.366   5.595   7.644 -0.0285  0.5952  0.0618
  175SAPI   H9R19890   6.343   5.499   7.594 -1.5978  0.5897  0.7105
  175SAPI  C21019891   6.407   5.573   7.785 -0.0953 -0.4880 -0.6654
  175SAPI  H10R19892   6.511   5.612   7.775  0.0047 -0.6506 -0.2646
  175SAPI  H10S19893   6.416   5.463   7.798  2.9084 -0.1628  0.9751
  175SAPI  C21119894   6.326   5.643   7.894 -0.3839  0.4713  0.4247
  175SAPI  H11R19895   6.220   5.658   7.869 -0.3025  0.8986  0.3253
  175SAPI  C21219896   6.376   5.701   8.000  0.4738  0.0740 -0.4623
  175SAPI  H12R19897   6.311   5.763   8.064  1.3608  1.5420 -0.9577
  175SAPI  C21319898   6.522   5.717   8.039 -0.4470  0.0531 -0.7584
  175SAPI  H13R19899   6.557   5.823   8.039  1.0032 -0.3745  0.8630
  175SAPI  H13S19900   6.589   5.675   7.961  1.9987 -1.6270  2.0252
  175SAPI  C21419901   6.557   5.648   8.169  0.8599  0.0176 -0.1307
  175SAPI  H14R19902   6.578   5.540   8.156  0.8950 -0.3124  2.1810
  175SAPI  C21519903   6.552   5.699   8.295  0.0431 -0.2348  0.3721
  175SAPI  H15R19904   6.584   5.635   8.379  0.5656 -1.3427 -0.6518
  175SAPI  C21619905   6.525   5.845   8.338 -0.3393  1.0569  0.2027
  175SAPI  H16R19906   6.483   5.892   8.247 -2.6307 -1.5749 -0.2414
  175SAPI  H16S19907   6.628   5.884   8.354  0.3677  0.4916 -2.4217
  175SAPI  C21719908   6.426   5.876   8.444  0.2889  0.8159 -0.1744
  175SAPI  H17R19909   6.428   5.986   8.459  0.2925  0.9922 -1.3394
  175SAPI  H17S19910   6.463   5.830   8.538 -1.8094  2.5146  1.6052
  175SAPI  C21819911   6.293   5.814   8.404  0.2108  0.5372 -0.0519
  175SAPI  H18R19912   6.295   5.703   8.413 -1.0078  0.3873 -1.2299
  175SAPI  H18S19913   6.290   5.825   8.293  2.9296 -0.7112 -0.3314
  175SAPI  C21919914   6.165   5.872   8.471  0.5936 -0.3272 -0.3828
  175SAPI  H19R19915   6.196   5.899   8.574  0.3625  1.9345 -0.8685
  175SAPI  H19S19916   6.086   5.793   8.464 -0.7479  0.9198  0.1831
  175SAPI  C22019917   6.115   5.999   8.408  0.0196  0.6663 -0.1949
  175SAPI  H20R19918   6.188   6.079   8.433  0.2693  0.3139  0.1968
  175SAPI  H20S19919   6.015   6.026   8.449  0.3936 -0.2487  1.3625
  175SAPI  H20T19920   6.111   5.997   8.297  0.9376  3.1279 -0.3476
  175SAPI   C3319921   5.903   6.135   7.280  1.0878 -0.0324 -0.6235
  175SAPI   H3X19922   6.007   6.094   7.281  0.1801 -2.5035 -0.8876
  175SAPI   H3Y19923   5.826   6.056   7.268  1.8649 -0.7727 -0.8513
  175SAPI   C3419924   5.886   6.203   7.417  0.6927  0.3780 -0.4003
  175SAPI   H4X19925   5.958   6.287   7.426  1.4252 -0.3508  0.8946
  175SAPI   H4Y19926   5.912   6.135   7.501 -1.1850 -1.2168 -1.0558
  175SAPI   C3519927   5.738   6.247   7.451 -1.0075 -0.6566  0.3954
  175SAPI   H5X19928   5.688   6.153   7.482 -1.4126 -0.5445  0.0940
  175SAPI   H5Y19929   5.702   6.297   7.358  3.6241 -2.7747 -2.9615
  175SAPI   C3619930   5.726   6.349   7.563  0.1362 -0.0949 -1.0385
  175SAPI   H6X19931   5.617   6.365   7.578  0.3664  0.2528  0.4652
  175SAPI   H6Y19932   5.770   6.446   7.533 -0.2475  1.1409  2.0356
  175SAPI   C3719933   5.791   6.281   7.683 -0.3806 -0.6258  0.3254
  175SAPI   H7X19934   5.900   6.279   7.664 -0.2383 -1.0788  1.1238
  175SAPI   H7Y19935   5.779   6.170   7.682 -0.3894 -0.6467  1.4330
  175SAPI   C3819936   5.742   6.340   7.813 -0.4518  0.8965 -0.1744
  175SAPI   H8X19937   5.651   6.286   7.847  0.5184 -1.5443 -1.2273
  175SAPI   H8Y19938   5.704   6.444   7.813 -1.6397  0.4851  0.6333
  175SAPI   C3919939   5.832   6.316   7.937 -0.5290 -0.1223 -0.6130
  175SAPI   H9X19940   5.927   6.371   7.918 -1.3721  1.1617 -1.2388
  175SAPI   H9Y19941   5.858   6.208   7.940 -2.5354 -0.6433  2.5081
  175SAPI  C31019942   5.757   6.345   8.072 -0.2189  0.3354 -0.1487
  175SAPI  H10X19943   5.654   6.304   8.081 -0.4981  1.1320  0.4719
  175SAPI  H10Y19944   5.752   6.456   8.071 -0.5391  0.3203 -1.1146
  175SAPI  C31119945   5.840   6.301   8.194 -0.2238 -0.5020 -0.1551
  175SAPI  H11X19946   5.941   6.346   8.187 -1.4894  2.7320  0.5607
  175SAPI  H11Y19947   5.845   6.190   8.193  2.6473 -0.5793  3.0698
  175SAPI  C31219948   5.783   6.358   8.327  0.1668 -0.9171  0.0007
  175SAPI  H12X19949   5.692   6.303   8.359 -0.4956  0.2356  0.1923
  175SAPI  H12Y19950   5.764   6.466   8.305  0.0082 -1.4388 -2.6786
  175SAPI  C31319951   5.892   6.352   8.435  0.1625  0.6150  0.4363
  175SAPI  H13X19952   5.969   6.424   8.401  1.0400  0.1343  1.3773
  175SAPI  H13Y19953   5.942   6.253   8.423 -0.4305  0.1677  1.5028
  175SAPI  C31419954   5.840   6.366   8.574  0.0246  0.6402 -0.3681
  175SAPI  H14X19955   5.782   6.460   8.584 -0.6323  0.2042  0.0896
  175SAPI  H14Y19956   5.929   6.360   8.641 -0.8007  1.6422  0.8778
  175SAPI  C31519957   5.750   6.250   8.626 -0.2909  0.4145  0.1819
  175SAPI  H15X19958   5.813   6.162   8.602 -0.4828  0.0725  0.9086
  175SAPI  H15Y19959   5.664   6.244   8.557  2.5865 -0.5815 -3.6853
  175SAPI  C31619960   5.727   6.268   8.774 -0.3110  0.2950  0.6446
  175SAPI  H16X19961   5.621   6.294   8.797 -1.5185 -0.5656 -3.1922
  175SAPI  H16Y19962   5.781   6.352   8.822 -0.2674  1.0895 -0.7406
  175SAPI  C31719963   5.734   6.145   8.859 -0.3663  0.6065 -0.4725
  175SAPI  H17X19964   5.841   6.121   8.876 -1.4107 -2.3517  3.3313
  175SAPI  H17Y19965   5.684   6.057   8.814 -1.7285  0.6606  0.8525
  175SAPI  C31819966   5.673   6.153   8.997 -0.0874 -0.3109 -0.0603
  175SAPI  H18X19967   5.703   6.069   9.064 -0.6582  1.6306  2.8174
  175SAPI  H18Y19968   5.562   6.157   8.998 -0.1203 -0.5796  1.8303
  175SAPI  H18Z19969   5.708   6.246   9.047 -2.0239 -0.3508  1.5211
  176SAPI   C1219970   1.768   5.459   6.724  0.2956  0.4711 -0.3961
  176SAPI    H219971   1.718   5.473   6.625 -0.2926  1.1398 -0.0201
  176SAPI    O219972   1.756   5.320   6.755  0.2136 -0.0565 -0.2318
  176SAPI   HO219973   1.680   5.289   6.704 -0.1841  0.5293 -0.0106
  176SAPI   C1319974   1.915   5.514   6.708  0.9393  0.1914 -0.3085
  176SAPI    H319975   1.914   5.625   6.697  0.8610  0.1365 -0.8724
  176SAPI    O319976   1.960   5.447   6.594  0.0664  0.0919  0.1690
  176SAPI   HO319977   2.028   5.492   6.542 -0.1797  0.9292  0.5488
  176SAPI   C1419978   2.002   5.495   6.828 -0.3488  0.5109 -0.6414
  176SAPI    H419979   2.020   5.387   6.844  2.3032  0.8466 -0.9050
  176SAPI    O419980   2.130   5.563   6.803  0.2103 -0.2095 -0.1577
  176SAPI   HO419981   2.202   5.522   6.851  0.4067  0.9945  0.6388
  176SAPI   C1519982   1.927   5.563   6.946  0.2139  0.1089 -0.1728
  176SAPI    H519983   1.933   5.673   6.937  0.3132  0.0557 -0.7996
  176SAPI    O519984   1.993   5.540   7.072  0.2915 -0.7527 -0.3918
  176SAPI   HO519985   1.951   5.595   7.139 -0.7943 -1.2991 -0.5899
  176SAPI   C1619986   1.775   5.532   6.958  0.1368 -0.6081 -0.4695
  176SAPI    H619987   1.776   5.425   6.988 -1.1280 -0.1760  1.3304
  176SAPI    O619988   1.712   5.591   7.073  0.2777  0.4638  0.1316
  176SAPI   HO619989   1.647   5.527   7.102  0.8223  0.1375  0.6625
  176SAPI   C1119990   1.698   5.549   6.826  0.9940  0.6661  0.3449
  176SAPI    H119991   1.700   5.659   6.810 -1.8048  0.8908  1.0248
  176SAPI     P19992   1.441   5.551   6.739 -0.3916 -0.2897 -0.2896
  176SAPI   O1319993   1.341   5.445   6.732 -0.1964 -0.2518 -0.5092
  176SAPI   O1419994   1.500   5.593   6.612  0.7206  0.1005  0.7172
  176SAPI   O1219995   1.562   5.504   6.843 -0.1024  0.0985 -0.1350
  176SAPI   O1119996   1.379   5.678   6.813  0.3062 -0.7475  0.0732
  176SAPI    C119997   1.390   5.703   6.950 -0.6036 -0.6364 -0.2892
  176SAPI    HA19998   1.374   5.608   7.005  1.6082 -1.6299 -1.2508
  176SAPI    HB19999   1.493   5.736   6.975 -0.3598 -2.0242  0.6557
  176SAPI    C220000   1.288   5.815   7.000 -0.2137 -0.6179  0.1130
  176SAPI    HS20001   1.323   5.913   6.963  3.2353 -0.7764  2.4798
  176SAPI   O2120002   1.298   5.808   7.144  0.0128  0.9987  0.0944
  176SAPI   C2120003   1.395   5.871   7.193 -0.1499  0.3476  0.0044
  176SAPI   O2220004   1.487   5.931   7.135  0.0514 -0.2128  0.0802
  176SAPI   C2220005   1.374   5.864   7.349 -0.1551  0.1834 -0.5453
  176SAPI   H2R20006   1.277   5.912   7.371 -0.8163 -0.5804 -1.6816
  176SAPI   H2S20007   1.354   5.756   7.370 -1.8724  0.4250 -0.7950
  176SAPI    C320008   1.142   5.782   6.959  0.0046 -0.1309 -0.3949
  176SAPI    HX20009   1.131   5.672   6.961 -0.2170 -0.1265 -1.3141
  176SAPI    HY20010   1.121   5.810   6.854  1.4906  0.2271 -0.6269
  176SAPI   O3120011   1.048   5.844   7.043 -0.1484 -0.1105  0.2926
  176SAPI   C3120012   1.036   5.975   7.029 -0.6839  0.8909  0.1635
  176SAPI   O3220013   1.092   6.042   6.942 -0.3904  0.4448 -0.4565
  176SAPI   C3220014   0.948   6.013   7.146  0.2863 -0.3485 -0.3112
  176SAPI   H2X20015   0.868   5.940   7.168  0.6916 -0.1368  2.1200
  176SAPI   H2Y20016   0.910   6.115   7.124 -0.3324  0.0448  2.2355
  176SAPI   C2320017   1.488   5.928   7.436  0.1702 -0.4314 -0.5900
  176SAPI   H3R20018   1.519   6.025   7.390 -1.8118 -0.5381 -2.2746
  176SAPI   H3S20019   1.585   5.873   7.438  0.5719  0.1844 -1.9040
  176SAPI   C2420020   1.456   5.943   7.586  0.2948  0.1121  0.1913
  176SAPI   H4R20021   1.431   5.848   7.638  2.2631 -1.4211 -1.4804
  176SAPI   H4S20022   1.374   6.016   7.606 -0.6108 -0.9612  0.4970
  176SAPI   C2520023   1.576   5.995   7.650 -0.4274 -0.3278 -0.2014
  176SAPI   H5R20024   1.640   6.065   7.595  0.9937  0.2029  2.0127
  176SAPI   C2620025   1.622   5.968   7.773 -0.1195  0.0713  0.1783
  176SAPI   H6R20026   1.727   5.997   7.790 -0.2830  0.0785  1.2530
  176SAPI   C2720027   1.560   5.868   7.868 -0.8957  0.9420  0.1980
  176SAPI   H7R20028   1.621   5.775   7.864 -0.8381  1.0162 -1.2178
  176SAPI   H7S20029   1.458   5.836   7.838 -0.4859 -2.6817  2.0666
  176SAPI   C2820030   1.549   5.924   8.002 -0.3447 -0.0224  0.0257
  176SAPI   H8R20031   1.566   6.032   7.997  1.4026 -0.3003 -0.6547
  176SAPI   C2920032   1.528   5.862   8.119  0.9280 -0.2086 -0.1151
  176SAPI   H9R20033   1.526   5.920   8.212  0.5531  2.9283 -1.9495
  176SAPI  C21020034   1.522   5.714   8.127 -0.4577 -0.1767  0.0170
  176SAPI  H10R20035   1.571   5.683   8.222 -0.2628  2.1894  0.7493
  176SAPI  H10S20036   1.579   5.663   8.046 -1.0704  0.1825 -0.6487
  176SAPI  C21120037   1.380   5.662   8.118  0.2840  0.7887  0.0764
  176SAPI  H11R20038   1.308   5.744   8.132 -0.3773  0.3079 -0.4522
  176SAPI  C21220039   1.332   5.537   8.127  0.2103 -0.2864 -0.2769
  176SAPI  H12R20040   1.223   5.528   8.137  0.2977 -0.7872  0.2709
  176SAPI  C21320041   1.408   5.409   8.133  0.5983 -0.2270 -0.1742
  176SAPI  H13R20042   1.487   5.416   8.211  0.5265 -0.0637 -0.1155
  176SAPI  H13S20043   1.469   5.389   8.042 -0.5749 -1.6594 -0.6698
  176SAPI  C21420044   1.321   5.292   8.169 -0.5077  0.5204 -0.1255
  176SAPI  H14R20045   1.292   5.308   8.274  0.9426 -0.8370  0.5086
  176SAPI  C21520046   1.282   5.189   8.094  0.5920  0.1470  0.2230
  176SAPI  H15R20047   1.215   5.112   8.133  1.7014 -1.4737 -0.9292
  176SAPI  C21620048   1.313   5.169   7.950  0.1364  0.2733  1.0408
  176SAPI  H16R20049   1.376   5.078   7.944 -1.6418 -0.9975  0.7101
  176SAPI  H16S20050   1.376   5.246   7.901 -0.6656  0.6908  0.6476
  176SAPI  C21720051   1.187   5.144   7.857  0.0150 -0.8305  0.7745
  176SAPI  H17R20052   1.116   5.229   7.872  1.5480  1.0747 -2.0608
  176SAPI  H17S20053   1.124   5.056   7.887 -2.1162  0.8929  1.6755
  176SAPI  C21820054   1.234   5.126   7.708  0.9263  0.6442 -0.5267
  176SAPI  H18R20055   1.323   5.060   7.715  1.6728  1.7240  0.5175
  176SAPI  H18S20056   1.260   5.228   7.674 -1.0568  1.7510  1.0441
  176SAPI  C21920057   1.116   5.071   7.614  0.3113 -0.2566 -0.7631
  176SAPI  H19R20058   1.028   5.139   7.618  1.4982  1.3268 -0.7876
  176SAPI  H19S20059   1.088   4.980   7.671 -1.6140  0.8660  0.1906
  176SAPI  C22020060   1.171   5.063   7.477 -0.0564  0.1771 -0.3173
  176SAPI  H20R20061   1.113   4.992   7.414  0.2918 -0.4897  0.1057
  176SAPI  H20S20062   1.273   5.019   7.483  1.3079  2.9023 -1.3293
  176SAPI  H20T20063   1.187   5.164   7.434 -3.2357 -0.0212 -2.2493
  176SAPI   C3320064   1.035   6.032   7.277  0.6201  0.0184 -0.1337
  176SAPI   H3X20065   1.130   6.085   7.255  0.0915  0.2623 -2.0198
  176SAPI   H3Y20066   1.058   5.930   7.313  2.0881  0.4171  0.1346
  176SAPI   C3420067   0.976   6.101   7.393  0.7761  0.5349  0.2367
  176SAPI   H4X20068   0.878   6.057   7.420  0.4283  0.4172 -1.1260
  176SAPI   H4Y20069   0.970   6.209   7.369 -0.3925  0.1308 -1.4660
  176SAPI   C3520070   1.074   6.084   7.511 -0.0803 -0.0829  0.2081
  176SAPI   H5X20071   1.131   6.179   7.514 -1.7244  0.9113  0.7540
  176SAPI   H5Y20072   1.122   5.984   7.499 -1.9210 -0.9648 -0.2926
  176SAPI   C3620073   1.004   6.087   7.648 -0.3443  0.7771 -0.3919
  176SAPI   H6X20074   1.076   6.059   7.728  1.8715  1.3656 -2.0691
  176SAPI   H6Y20075   0.928   6.006   7.641 -0.7305  1.0815  0.2345
  176SAPI   C3720076   0.935   6.216   7.670 -0.6212  0.2119 -0.4236
  176SAPI   H7X20077   0.921   6.280   7.581  0.4115  1.8239  0.5359
  176SAPI   H7Y20078   0.990   6.280   7.742 -1.5622  0.5568  0.0132
  176SAPI   C3820079   0.791   6.188   7.719  0.0659 -0.3262  1.1449
  176SAPI   H8X20080   0.801   6.119   7.806  1.0958 -2.8672 -0.8511
  176SAPI   H8Y20081   0.750   6.125   7.638 -0.1915  1.3759 -0.1025
  176SAPI   C3920082   0.701   6.303   7.751 -0.3353 -0.5169  0.1697
  176SAPI   H9X20083   0.598   6.263   7.759 -0.0417 -1.5632 -1.0217
  176SAPI   H9Y20084   0.704   6.383   7.673  1.0771  1.4751  2.1201
  176SAPI  C31020085   0.723   6.381   7.882 -0.9673 -0.3171  0.1629
  176SAPI  H10X20086   0.818   6.436   7.871 -0.5345 -1.1941 -0.7139
  176SAPI  H10Y20087   0.734   6.300   7.957 -1.6383  0.1014  0.7238
  176SAPI  C31120088   0.609   6.470   7.914 -0.2551 -0.8517  0.2982
  176SAPI  H11X20089   0.528   6.406   7.956  0.7371 -0.5624  2.8324
  176SAPI  H11Y20090   0.588   6.526   7.821 -0.0091 -0.3777  0.5245
  176SAPI  C31220091   0.653   6.573   8.017  0.4877 -0.3061  0.0583
  176SAPI  H12X20092   0.737   6.639   7.986  1.6179 -0.3754  2.6919
  176SAPI  H12Y20093   0.690   6.512   8.102 -0.3957  0.1567  0.7995
  176SAPI  C31320094   0.533   6.657   8.065  0.0364 -1.1297  0.6133
  176SAPI  H13X20095   0.446   6.588   8.070 -1.5088  0.5733 -1.2745
  176SAPI  H13Y20096   0.511   6.725   7.980 -0.1658 -2.4472 -0.4224
  176SAPI  C31420097   0.570   6.738   8.187 -0.1765 -0.3112  0.3276
  176SAPI  H14X20098   0.669   6.784   8.164 -0.5653  0.3204 -0.0974
  176SAPI  H14Y20099   0.596   6.662   8.264 -0.5980 -1.4971 -0.6611
  176SAPI  C31520100   0.464   6.839   8.224 -0.5312  0.9085  0.3744
  176SAPI  H15X20101   0.380   6.776   8.261 -0.0942  0.3870  0.4751
  176SAPI  H15Y20102   0.439   6.900   8.134 -3.2692  0.4859  0.7610
  176SAPI  C31620103   0.513   6.934   8.335 -0.0812  0.7160  0.0523
  176SAPI  H16X20104   0.616   6.967   8.311 -0.2646  0.5354 -1.0291
  176SAPI  H16Y20105   0.516   6.885   8.434 -0.4876  0.9341  0.1781
  176SAPI  C31720106   0.435   7.064   8.351  0.1034  0.4438  0.6099
  176SAPI  H17X20107   0.431   7.127   8.260  0.4025  1.3880  1.2396
  176SAPI  H17Y20108   0.488   7.127   8.425 -1.5530  1.9016  0.6205
  176SAPI  C31820109   0.290   7.040   8.420  0.7410  0.2719  0.2501
  176SAPI  H18X20110   0.252   7.134   8.464  0.6071 -0.4536  1.7416
  176SAPI  H18Y20111   0.303   6.976   8.509 -1.7530  1.5526  1.6443
  176SAPI  H18Z20112   0.207   7.003   8.355  0.7681  2.2295 -0.9909
  177SLPC     N20113   3.202   2.320  11.183  0.0684 -0.2893 -0.0501
  177SLPC   C1320114   3.119   2.442  11.214 -0.9207 -0.4213  0.0553
  177SLPC  H13A20115   3.123   2.520  11.140 -1.4564  0.8365  1.3167
  177SLPC  H13B20116   3.014   2.418  11.219 -0.6936 -1.2683  1.1610
  177SLPC  H13C20117   3.142   2.488  11.309 -2.1929 -0.0106  0.1815
  177SLPC   C1420118   3.132   2.202  11.245 -0.0301 -0.6764  0.1686
  177SLPC  H14A20119   3.182   2.114  11.209 -1.2220 -1.5707  0.6546
  177SLPC  H14B20120   3.123   2.215  11.352  2.4702  1.5119  0.2312
  177SLPC  H14C20121   3.032   2.183  11.209 -0.1343 -1.7441  0.9886
  177SLPC   C1520122   3.335   2.335  11.254 -0.4869 -0.3696 -0.4277
  177SLPC  H15A20123   3.381   2.426  11.217  2.3636 -2.2337 -1.8403
  177SLPC  H15B20124   3.319   2.349  11.360  1.5720 -0.8707  0.0004
  177SLPC  H15C20125   3.407   2.255  11.249  0.5094  0.5603 -1.7530
  177SLPC   C1220126   3.214   2.299  11.032  0.0808 -0.0584 -0.4814
  177SLPC  H12A20127   3.112   2.283  11.000  0.0544 -1.5145  0.2371
  177SLPC  H12B20128   3.253   2.198  11.023 -2.9005 -1.2099 -1.5486
  177SLPC   C1120129   3.297   2.402  10.951 -0.1745  0.3222 -0.5508
  177SLPC  H11A20130   3.293   2.369  10.845  0.4356 -1.5218 -0.0460
  177SLPC  H11B20131   3.403   2.393  10.982 -0.6387  0.2520  1.0988
  177SLPC     P20132   3.159   2.590  10.847  0.2045 -0.1706  0.3520
  177SLPC   O1320133   3.047   2.494  10.827 -0.6784  0.3751 -0.0877
  177SLPC   O1420134   3.122   2.728  10.890 -0.3954 -0.0881 -0.1079
  177SLPC   O1220135   3.250   2.538  10.960 -0.3513  0.1904 -0.1107
  177SLPC   O1120136   3.244   2.597  10.717 -0.3578 -0.0500  0.2303
  177SLPC    C120137   3.379   2.649  10.716 -0.1387 -0.3555  0.4086
  177SLPC    HA20138   3.373   2.759  10.704 -0.0492 -0.3021  0.8294
  177SLPC    HB20139   3.433   2.634  10.812 -2.0554  1.6022  1.9005
  177SLPC    C220140   3.457   2.575  10.599 -0.6369 -0.1632 -0.1484
  177SLPC    HS20141   3.555   2.626  10.593 -0.5053  0.1029  2.8016
  177SLPC   O2120142   3.381   2.580  10.474 -0.6043 -0.3275 -1.0218
  177SLPC   C2120143   3.371   2.706  10.424 -0.4147  0.0040  0.4703
  177SLPC   O2220144   3.401   2.809  10.484  0.0770  0.1931  0.2445
  177SLPC   C2220145   3.304   2.700  10.287 -0.1469 -0.7587 -0.1443
  177SLPC   H2R20146   3.341   2.612  10.230 -0.1491  2.2766 -5.5242
  177SLPC   H2S20147   3.194   2.694  10.301 -0.0108  0.3685  1.8049
  177SLPC    C320148   3.483   2.425  10.636 -0.7704 -0.0551 -0.0886
  177SLPC    HX20149   3.376   2.396  10.636 -0.7775 -0.0897 -1.3382
  177SLPC    HY20150   3.527   2.427  10.738 -1.6492 -0.7222  0.3168
  177SLPC   O3120151   3.563   2.359  10.536  0.2835 -0.5299  0.1993
  177SLPC   C3120152   3.693   2.356  10.559 -0.1303  0.6654 -0.0335
  177SLPC   O3220153   3.754   2.394  10.656 -0.0831 -0.5696  0.4964
  177SLPC   C3220154   3.759   2.287  10.440 -0.0079 -1.1818  0.2991
  177SLPC   H2X20155   3.860   2.256  10.474 -1.2969 -0.7700  5.2103
  177SLPC   H2Y20156   3.773   2.357  10.355 -2.7033  0.4266  1.0567
  177SLPC   C2320157   3.347   2.819  10.194  0.1453 -0.7194 -0.1940
  177SLPC   H3R20158   3.457   2.816  10.181  0.0989 -1.8835 -0.4487
  177SLPC   H3S20159   3.318   2.913  10.245 -1.3394  0.5767 -3.1908
  177SLPC   C2420160   3.279   2.807  10.058  0.4014  0.5484 -0.3254
  177SLPC   H4R20161   3.169   2.790  10.057  0.0731  2.4486 -1.8570
  177SLPC   H4S20162   3.320   2.722   9.999 -1.8237  0.0280 -1.2345
  177SLPC   C2520163   3.302   2.922   9.957 -0.1793 -0.5398 -0.1510
  177SLPC   H5R20164   3.406   2.938   9.921 -0.3696  1.7539  0.1627
  177SLPC   H5S20165   3.257   3.017   9.993  0.1516  0.3239 -1.8664
  177SLPC   C2620166   3.224   2.890   9.832  0.4241  0.0318  0.4967
  177SLPC   H6R20167   3.118   2.859   9.841  0.2673 -0.7201 -2.7387
  177SLPC   H6S20168   3.268   2.795   9.795  0.7437 -0.6072  2.4189
  177SLPC   C2720169   3.240   2.997   9.725  0.5654 -0.3594 -0.0526
  177SLPC   H7R20170   3.343   3.038   9.725  0.5973 -0.3330 -2.3426
  177SLPC   H7S20171   3.178   3.085   9.753 -0.8250 -1.3201 -0.0239
  177SLPC   C2820172   3.193   2.954   9.580 -0.5635  0.3436  0.1260
  177SLPC   H8R20173   3.085   2.977   9.566 -1.0680 -1.1858  1.2383
  177SLPC   H8S20174   3.196   2.843   9.573 -0.9728  0.3747 -0.7066
  177SLPC   C2920175   3.278   3.026   9.478  0.4114 -0.7449 -0.4899
  177SLPC   H9R20176   3.316   3.124   9.512 -2.6580  0.3951  0.0436
  177SLPC  C21020177   3.303   2.992   9.356  0.8531 -0.2933  0.4331
  177SLPC  H10R20178   3.365   3.059   9.294 -1.1253  0.1838 -1.1223
  177SLPC  C21120179   3.254   2.871   9.279 -0.9104 -0.0401  0.2550
  177SLPC  H11R20180   3.311   2.882   9.185  0.2314 -2.2931  0.6342
  177SLPC  H11S20181   3.285   2.782   9.336  1.0293  0.1751 -0.3858
  177SLPC  C21220182   3.103   2.875   9.248 -0.1703  0.4564  0.3183
  177SLPC  H12R20183   3.049   2.791   9.295  3.2076 -2.4955 -0.5931
  177SLPC  C21320184   3.031   2.945   9.159 -0.3652  0.5299 -0.0126
  177SLPC  H13R20185   2.923   2.922   9.162 -0.1027 -0.9520 -0.9491
  177SLPC  C21420186   3.079   3.055   9.068 -0.1424 -0.2135  0.3247
  177SLPC  H14R20187   3.186   3.075   9.089 -0.4256  1.9730 -0.1132
  177SLPC  H14S20188   3.022   3.148   9.087  0.5896  0.2403  0.3408
  177SLPC  C21520189   3.074   3.006   8.922  0.5004  0.7780  0.6662
  177SLPC  H15R20190   3.125   2.910   8.901  3.2097  2.6463 -2.1755
  177SLPC  H15S20191   3.128   3.070   8.849  1.6847  0.3339  1.1440
  177SLPC  C21620192   2.924   3.003   8.880  0.1789  0.0285  0.2844
  177SLPC  H16R20193   2.885   3.106   8.897  0.1073 -0.2523  1.9950
  177SLPC  H16S20194   2.871   2.926   8.939 -0.7314  0.7600  0.4448
  177SLPC  C21720195   2.911   2.981   8.723 -0.4982  0.5196 -0.4490
  177SLPC  H17R20196   2.981   2.904   8.686  0.4923  1.2763 -0.2146
  177SLPC  H17S20197   2.955   3.073   8.678  0.0956 -1.3757 -4.1521
  177SLPC  C21820198   2.772   2.952   8.665 -0.5280  0.2126 -0.2988
  177SLPC  H18R20199   2.755   2.842   8.674 -0.0621  0.0426 -1.3824
  177SLPC  H18S20200   2.776   2.972   8.556  0.0983  0.0033 -0.3228
  177SLPC  H18T20201   2.683   3.002   8.709 -0.9293  1.6981 -2.6614
  177SLPC   C3320202   3.705   2.155  10.379  1.0440 -0.0718  0.5836
  177SLPC   H3X20203   3.641   2.096  10.449  1.8266 -0.8504  0.6594
  177SLPC   H3Y20204   3.785   2.080  10.366 -0.5193 -2.2125  2.4992
  177SLPC   C3420205   3.626   2.182  10.247 -0.4773 -0.3120  0.3307
  177SLPC   H4X20206   3.701   2.237  10.187 -1.2516 -0.6030 -0.9280
  177SLPC   H4Y20207   3.535   2.242  10.264 -1.0300 -1.3755  1.3556
  177SLPC   C3520208   3.601   2.055  10.163 -0.2140  0.4611  0.6383
  177SLPC   H5X20209   3.521   1.991  10.206 -0.0610 -0.1377  0.0535
  177SLPC   H5Y20210   3.691   1.993  10.145 -0.1007  0.7441  0.2208
  177SLPC   C3620211   3.552   2.105  10.025 -0.6165  0.9737  0.6668
  177SLPC   H6X20212   3.460   2.166  10.019  0.4747  2.6481  0.1873
  177SLPC   H6Y20213   3.510   2.011   9.984  0.8492  1.5176 -2.3775
  177SLPC   C3720214   3.658   2.160   9.927  0.6373  0.2464 -0.4757
  177SLPC   H7X20215   3.743   2.088   9.931 -0.6768 -1.2927  2.3174
  177SLPC   H7Y20216   3.690   2.259   9.965  1.1331 -0.3746  0.7891
  177SLPC   C3820217   3.610   2.157   9.778  0.5798 -0.1311 -0.6415
  177SLPC   H8X20218   3.600   2.053   9.740  0.8673 -0.2360 -0.4290
  177SLPC   H8Y20219   3.681   2.211   9.713 -1.9635  3.6157 -0.6268
  177SLPC   C3920220   3.475   2.227   9.769  0.0467  0.3023  0.0722
  177SLPC   H9X20221   3.461   2.324   9.820  0.9501  0.6084 -0.2396
  177SLPC   H9Y20222   3.403   2.153   9.809  0.1725  0.1533  0.0221
  177SLPC  C31020223   3.427   2.243   9.622 -0.6098 -0.9903  0.3181
  177SLPC  H10X20224   3.455   2.153   9.563  1.4567 -1.3340  1.7264
  177SLPC  H10Y20225   3.480   2.335   9.588 -2.8075  0.0884 -0.3884
  177SLPC  C31120226   3.281   2.279   9.617 -1.0011 -0.4084  0.5351
  177SLPC  H11X20227   3.255   2.350   9.699  1.5671  0.0705  1.0342
  177SLPC  H11Y20228   3.224   2.185   9.631 -2.2020 -0.3204 -3.0070
  177SLPC  C31220229   3.231   2.352   9.487  0.2332  0.6229 -0.7075
  177SLPC  H12X20230   3.280   2.452   9.477  0.2071  0.4487 -3.2698
  177SLPC  H12Y20231   3.122   2.368   9.497  0.5772  2.7912  0.2599
  177SLPC  C31320232   3.254   2.264   9.366 -0.0507 -0.7658  0.4171
  177SLPC  H13X20233   3.239   2.158   9.396  0.9210 -1.8467 -2.5809
  177SLPC  H13Y20234   3.361   2.252   9.338  0.5260  0.9847  1.6738
  177SLPC  C31420235   3.180   2.299   9.234 -0.3686 -0.3538  0.3847
  177SLPC  H14X20236   3.072   2.317   9.254  0.0841  3.2072  0.2432
  177SLPC  H14Y20237   3.163   2.201   9.184 -3.1013 -0.9433  2.2031
  177SLPC  C31520238   3.260   2.402   9.148  0.7137 -0.1834 -0.6432
  177SLPC  H15X20239   3.362   2.359   9.134  1.1886  0.7105  0.0643
  177SLPC  H15Y20240   3.274   2.493   9.209  1.4260  0.0681 -1.1628
  177SLPC  C31620241   3.178   2.429   9.027  0.4342 -1.1136  0.2260
  177SLPC  H16X20242   3.078   2.469   9.056  0.2952 -0.8454 -0.6106
  177SLPC  H16Y20243   3.162   2.337   8.967  0.8638 -1.1860  0.2186
  177SLPC  C31720244   3.245   2.540   8.949 -0.0163 -0.2287  0.4205
  177SLPC  H17X20245   3.348   2.508   8.922 -0.9274 -1.5625 -1.6891
  177SLPC  H17Y20246   3.267   2.629   9.012 -0.4379  0.0750  0.1450
  177SLPC  C31820247   3.181   2.580   8.819  0.2161 -0.6457 -0.7934
  177SLPC  H18X20248   3.151   2.491   8.759 -2.2271 -0.0378 -0.5741
  177SLPC  H18Y20249   3.249   2.646   8.760  0.8229 -1.3517 -0.9000
  177SLPC  H18Z20250   3.091   2.644   8.832  0.4498 -0.8864  2.8678
  178SLPC     N20251   1.026   5.660  11.025 -0.0677 -0.0996 -0.1362
  178SLPC   C1320252   1.100   5.621  10.898  0.1313  0.4554  0.0805
  178SLPC  H13A20253   1.063   5.530  10.854  1.5392  1.5236 -3.6934
  178SLPC  H13B20254   1.087   5.701  10.827 -0.2353 -1.2291 -1.8314
  178SLPC  H13C20255   1.203   5.601  10.920 -0.2171 -0.4318  0.9816
  178SLPC   C1420256   1.087   5.789  11.079  0.3596  0.1010 -0.0126
  178SLPC  H14A20257   1.065   5.873  11.014 -0.3202 -1.8538 -2.4302
  178SLPC  H14B20258   1.062   5.816  11.181 -0.9082  0.4335 -0.4010
  178SLPC  H14C20259   1.193   5.775  11.063  0.2257  0.8394 -1.7939
  178SLPC   C1520260   1.050   5.560  11.132 -0.0433  0.7951  0.7072
  178SLPC  H15A20261   1.156   5.537  11.138 -0.0149  0.1743 -1.3970
  178SLPC  H15B20262   1.012   5.592  11.228  1.7536  2.5836  0.8980
  178SLPC  H15C20263   0.990   5.477  11.099 -1.3258  1.6487  0.8339
  178SLPC   C1220264   0.882   5.682  11.006  0.5496  0.2066  0.2434
  178SLPC  H12A20265   0.853   5.775  10.958 -0.6736  0.6394  1.7441
  178SLPC  H12B20266   0.844   5.701  11.105 -0.6543  2.1622 -0.5310
  178SLPC   C1120267   0.793   5.560  10.956  0.5562  0.6578 -0.3571
  178SLPC  H11A20268   0.835   5.527  10.858  0.6125 -0.8526  0.1502
  178SLPC  H11B20269   0.698   5.613  10.936 -0.0858  0.5157  2.0394
  178SLPC     P20270   0.653   5.364  11.053 -0.2222  0.1814  0.1642
  178SLPC   O1320271   0.689   5.235  11.113 -0.5430 -0.5898 -0.3692
  178SLPC   O1420272   0.552   5.444  11.127  0.3102  0.5074  0.3980
  178SLPC   O1220273   0.787   5.442  11.036  0.1312  0.3631  0.5343
  178SLPC   O1120274   0.610   5.349  10.904 -0.2318  0.4016 -0.4163
  178SLPC    C120275   0.690   5.273  10.819 -0.1917 -0.4588  0.1129
  178SLPC    HA20276   0.787   5.326  10.810 -1.3355  2.3124  2.4271
  178SLPC    HB20277   0.695   5.166  10.849 -0.1900  0.1477  2.4339
  178SLPC    C220278   0.630   5.273  10.674 -0.1282  0.3593  0.6999
  178SLPC    HS20279   0.709   5.245  10.602 -2.6025 -1.1484 -1.6233
  178SLPC   O2120280   0.574   5.406  10.633 -0.1096 -0.4420 -0.7585
  178SLPC   C2120281   0.678   5.492  10.603 -0.1615  0.1879  0.0815
  178SLPC   O2220282   0.797   5.464  10.597  0.0061  0.3890  0.1636
  178SLPC   C2220283   0.610   5.636  10.571 -0.4796 -0.5924 -0.3745
  178SLPC   H2R20284   0.500   5.635  10.580 -0.8158  2.7896 -2.5443
  178SLPC   H2S20285   0.640   5.706  10.652 -1.0168  0.6031 -1.1856
  178SLPC    C320286   0.525   5.170  10.654 -0.1898  0.2869 -0.1898
  178SLPC    HX20287   0.423   5.194  10.692  0.5921  0.3221  2.0396
  178SLPC    HY20288   0.556   5.078  10.708 -0.1244  2.2452  3.4365
  178SLPC   O3120289   0.510   5.135  10.514  0.0009  0.2399 -0.4494
  178SLPC   C3120290   0.423   5.197  10.436 -0.5027  0.3551 -0.4920
  178SLPC   O3220291   0.339   5.282  10.471 -0.0814  0.2040 -0.0270
  178SLPC   C3220292   0.445   5.142  10.297  0.1465  0.4897 -0.4837
  178SLPC   H2X20293   0.348   5.159  10.245 -1.6428 -0.3093  2.3636
  178SLPC   H2Y20294   0.461   5.033  10.312  4.5035  1.0798  0.3826
  178SLPC   C2320295   0.659   5.687  10.441 -0.4524  0.0512  0.9075
  178SLPC   H3R20296   0.760   5.650  10.413 -0.9545 -0.4519 -0.3033
  178SLPC   H3S20297   0.666   5.798  10.445  2.0538 -0.0622  1.1932
  178SLPC   C2420298   0.560   5.646  10.326 -0.0874 -0.0748 -0.5536
  178SLPC   H4R20299   0.462   5.674  10.371  0.2294  1.2921 -0.6868
  178SLPC   H4S20300   0.565   5.535  10.319  0.0319 -0.0761 -0.4590
  178SLPC   C2520301   0.597   5.709  10.194 -0.7343  0.0238  0.1745
  178SLPC   H5R20302   0.699   5.671  10.173 -1.3035 -1.6372  0.2300
  178SLPC   H5S20303   0.598   5.820  10.198  0.0892  0.0442 -0.3442
  178SLPC   C2620304   0.504   5.683  10.076  0.0568 -0.3282  0.6190
  178SLPC   H6R20305   0.404   5.720  10.110  1.1261  1.6510  1.7989
  178SLPC   H6S20306   0.508   5.574  10.055  0.8898  0.0323 -1.1732
  178SLPC   C2720307   0.548   5.779   9.954  0.4866 -0.4213 -0.2612
  178SLPC   H7R20308   0.657   5.773   9.932  0.9031 -0.5994  1.6225
  178SLPC   H7S20309   0.545   5.876  10.007 -0.5754 -0.9718  0.7402
  178SLPC   C2820310   0.459   5.791   9.829  0.7595  0.4712 -0.8258
  178SLPC   H8R20311   0.493   5.872   9.761 -1.3182  1.3772 -0.8564
  178SLPC   H8S20312   0.350   5.806   9.843 -0.0307 -1.8960 -3.4520
  178SLPC   C2920313   0.459   5.660   9.750 -0.0829  0.1808  0.0791
  178SLPC   H9R20314   0.439   5.574   9.817 -0.1614  0.2525  0.1484
  178SLPC  C21020315   0.473   5.642   9.618  0.4853 -1.0114  0.5223
  178SLPC  H10R20316   0.448   5.541   9.580  0.7916 -0.4449 -1.2896
  178SLPC  C21120317   0.491   5.743   9.505  0.0243  0.2289  0.0681
  178SLPC  H11R20318   0.542   5.698   9.417 -0.0443  0.0721  0.1086
  178SLPC  H11S20319   0.548   5.832   9.540 -1.0114  1.1366 -0.4638
  178SLPC  C21220320   0.367   5.821   9.460 -0.1479  0.2607  0.0058
  178SLPC  H12R20321   0.270   5.801   9.507 -0.0227  1.4685  0.8107
  178SLPC  C21320322   0.368   5.913   9.358 -0.3337  1.0444  0.6979
  178SLPC  H13R20323   0.271   5.963   9.343  0.4964  2.2265 -1.1400
  178SLPC  C21420324   0.485   5.953   9.270  0.2934 -1.2229  0.0797
  178SLPC  H14R20325   0.580   5.929   9.324  1.2239  1.2118 -0.3308
  178SLPC  H14S20326   0.471   6.062   9.253  0.5226 -0.8446  2.0786
  178SLPC  C21520327   0.468   5.879   9.142  0.2956  0.3435  0.0045
  178SLPC  H15R20328   0.368   5.906   9.103 -0.8754 -0.1846  2.4058
  178SLPC  H15S20329   0.468   5.771   9.166  0.4510  0.6921  1.7565
  178SLPC  C21620330   0.576   5.919   9.049  0.8634  0.2655 -0.2333
  178SLPC  H16R20331   0.673   5.909   9.101  0.7863 -0.9476 -0.3036
  178SLPC  H16S20332   0.561   6.027   9.026  0.0541  0.4322  0.9911
  178SLPC  C21720333   0.575   5.856   8.904 -1.5468  0.8228 -0.2861
  178SLPC  H17R20334   0.578   5.745   8.909  2.9866  0.8150  0.1989
  178SLPC  H17S20335   0.665   5.886   8.848 -1.8705 -1.4344 -2.1663
  178SLPC  C21820336   0.463   5.899   8.823  0.8901 -0.2095 -0.3794
  178SLPC  H18R20337   0.474   5.836   8.732 -0.0257 -2.4298  0.9668
  178SLPC  H18S20338   0.467   6.008   8.801  0.5493 -0.3794 -1.3642
  178SLPC  H18T20339   0.366   5.870   8.870  0.2985 -4.2625 -3.4952
  178SLPC   C3320340   0.583   5.197  10.239 -0.5730  0.5225  0.1154
  178SLPC   H3X20341   0.644   5.232  10.325 -5.2888  2.2238  3.1555
  178SLPC   H3Y20342   0.556   5.278  10.168 -0.6149  1.0460  0.7287
  178SLPC   C3420343   0.658   5.088  10.157  0.0878  0.9340  0.1842
  178SLPC   H4X20344   0.664   4.993  10.214 -0.4706  0.2688 -0.8457
  178SLPC   H4Y20345   0.753   5.135  10.122 -0.5316  3.9733  2.2501
  178SLPC   C3520346   0.585   5.029  10.042 -0.0373  0.9821  0.7663
  178SLPC   H5X20347   0.476   5.020  10.063  0.5252 -2.3558  2.9290
  178SLPC   H5Y20348   0.614   4.925  10.018  0.5573  1.0305  1.2604
  178SLPC   C3620349   0.606   5.111   9.911 -0.0103  0.3666 -0.0968
  178SLPC   H6X20350   0.715   5.129   9.914 -0.1159  0.9237  0.7677
  178SLPC   H6Y20351   0.555   5.210   9.915  2.6616  1.8108  0.4820
  178SLPC   C3720352   0.565   5.040   9.782 -0.1569  0.8711 -0.5493
  178SLPC   H7X20353   0.454   5.041   9.788 -0.3339 -1.4281 -2.0304
  178SLPC   H7Y20354   0.592   4.933   9.784  2.4684  1.4737  1.2515
  178SLPC   C3820355   0.586   5.116   9.645  0.0586  0.3873 -0.7470
  178SLPC   H8X20356   0.690   5.138   9.612  0.7500  0.1269  1.1506
  178SLPC   H8Y20357   0.536   5.215   9.652 -1.9978 -0.6642  0.8610
  178SLPC   C3920358   0.516   5.030   9.529 -0.4603  0.6825  0.8773
  178SLPC   H9X20359   0.489   5.093   9.441 -1.4180  1.0003  1.3750
  178SLPC   H9Y20360   0.417   4.995   9.566 -0.6497 -1.5492 -1.4279
  178SLPC  C31020361   0.595   4.905   9.489  0.7002  0.2284  0.2380
  178SLPC  H10X20362   0.613   4.841   9.578  0.7421  2.3816  1.8328
  178SLPC  H10Y20363   0.692   4.921   9.439  0.1761  2.1438 -0.2424
  178SLPC  C31120364   0.501   4.826   9.386 -0.0551  0.2710 -0.2471
  178SLPC  H11X20365   0.412   4.797   9.445  1.7461 -3.8063  0.8054
  178SLPC  H11Y20366   0.554   4.729   9.373 -2.9462 -1.5385  0.4462
  178SLPC  C31220367   0.469   4.899   9.256 -1.1260 -0.2401  0.6521
  178SLPC  H12X20368   0.559   4.942   9.207 -0.4579 -3.6243 -1.3682
  178SLPC  H12Y20369   0.391   4.972   9.288 -0.8577  0.1840  0.3491
  178SLPC  C31320370   0.398   4.815   9.147 -0.0317 -0.5248 -0.2861
  178SLPC  H13X20371   0.406   4.711   9.186 -1.1534 -0.9253 -1.0761
  178SLPC  H13Y20372   0.449   4.817   9.049  0.4975  2.5709 -0.0338
  178SLPC  C31420373   0.260   4.862   9.112  0.1817  0.2053 -0.0688
  178SLPC  H14X20374   0.266   4.970   9.090 -0.6267 -0.1713 -2.3298
  178SLPC  H14Y20375   0.201   4.835   9.202  1.3380  1.1002  1.0018
  178SLPC  C31520376   0.196   4.781   8.996 -0.6257  0.6943  0.8541
  178SLPC  H15X20377   0.245   4.813   8.902 -1.1997 -2.9863 -0.8742
  178SLPC  H15Y20378   0.212   4.674   9.019 -2.1529  0.5440  1.3105
  178SLPC  C31620379   0.046   4.803   8.986 -0.1383  0.0331  1.2733
  178SLPC  H16X20380   0.020   4.906   8.955 -0.6433  0.3421  2.6499
  178SLPC  H16Y20381   0.001   4.784   9.085 -0.0299 -2.6805  0.8714
  178SLPC  C31720382  -0.021   4.714   8.870  0.2106 -0.2870 -0.5947
  178SLPC  H17X20383  -0.034   4.610   8.907  0.0779  0.5088  1.7039
  178SLPC  H17Y20384   0.040   4.712   8.777 -0.1098 -2.1765 -0.8170
  178SLPC  C31820385  -0.154   4.784   8.839 -0.4127  0.2159  0.5177
  178SLPC  H18X20386  -0.146   4.894   8.827  1.1205  0.1638  0.8456
  178SLPC  H18Y20387  -0.215   4.770   8.931  0.5673 -0.7108  1.0651
  178SLPC  H18Z20388  -0.215   4.740   8.757 -3.5406  0.8510  2.3493
  179SLPC     N20389   0.425   2.008  10.846  0.2136  0.2919  0.4722
  179SLPC   C1320390   0.478   2.033  10.987 -0.5871  0.1327 -0.0867
  179SLPC  H13A20391   0.408   2.096  11.038 -0.8347 -2.3072  2.8983
  179SLPC  H13B20392   0.463   1.942  11.044 -3.5861  0.2173 -0.5842
  179SLPC  H13C20393   0.577   2.076  10.992  0.8289 -2.5331 -2.1980
  179SLPC   C1420394   0.391   2.143  10.782 -0.7033 -0.0352 -0.0494
  179SLPC  H14A20395   0.339   2.123  10.689 -0.8713  0.1187  0.0112
  179SLPC  H14B20396   0.327   2.192  10.854 -0.5587 -1.2457  0.9373
  179SLPC  H14C20397   0.481   2.201  10.770 -0.1516 -0.1989  2.6908
  179SLPC   C1520398   0.289   1.946  10.865 -0.7388  0.1754 -0.1273
  179SLPC  H15A20399   0.243   1.913  10.773  0.0803 -2.1771  0.2637
  179SLPC  H15B20400   0.290   1.858  10.928  0.1555  0.7100  0.6393
  179SLPC  H15C20401   0.222   2.017  10.911  0.5198  1.3146  0.0424
  179SLPC   C1220402   0.516   1.927  10.754  0.4846 -0.0133 -0.6813
  179SLPC  H12A20403   0.528   1.827  10.793  1.1709 -0.2789 -1.5371
  179SLPC  H12B20404   0.615   1.966  10.772  0.0415  0.2480  1.3734
  179SLPC   C1120405   0.482   1.898  10.606 -0.2081 -0.0791 -0.0060
  179SLPC  H11A20406   0.560   1.832  10.562 -1.6067 -1.0056 -1.1798
  179SLPC  H11B20407   0.475   1.990  10.545  0.8695 -0.0998 -0.1938
  179SLPC     P20408   0.327   1.685  10.621  0.0247 -0.1645  0.4457
  179SLPC   O1320409   0.437   1.637  10.711 -0.0268 -0.2077 -0.5459
  179SLPC   O1420410   0.189   1.666  10.674  0.3631  0.5628  0.4160
  179SLPC   O1220411   0.351   1.841  10.592  0.0406  0.1195  1.1686
  179SLPC   O1120412   0.352   1.614  10.480 -0.0159  0.8743 -0.0645
  179SLPC    C120413   0.318   1.675  10.356 -0.3964 -0.7688 -0.4259
  179SLPC    HA20414   0.366   1.775  10.345  0.0972 -1.1135 -1.6530
  179SLPC    HB20415   0.375   1.619  10.278 -0.7776 -0.3256 -1.0311
  179SLPC    C220416   0.172   1.691  10.309  0.3827  0.3380 -0.0880
  179SLPC    HS20417   0.121   1.752  10.387  0.7305 -0.3094  0.6593
  179SLPC   O2120418   0.122   1.554  10.313  0.0915 -0.1670  0.7674
  179SLPC   C2120419  -0.013   1.536  10.329 -0.1510 -0.5144 -0.7118
  179SLPC   O2220420  -0.084   1.628  10.353 -0.0774 -0.2145  0.0511
  179SLPC   C2220421  -0.052   1.390  10.326 -0.0191  0.4864  0.6877
  179SLPC   H2R20422   0.040   1.334  10.297 -1.3524 -1.1325 -0.5953
  179SLPC   H2S20423  -0.082   1.369  10.431 -1.2387 -0.7734  0.1210
  179SLPC    C320424   0.154   1.757  10.169 -0.1588 -0.0361 -0.7742
  179SLPC    HX20425   0.174   1.862  10.198  0.5463 -0.1424 -0.8374
  179SLPC    HY20426   0.047   1.749  10.143 -0.2930 -0.0133 -0.2356
  179SLPC   O3120427   0.247   1.717  10.065  0.8911 -0.1968 -0.5085
  179SLPC   C3120428   0.217   1.609  10.006  0.1434  0.3295 -0.0359
  179SLPC   O3220429   0.117   1.545  10.020 -0.0936 -0.1654  0.7361
  179SLPC   C3220430   0.338   1.562   9.914 -0.0041  0.2006  0.1452
  179SLPC   H2X20431   0.291   1.507   9.830  1.6466 -2.5041  0.8542
  179SLPC   H2Y20432   0.394   1.488   9.975  1.2798  1.7569  0.9647
  179SLPC   C2320433  -0.171   1.334  10.239  0.6056 -0.0035  0.2602
  179SLPC   H3R20434  -0.262   1.379  10.284 -0.2590 -0.5026 -0.9317
  179SLPC   H3S20435  -0.170   1.225  10.255 -1.1908  0.1158  1.4465
  179SLPC   C2420436  -0.164   1.370  10.091 -0.0714 -0.4545 -0.0519
  179SLPC   H4R20437  -0.082   1.308  10.049 -1.3296 -1.7059 -0.7348
  179SLPC   H4S20438  -0.125   1.473  10.078  0.1604 -0.4678  0.5048
  179SLPC   C2520439  -0.297   1.352  10.013 -0.0445  0.2124  0.0718
  179SLPC   H5R20440  -0.284   1.418   9.925 -1.3012  0.0657 -0.2479
  179SLPC   H5S20441  -0.386   1.403  10.056  0.1411  2.9269 -2.3933
  179SLPC   C2620442  -0.329   1.209   9.983  0.4029  0.4847  1.4106
  179SLPC   H6R20443  -0.377   1.155  10.068  0.7509 -1.4688  0.4058
  179SLPC   H6S20444  -0.240   1.147   9.963 -1.1871 -1.8982  1.3760
  179SLPC   C2720445  -0.416   1.198   9.853 -0.7203  0.6443 -0.5921
  179SLPC   H7R20446  -0.367   1.263   9.777 -0.8589 -0.3236 -1.5324
  179SLPC   H7S20447  -0.518   1.235   9.877 -1.7372 -2.8068  0.9359
  179SLPC   C2820448  -0.419   1.051   9.804 -0.2977 -0.4569 -0.8143
  179SLPC   H8R20449  -0.451   0.985   9.888  0.0617  0.2922 -0.0779
  179SLPC   H8S20450  -0.313   1.020   9.790  0.6117  1.6019  0.9706
  179SLPC   C2920451  -0.504   1.056   9.686  0.0483  0.3047  0.0833
  179SLPC   H9R20452  -0.609   1.054   9.717 -0.5348 -0.8783 -1.7533
  179SLPC  C21020453  -0.460   1.057   9.551 -0.0721  0.6495 -0.5786
  179SLPC  H10R20454  -0.532   1.047   9.469  2.8254 -0.0305 -3.2660
  179SLPC  C21120455  -0.320   1.059   9.493 -0.1333 -0.8137 -0.0056
  179SLPC  H11R20456  -0.302   0.987   9.410 -1.3310  0.5824 -1.5254
  179SLPC  H11S20457  -0.264   1.024   9.583  1.2056 -2.9228 -1.5644
  179SLPC  C21220458  -0.263   1.197   9.448  0.1041 -0.3495 -0.1131
  179SLPC  H12R20459  -0.186   1.235   9.516 -1.6996  1.6171  0.9579
  179SLPC  C21320460  -0.317   1.291   9.368  0.1711 -0.9319 -0.5563
  179SLPC  H13R20461  -0.254   1.380   9.356 -2.4100  1.3226  1.3749
  179SLPC  C21420462  -0.436   1.284   9.280 -0.0514 -0.0414 -0.5212
  179SLPC  H14R20463  -0.449   1.385   9.236 -2.2556  0.0304  0.1755
  179SLPC  H14S20464  -0.511   1.283   9.362  2.7199  0.5162  2.2174
  179SLPC  C21520465  -0.459   1.169   9.186  0.0021 -0.1238  0.1193
  179SLPC  H15R20466  -0.499   1.094   9.258 -1.2795 -0.0820 -0.5182
  179SLPC  H15S20467  -0.363   1.139   9.139  0.6198  1.1665  0.5230
  179SLPC  C21620468  -0.563   1.200   9.078 -0.4575 -0.0019 -1.4908
  179SLPC  H16R20469  -0.646   1.249   9.134  0.5324 -1.1104  1.1343
  179SLPC  H16S20470  -0.602   1.103   9.042  0.0239 -0.7401 -0.0848
  179SLPC  C21720471  -0.501   1.275   8.965  0.2347 -0.0814  0.5096
  179SLPC  H17R20472  -0.428   1.206   8.918 -1.0146 -0.8319 -0.3755
  179SLPC  H17S20473  -0.443   1.365   8.995 -0.5439  0.5004  0.2977
  179SLPC  C21820474  -0.596   1.321   8.851  0.1317  0.4189  0.5981
  179SLPC  H18R20475  -0.623   1.232   8.790 -1.5912  0.6997  0.8961
  179SLPC  H18S20476  -0.544   1.390   8.782 -2.2539  2.1000  0.3532
  179SLPC  H18T20477  -0.690   1.363   8.892 -0.8256 -1.4208  0.4140
  179SLPC   C3320478   0.441   1.670   9.869  0.1869  0.0748 -0.1649
  179SLPC   H3X20479   0.529   1.618   9.827  0.0415  0.2920 -0.7469
  179SLPC   H3Y20480   0.482   1.717   9.961 -1.8361 -1.9669  1.9238
  179SLPC   C3420481   0.410   1.785   9.768 -0.4477  0.9377 -0.2972
  179SLPC   H4X20482   0.499   1.845   9.740 -0.7525  0.6791 -1.9212
  179SLPC   H4Y20483   0.333   1.858   9.801  0.6117  1.8807  0.1557
  179SLPC   C3520484   0.365   1.725   9.640 -0.3597  0.0828  0.2719
  179SLPC   H5X20485   0.255   1.711   9.646 -0.9263  2.3323 -2.6298
  179SLPC   H5Y20486   0.421   1.631   9.619 -0.8471  0.0671 -1.0197
  179SLPC   C3620487   0.391   1.825   9.522 -0.2580  0.4720 -0.1485
  179SLPC   H6X20488   0.499   1.847   9.530  0.2134 -1.7506  0.1970
  179SLPC   H6Y20489   0.334   1.919   9.537  3.7595  2.7976  2.1631
  179SLPC   C3720490   0.361   1.766   9.381  0.2224 -1.0915 -0.6926
  179SLPC   H7X20491   0.403   1.663   9.378 -0.3375 -1.3903  0.8214
  179SLPC   H7Y20492   0.417   1.824   9.305  1.9640  0.1756  1.4554
  179SLPC   C3820493   0.212   1.750   9.350  0.3826  0.6626  0.3077
  179SLPC   H8X20494   0.162   1.849   9.359  1.4772  1.2159  0.5220
  179SLPC   H8Y20495   0.163   1.672   9.412  0.8590  0.8133  0.8830
  179SLPC   C3920496   0.184   1.692   9.208  0.1112  0.4085  0.3298
  179SLPC   H9X20497   0.074   1.675   9.207 -0.2143  2.2293 -1.1617
  179SLPC   H9Y20498   0.245   1.599   9.202 -0.3301  0.2200 -2.2953
  179SLPC  C31020499   0.217   1.786   9.095 -0.3146  0.1312 -0.8931
  179SLPC  H10X20500   0.326   1.797   9.078  0.0057  0.7050  1.2689
  179SLPC  H10Y20501   0.184   1.883   9.137 -0.7744 -0.9310  1.3218
  179SLPC  C31120502   0.134   1.753   8.974  0.2223 -0.1881 -0.1814
  179SLPC  H11X20503   0.157   1.824   8.891  1.3251  0.1023  0.3542
  179SLPC  H11Y20504   0.025   1.763   8.988 -0.3213 -2.6506 -1.9727
  179SLPC  C31220505   0.164   1.607   8.921 -0.2925  0.4450 -0.2221
  179SLPC  H12X20506   0.129   1.594   8.816  0.3777  0.0758 -0.3997
  179SLPC  H12Y20507   0.118   1.531   8.988  3.1360 -0.9885  0.7228
  179SLPC  C31320508   0.318   1.562   8.903 -0.6204 -0.3680  0.1633
  179SLPC  H13X20509   0.364   1.533   9.000  3.0222  0.1783 -1.2414
  179SLPC  H13Y20510   0.371   1.656   8.877  0.3237 -0.9675 -0.1382
  179SLPC  C31420511   0.348   1.458   8.788  0.2804 -0.4673 -0.6714
  179SLPC  H14X20512   0.317   1.494   8.688  2.6319 -1.6188 -1.8949
  179SLPC  H14Y20513   0.294   1.363   8.811  0.5645 -0.3555  0.5401
  179SLPC  C31520514   0.495   1.426   8.759 -1.3459  0.5661  0.5629
  179SLPC  H15X20515   0.549   1.411   8.855  0.1407 -1.6122 -0.5304
  179SLPC  H15Y20516   0.542   1.514   8.709 -0.4346 -0.8747 -1.2488
  179SLPC  C31620517   0.519   1.300   8.675  0.0659  0.3966  0.1536
  179SLPC  H16X20518   0.452   1.299   8.586  0.3275  0.1153 -0.0399
  179SLPC  H16Y20519   0.499   1.207   8.732  1.9959 -0.9963 -1.3220
  179SLPC  C31720520   0.663   1.281   8.636  0.0647 -0.2089 -0.2269
  179SLPC  H17X20521   0.713   1.380   8.626 -1.1393  0.4092 -0.3009
  179SLPC  H17Y20522   0.668   1.210   8.550  1.3611 -1.9425  1.2081
  179SLPC  C31820523   0.750   1.220   8.751  0.1872  0.0457 -0.0444
  179SLPC  H18X20524   0.700   1.134   8.799  2.5130 -1.2900  0.1530
  179SLPC  H18Y20525   0.771   1.305   8.820  1.4939 -0.2084 -0.0983
  179SLPC  H18Z20526   0.847   1.187   8.708 -0.5340  1.0767 -2.6562
  180SLPC     N20527   6.437   6.757  10.887  0.5432  0.3876 -0.3246
  180SLPC   C1320528   6.326   6.804  10.969  0.2537 -1.0105 -0.9584
  180SLPC  H13A20529   6.266   6.723  11.008 -1.4654  0.9618  0.7341
  180SLPC  H13B20530   6.359   6.856  11.058 -0.2345 -0.2397 -1.2155
  180SLPC  H13C20531   6.249   6.861  10.919 -1.3663 -2.8373 -0.6452
  180SLPC   C1420532   6.389   6.653  10.788  0.1596 -0.0371  0.8479
  180SLPC  H14A20533   6.470   6.606  10.734 -1.0867  0.5198 -1.6304
  180SLPC  H14B20534   6.326   6.580  10.836 -1.4722  0.7400 -0.0335
  180SLPC  H14C20535   6.330   6.703  10.713  3.0962  1.8405 -0.4091
  180SLPC   C1520536   6.533   6.688  10.975  0.3215 -0.4284  0.4410
  180SLPC  H15A20537   6.628   6.665  10.929 -0.6983 -1.3997 -1.3409
  180SLPC  H15B20538   6.555   6.752  11.059 -0.8225  0.6337 -0.0242
  180SLPC  H15C20539   6.482   6.604  11.019 -0.0801  0.6842  2.1800
  180SLPC   C1220540   6.509   6.864  10.810  0.4700 -0.5063 -0.0279
  180SLPC  H12A20541   6.444   6.903  10.732  0.6078 -2.2922 -1.1019
  180SLPC  H12B20542   6.597   6.819  10.767  0.4601  0.1222 -0.7316
  180SLPC   C1120543   6.561   6.992  10.894 -0.8331 -0.4332 -0.5372
  180SLPC  H11A20544   6.480   7.041  10.953  1.2207  1.4917  0.8348
  180SLPC  H11B20545   6.600   7.064  10.819 -1.9104  0.2547 -0.4633
  180SLPC     P20546   6.809   6.944  10.935 -0.3242 -0.0253  0.7528
  180SLPC   O1320547   6.875   7.078  10.923 -0.0134 -0.4457  0.4707
  180SLPC   O1420548   6.880   6.848  11.021  0.5887 -0.4466  0.6243
  180SLPC   O1220549   6.660   6.958  10.992  0.1922  0.0720  0.4277
  180SLPC   O1120550   6.797   6.874  10.793  0.0217  0.2360 -0.2254
  180SLPC    C120551   6.921   6.814  10.740  0.3452  0.9250  0.1032
  180SLPC    HA20552   7.012   6.849  10.793  0.7063  0.1268  0.0196
  180SLPC    HB20553   6.917   6.703  10.748  0.5598  0.9137  0.0438
  180SLPC    C220554   6.953   6.849  10.592 -0.0685  0.1579  0.3960
  180SLPC    HS20555   7.043   6.786  10.576  0.3684  0.4838  1.4587
  180SLPC   O2120556   6.976   6.986  10.580 -0.4190  0.0619  0.4838
  180SLPC   C2120557   7.108   7.024  10.605 -0.6681  0.3960 -0.3973
  180SLPC   O2220558   7.192   6.951  10.650 -0.6869  0.3266  0.0729
  180SLPC   C2220559   7.129   7.165  10.561 -0.3324  0.2005  0.4102
  180SLPC   H2R20560   7.047   7.220  10.612  0.4668  1.2596  0.5996
  180SLPC   H2S20561   7.221   7.200  10.614 -0.3290 -0.1661  0.6508
  180SLPC    C320562   6.832   6.805  10.496 -0.0687 -0.1121  0.2016
  180SLPC    HX20563   6.748   6.876  10.517 -0.4125 -0.5874  0.4636
  180SLPC    HY20564   6.808   6.699  10.520  2.2939 -0.7517 -0.0696
  180SLPC   O3120565   6.866   6.834  10.359  0.1844 -0.0639 -0.0692
  180SLPC   C3120566   6.925   6.743  10.287 -0.5156 -0.4054  0.4110
  180SLPC   O3220567   6.932   6.622  10.307  0.2454 -0.0239  0.2461
  180SLPC   C3220568   6.992   6.821  10.166  0.0205 -0.0053  0.3523
  180SLPC   H2X20569   7.090   6.864  10.198 -0.9662  1.3847  1.6312
  180SLPC   H2Y20570   6.920   6.898  10.134 -1.3518 -2.3999 -2.8833
  180SLPC   C2320571   7.134   7.191  10.402  0.4816 -0.2306 -0.1543
  180SLPC   H3R20572   7.136   7.300  10.378  0.0800  0.0836  1.1630
  180SLPC   H3S20573   7.034   7.171  10.358  0.2926  1.6478 -0.6639
  180SLPC   C2420574   7.238   7.102  10.337 -0.3985  0.7503  0.4663
  180SLPC   H4R20575   7.219   6.995  10.358  0.7111  0.4730  0.1441
  180SLPC   H4S20576   7.335   7.124  10.387 -1.1044  0.7092  1.9227
  180SLPC   C2520577   7.251   7.119  10.178  0.6820  0.0944 -0.1168
  180SLPC   H5R20578   7.149   7.104  10.135 -0.3895  0.6163  2.1016
  180SLPC   H5S20579   7.328   7.050  10.138  2.3733  1.9121 -0.1370
  180SLPC   C2620580   7.304   7.253  10.128 -0.3251  1.1420 -0.4552
  180SLPC   H6R20581   7.406   7.262  10.169  0.1056 -0.8506 -0.9816
  180SLPC   H6S20582   7.238   7.327  10.179 -0.1045 -0.8434  3.0348
  180SLPC   C2720583   7.326   7.248   9.975 -0.1301  0.0650  0.0894
  180SLPC   H7R20584   7.244   7.208   9.911  2.4446 -0.2531 -3.3194
  180SLPC   H7S20585   7.415   7.185   9.953  0.0742 -0.6934  2.7532
  180SLPC   C2820586   7.367   7.381   9.912  0.1549 -0.1759 -0.6697
  180SLPC   H8R20587   7.418   7.366   9.815  1.1764  0.1800 -0.2069
  180SLPC   H8S20588   7.447   7.424   9.976  0.7505 -2.0273 -0.1045
  180SLPC   C2920589   7.253   7.487   9.904  0.0564  0.4641 -0.0019
  180SLPC   H9R20590   7.236   7.535  10.002 -2.6205  0.0404 -0.1756
  180SLPC  C21020591   7.171   7.508   9.800  0.6023  0.3081  0.1228
  180SLPC  H10R20592   7.121   7.605   9.807 -3.6310 -1.5603 -1.2009
  180SLPC  C21120593   7.176   7.435   9.668  0.0354  0.3156  0.2664
  180SLPC  H11R20594   7.075   7.394   9.645 -0.5145  1.2424  0.9286
  180SLPC  H11S20595   7.233   7.340   9.678 -3.3533 -1.7067  2.8433
  180SLPC  C21220596   7.221   7.528   9.558 -0.3224 -0.2360  0.4068
  180SLPC  H12R20597   7.175   7.628   9.553 -0.9548 -0.5581 -3.6420
  180SLPC  C21320598   7.306   7.500   9.461  0.1449  0.1108  0.0162
  180SLPC  H13R20599   7.356   7.585   9.411  0.5802 -0.1376  0.0255
  180SLPC  C21420600   7.374   7.371   9.448 -0.3401  0.2502  0.6015
  180SLPC  H14R20601   7.344   7.290   9.519 -0.3180 -0.7928 -0.5489
  180SLPC  H14S20602   7.484   7.373   9.458 -0.4787 -0.2144  2.9248
  180SLPC  C21520603   7.356   7.302   9.307  0.9140 -0.3952  0.5558
  180SLPC  H15R20604   7.394   7.372   9.229 -1.2501  0.8518  0.5309
  180SLPC  H15S20605   7.246   7.305   9.294  0.9306  0.5515  0.5753
  180SLPC  C21620606   7.416   7.159   9.299  0.0327  0.1462 -0.1860
  180SLPC  H16R20607   7.386   7.139   9.194 -2.8856 -0.6861  0.7166
  180SLPC  H16S20608   7.369   7.089   9.371 -1.1009  3.8739  3.0791
  180SLPC  C21720609   7.564   7.132   9.312  0.2706  0.3779 -0.1624
  180SLPC  H17R20610   7.609   7.176   9.403  0.4344 -0.2667  0.0731
  180SLPC  H17S20611   7.618   7.186   9.230  0.2657  3.0488  1.4858
  180SLPC  C21820612   7.616   6.988   9.292  0.1151 -0.5722 -0.0015
  180SLPC  H18R20613   7.726   6.982   9.283  0.2516 -1.4320  1.7851
  180SLPC  H18S20614   7.573   6.933   9.205  3.6114 -2.4236 -0.7310
  180SLPC  H18T20615   7.593   6.937   9.388 -1.3616  2.9225  1.6653
  180SLPC   C3320616   7.021   6.718  10.041  0.2011 -0.1457  0.6209
  180SLPC   H3X20617   6.920   6.679  10.014 -0.5480  2.5158 -0.6989
  180SLPC   H3Y20618   7.097   6.646  10.079  0.3298 -0.2746  0.1287
  180SLPC   C3420619   7.072   6.787   9.914 -0.0007  0.1699 -0.0499
  180SLPC   H4X20620   7.050   6.718   9.829  0.8393 -1.8256  1.2529
  180SLPC   H4Y20621   7.181   6.806   9.923 -0.2190  0.6504  1.8815
  180SLPC   C3520622   7.009   6.922   9.874  0.4095 -0.2205  0.1602
  180SLPC   H5X20623   7.032   6.991   9.958 -1.2268 -0.3799  0.7868
  180SLPC   H5Y20624   6.898   6.920   9.878  0.3984 -1.9396 -0.1926
  180SLPC   C3620625   7.051   6.984   9.737 -0.1565  0.0665  0.0147
  180SLPC   H6X20626   7.151   7.033   9.743  0.1947 -0.2060 -2.6593
  180SLPC   H6Y20627   6.979   7.067   9.722 -0.3481 -0.2016 -0.5551
  180SLPC   C3720628   7.029   6.895   9.613 -0.3978  0.7353 -0.3601
  180SLPC   H7X20629   6.935   6.835   9.620  1.6196 -2.6043  0.1298
  180SLPC   H7Y20630   7.100   6.811   9.620 -4.4830 -3.0345  0.4089
  180SLPC   C3820631   7.019   6.967   9.472  0.1615  0.1474  0.0092
  180SLPC   H8X20632   7.080   7.059   9.469 -1.3594  1.2396  0.8561
  180SLPC   H8Y20633   6.915   7.004   9.460 -0.5176 -1.5242  0.3912
  180SLPC   C3920634   7.037   6.880   9.349  0.1251  0.5468  0.2529
  180SLPC   H9X20635   6.978   6.788   9.368  0.8699 -0.1840 -0.8139
  180SLPC   H9Y20636   7.141   6.844   9.328  0.0449  2.2425 -4.1104
  180SLPC  C31020637   6.997   6.949   9.216  0.4424  0.4521 -0.0523
  180SLPC  H10X20638   7.051   7.044   9.194 -1.7259  1.1681 -2.8023
  180SLPC  H10Y20639   6.892   6.975   9.242  0.2584 -0.5769  0.2816
  180SLPC  C31120640   6.984   6.847   9.098 -0.6462 -0.3608  0.8779
  180SLPC  H11X20641   6.904   6.881   9.029 -0.4740  0.0976  0.9019
  180SLPC  H11Y20642   6.962   6.742   9.127 -2.7624  0.1540  1.2988
  180SLPC  C31220643   7.103   6.854   8.996 -0.2150 -0.4530  0.6273
  180SLPC  H12X20644   7.100   6.959   8.958  2.2229 -0.6378 -0.2839
  180SLPC  H12Y20645   7.101   6.779   8.915  2.5529  0.7250 -0.6853
  180SLPC  C31320646   7.239   6.837   9.056  0.7278  0.4319 -0.0524
  180SLPC  H13X20647   7.241   6.758   9.134 -0.2793  0.0975 -0.3425
  180SLPC  H13Y20648   7.267   6.927   9.114 -1.3666 -0.3003  2.2768
  180SLPC  C31420649   7.358   6.803   8.964 -0.0826 -0.4311 -0.2736
  180SLPC  H14X20650   7.341   6.699   8.928 -3.2818  0.1016 -0.6591
  180SLPC  H14Y20651   7.448   6.802   9.029 -1.5824 -0.6206  1.8995
  180SLPC  C31520652   7.395   6.911   8.862 -0.0624  0.1959  0.4212
  180SLPC  H15X20653   7.333   6.909   8.770 -0.2767  1.8195  0.5004
  180SLPC  H15Y20654   7.495   6.881   8.824 -0.1331 -0.7094  0.9133
  180SLPC  C31620655   7.396   7.061   8.916 -1.2906  0.1885 -0.4309
  180SLPC  H16X20656   7.481   7.080   8.984 -2.5409  1.4802  0.8302
  180SLPC  H16Y20657   7.304   7.089   8.973  0.1933  0.2511  2.0809
  180SLPC  C31720658   7.420   7.153   8.793  0.7360  0.0154  0.1833
  180SLPC  H17X20659   7.501   7.110   8.731  0.1449 -1.9015  0.6587
  180SLPC  H17Y20660   7.457   7.249   8.834  1.5410 -0.7247  1.2263
  180SLPC  C31820661   7.294   7.166   8.699 -0.7559  0.1599  0.3274
  180SLPC  H18X20662   7.307   7.242   8.619  0.5433  0.3733  0.7206
  180SLPC  H18Y20663   7.207   7.187   8.764  0.3927  1.8654  1.3801
  180SLPC  H18Z20664   7.277   7.071   8.643  2.0989  0.4866 -1.2716
  181SLPC     N20665   4.963   3.218  11.288  0.3262 -0.1839  0.0543
  181SLPC   C1320666   4.845   3.134  11.304  0.3083 -0.3147 -0.3185
  181SLPC  H13A20667   4.839   3.078  11.397  0.5347  0.0520 -0.0801
  181SLPC  H13B20668   4.752   3.190  11.311  2.3057  3.2522  0.0393
  181SLPC  H13C20669   4.840   3.063  11.223 -0.2182  0.6729 -1.1803
  181SLPC   C1420670   5.085   3.136  11.294  0.6860 -0.6710  0.5105
  181SLPC  H14A20671   5.085   3.068  11.377 -2.3056 -0.4976  0.7416
  181SLPC  H14B20672   5.099   3.077  11.204  0.4597  1.2149 -0.8303
  181SLPC  H14C20673   5.170   3.202  11.303 -1.4060  2.6695 -1.8239
  181SLPC   C1520674   4.965   3.306  11.409 -0.4481 -0.2293 -0.8345
  181SLPC  H15A20675   4.979   3.247  11.498 -2.3569  0.0314 -0.3299
  181SLPC  H15B20676   5.045   3.378  11.402  1.8783 -2.2874  1.9614
  181SLPC  H15C20677   4.871   3.358  11.416  0.1589  0.7593  0.2928
  181SLPC   C1220678   4.954   3.297  11.161 -0.8534  0.2035  0.1939
  181SLPC  H12A20679   4.989   3.238  11.078 -1.8480  2.1525 -1.7270
  181SLPC  H12B20680   5.026   3.377  11.163  0.0205 -0.4980 -1.3575
  181SLPC   C1120681   4.821   3.356  11.113  0.5145  0.4626 -0.6577
  181SLPC  H11A20682   4.746   3.273  11.119 -0.7726  1.5900 -0.7294
  181SLPC  H11B20683   4.841   3.394  11.010  0.3878  1.1388 -0.4360
  181SLPC     P20684   4.830   3.605  11.192 -0.2924 -0.3054 -0.0495
  181SLPC   O1320685   4.759   3.696  11.283  0.1967  0.5184  0.0778
  181SLPC   O1420686   4.979   3.625  11.214  0.3294 -0.4386  0.1231
  181SLPC   O1220687   4.780   3.456  11.209 -0.8094 -0.2740  0.0365
  181SLPC   O1120688   4.797   3.642  11.035 -0.0240  0.6043 -0.4524
  181SLPC    C120689   4.668   3.690  10.997  0.1808  0.3743  0.1271
  181SLPC    HA20690   4.606   3.724  11.083 -0.7915 -0.9936 -0.0012
  181SLPC    HB20691   4.686   3.780  10.934 -0.8259  0.9015  0.5719
  181SLPC    C220692   4.590   3.575  10.927 -0.0840 -0.2230  0.1861
  181SLPC    HS20693   4.618   3.481  10.981  1.9799 -0.0379 -0.4842
  181SLPC   O2120694   4.631   3.579  10.789  0.2193 -0.0884 -0.4327
  181SLPC   C2120695   4.620   3.470  10.718 -0.2434 -0.2311 -0.1574
  181SLPC   O2220696   4.625   3.356  10.762 -0.2586 -0.1127 -0.2209
  181SLPC   C2220697   4.626   3.503  10.573  0.2853 -0.2922  0.1325
  181SLPC   H2R20698   4.554   3.586  10.562 -0.8599 -1.3736 -0.8014
  181SLPC   H2S20699   4.730   3.534  10.549  0.9866 -1.3162  1.6233
  181SLPC    C320700   4.434   3.587  10.932  1.0930  0.1646  0.0193
  181SLPC    HX20701   4.402   3.600  11.038  1.1142 -1.1272  0.1943
  181SLPC    HY20702   4.394   3.497  10.882  0.9143 -0.0863  0.6127
  181SLPC   O3120703   4.386   3.705  10.865  0.4555  0.0208 -0.9461
  181SLPC   C3120704   4.361   3.698  10.733 -0.1424 -0.2991  0.3262
  181SLPC   O3220705   4.346   3.597  10.662  1.3559 -0.0229  0.6244
  181SLPC   C3220706   4.346   3.839  10.685 -0.0656 -0.4328  0.2544
  181SLPC   H2X20707   4.401   3.904  10.757  2.0011 -1.8465  0.0568
  181SLPC   H2Y20708   4.239   3.866  10.689 -0.1930 -0.9765  0.8098
  181SLPC   C2320709   4.570   3.385  10.481 -0.3665 -0.4122  0.1102
  181SLPC   H3R20710   4.495   3.315  10.524 -2.9102  1.6899 -0.6419
  181SLPC   H3S20711   4.653   3.320  10.445  0.3534  1.5306 -1.9710
  181SLPC   C2420712   4.496   3.445  10.354  0.3497 -0.9122 -1.0036
  181SLPC   H4R20713   4.573   3.503  10.299  0.9769  0.7804  1.5103
  181SLPC   H4S20714   4.417   3.512  10.391  2.6888  2.2798 -1.3789
  181SLPC   C2520715   4.419   3.341  10.269 -0.5618  0.2976 -0.2970
  181SLPC   H5R20716   4.360   3.278  10.339  0.0582  0.1226  0.0787
  181SLPC   H5S20717   4.487   3.283  10.203 -1.4321 -0.0542 -0.9072
  181SLPC   C2620718   4.321   3.410  10.181  0.4043  0.1607  0.8765
  181SLPC   H6R20719   4.374   3.489  10.124  1.2867 -1.6917 -1.0150
  181SLPC   H6S20720   4.245   3.455  10.249  0.0516 -1.4378  1.5874
  181SLPC   C2720721   4.244   3.319  10.080 -0.7460  0.3335 -0.3451
  181SLPC   H7R20722   4.183   3.249  10.140 -1.7858  2.3611  1.1080
  181SLPC   H7S20723   4.320   3.267  10.018 -1.1672  1.0613 -1.4907
  181SLPC   C2820724   4.145   3.392   9.984 -0.6197 -0.2391  0.0045
  181SLPC   H8R20725   4.197   3.459   9.913 -1.4086  0.5947  0.2056
  181SLPC   H8S20726   4.085   3.463  10.044 -0.2042  0.4750 -0.4124
  181SLPC   C2920727   4.061   3.292   9.911  0.2753  0.2302 -0.5890
  181SLPC   H9R20728   4.015   3.222   9.983  2.4901 -0.2041  0.5056
  181SLPC  C21020729   4.050   3.259   9.782  0.2576  0.3551  0.1045
  181SLPC  H10R20730   3.984   3.178   9.745 -0.2547  0.3643  0.9466
  181SLPC  C21120731   4.122   3.326   9.665  0.4973 -0.4929 -0.1035
  181SLPC  H11R20732   4.185   3.412   9.695 -0.7127 -0.2104  1.7768
  181SLPC  H11S20733   4.043   3.360   9.594  1.0281  0.0938 -0.4240
  181SLPC  C21220734   4.223   3.229   9.610  0.0924  0.2000 -0.2682
  181SLPC  H12R20735   4.190   3.130   9.575  0.0179 -0.1803  0.8416
  181SLPC  C21320736   4.356   3.238   9.598  0.2291 -0.1844 -0.1657
  181SLPC  H13R20737   4.411   3.148   9.564  1.3282  0.8843 -1.3700
  181SLPC  C21420738   4.451   3.354   9.637  0.0177  0.4701  0.1567
  181SLPC  H14R20739   4.557   3.321   9.642 -0.5666 -1.4729  1.0473
  181SLPC  H14S20740   4.432   3.380   9.744  1.5003 -0.9270  0.8074
  181SLPC  C21520741   4.423   3.479   9.550 -0.2364 -0.4307  0.9953
  181SLPC  H15R20742   4.315   3.502   9.535  0.0210  0.9535  1.1546
  181SLPC  H15S20743   4.456   3.448   9.449  0.1401  0.4896  0.8263
  181SLPC  C21620744   4.529   3.590   9.585 -0.2223  0.0863  0.3127
  181SLPC  H16R20745   4.618   3.527   9.606 -1.1401 -1.8095 -1.1763
  181SLPC  H16S20746   4.503   3.646   9.677  1.5299  1.0780  0.2562
  181SLPC  C21720747   4.543   3.689   9.467 -0.9526  0.5404 -0.3272
  181SLPC  H17R20748   4.446   3.711   9.418 -0.1287  0.2227 -2.1919
  181SLPC  H17S20749   4.611   3.657   9.385 -0.8871 -0.8927  0.2661
  181SLPC  C21820750   4.588   3.826   9.516  0.5762 -0.4095  0.1821
  181SLPC  H18R20751   4.511   3.871   9.582  1.3920  1.0143  0.2115
  181SLPC  H18S20752   4.596   3.891   9.426  1.5975 -1.4417 -0.4892
  181SLPC  H18T20753   4.675   3.814   9.584  0.8438 -0.7363 -0.2186
  181SLPC   C3320754   4.385   3.851  10.532 -0.8535  0.2279  0.1128
  181SLPC   H3X20755   4.485   3.804  10.524 -0.7179  0.4328  0.5850
  181SLPC   H3Y20756   4.394   3.956  10.497 -0.4472  0.4271  0.8012
  181SLPC   C3420757   4.281   3.789  10.435 -0.0531  0.2024 -0.1637
  181SLPC   H4X20758   4.185   3.845  10.443 -0.6078 -0.8703  1.1229
  181SLPC   H4Y20759   4.260   3.681  10.451  2.0881 -0.1483  0.5410
  181SLPC   C3520760   4.317   3.786  10.285  0.0359 -0.2424 -0.0148
  181SLPC   H5X20761   4.381   3.698  10.261  0.7634 -0.1859  1.6023
  181SLPC   H5Y20762   4.377   3.876  10.260  2.1444 -1.7989 -0.8983
  181SLPC   C3620763   4.197   3.801  10.187  0.2165  0.6075  0.1325
  181SLPC   H6X20764   4.111   3.859  10.226  1.9055  3.0589  0.4424
  181SLPC   H6Y20765   4.151   3.701  10.174  3.1330 -0.9781  1.1177
  181SLPC   C3720766   4.224   3.847  10.047  0.1498 -0.6531  0.0154
  181SLPC   H7X20767   4.301   3.780  10.002  1.4602  1.3909 -0.9117
  181SLPC   H7Y20768   4.271   3.947  10.055 -2.7082  0.6789  1.7223
  181SLPC   C3820769   4.093   3.864   9.962 -0.5212 -0.3506  0.1319
  181SLPC   H8X20770   4.025   3.935  10.012 -0.9615 -1.0196  0.5057
  181SLPC   H8Y20771   4.046   3.763   9.972 -2.6039  0.4586 -0.7360
  181SLPC   C3920772   4.103   3.886   9.814 -0.0121 -0.3529  0.7076
  181SLPC   H9X20773   4.129   3.993   9.797 -1.2023 -0.2433 -0.7015
  181SLPC   H9Y20774   4.002   3.871   9.770  0.8119  1.1023 -1.9374
  181SLPC  C31020775   4.206   3.791   9.742  0.1778 -0.5245 -0.4339
  181SLPC  H10X20776   4.171   3.688   9.763 -0.4304 -0.2185  0.1049
  181SLPC  H10Y20777   4.306   3.772   9.784  0.1023 -1.0609 -0.4932
  181SLPC  C31120778   4.200   3.810   9.582  0.1571 -0.9134  0.2218
  181SLPC  H11X20779   4.264   3.733   9.534  0.2171 -1.3115  0.9340
  181SLPC  H11Y20780   4.218   3.915   9.549 -2.2748 -0.3370  0.5528
  181SLPC  C31220781   4.063   3.771   9.524 -0.2847 -0.6422  0.6256
  181SLPC  H12X20782   3.982   3.824   9.579  0.5520  1.1298  0.2264
  181SLPC  H12Y20783   4.052   3.660   9.519  1.7533 -0.9907  2.3178
  181SLPC  C31320784   4.047   3.834   9.382  0.5337  0.0368 -0.7187
  181SLPC  H13X20785   4.072   3.940   9.399  0.4315  0.3237 -2.2158
  181SLPC  H13Y20786   3.942   3.815   9.349 -0.2401 -0.6111  1.8458
  181SLPC  C31420787   4.149   3.785   9.280 -0.2878  0.4196 -0.0834
  181SLPC  H14X20788   4.153   3.674   9.277 -3.6847  0.1185  1.8818
  181SLPC  H14Y20789   4.246   3.815   9.325  0.4236 -0.3965 -1.0453
  181SLPC  C31520790   4.127   3.849   9.135  0.1281 -0.2352 -0.0322
  181SLPC  H15X20791   4.214   3.814   9.076  0.0817 -0.4297  0.0148
  181SLPC  H15Y20792   4.118   3.960   9.141  1.6045 -0.1208  0.5498
  181SLPC  C31620793   4.004   3.780   9.067  0.4731 -0.5766  0.0688
  181SLPC  H16X20794   3.910   3.796   9.123  1.0811  2.1897  0.3994
  181SLPC  H16Y20795   4.023   3.670   9.059  1.1798 -0.4270 -0.4245
  181SLPC  C31720796   3.993   3.806   8.917 -0.8106 -0.1684  0.7033
  181SLPC  H17X20797   4.092   3.792   8.868 -0.8428 -1.0905  0.8781
  181SLPC  H17Y20798   3.949   3.907   8.901 -0.0090  0.3563  1.7235
  181SLPC  C31820799   3.910   3.687   8.859 -0.4775 -0.1635  0.8893
  181SLPC  H18X20800   3.882   3.711   8.755  0.0927 -2.0306  0.2601
  181SLPC  H18Y20801   3.832   3.672   8.937 -1.0352  1.9561  0.7841
  181SLPC  H18Z20802   3.973   3.595   8.853 -0.3632 -0.1343  1.5130
  182SLPC     N20803   2.984   4.181  11.229 -0.4986 -0.0668 -0.2531
  182SLPC   C1320804   2.874   4.252  11.157 -0.5785  0.7471 -0.5881
  182SLPC  H13A20805   2.848   4.342  11.212  1.0719 -0.0758  1.6670
  182SLPC  H13B20806   2.911   4.275  11.058  0.6456 -0.3420 -0.3974
  182SLPC  H13C20807   2.790   4.185  11.145 -1.2535  1.5716 -0.5726
  182SLPC   C1420808   2.939   4.133  11.370  0.0923 -0.3726  0.5504
  182SLPC  H14A20809   2.893   4.219  11.417 -2.0054 -0.9819 -0.2938
  182SLPC  H14B20810   2.870   4.050  11.367  0.5234 -0.7948  1.7765
  182SLPC  H14C20811   3.030   4.114  11.425  1.0439 -0.5346 -0.9975
  182SLPC   C1520812   3.096   4.284  11.251 -0.0529  0.3671  0.4965
  182SLPC  H15A20813   3.062   4.364  11.315  0.1340  3.1107 -2.5589
  182SLPC  H15B20814   3.185   4.235  11.288 -0.9549 -0.9563  1.0023
  182SLPC  H15C20815   3.137   4.324  11.159  0.0307  0.4082  0.5514
  182SLPC   C1220816   3.024   4.064  11.155 -0.5602 -0.4501 -0.2750
  182SLPC  H12A20817   2.932   4.013  11.130 -0.1378  0.1218 -3.4197
  182SLPC  H12B20818   3.087   4.009  11.224 -1.7275 -1.2414  0.2060
  182SLPC   C1120819   3.098   4.088  11.029 -0.5558 -0.4949 -0.4518
  182SLPC  H11A20820   3.186   4.152  11.051 -0.6221 -1.0471  1.5911
  182SLPC  H11B20821   3.045   4.142  10.948  1.3939  1.5528 -0.4691
  182SLPC     P20822   3.261   3.879  11.035  0.3910  0.0628 -0.2508
  182SLPC   O1320823   3.266   3.886  11.184  0.0285  0.6712 -0.2521
  182SLPC   O1420824   3.252   3.744  10.976  0.1159  0.2958 -0.0152
  182SLPC   O1220825   3.143   3.969  10.977 -0.2652  0.6452  0.2156
  182SLPC   O1120826   3.398   3.949  10.980  0.2524  0.0039 -0.2310
  182SLPC    C120827   3.422   3.959  10.840 -0.1522  0.1504 -0.1915
  182SLPC    HA20828   3.511   3.895  10.822 -0.5175 -0.3683 -0.1767
  182SLPC    HB20829   3.343   3.913  10.777  0.9598 -1.8278 -0.2491
  182SLPC    C220830   3.461   4.103  10.801  0.0461 -0.5455 -0.0328
  182SLPC    HS20831   3.524   4.160  10.872 -1.8862  0.2288  1.1488
  182SLPC   O2120832   3.344   4.175  10.764 -0.0041 -0.1654 -0.5216
  182SLPC   C2120833   3.365   4.300  10.765  0.5063 -0.0487 -0.2280
  182SLPC   O2220834   3.469   4.356  10.778  0.8564  0.1341 -0.0815
  182SLPC   C2220835   3.234   4.365  10.761  0.3712  0.2084 -0.4220
  182SLPC   H2R20836   3.157   4.285  10.752  1.2660 -1.1521  2.6203
  182SLPC   H2S20837   3.230   4.428  10.853  1.5722 -0.1227 -0.1283
  182SLPC    C320838   3.546   4.081  10.670  0.4214 -0.0057  0.8817
  182SLPC    HX20839   3.632   4.018  10.702  2.2629  1.6584 -0.5432
  182SLPC    HY20840   3.589   4.179  10.640 -0.4074  0.6963  1.9094
  182SLPC   O3120841   3.479   4.014  10.558 -0.1196 -0.0292  0.0375
  182SLPC   C3120842   3.555   3.940  10.475 -0.2664  0.4432  1.2932
  182SLPC   O3220843   3.675   3.919  10.489  0.0887 -0.1120  0.2094
  182SLPC   C3220844   3.466   3.890  10.361 -0.4658 -0.3119 -0.1068
  182SLPC   H2X20845   3.421   3.977  10.308  0.2973  1.5496  2.1449
  182SLPC   H2Y20846   3.376   3.839  10.399 -0.5500 -0.4514 -0.4854
  182SLPC   C2320847   3.225   4.467  10.640  0.3579  0.1295 -0.3796
  182SLPC   H3R20848   3.305   4.543  10.653 -0.7644  2.1299 -3.7417
  182SLPC   H3S20849   3.128   4.516  10.664 -0.9805 -2.2419 -0.6657
  182SLPC   C2420850   3.238   4.393  10.505 -0.3332 -0.8407 -0.1145
  182SLPC   H4R20851   3.141   4.343  10.482 -1.6812  0.8022  1.6117
  182SLPC   H4S20852   3.330   4.331  10.501 -0.3929 -0.8775 -1.3452
  182SLPC   C2520853   3.248   4.498  10.400 -0.5875  0.0373 -0.0730
  182SLPC   H5R20854   3.331   4.568  10.422 -0.3926 -0.7191  1.8125
  182SLPC   H5S20855   3.162   4.567  10.413  0.3248  1.1206  0.3899
  182SLPC   C2620856   3.255   4.435  10.260  0.4066 -0.6880  0.4694
  182SLPC   H6R20857   3.253   4.515  10.183 -3.2711 -2.1328 -1.2176
  182SLPC   H6S20858   3.167   4.371  10.235  0.8043 -1.2341  0.4456
  182SLPC   C2720859   3.372   4.350  10.244  0.6356  0.1430 -0.1397
  182SLPC   H7R20860   3.368   4.264  10.314  1.7191  0.9222  0.9203
  182SLPC   H7S20861   3.462   4.404  10.281  1.2282 -0.1214 -1.1469
  182SLPC   C2820862   3.399   4.300  10.100  0.8461  0.0676 -0.2799
  182SLPC   H8R20863   3.301   4.272  10.055  0.5438  2.1599 -1.0315
  182SLPC   H8S20864   3.456   4.205  10.115 -0.0214 -0.1721  1.8706
  182SLPC   C2920865   3.456   4.399  10.001 -0.4421 -0.1237  0.4183
  182SLPC   H9R20866   3.417   4.502  10.006 -1.0190 -0.2236 -1.5168
  182SLPC  C21020867   3.555   4.372   9.916  0.3581 -0.0965  0.2929
  182SLPC  H10R20868   3.580   4.458   9.853  0.5910 -0.2986  0.1051
  182SLPC  C21120869   3.633   4.245   9.887  0.0236 -0.3838 -0.3637
  182SLPC  H11R20870   3.690   4.226   9.981 -3.1223 -1.1834  1.5177
  182SLPC  H11S20871   3.707   4.272   9.809 -0.5498  0.1014 -0.7493
  182SLPC  C21220872   3.554   4.122   9.846 -0.0134 -0.2950  0.3294
  182SLPC  H12R20873   3.518   4.050   9.922  0.9835 -0.6043  0.5162
  182SLPC  C21320874   3.515   4.102   9.716 -0.1941  0.3334  0.5623
  182SLPC  H13R20875   3.462   4.006   9.705  1.5950 -0.7732  1.2255
  182SLPC  C21420876   3.544   4.188   9.596  0.6512 -0.1417 -0.0508
  182SLPC  H14R20877   3.553   4.127   9.504 -1.5767  1.4713 -1.4378
  182SLPC  H14S20878   3.628   4.260   9.608 -0.1283  0.5282  1.6764
  182SLPC  C21520879   3.416   4.276   9.579 -0.3327 -0.0104 -0.0619
  182SLPC  H15R20880   3.389   4.355   9.653 -2.4358  0.9953 -1.7688
  182SLPC  H15S20881   3.322   4.217   9.581 -1.8398  2.2437  1.1146
  182SLPC  C21620882   3.414   4.347   9.447 -0.4200 -0.4187 -0.3872
  182SLPC  H16R20883   3.404   4.282   9.358  1.1446  0.1753 -1.0328
  182SLPC  H16S20884   3.514   4.394   9.440 -0.8868  0.7032  0.2421
  182SLPC  C21720885   3.311   4.449   9.431 -0.8067  0.0355 -0.2453
  182SLPC  H17R20886   3.314   4.505   9.527  3.4725 -0.7746  0.2947
  182SLPC  H17S20887   3.208   4.408   9.425 -1.1974  0.5875  1.7735
  182SLPC  C21820888   3.342   4.558   9.325 -0.0806 -0.1431 -0.3475
  182SLPC  H18R20889   3.357   4.508   9.226  1.7688 -2.1494  0.8533
  182SLPC  H18S20890   3.416   4.637   9.352 -0.6298  0.6298 -1.0327
  182SLPC  H18T20891   3.250   4.619   9.317  0.6482  0.7718 -3.2257
  182SLPC   C3320892   3.539   3.793  10.263 -0.4216 -1.2096  0.8933
  182SLPC   H3X20893   3.461   3.747  10.199  0.1836 -2.2305  0.8715
  182SLPC   H3Y20894   3.595   3.709  10.310  1.2467 -0.8894 -0.4551
  182SLPC   C3420895   3.635   3.866  10.162 -0.2654 -0.1530 -0.5612
  182SLPC   H4X20896   3.733   3.879  10.214 -0.6801 -2.3129  0.8943
  182SLPC   H4Y20897   3.596   3.970  10.154 -0.7408 -0.2156  0.6884
  182SLPC   C3520898   3.650   3.800  10.026  0.5769  0.1201 -0.3592
  182SLPC   H5X20899   3.731   3.852   9.971 -0.1400  1.9099  0.1995
  182SLPC   H5Y20900   3.556   3.815   9.969 -0.5475 -2.1992  0.7217
  182SLPC   C3620901   3.689   3.655  10.036 -0.4265  1.2511 -0.4689
  182SLPC   H6X20902   3.601   3.591  10.058  0.2055  0.9342  1.3014
  182SLPC   H6Y20903   3.759   3.639  10.121 -0.4223 -1.6664 -0.9149
  182SLPC   C3720904   3.766   3.612   9.908  0.6315  0.4809 -0.2161
  182SLPC   H7X20905   3.787   3.503   9.910 -1.7617 -0.0384  2.2822
  182SLPC   H7Y20906   3.861   3.667   9.895  0.7103  0.6741  1.0688
  182SLPC   C3820907   3.678   3.623   9.779  0.6085 -0.1119  0.0814
  182SLPC   H8X20908   3.637   3.726   9.777  1.4457  0.4287  3.8184
  182SLPC   H8Y20909   3.591   3.554   9.787  1.3434 -0.9310  1.3089
  182SLPC   C3920910   3.756   3.593   9.651  0.0538  1.1550  0.0065
  182SLPC   H9X20911   3.818   3.510   9.691 -0.7392  0.4958 -0.0929
  182SLPC   H9Y20912   3.836   3.665   9.626 -0.6874  2.4668  1.2490
  182SLPC  C31020913   3.666   3.537   9.540 -0.2321  0.3282 -0.1692
  182SLPC  H10X20914   3.596   3.612   9.499 -0.1313  1.5983  1.8730
  182SLPC  H10Y20915   3.606   3.464   9.598  0.1287  0.9666  1.0366
  182SLPC  C31120916   3.737   3.454   9.436 -0.6693 -1.2460  0.7207
  182SLPC  H11X20917   3.653   3.407   9.380 -2.6614  2.8867 -0.1514
  182SLPC  H11Y20918   3.810   3.383   9.481  1.7330  0.6375 -0.0551
  182SLPC  C31220919   3.807   3.535   9.329  0.4497  0.2273  0.1661
  182SLPC  H12X20920   3.907   3.573   9.358  0.3162  2.5633 -2.1093
  182SLPC  H12Y20921   3.742   3.624   9.313 -2.9803 -2.3489 -1.8828
  182SLPC  C31320922   3.828   3.466   9.200  0.1110 -0.0430  1.3849
  182SLPC  H13X20923   3.857   3.538   9.121  0.6792  0.1135  1.7273
  182SLPC  H13Y20924   3.734   3.420   9.161  0.8502 -0.2477 -0.2456
  182SLPC  C31420925   3.923   3.342   9.187  0.3601  0.3470 -0.2484
  182SLPC  H14X20926   3.871   3.269   9.120  0.0098  0.7321 -0.4018
  182SLPC  H14Y20927   3.910   3.295   9.287 -2.9576  1.6151  0.0575
  182SLPC  C31520928   4.067   3.371   9.161 -0.0948 -0.5869  0.6709
  182SLPC  H15X20929   4.103   3.464   9.209  1.9954  0.3548 -2.4191
  182SLPC  H15Y20930   4.074   3.390   9.052  0.0454 -1.8701  0.4366
  182SLPC  C31620931   4.148   3.249   9.206  0.1093  0.1121  0.5865
  182SLPC  H16X20932   4.098   3.160   9.162 -1.0935  0.8034  0.5190
  182SLPC  H16Y20933   4.149   3.232   9.316 -0.7487 -1.9107  0.3145
  182SLPC  C31720934   4.295   3.252   9.153 -0.1314  0.3579  0.6249
  182SLPC  H17X20935   4.350   3.306   9.233 -1.2400 -0.2940  1.8594
  182SLPC  H17Y20936   4.310   3.300   9.053  0.8164 -0.4099  0.3901
  182SLPC  C31820937   4.351   3.114   9.151 -0.0794 -0.2527  0.0429
  182SLPC  H18X20938   4.343   3.082   9.044  1.6634 -0.7577  0.0315
  182SLPC  H18Y20939   4.310   3.045   9.228  0.3493  0.6367  1.0942
  182SLPC  H18Z20940   4.457   3.118   9.183 -0.5680 -0.2054  1.7390
  183SLPC     N20941   4.993   5.522  11.242  0.0576  0.1317  0.0562
  183SLPC   C1320942   5.020   5.520  11.091 -0.2013  0.4813  0.3181
  183SLPC  H13A20943   5.112   5.573  11.070 -0.0376  0.3605  0.7333
  183SLPC  H13B20944   5.037   5.424  11.044  1.1674  0.8028  0.1005
  183SLPC  H13C20945   4.936   5.568  11.042  0.4370  0.6901 -0.6014
  183SLPC   C1420946   5.108   5.443  11.306 -0.2262 -0.1671  0.1806
  183SLPC  H14A20947   5.114   5.351  11.249 -0.4224 -0.8906  1.2876
  183SLPC  H14B20948   5.194   5.505  11.283  1.0046 -1.9534 -0.2956
  183SLPC  H14C20949   5.094   5.428  11.412  1.6488 -1.0490  0.3505
  183SLPC   C1520950   4.862   5.444  11.264  0.7995 -0.0676 -0.3998
  183SLPC  H15A20951   4.784   5.496  11.211  0.1178  0.4765  1.1155
  183SLPC  H15B20952   4.861   5.337  11.245 -0.2050 -0.5202  1.9564
  183SLPC  H15C20953   4.837   5.451  11.368  1.0830  0.6371 -0.3736
  183SLPC   C1220954   4.986   5.661  11.298  0.0975  1.1373 -0.4394
  183SLPC  H12A20955   4.970   5.655  11.405 -0.8517  1.0321 -0.5844
  183SLPC  H12B20956   4.898   5.713  11.264 -2.8724 -1.6523  2.2177
  183SLPC   C1120957   5.118   5.747  11.281  0.0209  0.9594  0.5724
  183SLPC  H11A20958   5.210   5.699  11.321  1.8889  1.9909 -2.2047
  183SLPC  H11B20959   5.115   5.842  11.338  2.5756  3.0204 -2.3920
  183SLPC     P20960   5.277   5.788  11.083 -0.4199 -0.2178 -0.0974
  183SLPC   O1320961   5.369   5.887  11.152 -0.2919 -0.1304 -0.6950
  183SLPC   O1420962   5.322   5.652  11.059 -0.2490  0.1862  0.4365
  183SLPC   O1220963   5.133   5.785  11.148 -0.1587  0.3269  0.0038
  183SLPC   O1120964   5.245   5.853  10.940 -0.0548  0.1023  0.1241
  183SLPC    C120965   5.130   5.822  10.857  0.5725  0.0303  0.1364
  183SLPC    HA20966   5.048   5.784  10.921  0.5813  0.4743  0.4156
  183SLPC    HB20967   5.082   5.910  10.808 -1.5119  0.3738  2.6033
  183SLPC    C220968   5.165   5.710  10.752  0.0792 -0.1999  0.0136
  183SLPC    HS20969   5.207   5.618  10.799  0.2489 -0.2678 -0.2677
  183SLPC   O2120970   5.245   5.773  10.647 -0.5429 -0.4544  0.2014
  183SLPC   C2120971   5.315   5.688  10.572 -0.7495 -0.4898  0.2307
  183SLPC   O2220972   5.330   5.570  10.588 -0.5700  0.0917  0.1486
  183SLPC   C2220973   5.364   5.766  10.447  0.1046  0.4914  0.4120
  183SLPC   H2R20974   5.278   5.808  10.390 -0.0722 -1.3538 -0.7749
  183SLPC   H2S20975   5.428   5.847  10.487  1.4087 -0.1051 -0.3973
  183SLPC    C320976   5.024   5.671  10.683  0.3179 -0.3853 -0.4903
  183SLPC    HX20977   4.975   5.764  10.647  0.7615 -0.5616 -1.5930
  183SLPC    HY20978   4.968   5.632  10.770 -0.0229 -0.4109 -0.7227
  183SLPC   O3120979   5.026   5.562  10.578 -0.7009  0.3882 -0.2883
  183SLPC   C3120980   4.913   5.498  10.583 -0.5596 -0.0804 -0.3936
  183SLPC   O3220981   4.821   5.518  10.667 -0.1146  0.2959  0.2241
  183SLPC   C3220982   4.895   5.420  10.451 -0.0642  0.3125  0.3351
  183SLPC   H2X20983   4.995   5.418  10.402 -0.1833 -1.1495  0.1039
  183SLPC   H2Y20984   4.840   5.475  10.371  2.5263  0.0358 -1.7674
  183SLPC   C2320985   5.457   5.685  10.351 -0.5134 -0.6645 -0.5219
  183SLPC   H3R20986   5.539   5.641  10.413 -0.7903  1.2636  1.3482
  183SLPC   H3S20987   5.511   5.762  10.292  0.3223  0.8123  1.9946
  183SLPC   C2420988   5.391   5.586  10.259  0.0065  0.0558 -0.1532
  183SLPC   H4R20989   5.297   5.632  10.223 -0.0014  1.1286  1.1380
  183SLPC   H4S20990   5.358   5.504  10.326  0.2120  0.1948  0.1201
  183SLPC   C2520991   5.483   5.548  10.146  0.1426 -0.3366  0.1890
  183SLPC   H5R20992   5.579   5.510  10.189 -1.9222 -3.2945  2.5894
  183SLPC   H5S20993   5.505   5.646  10.098  0.6574 -0.3471  0.3949
  183SLPC   C2620994   5.424   5.452  10.047  0.0878 -0.1487  0.2682
  183SLPC   H6R20995   5.323   5.493  10.028 -1.0624 -2.9026 -0.0347
  183SLPC   H6S20996   5.408   5.355  10.098 -2.5751 -1.0627 -2.0684
  183SLPC   C2720997   5.502   5.435   9.913  0.0200  0.2469 -0.1819
  183SLPC   H7R20998   5.605   5.415   9.947 -0.0926  2.8129  2.0085
  183SLPC   H7S20999   5.506   5.534   9.861 -1.6507  0.1027 -0.6569
  183SLPC   C2821000   5.433   5.333   9.817 -0.8377  0.9612  0.7217
  183SLPC   H8R21001   5.473   5.360   9.718 -0.2600  0.0411  0.6968
  183SLPC   H8S21002   5.323   5.354   9.816 -0.9956  0.4321 -2.8107
  183SLPC   C2921003   5.477   5.195   9.860  0.1618 -0.4672  0.5409
  183SLPC   H9R21004   5.468   5.178   9.969 -0.8082 -4.6264 -0.0442
  183SLPC  C21021005   5.523   5.087   9.785  0.0451 -0.6206 -0.1329
  183SLPC  H10R21006   5.546   4.994   9.838  0.6930 -0.1266  0.4597
  183SLPC  C21121007   5.558   5.092   9.635 -0.1328 -0.2382  0.5845
  183SLPC  H11R21008   5.667   5.069   9.629 -0.4320 -1.4628 -0.8292
  183SLPC  H11S21009   5.542   5.193   9.591  0.9727 -1.1273 -2.0643
  183SLPC  C21221010   5.502   4.981   9.558  0.3708  0.1970 -0.0400
  183SLPC  H12R21011   5.437   4.906   9.606  1.5463 -1.8587 -1.5140
  183SLPC  C21321012   5.505   4.969   9.426 -0.9931 -0.0218 -1.1895
  183SLPC  H13R21013   5.464   4.876   9.383  0.6170 -0.7034 -1.3134
  183SLPC  C21421014   5.573   5.065   9.331 -0.2295  0.3648 -0.0987
  183SLPC  H14R21015   5.678   5.075   9.366  0.1983 -0.8856 -0.9666
  183SLPC  H14S21016   5.528   5.167   9.330  1.1279  1.1770  3.5012
  183SLPC  C21521017   5.552   4.998   9.193 -0.2942 -0.2672  0.2226
  183SLPC  H15R21018   5.448   4.962   9.176  0.2726 -2.0293  0.3668
  183SLPC  H15S21019   5.628   4.919   9.179  0.9898  0.7491  1.1850
  183SLPC  C21621020   5.579   5.110   9.085 -0.3093  0.5386 -0.3029
  183SLPC  H16R21021   5.506   5.191   9.104 -0.0466  0.6980  0.0485
  183SLPC  H16S21022   5.559   5.077   8.981 -1.6084  2.6527 -0.7841
  183SLPC  C21721023   5.728   5.153   9.096 -0.3373 -0.2176  0.0025
  183SLPC  H17R21024   5.785   5.057   9.089 -0.2922 -0.0683 -2.6452
  183SLPC  H17S21025   5.764   5.202   9.189 -3.0506 -0.7770  1.4440
  183SLPC  C21821026   5.767   5.240   8.976  0.2594  0.0917  0.2911
  183SLPC  H18R21027   5.768   5.348   9.001 -2.0044  1.2332 -3.5472
  183SLPC  H18S21028   5.684   5.219   8.905 -0.0007  0.3050  0.5330
  183SLPC  H18T21029   5.864   5.207   8.933  0.1376  0.8627 -0.6335
  183SLPC   C3321030   4.827   5.286  10.470 -0.4711  0.0531 -0.5154
  183SLPC   H3X21031   4.716   5.293  10.467 -0.5348 -0.4496  0.2481
  183SLPC   H3Y21032   4.852   5.238  10.567  2.0934  0.2950 -0.9892
  183SLPC   C3421033   4.858   5.191  10.359  0.0463  0.3058  0.5817
  183SLPC   H4X21034   4.845   5.236  10.257  0.8936 -1.1384 -0.1907
  183SLPC   H4Y21035   4.798   5.098  10.363  2.7076 -1.7120 -1.6643
  183SLPC   C3521036   5.002   5.140  10.371  0.5490  0.0554  0.0655
  183SLPC   H5X21037   5.010   5.088  10.469 -2.1680 -1.7335 -0.5758
  183SLPC   H5Y21038   5.084   5.215  10.358 -0.5178  1.2402 -0.0196
  183SLPC   C3621039   5.029   5.027  10.270 -0.5328 -0.4375  0.7663
  183SLPC   H6X21040   4.942   4.958  10.268 -0.0624 -1.0290  0.1179
  183SLPC   H6Y21041   5.124   4.974  10.294 -0.3425 -1.4062 -1.7585
  183SLPC   C3721042   5.046   5.086  10.120  0.7713  0.5545  0.0133
  183SLPC   H7X21043   5.153   5.114  10.112  0.2907  2.4563 -0.1314
  183SLPC   H7Y21044   4.985   5.174  10.095  0.4293 -0.1039 -1.5680
  183SLPC   C3821045   5.018   4.985  10.004 -0.3414 -0.7531 -0.6460
  183SLPC   H8X21046   4.909   4.981   9.983 -0.5215 -1.6113  0.3822
  183SLPC   H8Y21047   5.047   4.881  10.030 -0.1796 -0.4345  0.5156
  183SLPC   C3921048   5.077   5.019   9.860 -0.8368  0.4168 -1.0399
  183SLPC   H9X21049   5.188   5.025   9.869 -0.7563 -1.5219 -0.3078
  183SLPC   H9Y21050   5.038   5.121   9.838 -1.1228  0.5907  0.1995
  183SLPC  C31021051   5.041   4.913   9.758  0.6732  0.0261 -0.0616
  183SLPC  H10X21052   4.933   4.883   9.756  0.7000 -0.3582  2.0951
  183SLPC  H10Y21053   5.094   4.818   9.780  2.1931  1.1763  1.5195
  183SLPC  C31121054   5.088   4.959   9.620  0.2679  0.4658 -0.2690
  183SLPC  H11X21055   5.195   4.988   9.620  0.6962 -1.0220 -0.3532
  183SLPC  H11Y21056   5.032   5.053   9.603 -0.9879  0.2192  2.0770
  183SLPC  C31221057   5.055   4.854   9.522  0.8756 -0.5350  0.3771
  183SLPC  H12X21058   4.946   4.835   9.517  0.4916  1.2369  1.2095
  183SLPC  H12Y21059   5.105   4.761   9.556  0.3642 -0.3888  1.5661
  183SLPC  C31321060   5.107   4.895   9.383  0.0597  0.3790  0.2461
  183SLPC  H13X21061   5.216   4.915   9.389 -0.1996  1.8332  0.6988
  183SLPC  H13Y21062   5.059   4.978   9.327 -0.0762 -0.9163 -1.6470
  183SLPC  C31421063   5.093   4.772   9.296  0.0456 -1.1905  0.2861
  183SLPC  H14X21064   4.985   4.770   9.271  0.4160 -1.3131 -1.4054
  183SLPC  H14Y21065   5.118   4.674   9.343  2.1882  0.9893  4.2317
  183SLPC  C31521066   5.170   4.797   9.161  0.7447 -0.2021  0.0817
  183SLPC  H15X21067   5.274   4.820   9.192  0.8275 -0.3496 -0.0910
  183SLPC  H15Y21068   5.134   4.878   9.095  4.8488  1.5603 -0.2755
  183SLPC  C31621069   5.193   4.669   9.076 -0.0621 -0.2606 -0.2158
  183SLPC  H16X21070   5.094   4.631   9.041  0.9062 -1.3922 -1.9092
  183SLPC  H16Y21071   5.233   4.588   9.141  0.2821  0.4389  0.4513
  183SLPC  C31721072   5.294   4.683   8.954 -0.5815  0.1817 -0.6455
  183SLPC  H17X21073   5.315   4.575   8.939 -1.0582  0.3785 -3.1842
  183SLPC  H17Y21074   5.386   4.737   8.984 -0.1172 -0.2914 -1.2046
  183SLPC  C31821075   5.221   4.742   8.842  0.0365 -0.2084  0.5739
  183SLPC  H18X21076   5.292   4.752   8.757  1.9722 -0.2629  2.1043
  183SLPC  H18Y21077   5.180   4.839   8.877 -1.6305 -0.6903  0.0646
  183SLPC  H18Z21078   5.143   4.667   8.817  0.7391 -1.2001  1.2548
  184SLPC     N21079   5.943   6.083  11.071  0.6064 -0.0507  0.3362
  184SLPC   C1321080   5.933   6.142  11.208  0.2662  0.3618 -0.4109
  184SLPC  H13A21081   5.926   6.061  11.279  0.0559  0.9208  0.2168
  184SLPC  H13B21082   6.023   6.197  11.235 -0.3501  0.9322  0.5351
  184SLPC  H13C21083   5.850   6.211  11.208 -0.8652 -0.9224 -1.8192
  184SLPC   C1421084   5.975   6.193  10.972  0.2523 -0.0680  0.4668
  184SLPC  H14A21085   5.973   6.151  10.872  0.8136 -2.3136  1.3512
  184SLPC  H14B21086   5.905   6.275  10.978 -0.3351 -0.5513  0.2884
  184SLPC  H14C21087   6.079   6.216  10.988  0.2696 -0.5565  1.0636
  184SLPC   C1521088   5.810   6.033  11.037  0.1686  0.7217  0.0693
  184SLPC  H15A21089   5.801   5.979  10.944  0.9692  0.2981  0.2367
  184SLPC  H15B21090   5.770   5.965  11.111 -0.8446 -0.1082 -1.1905
  184SLPC  H15C21091   5.728   6.104  11.040  2.0979  3.0348  2.1118
  184SLPC   C1221092   6.052   5.976  11.070 -0.4473  0.4363  0.3148
  184SLPC  H12A21093   6.044   5.933  10.971  0.3171 -0.3506  0.5768
  184SLPC  H12B21094   6.039   5.894  11.138 -3.0148  0.8104  0.3812
  184SLPC   C1121095   6.200   6.027  11.075  0.4745  0.3563  0.2963
  184SLPC  H11A21096   6.281   5.954  11.097 -0.1694 -0.2347  0.7613
  184SLPC  H11B21097   6.195   6.093  11.164  0.2550  1.7951 -0.7519
  184SLPC     P21098   6.286   6.037  10.816 -0.1934  0.0651 -0.2594
  184SLPC   O1321099   6.295   6.151  10.728  0.1416 -0.8196  0.0176
  184SLPC   O1421100   6.407   5.964  10.849  0.0808  0.2410  0.6757
  184SLPC   O1221101   6.241   6.094  10.959 -0.1855  0.2416 -0.6393
  184SLPC   O1121102   6.171   5.935  10.776  0.5719 -0.0719  0.0530
  184SLPC    C121103   6.192   5.798  10.781 -0.7985  0.2166  0.0062
  184SLPC    HA21104   6.248   5.772  10.873 -2.5500 -0.0768  1.0314
  184SLPC    HB21105   6.095   5.744  10.791  0.8912 -2.8579  1.0971
  184SLPC    C221106   6.261   5.747  10.648 -0.3979  0.1616 -0.5198
  184SLPC    HS21107   6.367   5.777  10.660 -0.2606  0.1140 -1.5261
  184SLPC   O2121108   6.194   5.799  10.532 -0.9526 -0.4744  0.3902
  184SLPC   C2121109   6.265   5.897  10.466  0.6977 -0.8335 -0.2504
  184SLPC   O2221110   6.383   5.930  10.494  0.5374  0.7150  0.1656
  184SLPC   C2221111   6.173   5.959  10.362 -0.1918 -0.3984 -0.1936
  184SLPC   H2R21112   6.123   5.877  10.306  0.4089  0.4848 -2.0902
  184SLPC   H2S21113   6.107   6.021  10.427  0.9674  1.2034 -0.4790
  184SLPC    C321114   6.279   5.597  10.648 -0.3121 -0.8034  0.5563
  184SLPC    HX21115   6.179   5.548  10.650 -1.5917  1.6504  1.3793
  184SLPC    HY21116   6.339   5.582  10.740  1.5515 -0.1539 -0.4941
  184SLPC   O3121117   6.361   5.552  10.535 -0.1929 -0.3249 -0.3198
  184SLPC   C3121118   6.322   5.444  10.473  0.8687  0.1841 -0.1810
  184SLPC   O3221119   6.220   5.382  10.500  0.5706  0.4354  0.2255
  184SLPC   C3221120   6.416   5.410  10.359  0.7700 -0.3933  0.4139
  184SLPC   H2X21121   6.386   5.305  10.337  0.6162 -0.4137  0.7296
  184SLPC   H2Y21122   6.522   5.417  10.390  0.6535 -0.1424  0.7470
  184SLPC   C2321123   6.249   6.056  10.267  0.0168 -0.2091 -0.2207
  184SLPC   H3R21124   6.346   6.104  10.294  0.7577 -0.8223 -1.7276
  184SLPC   H3S21125   6.177   6.141  10.274 -2.4918 -2.3280  2.7925
  184SLPC   C2421126   6.266   6.012  10.122 -0.6914 -0.0314 -0.6899
  184SLPC   H4R21127   6.169   5.981  10.077  0.6847 -1.5632 -2.7996
  184SLPC   H4S21128   6.319   5.916  10.137 -0.1854  0.5060  1.2740
  184SLPC   C2521129   6.346   6.100  10.029  0.0032 -0.5953 -0.0528
  184SLPC   H5R21130   6.441   6.137  10.072 -1.0981  1.1412  1.0431
  184SLPC   H5S21131   6.272   6.183  10.016 -0.0373 -0.6584 -0.2164
  184SLPC   C2621132   6.381   6.038   9.892 -0.5398  0.2064  0.5095
  184SLPC   H6R21133   6.444   5.949   9.911  0.4613  0.8224  0.1651
  184SLPC   H6S21134   6.436   6.094   9.813  0.2661 -1.8099 -0.4065
  184SLPC   C2721135   6.258   5.990   9.809 -0.1936 -0.5726 -0.2350
  184SLPC   H7R21136   6.175   6.061   9.830 -0.2604 -1.5352  3.5683
  184SLPC   H7S21137   6.234   5.890   9.852  0.1991 -1.2535 -1.5687
  184SLPC   C2821138   6.289   5.972   9.658 -0.1493  0.8434 -0.0740
  184SLPC   H8R21139   6.371   5.898   9.647 -0.4680  0.5918 -0.8477
  184SLPC   H8S21140   6.316   6.068   9.610  1.9092 -0.0232 -0.7665
  184SLPC   C2921141   6.168   5.898   9.596  0.2561  0.1558 -1.0218
  184SLPC   H9R21142   6.117   5.823   9.658 -1.7327 -0.0592 -2.7951
  184SLPC  C21021143   6.116   5.928   9.479  0.5942 -0.8462  0.5228
  184SLPC  H10R21144   6.036   5.867   9.436  0.8534 -0.0974 -1.1232
  184SLPC  C21121145   6.179   6.024   9.377  0.7437  0.0799 -0.1808
  184SLPC  H11R21146   6.277   6.064   9.411 -0.1708  0.5830  2.0554
  184SLPC  H11S21147   6.106   6.105   9.354  0.5817 -0.0579 -0.1530
  184SLPC  C21221148   6.202   5.950   9.247 -0.3823 -0.1801 -0.3035
  184SLPC  H12R21149   6.301   5.904   9.243 -0.5743 -0.5965 -0.2631
  184SLPC  C21321150   6.108   5.934   9.154  0.3873  0.0386 -0.4416
  184SLPC  H13R21151   6.122   5.881   9.058 -3.6702 -0.3911 -0.9698
  184SLPC  C21421152   5.961   5.981   9.164 -0.1330  0.2547  0.8595
  184SLPC  H14R21153   5.934   6.058   9.088 -1.2910 -1.0679 -0.1048
  184SLPC  H14S21154   5.934   6.017   9.265 -2.6582  1.3747 -0.1156
  184SLPC  C21521155   5.866   5.856   9.154 -0.6581  0.0068 -0.0988
  184SLPC  H15R21156   5.759   5.886   9.165 -1.1682 -0.5439 -2.7992
  184SLPC  H15S21157   5.874   5.781   9.236  0.3681 -0.7546 -0.8736
  184SLPC  C21621158   5.880   5.772   9.024 -0.0241 -0.4358  0.0820
  184SLPC  H16R21159   5.914   5.834   8.938 -3.4674  1.9772  0.2339
  184SLPC  H16S21160   5.777   5.750   8.987  0.0433  1.6982 -1.5448
  184SLPC  C21721161   5.976   5.655   9.040  0.9233 -0.3353  0.2959
  184SLPC  H17R21162   5.935   5.599   9.126  0.4148  1.1527  1.0476
  184SLPC  H17S21163   6.079   5.674   9.077  0.2439 -2.5721  3.7808
  184SLPC  C21821164   5.986   5.568   8.916  0.1479  0.6930  0.3484
  184SLPC  H18R21165   5.893   5.510   8.898  0.8102 -0.4332  0.4465
  184SLPC  H18S21166   6.070   5.496   8.920  0.2738  0.3898 -3.5560
  184SLPC  H18T21167   6.006   5.619   8.819  1.9173  0.7424  0.7114
  184SLPC   C3321168   6.387   5.496  10.228  0.6287 -0.1419 -1.1058
  184SLPC   H3X21169   6.446   5.590  10.233 -1.5885  1.3209 -0.5895
  184SLPC   H3Y21170   6.279   5.522  10.225  0.3300 -1.3083 -0.8954
  184SLPC   C3421171   6.421   5.412  10.106  0.7065 -0.2289  0.1869
  184SLPC   H4X21172   6.349   5.329  10.093 -1.0560  1.1236  0.9737
  184SLPC   H4Y21173   6.508   5.348  10.132 -0.1028 -0.7700  1.6681
  184SLPC   C3521174   6.452   5.492   9.979  1.0857 -0.5598  0.2668
  184SLPC   H5X21175   6.534   5.443   9.922  1.2472  0.7958 -0.7384
  184SLPC   H5Y21176   6.482   5.597  10.001  0.3263 -0.2059 -0.3265
  184SLPC   C3621177   6.314   5.493   9.897 -0.3302  0.5434 -0.3853
  184SLPC   H6X21178   6.249   5.559   9.958  0.9784  0.3059  1.3250
  184SLPC   H6Y21179   6.277   5.388   9.893  1.6146 -0.1616 -1.4278
  184SLPC   C3721180   6.336   5.546   9.753  0.3650 -0.3604 -0.6046
  184SLPC   H7X21181   6.392   5.642   9.760 -0.3043  0.0540 -0.8130
  184SLPC   H7Y21182   6.239   5.573   9.705 -0.5051  1.1426  1.7741
  184SLPC   C3821183   6.419   5.452   9.661  0.0740 -0.4749 -0.2601
  184SLPC   H8X21184   6.415   5.344   9.687 -1.1372 -0.8450 -1.8138
  184SLPC   H8Y21185   6.527   5.477   9.668  0.6162 -2.7208 -0.0104
  184SLPC   C3921186   6.380   5.472   9.511 -0.7817  0.3550  0.2568
  184SLPC   H9X21187   6.470   5.457   9.447 -0.0327  2.5815  0.6938
  184SLPC   H9Y21188   6.360   5.580   9.494  0.7090  0.6373  0.1353
  184SLPC  C31021189   6.271   5.379   9.457 -0.2016 -0.2770  0.1181
  184SLPC  H10X21190   6.170   5.413   9.490 -0.1047 -0.0406  0.1745
  184SLPC  H10Y21191   6.277   5.278   9.502 -0.9334 -0.3968 -0.0347
  184SLPC  C31121192   6.263   5.373   9.309 -0.3323  0.6056  0.2854
  184SLPC  H11X21193   6.359   5.338   9.266 -0.3218 -0.1370  0.9002
  184SLPC  H11Y21194   6.244   5.470   9.258  0.0403  0.4841 -0.0907
  184SLPC  C31221195   6.147   5.284   9.265 -0.8559  0.5819 -0.4073
  184SLPC  H12X21196   6.046   5.328   9.279 -2.0360 -1.9692 -0.2645
  184SLPC  H12Y21197   6.152   5.185   9.316 -1.3612  0.5397 -0.4333
  184SLPC  C31321198   6.130   5.256   9.114 -0.8484 -0.2697 -0.3760
  184SLPC  H13X21199   6.136   5.353   9.060  0.0799 -0.4541 -0.6141
  184SLPC  H13Y21200   6.024   5.222   9.109 -0.8705 -0.7425  2.1175
  184SLPC  C31421201   6.224   5.170   9.044  0.3258  0.3250 -0.5036
  184SLPC  H14X21202   6.232   5.074   9.100 -2.1728  0.1827 -0.2706
  184SLPC  H14Y21203   6.329   5.206   9.049  1.9359 -3.9303  0.7116
  184SLPC  C31521204   6.184   5.147   8.900  0.2239 -0.1549  0.5712
  184SLPC  H15X21205   6.164   5.245   8.853 -1.7455 -1.1531 -0.8229
  184SLPC  H15Y21206   6.082   5.103   8.902 -0.5830  1.6503  1.2272
  184SLPC  C31621207   6.282   5.072   8.811  0.5490 -0.0638  0.2633
  184SLPC  H16X21208   6.305   4.979   8.866  0.3473 -0.0452  0.3796
  184SLPC  H16Y21209   6.370   5.140   8.806  1.3370 -1.0561 -4.0668
  184SLPC  C31721210   6.234   5.039   8.664  0.2115 -0.5997 -0.4400
  184SLPC  H17X21211   6.218   5.137   8.614  2.2078  0.7012  1.2853
  184SLPC  H17Y21212   6.133   4.993   8.667  0.1888 -0.4918  1.3514
  184SLPC  C31821213   6.339   4.956   8.585  0.2949  0.2988 -0.2481
  184SLPC  H18X21214   6.339   4.850   8.618  0.1416  0.3705 -0.0151
  184SLPC  H18Y21215   6.438   5.003   8.602  0.7641 -1.3794  2.1042
  184SLPC  H18Z21216   6.316   4.965   8.476  1.2214  0.5088 -0.4314
  185SLPC     N21217   4.640   6.145   6.771 -0.5052 -0.1396  0.2024
  185SLPC   C1321218   4.728   6.132   6.647  0.0549  0.1744  0.1707
  185SLPC  H13A21219   4.736   6.029   6.615 -0.0967  0.6079 -1.3417
  185SLPC  H13B21220   4.683   6.183   6.563  0.5277  0.8695  0.3304
  185SLPC  H13C21221   4.828   6.170   6.659  0.7241 -1.3844 -0.3160
  185SLPC   C1421222   4.518   6.096   6.726  0.6593 -0.3981 -0.9129
  185SLPC  H14A21223   4.531   6.002   6.674 -1.2993 -0.3198 -1.6256
  185SLPC  H14B21224   4.451   6.087   6.811  2.2280 -0.8267  0.3355
  185SLPC  H14C21225   4.468   6.162   6.657 -1.9395 -0.9121  0.3747
  185SLPC   C1521226   4.626   6.295   6.812 -0.1075  0.0380  0.1226
  185SLPC  H15A21227   4.718   6.336   6.851  0.0510  1.0935 -1.2776
  185SLPC  H15B21228   4.587   6.344   6.724  0.2151  1.0011  0.4990
  185SLPC  H15C21229   4.567   6.302   6.903  2.2335 -0.9568  1.8167
  185SLPC   C1221230   4.691   6.066   6.886  0.3312  0.0699  0.4777
  185SLPC  H12A21231   4.652   6.096   6.982 -0.0038  1.0458  0.0533
  185SLPC  H12B21232   4.792   6.103   6.901 -0.6509  3.1042  0.3418
  185SLPC   C1121233   4.701   5.906   6.883 -1.0300 -0.0010  0.2606
  185SLPC  H11A21234   4.599   5.862   6.876 -1.4963  0.8316  1.4022
  185SLPC  H11B21235   4.738   5.870   6.981 -1.1799  0.1767  0.3821
  185SLPC     P21236   4.752   5.742   6.697 -0.2039  0.2794  0.2777
  185SLPC   O1321237   4.627   5.778   6.630 -0.1194  0.0496  0.0947
  185SLPC   O1421238   4.861   5.707   6.607  0.1672 -0.1045  0.0630
  185SLPC   O1221239   4.795   5.868   6.777 -0.5703 -0.1028 -0.1369
  185SLPC   O1121240   4.730   5.638   6.804 -0.2717  0.1049  0.0102
  185SLPC    C121241   4.619   5.554   6.828 -0.3209  0.0804  0.2774
  185SLPC    HA21242   4.531   5.600   6.778 -0.0805  0.4747  0.2151
  185SLPC    HB21243   4.645   5.454   6.787  1.6808 -0.0584  1.7412
  185SLPC    C221244   4.601   5.535   6.982  0.1909 -0.2189 -0.0608
  185SLPC    HS21245   4.528   5.452   6.987  0.1988 -0.1704  1.2305
  185SLPC   O2121246   4.542   5.657   7.032  0.1425 -0.1263  0.0294
  185SLPC   C2121247   4.412   5.674   7.001 -0.1590 -0.2297  0.6800
  185SLPC   O2221248   4.334   5.584   6.963  0.1535 -0.1364  0.4011
  185SLPC   C2221249   4.370   5.817   7.030 -0.0301  0.7601 -0.0415
  185SLPC   H2R21250   4.390   5.891   6.949  0.2561  1.1029  0.3367
  185SLPC   H2S21251   4.260   5.821   7.041 -0.0247  3.3850 -0.3866
  185SLPC    C321252   4.729   5.503   7.060  0.3207 -0.3592 -0.2182
  185SLPC    HX21253   4.797   5.589   7.039  0.0747 -0.3227 -0.8721
  185SLPC    HY21254   4.772   5.410   7.018 -0.7429 -0.3432 -1.4032
  185SLPC   O3121255   4.708   5.502   7.204 -0.0653 -0.2184  0.1576
  185SLPC   C3121256   4.830   5.490   7.271  0.1710  0.0121 -0.0285
  185SLPC   O3221257   4.937   5.462   7.217  0.8050 -0.2120  0.2362
  185SLPC   C3221258   4.810   5.497   7.422  0.5220 -0.2797 -0.2585
  185SLPC   H2X21259   4.701   5.498   7.444  0.1901  4.3655 -1.0928
  185SLPC   H2Y21260   4.857   5.594   7.446  1.7337 -1.3587  2.0547
  185SLPC   C2321261   4.429   5.875   7.167 -0.6421 -0.8231  0.9223
  185SLPC   H3R21262   4.424   5.985   7.158  0.6342 -0.8595 -0.6958
  185SLPC   H3S21263   4.536   5.851   7.183 -0.4660 -1.7709 -1.3019
  185SLPC   C2421264   4.359   5.812   7.291 -0.6375  0.4798 -0.0459
  185SLPC   H4R21265   4.375   5.703   7.280  3.0906  0.5596  2.8219
  185SLPC   H4S21266   4.255   5.851   7.281 -2.1045 -1.6128  4.3966
  185SLPC   C2521267   4.428   5.834   7.424 -0.6920  0.1634 -0.2659
  185SLPC   H5R21268   4.436   5.944   7.429 -0.1525  0.2153 -1.8037
  185SLPC   H5S21269   4.531   5.791   7.432 -0.8763 -0.0009  1.8959
  185SLPC   C2621270   4.356   5.771   7.538  0.6744  0.1716  0.1382
  185SLPC   H6R21271   4.308   5.677   7.504 -1.0771  0.9567  0.2933
  185SLPC   H6S21272   4.274   5.836   7.576 -0.3694 -2.8387  3.5986
  185SLPC   C2721273   4.461   5.743   7.658  0.0003  0.6956  0.2146
  185SLPC   H7R21274   4.534   5.680   7.603 -0.0518  0.7620  0.0668
  185SLPC   H7S21275   4.416   5.681   7.738 -1.3450 -1.9026 -2.3499
  185SLPC   C2821276   4.523   5.871   7.715  0.2418 -0.7394  0.3105
  185SLPC   H8R21277   4.537   5.947   7.635  0.4402 -0.5773  0.4976
  185SLPC   H8S21278   4.619   5.834   7.758  0.8728 -1.6076 -1.7249
  185SLPC   C2921279   4.442   5.936   7.820 -0.5691  0.9239 -0.1568
  185SLPC   H9R21280   4.344   5.980   7.795 -0.9057  0.8643  0.9936
  185SLPC  C21021281   4.475   5.944   7.955  0.0822 -0.2371  0.2279
  185SLPC  H10R21282   4.409   5.999   8.024 -0.1540  1.8934 -1.5918
  185SLPC  C21121283   4.592   5.885   8.026 -0.4644  0.0841 -0.0203
  185SLPC  H11R21284   4.603   5.922   8.131 -1.0480 -1.5060  0.6325
  185SLPC  H11S21285   4.686   5.907   7.973 -0.5779  0.2936 -0.1361
  185SLPC  C21221286   4.585   5.731   8.016  0.2520  0.0180  0.2244
  185SLPC  H12R21287   4.562   5.691   7.916  0.4546 -3.0549  1.3067
  185SLPC  C21321288   4.610   5.649   8.120 -0.1795  0.2746 -0.3028
  185SLPC  H13R21289   4.599   5.540   8.107  0.7076  0.1401  0.0041
  185SLPC  C21421290   4.636   5.686   8.268 -0.7520  0.1231 -0.0555
  185SLPC  H14R21291   4.673   5.790   8.281  1.0687 -0.7985  3.5101
  185SLPC  H14S21292   4.727   5.630   8.297 -0.8547  0.9933  2.1306
  185SLPC  C21521293   4.522   5.654   8.364 -0.1236 -0.4483 -0.3748
  185SLPC  H15R21294   4.523   5.545   8.382 -0.2853 -0.2173  1.2417
  185SLPC  H15S21295   4.419   5.684   8.335 -1.2263 -1.7095  1.9505
  185SLPC  C21621296   4.534   5.715   8.504  0.2363 -0.5081  0.2308
  185SLPC  H16R21297   4.528   5.825   8.489 -0.8721 -0.1856  2.5490
  185SLPC  H16S21298   4.632   5.689   8.549  1.4494  0.0060 -1.9991
  185SLPC  C21721299   4.421   5.685   8.600 -0.4818  0.1606 -0.4597
  185SLPC  H17R21300   4.405   5.576   8.593 -0.8710  0.2440 -0.9010
  185SLPC  H17S21301   4.321   5.725   8.573 -1.0096  1.0350  2.4192
  185SLPC  C21821302   4.431   5.727   8.742 -0.4453  0.5156 -1.1404
  185SLPC  H18R21303   4.440   5.837   8.755 -2.2276  0.5510  0.2449
  185SLPC  H18S21304   4.519   5.677   8.787 -2.4811 -2.2302  0.1336
  185SLPC  H18T21305   4.348   5.692   8.807  1.6016 -2.6378 -0.0127
  185SLPC   C3321306   4.878   5.379   7.487 -0.1057  0.0485  0.1674
  185SLPC   H3X21307   4.984   5.362   7.458 -0.0637  0.7678 -0.1035
  185SLPC   H3Y21308   4.812   5.290   7.481 -0.1245  0.1319 -1.4846
  185SLPC   C3421309   4.896   5.415   7.641 -0.5213  0.0322  0.1369
  185SLPC   H4X21310   4.932   5.519   7.645 -0.2135  0.0053 -1.2804
  185SLPC   H4Y21311   4.979   5.349   7.675  0.4262  0.7836 -0.6743
  185SLPC   C3521312   4.775   5.398   7.728  0.8994 -0.6214 -0.6521
  185SLPC   H5X21313   4.730   5.296   7.731  1.3662 -0.9462 -2.8555
  185SLPC   H5Y21314   4.689   5.456   7.690  1.7812  1.3842  0.2732
  185SLPC   C3621315   4.785   5.445   7.877 -0.0036  0.2248  0.3043
  185SLPC   H6X21316   4.685   5.460   7.924  0.1920  1.6707  0.3053
  185SLPC   H6Y21317   4.828   5.547   7.889 -0.2903  0.6678 -1.9774
  185SLPC   C3721318   4.865   5.349   7.970 -0.5675 -0.2763  0.1871
  185SLPC   H7X21319   4.973   5.354   7.941 -0.7201  0.6269 -0.2837
  185SLPC   H7Y21320   4.835   5.243   7.957  0.4821 -0.8016  1.7292
  185SLPC   C3821321   4.847   5.387   8.115  0.0566 -0.4632 -0.0662
  185SLPC   H8X21322   4.742   5.387   8.151 -0.8783 -0.6950 -2.6471
  185SLPC   H8Y21323   4.872   5.495   8.123 -3.0906  0.2150  2.5759
  185SLPC   C3921324   4.942   5.324   8.216  0.3948 -0.1554 -0.1251
  185SLPC   H9X21325   5.046   5.324   8.176 -0.1587  0.7264 -1.6639
  185SLPC   H9Y21326   4.915   5.217   8.215  3.1947 -0.9484 -0.1895
  185SLPC  C31021327   4.923   5.380   8.360  0.6218 -0.4526  0.0908
  185SLPC  H10X21328   4.936   5.490   8.355 -1.0392 -0.3016 -2.4247
  185SLPC  H10Y21329   4.995   5.327   8.426  0.1942 -1.9343 -0.5845
  185SLPC  C31121330   4.786   5.347   8.425 -0.7200  0.3157 -0.4713
  185SLPC  H11X21331   4.766   5.238   8.433  1.6994 -0.1952 -0.5396
  185SLPC  H11Y21332   4.709   5.389   8.356 -0.1075  0.3984 -1.1210
  185SLPC  C31221333   4.780   5.411   8.564  0.0471 -0.1136  0.0881
  185SLPC  H12X21334   4.794   5.520   8.551  3.7953 -0.3478  1.1096
  185SLPC  H12Y21335   4.864   5.361   8.616 -0.4131 -1.0062  0.0017
  185SLPC  C31321336   4.656   5.386   8.645 -0.1789  0.1525 -0.8033
  185SLPC  H13X21337   4.627   5.278   8.645 -3.3042  0.8710  0.3688
  185SLPC  H13Y21338   4.564   5.439   8.611 -0.1573  2.1232  1.8686
  185SLPC  C31421339   4.677   5.415   8.797  0.1801 -0.1618 -0.7724
  185SLPC  H14X21340   4.687   5.525   8.798 -1.5571  0.0267  1.0616
  185SLPC  H14Y21341   4.773   5.376   8.839  0.1349  1.8911  1.4500
  185SLPC  C31521342   4.553   5.368   8.892 -1.6811  0.0403 -0.6233
  185SLPC  H15X21343   4.526   5.261   8.885 -1.7592 -0.0381  0.7132
  185SLPC  H15Y21344   4.458   5.414   8.858 -2.6511 -2.0119 -0.8364
  185SLPC  C31621345   4.592   5.382   9.047  0.4418  0.1323  0.7942
  185SLPC  H16X21346   4.628   5.484   9.069  2.3304 -0.6012  1.3651
  185SLPC  H16Y21347   4.669   5.307   9.076 -0.0716  0.0120  1.8868
  185SLPC  C31721348   4.478   5.353   9.134  0.1274  0.3243  0.0654
  185SLPC  H17X21349   4.451   5.246   9.122 -0.8071  0.1080  3.2955
  185SLPC  H17Y21350   4.390   5.408   9.092  2.0450  3.7044  0.1030
  185SLPC  C31821351   4.494   5.380   9.282  0.0995 -0.0507  0.5375
  185SLPC  H18X21352   4.539   5.481   9.292  0.2056 -0.1190  0.7589
  185SLPC  H18Y21353   4.562   5.302   9.322  1.8745  1.1833  0.0083
  185SLPC  H18Z21354   4.395   5.394   9.332 -0.8830 -0.3511 -1.2497
  186SLPC     N21355   6.583   6.486   6.298 -0.8191  0.0987  0.2418
  186SLPC   C1321356   6.661   6.472   6.169  0.2007 -0.2034  0.3884
  186SLPC  H13A21357   6.757   6.432   6.198  1.1281  1.2797 -0.5519
  186SLPC  H13B21358   6.618   6.409   6.092 -0.1233  4.2052 -3.5164
  186SLPC  H13C21359   6.682   6.564   6.117 -1.8047 -0.6554 -1.3653
  186SLPC   C1421360   6.435   6.497   6.269  0.5007  0.0110  0.3248
  186SLPC  H14A21361   6.382   6.546   6.349  1.7131  0.6007  0.7960
  186SLPC  H14B21362   6.414   6.562   6.185 -2.6518 -0.1180  0.9057
  186SLPC  H14C21363   6.388   6.401   6.254 -0.8775  0.6977  0.0229
  186SLPC   C1521364   6.636   6.608   6.372 -0.3772 -0.6057 -0.0448
  186SLPC  H15A21365   6.602   6.693   6.315 -1.5111 -1.7686 -1.1728
  186SLPC  H15B21366   6.606   6.597   6.475 -0.4178 -1.8852 -0.1783
  186SLPC  H15C21367   6.743   6.604   6.367 -0.4558 -2.3044 -2.5039
  186SLPC   C1221368   6.603   6.362   6.375 -0.1207 -0.1341 -0.3774
  186SLPC  H12A21369   6.577   6.280   6.309  1.2582  1.3189 -2.8692
  186SLPC  H12B21370   6.545   6.365   6.466  0.6008  0.4902  0.0705
  186SLPC   C1121371   6.744   6.321   6.412  0.2875 -0.4191  0.2067
  186SLPC  H11A21372   6.736   6.238   6.484 -3.5415 -1.2536 -0.9499
  186SLPC  H11B21373   6.789   6.404   6.470  0.2183 -0.7755  0.7800
  186SLPC     P21374   6.976   6.325   6.288 -0.2273  0.0757  0.0097
  186SLPC   O1321375   7.038   6.222   6.201  0.2870  0.9823  0.4698
  186SLPC   O1421376   6.995   6.465   6.245  0.0541  0.4553 -0.1569
  186SLPC   O1221377   6.826   6.298   6.299 -0.0999  0.1911 -0.3038
  186SLPC   O1121378   7.029   6.302   6.434  0.3924 -0.4447  0.1573
  186SLPC    C121379   7.095   6.190   6.482  0.0799 -0.1573  0.1325
  186SLPC    HA21380   7.183   6.162   6.420 -0.3289  2.7923 -1.9604
  186SLPC    HB21381   7.137   6.216   6.581  0.2295 -0.4554  0.1491
  186SLPC    C221382   7.003   6.071   6.516  0.4992 -0.3312  0.2750
  186SLPC    HS21383   6.932   6.058   6.432  0.9057  0.6593 -0.2308
  186SLPC   O2121384   6.934   6.091   6.641  0.6691 -0.1087 -0.3943
  186SLPC   C2121385   6.827   6.018   6.652  0.7164  0.1628 -0.0922
  186SLPC   O2221386   6.782   5.942   6.570 -0.0227 -0.5804 -0.2962
  186SLPC   C2221387   6.756   6.052   6.787 -0.2894 -0.0835 -0.2000
  186SLPC   H2R21388   6.754   6.161   6.807 -0.8207  0.0040 -0.7225
  186SLPC   H2S21389   6.653   6.010   6.787  0.3533 -1.7861  0.9082
  186SLPC    C321390   7.080   5.935   6.515 -0.2260  0.0755 -0.4380
  186SLPC    HX21391   7.146   5.947   6.426 -0.3699 -1.0257 -0.7127
  186SLPC    HY21392   7.000   5.859   6.501  0.1058 -0.1748 -1.0361
  186SLPC   O3121393   7.156   5.906   6.632  0.1889 -0.1734  0.2173
  186SLPC   C3121394   7.192   5.779   6.643  0.0706 -0.0238  0.0927
  186SLPC   O3221395   7.178   5.694   6.559  0.1336 -0.6316 -0.2200
  186SLPC   C3221396   7.252   5.757   6.782 -0.5410 -0.4414  0.4190
  186SLPC   H2X21397   7.225   5.843   6.847 -1.0856 -0.8497  0.7343
  186SLPC   H2Y21398   7.362   5.737   6.778 -0.7514 -1.4838 -0.6490
  186SLPC   C2321399   6.825   5.984   6.911 -0.0311 -1.0349 -0.3053
  186SLPC   H3R21400   6.768   6.028   6.995  0.2470  0.6360 -0.9453
  186SLPC   H3S21401   6.934   6.000   6.926  0.2133 -0.6903 -2.1761
  186SLPC   C2421402   6.821   5.826   6.907 -0.2051 -1.2303 -0.1252
  186SLPC   H4R21403   6.892   5.783   6.980 -0.6618 -0.7787  0.5968
  186SLPC   H4S21404   6.866   5.798   6.809 -0.8586  2.0528 -1.5060
  186SLPC   C2521405   6.680   5.769   6.902 -0.6827  0.2792  0.5613
  186SLPC   H5R21406   6.689   5.658   6.903  2.1902  0.4266  1.7623
  186SLPC   H5S21407   6.620   5.797   6.813  1.2875 -0.1633 -0.9704
  186SLPC   C2621408   6.596   5.811   7.027  0.6221 -0.1622 -0.1444
  186SLPC   H6R21409   6.581   5.921   7.037 -2.8352 -0.7062  2.1319
  186SLPC   H6S21410   6.652   5.783   7.120 -0.0082  3.2329  1.4099
  186SLPC   C2721411   6.466   5.743   7.014  0.3863  0.0857 -0.3110
  186SLPC   H7R21412   6.487   5.636   6.997  1.5207  0.3863 -0.9388
  186SLPC   H7S21413   6.405   5.768   6.924 -2.9319 -1.4686  1.3506
  186SLPC   C2821414   6.385   5.745   7.149 -0.4290 -1.0072  0.3353
  186SLPC   H8R21415   6.355   5.850   7.170 -0.0321 -1.0904  1.3723
  186SLPC   H8S21416   6.466   5.728   7.223 -0.4866 -3.1530 -0.0390
  186SLPC   C2921417   6.274   5.643   7.162  0.3359  0.0416  0.2494
  186SLPC   H9R21418   6.297   5.542   7.126 -0.6218 -0.3004  0.5546
  186SLPC  C21021419   6.156   5.662   7.220 -0.1368  1.4206 -0.4459
  186SLPC  H10R21420   6.083   5.580   7.215  0.8323  0.5842 -1.0747
  186SLPC  C21121421   6.109   5.789   7.281  1.0973  0.2547 -0.0113
  186SLPC  H11R21422   6.137   5.879   7.223  0.3811 -0.0837 -0.8982
  186SLPC  H11S21423   6.163   5.794   7.379 -0.0744  0.3183  0.6509
  186SLPC  C21221424   5.958   5.784   7.294  0.2592  0.3202  0.4771
  186SLPC  H12R21425   5.906   5.790   7.197 -0.1114  2.4072  0.7690
  186SLPC  C21321426   5.891   5.777   7.404 -0.7357 -0.2331  0.7257
  186SLPC  H13R21427   5.781   5.765   7.405 -0.7720 -0.0640  2.2693
  186SLPC  C21421428   5.941   5.770   7.539  0.0079 -0.1319 -0.1886
  186SLPC  H14R21429   6.037   5.714   7.542  1.1406  1.6861 -0.7429
  186SLPC  H14S21430   5.874   5.710   7.605  0.8066  0.4576  1.2109
  186SLPC  C21521431   5.961   5.902   7.609  0.6181  0.2661  0.0903
  186SLPC  H15R21432   5.866   5.957   7.625  0.7463  0.5959 -0.2496
  186SLPC  H15S21433   6.031   5.958   7.543 -0.2900  0.7434 -0.4988
  186SLPC  C21621434   6.022   5.885   7.750  0.5369  0.3620 -0.1750
  186SLPC  H16R21435   6.103   5.809   7.740 -1.7398 -2.3748  0.6259
  186SLPC  H16S21436   5.948   5.845   7.824  0.1364  3.1373  1.0424
  186SLPC  C21721437   6.082   6.022   7.797  0.2490  0.3361 -0.3402
  186SLPC  H17R21438   6.019   6.105   7.759 -0.6438  0.7000  1.7594
  186SLPC  H17S21439   6.179   6.037   7.745  0.6394  0.0792  0.2974
  186SLPC  C21821440   6.088   6.024   7.950  0.4627  0.3357 -0.0409
  186SLPC  H18R21441   6.117   5.923   7.986 -2.0630 -0.1454  0.8899
  186SLPC  H18S21442   5.987   6.030   7.995  0.2903 -1.5712 -0.0922
  186SLPC  H18T21443   6.151   6.102   7.997  0.3711 -0.6422  1.7612
  186SLPC   C3321444   7.185   5.637   6.859 -0.0648 -1.0117  0.2111
  186SLPC   H3X21445   7.209   5.550   6.793  0.0177  0.5474 -1.9114
  186SLPC   H3Y21446   7.076   5.659   6.861  0.2520  0.6302  0.7623
  186SLPC   C3421447   7.241   5.608   7.004 -0.6093  0.0252  0.6297
  186SLPC   H4X21448   7.257   5.706   7.054  3.4650  0.4948 -1.1620
  186SLPC   H4Y21449   7.350   5.589   7.012 -0.8129 -0.8692  1.4217
  186SLPC   C3521450   7.174   5.493   7.080 -0.3562 -0.2891  0.4470
  186SLPC   H5X21451   7.162   5.402   7.018 -0.8611 -0.7494  1.2116
  186SLPC   H5Y21452   7.071   5.520   7.111 -0.7469 -1.8305  0.5589
  186SLPC   C3621453   7.263   5.452   7.201  0.0350  0.6748  0.0614
  186SLPC   H6X21454   7.372   5.469   7.187  0.1032  1.0587  1.0306
  186SLPC   H6Y21455   7.248   5.343   7.219  1.1826  0.8649  2.6349
  186SLPC   C3721456   7.217   5.516   7.337 -0.0453  0.4212  0.2507
  186SLPC   H7X21457   7.107   5.502   7.341  0.1228 -0.8225  1.0100
  186SLPC   H7Y21458   7.232   5.626   7.342 -1.4439  0.8159 -2.3747
  186SLPC   C3821459   7.265   5.439   7.461  0.6953  0.0966 -0.1860
  186SLPC   H8X21460   7.376   5.444   7.467  0.7602 -1.9609  3.0287
  186SLPC   H8Y21461   7.228   5.334   7.463  0.9881 -0.0913  3.6782
  186SLPC   C3921462   7.210   5.502   7.592  0.0138 -0.2219 -0.0427
  186SLPC   H9X21463   7.102   5.529   7.592  0.2766  0.9069  0.9952
  186SLPC   H9Y21464   7.254   5.603   7.609  0.2770 -0.3823  0.2280
  186SLPC  C31021465   7.230   5.413   7.708 -0.5515 -0.1028  0.4165
  186SLPC  H10X21466   7.339   5.388   7.709 -0.4609  0.2908  0.3592
  186SLPC  H10Y21467   7.183   5.315   7.683 -0.0906 -0.2391  0.0395
  186SLPC  C31121468   7.186   5.480   7.839  0.2914 -0.3377  0.2874
  186SLPC  H11X21469   7.083   5.520   7.827  0.2846 -0.6287 -0.7344
  186SLPC  H11Y21470   7.250   5.569   7.857 -1.9884  1.2076  1.1941
  186SLPC  C31221471   7.207   5.378   7.951 -0.3317  0.1099 -0.2199
  186SLPC  H12X21472   7.312   5.344   7.938 -0.5938 -1.2700  1.0262
  186SLPC  H12Y21473   7.151   5.287   7.920 -0.9690 -0.0348  1.2663
  186SLPC  C31321474   7.164   5.432   8.084  0.7117 -0.2361  0.3301
  186SLPC  H13X21475   7.061   5.473   8.080  0.8924  0.0931 -1.2264
  186SLPC  H13Y21476   7.224   5.524   8.098  0.7034 -0.1532 -0.1904
  186SLPC  C31421477   7.190   5.337   8.205 -0.2241 -0.0622  0.5134
  186SLPC  H14X21478   7.299   5.315   8.200 -0.2793 -0.0449 -2.3967
  186SLPC  H14Y21479   7.124   5.249   8.189 -0.4015  0.4916 -2.1887
  186SLPC  C31521480   7.162   5.405   8.345 -0.5284 -0.8078 -0.1079
  186SLPC  H15X21481   7.126   5.324   8.412 -1.9061 -0.7625 -0.7521
  186SLPC  H15Y21482   7.082   5.479   8.326  0.5897  0.4630 -0.0017
  186SLPC  C31621483   7.283   5.463   8.405  0.2565 -0.4537  0.0024
  186SLPC  H16X21484   7.338   5.540   8.347 -0.4648  0.6895  0.8012
  186SLPC  H16Y21485   7.350   5.377   8.428 -0.7734 -0.7146  2.3210
  186SLPC  C31721486   7.259   5.520   8.541  0.1791  0.0774  0.3203
  186SLPC  H17X21487   7.204   5.453   8.612 -1.1288  1.9552  1.1684
  186SLPC  H17Y21488   7.185   5.602   8.529 -1.1690 -1.3425 -1.6328
  186SLPC  C31821489   7.381   5.571   8.616  0.2978 -0.5001 -0.3360
  186SLPC  H18X21490   7.356   5.614   8.715 -1.0961  1.6920 -1.5500
  186SLPC  H18Y21491   7.418   5.652   8.550 -2.8077  0.8951 -0.5428
  186SLPC  H18Z21492   7.455   5.490   8.633  0.1518 -0.0981  2.8417
  187SLPC     N21493   5.965   3.763   6.464 -0.1522  0.6406 -0.0467
  187SLPC   C1321494   5.967   3.635   6.539 -0.1958 -0.0835  0.1156
  187SLPC  H13A21495   6.068   3.605   6.563 -0.1042 -0.2967 -0.5067
  187SLPC  H13B21496   5.912   3.644   6.632 -0.4815 -1.4961  0.1082
  187SLPC  H13C21497   5.922   3.554   6.482  1.3569 -1.1012  0.2634
  187SLPC   C1421498   5.826   3.784   6.408  0.2006  0.4552  0.8313
  187SLPC  H14A21499   5.819   3.711   6.329  0.0907 -0.7510  1.9143
  187SLPC  H14B21500   5.756   3.765   6.489  0.3534  0.8056  1.0521
  187SLPC  H14C21501   5.814   3.878   6.357  1.4465 -0.0059 -0.3758
  187SLPC   C1521502   6.061   3.763   6.347  0.7672 -0.3727 -0.6730
  187SLPC  H15A21503   6.028   3.686   6.279  1.1205 -0.6594 -0.5274
  187SLPC  H15B21504   6.058   3.859   6.300 -0.7267  0.6121  1.2947
  187SLPC  H15C21505   6.164   3.748   6.376  1.0372 -2.3916 -2.3974
  187SLPC   C1221506   5.988   3.881   6.562 -0.5767 -0.3145  0.4893
  187SLPC  H12A21507   5.914   3.870   6.640 -2.1620  2.3435 -0.5222
  187SLPC  H12B21508   5.959   3.975   6.519 -0.1696 -0.5480 -0.3223
  187SLPC   C1121509   6.134   3.910   6.619 -0.2471 -0.5002 -0.6096
  187SLPC  H11A21510   6.173   3.823   6.676  0.1136 -0.4014 -0.7091
  187SLPC  H11B21511   6.124   3.988   6.698 -1.7331 -1.2955  0.0459
  187SLPC     P21512   6.220   4.079   6.447  0.0651  0.1279 -0.0014
  187SLPC   O1321513   6.357   4.120   6.405 -0.1099 -0.2346 -0.3297
  187SLPC   O1421514   6.127   4.077   6.327  0.0489  0.1676  0.3240
  187SLPC   O1221515   6.226   3.939   6.517  0.2952 -0.2522 -0.0493
  187SLPC   O1121516   6.154   4.179   6.560 -0.0340  0.1214  0.1761
  187SLPC    C121517   6.207   4.304   6.572 -0.3481 -0.5326  0.5398
  187SLPC    HA21518   6.245   4.345   6.476 -2.2490 -0.9749 -0.4414
  187SLPC    HB21519   6.125   4.373   6.603 -1.5613 -1.1141 -1.2347
  187SLPC    C221520   6.316   4.309   6.688 -0.3119  0.0334  0.3741
  187SLPC    HS21521   6.389   4.230   6.660 -1.9429 -2.0444  1.6362
  187SLPC   O2121522   6.246   4.280   6.809  0.1791  0.4209  0.2297
  187SLPC   C2121523   6.302   4.176   6.875  0.0301 -0.3244 -0.3968
  187SLPC   O2221524   6.416   4.132   6.853 -0.4119 -0.1098 -0.0273
  187SLPC   C2221525   6.209   4.123   6.990  0.3306 -0.3401 -0.4548
  187SLPC   H2R21526   6.124   4.194   6.987 -0.3395 -1.1432 -0.7607
  187SLPC   H2S21527   6.179   4.021   6.959  0.2219 -0.0211 -1.4541
  187SLPC    C321528   6.388   4.446   6.690 -0.3443  0.1480 -0.4740
  187SLPC    HX21529   6.313   4.527   6.675 -0.0740  0.1277 -2.0226
  187SLPC    HY21530   6.459   4.451   6.605  2.6100 -1.5591  1.6918
  187SLPC   O3121531   6.477   4.455   6.813  0.1449  0.0832  0.1636
  187SLPC   C3121532   6.420   4.508   6.920 -0.6112  0.1788 -0.0658
  187SLPC   O3221533   6.305   4.550   6.926  0.3801  0.2196  0.2726
  187SLPC   C3221534   6.506   4.475   7.046 -0.7501  0.3462  0.5291
  187SLPC   H2X21535   6.498   4.364   7.050 -0.9684  0.3750  1.0357
  187SLPC   H2Y21536   6.457   4.537   7.124  0.7292  1.2635  0.7774
  187SLPC   C2321537   6.272   4.102   7.131 -0.0405  0.4182  0.5667
  187SLPC   H3R21538   6.374   4.058   7.122 -1.3359 -2.6621 -0.4293
  187SLPC   H3S21539   6.219   4.023   7.189  0.6073  1.1132  2.1714
  187SLPC   C2421540   6.265   4.230   7.223  0.1865 -0.2943 -0.3025
  187SLPC   H4R21541   6.159   4.260   7.234  0.6617  1.7301 -0.7913
  187SLPC   H4S21542   6.314   4.324   7.191  1.1122 -1.3188 -2.0369
  187SLPC   C2521543   6.324   4.173   7.361  0.0199 -0.3613 -0.1570
  187SLPC   H5R21544   6.434   4.168   7.349  0.0290  1.2754 -1.0725
  187SLPC   H5S21545   6.276   4.073   7.372  0.9189 -1.2134 -3.1248
  187SLPC   C2621546   6.295   4.260   7.484  0.0942 -0.7905  0.6297
  187SLPC   H6R21547   6.188   4.276   7.509 -0.0441  3.5125 -1.7810
  187SLPC   H6S21548   6.335   4.362   7.466 -1.2775 -0.2957  0.2942
  187SLPC   C2721549   6.383   4.212   7.604 -0.1734  0.2854 -0.1019
  187SLPC   H7R21550   6.485   4.252   7.586 -0.7047  2.4387  1.2791
  187SLPC   H7S21551   6.389   4.102   7.593 -1.2322  0.3453 -1.5465
  187SLPC   C2821552   6.320   4.261   7.732 -0.3348  0.0980 -0.3878
  187SLPC   H8R21553   6.227   4.203   7.746 -0.9374  0.4065 -2.6910
  187SLPC   H8S21554   6.302   4.371   7.731  1.8867  0.5218 -1.5154
  187SLPC   C2921555   6.425   4.225   7.834  0.2872  0.2994 -1.2275
  187SLPC   H9R21556   6.499   4.148   7.810 -2.0389 -2.0907 -1.1408
  187SLPC  C21021557   6.421   4.281   7.954 -0.0710 -0.6867 -0.3537
  187SLPC  H10R21558   6.504   4.267   8.025 -0.7910 -3.0584  0.1204
  187SLPC  C21121559   6.325   4.386   8.010 -0.4946  0.3076 -0.7240
  187SLPC  H11R21560   6.306   4.457   7.927  2.2186 -1.2592 -2.8592
  187SLPC  H11S21561   6.378   4.437   8.094  0.1282  1.0723 -1.5668
  187SLPC  C21221562   6.202   4.326   8.064 -0.3498 -0.2227 -0.2168
  187SLPC  H12R21563   6.204   4.223   8.102  0.9747  0.1564  0.8112
  187SLPC  C21321564   6.082   4.392   8.064  0.6618  0.1257  0.0802
  187SLPC  H13R21565   5.993   4.335   8.094  1.1518 -1.1799 -0.8719
  187SLPC  C21421566   6.055   4.531   8.011  0.3300  0.8655 -0.5417
  187SLPC  H14R21567   6.142   4.599   8.004 -0.2524  1.5646 -1.1925
  187SLPC  H14S21568   5.971   4.587   8.058  1.1103  0.7866  1.0210
  187SLPC  C21521569   6.023   4.504   7.857 -0.8163 -0.3216 -1.2791
  187SLPC  H15R21570   5.928   4.454   7.831  0.0064 -2.0000 -1.1523
  187SLPC  H15S21571   6.100   4.430   7.826 -0.5140 -0.0126 -1.2775
  187SLPC  C21621572   6.031   4.640   7.780 -0.2825 -0.8059  0.0073
  187SLPC  H16R21573   6.130   4.685   7.802 -1.1668  0.4877  1.5740
  187SLPC  H16S21574   5.951   4.700   7.827  1.2973  0.6617  0.9476
  187SLPC  C21721575   6.018   4.613   7.634  0.3952 -0.5212  0.4713
  187SLPC  H17R21576   5.922   4.562   7.610  0.7932 -1.1135  0.1115
  187SLPC  H17S21577   6.080   4.527   7.604  0.1015 -1.2462  1.8470
  187SLPC  C21821578   6.056   4.741   7.563 -0.6127 -0.3903 -0.0129
  187SLPC  H18R21579   6.148   4.792   7.600 -0.7450  1.8055 -2.4340
  187SLPC  H18S21580   5.975   4.810   7.593  0.3865  0.3365  1.1033
  187SLPC  H18T21581   6.070   4.725   7.454  2.5085  0.7887  0.1216
  187SLPC   C3321582   6.660   4.499   7.045 -0.4816  0.1533  0.1959
  187SLPC   H3X21583   6.688   4.607   7.049 -0.6682  0.1715  1.0931
  187SLPC   H3Y21584   6.712   4.459   6.955  3.1713  1.6060  1.4645
  187SLPC   C3421585   6.722   4.422   7.171 -0.4512 -0.4367  0.5690
  187SLPC   H4X21586   6.832   4.425   7.158  0.0494 -1.3838  3.8286
  187SLPC   H4Y21587   6.673   4.323   7.165  0.0347 -0.8251  2.3764
  187SLPC   C3521588   6.692   4.491   7.304 -0.0798 -0.3063  0.1991
  187SLPC   H5X21589   6.582   4.500   7.318  0.3642  2.1723  2.9901
  187SLPC   H5Y21590   6.723   4.598   7.308 -0.4568 -0.2303  1.3955
  187SLPC   C3621591   6.763   4.415   7.416  0.2732 -0.6614  0.0059
  187SLPC   H6X21592   6.873   4.413   7.407  0.3122  0.0110  0.2808
  187SLPC   H6Y21593   6.720   4.313   7.419  1.5520 -1.1895  0.8308
  187SLPC   C3721594   6.727   4.479   7.551  0.4893  0.3364 -0.3724
  187SLPC   H7X21595   6.770   4.580   7.571  0.8291  0.3078 -0.9377
  187SLPC   H7Y21596   6.616   4.482   7.555  0.4410  1.4966 -1.9778
  187SLPC   C3821597   6.783   4.391   7.671  0.1040  0.3537  0.6707
  187SLPC   H8X21598   6.891   4.416   7.672  0.0513  1.0462 -1.8975
  187SLPC   H8Y21599   6.778   4.284   7.641 -1.5500  0.5956 -0.0509
  187SLPC   C3921600   6.716   4.429   7.805 -0.7038  0.1372  0.1650
  187SLPC   H9X21601   6.607   4.428   7.784 -1.0524 -3.8324  1.4156
  187SLPC   H9Y21602   6.749   4.534   7.818 -0.6122  0.2879 -1.1505
  187SLPC  C31021603   6.754   4.342   7.919 -0.3934 -0.2709  0.7316
  187SLPC  H10X21604   6.861   4.311   7.922 -0.6491 -1.3809  4.6694
  187SLPC  H10Y21605   6.690   4.252   7.933 -1.1039 -0.1087 -1.2041
  187SLPC  C31121606   6.732   4.414   8.057  0.1444 -0.0465  0.2391
  187SLPC  H11X21607   6.622   4.424   8.070  0.3792 -0.7244  3.7314
  187SLPC  H11Y21608   6.775   4.517   8.060  1.3758 -0.5435  0.6875
  187SLPC  C31221609   6.788   4.324   8.172 -0.3938  0.1358 -0.3119
  187SLPC  H12X21610   6.897   4.326   8.151 -0.2964 -2.0863 -0.2647
  187SLPC  H12Y21611   6.742   4.226   8.152  0.8234 -0.7754  1.1076
  187SLPC  C31321612   6.759   4.385   8.308 -0.1290 -0.8099 -0.3155
  187SLPC  H13X21613   6.651   4.390   8.335  0.0208 -1.3651  0.4010
  187SLPC  H13Y21614   6.793   4.490   8.298 -2.1425 -0.0555  0.2330
  187SLPC  C31421615   6.812   4.303   8.423 -0.5098 -0.3028 -0.0746
  187SLPC  H14X21616   6.792   4.353   8.520 -4.0088  0.7535 -1.1685
  187SLPC  H14Y21617   6.923   4.296   8.420 -0.4921 -0.5215  0.9736
  187SLPC  C31521618   6.782   4.158   8.423 -0.0622  1.2443  0.0918
  187SLPC  H15X21619   6.847   4.100   8.354  0.6932 -1.1756  2.6546
  187SLPC  H15Y21620   6.678   4.144   8.385 -0.0348  0.3718  0.3077
  187SLPC  C31621621   6.796   4.104   8.563  0.4017 -0.5321 -0.6422
  187SLPC  H16X21622   6.717   4.143   8.631 -1.2546 -2.3481 -1.4283
  187SLPC  H16Y21623   6.892   4.143   8.601 -0.0419  0.3207 -0.3805
  187SLPC  C31721624   6.793   3.948   8.583  0.3710  0.2149 -0.2766
  187SLPC  H17X21625   6.804   3.936   8.694 -1.5251 -0.2746 -0.1126
  187SLPC  H17Y21626   6.886   3.904   8.540  1.5334  0.3850  1.8706
  187SLPC  C31821627   6.671   3.882   8.513 -0.2371 -0.2232 -0.5150
  187SLPC  H18X21628   6.667   3.903   8.404 -1.7425 -0.4628 -0.5273
  187SLPC  H18Y21629   6.577   3.923   8.556 -0.6223 -0.1834 -1.3629
  187SLPC  H18Z21630   6.682   3.772   8.520 -0.3998 -0.1642  0.9379
  188SLPC     N21631   0.686   6.756   6.448  0.3153 -0.2079  0.1162
  188SLPC   C1321632   0.610   6.865   6.518  0.2168 -0.0618  0.1870
  188SLPC  H13A21633   0.577   6.842   6.619 -0.0892  2.6738  0.7801
  188SLPC  H13B21634   0.655   6.962   6.503  1.7155 -0.3972  2.0779
  188SLPC  H13C21635   0.514   6.873   6.468  0.4249 -1.6969 -0.5599
  188SLPC   C1421636   0.830   6.768   6.486 -0.0494 -0.4343 -0.1766
  188SLPC  H14A21637   0.888   6.689   6.440 -1.3031 -1.3168 -0.3013
  188SLPC  H14B21638   0.867   6.866   6.461  0.6523 -0.3314  1.1200
  188SLPC  H14C21639   0.834   6.751   6.593  1.2946 -1.3411 -0.3471
  188SLPC   C1521640   0.670   6.773   6.304  0.3191  0.2928 -0.6019
  188SLPC  H15A21641   0.734   6.845   6.255 -0.7844  0.7927 -1.3440
  188SLPC  H15B21642   0.674   6.675   6.257 -0.8040 -0.4673  0.7992
  188SLPC  H15C21643   0.576   6.818   6.277  1.3069  1.7675 -1.7557
  188SLPC   C1221644   0.637   6.619   6.487  0.5154 -0.2192  0.1749
  188SLPC  H12A21645   0.529   6.616   6.483  0.5113 -0.8211  0.5347
  188SLPC  H12B21646   0.656   6.601   6.592 -1.0917  0.2844  0.5817
  188SLPC   C1121647   0.687   6.492   6.410 -0.8488 -0.1597 -0.4414
  188SLPC  H11A21648   0.657   6.513   6.305  0.9044  0.1509 -0.9189
  188SLPC  H11B21649   0.627   6.407   6.446 -0.4882  0.5774  2.0574
  188SLPC     P21650   0.903   6.355   6.464 -0.0267  0.3796  0.1900
  188SLPC   O1321651   0.861   6.228   6.400  0.4639 -0.8866  0.3994
  188SLPC   O1421652   1.051   6.377   6.466  0.5718  0.5471 -0.1634
  188SLPC   O1221653   0.831   6.473   6.402 -0.0923 -0.2086  0.1004
  188SLPC   O1121654   0.852   6.362   6.608  0.1714  0.3813 -0.0721
  188SLPC    C121655   0.894   6.462   6.704 -0.7620  0.1339  0.0333
  188SLPC    HA21656   0.953   6.545   6.659 -1.5298  1.6431  1.6931
  188SLPC    HB21657   0.807   6.518   6.745 -0.6435  0.9973 -0.8562
  188SLPC    C221658   0.982   6.402   6.815 -0.4933 -0.1853 -0.3886
  188SLPC    HS21659   0.971   6.292   6.818  0.1596 -0.2251  1.7430
  188SLPC   O2121660   0.937   6.450   6.943  0.3219 -0.1288  0.4737
  188SLPC   C2121661   0.828   6.388   6.992  1.1431  0.2028 -0.2672
  188SLPC   O2221662   0.784   6.285   6.944  0.5061 -0.5206  0.4517
  188SLPC   C2221663   0.774   6.459   7.113 -0.0859  0.5627  0.1071
  188SLPC   H2R21664   0.818   6.561   7.116 -1.1406  1.0364  0.0821
  188SLPC   H2S21665   0.665   6.470   7.097 -0.5326 -0.9819  1.7690
  188SLPC    C321666   1.137   6.417   6.798 -0.8978 -0.0942  0.6408
  188SLPC    HX21667   1.155   6.527   6.793 -1.4028 -0.0421 -0.7418
  188SLPC    HY21668   1.164   6.388   6.694  0.4973 -0.4695  1.0805
  188SLPC   O3121669   1.208   6.352   6.898 -0.6044  0.3297 -0.0029
  188SLPC   C3121670   1.315   6.281   6.875 -0.5180 -0.1067  0.2615
  188SLPC   O3221671   1.372   6.270   6.769 -0.2588 -0.4061  0.3955
  188SLPC   C3221672   1.362   6.220   7.009  0.3254 -0.6754  0.3205
  188SLPC   H2X21673   1.473   6.219   7.005  0.2934 -0.6021 -0.9043
  188SLPC   H2Y21674   1.328   6.114   7.014 -0.1948 -0.4845  1.0820
  188SLPC   C2321675   0.800   6.382   7.241 -0.4244 -0.2163  0.9775
  188SLPC   H3R21676   0.907   6.395   7.267 -0.4809 -1.9027  2.2365
  188SLPC   H3S21677   0.787   6.272   7.224  0.1064 -0.0207 -0.8814
  188SLPC   C2421678   0.724   6.422   7.366 -0.1492  0.3369  0.0919
  188SLPC   H4R21679   0.751   6.522   7.407 -3.2792  0.2687  2.6653
  188SLPC   H4S21680   0.747   6.338   7.434 -0.8466 -0.1318 -0.2402
  188SLPC   C2521681   0.576   6.425   7.347 -0.7026 -0.3968 -0.4445
  188SLPC   H5R21682   0.537   6.327   7.312 -0.9321 -0.5616  0.2616
  188SLPC   H5S21683   0.543   6.495   7.267 -1.9290  0.6617  0.9303
  188SLPC   C2621684   0.501   6.474   7.479 -0.3310  0.2927  0.6144
  188SLPC   H6R21685   0.544   6.573   7.505  2.4412 -0.2954 -1.3415
  188SLPC   H6S21686   0.528   6.401   7.558  1.7017 -1.8959 -1.8988
  188SLPC   C2721687   0.352   6.476   7.458 -0.2696 -0.0295  0.0890
  188SLPC   H7R21688   0.320   6.370   7.449 -0.2552  0.1562 -2.9679
  188SLPC   H7S21689   0.326   6.519   7.359  0.7059  0.3236 -0.0268
  188SLPC   C2821690   0.272   6.541   7.580 -0.8035 -0.7016  0.8373
  188SLPC   H8R21691   0.308   6.485   7.669  0.7194  1.1142  1.4427
  188SLPC   H8S21692   0.167   6.513   7.561 -0.9449 -0.5769  1.4149
  188SLPC   C2921693   0.284   6.693   7.605 -0.5391  0.5641 -0.7152
  188SLPC   H9R21694   0.296   6.765   7.522 -0.8993  1.8906  0.3551
  188SLPC  C21021695   0.270   6.745   7.731 -0.2556  0.1637 -0.6953
  188SLPC  H10R21696   0.259   6.855   7.734 -0.5508  0.1191  0.1878
  188SLPC  C21121697   0.245   6.658   7.858  0.9836  0.7010 -0.2685
  188SLPC  H11R21698   0.340   6.604   7.880  0.5573 -1.3543 -2.9456
  188SLPC  H11S21699   0.179   6.574   7.831  1.8914 -0.4993  1.0945
  188SLPC  C21221700   0.197   6.742   7.975  0.5001 -0.3229 -0.1572
  188SLPC  H12R21701   0.212   6.850   7.962 -0.5231 -0.3282 -1.5815
  188SLPC  C21321702   0.165   6.702   8.098  0.3149  0.1449  0.6323
  188SLPC  H13R21703   0.126   6.770   8.175  0.4236 -0.8065  1.5565
  188SLPC  C21421704   0.167   6.557   8.142 -0.0423  0.0972  0.3945
  188SLPC  H14R21705   0.219   6.561   8.240 -2.1137  2.0409  1.5080
  188SLPC  H14S21706   0.206   6.479   8.073 -0.5808 -0.6556  0.9276
  188SLPC  C21521707   0.027   6.507   8.172 -0.4848  0.2387  0.6830
  188SLPC  H15R21708  -0.038   6.499   8.082 -1.4765  0.0002  1.4001
  188SLPC  H15S21709  -0.030   6.577   8.238 -1.0543 -0.1716  0.6378
  188SLPC  C21621710   0.025   6.367   8.247 -0.6880  0.6892  0.8253
  188SLPC  H16R21711   0.099   6.304   8.193 -1.8115  1.2395 -1.4855
  188SLPC  H16S21712  -0.071   6.312   8.246  0.0125 -0.5635  0.2555
  188SLPC  C21721713   0.071   6.385   8.395  0.0340 -0.8739  0.6445
  188SLPC  H17R21714  -0.001   6.454   8.444 -0.2529 -1.8849  1.6717
  188SLPC  H17S21715   0.172   6.431   8.408 -0.9587  1.2882  1.1927
  188SLPC  C21821716   0.086   6.255   8.468 -0.3841 -0.3961  0.0479
  188SLPC  H18R21717   0.173   6.209   8.418  1.7495  1.5893  1.7233
  188SLPC  H18S21718  -0.007   6.198   8.445 -0.9180 -0.3350  1.8338
  188SLPC  H18T21719   0.102   6.258   8.578 -0.1138 -1.4527  0.0482
  188SLPC   C3321720   1.302   6.298   7.131  0.0720 -0.4969  0.5163
  188SLPC   H3X21721   1.193   6.282   7.144 -0.2271  0.9561  0.0728
  188SLPC   H3Y21722   1.316   6.407   7.111 -0.3537 -0.9573 -2.9383
  188SLPC   C3421723   1.383   6.267   7.257 -0.5754 -0.0432  0.0849
  188SLPC   H4X21724   1.491   6.284   7.235  0.1000 -2.5764  1.0156
  188SLPC   H4Y21725   1.364   6.163   7.292 -0.1797 -0.3847 -0.6857
  188SLPC   C3521726   1.346   6.362   7.369  0.4080 -0.2821 -0.0127
  188SLPC   H5X21727   1.238   6.360   7.394  0.6562  0.6630  1.2314
  188SLPC   H5Y21728   1.366   6.464   7.331 -2.9760  0.2221 -0.6985
  188SLPC   C3621729   1.412   6.335   7.504 -0.0724 -0.6677 -0.4321
  188SLPC   H6X21730   1.518   6.369   7.502  0.3654 -1.9749 -2.3020
  188SLPC   H6Y21731   1.419   6.224   7.508 -1.3712 -0.7896 -1.0582
  188SLPC   C3721732   1.330   6.383   7.628  0.5303 -0.4537  0.0700
  188SLPC   H7X21733   1.221   6.397   7.612  0.6497  2.9541  1.4324
  188SLPC   H7Y21734   1.357   6.488   7.650 -2.2728  0.4145 -0.3198
  188SLPC   C3821735   1.360   6.306   7.751 -0.0674  0.6142 -0.5714
  188SLPC   H8X21736   1.468   6.296   7.772 -0.2370  0.3172  0.1952
  188SLPC   H8Y21737   1.319   6.205   7.728  2.3326 -0.1950 -1.6871
  188SLPC   C3921738   1.284   6.361   7.881 -0.5000  0.0174 -0.7929
  188SLPC   H9X21739   1.179   6.393   7.867 -0.2474  1.2610 -0.0522
  188SLPC   H9Y21740   1.332   6.459   7.905 -1.3428  0.3579 -0.4844
  188SLPC  C31021741   1.289   6.266   8.003 -0.9899  0.5399  0.0652
  188SLPC  H10X21742   1.390   6.229   8.033 -1.2140 -0.2611 -0.1448
  188SLPC  H10Y21743   1.230   6.175   7.978  1.3954 -1.0188 -0.2362
  188SLPC  C31121744   1.244   6.341   8.122 -0.1499 -0.4759  0.2731
  188SLPC  H11X21745   1.303   6.435   8.126  2.4574 -2.0276  0.6271
  188SLPC  H11Y21746   1.266   6.288   8.218  0.5443  0.7018  0.7910
  188SLPC  C31221747   1.085   6.349   8.135 -0.2756  0.0070 -0.4729
  188SLPC  H12X21748   1.039   6.250   8.116  0.2428 -0.9040  2.4766
  188SLPC  H12Y21749   1.039   6.431   8.076 -1.5485  2.8204  3.8694
  188SLPC  C31321750   1.051   6.379   8.280 -0.0288 -0.0357 -0.0365
  188SLPC  H13X21751   1.123   6.462   8.297  1.6158 -0.7603 -2.8418
  188SLPC  H13Y21752   1.084   6.293   8.343 -0.4485 -1.4301 -1.6684
  188SLPC  C31421753   0.911   6.409   8.324  0.0400  0.6953 -0.3818
  188SLPC  H14X21754   0.893   6.512   8.284  1.2809  0.9851 -0.2352
  188SLPC  H14Y21755   0.916   6.424   8.434  0.5486 -1.4329 -0.0807
  188SLPC  C31521756   0.807   6.312   8.280 -0.4193 -0.3192  0.5601
  188SLPC  H15X21757   0.838   6.207   8.299 -0.6777 -0.9338 -2.0534
  188SLPC  H15Y21758   0.807   6.307   8.169  1.3914 -4.7316  0.5321
  188SLPC  C31621759   0.672   6.344   8.330 -0.5451  0.0163  0.6859
  188SLPC  H16X21760   0.651   6.453   8.327 -0.2322  0.0530 -1.2051
  188SLPC  H16Y21761   0.655   6.321   8.437  0.1590  1.7290  1.1986
  188SLPC  C31721762   0.560   6.280   8.247  0.3895  0.2995 -0.4550
  188SLPC  H17X21763   0.564   6.170   8.259 -0.9547  0.1187 -1.3876
  188SLPC  H17Y21764   0.582   6.299   8.139  2.3922 -0.9316 -0.3145
  188SLPC  C31821765   0.420   6.341   8.275  0.4389  0.3572 -0.2587
  188SLPC  H18X21766   0.417   6.446   8.238  1.8246  0.7178  0.5793
  188SLPC  H18Y21767   0.398   6.327   8.383 -0.2322 -0.6629 -0.5048
  188SLPC  H18Z21768   0.342   6.286   8.217 -0.9505  1.8550  0.1098
  189SLPC     N21769   4.660   0.322   6.492 -0.2331 -0.0778 -0.1364
  189SLPC   C1321770   4.631   0.305   6.346 -0.4628 -0.0104 -0.0342
  189SLPC  H13A21771   4.687   0.223   6.304 -0.2376  0.7121 -1.2134
  189SLPC  H13B21772   4.526   0.294   6.326 -0.4940 -0.4900  0.3793
  189SLPC  H13C21773   4.670   0.394   6.299  0.1935  0.5755  1.5704
  189SLPC   C1421774   4.618   0.195   6.562  0.0146 -0.3850 -0.3619
  189SLPC  H14A21775   4.639   0.201   6.667 -0.6349 -2.0436 -0.1006
  189SLPC  H14B21776   4.519   0.169   6.530 -1.1236  1.8414  1.1307
  189SLPC  H14C21777   4.680   0.111   6.531  0.2197 -0.8300  1.1935
  189SLPC   C1521778   4.577   0.428   6.547  0.0728 -0.2666 -0.0175
  189SLPC  H15A21779   4.602   0.523   6.500  3.2644 -1.2927 -0.6566
  189SLPC  H15B21780   4.472   0.409   6.534  0.1412  0.4198 -1.9471
  189SLPC  H15C21781   4.609   0.444   6.649  0.6382 -0.0617 -0.2222
  189SLPC   C1221782   4.807   0.349   6.517 -0.1269 -0.1054  0.8286
  189SLPC  H12A21783   4.863   0.257   6.506 -0.6809 -0.1990 -2.0582
  189SLPC  H12B21784   4.820   0.390   6.616  3.5598  0.7227  0.1474
  189SLPC   C1121785   4.872   0.447   6.416 -0.5761  0.0309  0.0546
  189SLPC  H11A21786   4.822   0.544   6.438 -2.2194 -0.5952 -0.7163
  189SLPC  H11B21787   4.853   0.407   6.314  0.4415 -0.0902 -0.0941
  189SLPC     P21788   5.094   0.519   6.541  0.3900 -0.3667 -0.1055
  189SLPC   O1321789   5.175   0.416   6.604 -0.0165 -0.1615  0.1148
  189SLPC   O1421790   5.157   0.646   6.495 -0.2837 -0.1418 -0.3335
  189SLPC   O1221791   5.012   0.445   6.432 -0.1446  0.2262  0.5146
  189SLPC   O1121792   4.990   0.568   6.646 -0.4441  0.5413  0.7248
  189SLPC    C121793   4.924   0.686   6.666  0.3699 -0.6313  0.0534
  189SLPC    HA21794   4.913   0.738   6.569 -0.7877 -0.7520  0.1109
  189SLPC    HB21795   4.817   0.668   6.687 -0.0562  0.3680 -1.1807
  189SLPC    C221796   4.995   0.769   6.780  0.6251  0.0859  0.1634
  189SLPC    HS21797   5.105   0.768   6.763  0.6554 -0.1283  0.3607
  189SLPC   O2121798   4.939   0.702   6.899  0.2612 -0.9946  0.4540
  189SLPC   C2121799   5.032   0.679   6.990 -1.1486 -0.1906  0.1853
  189SLPC   O2221800   5.141   0.739   7.000  0.1618 -0.4474  0.5101
  189SLPC   C2221801   4.985   0.585   7.097  0.5549 -0.2446 -0.3301
  189SLPC   H2R21802   4.894   0.627   7.147  0.7733 -0.5243  0.3114
  189SLPC   H2S21803   4.959   0.488   7.050  1.7165  0.1301 -1.8337
  189SLPC    C321804   4.951   0.916   6.770  0.7615  0.1556 -0.0761
  189SLPC    HX21805   4.841   0.913   6.785  0.8471  0.5433  0.6750
  189SLPC    HY21806   4.972   0.963   6.672  0.0251 -0.9380 -0.7733
  189SLPC   O3121807   5.015   0.997   6.873 -0.0950 -0.4267 -0.1931
  189SLPC   C3121808   5.135   1.032   6.842  0.4012 -0.1424  0.4359
  189SLPC   O3221809   5.207   1.001   6.743 -0.0856  0.4142  0.2372
  189SLPC   C3221810   5.203   1.108   6.960 -0.1574 -0.5441  0.2617
  189SLPC   H2X21811   5.181   1.215   6.939  1.0587 -0.2948  0.1990
  189SLPC   H2Y21812   5.310   1.082   6.943  0.3307  0.5982  1.3748
  189SLPC   C2321813   5.098   0.561   7.195 -0.0377  0.5844 -0.5801
  189SLPC   H3R21814   5.122   0.659   7.243  1.2071  0.6891 -1.3781
  189SLPC   H3S21815   5.186   0.519   7.142  1.6657 -0.4242  2.7598
  189SLPC   C2421816   5.069   0.459   7.310  0.2816  0.1817 -0.8083
  189SLPC   H4R21817   5.156   0.421   7.367 -0.3325  1.4957  1.1041
  189SLPC   H4S21818   5.017   0.367   7.277 -0.0891 -0.3519  1.1386
  189SLPC   C2521819   4.979   0.519   7.421 -0.6052 -0.2906 -0.1165
  189SLPC   H5R21820   4.877   0.556   7.398 -0.6702  2.5596  3.7537
  189SLPC   H5S21821   5.046   0.603   7.450 -0.4104 -0.5174  0.0959
  189SLPC   C2621822   4.981   0.434   7.548  0.7616  0.6570  0.2225
  189SLPC   H6R21823   5.086   0.409   7.574  0.6413  0.1496  0.2191
  189SLPC   H6S21824   4.932   0.338   7.524  1.0460  1.3151 -3.7572
  189SLPC   C2721825   4.902   0.503   7.659 -0.2085  0.4869 -0.7035
  189SLPC   H7R21826   4.805   0.528   7.612 -1.1577 -2.4208 -0.4545
  189SLPC   H7S21827   4.962   0.595   7.678  0.8537 -0.5663  1.3506
  189SLPC   C2821828   4.876   0.419   7.789 -0.1018 -0.5943 -0.1601
  189SLPC   H8R21829   4.810   0.331   7.774 -0.1754 -0.4331 -0.8205
  189SLPC   H8S21830   4.821   0.486   7.859 -0.2780  0.3580 -1.1747
  189SLPC   C2921831   5.003   0.368   7.846 -0.7242 -0.4717 -0.3990
  189SLPC   H9R21832   5.075   0.326   7.774  1.2249 -1.0551  1.7748
  189SLPC  C21021833   5.054   0.406   7.965  0.0009  0.0586 -0.2546
  189SLPC  H10R21834   5.151   0.366   7.999  0.3300 -0.2005 -1.4536
  189SLPC  C21121835   4.969   0.482   8.068  1.0355  0.0123  0.6361
  189SLPC  H11R21836   4.938   0.580   8.027 -3.7349 -1.8352 -0.8609
  189SLPC  H11S21837   5.044   0.505   8.146  0.3244 -2.3957  2.1344
  189SLPC  C21221838   4.851   0.406   8.126 -0.4069 -0.1554 -0.6098
  189SLPC  H12R21839   4.804   0.329   8.063 -0.7474 -2.2579  2.0051
  189SLPC  C21321840   4.799   0.429   8.252 -0.0284 -0.0371  0.1833
  189SLPC  H13R21841   4.718   0.358   8.274  1.1950 -2.6698 -2.8679
  189SLPC  C21421842   4.861   0.518   8.353 -0.6506 -0.3146 -0.2088
  189SLPC  H14R21843   4.808   0.615   8.363 -0.1409 -0.1695  1.3154
  189SLPC  H14S21844   4.968   0.542   8.334 -0.7603  0.6551  0.3562
  189SLPC  C21521845   4.862   0.463   8.495  0.4734 -0.2747 -1.2056
  189SLPC  H15R21846   4.753   0.464   8.516  0.0743  1.1279 -3.0974
  189SLPC  H15S21847   4.909   0.536   8.564 -1.0088  0.3465 -0.8252
  189SLPC  C21621848   4.939   0.332   8.510  0.1176  0.6583 -0.0919
  189SLPC  H16R21849   5.033   0.339   8.450  0.2120 -0.7751 -0.1530
  189SLPC  H16S21850   4.875   0.253   8.466 -0.5462  0.8447  0.5364
  189SLPC  C21721851   4.970   0.296   8.648  0.1257 -0.9550  0.3636
  189SLPC  H17R21852   4.884   0.333   8.708  0.2246 -0.4289  0.1874
  189SLPC  H17S21853   5.056   0.352   8.689  0.6299 -1.2586 -0.2685
  189SLPC  C21821854   4.983   0.146   8.668 -1.0025  0.3708 -0.2690
  189SLPC  H18R21855   5.072   0.112   8.611 -1.0039 -0.5576  0.2628
  189SLPC  H18S21856   4.893   0.082   8.653 -0.8769 -0.1124  0.9253
  189SLPC  H18T21857   5.000   0.124   8.776  0.5281 -1.1796 -0.7698
  189SLPC   C3321858   5.171   1.079   7.103  0.5344  0.0261  0.3149
  189SLPC   H3X21859   5.210   0.976   7.116 -1.6042 -0.8541 -0.0152
  189SLPC   H3Y21860   5.062   1.068   7.121  0.7341 -1.7067  0.6010
  189SLPC   C3421861   5.232   1.162   7.215 -0.0823 -0.1459 -0.7121
  189SLPC   H4X21862   5.202   1.268   7.200  0.6250  0.2925  0.8657
  189SLPC   H4Y21863   5.342   1.156   7.215 -0.0081 -0.4588  2.8773
  189SLPC   C3521864   5.172   1.125   7.353  0.1350  0.7400  0.4065
  189SLPC   H5X21865   5.200   1.019   7.369 -0.5697  0.6944  1.4319
  189SLPC   H5Y21866   5.061   1.118   7.354  0.2147 -1.0582  1.6544
  189SLPC   C3621867   5.231   1.198   7.465 -0.0732 -0.2190  0.0628
  189SLPC   H6X21868   5.202   1.305   7.455  1.0068  0.0169 -0.6456
  189SLPC   H6Y21869   5.342   1.187   7.463 -0.0429  0.0931 -0.0571
  189SLPC   C3721870   5.194   1.153   7.608  0.5423 -0.2584  0.2215
  189SLPC   H7X21871   5.223   1.046   7.607  0.3468 -0.3150  0.3734
  189SLPC   H7Y21872   5.087   1.170   7.636  0.7718  0.6972  0.5876
  189SLPC   C3821873   5.273   1.227   7.716  0.3548 -0.3434  1.1558
  189SLPC   H8X21874   5.275   1.337   7.704 -0.4915 -0.4809 -0.5666
  189SLPC   H8Y21875   5.378   1.195   7.702  0.6646  0.4077  1.6687
  189SLPC   C3921876   5.225   1.195   7.860  0.2412 -0.2593 -0.0866
  189SLPC   H9X21877   5.236   1.085   7.876  3.6997  0.1352  1.2459
  189SLPC   H9Y21878   5.117   1.220   7.867  0.4220  0.6193 -0.4056
  189SLPC  C31021879   5.300   1.282   7.966  0.6871 -0.2108 -0.2958
  189SLPC  H10X21880   5.268   1.387   7.953  0.0597 -0.3364  0.1900
  189SLPC  H10Y21881   5.410   1.276   7.950  0.7638 -0.8070  0.3801
  189SLPC  C31121882   5.267   1.235   8.113 -0.6699 -0.0355 -0.1132
  189SLPC  H11X21883   5.320   1.139   8.128  0.3576  0.7217  1.3210
  189SLPC  H11Y21884   5.157   1.227   8.126 -0.7130 -0.2640 -0.6035
  189SLPC  C31221885   5.327   1.335   8.210 -0.1734  0.2848 -0.1534
  189SLPC  H12X21886   5.287   1.435   8.180 -0.0606 -0.5047 -3.2351
  189SLPC  H12Y21887   5.438   1.332   8.208 -0.1895 -0.1285 -0.3680
  189SLPC  C31321888   5.288   1.314   8.358  0.0644  0.8350  0.8367
  189SLPC  H13X21889   5.333   1.219   8.393  1.4290  0.9998 -0.3517
  189SLPC  H13Y21890   5.179   1.293   8.363  0.0808  0.4700 -0.0547
  189SLPC  C31421891   5.333   1.427   8.445  0.2400  0.1416  0.3459
  189SLPC  H14X21892   5.315   1.527   8.400  0.6987  0.8070  1.5812
  189SLPC  H14Y21893   5.443   1.413   8.442  0.1015 -0.7509 -1.2029
  189SLPC  C31521894   5.273   1.412   8.585 -0.4051  0.3913 -0.6207
  189SLPC  H15X21895   5.288   1.306   8.617 -1.2763 -0.5701 -3.1555
  189SLPC  H15Y21896   5.163   1.422   8.585 -0.5998 -0.6407  2.4883
  189SLPC  C31621897   5.340   1.499   8.694 -0.3936  0.3568  0.9216
  189SLPC  H16X21898   5.330   1.605   8.665 -2.8984 -0.2068 -0.5700
  189SLPC  H16Y21899   5.449   1.483   8.684  0.0797  3.1123  0.8713
  189SLPC  C31721900   5.294   1.479   8.839 -0.3545 -0.2763 -0.0711
  189SLPC  H17X21901   5.298   1.369   8.855 -2.6228 -0.2104  1.3192
  189SLPC  H17Y21902   5.188   1.510   8.848 -0.0326  0.5013  1.3714
  189SLPC  C31821903   5.379   1.549   8.944  0.0326 -0.7282 -1.0981
  189SLPC  H18X21904   5.486   1.524   8.926  0.5806 -0.7081  1.7494
  189SLPC  H18Y21905   5.350   1.518   9.046  3.1280  1.2387  0.5192
  189SLPC  H18Z21906   5.371   1.660   8.936  4.4532  0.0166  1.6110
  190SLPC     N21907   4.122   6.306   6.232  0.1516 -0.7245 -0.3380
  190SLPC   C1321908   4.085   6.175   6.174  0.5311 -0.2984 -0.0295
  190SLPC  H13A21909   4.107   6.180   6.069  0.8211  0.0306  0.0478
  190SLPC  H13B21910   4.142   6.092   6.212  0.0704 -0.5461  0.1309
  190SLPC  H13C21911   3.978   6.156   6.174 -0.0851  2.6284 -1.4941
  190SLPC   C1421912   4.025   6.413   6.183  0.5133 -0.2486  0.8182
  190SLPC  H14A21913   4.016   6.420   6.075  0.2320 -0.0263  0.8560
  190SLPC  H14B21914   3.922   6.397   6.211  0.4025 -2.2926 -0.5102
  190SLPC  H14C21915   4.063   6.509   6.213 -0.3317  0.2277  0.3900
  190SLPC   C1521916   4.265   6.338   6.193  0.1758  0.0553 -0.1260
  190SLPC  H15A21917   4.271   6.359   6.087 -0.9947 -1.6583 -0.5658
  190SLPC  H15B21918   4.303   6.425   6.244 -1.2088 -0.6252  2.2031
  190SLPC  H15C21919   4.331   6.256   6.216 -0.6939 -0.9973 -1.2600
  190SLPC   C1221920   4.113   6.306   6.378 -0.3180 -0.4421 -0.1282
  190SLPC  H12A21921   4.182   6.237   6.425 -0.5998  0.7797  2.2309
  190SLPC  H12B21922   4.013   6.279   6.407 -1.1424  2.0296 -0.4166
  190SLPC   C1121923   4.140   6.441   6.462 -0.3533  0.2761  0.7746
  190SLPC  H11A21924   4.120   6.414   6.568  1.0845 -0.0923  0.9669
  190SLPC  H11B21925   4.062   6.519   6.443  0.8287  1.4955  0.7582
  190SLPC     P21926   4.401   6.431   6.521 -0.0067 -0.4942  0.3587
  190SLPC   O1321927   4.411   6.292   6.484  0.1798  0.5711  0.1634
  190SLPC   O1421928   4.520   6.509   6.487 -0.1333  0.0704  0.2212
  190SLPC   O1221929   4.272   6.491   6.453 -0.0152 -0.2739 -0.0459
  190SLPC   O1121930   4.366   6.437   6.673  0.0440  0.1450 -0.4973
  190SLPC    C121931   4.327   6.558   6.729 -0.5873  0.7569 -0.1267
  190SLPC    HA21932   4.397   6.637   6.694 -0.5413 -0.2192 -2.3833
  190SLPC    HB21933   4.224   6.579   6.694 -0.5094  0.2107 -0.6973
  190SLPC    C221934   4.335   6.537   6.888 -0.0255  0.3008 -0.6920
  190SLPC    HS21935   4.290   6.626   6.937 -0.2673  0.0168 -0.3915
  190SLPC   O2121936   4.468   6.515   6.940 -0.4225 -0.0277 -0.4720
  190SLPC   C2121937   4.547   6.620   6.932  0.5334  0.5190  0.1197
  190SLPC   O2221938   4.517   6.731   6.897  0.4454 -0.5054 -0.5591
  190SLPC   C2221939   4.686   6.581   6.983 -0.1006  0.1052 -0.2113
  190SLPC   H2R21940   4.702   6.476   7.017 -1.7553 -0.7803 -2.0330
  190SLPC   H2S21941   4.748   6.578   6.891 -0.4873 -2.9014 -0.4711
  190SLPC    C321942   4.245   6.419   6.944 -0.6810 -0.1304  0.8987
  190SLPC    HX21943   4.278   6.324   6.898 -1.3041  0.4285 -0.7669
  190SLPC    HY21944   4.140   6.446   6.919 -0.7424 -0.5714  0.6830
  190SLPC   O3121945   4.250   6.426   7.084  0.4781 -0.8530 -0.1156
  190SLPC   C3121946   4.337   6.344   7.144  0.0992  0.4738  0.7510
  190SLPC   O3221947   4.416   6.265   7.088  0.5133 -0.0574 -0.3637
  190SLPC   C3221948   4.325   6.371   7.294 -0.1146 -0.5327 -0.1885
  190SLPC   H2X21949   4.225   6.337   7.331  0.2501 -2.3964 -0.8147
  190SLPC   H2Y21950   4.330   6.479   7.319 -1.3135 -0.7280  1.0004
  190SLPC   C2321951   4.730   6.679   7.099  0.0128 -0.1081  0.1127
  190SLPC   H3R21952   4.711   6.783   7.064  0.6078  0.0259  0.1692
  190SLPC   H3S21953   4.839   6.669   7.120 -0.4113 -0.5617  2.3701
  190SLPC   C2421954   4.649   6.669   7.232  0.0359  0.1025  0.7775
  190SLPC   H4R21955   4.544   6.640   7.210 -0.5818  3.1956 -1.0162
  190SLPC   H4S21956   4.638   6.773   7.270  2.4195  0.5800  0.2927
  190SLPC   C2521957   4.697   6.564   7.324  0.3722  0.2449  0.1374
  190SLPC   H5R21958   4.786   6.513   7.283  2.0589  2.6463  0.6105
  190SLPC   H5S21959   4.620   6.487   7.346  0.5502 -0.0452 -0.2396
  190SLPC   C2621960   4.733   6.617   7.468  0.0494  0.1433  0.3777
  190SLPC   H6R21961   4.782   6.528   7.514  0.6435  1.0897  1.6067
  190SLPC   H6S21962   4.638   6.639   7.521 -0.8271 -0.8861 -0.7089
  190SLPC   C2721963   4.844   6.725   7.460  0.0026  0.1137  0.5177
  190SLPC   H7R21964   4.803   6.816   7.411 -1.1866 -0.2404  0.8226
  190SLPC   H7S21965   4.917   6.685   7.386 -0.3197 -0.6262  0.5892
  190SLPC   C2821966   4.919   6.762   7.592 -1.0320  0.5166  0.5031
  190SLPC   H8R21967   5.000   6.830   7.557 -0.1656  0.1540  1.7584
  190SLPC   H8S21968   4.964   6.664   7.617  0.6956  1.2582  0.4530
  190SLPC   C2921969   4.836   6.823   7.699 -1.5434  0.2317 -0.3668
  190SLPC   H9R21970   4.756   6.884   7.652 -0.7074 -0.3209 -2.6546
  190SLPC  C21021971   4.862   6.820   7.834  0.3547  0.3083  0.1191
  190SLPC  H10R21972   4.790   6.878   7.894 -0.4283  1.9022 -2.2002
  190SLPC  C21121973   4.973   6.766   7.919 -0.0810  0.4908  0.6265
  190SLPC  H11R21974   5.067   6.777   7.861 -1.1146 -2.5051 -1.8598
  190SLPC  H11S21975   4.954   6.657   7.932 -2.6169  1.0705  2.7318
  190SLPC  C21221976   4.972   6.838   8.058 -0.3407  0.2824  0.2130
  190SLPC  H12R21977   5.009   6.940   8.044  0.4554 -0.3012 -2.8151
  190SLPC  C21321978   4.926   6.785   8.175  1.0263  0.4074  0.7811
  190SLPC  H13R21979   4.925   6.851   8.263  1.3903 -0.0015  1.0952
  190SLPC  C21421980   4.865   6.645   8.187  0.0823 -0.6063  0.4055
  190SLPC  H14R21981   4.910   6.593   8.100  0.8731  0.6712  0.0101
  190SLPC  H14S21982   4.754   6.644   8.184  0.0149  1.0808  0.8629
  190SLPC  C21521983   4.909   6.569   8.317  0.0380 -1.3106  0.2984
  190SLPC  H15R21984   5.020   6.567   8.323  0.1995  0.7139 -1.1206
  190SLPC  H15S21985   4.887   6.462   8.294 -3.0074 -0.9474  1.2076
  190SLPC  C21621986   4.819   6.593   8.442  0.3418  0.4714  0.3832
  190SLPC  H16R21987   4.712   6.578   8.414  0.1307  1.2908  0.7182
  190SLPC  H16S21988   4.827   6.701   8.466  2.5892  0.2492  0.7783
  190SLPC  C21721989   4.851   6.513   8.572  0.1492 -0.8754  0.6132
  190SLPC  H17R21990   4.773   6.547   8.643 -3.0944 -0.9375 -2.6022
  190SLPC  H17S21991   4.953   6.538   8.609 -0.4266  1.3074  0.8253
  190SLPC  C21821992   4.830   6.363   8.558 -0.6754  0.1814 -1.1816
  190SLPC  H18R21993   4.921   6.319   8.514  0.5642 -0.4739  1.7933
  190SLPC  H18S21994   4.744   6.324   8.499  0.2686 -3.7362 -0.2119
  190SLPC  H18T21995   4.820   6.325   8.662  3.5633  1.4228 -0.1266
  190SLPC   C3321996   4.422   6.277   7.367  0.2387 -0.5878  0.1560
  190SLPC   H3X21997   4.531   6.300   7.366  0.0655  0.2639 -1.4202
  190SLPC   H3Y21998   4.412   6.171   7.335  1.3216 -0.3788 -0.9548
  190SLPC   C3421999   4.385   6.270   7.519 -0.0583  0.6238  0.2171
  190SLPC   H4X22000   4.472   6.211   7.554  0.3496  0.5070 -0.9317
  190SLPC   H4Y22001   4.293   6.211   7.536 -0.3382  1.5923  2.3576
  190SLPC   C3522002   4.369   6.399   7.599 -0.0407  0.4208  0.2030
  190SLPC   H5X22003   4.294   6.464   7.550  0.7908  1.1799 -0.0923
  190SLPC   H5Y22004   4.467   6.450   7.609  0.5488 -1.1499  4.4083
  190SLPC   C3622005   4.327   6.369   7.746  0.2808  0.7237  0.4374
  190SLPC   H6X22006   4.389   6.285   7.783 -0.2955  1.8612  4.4346
  190SLPC   H6Y22007   4.225   6.328   7.728  1.0460 -0.8367 -0.4994
  190SLPC   C3722008   4.323   6.471   7.849 -0.4927 -0.6613 -0.2907
  190SLPC   H7X22009   4.268   6.563   7.819  0.8983 -0.2120 -1.5840
  190SLPC   H7Y22010   4.426   6.509   7.866 -1.4171  1.9372 -0.0759
  190SLPC   C3822011   4.267   6.426   7.981  0.2807 -1.0646 -0.9276
  190SLPC   H8X22012   4.299   6.322   8.004  0.9113 -0.6384  0.1823
  190SLPC   H8Y22013   4.158   6.414   7.963  0.1043  2.1432 -2.7058
  190SLPC   C3922014   4.282   6.526   8.090 -0.3394 -0.7551  0.1926
  190SLPC   H9X22015   4.276   6.628   8.047  0.8717 -0.9396 -0.4449
  190SLPC   H9Y22016   4.381   6.513   8.139  0.5684 -1.5823 -1.7563
  190SLPC  C31022017   4.184   6.516   8.212  0.2611  0.1557  0.1232
  190SLPC  H10X22018   4.185   6.414   8.255  0.8332 -0.8224 -2.0827
  190SLPC  H10Y22019   4.083   6.529   8.168  1.2786 -0.2983 -2.5055
  190SLPC  C31122020   4.201   6.630   8.317 -0.1437  0.3545  0.5084
  190SLPC  H11X22021   4.187   6.725   8.260  0.0939  0.4124  0.5484
  190SLPC  H11Y22022   4.306   6.628   8.353 -0.1811  2.0302  0.7993
  190SLPC  C31222023   4.103   6.612   8.434 -0.1428  1.0138  0.5982
  190SLPC  H12X22024   4.091   6.503   8.457 -0.0477  0.7188 -0.6790
  190SLPC  H12Y22025   4.007   6.659   8.405 -0.1138  1.2172  0.8354
  190SLPC  C31322026   4.157   6.684   8.554  0.7550  0.3692  0.2325
  190SLPC  H13X22027   4.167   6.791   8.528  2.0582 -0.1825 -1.7144
  190SLPC  H13Y22028   4.255   6.640   8.582  0.9081  0.7673  0.3366
  190SLPC  C31422029   4.067   6.662   8.680 -0.3387  0.4783 -0.3667
  190SLPC  H14X22030   3.974   6.723   8.674 -0.7135 -0.1083 -0.5920
  190SLPC  H14Y22031   4.115   6.710   8.768 -1.2153  1.2394 -0.2848
  190SLPC  C31522032   4.038   6.513   8.716  0.2637  0.2666 -0.0785
  190SLPC  H15X22033   4.138   6.467   8.704  1.2296  2.0889  0.4974
  190SLPC  H15Y22034   3.964   6.470   8.645 -0.1657 -2.3455  1.8126
  190SLPC  C31622035   3.978   6.485   8.854 -0.0478  0.4294  0.3594
  190SLPC  H16X22036   4.046   6.526   8.931 -2.3191  0.5837  2.3863
  190SLPC  H16Y22037   3.963   6.376   8.871  0.4600  0.3253  0.1362
  190SLPC  C31722038   3.850   6.568   8.876  0.1953 -0.1972  0.1755
  190SLPC  H17X22039   3.790   6.566   8.782 -0.8456 -1.3033  0.8170
  190SLPC  H17Y22040   3.872   6.674   8.897 -1.1636  0.0738  0.3647
  190SLPC  C31822041   3.769   6.518   8.996  0.4061 -0.0800 -0.0188
  190SLPC  H18X22042   3.694   6.598   9.011  1.6723  1.2944 -0.7256
  190SLPC  H18Y22043   3.837   6.512   9.084  0.1186 -2.7319  0.1067
  190SLPC  H18Z22044   3.718   6.421   8.975  1.1150 -1.1541  2.7931
  191SLPC     N22045   6.469   3.785   6.081  0.0962 -0.6069 -0.0498
  191SLPC   C1322046   6.332   3.815   6.058 -0.2414 -0.3122  1.0090
  191SLPC  H13A22047   6.299   3.777   5.962 -1.5473  1.2418  0.7914
  191SLPC  H13B22048   6.286   3.750   6.130  1.4623 -3.0056 -0.1790
  191SLPC  H13C22049   6.313   3.920   6.076  1.6901  0.3078 -0.2054
  191SLPC   C1422050   6.506   3.841   6.224  0.2626  0.4127  0.5548
  191SLPC  H14A22051   6.477   3.779   6.307 -2.1997  0.8397  0.1022
  191SLPC  H14B22052   6.612   3.847   6.242  0.0214 -3.4364  5.3825
  191SLPC  H14C22053   6.459   3.938   6.231 -0.8309 -0.0612  0.0946
  191SLPC   C1522054   6.565   3.859   5.985  0.7014 -0.6147  0.2997
  191SLPC  H15A22055   6.669   3.849   6.012  0.3382 -1.0115  1.6177
  191SLPC  H15B22056   6.561   3.830   5.881 -0.8583 -1.6536  0.6149
  191SLPC  H15C22057   6.535   3.963   5.984  0.3660 -0.7107 -0.3210
  191SLPC   C1222058   6.502   3.641   6.082 -0.0220  0.6973  0.7535
  191SLPC  H12A22059   6.609   3.631   6.088  0.2358  3.2625  1.9296
  191SLPC  H12B22060   6.481   3.612   5.981  1.5313  1.9455  0.0360
  191SLPC   C1122061   6.427   3.553   6.184  0.1538  0.3290 -0.0471
  191SLPC  H11A22062   6.472   3.574   6.283 -1.1833 -1.4422  0.9871
  191SLPC  H11B22063   6.460   3.450   6.158 -1.1280 -0.3504  0.8860
  191SLPC     P22064   6.182   3.462   6.199 -0.2824 -0.0886  0.0817
  191SLPC   O1322065   6.044   3.503   6.161  0.4404  0.2010 -0.4085
  191SLPC   O1422066   6.233   3.339   6.134  0.2967 -0.0919 -0.3965
  191SLPC   O1222067   6.289   3.579   6.177 -0.1099 -0.7643 -0.3986
  191SLPC   O1122068   6.194   3.450   6.359  0.1191 -0.2271 -0.2667
  191SLPC    C122069   6.284   3.368   6.422 -0.9146  0.2677  0.1482
  191SLPC    HA22070   6.254   3.266   6.392 -2.2197  1.0216 -1.2790
  191SLPC    HB22071   6.389   3.375   6.388 -0.6806 -2.1605  0.2012
  191SLPC    C222072   6.306   3.409   6.568 -0.6294 -0.8611  0.2254
  191SLPC    HS22073   6.384   3.345   6.615 -1.6664 -1.7427  0.8049
  191SLPC   O2122074   6.194   3.379   6.651  0.2613  0.1822 -0.3232
  191SLPC   C2122075   6.165   3.251   6.669 -0.5744  0.3239  0.7565
  191SLPC   O2222076   6.234   3.158   6.625  0.1814 -0.1200  0.0378
  191SLPC   C2222077   6.029   3.243   6.741  0.3440  0.8262 -0.0340
  191SLPC   H2R22078   5.988   3.345   6.755 -3.0073 -0.4027  0.1020
  191SLPC   H2S22079   5.958   3.188   6.675 -1.1138  1.6224  0.8309
  191SLPC    C322080   6.349   3.560   6.573 -0.2712  0.4682 -0.1697
  191SLPC    HX22081   6.280   3.610   6.503  0.0170 -3.7272 -3.9387
  191SLPC    HY22082   6.447   3.552   6.521  0.0840 -0.6112  0.6249
  191SLPC   O3122083   6.368   3.616   6.710 -0.7550 -0.0629 -0.0587
  191SLPC   C3122084   6.453   3.711   6.723 -0.1579 -0.1633  0.3144
  191SLPC   O3222085   6.532   3.754   6.637  0.0131 -0.0963 -0.0937
  191SLPC   C3222086   6.447   3.781   6.857  0.6232  0.4187 -0.2736
  191SLPC   H2X22087   6.368   3.860   6.856 -1.0301 -1.1425 -2.5588
  191SLPC   H2Y22088   6.550   3.823   6.864  0.6236  0.6891 -1.6093
  191SLPC   C2322089   6.037   3.176   6.879 -0.1391 -0.2507  0.0892
  191SLPC   H3R22090   6.085   3.076   6.874 -1.7192 -0.9829 -1.6251
  191SLPC   H3S22091   5.933   3.161   6.917 -0.1451  1.2962  0.7378
  191SLPC   C2422092   6.106   3.267   6.980  0.1248  0.3566  0.2703
  191SLPC   H4R22093   6.044   3.358   6.997  0.7752  0.9179 -0.3325
  191SLPC   H4S22094   6.200   3.305   6.935  0.7044 -1.8357 -0.5051
  191SLPC   C2522095   6.130   3.195   7.116 -0.6372  0.0879 -0.4976
  191SLPC   H5R22096   6.213   3.124   7.092  0.6435  1.2478  0.3434
  191SLPC   H5S22097   6.041   3.130   7.124 -0.4807 -0.3348 -1.9190
  191SLPC   C2622098   6.153   3.278   7.245  0.2095 -0.4731  0.5931
  191SLPC   H6R22099   6.074   3.356   7.255 -0.5710 -1.3833  1.9509
  191SLPC   H6S22100   6.237   3.348   7.226 -2.1615  2.4527  0.1093
  191SLPC   C2722101   6.179   3.189   7.366  0.8489  0.1760  0.6977
  191SLPC   H7R22102   6.246   3.111   7.325  2.7010  2.4535 -0.9450
  191SLPC   H7S22103   6.089   3.146   7.414  1.7737 -1.3125  1.1535
  191SLPC   C2822104   6.258   3.263   7.476  0.4364  0.9753  0.2808
  191SLPC   H8R22105   6.365   3.277   7.449  0.9595 -3.1493 -0.4156
  191SLPC   H8S22106   6.254   3.188   7.557 -1.0333  0.2547 -0.4302
  191SLPC   C2922107   6.198   3.389   7.512  0.4931 -0.2943  0.3045
  191SLPC   H9R22108   6.149   3.444   7.430 -1.0697  1.0699  2.0619
  191SLPC  C21022109   6.182   3.431   7.640  0.3365 -0.1972  0.0066
  191SLPC  H10R22110   6.131   3.528   7.652  1.3140  0.3167  0.1389
  191SLPC  C21122111   6.228   3.363   7.768 -0.5477 -0.8286  0.3869
  191SLPC  H11R22112   6.287   3.445   7.815 -1.0691  0.2754 -0.8356
  191SLPC  H11S22113   6.299   3.280   7.753 -1.9186 -2.1045  0.7244
  191SLPC  C21222114   6.114   3.319   7.859 -0.3361 -0.8773 -0.3668
  191SLPC  H12R22115   6.022   3.286   7.809 -1.6023  0.4830  0.9384
  191SLPC  C21322116   6.120   3.311   7.990 -0.5606  0.8353  0.9154
  191SLPC  H13R22117   6.035   3.271   8.047 -0.7974  2.9365  2.1290
  191SLPC  C21422118   6.240   3.339   8.072 -0.5426  0.0084 -0.2488
  191SLPC  H14R22119   6.323   3.340   7.997 -1.6606 -1.2913 -1.5634
  191SLPC  H14S22120   6.264   3.254   8.139 -0.9639  0.0890  0.0046
  191SLPC  C21522121   6.226   3.462   8.157 -0.0293 -0.4494 -0.3127
  191SLPC  H15R22122   6.202   3.549   8.091 -0.1885 -1.2388 -1.3271
  191SLPC  H15S22123   6.324   3.487   8.201  0.1376 -2.4043  0.4947
  191SLPC  C21622124   6.128   3.452   8.275 -0.3342  0.4273 -0.7886
  191SLPC  H16R22125   6.030   3.432   8.226 -0.3428 -1.5191 -0.0290
  191SLPC  H16S22126   6.117   3.551   8.326  0.0638  0.7271 -1.2693
  191SLPC  C21722127   6.151   3.344   8.382  0.7374  0.6166  0.0884
  191SLPC  H17R22128   6.253   3.350   8.424  1.6108  1.7027 -2.0400
  191SLPC  H17S22129   6.131   3.240   8.349 -0.9369  0.7685  0.4873
  191SLPC  C21822130   6.062   3.362   8.514  0.1584  0.0572  0.4959
  191SLPC  H18R22131   6.120   3.309   8.592  0.9838 -3.4846 -2.2578
  191SLPC  H18S22132   5.963   3.315   8.501 -0.0104  0.9088 -1.6818
  191SLPC  H18T22133   6.052   3.468   8.545  1.4319  0.1501  0.6659
  191SLPC   C3322134   6.418   3.690   6.977  0.7445 -0.0840  0.6092
  191SLPC   H3X22135   6.471   3.595   6.958 -0.1159 -0.3214 -0.8241
  191SLPC   H3Y22136   6.310   3.669   6.992  1.1070 -0.6212  2.8113
  191SLPC   C3422137   6.487   3.743   7.101  0.6013  0.0618 -0.1426
  191SLPC   H4X22138   6.455   3.849   7.102  0.3943  0.0368 -1.6130
  191SLPC   H4Y22139   6.598   3.742   7.092  0.9119  3.3638  1.8250
  191SLPC   C3522140   6.438   3.663   7.219  0.0386 -0.2760 -0.4694
  191SLPC   H5X22141   6.495   3.568   7.222  0.8116  0.1567 -0.8416
  191SLPC   H5Y22142   6.331   3.633   7.217  0.4545 -2.0281  0.8468
  191SLPC   C3622143   6.470   3.742   7.351 -0.1311 -0.6497  0.4821
  191SLPC   H6X22144   6.447   3.849   7.333 -1.3221 -0.2439  3.7435
  191SLPC   H6Y22145   6.581   3.741   7.363  0.3309  1.9973 -2.2907
  191SLPC   C3722146   6.410   3.678   7.481  0.2336  0.8752 -0.0413
  191SLPC   H7X22147   6.449   3.574   7.486 -1.0666  0.2150 -2.2650
  191SLPC   H7Y22148   6.300   3.661   7.479  0.4626 -0.7446 -0.4353
  191SLPC   C3822149   6.456   3.768   7.600  0.6678  1.0426 -0.5146
  191SLPC   H8X22150   6.409   3.869   7.594 -0.2255  0.8194  1.7736
  191SLPC   H8Y22151   6.567   3.778   7.597  0.5720  2.3989 -0.0691
  191SLPC   C3922152   6.422   3.711   7.746 -0.3824 -0.4026 -0.4382
  191SLPC   H9X22153   6.490   3.630   7.780 -0.0038 -0.0290 -0.2996
  191SLPC   H9Y22154   6.319   3.670   7.744  0.3578 -2.3486 -0.9190
  191SLPC  C31022155   6.440   3.824   7.848  0.0568 -0.3824  0.6126
  191SLPC  H10X22156   6.362   3.899   7.826  1.0476  0.7454  0.8137
  191SLPC  H10Y22157   6.536   3.880   7.837 -0.8882  1.1930  0.0504
  191SLPC  C31122158   6.430   3.765   7.992 -0.3737  0.3440  0.6227
  191SLPC  H11X22159   6.525   3.723   8.031 -1.4987 -0.0220  3.1656
  191SLPC  H11Y22160   6.356   3.683   7.992 -0.0592  0.0562  0.6390
  191SLPC  C31222161   6.400   3.878   8.091  0.2693  0.4450  0.0560
  191SLPC  H12X22162   6.308   3.931   8.058 -0.8861 -1.6697 -0.2452
  191SLPC  H12Y22163   6.490   3.941   8.107  1.1474 -0.5638 -0.7599
  191SLPC  C31322164   6.365   3.815   8.226  0.0854 -0.0352  0.0445
  191SLPC  H13X22165   6.455   3.768   8.270 -1.0579 -2.9701 -0.5168
  191SLPC  H13Y22166   6.288   3.735   8.213 -1.1265  1.1169 -0.0464
  191SLPC  C31422167   6.303   3.919   8.316  0.2956  0.2466  0.2827
  191SLPC  H14X22168   6.285   3.876   8.416 -1.6417 -1.4189 -0.7116
  191SLPC  H14Y22169   6.208   3.953   8.269  0.4276  0.9047  0.4720
  191SLPC  C31522170   6.386   4.045   8.334  0.1639  0.8665  0.6675
  191SLPC  H15X22171   6.414   4.082   8.233  1.3183  0.9929  1.0178
  191SLPC  H15Y22172   6.482   4.024   8.385  0.3269  0.3112  0.1524
  191SLPC  C31622173   6.321   4.158   8.406 -0.0679 -0.1671  1.1900
  191SLPC  H16X22174   6.282   4.121   8.504  0.1869  0.9928  1.7480
  191SLPC  H16Y22175   6.229   4.184   8.350  1.3643  0.3822 -0.9940
  191SLPC  C31722176   6.416   4.273   8.417 -0.8797  0.6256  0.2715
  191SLPC  H17X22177   6.423   4.326   8.319  0.0221 -0.0739 -0.0614
  191SLPC  H17Y22178   6.515   4.238   8.454 -1.6971 -2.1360  0.0542
  191SLPC  C31822179   6.371   4.377   8.512  0.8058 -0.5491  0.2464
  191SLPC  H18X22180   6.261   4.382   8.501  0.8729  0.1365 -0.1818
  191SLPC  H18Y22181   6.428   4.472   8.500  0.6774 -0.4281  0.5861
  191SLPC  H18Z22182   6.403   4.334   8.610 -0.0180 -0.6585  0.4697
  192SLPC     N22183   2.828   6.767   6.102  0.7590  0.3076  0.5444
  192SLPC   C1322184   2.881   6.628   6.097 -0.5178 -0.0660  0.2216
  192SLPC  H13A22185   2.941   6.614   6.185 -3.2873  0.3285  2.3347
  192SLPC  H13B22186   2.800   6.556   6.097  0.4186 -1.1961 -1.5254
  192SLPC  H13C22187   2.932   6.614   6.003 -1.3507  1.8131 -0.5822
  192SLPC   C1422188   2.715   6.770   5.993  0.2539 -0.4196  0.2914
  192SLPC  H14A22189   2.637   6.704   6.026  2.0192 -1.8528  1.8346
  192SLPC  H14B22190   2.671   6.868   5.985  0.1595 -0.1484  3.2035
  192SLPC  H14C22191   2.742   6.728   5.897  1.7180  3.3860 -1.1847
  192SLPC   C1522192   2.929   6.866   6.054  0.1602  0.8910  0.6231
  192SLPC  H15A22193   2.989   6.825   5.974  0.1498 -1.0706  1.5687
  192SLPC  H15B22194   2.892   6.957   6.009 -1.4816 -0.4492 -0.8621
  192SLPC  H15C22195   2.999   6.890   6.133 -1.1088 -0.9200  2.4011
  192SLPC   C1222196   2.767   6.797   6.232  0.6623 -0.4854 -0.2016
  192SLPC  H12A22197   2.687   6.728   6.256  0.8543 -0.7958 -0.4469
  192SLPC  H12B22198   2.717   6.893   6.223  0.0014 -0.8837 -0.9964
  192SLPC   C1122199   2.865   6.790   6.348  0.3584  0.0474 -0.3227
  192SLPC  H11A22200   2.910   6.689   6.350 -0.1331 -0.1722 -0.0683
  192SLPC  H11B22201   2.806   6.794   6.443  0.0486 -1.5822 -0.4240
  192SLPC     P22202   2.945   7.034   6.406  0.4654  0.1584 -0.6273
  192SLPC   O1322203   3.055   7.120   6.369 -0.5295  0.2611 -1.1422
  192SLPC   O1422204   2.810   7.088   6.389  0.3339  0.0694  0.2937
  192SLPC   O1222205   2.968   6.891   6.345  0.6758  0.5216 -0.3022
  192SLPC   O1122206   2.958   7.010   6.560 -0.3981 -0.3701  0.5415
  192SLPC    C122207   3.086   7.002   6.628 -0.3266 -0.3836 -0.1138
  192SLPC    HA22208   3.108   6.893   6.633 -1.1925 -0.5580  0.1093
  192SLPC    HB22209   3.178   7.044   6.581 -1.8612  1.4523 -1.6566
  192SLPC    C222210   3.076   7.072   6.760  0.2456 -0.7983  0.3623
  192SLPC    HS22211   3.170   7.053   6.817 -0.1710 -2.5411  0.5325
  192SLPC   O2122212   2.963   7.034   6.839 -0.0894  0.3303  0.0367
  192SLPC   C2122213   2.957   6.916   6.880  0.1715 -0.2040  0.3196
  192SLPC   O2222214   3.039   6.828   6.863 -0.0034  0.0413  0.3327
  192SLPC   C2222215   2.826   6.876   6.955 -0.6361 -0.3607 -0.2386
  192SLPC   H2R22216   2.751   6.831   6.887 -0.1129  0.2479 -1.2291
  192SLPC   H2S22217   2.855   6.797   7.027  0.2104 -0.2806 -0.4815
  192SLPC    C322218   3.053   7.229   6.739 -0.4995  0.0450 -0.3109
  192SLPC    HX22219   2.957   7.247   6.686  1.4624  2.2078 -3.4345
  192SLPC    HY22220   3.137   7.270   6.680  0.8430 -2.0585  0.0372
  192SLPC   O3122221   3.044   7.293   6.872  0.0895  0.1607 -0.5258
  192SLPC   C3122222   3.162   7.309   6.928  0.2990 -0.5001  0.7082
  192SLPC   O3222223   3.267   7.277   6.874  0.0062 -0.3610  0.0392
  192SLPC   C3222224   3.140   7.360   7.066  0.5276  0.4086 -0.6480
  192SLPC   H2X22225   3.056   7.307   7.115  1.4732 -0.3976  0.1587
  192SLPC   H2Y22226   3.112   7.467   7.058  0.5031  0.5171  0.7666
  192SLPC   C2322227   2.771   6.996   7.035 -0.2335  0.3392  0.1317
  192SLPC   H3R22228   2.665   6.979   7.066 -0.3775  1.0806  0.0727
  192SLPC   H3S22229   2.770   7.083   6.965  0.6082  0.2309 -0.0276
  192SLPC   C2422230   2.856   7.024   7.153  0.2214 -0.1659 -0.3002
  192SLPC   H4R22231   2.957   7.055   7.117  0.1763 -0.5819 -0.7944
  192SLPC   H4S22232   2.878   6.938   7.219 -0.2814  0.1945  0.3545
  192SLPC   C2522233   2.792   7.132   7.245  0.2324 -0.0233 -0.1738
  192SLPC   H5R22234   2.688   7.102   7.269 -0.1066  0.5869 -0.8506
  192SLPC   H5S22235   2.774   7.222   7.183  0.7415 -0.7582 -1.4404
  192SLPC   C2622236   2.884   7.158   7.368 -0.2518  0.0688 -0.1674
  192SLPC   H6R22237   2.986   7.192   7.339 -0.6530  2.4417  0.9673
  192SLPC   H6S22238   2.887   7.062   7.423 -2.4873 -1.4494 -2.4768
  192SLPC   C2722239   2.834   7.263   7.466  0.1137 -0.4959 -0.3198
  192SLPC   H7R22240   2.739   7.219   7.504 -1.1899  0.8830 -1.8269
  192SLPC   H7S22241   2.799   7.351   7.408  1.4902 -0.5929 -1.3632
  192SLPC   C2822242   2.926   7.300   7.582 -0.0207 -0.0307 -0.0289
  192SLPC   H8R22243   2.898   7.402   7.616  0.6282  0.0776  0.1928
  192SLPC   H8S22244   3.031   7.308   7.546  0.0399 -2.1346 -0.4486
  192SLPC   C2922245   2.917   7.212   7.694  0.4667 -0.0562 -0.7927
  192SLPC   H9R22246   2.846   7.132   7.670  1.0251 -0.1436 -2.3043
  192SLPC  C21022247   2.989   7.216   7.808 -0.6697 -0.3675  0.3659
  192SLPC  H10R22248   2.955   7.157   7.894 -0.3055 -1.0719  0.0322
  192SLPC  C21122249   3.097   7.322   7.824 -0.3259 -0.3010  0.7167
  192SLPC  H11R22250   3.111   7.392   7.739  1.2629 -0.0644  1.1381
  192SLPC  H11S22251   3.194   7.269   7.827 -2.0925 -3.9125 -0.5211
  192SLPC  C21222252   3.085   7.419   7.942 -0.2971 -0.3982  0.4387
  192SLPC  H12R22253   3.037   7.516   7.920  0.7056 -0.6766 -4.0491
  192SLPC  C21322254   3.132   7.399   8.064  0.2457  0.0490  0.4364
  192SLPC  H13R22255   3.132   7.484   8.133 -2.0706 -1.3783  2.3655
  192SLPC  C21422256   3.214   7.279   8.114 -0.2539 -0.6348  1.0291
  192SLPC  H14R22257   3.291   7.317   8.183  0.0514  1.2852 -0.2948
  192SLPC  H14S22258   3.270   7.232   8.030  0.7140 -1.1963  1.9661
  192SLPC  C21522259   3.132   7.175   8.187 -0.2502 -0.4307 -0.1376
  192SLPC  H15R22260   3.197   7.088   8.213 -0.4468 -0.1334  1.4742
  192SLPC  H15S22261   3.053   7.136   8.121  0.5329  0.0947 -1.4159
  192SLPC  C21622262   3.062   7.227   8.317 -0.8122  0.0711  0.2375
  192SLPC  H16R22263   3.018   7.328   8.301  0.7682  0.7131 -0.3377
  192SLPC  H16S22264   3.148   7.238   8.387  0.0715 -0.5720 -0.7180
  192SLPC  C21722265   2.948   7.141   8.378 -0.3859 -0.2463  0.6746
  192SLPC  H17R22266   2.925   7.208   8.463 -1.7718  1.1096 -0.6869
  192SLPC  H17S22267   2.863   7.134   8.307 -0.3010 -2.3010  0.7053
  192SLPC  C21822268   2.985   7.004   8.427  0.0150 -0.2267  0.3070
  192SLPC  H18R22269   3.059   7.011   8.509 -1.6096 -0.9679  1.9208
  192SLPC  H18S22270   3.037   6.949   8.346  0.3156 -0.9548  0.9834
  192SLPC  H18T22271   2.895   6.945   8.455 -1.2562  1.0760 -0.8718
  192SLPC   C3322272   3.260   7.340   7.159 -0.3370  0.3141  0.4449
  192SLPC   H3X22273   3.362   7.368   7.124  0.5507 -0.7833  1.9855
  192SLPC   H3Y22274   3.265   7.236   7.198 -1.2076  0.6232  1.4251
  192SLPC   C3422275   3.243   7.429   7.292 -0.2763  0.0216  0.9241
  192SLPC   H4X22276   3.133   7.429   7.312 -1.2398 -1.7333 -3.2530
  192SLPC   H4Y22277   3.272   7.534   7.269  1.4359 -0.9442 -1.7599
  192SLPC   C3522278   3.334   7.380   7.403  0.2706  0.0619  0.3411
  192SLPC   H5X22279   3.439   7.387   7.367  0.6938  1.9442  1.7925
  192SLPC   H5Y22280   3.316   7.272   7.424  1.4809 -0.1736  0.2534
  192SLPC   C3622281   3.332   7.460   7.536  0.2202  0.1801  0.0345
  192SLPC   H6X22282   3.226   7.464   7.571  0.0684 -1.1521 -0.1926
  192SLPC   H6Y22283   3.362   7.561   7.502 -1.2543  0.4579 -0.5326
  192SLPC   C3722284   3.436   7.406   7.639  0.3873  0.3024  0.1895
  192SLPC   H7X22285   3.533   7.393   7.586  0.4772  1.9593 -0.1220
  192SLPC   H7Y22286   3.383   7.315   7.674  1.1931  0.3008  1.4282
  192SLPC   C3822287   3.437   7.501   7.766  0.7564  0.3179  0.4466
  192SLPC   H8X22288   3.333   7.536   7.781  0.8054  0.9718 -0.6372
  192SLPC   H8Y22289   3.494   7.595   7.751  4.2138 -1.0578  3.3023
  192SLPC   C3922290   3.477   7.427   7.893  0.2415  0.2628 -0.2864
  192SLPC   H9X22291   3.584   7.401   7.878  0.9409  2.5471  0.3027
  192SLPC   H9Y22292   3.407   7.340   7.897 -1.0130  1.2852  2.0728
  192SLPC  C31022293   3.475   7.512   8.024  0.7092  0.1966  0.7537
  192SLPC  H10X22294   3.375   7.526   8.069 -1.0133  1.0196 -2.9464
  192SLPC  H10Y22295   3.510   7.614   7.999 -0.2844  1.1260  2.9248
  192SLPC  C31122296   3.577   7.461   8.130  0.2485 -0.0286 -0.1044
  192SLPC  H11X22297   3.679   7.489   8.098 -0.3868  1.8886 -0.5614
  192SLPC  H11Y22298   3.593   7.352   8.148  1.3174 -0.2053 -1.8211
  192SLPC  C31222299   3.550   7.531   8.262 -1.1911 -0.1167  0.3174
  192SLPC  H12X22300   3.454   7.494   8.304 -1.2693  0.7802  0.9606
  192SLPC  H12Y22301   3.529   7.639   8.245 -1.1730  0.2111  2.1475
  192SLPC  C31322302   3.668   7.489   8.363  0.3175  0.4894 -0.4107
  192SLPC  H13X22303   3.765   7.524   8.321  1.5871 -1.3088  0.8371
  192SLPC  H13Y22304   3.679   7.378   8.367  0.5736  0.5512  0.7512
  192SLPC  C31422305   3.648   7.552   8.502 -0.3265  0.2560 -0.2302
  192SLPC  H14X22306   3.615   7.657   8.490 -1.3916  0.0653  0.7374
  192SLPC  H14Y22307   3.738   7.551   8.567 -1.9489 -0.3973  2.1364
  192SLPC  C31522308   3.542   7.474   8.576  0.0601 -0.3378  0.4974
  192SLPC  H15X22309   3.445   7.503   8.530  0.9783 -0.6449 -1.7248
  192SLPC  H15Y22310   3.541   7.521   8.677 -1.7580  2.4221 -0.6731
  192SLPC  C31622311   3.563   7.324   8.603 -0.0042  0.7014  0.0972
  192SLPC  H16X22312   3.660   7.300   8.652  0.2575 -0.3137 -0.8828
  192SLPC  H16Y22313   3.574   7.269   8.507  1.5386  0.4217  0.4138
  192SLPC  C31722314   3.453   7.247   8.684 -0.2478  0.3309 -0.0891
  192SLPC  H17X22315   3.483   7.275   8.787  0.1799 -0.9630  0.1597
  192SLPC  H17Y22316   3.466   7.137   8.675  1.1485  0.3733  0.9796
  192SLPC  C31822317   3.312   7.288   8.638  0.5658 -0.8056 -0.6740
  192SLPC  H18X22318   3.282   7.390   8.670 -0.9981 -0.8487 -1.8615
  192SLPC  H18Y22319   3.232   7.233   8.691 -1.2725 -1.0855 -3.5257
  192SLPC  H18Z22320   3.297   7.272   8.529 -0.6337 -1.5785 -0.4094
  193SOD    SOD22321   2.445   3.901   3.562  0.1524 -0.5626  0.2279
  194SOD    SOD22322   5.803   6.331   6.749 -0.5336 -0.1080  0.3758
  195SOD    SOD22323   0.132   3.354  11.018  0.1066 -0.6061  0.4138
  196SOD    SOD22324   0.888   0.019  11.679 -0.1970 -0.0227 -0.3123
  197SOD    SOD22325   4.463   0.153  15.026 -0.3691  0.2221 -0.0249
  198SOD    SOD22326   0.530   2.530  16.737  0.3953 -0.6958 -0.4606
  199SOD    SOD22327   1.090   1.243   0.323 -0.1522 -0.2912 -0.0388
  200SOD    SOD22328   4.611   1.661  13.325 -0.0193  0.1456 -0.0160
  201SOD    SOD22329   1.106   4.166   5.726  0.1379 -0.1600 -0.2076
  202SOD    SOD22330   1.264   5.588  11.837  0.8729  0.4147 -0.3719
  203SOD    SOD22331   2.544   5.053  17.090 -0.3482 -0.1084  0.2712
  204SOD    SOD22332   5.287   4.915   0.397  0.1504 -0.1805  0.3556
  205SOD    SOD22333   2.755   3.252   5.866 -0.1328 -0.0690  0.5625
  206SOD    SOD22334   3.420   1.650   5.975 -0.3822 -0.0291 -0.2937
  207SOD    SOD22335   6.088   3.858   3.072  0.1002 -0.2728 -0.1872
  208SOD    SOD22336   2.648   1.023  15.365 -0.1077 -0.0054  0.0366
  209SOD    SOD22337   6.501   6.729   3.960 -0.5022 -0.0954  0.0128
  210SOD    SOD22338   5.955   1.159  11.937 -0.6358 -0.2396  0.6009
  211SOD    SOD22339   4.731   3.838  15.907  0.1814 -0.0635 -0.5914
  212SOD    SOD22340   5.783   4.762  13.152  0.1850 -0.1920  0.0582
  213SOD    SOD22341   1.457   3.078  10.712  0.5323 -0.1460 -0.2277
  214SOD    SOD22342   3.746   5.961  13.725 -0.0935 -0.0637 -0.1329
  215SOD    SOD22343   5.068   5.507  16.623 -0.0123 -0.6950 -0.0559
  216SOD    SOD22344   4.345   3.665   3.375 -0.3477  0.2559  0.6946
  217SOD    SOD22345   1.825   6.627   2.851  0.2536  0.0769 -0.1949
  218SOD    SOD22346   2.295   4.611   3.568 -0.5175 -0.2144  0.0860
  219SOD    SOD22347   3.850   3.193  11.373  0.1056  0.1415  0.1709
  220SOD    SOD22348   6.105   3.969  13.624  0.1550 -0.3391  0.2284
  221SOD    SOD22349   6.221   5.114  16.083 -0.5032  0.2886  0.1776
  222SOD    SOD22350   0.361   5.559   6.126 -0.1429 -0.0872 -0.5335
  223SOD    SOD22351   4.704   0.944  16.975  0.2694  0.0584  0.1365
  224SOD    SOD22352   1.784   1.900   4.431 -0.0436  0.0287 -0.0984
  225SOD    SOD22353   1.032   4.819  17.201 -0.6777 -0.1725  0.4888
  226SOD    SOD22354   2.854   6.606   1.332 -0.1560 -0.7025  0.7482
  227SOD    SOD22355   2.090   0.491  14.259  0.1138 -0.1282  0.1298
  228SOD    SOD22356   0.114   2.345  14.377 -0.3946  0.3643 -0.0694
  229SOD    SOD22357   4.697   0.911   4.917  0.3900  0.0265 -0.2424
  230SOD    SOD22358   0.359   0.749  16.684  0.1412 -0.0280  0.1329
  231SOD    SOD22359   2.070   4.063   0.952  0.2475 -0.1106  0.3309
  232SOD    SOD22360   0.766   4.664   1.572 -0.2156 -0.5793  0.1330
  233SOD    SOD22361   4.147   3.315   6.449 -0.0773 -0.0240 -0.1726
  234SOD    SOD22362   1.301   2.142  11.676 -0.0289  0.5186  0.1428
  235SOD    SOD22363   5.061   6.153  11.426 -0.1794 -0.0217  0.0328
  236SOD    SOD22364   1.120   0.756   6.152 -0.2759  0.3645  0.0626
  237SOD    SOD22365   4.993   6.731   0.638 -0.1634  0.2691 -0.1404
  238SOD    SOD22366   0.667   2.640  15.340 -0.6223 -0.2153  0.1928
  239SOD    SOD22367   0.787   4.110   6.347 -0.5442  0.6324  0.0999
  240SOD    SOD22368   3.671   3.215   1.657 -0.1635 -0.1052  0.2382
  241SOD    SOD22369   2.961   4.891  14.788 -0.2001  0.2019  0.6566
  242SOD    SOD22370   6.556   1.690  10.535 -0.1862 -0.2218 -0.0131
  243SOD    SOD22371   3.941   2.667   0.439 -0.2982  0.0944 -0.5397
  244SOD    SOD22372   3.378   3.690   0.194  0.0949 -0.7161 -0.4806
  245SOD    SOD22373   0.131   4.912  17.073  0.0996 -0.5330 -0.1050
  246SOD    SOD22374   6.105   6.177  13.305  0.0965  0.3604 -0.2345
  247SOD    SOD22375   6.631   2.475   5.838  0.5173  0.3627  0.1324
  248SOD    SOD22376   3.115   0.712   1.284  0.3872  0.3074  0.1225
  249SOD    SOD22377   3.770   0.116  12.062  0.3520  0.2579 -0.0213
  250SOD    SOD22378   5.941   5.523   1.188  0.2577  0.0436  0.0694
  251SOD    SOD22379   0.305   0.489   3.538 -0.0394 -0.6379 -0.7495
  252SOD    SOD22380   3.442   0.522   0.797 -0.1787 -0.5769 -0.0190
  253SOD    SOD22381   2.100   4.526   4.034 -0.2645  0.0031 -0.0788
  254SOD    SOD22382   6.440   1.360   1.549  0.0784  0.5621  0.1860
  255SOD    SOD22383   0.878   5.445   5.272 -0.3618  0.0062 -0.0227
  256SOD    SOD22384   0.297   6.151   5.035  0.1229  0.1498 -0.1296
  257SOD    SOD22385   1.594   0.023   5.352 -0.2131  0.2552 -0.0784
  258SOD    SOD22386   0.309   0.330   4.669 -0.1063 -0.1312 -0.0031
  259SOD    SOD22387   3.482   2.750  16.272 -0.5089 -0.2146 -0.0514
  260SOD    SOD22388   5.285   6.536  13.624 -0.5610 -0.8291  0.0539
  261SOD    SOD22389   6.072   3.818  12.331 -0.2227  0.1908 -0.1329
  262SOD    SOD22390   6.136   2.375  14.839 -0.0252  0.3507 -0.1759
  263SOD    SOD22391   6.290   3.087   5.751  0.0601 -0.4105 -0.0646
  264SOD    SOD22392   5.696   0.457  12.387 -0.5094 -0.0728 -0.4395
  265SOD    SOD22393   4.129   0.937  17.168  0.2206  0.6092  0.6753
  266CLA    CLA22394   5.496   1.426   5.475 -0.0056  0.0170 -0.1240
  267CLA    CLA22395   3.272   4.615   5.269  0.1469 -0.4484  0.0094
  268CLA    CLA22396   1.190   1.814  12.041  0.2636  0.3693  0.0627
  269CLA    CLA22397   1.531   1.797  14.505 -0.0706 -0.1364 -0.0920
  270CLA    CLA22398   1.285   6.672   4.640 -0.0615 -0.1275  0.0112
  271CLA    CLA22399   1.016   0.038   2.794  0.4542  0.1006  0.1998
  272CLA    CLA22400   1.557   5.467  12.222  0.0328 -0.1513 -0.1604
  273CLA    CLA22401   3.864   5.432   4.333 -0.1022 -0.1200  0.0489
  274CLA    CLA22402   5.499   5.993  11.547 -0.2932 -0.0602 -0.0237
  275CLA    CLA22403   6.636   1.661   2.704 -0.2156 -0.3728 -0.2230
  276CLA    CLA22404   5.790   1.234   2.979  0.0679 -0.2661  0.1176
  277CLA    CLA22405   4.311   6.673  12.685 -0.0262  0.2258  0.2179
  278CLA    CLA22406   3.556   4.268   0.422 -0.1560 -0.4853  0.0301
  279CLA    CLA22407   4.259   0.811   0.653  0.2469 -0.1021 -0.0068
  280CLA    CLA22408   5.233   2.985   0.678 -0.1252  0.2097 -0.1556
  281CLA    CLA22409   6.412   0.024  13.402 -0.0838 -0.1271 -0.1044
  282CLA    CLA22410   2.147   0.491  16.188  0.1834 -0.1426  0.1344
  283CLA    CLA22411   5.180   0.229  13.929  0.1605 -0.0361  0.1066
  284CLA    CLA22412   1.288   2.743  15.943 -0.4208 -0.3914 -0.1574
  285CLA    CLA22413   3.607   4.159  14.390  0.0407 -0.1461  0.1019
  286CLA    CLA22414   1.632   0.365   1.485 -0.4150  0.1068 -0.2758
  287CLA    CLA22415   5.735   4.162  17.045  0.1915 -0.2463 -0.2456
  288CLA    CLA22416   3.855   3.770  17.153 -0.0929  0.7483 -0.2653
  289CLA    CLA22417   0.460   5.149  15.878 -0.3002  0.0387  0.4033
  290CLA    CLA22418   3.520   5.988  12.293  0.0220 -0.1124  0.0337
  291CLA    CLA22419   0.136   0.342   3.988  0.2309 -0.3601  0.0467
  292CLA    CLA22420   3.600   0.069  16.937 -0.1975 -0.2285 -0.0918
  293CLA    CLA22421   3.013   2.552   3.488  0.0454 -0.1195 -0.1643
  294CLA    CLA22422   2.162   5.036  17.272 -0.0187 -0.3374  0.0533
  295CLA    CLA22423   6.088   0.491  16.196  0.7820 -0.0724 -0.1820
  296CLA    CLA22424   3.609   5.755  15.845  0.0908  0.3495  0.2105
  297CLA    CLA22425   6.174   1.070   5.347  0.0350  0.0141  0.6934
  298CLA    CLA22426   1.936   4.423   3.384 -0.1376 -0.1765 -0.3162
  299CLA    CLA22427   2.557   6.175   2.943  0.0716 -0.0799 -0.3721
  300CLA    CLA22428   4.058   1.317   2.017 -0.0790  0.1130 -0.1707
  301CLA    CLA22429   5.641   3.208  17.063  0.2201  0.0979  0.1992
  302CLA    CLA22430   5.708   0.937  14.715 -0.1101 -0.1247 -0.2641
  303CLA    CLA22431   4.333   1.507  15.454 -0.2803 -0.0296 -0.2280
  304CLA    CLA22432   5.213   3.687   5.433  0.1189  0.0435 -0.7337
  305CLA    CLA22433   0.833   5.086   1.765  0.0527  0.4338 -0.1217
  306CLA    CLA22434   0.267   4.308  16.810 -0.1168  0.2024 -0.3154
  307CLA    CLA22435   4.144   1.475  13.846 -0.1726  0.1328 -0.4598
  308CLA    CLA22436   5.655   5.379  15.723  0.0882 -0.0010  0.2621
  309CLA    CLA22437   6.756   3.730   3.199  0.6191  0.0079 -0.1367
  310CLA    CLA22438   2.930   5.556  16.706 -0.0994 -0.0820 -0.0256
  311CLA    CLA22439   5.144   5.815  12.710  0.1789 -0.1920  0.8351
  312CLA    CLA22440   4.388   2.906   2.640 -0.0911 -0.0865  0.2086
  313CLA    CLA22441   6.071   1.368  17.327  0.3377  0.2355  0.4058
  314CLA    CLA22442   1.160   1.918   1.493 -0.1567  0.6645 -0.2488
  315CLA    CLA22443   2.888   1.773   0.051 -0.0563  0.0844  0.1610
  316CLA    CLA22444   4.496   6.252  16.426 -0.0546 -0.3267  0.2851
  317CLA    CLA22445   6.442   6.193   2.581 -0.0430  0.1019 -0.1763
  318CLA    CLA22446   5.477   4.213   1.588 -0.5407 -0.1642 -0.3711
  319TIP3   OH222447   5.128   3.043   1.432 -0.2099  0.1169  0.3276
  319TIP3    H122448   5.164   3.109   1.372  0.1225  1.5842  2.0659
  319TIP3    H222449   5.140   2.960   1.386  1.6189  1.0015 -0.9160
  320TIP3   OH222450   3.681   4.032  17.163  0.2049 -0.2141 -0.6263
  320TIP3    H122451   3.733   3.960  17.127  0.4835 -0.8573  0.9558
  320TIP3    H222452   3.744   4.101  17.180  0.4171 -0.6543  0.4427
  321TIP3   OH222453   1.435   3.139   3.244  0.0427  0.2862 -0.7280
  321TIP3    H122454   1.365   3.150   3.180 -1.0584 -2.6524 -0.1782
  321TIP3    H222455   1.490   3.070   3.207  0.5209 -0.0387  0.5524
  322TIP3   OH222456   6.271   0.250  12.284 -0.4883 -0.4416  0.1117
  322TIP3    H122457   6.236   0.171  12.242 -1.3464 -0.0580  0.0949
  322TIP3    H222458   6.311   0.218  12.365  1.7066 -1.2781 -1.2064
  323TIP3   OH222459   1.771   5.650   1.115  0.6483 -0.0092 -0.8680
  323TIP3    H122460   1.780   5.649   1.019  1.4796  1.0722 -0.8104
  323TIP3    H222461   1.701   5.713   1.132  0.3493 -0.3657 -0.7690
  324TIP3   OH222462   0.141   0.374   5.807  0.1789  0.7930  0.2986
  324TIP3    H122463   0.205   0.423   5.756  0.5772  0.5406  0.5403
  324TIP3    H222464   0.173   0.381   5.898 -0.2812  0.8810  0.4563
  325TIP3   OH222465   5.967   1.298  12.384  0.0522  0.5362  0.3537
  325TIP3    H122466   6.049   1.294  12.333 -0.5356  1.7675 -0.7240
  325TIP3    H222467   5.959   1.389  12.410 -0.0549  0.0715  2.0618
  326TIP3   OH222468   2.447   1.330   4.998  0.4964 -0.0664  0.1647
  326TIP3    H122469   2.389   1.301   5.069  1.0353 -1.0646  0.2167
  326TIP3    H222470   2.439   1.425   4.999 -2.8217 -0.1778 -1.2427
  327TIP3   OH222471   3.303   0.224   1.195  0.0005 -0.2265  0.2829
  327TIP3    H122472   3.208   0.218   1.186  0.2092 -2.8701 -0.9268
  327TIP3    H222473   3.324   0.170   1.271  0.7237 -2.5003 -1.4105
  328TIP3   OH222474   2.870   2.343   2.210 -0.3014 -0.1726 -0.4283
  328TIP3    H122475   2.892   2.398   2.135 -1.1019 -1.4063 -1.6067
  328TIP3    H222476   2.783   2.374   2.236  0.8361  1.7315  1.4465
  329TIP3   OH222477   2.341   1.033  12.678  0.3709 -0.3016 -0.1969
  329TIP3    H122478   2.428   0.998  12.695 -0.3015 -1.7371  0.4408
  329TIP3    H222479   2.357   1.122  12.645  2.0417 -0.4211  0.2041
  330TIP3   OH222480   1.347   3.812   5.835 -0.0505 -0.6460 -0.5362
  330TIP3    H122481   1.359   3.872   5.909 -1.8902 -0.7290 -0.1350
  330TIP3    H222482   1.433   3.811   5.792  0.5293  0.8795  0.4771
  331TIP3   OH222483   5.840   1.165   1.632 -0.1660 -0.3944  0.4273
  331TIP3    H122484   5.847   1.174   1.727  0.1136  2.2031  0.2430
  331TIP3    H222485   5.773   1.229   1.607 -1.0186 -1.8020 -1.0513
  332TIP3   OH222486   5.094   3.812   5.693 -0.1605  0.1856  0.1732
  332TIP3    H122487   5.128   3.769   5.614 -0.2019  1.1116 -0.3575
  332TIP3    H222488   5.131   3.900   5.690  0.1107  0.1172  1.3728
  333TIP3   OH222489   0.642   3.121   6.528 -0.2525 -0.8791 -0.2651
  333TIP3    H122490   0.716   3.113   6.468  1.4116 -0.8139  1.6760
  333TIP3    H222491   0.600   3.035   6.526  0.7041 -1.3596 -0.3944
  334TIP3   OH222492   6.138   4.296   5.699 -0.3130 -0.2387  0.4806
  334TIP3    H122493   6.111   4.265   5.785  0.9377 -0.5501  0.7841
  334TIP3    H222494   6.234   4.293   5.702 -0.2183  1.0471 -0.4425
  335TIP3   OH222495   1.050   3.525  14.058  0.3730 -0.0321  0.0581
  335TIP3    H122496   1.072   3.605  14.105 -0.3689  0.0789  0.2133
  335TIP3    H222497   1.103   3.457  14.101  0.3281  0.2122  0.5007
  336TIP3   OH222498   5.214   5.583   1.600 -0.0927  0.1379 -0.1107
  336TIP3    H122499   5.306   5.579   1.571 -0.4130 -1.5493 -1.0243
  336TIP3    H222500   5.165   5.601   1.520 -0.8340 -2.6188 -0.3499
  337TIP3   OH222501   1.876   4.561   0.974  0.1604 -0.8371 -0.2923
  337TIP3    H122502   1.800   4.506   0.992 -0.0196 -0.0832  1.5253
  337TIP3    H222503   1.932   4.549   1.051  0.3938  1.0048 -0.1309
  338TIP3   OH222504   6.725   2.300  12.480 -0.4283  0.0588  0.0806
  338TIP3    H122505   6.776   2.261  12.409 -2.7198 -1.8816 -0.6067
  338TIP3    H222506   6.702   2.226  12.536 -3.7439  0.5358 -0.4905
  339TIP3   OH222507   5.471   2.450  11.826  0.0634  0.3019 -0.1809
  339TIP3    H122508   5.514   2.479  11.746 -2.3894  1.1745 -1.2959
  339TIP3    H222509   5.407   2.519  11.846  0.1546 -0.1923  2.1979
  340TIP3   OH222510   3.261   1.778   5.848  0.1527 -0.4181  0.0758
  340TIP3    H122511   3.194   1.712   5.829 -0.3440 -0.5522  2.0832
  340TIP3    H222512   3.214   1.861   5.848  0.0123 -0.4793  1.1746
  341TIP3   OH222513   2.324   5.185   4.145  0.6713  0.3552 -0.4094
  341TIP3    H122514   2.273   5.255   4.104  1.1748  0.6456 -0.5587
  341TIP3    H222515   2.414   5.200   4.114  0.6212 -0.9923 -1.3071
  342TIP3   OH222516   6.108   0.186   5.115  0.1769 -0.1418 -0.1186
  342TIP3    H122517   6.127   0.231   5.197 -0.6947 -0.3529  0.2093
  342TIP3    H222518   6.106   0.255   5.049  1.1254 -0.0014 -0.0202
  343TIP3   OH222519   5.383   3.323   2.639 -0.3569  1.0400 -0.5647
  343TIP3    H122520   5.429   3.405   2.660  0.1544  0.2375  1.7373
  343TIP3    H222521   5.317   3.315   2.708  0.7540 -1.3360  0.2932
  344TIP3   OH222522   4.881   2.645  11.488 -0.5917  0.0491 -0.4581
  344TIP3    H122523   4.897   2.683  11.575  0.0894 -1.9284  0.3208
  344TIP3    H222524   4.789   2.663  11.471 -0.4462  1.4969  0.1352
  345TIP3   OH222525   5.127   5.204   1.372 -0.2111 -0.6697  0.0003
  345TIP3    H122526   5.037   5.234   1.378  0.7202  2.1963  2.7616
  345TIP3    H222527   5.172   5.272   1.323  1.0768  0.0981  2.1002
  346TIP3   OH222528   0.380   2.251  12.593 -0.2742 -0.5667  0.1946
  346TIP3    H122529   0.447   2.264  12.660 -1.1506  1.0688  0.7972
  346TIP3    H222530   0.300   2.234  12.642 -1.0473  1.2237 -0.3683
  347TIP3   OH222531   2.304   6.512   5.216  0.1122 -0.5044  0.6151
  347TIP3    H122532   2.394   6.491   5.244 -0.1953 -0.3019  1.7982
  347TIP3    H222533   2.264   6.426   5.201  1.0081 -0.6032 -1.7393
  348TIP3   OH222534   0.377   1.316  16.913 -0.4959 -0.1944 -0.2966
  348TIP3    H122535   0.337   1.236  16.946  0.0438 -0.2395  0.2593
  348TIP3    H222536   0.470   1.307  16.934 -0.4283  0.5755 -0.2304
  349TIP3   OH222537   3.922   5.877  14.342  0.1955 -0.8206 -0.2735
  349TIP3    H122538   3.936   5.792  14.383 -0.8945 -1.0758 -0.4031
  349TIP3    H222539   3.870   5.859  14.264 -1.5171  0.0936  0.5789
  350TIP3   OH222540   5.872   0.116   1.744  0.4357 -0.2000  0.1715
  350TIP3    H122541   5.950   0.159   1.708 -0.5292  0.7799 -0.7841
  350TIP3    H222542   5.862   0.037   1.692 -1.4334  1.6111 -2.4223
  351TIP3   OH222543   4.584   2.933  12.321  0.1776 -0.1711  1.2455
  351TIP3    H122544   4.585   2.837  12.321 -0.1068 -0.1761  0.7927
  351TIP3    H222545   4.546   2.957  12.405 -0.8587 -0.4734  0.8724
  352TIP3   OH222546   2.264   3.763   5.176 -0.3734  0.2533 -0.3872
  352TIP3    H122547   2.271   3.754   5.271 -0.1696 -2.4614 -0.5753
  352TIP3    H222548   2.183   3.810   5.163 -0.0306  1.3520  1.1365
  353TIP3   OH222549   0.691   2.489  17.240 -0.2368  0.1977  0.3552
  353TIP3    H122550   0.632   2.564  17.245  0.4207  0.6831  1.0665
  353TIP3    H222551   0.663   2.432  17.312 -0.8445 -0.3387 -0.2884
  354TIP3   OH222552   4.805   1.883   4.639 -0.4272  0.5243 -0.3086
  354TIP3    H122553   4.750   1.921   4.570 -1.6617 -2.4913 -1.1316
  354TIP3    H222554   4.823   1.794   4.608  0.0558 -0.5004  2.6729
  355TIP3   OH222555   2.456   4.188  15.448  0.0654 -0.0682 -0.2999
  355TIP3    H122556   2.456   4.251  15.520 -0.7916  1.4814 -1.6109
  355TIP3    H222557   2.365   4.184  15.420  0.3266 -0.9685 -1.0594
  356TIP3   OH222558   3.392   6.304   1.106 -0.2935  0.0215 -0.0136
  356TIP3    H122559   3.465   6.258   1.147 -0.6600 -2.3171 -1.7463
  356TIP3    H222560   3.409   6.296   1.012 -2.3107  0.1982 -0.4365
  357TIP3   OH222561   3.173   1.772  16.387 -0.6496  0.4793 -0.2311
  357TIP3    H122562   3.142   1.683  16.370  1.2045 -0.0730 -0.8491
  357TIP3    H222563   3.176   1.778  16.483 -1.8887  0.3088 -0.1608
  358TIP3   OH222564   3.994   6.559  13.388 -0.1509 -0.7172 -0.3544
  358TIP3    H122565   3.963   6.497  13.322 -0.6531 -0.6177 -0.2135
  358TIP3    H222566   4.070   6.601  13.347  0.2141 -1.4366 -0.4400
  359TIP3   OH222567   2.996   4.406   0.889  0.4274  0.2145 -0.5200
  359TIP3    H122568   2.909   4.373   0.869 -0.1658  0.9147  0.7970
  359TIP3    H222569   3.055   4.345   0.846 -0.7005  0.5687 -2.7359
  360TIP3   OH222570   2.623   4.535   2.180  0.2620 -0.0957  0.7007
  360TIP3    H122571   2.572   4.576   2.110 -1.3948 -1.3563  1.1020
  360TIP3    H222572   2.633   4.604   2.246  2.3698  1.3072 -0.9341
  361TIP3   OH222573   6.594   0.381   3.927 -0.2969  0.5219  0.1400
  361TIP3    H122574   6.684   0.398   3.956  0.7150 -0.2797 -2.2727
  361TIP3    H222575   6.562   0.467   3.900 -0.4260  0.8765  1.3659
  362TIP3   OH222576   4.371   5.430   5.777 -0.0560 -0.4078 -0.4563
  362TIP3    H122577   4.345   5.377   5.701  0.6997 -1.0303 -0.2922
  362TIP3    H222578   4.369   5.520   5.745 -1.7296 -0.4919 -0.6305
  363TIP3   OH222579   2.453   1.009  15.514  0.4823 -0.0673 -0.1087
  363TIP3    H122580   2.405   1.086  15.546 -0.4736 -0.9265  0.5891
  363TIP3    H222581   2.387   0.941  15.507  0.9175 -0.3290 -2.6324
  364TIP3   OH222582   5.854   6.593   6.329  0.6055  0.5260  0.4810
  364TIP3    H122583   5.945   6.620   6.343  0.7631  0.1456  0.2160
  364TIP3    H222584   5.809   6.675   6.307  1.3694  0.4292 -1.7667
  365TIP3   OH222585   3.889   3.652  14.826 -0.5585 -0.1950 -0.3087
  365TIP3    H122586   3.818   3.679  14.885  0.4002  1.4247  0.1695
  365TIP3    H222587   3.845   3.621  14.747 -1.8041  0.5408  0.0769
  366TIP3   OH222588   4.949   3.272  13.705  0.0846  0.0115 -0.3062
  366TIP3    H122589   4.967   3.178  13.706  0.3890  0.0717 -0.0493
  366TIP3    H222590   4.939   3.293  13.612  0.5606 -0.1764 -0.4022
  367TIP3   OH222591   1.799   0.685  12.363 -0.1580 -0.2353 -0.2270
  367TIP3    H122592   1.739   0.623  12.323 -1.0973 -0.6193  1.6429
  367TIP3    H222593   1.886   0.655  12.338 -0.6764 -0.7856 -1.4261
  368TIP3   OH222594   2.973   6.271   5.596 -0.4874  0.0449 -0.1722
  368TIP3    H122595   2.983   6.366   5.606  0.6571 -0.1476  0.7578
  368TIP3    H222596   2.986   6.236   5.684 -0.5967 -1.0008 -0.5506
  369TIP3   OH222597   2.196   2.403  11.601 -0.2167  0.2705  0.3838
  369TIP3    H122598   2.218   2.421  11.693 -0.0103 -2.9726  1.0991
  369TIP3    H222599   2.271   2.436  11.552  1.0048 -0.4400  1.6944
  370TIP3   OH222600   1.582   6.742  12.699 -0.0119 -0.0026  0.1385
  370TIP3    H122601   1.603   6.757  12.607  1.8261 -1.1492  0.3305
  370TIP3    H222602   1.588   6.647  12.710 -0.2912  0.1094  1.4283
  371TIP3   OH222603   0.178   1.343  16.523  0.0789 -0.7545 -0.5922
  371TIP3    H122604   0.247   1.374  16.582 -0.0026  3.1865 -2.2922
  371TIP3    H222605   0.107   1.318  16.581  1.4213 -0.8733  1.0803
  372TIP3   OH222606   0.507   6.226  13.042  0.1657  0.1851 -0.2697
  372TIP3    H122607   0.575   6.228  12.974 -1.1305 -0.6105 -1.6534
  372TIP3    H222608   0.525   6.147  13.092  1.2178  0.8539  0.4508
  373TIP3   OH222609   5.335   1.121  14.042  0.3275  0.1345 -0.0116
  373TIP3    H122610   5.407   1.075  14.086  0.0289 -1.2707 -0.9338
  373TIP3    H222611   5.256   1.078  14.073 -0.0488  0.8863  0.0858
  374TIP3   OH222612   5.359   4.579  15.785  0.3943 -0.3383  0.0144
  374TIP3    H122613   5.338   4.518  15.715 -0.0004 -1.1179  0.7897
  374TIP3    H222614   5.343   4.529  15.865  0.6219  0.6044  0.6589
  375TIP3   OH222615   2.173   3.004  16.951 -0.2506 -0.4130 -0.1533
  375TIP3    H122616   2.161   3.063  17.026 -0.9684 -0.3117 -0.3466
  375TIP3    H222617   2.216   3.058  16.885  0.8094 -0.6253  0.3363
  376TIP3   OH222618   3.718   6.561   6.113  0.1373  0.4018 -0.4474
  376TIP3    H122619   3.695   6.482   6.063  0.4859  0.0708 -0.0875
  376TIP3    H222620   3.660   6.629   6.077 -1.3896 -0.3918  0.3846
  377TIP3   OH222621   1.046   1.973  14.389 -0.0233  0.5624  0.1197
  377TIP3    H122622   0.959   1.986  14.352  0.7131  1.1219 -1.5332
  377TIP3    H222623   1.032   1.975  14.483 -2.0664 -1.3828 -0.0434
  378TIP3   OH222624   4.689   2.748  14.745 -0.7045  0.2486  0.6105
  378TIP3    H122625   4.612   2.697  14.769 -0.1827 -0.5211  0.6833
  378TIP3    H222626   4.682   2.760  14.651 -1.1767  0.6316  0.6900
  379TIP3   OH222627   1.664   4.595  16.522 -0.1568  0.1469  0.7980
  379TIP3    H122628   1.669   4.520  16.463 -0.8884  1.0987 -0.5409
  379TIP3    H222629   1.687   4.670  16.467  0.6682  0.9042  2.1256
  380TIP3   OH222630   2.104   6.752  16.350  0.5282 -0.0027 -0.0982
  380TIP3    H122631   2.114   6.821  16.285 -0.8752  0.2179 -0.1181
  380TIP3    H222632   2.191   6.713  16.358  1.3610  1.7594 -0.0851
  381TIP3   OH222633   6.311   1.367  12.023  0.2749  0.0073 -0.3575
  381TIP3    H122634   6.314   1.378  11.928  1.4677  0.6104 -0.2701
  381TIP3    H222635   6.402   1.369  12.050 -0.0268 -0.6187  0.7620
  382TIP3   OH222636   5.304   2.040  11.053  0.1654  0.7707 -0.2924
  382TIP3    H122637   5.253   2.120  11.061  1.4198  1.5067  0.8639
  382TIP3    H222638   5.394   2.067  11.070  0.5814 -0.9194  0.4227
  383TIP3   OH222639   0.927   2.639   3.646 -0.0166 -0.3155  0.4555
  383TIP3    H122640   1.005   2.620   3.698 -0.2249  1.6063  1.5360
  383TIP3    H222641   0.933   2.577   3.572  0.8703 -2.3552  2.1106
  384TIP3   OH222642   2.137   4.610   6.541 -0.2100 -0.0760 -0.0144
  384TIP3    H122643   2.084   4.690   6.535 -0.3339 -0.1875 -0.4895
  384TIP3    H222644   2.183   4.617   6.624 -0.3309  0.4224  0.0109
  385TIP3   OH222645   3.036   5.316  14.478 -0.0870 -0.3777  0.9349
  385TIP3    H122646   2.955   5.269  14.459  0.1830 -1.5099  2.4036
  385TIP3    H222647   3.081   5.321  14.393 -1.1168 -0.8257  0.3429
  386TIP3   OH222648   4.549   5.066  16.756  0.5143  0.1206  0.2633
  386TIP3    H122649   4.617   5.088  16.819 -0.1715 -0.2310  1.1371
  386TIP3    H222650   4.480   5.131  16.771  0.6862  0.5366 -0.6800
  387TIP3   OH222651   1.539   0.775   2.240 -0.1891 -0.3251 -0.9154
  387TIP3    H122652   1.623   0.730   2.247 -0.7525 -1.0729  2.0939
  387TIP3    H222653   1.483   0.712   2.195  0.0572 -1.0981 -0.1731
  388TIP3   OH222654   3.008   4.530  11.992 -0.0782  0.5023  0.6887
  388TIP3    H122655   2.963   4.567  11.916  0.7167 -1.2792 -0.7150
  388TIP3    H222656   2.946   4.541  12.064 -2.4119 -1.0231 -0.9643
  389TIP3   OH222657   6.024   0.103   4.664 -0.2632  0.1282  0.0724
  389TIP3    H122658   6.098   0.151   4.626  1.2912 -0.4037  2.1975
  389TIP3    H222659   6.064   0.046   4.729 -2.4415 -1.3423  0.2192
  390TIP3   OH222660   4.666   4.600  12.590  0.0098 -0.2251  0.7794
  390TIP3    H122661   4.732   4.661  12.558 -1.9186  1.4475 -0.2253
  390TIP3    H222662   4.713   4.544  12.652  2.2853  1.0297  0.2906
  391TIP3   OH222663   0.542   1.919   2.641 -0.4272 -0.1779  0.8434
  391TIP3    H122664   0.528   1.835   2.686 -2.2759  0.1323  0.9151
  391TIP3    H222665   0.500   1.984   2.698 -0.6066  0.5592 -0.1112
  392TIP3   OH222666   4.273   5.829   2.673  0.4725 -0.3860  0.3497
  392TIP3    H122667   4.317   5.881   2.605 -0.1240  0.6463  0.7247
  392TIP3    H222668   4.224   5.763   2.625  0.8058 -0.2642 -0.1688
  393TIP3   OH222669   2.742   5.308   3.927  0.0081  0.4947  0.5119
  393TIP3    H122670   2.800   5.356   3.987 -2.0289  1.2717  1.9681
  393TIP3    H222671   2.797   5.289   3.851  1.8262  2.2525  1.2920
  394TIP3   OH222672   2.990   4.818   5.610 -0.5330  0.2939  0.0744
  394TIP3    H122673   2.984   4.907   5.647 -0.5294  0.7216 -0.9383
  394TIP3    H222674   2.918   4.814   5.548  1.3906  0.7558 -2.3111
  395TIP3   OH222675   0.217   0.717   0.110  0.2646 -0.1316 -0.3628
  395TIP3    H122676   0.165   0.750   0.183  1.4964  0.2963  0.3362
  395TIP3    H222677   0.208   0.622   0.115  0.0890 -0.0902  0.1438
  396TIP3   OH222678   0.817   2.917   0.260 -0.3392  0.3679 -0.3963
  396TIP3    H122679   0.786   2.829   0.282 -0.0554  0.1737 -0.7587
  396TIP3    H222680   0.767   2.942   0.183  1.0019 -0.3131 -1.5383
  397TIP3   OH222681   5.525   0.711   3.142 -0.3656  0.0205 -0.0004
  397TIP3    H122682   5.493   0.761   3.217  1.6354 -0.9028  1.5581
  397TIP3    H222683   5.591   0.768   3.101  1.1898 -0.8506  1.1832
  398TIP3   OH222684   0.127   5.943   4.412  0.6213  0.0410  0.0794
  398TIP3    H122685   0.214   5.938   4.371  0.0618  0.0979 -1.1650
  398TIP3    H222686   0.070   5.976   4.343 -0.5389 -0.6738  0.6676
  399TIP3   OH222687   1.197   1.303   1.787 -0.6604  0.2187 -0.0261
  399TIP3    H122688   1.130   1.315   1.720 -1.1327 -1.2943  0.1193
  399TIP3    H222689   1.152   1.255   1.857  0.4447 -0.4137  0.2787
  400TIP3   OH222690   4.992   6.074   1.295 -0.1516  0.7265 -0.1872
  400TIP3    H122691   4.956   6.034   1.216 -1.6953  0.1275  0.7753
  400TIP3    H222692   4.926   6.137   1.323 -0.3772 -0.1601  1.4496
  401TIP3   OH222693   5.754   3.548  12.209  0.2333 -0.3134 -0.1146
  401TIP3    H122694   5.662   3.544  12.238 -0.6341  0.8215 -2.4886
  401TIP3    H222695   5.790   3.624  12.253 -0.1269 -0.4140  0.3652
  402TIP3   OH222696   2.239   0.053  14.252 -0.2291 -0.2845 -0.0545
  402TIP3    H122697   2.333   0.045  14.265  0.0788  1.1764 -1.0747
  402TIP3    H222698   2.201  -0.017  14.304  1.3674 -0.3110  1.1446
  403TIP3   OH222699   2.840   4.046  13.420  0.0502 -0.0181 -0.2811
  403TIP3    H122700   2.763   3.992  13.438  0.9109 -1.2795 -0.2663
  403TIP3    H222701   2.830   4.122  13.477 -1.4908  0.1531 -0.7286
  404TIP3   OH222702   6.596   5.563  13.335 -0.0164  0.1710 -0.6725
  404TIP3    H122703   6.632   5.584  13.249  1.5648  2.0524  0.3682
  404TIP3    H222704   6.565   5.473  13.327 -0.8763  0.6470 -3.4818
  405TIP3   OH222705   5.569   5.975  13.097  0.0623 -0.1793 -0.3289
  405TIP3    H122706   5.569   5.886  13.131  1.8689 -0.6047 -1.3060
  405TIP3    H222707   5.547   5.966  13.005  1.1780  0.2446 -0.6554
  406TIP3   OH222708   6.366   0.862  16.202  0.6536  0.4487 -0.3373
  406TIP3    H122709   6.423   0.798  16.159  1.5476  1.4882 -0.7330
  406TIP3    H222710   6.281   0.850  16.159  0.9335 -0.1609 -0.7304
  407TIP3   OH222711   5.491   0.364   4.706  0.0762 -0.2797  0.0455
  407TIP3    H122712   5.427   0.389   4.773  1.4846  1.0830  0.9553
  407TIP3    H222713   5.439   0.351   4.627 -1.8023 -3.0033  1.5632
  408TIP3   OH222714   2.137   1.539  11.196  0.1760 -0.2201  0.0185
  408TIP3    H122715   2.195   1.614  11.193  1.9872 -1.5715 -0.5516
  408TIP3    H222716   2.063   1.564  11.140  0.0508  1.6196  0.9301
  409TIP3   OH222717   2.640   0.680  14.258  0.7625  0.3385 -0.3594
  409TIP3    H122718   2.617   0.679  14.165 -1.0585  0.9025  0.0366
  409TIP3    H222719   2.564   0.721  14.301  0.3285 -2.3143  1.6714
  410TIP3   OH222720   1.020   3.643   1.012  0.0323 -0.2595 -0.0299
  410TIP3    H122721   1.079   3.575   0.979  0.7544  0.0260  0.6172
  410TIP3    H222722   1.049   3.723   0.969 -0.7358 -0.3330 -0.6961
  411TIP3   OH222723   1.144   2.866  11.350 -0.0090 -0.5225  0.1958
  411TIP3    H122724   1.090   2.794  11.383  0.8840 -1.1623  0.3039
  411TIP3    H222725   1.098   2.945  11.377 -1.0946 -1.0438 -0.0622
  412TIP3   OH222726   4.963   6.146  14.675  0.2499 -0.0190 -0.1616
  412TIP3    H122727   5.015   6.157  14.595  1.4815  2.3849  0.8758
  412TIP3    H222728   5.021   6.171  14.746 -1.2326 -0.7825  1.3946
  413TIP3   OH222729   4.904   2.670  16.042  0.0767 -0.6311  0.8337
  413TIP3    H122730   4.994   2.644  16.023  0.6252  0.4040  1.8453
  413TIP3    H222731   4.877   2.721  15.966  0.6681 -0.2166  0.8938
  414TIP3   OH222732   2.562   0.259  13.984 -0.1727  0.1749  0.6538
  414TIP3    H122733   2.530   0.308  14.060 -0.5862 -0.8418  1.1487
  414TIP3    H222734   2.485   0.251  13.927 -0.4949 -1.1626  1.2541
  415TIP3   OH222735   2.270   5.343  17.338  0.2608 -0.0770  0.0021
  415TIP3    H122736   2.225   5.263  17.311  1.4048 -0.9081  0.4954
  415TIP3    H222737   2.346   5.349  17.281  0.2837  0.5617  0.0910
  416TIP3   OH222738   0.524   5.275  12.656  0.2302  0.7527 -0.3147
  416TIP3    H122739   0.522   5.342  12.587  0.0618 -0.2237 -1.2790
  416TIP3    H222740   0.564   5.199  12.614  2.0588  0.7589  1.2499
  417TIP3   OH222741   0.494   1.896  13.767 -0.4404  0.1150 -0.0675
  417TIP3    H122742   0.487   1.849  13.850 -0.3072 -0.8015 -0.5629
  417TIP3    H222743   0.475   1.830  13.700  0.3135  0.6307 -0.8098
  418TIP3   OH222744   4.395   3.421  15.380 -0.7779 -0.2784 -0.4473
  418TIP3    H122745   4.360   3.483  15.444 -0.7605  0.3669 -1.0530
  418TIP3    H222746   4.487   3.412  15.404 -0.9381 -0.5950  0.0559
  419TIP3   OH222747   5.830   1.997   4.688  0.0147  0.3632 -0.2739
  419TIP3    H122748   5.769   2.066   4.716  0.9140  0.6988  0.8908
  419TIP3    H222749   5.773   1.929   4.652 -0.9519  1.3221 -0.6303
  420TIP3   OH222750   5.069   6.266   5.042  0.0762  0.9839 -0.3645
  420TIP3    H122751   5.138   6.299   5.099 -1.1328 -0.0549  1.8415
  420TIP3    H222752   5.057   6.334   4.977  2.2016  1.8039  0.0203
  421TIP3   OH222753   0.487   0.285  13.360  0.2860 -1.1660 -0.0905
  421TIP3    H122754   0.531   0.200  13.362 -0.2940 -1.4706  2.2606
  421TIP3    H222755   0.530   0.337  13.428  1.8041  1.1407 -2.5971
  422TIP3   OH222756   4.289   1.928  12.502 -0.0888 -0.1930  0.0491
  422TIP3    H122757   4.244   1.944  12.585 -0.6282 -0.2454 -0.2286
  422TIP3    H222758   4.218   1.915  12.439  0.3186 -0.2059 -0.4090
  423TIP3   OH222759   4.481   6.251  12.421  0.1878  0.3155  0.1528
  423TIP3    H122760   4.574   6.256  12.441  0.7249  0.0667 -1.9964
  423TIP3    H222761   4.457   6.160  12.437  0.5744  0.1363 -0.2884
  424TIP3   OH222762   3.141   0.763   5.309  0.8151 -0.5041 -0.2607
  424TIP3    H122763   3.209   0.822   5.340 -0.8485  1.9153 -0.9266
  424TIP3    H222764   3.105   0.723   5.389  0.8544  0.6935  0.3697
  425TIP3   OH222765   3.981   2.715   3.482 -0.1710 -0.0174 -0.1701
  425TIP3    H122766   4.073   2.728   3.505 -0.2231  1.1424 -0.5375
  425TIP3    H222767   3.950   2.647   3.542  0.3482  1.1611  1.4940
  426TIP3   OH222768   2.239   6.345  16.221  0.4046 -0.1308  0.2117
  426TIP3    H122769   2.202   6.410  16.161 -1.5880  0.5964  2.1120
  426TIP3    H222770   2.189   6.266  16.205 -1.8095  0.6964  2.3813
  427TIP3   OH222771   4.849   6.247   3.429  0.4183  0.3584 -0.0903
  427TIP3    H122772   4.864   6.327   3.480  1.2700 -0.3826  0.8549
  427TIP3    H222773   4.937   6.221   3.400  0.0861  0.0477 -0.8243
  428TIP3   OH222774   6.230   0.232   4.502 -0.3511 -0.9771  0.1050
  428TIP3    H122775   6.289   0.173   4.455  0.8865 -1.1701  1.8093
  428TIP3    H222776   6.284   0.309   4.521 -1.0089 -0.6476  0.6721
  429TIP3   OH222777   4.130   1.896   0.705 -0.2165 -0.6444 -0.5795
  429TIP3    H122778   4.087   1.828   0.653  0.2077 -0.2291 -1.5058
  429TIP3    H222779   4.071   1.911   0.778 -0.3127 -2.0077 -0.3443
  430TIP3   OH222780   0.274   6.602  15.910  0.4729  0.4120  0.2707
  430TIP3    H122781   0.216   6.670  15.875  0.1327  0.1705  0.3653
  430TIP3    H222782   0.236   6.579  15.995 -0.7892 -1.5668 -0.7584
  431TIP3   OH222783   0.733   4.263  14.375 -0.1246 -0.3476  0.1684
  431TIP3    H122784   0.642   4.292  14.384  0.1945  0.3437  1.3682
  431TIP3    H222785   0.750   4.266  14.281 -0.7906  1.2574  0.0631
  432TIP3   OH222786   3.885   1.080  10.715  0.1065 -0.2734 -0.3594
  432TIP3    H122787   3.857   1.050  10.801  1.3967  1.3903  0.6968
  432TIP3    H222788   3.956   1.020  10.690 -0.0901 -0.5942 -0.1516
  433TIP3   OH222789   0.968   0.380   3.276 -0.1478  0.0979 -0.1296
  433TIP3    H122790   1.063   0.373   3.261 -0.1176  0.4832 -0.1421
  433TIP3    H222791   0.936   0.430   3.201 -0.4744 -0.6566 -0.4941
  434TIP3   OH222792   6.671   4.184   6.209  0.4938 -0.2581 -0.5014
  434TIP3    H122793   6.765   4.176   6.222  0.8427  0.6662 -2.1699
  434TIP3    H222794   6.634   4.182   6.297  2.0452 -0.7636  0.1753
  435TIP3   OH222795   1.172   0.389  14.448 -0.4749 -0.0662 -0.1268
  435TIP3    H122796   1.093   0.401  14.502 -0.9367 -0.9859 -0.5774
  435TIP3    H222797   1.228   0.331  14.499 -0.7135 -0.5623 -0.4172
  436TIP3   OH222798   0.534   5.246   6.232  0.2624  0.5402 -0.4688
  436TIP3    H122799   0.574   5.308   6.293  1.1032 -1.1168  0.7650
  436TIP3    H222800   0.444   5.237   6.262  0.8626 -0.8116  1.0569
  437TIP3   OH222801   5.940   4.730  16.977 -0.0931  0.1059 -0.3884
  437TIP3    H122802   5.878   4.668  17.016 -0.3389  2.9221  4.5429
  437TIP3    H222803   5.890   4.810  16.962  1.4725  1.2034 -0.1044
  438TIP3   OH222804   5.510   0.545  12.255 -0.9066 -0.1176  0.6728
  438TIP3    H122805   5.508   0.488  12.178  1.9466 -1.4714  1.4650
  438TIP3    H222806   5.425   0.532  12.297 -2.7270  0.9569 -2.3404
  439TIP3   OH222807   2.093   3.489  12.817  0.2283 -0.0472  0.1486
  439TIP3    H122808   2.082   3.556  12.749 -0.6145  1.4787  1.7176
  439TIP3    H222809   2.044   3.523  12.892  0.6149 -1.9761  1.3324
  440TIP3   OH222810   2.259   1.957  14.242 -0.8238  0.7829 -0.1520
  440TIP3    H122811   2.248   2.003  14.159  1.0569 -0.3938 -1.1373
  440TIP3    H222812   2.188   1.894  14.244  0.3526 -0.7161 -2.0416
  441TIP3   OH222813   6.437   5.456  17.251 -0.2163 -0.1547 -0.2611
  441TIP3    H122814   6.425   5.508  17.171 -1.5150 -0.0068  0.0035
  441TIP3    H222815   6.416   5.366  17.224 -2.3780  0.1446  0.2693
  442TIP3   OH222816   3.911   2.755  15.964 -0.0809 -0.1264  0.3969
  442TIP3    H122817   3.913   2.850  15.952 -0.9527 -0.2631 -1.0996
  442TIP3    H222818   4.002   2.727  15.950 -0.1627  0.2998 -1.2731
  443TIP3   OH222819   2.799   5.572   4.521 -0.0322  0.2701  0.1634
  443TIP3    H122820   2.833   5.493   4.480  1.6417  0.9782  0.1033
  443TIP3    H222821   2.741   5.540   4.591  0.6114 -0.9914  0.1498
  444TIP3   OH222822   4.019   4.233   1.273 -0.5280  1.1671  0.3674
  444TIP3    H122823   4.059   4.307   1.319  0.6338  1.1769 -0.6277
  444TIP3    H222824   3.969   4.272   1.202 -0.1703  1.0124  0.0299
  445TIP3   OH222825   4.262   4.075   2.598 -0.1540 -0.0284 -0.0576
  445TIP3    H122826   4.237   4.161   2.632  2.0255  0.1944  1.1809
  445TIP3    H222827   4.336   4.093   2.541 -1.1603 -0.8817 -1.6964
  446TIP3   OH222828   3.079   5.931   1.685  0.5073 -0.0593  0.0294
  446TIP3    H122829   3.084   5.969   1.773 -2.1399  3.0117 -0.9335
  446TIP3    H222830   2.989   5.898   1.678  1.5107 -2.9074 -0.6647
  447TIP3   OH222831   6.367   5.291   3.248 -0.0780 -0.3415  0.2337
  447TIP3    H122832   6.431   5.231   3.208 -2.2660 -3.0914  0.5267
  447TIP3    H222833   6.298   5.300   3.182 -0.2773  1.1081  0.6080
  448TIP3   OH222834   3.788   4.216  12.286 -0.3312  0.1586 -0.2647
  448TIP3    H122835   3.735   4.287  12.322  1.6898  1.2248  0.7518
  448TIP3    H222836   3.807   4.242  12.196 -1.4333 -0.2227 -0.6339
  449TIP3   OH222837   5.921   3.357   1.420  0.2909 -0.5079 -0.2898
  449TIP3    H122838   5.862   3.399   1.359 -0.0827 -0.3738  0.1606
  449TIP3    H222839   5.864   3.306   1.478  0.5535  0.1454  0.5562
  450TIP3   OH222840   2.717   1.634   2.723 -0.1458  0.5569  0.2303
  450TIP3    H122841   2.756   1.559   2.679 -0.1735  0.1149  0.9343
  450TIP3    H222842   2.760   1.636   2.809 -1.5282  0.1553  0.9643
  451TIP3   OH222843   3.886   2.951  16.848 -0.0821 -0.7423  0.1921
  451TIP3    H122844   3.873   3.003  16.768  1.8305  2.1212  1.5562
  451TIP3    H222845   3.804   2.963  16.897  0.7538  2.4077  1.0817
  452TIP3   OH222846   3.120   1.987  11.519 -0.5149  0.3151 -0.2832
  452TIP3    H122847   3.206   2.000  11.560 -0.4101 -0.3098 -0.3008
  452TIP3    H222848   3.061   2.039  11.573 -0.2253  0.2550  0.1007
  453TIP3   OH222849   0.518   0.913  14.961  0.0979  0.1846 -0.5009
  453TIP3    H122850   0.432   0.874  14.947 -0.6341  1.4402  0.2551
  453TIP3    H222851   0.539   0.955  14.878 -0.8072  1.2690 -0.2204
  454TIP3   OH222852   0.525   2.881  16.841  0.2529 -0.0837  0.0152
  454TIP3    H122853   0.577   2.936  16.783  1.9163 -2.0954 -0.5084
  454TIP3    H222854   0.504   2.937  16.916  1.5699  1.3411 -0.6477
  455TIP3   OH222855   3.234   6.631   3.344  0.0299 -0.1944  0.7436
  455TIP3    H122856   3.147   6.663   3.369 -0.4473 -1.9605  1.4239
  455TIP3    H222857   3.285   6.711   3.333 -0.9332  0.8409  3.0013
  456TIP3   OH222858   1.864   0.162  11.537  0.2281 -0.1577  0.4775
  456TIP3    H122859   1.913   0.223  11.482  0.3691 -2.3726 -2.0332
  456TIP3    H222860   1.928   0.096  11.563 -0.5857 -1.0139  0.3588
  457TIP3   OH222861   4.903   1.140  16.699  0.1512  0.2543  0.2013
  457TIP3    H122862   4.994   1.112  16.687  0.0322 -1.1940  2.2022
  457TIP3    H222863   4.902   1.231  16.670  2.1653  0.2130 -0.1525
  458TIP3   OH222864   5.012   4.957   2.261 -0.7384  0.3841  0.2653
  458TIP3    H122865   4.981   4.976   2.349  0.9982  1.5200  0.6880
  458TIP3    H222866   4.995   4.863   2.250  0.0094 -0.0501  2.2614
  459TIP3   OH222867   3.496   2.017   5.634 -0.5428  0.6012 -0.0859
  459TIP3    H122868   3.472   1.936   5.588 -0.2441 -0.1291  1.0199
  459TIP3    H222869   3.534   1.987   5.717  0.3234  1.8553 -0.0101
  460TIP3   OH222870   4.197   2.262   1.654 -0.0854  0.1090  0.4811
  460TIP3    H122871   4.148   2.294   1.578  1.9069  2.3046 -0.0087
  460TIP3    H222872   4.289   2.270   1.628  0.6160 -2.0439  2.0440
  461TIP3   OH222873   1.995   3.897  13.490  1.0258 -0.3438 -0.3191
  461TIP3    H122874   1.922   3.924  13.545  1.9051 -1.1227  1.3041
  461TIP3    H222875   1.955   3.848  13.418 -0.0993  0.0506  0.0176
  462TIP3   OH222876   0.721   4.635  14.542  0.0191 -0.6319  0.0974
  462TIP3    H122877   0.681   4.706  14.592  0.0172 -0.8381  0.3908
  462TIP3    H222878   0.815   4.655  14.542  0.1542 -1.2203  1.1406
  463TIP3   OH222879   5.891   1.080  16.077  0.2120 -0.0079  0.2297
  463TIP3    H122880   5.904   0.994  16.036  1.8089  0.0119  0.6328
  463TIP3    H222881   5.885   1.062  16.170  1.8790  0.3785  0.4588
  464TIP3   OH222882   6.511   5.766   0.902  0.3331 -0.4350  0.1549
  464TIP3    H122883   6.416   5.763   0.909  0.2971  0.2855  0.1001
  464TIP3    H222884   6.528   5.755   0.808  0.4834 -3.6095  0.4512
  465TIP3   OH222885   6.324   5.824   5.468 -0.2226 -0.3184 -0.5380
  465TIP3    H122886   6.381   5.753   5.439 -0.7348 -0.0002 -2.4416
  465TIP3    H222887   6.235   5.792   5.453 -0.4773  0.3339 -0.4510
  466TIP3   OH222888   5.871   0.066  16.854  0.3094 -0.1449  0.4289
  466TIP3    H122889   5.798   0.101  16.904 -0.4977  3.2604 -2.6714
  466TIP3    H222890   5.949   0.106  16.893 -0.0311  0.3223  0.6395
  467TIP3   OH222891   0.667   2.923  13.341 -0.2708 -0.1048  0.1720
  467TIP3    H122892   0.653   3.013  13.313 -2.6754  0.1363  1.8162
  467TIP3    H222893   0.709   2.930  13.427  0.5146 -0.5879 -0.1663
  468TIP3   OH222894   0.891   0.287   3.522 -0.0900  0.5280  0.0665
  468TIP3    H122895   0.964   0.238   3.559 -0.1758  0.1124 -0.2952
  468TIP3    H222896   0.918   0.307   3.432 -0.5488  0.0618 -0.1883
  469TIP3   OH222897   0.921   3.387  16.637  0.6483 -0.0304  0.3238
  469TIP3    H122898   0.925   3.473  16.679 -0.6570 -0.0199  0.4778
  469TIP3    H222899   0.977   3.332  16.691  0.0556  0.3039  1.3121
  470TIP3   OH222900   4.997   5.858   5.835  0.1360 -0.0467 -0.0374
  470TIP3    H122901   5.037   5.927   5.888 -0.5097  0.1343  0.2289
  470TIP3    H222902   5.071   5.810   5.797  0.6482 -0.9982  2.0657
  471TIP3   OH222903   0.876   2.159   1.987 -0.1340  0.1568  0.4862
  471TIP3    H122904   0.846   2.250   1.983  0.0623  0.2486  1.0525
  471TIP3    H222905   0.832   2.122   2.063 -2.4079 -1.0466 -1.2554
  472TIP3   OH222906   1.943   5.545   2.430 -0.3066 -0.0780  0.0170
  472TIP3    H122907   1.932   5.641   2.431 -1.2366 -0.1742  0.9544
  472TIP3    H222908   2.033   5.532   2.399 -0.3598  1.0730 -0.7127
  473TIP3   OH222909   0.418   2.612   2.938  0.3853 -0.1424  0.7614
  473TIP3    H122910   0.513   2.625   2.934  0.1998  0.9783 -1.1206
  473TIP3    H222911   0.393   2.654   3.021  1.3680  0.9343  0.5550
  474TIP3   OH222912   0.671   3.971  16.622  0.5552  0.0110 -0.0790
  474TIP3    H122913   0.749   3.982  16.567  0.5380  2.4746  0.2811
  474TIP3    H222914   0.653   4.059  16.656 -2.3330 -0.4933 -0.0592
  475TIP3   OH222915   3.081   3.646  12.180  0.5086 -0.1269 -0.1630
  475TIP3    H122916   3.078   3.732  12.221  1.2191  1.0751 -2.4492
  475TIP3    H222917   3.003   3.601  12.213  1.1505  0.5807  2.6017
  476TIP3   OH222918   2.487   4.257  15.939  0.2087 -0.4761 -0.3094
  476TIP3    H122919   2.519   4.307  15.864 -1.4268 -1.6765 -1.9171
  476TIP3    H222920   2.565   4.237  15.990  1.3821  0.4267 -1.6632
  477TIP3   OH222921   1.187   3.282  12.861 -0.0946 -0.3229 -0.0181
  477TIP3    H122922   1.185   3.263  12.955 -1.0909  0.0406  0.0462
  477TIP3    H222923   1.100   3.258  12.830 -0.0923  0.4634 -0.6650
  478TIP3   OH222924   5.185   4.708  17.016  0.0133  0.0238  0.0335
  478TIP3    H122925   5.218   4.792  17.047  0.3223  0.6264 -1.8417
  478TIP3    H222926   5.141   4.728  16.933 -3.3264 -1.0701  1.3815
  479TIP3   OH222927   5.236   2.079  13.302 -0.0329 -0.5324  0.5080
  479TIP3    H122928   5.201   1.991  13.319  0.8348 -0.5141  2.7624
  479TIP3    H222929   5.311   2.086  13.361  1.5739  0.7595 -1.5810
  480TIP3   OH222930   5.857   6.314  14.983 -0.2922 -0.8118  0.3703
  480TIP3    H122931   5.807   6.249  15.033 -0.1905 -0.2542  1.2178
  480TIP3    H222932   5.909   6.360  15.049 -1.8999  1.5256  0.1161
  481TIP3   OH222933   2.733   3.461   1.761  0.5712 -0.2780 -0.8004
  481TIP3    H122934   2.663   3.507   1.714 -0.2454 -1.1765 -0.5041
  481TIP3    H222935   2.781   3.530   1.807 -1.0992  0.2300  0.2648
  482TIP3   OH222936   5.066   3.907  11.553 -0.0448 -0.6512  0.2424
  482TIP3    H122937   5.069   3.811  11.545  1.0893 -0.9857  3.2390
  482TIP3    H222938   5.026   3.922  11.639 -1.6692  1.6950 -0.8079
  483TIP3   OH222939   5.044   2.080   2.915 -0.5025 -0.1147 -0.7412
  483TIP3    H122940   4.970   2.126   2.874 -0.9566  0.4268  0.6415
  483TIP3    H222941   5.103   2.149   2.944  0.4610 -0.5397 -1.6121
  484TIP3   OH222942   6.693   6.551  12.939  0.2702 -0.0669  0.0989
  484TIP3    H122943   6.745   6.589  12.868  0.2464  1.3486  0.8054
  484TIP3    H222944   6.624   6.616  12.955  0.1429 -0.4717  1.2659
  485TIP3   OH222945   1.708   1.330  15.345 -0.8102  0.1603  0.0372
  485TIP3    H122946   1.710   1.362  15.255 -2.2916 -1.1875 -0.5336
  485TIP3    H222947   1.799   1.308  15.365 -0.6863 -1.5303 -1.9451
  486TIP3   OH222948   2.511   6.311  16.045  0.1527 -0.2054 -0.0225
  486TIP3    H122949   2.440   6.361  16.086 -1.2364 -2.0729 -0.0076
  486TIP3    H222950   2.522   6.351  15.959  0.3647  1.2589  0.6527
  487TIP3   OH222951   4.885   6.292   1.423 -0.1009 -0.3715  0.5013
  487TIP3    H122952   4.856   6.327   1.507  1.3942 -0.9946  1.3142
  487TIP3    H222953   4.839   6.344   1.357 -1.7494 -0.2598  1.6975
  488TIP3   OH222954   4.983   3.150  11.973 -0.2374 -0.4649 -0.0533
  488TIP3    H122955   4.906   3.207  11.971 -0.3061 -0.5845 -1.2844
  488TIP3    H222956   5.018   3.154  11.884  0.7370 -1.0220  0.2936
  489TIP3   OH222957   4.127   1.765   6.775  0.2381  0.3397  0.2235
  489TIP3    H122958   4.132   1.829   6.704 -0.6084  0.2563  0.0842
  489TIP3    H222959   4.216   1.762   6.810  0.6781  0.3847 -0.8366
  490TIP3   OH222960   0.896   3.559   1.254 -0.3967  0.6861  0.1973
  490TIP3    H122961   0.921   3.634   1.308 -1.8421  2.2833 -1.2562
  490TIP3    H222962   0.955   3.561   1.179 -1.6526  1.5735 -0.8080
  491TIP3   OH222963   6.621   0.729   5.702  0.3243 -0.6098 -0.3918
  491TIP3    H122964   6.596   0.795   5.766  1.0201 -0.6118 -0.1164
  491TIP3    H222965   6.622   0.776   5.618  0.3751 -0.3837 -0.2639
  492TIP3   OH222966   1.456   0.841   5.067  0.6537 -0.6693  0.1729
  492TIP3    H122967   1.530   0.839   5.127  0.2488  1.6942  0.8465
  492TIP3    H222968   1.379   0.848   5.123  0.0843 -0.8207 -0.5712
  493TIP3   OH222969   4.814   2.039  15.886  0.0450  0.4262  0.0772
  493TIP3    H122970   4.791   2.131  15.895 -0.2223  0.3704 -0.0091
  493TIP3    H222971   4.771   2.011  15.805  1.4900  0.6343 -0.7951
  494TIP3   OH222972   2.960   1.558  15.063 -0.7993 -0.6424 -0.1729
  494TIP3    H122973   2.936   1.568  15.156  1.5172  0.9733  0.3448
  494TIP3    H222974   2.987   1.645  15.036 -1.1696 -1.1528 -2.3328
  495TIP3   OH222975   2.937   2.071   1.485  0.3910  0.1713 -0.1573
  495TIP3    H122976   2.961   1.983   1.514 -1.1674 -0.8598 -1.8222
  495TIP3    H222977   2.878   2.057   1.411  2.1127  2.6392 -2.1602
  496TIP3   OH222978   1.291   4.763  16.139  0.6091  0.0532  0.4093
  496TIP3    H122979   1.207   4.796  16.173  0.1525 -0.9416  0.2866
  496TIP3    H222980   1.341   4.741  16.218 -0.4231 -2.1867  0.5443
  497TIP3   OH222981   0.478   3.749   3.011  0.5634  0.2774 -0.3454
  497TIP3    H122982   0.388   3.745   3.043  0.5631  0.6020 -0.3009
  497TIP3    H222983   0.531   3.749   3.090  0.5108  2.6983 -0.2407
  498TIP3   OH222984   0.860   1.668   5.442  0.1886  0.8762  0.3110
  498TIP3    H122985   0.923   1.611   5.486 -0.8572  1.4756  2.7462
  498TIP3    H222986   0.902   1.689   5.359  1.8781 -1.0872  0.5601
  499TIP3   OH222987   0.357   3.377   3.015  0.6906 -0.0340  0.0978
  499TIP3    H122988   0.293   3.436   3.053  1.5901  0.2911  1.1567
  499TIP3    H222989   0.436   3.389   3.067  2.1937  0.8451 -2.2005
  500TIP3   OH222990   2.877   6.015   1.228 -0.0352  0.5596  0.3572
  500TIP3    H122991   2.942   6.041   1.163  0.1562  1.1791  0.7858
  500TIP3    H222992   2.804   5.980   1.176 -0.0400  1.3740 -0.2196
  501TIP3   OH222993   6.326   0.814  12.510  0.8043 -0.0769 -0.2805
  501TIP3    H122994   6.245   0.816  12.562  0.1374 -2.1265 -1.1712
  501TIP3    H222995   6.396   0.803  12.575  0.3253  0.9612  0.4376
  502TIP3   OH222996   6.169   0.547   6.123 -0.4828  0.0674 -0.0453
  502TIP3    H122997   6.100   0.606   6.094 -0.4388  0.0750 -0.1372
  502TIP3    H222998   6.158   0.540   6.217 -0.9106 -0.3180 -0.1231
  503TIP3   OH222999   3.024   6.499  16.843  0.1917 -0.6073 -0.9294
  503TIP3    H123000   3.067   6.536  16.920  0.9308 -0.9542 -1.1721
  503TIP3    H223001   3.081   6.523  16.770 -1.3678  1.2269 -1.6333
  504TIP3   OH223002   5.695   4.374  16.295 -0.4553  0.2238 -0.0051
  504TIP3    H123003   5.784   4.405  16.307 -0.7357  0.5406  1.4579
  504TIP3    H223004   5.697   4.282  16.322 -0.5795  0.2367  0.0502
  505TIP3   OH223005   2.930   4.896  12.464  0.1934 -0.2897  0.3336
  505TIP3    H123006   2.990   4.971  12.465 -0.0878 -0.0678  0.4822
  505TIP3    H223007   2.894   4.895  12.376 -0.0976 -0.0176  0.4495
  506TIP3   OH223008   3.505   4.441  14.281 -0.0320  0.0948 -0.3993
  506TIP3    H123009   3.410   4.432  14.267  0.0423 -1.4549 -0.0779
  506TIP3    H223010   3.535   4.352  14.300  2.1647 -0.2725 -4.5092
  507TIP3   OH223011   6.537   0.399   5.148  0.1530 -0.2228  0.0808
  507TIP3    H123012   6.445   0.391   5.172 -0.2916  0.9231 -1.1456
  507TIP3    H223013   6.546   0.489   5.118  1.5891 -0.4388 -0.1912
  508TIP3   OH223014   4.614   5.668  12.479  0.5791 -0.0901  0.0883
  508TIP3    H123015   4.522   5.693  12.472  0.3224 -1.3370 -1.6651
  508TIP3    H223016   4.622   5.590  12.424  2.7095  0.0578  0.0999
  509TIP3   OH223017   3.877   1.263  11.972  0.5790 -0.0289 -0.2477
  509TIP3    H123018   3.944   1.240  12.036 -1.2238 -1.1439  1.3771
  509TIP3    H223019   3.900   1.214  11.893  1.8634 -0.0608  0.1305
  510TIP3   OH223020   2.237   6.290  16.518 -0.1305 -0.4259 -0.2699
  510TIP3    H123021   2.176   6.352  16.556 -0.1769 -1.2008  0.9595
  510TIP3    H223022   2.318   6.340  16.504 -0.1853 -0.0670  0.6538
  511TIP3   OH223023   0.621   2.487  13.948 -0.2253 -0.4747 -0.1195
  511TIP3    H123024   0.537   2.479  13.903  0.1221 -2.0856 -0.5619
  511TIP3    H223025   0.601   2.532  14.030 -1.3604 -0.0409 -0.6306
  512TIP3   OH223026   6.531   1.999  15.324 -0.0159 -0.5875 -0.3872
  512TIP3    H123027   6.568   1.913  15.342 -0.7970 -0.7116  0.7762
  512TIP3    H223028   6.568   2.025  15.240  1.1135 -1.5583 -0.2103
  513TIP3   OH223029   1.228   5.824  11.854  0.6897 -0.0253 -0.5299
  513TIP3    H123030   1.156   5.828  11.917  0.0752 -4.6499 -0.6108
  513TIP3    H223031   1.217   5.903  11.801 -2.5079  0.9509  1.2650
  514TIP3   OH223032   1.952   1.604  16.890  0.1563 -0.1466  0.0761
  514TIP3    H123033   1.883   1.586  16.826 -1.0802  2.6641  0.4875
  514TIP3    H223034   2.034   1.600  16.839 -0.4623 -1.4428 -0.8709
  515TIP3   OH223035   4.908   4.386  15.394  1.1139 -0.3279  0.3955
  515TIP3    H123036   5.000   4.388  15.365  1.4451 -0.7919  1.3592
  515TIP3    H223037   4.911   4.416  15.485  0.2703 -0.1230  0.3634
  516TIP3   OH223038   0.938   6.575   5.590 -0.4991  0.0639  0.0488
  516TIP3    H123039   0.921   6.491   5.633 -0.5895 -0.2039 -0.5071
  516TIP3    H223040   0.947   6.637   5.663  0.4119 -0.5705  0.4941
  517TIP3   OH223041   2.883   2.081   2.185 -0.7071 -0.3536 -0.6580
  517TIP3    H123042   2.951   2.067   2.251 -1.2992 -0.9670 -0.1668
  517TIP3    H223043   2.866   2.176   2.189  0.3432 -0.1326 -1.0328
  518TIP3   OH223044   5.131   5.014  12.255 -0.7541 -0.3680 -0.0521
  518TIP3    H123045   5.167   5.043  12.339  0.5586  1.2088 -1.0830
  518TIP3    H223046   5.165   4.925  12.244 -1.9875 -1.0864  1.6190
  519TIP3   OH223047   4.444   2.689   2.407  0.5585 -0.1129 -0.2263
  519TIP3    H123048   4.354   2.663   2.390  0.6247  0.1103 -0.9765
  519TIP3    H223049   4.440   2.739   2.489 -0.1939  0.9016 -0.8523
  520TIP3   OH223050   6.058   2.703   4.840  0.7683  0.5547  0.1410
  520TIP3    H123051   5.971   2.725   4.872  0.2312 -0.7661 -0.3254
  520TIP3    H223052   6.052   2.611   4.816  2.0366  0.6858 -0.7907
  521TIP3   OH223053   0.364   0.101   1.226  0.0841 -0.0017 -0.0884
  521TIP3    H123054   0.296   0.133   1.286  1.0427  0.9194  0.5314
  521TIP3    H223055   0.422   0.175   1.214  1.1737 -0.8765 -0.3455
  522TIP3   OH223056   1.032   0.903  17.303 -0.5485 -0.2696 -0.3363
  522TIP3    H123057   1.006   0.993  17.284 -0.1091 -0.0111  0.2570
  522TIP3    H223058   1.111   0.889  17.251  1.3222  0.8182  2.0118
  523TIP3   OH223059   2.886   5.005  16.776 -0.6858  0.0128  0.1781
  523TIP3    H123060   2.799   4.985  16.812 -1.1505  0.4987 -0.6580
  523TIP3    H223061   2.885   4.966  16.689 -0.1851  0.3190  0.0345
  524TIP3   OH223062   4.140   5.043   3.619 -0.4321 -0.0623 -0.6992
  524TIP3    H123063   4.046   5.036   3.637 -0.0167 -0.3812  1.6828
  524TIP3    H223064   4.165   4.956   3.587 -0.9849  0.0938 -1.5649
  525TIP3   OH223065   3.902   4.251   4.911  0.4017  0.6083  0.0349
  525TIP3    H123066   3.832   4.270   4.850  0.2115 -0.9857 -0.2876
  525TIP3    H223067   3.966   4.202   4.860  0.5512 -0.1669  0.9356
  526TIP3   OH223068   2.578   2.551   3.644  0.6099  0.2479 -0.0643
  526TIP3    H123069   2.501   2.581   3.692  1.5827  1.4537  0.8112
  526TIP3    H223070   2.549   2.472   3.598 -1.8853  2.1030 -1.9379
  527TIP3   OH223071   4.858   6.502  17.026 -0.1317 -0.0780  0.5672
  527TIP3    H123072   4.845   6.563  16.954 -0.5214  0.4363  1.0652
  527TIP3    H223073   4.779   6.447  17.025 -0.5003  0.4391  1.0883
  528TIP3   OH223074   0.208   6.556   3.227  0.1711 -0.1560 -0.2356
  528TIP3    H123075   0.223   6.511   3.144  0.7667 -0.6872  0.1502
  528TIP3    H223076   0.113   6.555   3.239  0.2334 -2.9841  0.6488
  529TIP3   OH223077   4.958   0.188  12.428 -0.0123 -0.1171  0.0283
  529TIP3    H123078   4.983   0.119  12.489  1.1509  0.0964 -0.1685
  529TIP3    H223079   4.936   0.263  12.483  1.2031  0.1305  0.2135
  530TIP3   OH223080   1.780   3.803   2.729  0.2273  0.3131  0.2519
  530TIP3    H123081   1.826   3.854   2.662  1.5747  0.4647  1.2478
  530TIP3    H223082   1.768   3.717   2.689 -1.0461  1.0476 -1.0232
  531TIP3   OH223083   4.735   1.176  11.920  0.5470  0.5913  0.0507
  531TIP3    H123084   4.650   1.204  11.887 -1.0178  1.8668  4.4109
  531TIP3    H223085   4.714   1.114  11.990  3.2298  0.5994  0.9665
  532TIP3   OH223086   3.265   3.810   2.705  0.2686  0.9154  0.0674
  532TIP3    H123087   3.321   3.887   2.690  0.5990  1.0123  1.6628
  532TIP3    H223088   3.213   3.833   2.782  0.4114 -0.4952  0.5974
  533TIP3   OH223089   1.187   2.423  12.071 -0.5002 -0.3181  0.2178
  533TIP3    H123090   1.256   2.486  12.051  0.1597 -0.7284  1.1525
  533TIP3    H223091   1.162   2.442  12.161  0.0351 -1.6865  0.6722
  534TIP3   OH223092   0.151   2.578  12.819 -0.4382 -0.2930  0.4040
  534TIP3    H123093   0.188   2.602  12.734  1.2635 -1.4194  0.7819
  534TIP3    H223094   0.179   2.649  12.877 -0.6558 -0.0825  0.2529
  535TIP3   OH223095   0.920   3.315   0.334  0.0912 -0.3165  0.2362
  535TIP3    H123096   0.886   3.241   0.384 -0.7965 -0.5579 -0.6918
  535TIP3    H223097   0.843   3.369   0.315  0.4219 -0.1758 -0.7682
  536TIP3   OH223098   3.161   5.013  14.089  0.0895 -0.1248  0.0681
  536TIP3    H123099   3.156   5.086  14.027 -2.7976 -1.2044 -1.1306
  536TIP3    H223100   3.192   4.939  14.036  1.0741 -0.2649  0.8102
  537TIP3   OH223101   5.934   6.141  16.598 -0.1300 -0.0591 -0.3151
  537TIP3    H123102   6.008   6.127  16.539  0.6253  0.9269  0.3644
  537TIP3    H223103   5.962   6.213  16.655 -1.7732  0.6346 -0.3175
  538TIP3   OH223104   5.928   4.756  12.966  0.7742  0.4344  0.0634
  538TIP3    H123105   6.008   4.704  12.960 -1.1212 -2.5324 -1.9068
  538TIP3    H223106   5.924   4.802  12.882  0.3132  0.4103  0.0714
  539TIP3   OH223107   4.211   3.154  11.720  0.5630 -0.1490 -0.5869
  539TIP3    H123108   4.254   3.196  11.646  2.7063 -1.3599 -0.1127
  539TIP3    H223109   4.216   3.219  11.791  1.1232 -0.0597 -0.7046
  540TIP3   OH223110   3.434   1.150   5.840  0.1190 -0.0426 -0.1900
  540TIP3    H123111   3.356   1.203   5.824 -0.3345 -0.0193  1.7590
  540TIP3    H223112   3.407   1.060   5.820 -0.9755 -0.2581  1.8859
  541TIP3   OH223113   3.647   4.952   2.511 -0.6660 -0.5239  0.1249
  541TIP3    H123114   3.673   5.027   2.566 -1.1729 -0.3458  0.1254
  541TIP3    H223115   3.563   4.978   2.474 -0.1001 -0.4263 -1.1408
  542TIP3   OH223116   5.844   1.107   5.810 -0.2467 -0.2499  0.5169
  542TIP3    H123117   5.933   1.116   5.775 -0.0349 -0.3597  1.0170
  542TIP3    H223118   5.791   1.165   5.756 -0.0543 -0.9399 -0.4299
  543TIP3   OH223119   4.720   4.023   0.837 -0.0473 -0.1790 -0.0127
  543TIP3    H123120   4.809   4.030   0.802 -0.5325  1.3305 -1.0046
  543TIP3    H223121   4.664   4.056   0.768 -1.1377  1.7854  1.7024
  544TIP3   OH223122   0.143   3.661   5.836  1.2230 -0.0518 -0.3799
  544TIP3    H123123   0.163   3.718   5.911  0.8755  1.3823 -1.3282
  544TIP3    H223124   0.075   3.709   5.788  0.0802 -1.8307 -0.6092
  545TIP3   OH223125   2.093   3.064  16.505 -0.7697  0.0877 -0.2737
  545TIP3    H123126   2.068   3.147  16.464  0.2309 -0.4626 -2.0874
  545TIP3    H223127   2.188   3.068  16.511 -0.6883 -1.0588 -0.6989
  546TIP3   OH223128   1.572   5.282  13.822  0.1799 -0.5582  0.0407
  546TIP3    H123129   1.487   5.323  13.804 -0.1034 -0.7354  0.9408
  546TIP3    H223130   1.590   5.230  13.743 -0.5599 -0.5302 -0.1544
  547TIP3   OH223131   1.318   0.584  15.273 -0.3466  0.6224  0.5486
  547TIP3    H123132   1.243   0.559  15.327  0.5663  0.5934  1.8823
  547TIP3    H223133   1.322   0.679  15.280 -1.0321  0.7472 -0.6225
  548TIP3   OH223134   5.087   0.430   5.461 -0.5761 -0.1741 -0.7038
  548TIP3    H123135   5.072   0.342   5.495  0.4819 -0.0084  0.2395
  548TIP3    H223136   5.061   0.425   5.369 -2.3396 -0.9545 -0.1995
  549TIP3   OH223137   1.726   3.824   6.340  1.0560  0.6095 -0.0663
  549TIP3    H123138   1.676   3.761   6.393  1.8471  1.7548  2.1843
  549TIP3    H223139   1.816   3.791   6.341  0.9894  0.3474 -1.2332
  550TIP3   OH223140   0.396   2.440  13.334  0.6784 -0.3141  0.8209
  550TIP3    H123141   0.395   2.403  13.245 -0.7134  1.6449 -0.0659
  550TIP3    H223142   0.488   2.462  13.349  1.0294 -1.2153  0.1140
  551TIP3   OH223143   5.476   6.559  16.985 -0.0677  0.0954 -0.6876
  551TIP3    H123144   5.491   6.475  16.943  1.0189 -0.1470  0.1270
  551TIP3    H223145   5.439   6.615  16.917 -0.7238 -1.0062 -1.2587
  552TIP3   OH223146   3.029   2.391  15.744 -0.1783  0.5906 -0.6781
  552TIP3    H123147   2.941   2.378  15.711 -0.0714  1.9480 -1.5851
  552TIP3    H223148   3.085   2.337  15.688 -0.5520 -1.7070  1.0171
  553TIP3   OH223149   6.509   0.283  17.248  0.0762 -0.0975 -0.4625
  553TIP3    H123150   6.515   0.205  17.304  0.3189 -0.9017 -1.5858
  553TIP3    H223151   6.600   0.300  17.222 -0.2510 -1.2899 -2.6558
  554TIP3   OH223152   5.995   1.973  14.764 -0.0616  0.6741 -0.1257
  554TIP3    H123153   5.973   1.892  14.812  1.1558 -0.2822 -1.1081
  554TIP3    H223154   5.967   2.043  14.823  1.9120 -0.4221  2.3674
  555TIP3   OH223155   5.415   0.675  13.634  0.6438 -0.0462 -0.5956
  555TIP3    H123156   5.366   0.619  13.694 -1.1209 -0.1663 -2.0482
  555TIP3    H223157   5.483   0.715  13.688 -0.4136 -0.6873  1.3030
  556TIP3   OH223158   1.108   3.870  13.051  0.0111 -0.3200 -0.1643
  556TIP3    H123159   1.044   3.934  13.081  0.2417 -0.6296  1.0397
  556TIP3    H223160   1.060   3.816  12.988 -0.2767  0.8085 -0.9409
  557TIP3   OH223161   2.826   6.035  16.049 -0.7080  0.9149 -0.4150
  557TIP3    H123162   2.781   5.952  16.066  2.0297 -0.3591  1.2858
  557TIP3    H223163   2.776   6.074  15.977 -0.8778 -3.2319 -2.8858
  558TIP3   OH223164   5.150   0.092   4.968  0.0603 -0.3714 -0.3550
  558TIP3    H123165   5.242   0.065   4.962 -0.0131 -1.0787  1.2081
  558TIP3    H223166   5.138   0.115   5.061 -1.4794 -0.8104 -0.4227
  559TIP3   OH223167   4.016   0.397   3.628  0.1999 -0.4093 -0.1066
  559TIP3    H123168   3.968   0.407   3.711 -0.7307 -0.7467 -0.5940
  559TIP3    H223169   4.037   0.303   3.624 -1.1123 -0.6792 -0.9797
  560TIP3   OH223170   5.584   1.618   2.750 -0.3830 -0.0454  0.1797
  560TIP3    H123171   5.501   1.665   2.765 -0.1888 -0.0379  1.3302
  560TIP3    H223172   5.594   1.617   2.655 -2.3192 -1.1172 -0.0555
  561TIP3   OH223173   3.919   0.991  14.495  0.5308  0.4184 -0.9473
  561TIP3    H123174   3.894   0.984  14.403 -1.5347 -1.1521 -0.3353
  561TIP3    H223175   3.997   1.046  14.494  1.3043 -0.5542 -3.7384
  562TIP3   OH223176   3.689   2.576   3.393  0.0866 -0.0897 -0.0927
  562TIP3    H123177   3.677   2.482   3.405 -0.2234 -0.5506 -3.3481
  562TIP3    H223178   3.769   2.584   3.342 -0.6158  1.2970 -1.0456
  563TIP3   OH223179   0.929   3.986   3.536  0.2307  0.3424  0.3151
  563TIP3    H123180   0.941   3.947   3.623  0.4910 -1.0476 -0.3151
  563TIP3    H223181   0.899   4.075   3.554  0.1422  0.0429  1.8255
  564TIP3   OH223182   2.459   5.765   5.946 -0.3047  0.6783 -0.3574
  564TIP3    H123183   2.376   5.722   5.930 -1.1765  1.9081  0.6554
  564TIP3    H223184   2.447   5.854   5.914 -0.1352  1.4842  1.6479
  565TIP3   OH223185   3.445   1.205   4.346  0.5362 -0.0366 -0.6261
  565TIP3    H123186   3.482   1.224   4.259  1.4245  1.1524 -0.0077
  565TIP3    H223187   3.432   1.291   4.386 -1.7293 -0.4682 -0.3022
  566TIP3   OH223188   3.152   6.270   2.156 -0.2356 -0.1149 -0.1079
  566TIP3    H123189   3.236   6.223   2.162 -0.9371 -1.4783 -0.5026
  566TIP3    H223190   3.176   6.362   2.162  1.2111 -0.4997  0.6678
  567TIP3   OH223191   6.538   5.725  11.338  0.1570 -0.4656 -0.3132
  567TIP3    H123192   6.633   5.722  11.327  0.3952 -2.9462  1.5712
  567TIP3    H223193   6.517   5.819  11.334  2.8111  0.2504  0.2557
  568TIP3   OH223194   0.171   2.112   1.013  0.2140  0.6269 -0.2006
  568TIP3    H123195   0.136   2.063   0.940  1.6656  1.4246 -1.4905
  568TIP3    H223196   0.263   2.129   0.990  1.0816 -0.1120  2.3281
  569TIP3   OH223197   2.373   6.599  15.372 -0.0889 -0.1296  0.0701
  569TIP3    H123198   2.342   6.510  15.387  1.9822 -0.6347  1.8317
  569TIP3    H223199   2.426   6.592  15.292 -1.0320 -0.1474 -0.5711
  570TIP3   OH223200   1.147   2.556   3.827 -0.2272 -0.3756  0.4427
  570TIP3    H123201   1.206   2.511   3.886  0.0006  0.4361  0.8496
  570TIP3    H223202   1.142   2.645   3.861 -3.4347 -0.9210  1.8003
  571TIP3   OH223203   5.475   3.396  11.572  1.0109 -0.2993 -0.5964
  571TIP3    H123204   5.540   3.387  11.502  1.1548  0.1538 -0.5240
  571TIP3    H223205   5.527   3.399  11.652  0.9559  0.8249 -0.5922
  572TIP3   OH223206   1.208   0.244   4.006  0.2600 -0.0323 -0.0531
  572TIP3    H123207   1.220   0.237   4.101 -2.2179  0.3937  0.3561
  572TIP3    H223208   1.240   0.332   3.984  2.5636 -0.7701 -0.0082
  573TIP3   OH223209   3.667   1.281   1.725 -0.1593 -0.1268 -0.7322
  573TIP3    H123210   3.704   1.356   1.678  1.1229  0.0872  0.5732
  573TIP3    H223211   3.617   1.319   1.797  0.1455 -0.5154 -0.3094
  574TIP3   OH223212   3.838   3.156   3.160  0.2358  0.6854  0.6138
  574TIP3    H123213   3.883   3.149   3.076  1.9872 -1.4113  1.6394
  574TIP3    H223214   3.746   3.167   3.137  0.4146 -1.6416 -1.6208
  575TIP3   OH223215   0.441   5.760   2.476  0.2040 -0.3424  0.7596
  575TIP3    H123216   0.425   5.816   2.553  0.0702 -0.4567  0.8150
  575TIP3    H223217   0.373   5.693   2.481 -1.1383  0.8382 -0.6008
  576TIP3   OH223218   1.412   4.843  12.180  0.1985  0.1047  0.1673
  576TIP3    H123219   1.345   4.796  12.230 -0.5436  2.6939  1.7852
  576TIP3    H223220   1.495   4.808  12.213 -0.3228  0.0645  1.5073
  577TIP3   OH223221   4.834   1.155  14.459 -0.2696 -0.0252  0.1478
  577TIP3    H123222   4.775   1.228  14.436 -0.0006  0.5588  1.2357
  577TIP3    H223223   4.807   1.130  14.548 -0.1945 -1.1100 -0.1192
  578TIP3   OH223224   0.563   6.147   0.736  0.4129  0.0719 -0.6745
  578TIP3    H123225   0.628   6.160   0.804  0.9077 -0.3560 -1.0638
  578TIP3    H223226   0.599   6.191   0.659  0.7932 -1.1598 -1.2166
  579TIP3   OH223227   3.951   5.333  12.783  0.3363  0.1125  0.1445
  579TIP3    H123228   3.882   5.305  12.722 -0.6066 -1.4023  1.8189
  579TIP3    H223229   3.945   5.429  12.782 -0.9117  0.0533 -0.7276
  580TIP3   OH223230   4.655   4.194   6.791 -0.1272  0.0823 -0.7246
  580TIP3    H123231   4.580   4.227   6.839  0.2054  1.1773 -0.9378
  580TIP3    H223232   4.624   4.113   6.750 -1.0000  0.2076 -0.3230
  581TIP3   OH223233   4.426   3.934   0.420 -0.4279 -0.1193 -0.3532
  581TIP3    H123234   4.411   3.923   0.326  1.4696  1.0257 -0.8345
  581TIP3    H223235   4.447   3.846   0.452 -0.7923 -0.4604 -1.0478
  582TIP3   OH223236   2.884   2.207  11.894  0.1930 -0.2879 -0.4540
  582TIP3    H123237   2.837   2.134  11.854 -0.5293 -0.0823  0.0138
  582TIP3    H223238   2.869   2.197  11.988 -0.7085  0.9879 -0.4383
  583TIP3   OH223239   0.718   2.791   0.668 -0.2250 -0.4363 -0.5562
  583TIP3    H123240   0.715   2.749   0.753 -2.2410 -0.1368 -0.4452
  583TIP3    H223241   0.658   2.865   0.675  0.4358  0.2705 -1.8946
  584TIP3   OH223242   4.958   0.179   6.100  0.0328  0.2503 -0.4667
  584TIP3    H123243   4.959   0.267   6.063 -1.2445  0.5106  0.0890
  584TIP3    H223244   4.919   0.124   6.032  0.8276  0.0994 -0.8125
  585TIP3   OH223245   0.689   0.343   3.666  0.0819  0.4008 -0.0709
  585TIP3    H123246   0.671   0.430   3.630 -0.5216 -0.0645 -0.9429
  585TIP3    H223247   0.752   0.305   3.604  0.2111  0.1558  0.2098
  586TIP3   OH223248   5.125   3.097  13.287  0.9154  0.2333 -0.4482
  586TIP3    H123249   5.185   3.063  13.353  2.1410  1.0264 -1.1101
  586TIP3    H223250   5.060   3.147  13.336  2.0946  1.2442  0.1501
  587TIP3   OH223251   3.854   3.383  13.874  0.3467 -0.1592  0.1440
  587TIP3    H123252   3.871   3.477  13.867  2.8510 -0.4286  1.2637
  587TIP3    H223253   3.821   3.372  13.963  2.6583 -0.5447  1.0378
  588TIP3   OH223254   2.524   1.329   2.383  0.1657 -0.2247  0.2913
  588TIP3    H123255   2.450   1.287   2.427 -0.1935 -0.0016 -0.0883
  588TIP3    H223256   2.486   1.408   2.344  0.2657 -0.9120 -1.2420
  589TIP3   OH223257   2.387   4.083   3.726  0.0657 -0.4535 -0.6865
  589TIP3    H123258   2.334   4.152   3.688 -0.0389  0.1547  0.5107
  589TIP3    H223259   2.456   4.129   3.774  1.9389 -1.2257 -2.5140
  590TIP3   OH223260   2.960   3.675   4.129 -0.2777  0.0649  0.5605
  590TIP3    H123261   3.051   3.677   4.159  0.0629 -2.4415 -0.0736
  590TIP3    H223262   2.923   3.758   4.159  2.3903  1.4896  0.2199
  591TIP3   OH223263   5.569   0.233  13.415  0.0722  0.3039 -0.0945
  591TIP3    H123264   5.478   0.263  13.412 -0.2449 -0.3827  1.3215
  591TIP3    H223265   5.589   0.229  13.509  1.4118 -0.0172 -0.3760
  592TIP3   OH223266   2.619   2.452  12.543 -0.6553  0.0491  0.0369
  592TIP3    H123267   2.535   2.480  12.505 -0.6134 -0.1792 -0.2279
  592TIP3    H223268   2.672   2.532  12.544  0.1708 -0.3483 -2.5633
  593TIP3   OH223269   0.900   2.267  11.111  0.4619  0.0571  0.7081
  593TIP3    H123270   0.975   2.309  11.154  0.2419  0.4757  0.6861
  593TIP3    H223271   0.938   2.223  11.035  0.6516  0.4613  0.5651
  594TIP3   OH223272   1.123   3.913  16.533 -0.0275 -0.0134 -0.4771
  594TIP3    H123273   1.205   3.953  16.504 -1.4029  3.1844 -0.3324
  594TIP3    H223274   1.140   3.885  16.623  0.4521  2.3637  0.2413
  595TIP3   OH223275   3.112   0.868   5.054  0.1426 -0.0519 -0.4600
  595TIP3    H123276   3.125   0.833   5.142 -0.3408 -0.0202 -0.3733
  595TIP3    H223277   3.197   0.906   5.031 -0.0025  0.8200  0.3806
  596TIP3   OH223278   2.182   4.773   1.695  0.4671  0.6246  0.2963
  596TIP3    H123279   2.118   4.804   1.631  1.6007  1.9106 -0.2754
  596TIP3    H223280   2.267   4.783   1.652  1.0113 -2.5926  0.4242
  597TIP3   OH223281   5.918   3.563   4.529  0.3777 -0.5141 -0.4690
  597TIP3    H123282   5.987   3.516   4.482 -0.3879 -3.0393  0.7393
  597TIP3    H223283   5.941   3.554   4.621 -0.9731 -0.4192 -0.0926
  598TIP3   OH223284   1.692   0.518  12.177 -0.3742 -0.3093 -0.8781
  598TIP3    H123285   1.708   0.465  12.098 -2.6016 -1.0119 -0.9306
  598TIP3    H223286   1.672   0.605  12.144  2.8540  0.5894 -0.8120
  599TIP3   OH223287   0.850   4.203   0.423 -0.4772  0.0530 -0.0807
  599TIP3    H123288   0.913   4.179   0.490 -1.0560 -0.6660  0.2199
  599TIP3    H223289   0.859   4.298   0.414  1.2294 -0.1238 -0.6437
  600TIP3   OH223290   1.605   2.959   3.104 -0.5744  0.5077  1.0314
  600TIP3    H123291   1.677   2.978   3.044  0.3366 -1.7608  1.2775
  600TIP3    H223292   1.527   2.953   3.048  0.1463 -0.9109  0.1151
  601TIP3   OH223293   6.320   6.602   0.591 -0.7450  0.0662  0.4651
  601TIP3    H123294   6.294   6.689   0.620  2.1314  0.7737  1.1613
  601TIP3    H223295   6.399   6.616   0.538 -0.7876 -2.0359 -0.2599
  602TIP3   OH223296   0.999   0.532  17.034  0.1818 -0.1287  0.3074
  602TIP3    H123297   0.972   0.502  16.947  0.1611  0.5983  0.0589
  602TIP3    H223298   1.085   0.491  17.047  1.3274  1.6346 -1.1001
  603TIP3   OH223299   6.769   5.329  13.254  0.0448 -0.2832  0.7197
  603TIP3    H123300   6.801   5.316  13.164 -0.8277 -0.9682  0.4866
  603TIP3    H223301   6.842   5.303  13.309 -0.3663 -2.7557  0.2128
  604TIP3   OH223302   1.185   4.466   4.778 -1.2755  0.1496 -0.3639
  604TIP3    H123303   1.168   4.395   4.840  1.4713 -0.1710  0.1655
  604TIP3    H223304   1.228   4.534   4.830 -1.3090  1.0077 -1.4109
  605TIP3   OH223305   5.567   1.498  12.535 -0.0642 -0.4049 -0.1403
  605TIP3    H123306   5.564   1.517  12.629 -0.8036 -0.3218 -0.1715
  605TIP3    H223307   5.573   1.403  12.530  0.7977 -0.3595 -0.0043
  606TIP3   OH223308   1.564   5.871   3.789  0.8127  0.2098  0.1472
  606TIP3    H123309   1.537   5.799   3.846  0.5181  0.6101  0.5261
  606TIP3    H223310   1.611   5.829   3.718  0.2989 -0.3929  0.1542
  607TIP3   OH223311   0.376   0.366  16.740  0.1716 -0.8156 -0.3946
  607TIP3    H123312   0.453   0.415  16.711  1.4398 -2.5639 -0.1735
  607TIP3    H223313   0.305   0.431  16.742  1.9215  1.1969  0.7092
  608TIP3   OH223314   4.375   6.451  14.792  0.4460  0.4507 -0.2588
  608TIP3    H123315   4.308   6.386  14.770  0.6070 -0.6223  2.1346
  608TIP3    H223316   4.409   6.479  14.707 -1.5807 -0.4876 -1.4787
  609TIP3   OH223317   5.384   2.592  15.686  0.1394  0.8453  0.1316
  609TIP3    H123318   5.303   2.597  15.636 -1.2373 -1.4815  1.9428
  609TIP3    H223319   5.365   2.638  15.767  0.8800  0.9066  0.2760
  610TIP3   OH223320   1.314   4.760  13.081 -0.9463 -0.1266 -0.4065
  610TIP3    H123321   1.301   4.666  13.086 -0.9787 -0.1505 -0.8696
  610TIP3    H223322   1.372   4.773  13.006 -1.7415  0.2856 -0.9738
  611TIP3   OH223323   2.490   6.050  14.295  0.2200 -0.5188  0.1236
  611TIP3    H123324   2.520   6.057  14.205 -1.9971  1.6534 -0.5723
  611TIP3    H223325   2.563   6.081  14.348  0.8294  0.1992 -1.1004
  612TIP3   OH223326   1.858   0.013  14.610  0.2050 -0.4067  0.2173
  612TIP3    H123327   1.913   0.063  14.550 -1.8013  1.0562 -0.5040
  612TIP3    H223328   1.918  -0.015  14.679  1.8361  1.1740 -0.4707
  613TIP3   OH223329   1.244   0.473   3.300  0.8797 -0.5264 -0.2079
  613TIP3    H123330   1.222   0.564   3.281 -0.2352 -0.9935 -1.2422
  613TIP3    H223331   1.293   0.443   3.224  0.8900 -0.9257 -0.0465
  614TIP3   OH223332   5.205   6.181  14.781  0.2543  0.2467  0.3284
  614TIP3    H123333   5.263   6.150  14.850 -0.2160  0.2509  0.7345
  614TIP3    H223334   5.263   6.216  14.714  0.7445 -0.4489  0.3821
  615TIP3   OH223335   3.260   4.421  15.874  0.7180 -0.2580  0.0955
  615TIP3    H123336   3.170   4.438  15.848  0.0702 -0.8531  1.8351
  615TIP3    H223337   3.283   4.496  15.930  0.4943 -1.2110  1.5058
  616TIP3   OH223338   4.893   5.988  11.448  0.3699 -0.1484  0.5935
  616TIP3    H123339   4.847   5.934  11.384  0.7428 -1.5773  1.4790
  616TIP3    H223340   4.824   6.024  11.503  0.1280  0.2158  0.0660
  617TIP3   OH223341   1.644   4.402  12.760  0.1409  0.5615 -0.0975
  617TIP3    H123342   1.604   4.477  12.806 -0.1706 -0.1998  0.9211
  617TIP3    H223343   1.585   4.329  12.779  0.0802  0.1857 -1.6447
  618TIP3   OH223344   1.072   2.752  12.864  0.0343 -0.5027  0.3488
  618TIP3    H123345   1.005   2.811  12.898  0.1799  0.3006 -0.7000
  618TIP3    H223346   1.090   2.785  12.776  1.4445 -1.0073  0.4277
  619TIP3   OH223347   1.695   2.913   5.321  0.2277  0.4605 -0.2755
  619TIP3    H123348   1.648   2.994   5.339  0.9830  1.5914 -2.8191
  619TIP3    H223349   1.643   2.870   5.253  1.3072  0.2721 -1.0014
  620TIP3   OH223350   0.639   5.929   3.814  0.2891  0.1538 -0.0859
  620TIP3    H123351   0.655   6.017   3.779  2.3045 -0.7553 -1.6408
  620TIP3    H223352   0.720   5.881   3.797 -0.1786 -1.6081  2.1264
  621TIP3   OH223353   5.549   4.360   4.356  0.2285  0.2085  0.1376
  621TIP3    H123354   5.574   4.267   4.350  0.0232  0.1025  0.8724
  621TIP3    H223355   5.588   4.390   4.438  0.6521  0.8905 -0.2996
  622TIP3   OH223356   4.086   4.815   5.517  0.6791  0.4288 -0.2230
  622TIP3    H123357   4.047   4.854   5.595 -1.2047  0.5536 -1.1917
  622TIP3    H223358   4.097   4.723   5.540  0.6162  0.5669  0.3741
  623TIP3   OH223359   4.639   0.079  12.095  0.4131  0.3373  0.4101
  623TIP3    H123360   4.592   0.157  12.065  0.7459  0.1976 -0.4933
  623TIP3    H223361   4.605   0.063  12.183 -0.5729  0.7670  0.1204
  624TIP3   OH223362   2.944   4.225  14.112 -0.3171 -0.3311 -0.0165
  624TIP3    H123363   2.978   4.136  14.119  2.6086  0.7578  1.2744
  624TIP3    H223364   2.996   4.265  14.042 -1.2364  0.5101 -0.2371
  625TIP3   OH223365   6.311   1.033  11.416 -0.1746 -0.2421 -0.2951
  625TIP3    H123366   6.330   1.058  11.325 -1.0014 -0.2055 -0.4695
  625TIP3    H223367   6.222   1.066  11.431  0.4690  1.0319  0.9974
  626TIP3   OH223368   1.723   2.837  15.520 -0.7357 -0.3858 -0.2216
  626TIP3    H123369   1.685   2.916  15.559  0.1761  1.1385 -2.2923
  626TIP3    H223370   1.775   2.799  15.591 -2.7267 -0.2692  1.4135
  627TIP3   OH223371   5.579   2.612   1.556 -0.2860 -0.1884 -0.6709
  627TIP3    H123372   5.663   2.575   1.530 -0.0390  0.8446 -1.4068
  627TIP3    H223373   5.582   2.702   1.526 -1.3762  0.0743 -0.0538
  628TIP3   OH223374   3.912   1.542  11.667 -0.4403  0.0532 -0.0985
  628TIP3    H123375   3.889   1.553  11.759 -1.2008  0.7225 -0.3521
  628TIP3    H223376   3.990   1.597  11.656  0.4605 -1.0821  0.4373
  629TIP3   OH223377   3.268   3.062  10.488 -0.5437  0.2197  0.7877
  629TIP3    H123378   3.329   2.988  10.480 -0.0218  0.6615  0.5900
  629TIP3    H223379   3.186   3.022  10.516 -0.8673 -0.7281 -1.2445
  630TIP3   OH223380   6.449   2.613   4.454  0.1048 -0.2252  0.2144
  630TIP3    H123381   6.414   2.559   4.525  0.1232  1.9258  1.9868
  630TIP3    H223382   6.525   2.656   4.492  1.2510 -0.3901 -1.7476
  631TIP3   OH223383   0.398   1.850   4.998 -0.3775 -0.6262  0.5717
  631TIP3    H123384   0.390   1.792   4.922 -0.0413 -0.2315  0.2356
  631TIP3    H223385   0.382   1.937   4.964  0.9652 -0.3047  0.7211
  632TIP3   OH223386   3.419   6.223   0.446 -0.0436 -0.0005  0.1790
  632TIP3    H123387   3.347   6.273   0.485  0.7354  0.3342  1.2350
  632TIP3    H223388   3.497   6.271   0.471  0.5395  0.0048 -1.4961
  633TIP3   OH223389   0.452   4.163  15.829 -0.2169  0.2116 -0.4982
  633TIP3    H123390   0.473   4.256  15.818 -1.6874  0.5765 -0.4399
  633TIP3    H223391   0.458   4.127  15.741  0.9379  0.2106 -0.4372
  634TIP3   OH223392   5.042   1.326  12.735 -0.0702  0.2928 -1.2104
  634TIP3    H123393   5.092   1.407  12.718  1.0818  0.1918  1.1872
  634TIP3    H223394   4.974   1.353  12.797  2.3691 -0.9759  2.3568
  635TIP3   OH223395   6.523   0.924  11.544 -0.0487 -0.3318 -0.7325
  635TIP3    H123396   6.570   0.886  11.470 -0.0583 -0.0018 -0.9111
  635TIP3    H223397   6.442   0.958  11.506 -0.2658 -0.5709 -0.4895
  636TIP3   OH223398   0.790   6.677  15.064  0.0096  0.0558 -0.2605
  636TIP3    H123399   0.730   6.734  15.017 -1.0611 -0.3510  0.5781
  636TIP3    H223400   0.749   6.663  15.149  0.9281 -0.8375  0.0626
  637TIP3   OH223401   3.236   4.308   5.245 -0.2138 -0.1958 -0.3521
  637TIP3    H123402   3.240   4.400   5.272  0.0283 -0.2847 -0.0738
  637TIP3    H223403   3.159   4.302   5.189 -0.1648  0.2001 -0.4614
  638TIP3   OH223404   0.067   4.957  15.008 -0.1590  0.5064  0.0741
  638TIP3    H123405   0.162   4.953  15.014 -0.0369  0.1935 -1.5611
  638TIP3    H223406   0.050   5.027  14.944 -1.0797  1.4879  1.3495
  639TIP3   OH223407   1.506   3.154  11.514  0.0626  0.5224  0.1494
  639TIP3    H123408   1.518   3.064  11.483 -2.8262  0.2162 -0.3459
  639TIP3    H223409   1.539   3.209  11.443 -0.2668 -0.1776 -0.5545
  640TIP3   OH223410   0.586   1.579  15.046  0.4987 -0.3429 -0.3933
  640TIP3    H123411   0.517   1.640  15.073  0.5906 -0.7647  0.8725
  640TIP3    H223412   0.541   1.497  15.028  0.3400  0.1363 -2.3723
  641TIP3   OH223413   5.900   3.489  17.462  0.2454  0.3279  0.5842
  641TIP3    H123414   5.814   3.446  17.464 -0.9442  2.4010 -1.5201
  641TIP3    H223415   5.932   3.474  17.373  1.1886  1.2304  0.7527
  642TIP3   OH223416   3.697   0.662  12.552  0.0208  0.7590  0.1783
  642TIP3    H123417   3.674   0.731  12.489 -0.6783  0.5957  0.2418
  642TIP3    H223418   3.775   0.695  12.597  0.6635  0.7917 -0.9113
  643TIP3   OH223419   2.255   4.300  13.793  0.0880  0.0838 -0.2459
  643TIP3    H123420   2.176   4.353  13.783 -0.4104 -0.5730  0.1072
  643TIP3    H223421   2.222   4.213  13.818  0.9996  0.7101  3.8353
  644TIP3   OH223422   3.227   4.382  14.258 -0.3611  0.4607 -0.0652
  644TIP3    H123423   3.161   4.436  14.301 -0.7839  1.1025 -1.4875
  644TIP3    H223424   3.198   4.375  14.167  1.2675  0.3457 -0.6104
  645TIP3   OH223425   5.570   0.080  16.141  0.2349  0.0552  0.7998
  645TIP3    H123426   5.500   0.145  16.147 -1.0924 -0.9676 -1.8302
  645TIP3    H223427   5.637   0.123  16.088  0.2639 -0.0150  0.7792
  646TIP3   OH223428   2.047   2.471  15.231  0.0969  0.3922  0.9187
  646TIP3    H123429   2.053   2.521  15.312  2.4191 -0.5382  1.4162
  646TIP3    H223430   2.110   2.513  15.172  1.7397 -1.5607  1.1876
  647TIP3   OH223431   6.054   0.115  12.640  0.2457 -0.6521  0.4174
  647TIP3    H123432   6.124   0.181  12.648  1.0860 -1.4513 -0.0535
  647TIP3    H223433   6.013   0.112  12.726 -0.4503  1.1635  0.1905
  648TIP3   OH223434   1.087   0.213   2.240  0.5534 -0.0766  0.0131
  648TIP3    H123435   1.063   0.271   2.167 -0.0432 -0.8075 -0.3870
  648TIP3    H223436   1.181   0.226   2.251  0.1131  2.6439  1.4183
  649TIP3   OH223437   3.019   6.256  14.166 -1.0719  0.0702 -0.4344
  649TIP3    H123438   3.018   6.269  14.261  0.9010  1.6772 -0.5608
  649TIP3    H223439   2.947   6.310  14.134 -0.4692  1.1768  0.0206
  650TIP3   OH223440   0.297   0.597  12.861  0.1936  0.5141  0.2231
  650TIP3    H123441   0.344   0.652  12.924  0.1991  0.7130  0.0439
  650TIP3    H223442   0.314   0.507  12.891 -1.4049  0.6530  1.6564
  651TIP3   OH223443   6.070   1.669  14.954 -0.7643 -0.6307 -0.4031
  651TIP3    H123444   6.094   1.727  15.026  0.2346 -1.6443  0.1078
  651TIP3    H223445   5.984   1.700  14.925 -0.1747  1.2124 -0.2734
  652TIP3   OH223446   5.379   6.724   5.035 -0.0320 -0.0421  0.6562
  652TIP3    H123447   5.436   6.771   4.975  0.0314  0.5724  1.1861
  652TIP3    H223448   5.430   6.649   5.063 -0.2661 -0.6442 -0.4774
  653TIP3   OH223449   0.986   6.403   1.791  0.2089 -0.4070 -0.1363
  653TIP3    H123450   1.049   6.443   1.852  0.3655  1.0851 -1.2195
  653TIP3    H223451   1.034   6.330   1.752  1.0156  0.2242 -0.3591
  654TIP3   OH223452   2.358   1.536  12.738 -0.1587  0.2088 -0.1160
  654TIP3    H123453   2.352   1.441  12.725 -0.6776  0.3171 -0.6928
  654TIP3    H223454   2.445   1.559  12.704  1.3076 -0.4743  2.7637
  655TIP3   OH223455   3.264   6.359   3.424 -0.0286  0.1587  0.2717
  655TIP3    H123456   3.263   6.339   3.518  1.5338 -0.6280  0.1544
  655TIP3    H223457   3.249   6.454   3.421  0.6041  0.3198  1.3778
  656TIP3   OH223458   5.680   3.982  14.034 -0.3972  0.2673  0.5538
  656TIP3    H123459   5.696   3.941  13.949 -2.8131 -1.7088  0.9442
  656TIP3    H223460   5.693   3.912  14.097 -1.9251  0.7805  1.4961
  657TIP3   OH223461   3.570   6.773   6.019 -0.4154 -0.2907 -0.2708
  657TIP3    H123462   3.583   6.821   5.937  1.4921 -0.6578 -0.2257
  657TIP3    H223463   3.625   6.819   6.082  2.1950 -2.8946 -0.4158
  658TIP3   OH223464   2.234   5.678  13.026 -0.3660  0.0652 -0.5314
  658TIP3    H123465   2.160   5.618  13.019 -1.0513  0.6154  1.4646
  658TIP3    H223466   2.196   5.761  13.052  0.8525  0.6101 -0.4029
  659TIP3   OH223467   1.396   6.768   2.677  0.0856  0.6676  0.1185
  659TIP3    H123468   1.402   6.861   2.655 -2.7483  0.9175  0.0682
  659TIP3    H223469   1.356   6.727   2.600 -1.5511 -0.0188  1.2697
  660TIP3   OH223470   5.388   6.125   1.344  0.3015  0.0556  0.1085
  660TIP3    H123471   5.325   6.183   1.386  1.9167  1.8109  0.2692
  660TIP3    H223472   5.471   6.171   1.351  1.7698 -2.4553  0.5179
  661TIP3   OH223473   6.023   5.990   2.765 -0.5955  0.5156 -0.0995
  661TIP3    H123474   5.979   6.011   2.683 -1.5168 -0.2286  0.1803
  661TIP3    H223475   5.953   5.957   2.822  0.4996 -2.2038 -0.1510
  662TIP3   OH223476   2.869   3.394   6.018 -0.5259  0.7520 -0.3417
  662TIP3    H123477   2.923   3.439   5.953  0.6515  0.0723  0.1292
  662TIP3    H223478   2.918   3.402   6.100  0.7395 -2.8749 -0.5556
  663TIP3   OH223479   6.481   2.098  15.996  0.1279 -0.2623  0.5869
  663TIP3    H123480   6.434   2.179  16.016 -1.0425 -0.6189 -0.6237
  663TIP3    H223481   6.495   2.057  16.081 -1.1322  0.2083  1.0414
  664TIP3   OH223482   0.607   0.828   1.635 -0.2492 -0.3121  0.5749
  664TIP3    H123483   0.684   0.885   1.637  0.0820 -0.7155 -0.3940
  664TIP3    H223484   0.556   0.855   1.711 -0.2082  1.4514  0.0242
  665TIP3   OH223485   5.299   4.925   5.176 -0.7374 -0.6673  0.6700
  665TIP3    H123486   5.356   4.920   5.099 -0.3098 -1.9068  1.0407
  665TIP3    H223487   5.347   4.980   5.238 -0.5979 -0.5365  0.4448
  666TIP3   OH223488   2.195   3.779  14.084 -0.5709 -0.0420  0.2558
  666TIP3    H123489   2.123   3.842  14.079  1.1963  2.0555 -0.2877
  666TIP3    H223490   2.230   3.776  13.995  0.2468 -0.7156  0.5950
  667TIP3   OH223491   4.521   6.003   2.254  0.5586  0.3116 -0.5290
  667TIP3    H123492   4.505   6.094   2.227 -1.2038  0.3359  0.4030
  667TIP3    H223493   4.443   5.956   2.226  0.4303 -0.4274  0.9536
  668TIP3   OH223494   1.823   6.656   4.717 -0.3947  0.0026  0.1022
  668TIP3    H123495   1.809   6.673   4.810 -1.2641 -0.3617  0.0471
  668TIP3    H223496   1.743   6.687   4.675 -0.4396 -0.7832 -0.4057
  669TIP3   OH223497   1.138   6.399  16.584 -0.4032  0.1023 -0.0929
  669TIP3    H123498   1.208   6.371  16.643 -1.2893 -0.0137  0.9323
  669TIP3    H223499   1.184   6.425  16.503  0.8077  0.0112  0.5378
  670TIP3   OH223500   2.878   0.736  17.126  0.6203  0.2473  0.1427
  670TIP3    H123501   2.902   0.657  17.175 -2.5761  0.1140  1.8082
  670TIP3    H223502   2.890   0.807  17.189  1.7142  0.8634 -0.7453
  671TIP3   OH223503   3.151   3.125   0.071  0.0579 -0.4074  0.2421
  671TIP3    H123504   3.098   3.087   0.141 -1.7295  0.3710 -0.6016
  671TIP3    H223505   3.225   3.065   0.060 -0.2326 -1.1307  2.0018
  672TIP3   OH223506   0.166   3.023  13.149  0.4533  0.2441  0.4362
  672TIP3    H123507   0.091   3.016  13.209 -0.9466  2.0135 -0.9768
  672TIP3    H223508   0.206   3.107  13.171  1.4405 -0.2381  0.5170
  673TIP3   OH223509   5.960   4.130  15.643  0.4383 -0.0528  0.2215
  673TIP3    H123510   6.052   4.148  15.659  0.5668  0.1990 -0.7587
  673TIP3    H223511   5.931   4.082  15.721  0.5930  2.5498  2.0296
  674TIP3   OH223512   2.608   5.873   6.154  0.0542  0.4203 -0.2704
  674TIP3    H123513   2.540   5.859   6.088 -1.5670  1.0188  1.1811
  674TIP3    H223514   2.600   5.966   6.176  0.6301  0.2467  0.6897
  675TIP3   OH223515   2.750   4.742  16.895  0.2466  0.4928 -0.4450
  675TIP3    H123516   2.844   4.735  16.908  0.3889  1.6283 -0.8112
  675TIP3    H223517   2.736   4.708  16.806  0.3079  0.3023 -0.3811
  676TIP3   OH223518   4.818   5.224   2.633 -0.3972  0.8095 -0.1539
  676TIP3    H123519   4.775   5.219   2.548  0.5084  0.8119 -0.6160
  676TIP3    H223520   4.754   5.185   2.694 -0.3883 -0.7653 -1.0879
  677TIP3   OH223521   5.225   1.410   1.130  0.1211 -0.0844  0.0994
  677TIP3    H123522   5.187   1.398   1.217  0.2825 -0.7726  0.0807
  677TIP3    H223523   5.227   1.505   1.117  0.4302  0.0383  0.9978
  678TIP3   OH223524   6.466   0.448  15.257 -0.2492 -0.2057  0.3707
  678TIP3    H123525   6.455   0.363  15.215  1.8684 -1.2869  1.8322
  678TIP3    H223526   6.462   0.511  15.185 -3.1735 -1.3284 -0.6033
  679TIP3   OH223527   1.586   1.571   0.169 -0.5484 -0.2309  0.0434
  679TIP3    H123528   1.543   1.571   0.084 -2.8519 -2.9954  1.0389
  679TIP3    H223529   1.528   1.621   0.226 -0.2068 -0.3028  0.4626
  680TIP3   OH223530   4.327   0.604  15.825 -0.1849 -0.4810  0.4192
  680TIP3    H123531   4.374   0.520  15.817 -0.4570 -0.6933  0.9642
  680TIP3    H223532   4.294   0.604  15.915  0.3205  0.4822  0.6214
  681TIP3   OH223533   5.619   5.785   4.208  0.0069 -0.4028  0.2040
  681TIP3    H123534   5.657   5.703   4.240  0.4246  0.4503  2.0495
  681TIP3    H223535   5.682   5.852   4.234 -2.0149  0.9038  2.0657
  682TIP3   OH223536   6.276   5.277  10.801 -0.3402  0.6390 -0.4638
  682TIP3    H123537   6.191   5.247  10.770 -0.1672 -2.1254  1.3946
  682TIP3    H223538   6.339   5.240  10.738 -0.3550  0.2995 -0.2801
  683TIP3   OH223539   4.529   0.556   0.286 -0.6816 -0.6189 -0.3769
  683TIP3    H123540   4.492   0.544   0.373 -0.2211 -0.5744 -0.1692
  683TIP3    H223541   4.576   0.474   0.269  0.0432 -0.2521 -0.1719
  684TIP3   OH223542   5.996   6.150   5.765 -0.1401 -0.4306 -0.3741
  684TIP3    H123543   6.045   6.139   5.847  0.6054 -0.9841 -0.8833
  684TIP3    H223544   5.907   6.125   5.788 -0.2016  0.5148  0.5470
  685TIP3   OH223545   3.024   3.449   5.405 -0.6030  0.4533 -0.1767
  685TIP3    H123546   3.090   3.476   5.469  1.0501  1.0024 -2.0168
  685TIP3    H223547   2.940   3.472   5.446  0.2114 -1.0258  2.6109
  686TIP3   OH223548   3.061   2.388  13.042  0.8114 -0.3717  0.0078
  686TIP3    H123549   3.005   2.464  13.059  0.5682 -0.2299 -1.3405
  686TIP3    H223550   3.127   2.420  12.981  0.2994 -1.4056 -1.1144
  687TIP3   OH223551   2.671   0.904  14.511 -0.1421 -0.3605 -0.1166
  687TIP3    H123552   2.698   0.972  14.573 -0.3513  0.9587 -1.4149
  687TIP3    H223553   2.745   0.896  14.451 -1.4210  1.2618 -2.0328
  688TIP3   OH223554   4.404   1.391   3.755 -0.1708  0.1757  0.1205
  688TIP3    H123555   4.340   1.367   3.688 -0.5059  1.0357  0.1134
  688TIP3    H223556   4.355   1.385   3.838  0.2927 -1.0681  0.3281
  689TIP3   OH223557   2.190   0.873  13.946  0.4182  0.6874  0.1036
  689TIP3    H123558   2.206   0.944  13.884 -1.5302  0.1780 -1.0665
  689TIP3    H223559   2.183   0.916  14.031  0.5380  1.7283 -0.3969
  690TIP3   OH223560   3.762   0.063   1.738  0.8194  0.3913  0.1283
  690TIP3    H123561   3.700   0.104   1.798  0.4491  1.1634 -0.7579
  690TIP3    H223562   3.760  -0.030   1.761 -0.6879  0.3995  0.1003
  691TIP3   OH223563   1.397   6.353  14.372  0.1792  0.0165 -0.2162
  691TIP3    H123564   1.356   6.372  14.457 -0.8247  1.6251 -1.0048
  691TIP3    H223565   1.481   6.397  14.376  0.2266 -0.0948  0.0282
  692TIP3   OH223566   0.721   1.008  16.685 -0.5098  0.2807 -1.5561
  692TIP3    H123567   0.658   1.076  16.707 -0.5507  0.4000 -2.0343
  692TIP3    H223568   0.669   0.929  16.672 -0.3313 -0.2318  0.5050
  693TIP3   OH223569   0.457   3.390   4.419 -0.2368  0.0584 -0.8551
  693TIP3    H123570   0.379   3.344   4.451  0.8662 -1.3192 -0.0307
  693TIP3    H223571   0.457   3.374   4.325 -1.8218  1.5016 -1.1560
  694TIP3   OH223572   3.628   0.922   4.953  0.2826  0.2585 -0.4122
  694TIP3    H123573   3.578   0.919   5.035  2.0516  1.3194  0.7826
  694TIP3    H223574   3.623   0.833   4.919  2.1889 -1.1402  2.5901
  695TIP3   OH223575   1.778   0.927  15.636  0.0739  0.5992  0.2918
  695TIP3    H123576   1.732   0.934  15.552  0.3878 -1.0170 -0.0428
  695TIP3    H223577   1.708   0.932  15.702 -0.3778  0.0899 -0.1396
  696TIP3   OH223578   1.209   4.193   5.945 -0.0807 -0.4610  0.1604
  696TIP3    H123579   1.303   4.193   5.959  0.1489 -2.6381 -0.8963
  696TIP3    H223580   1.172   4.232   6.024  1.6609 -0.4512  0.9993
  697TIP3   OH223581   4.679   3.682  13.814  0.0522 -0.3744 -0.0751
  697TIP3    H123582   4.733   3.751  13.777  1.2862 -1.7257 -0.9046
  697TIP3    H223583   4.622   3.727  13.876  0.9052  1.3485 -0.4752
  698TIP3   OH223584   5.382   0.915  16.260  0.0744 -0.2872 -0.6505
  698TIP3    H123585   5.422   1.002  16.253 -1.4482  0.3657 -1.4682
  698TIP3    H223586   5.436   0.870  16.325 -1.2269  2.5036  2.6829
  699TIP3   OH223587   3.203   2.092   4.026  0.4973  0.7405  0.0324
  699TIP3    H123588   3.191   2.178   4.064 -1.2093  0.6669 -0.2727
  699TIP3    H223589   3.188   2.031   4.099 -0.9744  0.6566 -0.2996
  700TIP3   OH223590   3.368   3.820  14.261 -0.3267 -0.0241  0.4569
  700TIP3    H123591   3.323   3.904  14.258  0.7026  0.5515  0.9715
  700TIP3    H223592   3.335   3.779  14.341 -1.1460 -0.3175 -0.0093
  701TIP3   OH223593   5.694   5.921  15.881  0.3225  0.5669 -0.3712
  701TIP3    H123594   5.769   5.974  15.853  0.5864 -0.0034 -0.7534
  701TIP3    H223595   5.631   5.928  15.809  0.0847  0.8874 -0.1357
  702TIP3   OH223596   4.302   6.241   3.374 -0.4643  0.2327  0.4473
  702TIP3    H123597   4.392   6.220   3.398  0.6840  2.4676 -1.4544
  702TIP3    H223598   4.272   6.303   3.441  0.6552  1.9822 -0.5778
  703TIP3   OH223599   3.291   4.956  14.342  0.2781  0.0332 -0.1033
  703TIP3    H123600   3.309   5.049  14.357 -0.6145  0.3273 -0.7328
  703TIP3    H223601   3.253   4.954  14.254  1.4041 -1.0820 -0.5869
  704TIP3   OH223602   2.855   1.384  13.176  0.3627 -0.0802 -0.1995
  704TIP3    H123603   2.838   1.468  13.134 -0.0651  0.3877  0.8708
  704TIP3    H223604   2.880   1.325  13.104  1.1088  1.0701 -0.9035
  705TIP3   OH223605   2.334   5.832   3.210 -0.9487 -0.6443  0.8068
  705TIP3    H123606   2.378   5.777   3.274 -1.3494  0.8244  2.4263
  705TIP3    H223607   2.372   5.807   3.126  1.4233 -0.9038  1.8804
  706TIP3   OH223608   5.853   2.680   5.908 -0.2136 -0.5262 -0.3205
  706TIP3    H123609   5.856   2.731   5.989  0.4299 -0.3185 -0.4663
  706TIP3    H223610   5.788   2.612   5.925 -2.3215  1.2907 -0.6887
  707TIP3   OH223611   3.959   0.305  11.141  0.4104  0.4041  0.5012
  707TIP3    H123612   3.888   0.315  11.077 -0.4307 -1.1631  1.1338
  707TIP3    H223613   4.038   0.298  11.087  0.1274  2.1483 -0.2152
  708TIP3   OH223614   6.576   6.769   3.533  0.4524  0.1917 -0.1292
  708TIP3    H123615   6.496   6.721   3.554  1.2719 -2.3826 -2.3019
  708TIP3    H223616   6.626   6.768   3.615 -1.1140  0.6534  0.8858
  709TIP3   OH223617   5.552   1.090  12.355 -0.4376 -0.6288  0.1784
  709TIP3    H123618   5.470   1.104  12.307 -0.2044  1.1078  0.2356
  709TIP3    H223619   5.619   1.127  12.298  0.0471 -0.1153  1.0603
  710TIP3   OH223620   2.126   6.421   3.716 -0.0466 -0.6639 -1.0469
  710TIP3    H123621   2.138   6.428   3.810  1.2097 -0.3252 -1.2080
  710TIP3    H223622   2.032   6.426   3.703 -0.1484  1.1670  0.0479
  711TIP3   OH223623   5.093   4.837   5.878  0.6786  0.5972  0.3496
  711TIP3    H123624   5.055   4.810   5.794 -0.9737  0.2013  1.1840
  711TIP3    H223625   5.073   4.765   5.938  0.1648  1.6777  1.5249
  712TIP3   OH223626   6.555   2.367   5.078 -0.1631 -0.4464  0.3239
  712TIP3    H123627   6.518   2.282   5.103  1.0264 -0.7594  1.1008
  712TIP3    H223628   6.606   2.394   5.154 -0.6624  1.0668  0.1640
  713TIP3   OH223629   3.058   0.145  10.600  0.1674 -0.3264 -0.2285
  713TIP3    H123630   3.043   0.061  10.642  0.2642 -0.2596 -0.0598
  713TIP3    H223631   3.146   0.171  10.628  0.0666 -0.0844 -0.1325
  714TIP3   OH223632   6.361   3.968   3.550  0.3174 -0.0249  0.7726
  714TIP3    H123633   6.441   3.992   3.597  1.3571 -0.2576 -0.7987
  714TIP3    H223634   6.390   3.907   3.482 -1.2390 -0.2632  0.2696
  715TIP3   OH223635   6.112   6.098   6.005 -0.1897  0.2757 -0.1536
  715TIP3    H123636   6.190   6.070   5.958 -1.6557 -0.2169 -2.4965
  715TIP3    H223637   6.086   6.022   6.057  0.6613  0.3072  0.3171
  716TIP3   OH223638   2.184   2.822   0.670  0.0057  0.4993  0.2767
  716TIP3    H123639   2.231   2.817   0.586 -0.4390 -0.3196  0.0745
  716TIP3    H223640   2.254   2.829   0.735  0.4805 -1.6846  0.0595
  717TIP3   OH223641   1.736   2.197  17.047  0.5156  0.4379 -0.5612
  717TIP3    H123642   1.776   2.224  16.965  0.7888  0.0579 -0.5555
  717TIP3    H223643   1.774   2.111  17.065 -0.2156  0.1186 -0.5016
  718TIP3   OH223644   2.037   0.759   2.911  0.2952 -0.3635  0.1478
  718TIP3    H123645   2.027   0.708   2.991 -0.6932 -2.0422 -0.9875
  718TIP3    H223646   1.969   0.826   2.917  0.6060 -0.1085  0.9590
  719TIP3   OH223647   2.757   6.725  15.905 -0.0388 -0.4474  0.4603
  719TIP3    H123648   2.796   6.643  15.933 -0.9910 -0.6784  1.1690
  719TIP3    H223649   2.762   6.723  15.809 -0.7297 -1.6897  0.4293
  720TIP3   OH223650   3.706   3.575  16.957 -0.1552 -0.1686 -0.5805
  720TIP3    H123651   3.765   3.638  16.999  0.8865 -0.1796 -1.9294
  720TIP3    H223652   3.712   3.496  17.011  1.8328 -0.4781 -1.1687
  721TIP3   OH223653   2.989   4.477  15.826  0.2321 -0.3415  0.1583
  721TIP3    H123654   2.964   4.551  15.771  2.4985  0.6249  0.2974
  721TIP3    H223655   2.937   4.487  15.906 -1.1723 -0.2671 -0.7350
  722TIP3   OH223656   3.536   0.683  11.014  0.0654 -0.3217  0.2602
  722TIP3    H123657   3.504   0.678  10.924  0.5391  0.4606  0.0381
  722TIP3    H223658   3.529   0.775  11.037 -0.0839 -0.5228  1.0423
  723TIP3   OH223659   5.014   6.260   1.866  0.1622  0.2507 -0.4990
  723TIP3    H123660   5.015   6.194   1.797 -1.0186 -0.3087 -0.0045
  723TIP3    H223661   4.984   6.212   1.944 -1.5102  1.5253 -0.3140
  724TIP3   OH223662   3.206   1.299   0.056  0.7404 -0.2413  0.0847
  724TIP3    H123663   3.171   1.332  -0.026 -0.6180 -0.0999  0.6967
  724TIP3    H223664   3.196   1.204   0.050 -1.6495 -0.1253  1.0143
  725TIP3   OH223665   3.267   0.693   2.884 -0.1577 -0.5278 -0.1582
  725TIP3    H123666   3.319   0.728   2.957  0.6501 -0.4653 -0.7454
  725TIP3    H223667   3.315   0.720   2.806 -2.1156  1.2530 -0.8301
  726TIP3   OH223668   2.747   5.160   5.338 -0.5821  0.1683 -0.0179
  726TIP3    H123669   2.731   5.158   5.433 -2.1026  1.1639 -0.2121
  726TIP3    H223670   2.787   5.245   5.323  3.3013 -1.4271  0.1485
  727TIP3   OH223671   4.550   4.398   5.008 -0.2056  0.0826 -0.2268
  727TIP3    H123672   4.479   4.390   5.072  0.4966  1.8075  0.8272
  727TIP3    H223673   4.519   4.464   4.946  0.0915  0.1431 -0.3124
  728TIP3   OH223674   0.352   2.018  12.969 -0.8267 -0.4701  0.2137
  728TIP3    H123675   0.405   1.939  12.970  0.3094  0.2317 -1.0601
  728TIP3    H223676   0.321   2.025  12.879  0.5781  1.4499 -0.1884
  729TIP3   OH223677   4.709   5.942   1.917  0.1691 -0.0651  0.1047
  729TIP3    H123678   4.627   5.975   1.954  1.0979  1.5038  0.8536
  729TIP3    H223679   4.717   5.854   1.952  0.5747  1.0388  3.0664
  730TIP3   OH223680   5.330   2.088   3.577  0.1368 -0.1198  0.0275
  730TIP3    H123681   5.343   2.008   3.629  1.1361 -0.0014 -0.0209
  730TIP3    H223682   5.236   2.089   3.558 -0.0671 -0.7287  0.9231
  731TIP3   OH223683   5.784   5.635  12.390 -0.0872 -0.0241  0.0944
  731TIP3    H123684   5.783   5.577  12.466 -0.9843  1.7075  1.4765
  731TIP3    H223685   5.714   5.698  12.407  1.2977  1.9039 -0.9705
  732TIP3   OH223686   6.272   3.097   1.408 -0.4985  0.4855  0.2085
  732TIP3    H123687   6.235   3.134   1.488  1.8520  0.3195  1.4545
  732TIP3    H223688   6.285   3.172   1.351 -1.3791  0.7272  0.3129
  733TIP3   OH223689   0.944   2.667   5.423 -0.3586  0.1400 -0.6052
  733TIP3    H123690   0.996   2.671   5.504  0.3373  1.0277 -1.0712
  733TIP3    H223691   0.855   2.648   5.452 -0.2846  1.2692  0.4524
  734TIP3   OH223692   1.204   4.349   0.792 -0.1537  0.4569 -0.0949
  734TIP3    H123693   1.138   4.356   0.861 -0.8029  0.3282 -0.6825
  734TIP3    H223694   1.287   4.364   0.836 -0.5498  0.3193  0.7242
  735TIP3   OH223695   3.787   1.934  15.298  0.1721  0.1266 -0.3907
  735TIP3    H123696   3.701   1.934  15.258  0.3059  3.0609 -0.9239
  735TIP3    H223697   3.848   1.918  15.226  0.1996  1.1761 -0.6138
  736TIP3   OH223698   6.058   0.687  14.332  0.2112 -0.0877  0.5263
  736TIP3    H123699   6.052   0.703  14.426 -0.8734 -0.4147  0.5250
  736TIP3    H223700   5.970   0.705  14.298  0.7051  0.4944 -0.5066
  737TIP3   OH223701   4.839   6.381   4.286  0.5208 -0.0051 -0.3421
  737TIP3    H123702   4.755   6.350   4.254  0.8163 -0.7343 -0.4229
  737TIP3    H223703   4.834   6.477   4.278 -0.2298 -0.0540 -0.4983
  738TIP3   OH223704   2.843   1.684   4.562 -0.1440  0.0639 -0.2158
  738TIP3    H123705   2.925   1.639   4.542 -1.5138 -1.9371 -1.6539
  738TIP3    H223706   2.840   1.757   4.500  0.1020 -0.4615 -0.8619
  739TIP3   OH223707   1.168   0.871  11.357 -0.1254 -0.5267  0.1988
  739TIP3    H123708   1.166   0.943  11.293 -0.5536 -0.6966  0.0141
  739TIP3    H223709   1.172   0.914  11.442 -3.2656 -0.1319  0.2912
  740TIP3   OH223710   5.771   5.626   1.367 -0.2515 -0.3026  0.0581
  740TIP3    H123711   5.774   5.659   1.456  1.7374 -0.0975 -0.0273
  740TIP3    H223712   5.680   5.634   1.340 -0.5899  1.0838  1.5271
  741TIP3   OH223713   6.014   6.049  13.126  0.0811 -0.1241  0.5935
  741TIP3    H123714   5.963   5.984  13.078 -1.1757  1.6490 -0.5957
  741TIP3    H223715   6.083   6.074  13.064 -0.6975  1.1461  0.2103
  742TIP3   OH223716   1.608   6.395   4.665  0.2174  0.7796 -0.1088
  742TIP3    H123717   1.607   6.357   4.577 -0.2020  0.6217 -0.0399
  742TIP3    H223718   1.593   6.489   4.651  0.6017  0.8198 -0.2375
  743TIP3   OH223719   0.651   0.438  16.642  0.2268 -0.0590 -0.0059
  743TIP3    H123720   0.651   0.379  16.567  0.5100 -0.0687  0.0009
  743TIP3    H223721   0.738   0.428  16.680  0.0726 -0.0792  0.3433
  744TIP3   OH223722   0.319   3.964  13.470 -0.1470 -0.7595 -0.0849
  744TIP3    H123723   0.262   4.026  13.516  2.3335  1.2594  0.5019
  744TIP3    H223724   0.323   3.996  13.380  2.0369  0.7947  0.4700
  745TIP3   OH223725   5.963   1.862  15.568 -0.0821 -0.2803 -0.0606
  745TIP3    H123726   5.997   1.944  15.603 -2.2258  0.7894 -0.3054
  745TIP3    H223727   5.875   1.854  15.605 -0.0854 -2.2839 -0.3534
  746TIP3   OH223728   3.423   4.874  11.558 -0.4831  0.2893  0.3940
  746TIP3    H123729   3.435   4.969  11.557 -0.0815  0.3359 -3.2903
  746TIP3    H223730   3.510   4.839  11.577  0.0947  0.7385 -1.1962
  747TIP3   OH223731   4.523   2.944   3.752  0.4452 -0.0772  0.0182
  747TIP3    H123732   4.576   2.868   3.777  1.4030  0.9991  1.4763
  747TIP3    H223733   4.493   2.925   3.664  0.1563 -2.4130  0.5621
  748TIP3   OH223734   0.321   2.066   1.786  0.0141  0.2499  0.2924
  748TIP3    H123735   0.300   2.002   1.853  1.4379  0.3976  0.8999
  748TIP3    H223736   0.287   2.149   1.820  0.9101  0.3620  0.9491
  749TIP3   OH223737   4.117   0.639   5.153 -0.5949  0.3071 -0.2230
  749TIP3    H123738   4.036   0.666   5.196 -0.7978  0.5841 -0.7637
  749TIP3    H223739   4.097   0.646   5.059 -0.2813 -0.6331 -0.3631
  750TIP3   OH223740   0.234   3.274  13.291  0.1330 -0.0938  0.1160
  750TIP3    H123741   0.140   3.271  13.273  0.1178  1.1084 -0.0919
  750TIP3    H223742   0.244   3.229  13.375 -0.6099 -0.3186  0.0942
  751TIP3   OH223743   1.108   4.257  11.716 -0.1222  0.1710  0.0820
  751TIP3    H123744   1.028   4.235  11.668  0.3037 -2.8219  0.5674
  751TIP3    H223745   1.077   4.303  11.794 -1.6140 -2.2116  1.0102
  752TIP3   OH223746   5.770   2.168  13.272 -0.1481 -0.3491  0.2067
  752TIP3    H123747   5.702   2.188  13.208  0.2827 -0.7844 -0.3890
  752TIP3    H223748   5.817   2.251  13.283 -0.1952 -0.2837 -0.0775
  753TIP3   OH223749   4.780   4.592   3.182 -0.4216 -0.0113 -0.1554
  753TIP3    H123750   4.799   4.669   3.235 -0.9678  0.5024 -0.6995
  753TIP3    H223751   4.692   4.566   3.210 -0.7898  0.3708 -0.9274
  754TIP3   OH223752   5.994   3.693  12.529 -0.3012  0.3363  0.2224
  754TIP3    H123753   5.966   3.602  12.532  0.5782  0.0548  0.0273
  754TIP3    H223754   6.017   3.714  12.620  2.4816 -0.6134 -0.1745
  755TIP3   OH223755   4.896   0.774   3.775  0.3424  0.6229  0.5754
  755TIP3    H123756   4.888   0.856   3.726 -3.0045  0.4967  0.7030
  755TIP3    H223757   4.916   0.708   3.708 -0.2498  1.0659 -0.0520
  756TIP3   OH223758   1.899   3.617  14.596 -0.2481  0.0098 -0.0309
  756TIP3    H123759   1.983   3.594  14.555  0.4770 -0.4946  1.6434
  756TIP3    H223760   1.853   3.534  14.604 -1.1771  0.3584 -1.4315
  757TIP3   OH223761   1.699   3.499   1.134 -0.2261  0.5594 -0.2795
  757TIP3    H123762   1.679   3.523   1.225  1.0832  1.3818 -0.1705
  757TIP3    H223763   1.794   3.487   1.134 -0.5661 -3.0800 -0.7433
  758TIP3   OH223764   0.109   4.049   6.473  0.1059 -0.0508 -0.3424
  758TIP3    H123765   0.061   4.022   6.551  0.8108  0.8592  0.4320
  758TIP3    H223766   0.198   4.065   6.504  0.2306  0.9899 -1.1956
  759TIP3   OH223767   2.224   1.463   0.251  0.3146 -0.2205 -0.1051
  759TIP3    H123768   2.285   1.401   0.211  0.1101 -0.1996 -0.4589
  759TIP3    H223769   2.161   1.409   0.299  0.3167 -0.2715 -0.1600
  760TIP3   OH223770   3.805   5.746  11.366  0.9047 -0.1951 -0.0589
  760TIP3    H123771   3.836   5.657  11.352  1.6319  0.0862 -0.3390
  760TIP3    H223772   3.727   5.737  11.419  1.2278 -0.9724  0.2979
  761TIP3   OH223773   4.227   0.720   3.081  0.5921 -0.8315 -0.0811
  761TIP3    H123774   4.207   0.667   3.003  1.2831 -1.7227  0.3333
  761TIP3    H223775   4.143   0.731   3.125  0.0167  0.4668 -1.4057
  762TIP3   OH223776   5.458   1.616   6.114  0.2459 -0.4466  0.8801
  762TIP3    H123777   5.418   1.585   6.195  1.7719 -1.8998  1.1355
  762TIP3    H223778   5.400   1.584   6.044  0.6691 -2.1394  1.2575
  763TIP3   OH223779   3.231   3.294  13.025  0.1556 -0.5569  0.6896
  763TIP3    H123780   3.264   3.368  12.973 -1.1927 -1.1072 -1.0767
  763TIP3    H223781   3.204   3.333  13.108  3.1276  0.2327  1.4040
  764TIP3   OH223782   3.157   2.495  17.141  0.1802  0.3775 -0.8403
  764TIP3    H123783   3.237   2.443  17.150 -0.4600 -0.5178 -0.2003
  764TIP3    H223784   3.131   2.484  17.049  1.9614  2.4732 -1.6977
  765TIP3   OH223785   0.656   0.045  16.764  0.1778  0.1215 -0.9496
  765TIP3    H123786   0.719   0.048  16.836  0.7361 -3.1387 -1.1673
  765TIP3    H223787   0.577   0.086  16.800  0.5239 -1.1428  1.4309
  766TIP3   OH223788   2.001   0.453   2.039 -0.2140  0.2060 -0.3082
  766TIP3    H123789   2.014   0.361   2.014  1.3482  0.3562 -0.1619
  766TIP3    H223790   2.080   0.475   2.088 -1.5095  1.0277  1.5018
  767TIP3   OH223791   5.374   0.888  12.763  0.1113 -0.1470 -0.6944
  767TIP3    H123792   5.284   0.855  12.754  0.5972 -1.8621  0.2847
  767TIP3    H223793   5.363   0.979  12.793 -1.3323 -0.9260  1.3883
  768TIP3   OH223794   0.622   2.687  12.197 -0.2820 -0.9565  0.0554
  768TIP3    H123795   0.676   2.669  12.120  0.8360 -2.0914  1.0461
  768TIP3    H223796   0.643   2.778  12.220 -0.8572 -0.5129 -1.1379
  769TIP3   OH223797   4.757   0.271  16.002  0.1070  0.2877 -0.1910
  769TIP3    H123798   4.741   0.184  16.038  1.2476  0.2268  0.1946
  769TIP3    H223799   4.780   0.254  15.910  1.9468  0.0078  0.2806
  770TIP3   OH223800   0.590   5.155   5.762 -0.0750  0.2540 -0.3463
  770TIP3    H123801   0.636   5.210   5.825 -1.2972 -1.1267  1.8477
  770TIP3    H223802   0.514   5.121   5.809  1.9422 -5.5560 -0.4018
  771TIP3   OH223803   4.597   4.854   3.348  0.1894  0.5256  0.2951
  771TIP3    H123804   4.609   4.886   3.437  0.4419  1.3386 -0.0215
  771TIP3    H223805   4.519   4.899   3.316 -0.3767 -0.3681  0.3621
  772TIP3   OH223806   0.506   4.380   3.221  0.5136  0.2134  0.5602
  772TIP3    H123807   0.440   4.387   3.290 -1.8263  0.5002 -1.5799
  772TIP3    H223808   0.512   4.287   3.203 -0.8133  0.3239 -0.5650
  773TIP3   OH223809   0.200   1.439   1.156  0.3630 -0.2238 -0.5985
  773TIP3    H123810   0.249   1.388   1.221 -1.6507 -1.1765  0.2683
  773TIP3    H223811   0.116   1.393   1.147 -0.2259  1.0647 -2.3467
  774TIP3   OH223812   1.370   5.255  14.181 -0.5668  0.4926 -0.4227
  774TIP3    H123813   1.326   5.285  14.261 -0.8160 -2.4106  0.6908
  774TIP3    H223814   1.462   5.250  14.206 -0.2053  2.2129 -1.2798
  775TIP3   OH223815   0.396   3.357  15.180 -0.5555 -0.0119 -0.3999
  775TIP3    H123816   0.487   3.370  15.206 -0.6085  1.0219 -0.6806
  775TIP3    H223817   0.400   3.338  15.086 -0.5719 -0.9085 -0.2292
  776TIP3   OH223818   4.970   3.811  16.806  0.2933 -0.1186  0.0904
  776TIP3    H123819   4.960   3.839  16.897 -0.4884  0.3053 -0.1218
  776TIP3    H223820   4.899   3.747  16.793  1.0577 -0.9854  0.0905
  777TIP3   OH223821   4.286   0.372   6.763 -0.1192 -0.0897  0.3281
  777TIP3    H123822   4.281   0.277   6.759 -0.7562 -0.1196  1.4706
  777TIP3    H223823   4.271   0.401   6.673  0.2983 -1.0611 -0.0673
  778TIP3   OH223824   5.318   4.131  12.408 -0.9887  0.1185 -0.0366
  778TIP3    H123825   5.321   4.037  12.394  3.2784  0.0731 -0.3895
  778TIP3    H223826   5.290   4.167  12.324 -0.2318 -0.8243 -0.7132
  779TIP3   OH223827   2.716   6.284   0.417 -0.2909 -0.6459 -0.1218
  779TIP3    H123828   2.625   6.261   0.434 -0.0217 -1.2807  0.5136
  779TIP3    H223829   2.718   6.380   0.427 -1.3728 -0.2885 -2.6060
  780TIP3   OH223830   5.720   6.646  12.731 -0.1468 -0.5332 -0.2504
  780TIP3    H123831   5.757   6.595  12.804 -0.0609  1.0569  0.8762
  780TIP3    H223832   5.763   6.611  12.653  0.6044 -1.5350  0.5772
  781TIP3   OH223833   4.184   5.947  12.474 -0.0974  0.4976  0.0051
  781TIP3    H123834   4.089   5.940  12.485 -0.0746  0.5103  0.2047
  781TIP3    H223835   4.196   6.031  12.428 -0.0262  1.7998  2.2578
  782TIP3   OH223836   3.693   0.665   2.468 -0.1885  0.2631  0.2276
  782TIP3    H123837   3.631   0.645   2.397  0.6345 -0.0535 -0.4190
  782TIP3    H223838   3.694   0.760   2.473  0.6773  0.3545 -1.0680
  783TIP3   OH223839   4.985   0.102  14.155 -0.1042 -0.2775 -0.1653
  783TIP3    H123840   4.902   0.108  14.109  0.0584 -2.0970 -0.7485
  783TIP3    H223841   5.049   0.140  14.094 -0.4904  1.2383  0.3356
  784TIP3   OH223842   1.121   5.046   1.669  0.0635  0.1507 -0.2306
  784TIP3    H123843   1.149   5.137   1.657 -0.4652  0.3428 -0.0308
  784TIP3    H223844   1.035   5.053   1.711  0.7750 -0.4533  1.4264
  785TIP3   OH223845   5.709   4.679   5.606  0.2009 -0.1311 -0.4699
  785TIP3    H123846   5.747   4.637   5.683  0.4852 -2.5540 -1.8349
  785TIP3    H223847   5.723   4.773   5.621  3.3702 -0.6814  0.8381
  786TIP3   OH223848   1.726   6.640   1.870 -0.2793 -0.2312 -0.2378
  786TIP3    H123849   1.781   6.576   1.825  0.3515 -0.5951  1.0008
  786TIP3    H223850   1.783   6.715   1.883 -0.5962  0.0462 -0.4435
  787TIP3   OH223851   5.002   0.292  15.651 -0.1721 -0.2167 -0.1686
  787TIP3    H123852   4.992   0.348  15.574 -0.0587 -0.8595 -0.6601
  787TIP3    H223853   4.971   0.206  15.622 -0.0430 -0.4871  0.4776
  788TIP3   OH223854   1.469   3.231  12.977  1.1973 -0.6809 -1.3186
  788TIP3    H123855   1.386   3.220  12.929 -0.9304  2.5111  1.2109
  788TIP3    H223856   1.465   3.165  13.046 -1.6293  2.1330  1.5147
  789TIP3   OH223857   5.210   0.721  16.163 -0.6771  0.3148  0.5482
  789TIP3    H123858   5.235   0.804  16.204 -0.3598  0.9304 -0.8459
  789TIP3    H223859   5.167   0.746  16.081 -2.5886 -0.8457  1.1275
  790TIP3   OH223860   6.521   0.911   0.482 -0.5956  0.2184  0.3589
  790TIP3    H123861   6.558   0.998   0.469 -0.8647  0.3966  0.7513
  790TIP3    H223862   6.567   0.877   0.559 -1.2637  0.4563  0.8711
  791TIP3   OH223863   5.824   4.707   2.527  0.0801  0.6573  0.0594
  791TIP3    H123864   5.788   4.640   2.586 -0.9690  1.0244 -0.1398
  791TIP3    H223865   5.791   4.790   2.563 -0.9257  0.8621 -1.2557
  792TIP3   OH223866   2.472   4.700   3.425 -0.0764 -0.2416 -0.2620
  792TIP3    H123867   2.550   4.750   3.401  0.2041 -0.6491 -0.1992
  792TIP3    H223868   2.492   4.610   3.402 -0.2006 -0.4867  0.5288
  793TIP3   OH223869   1.394   6.453  12.018  0.1082 -0.1696 -0.0632
  793TIP3    H123870   1.478   6.470  11.975 -0.0635  0.2923 -0.2212
  793TIP3    H223871   1.396   6.507  12.097 -0.7225  1.1426 -0.9112
  794TIP3   OH223872   2.390   1.005   0.691 -0.2157  0.7607 -0.0419
  794TIP3    H123873   2.467   1.059   0.676  0.0533  0.3627 -0.1173
  794TIP3    H223874   2.420   0.935   0.750 -0.6631  0.9294  0.3991
  795TIP3   OH223875   1.804   4.119   0.016 -0.0435 -0.8909 -0.0013
  795TIP3    H123876   1.852   4.162   0.086 -0.4806 -0.4702  0.0462
  795TIP3    H223877   1.833   4.163  -0.064 -0.5466 -0.4519  0.0548
  796TIP3   OH223878   2.915   2.344  16.447 -0.4801 -0.1349  0.8344
  796TIP3    H123879   2.907   2.350  16.352 -0.1310  0.3882  0.8345
  796TIP3    H223880   2.827   2.361  16.480 -0.5739 -0.1817  0.6135
  797TIP3   OH223881   0.767   0.832  13.097 -0.0134  0.0171  0.0357
  797TIP3    H123882   0.828   0.846  13.170 -2.2567 -0.6163  2.1831
  797TIP3    H223883   0.802   0.755  13.052  1.8958  0.9250 -0.1382
  798TIP3   OH223884   3.022   6.747   1.925  0.1434  0.5315  0.0608
  798TIP3    H123885   3.092   6.775   1.867 -0.9788  0.0555 -1.5816
  798TIP3    H223886   2.949   6.805   1.905 -0.1853  0.5479  1.2280
  799TIP3   OH223887   1.660   2.172  17.316 -0.2384  0.0833 -0.8238
  799TIP3    H123888   1.700   2.203  17.235  1.3662 -0.3710 -0.2234
  799TIP3    H223889   1.712   2.096  17.342  1.0210  1.7573  2.0327
  800TIP3   OH223890   1.099   5.257  11.319  0.8237 -0.2075  0.0361
  800TIP3    H123891   1.102   5.165  11.343 -3.1273 -0.7240 -0.7935
  800TIP3    H223892   1.064   5.258  11.230 -3.5583  1.9456  1.4447
  801TIP3   OH223893   2.206   1.833  11.662 -0.5209 -0.3915  0.0452
  801TIP3    H123894   2.190   1.755  11.714 -1.0300 -1.7732 -2.0689
  801TIP3    H223895   2.297   1.854  11.678 -0.3411 -1.4925  0.5590
  802TIP3   OH223896   3.833   1.539  11.928  0.3870 -0.0147  0.0574
  802TIP3    H123897   3.853   1.598  12.000  0.1064  1.0589 -0.7226
  802TIP3    H223898   3.863   1.453  11.958  0.8721  0.5327  1.1779
  803TIP3   OH223899   4.059   5.152  12.160 -0.2950 -0.2665  0.4356
  803TIP3    H123900   4.104   5.126  12.080 -0.2587 -0.1224  0.4083
  803TIP3    H223901   3.967   5.159  12.135 -0.2023  0.3689  0.2559
  804TIP3   OH223902   2.957   2.058   2.682 -0.4176  0.0287 -0.1826
  804TIP3    H123903   3.023   2.127   2.692  1.7441 -1.5624 -2.3557
  804TIP3    H223904   2.901   2.088   2.610 -0.6474  0.3036  0.1034
  805TIP3   OH223905   0.471   4.949  16.115  0.1279  0.4956 -0.0387
  805TIP3    H123906   0.485   4.874  16.057 -0.1998  0.7436 -0.4469
  805TIP3    H223907   0.454   5.022  16.055 -1.3473  0.5352  0.3803
  806TIP3   OH223908   0.900   0.459  12.561 -0.1296 -0.6059  0.1948
  806TIP3    H123909   0.895   0.397  12.633  0.7415 -0.3570  0.4922
  806TIP3    H223910   0.953   0.415  12.495 -0.1724 -0.4862  0.0800
  807TIP3   OH223911   0.601   5.930   1.747 -0.4848 -0.0340 -0.3413
  807TIP3    H123912   0.616   5.889   1.662 -0.5009  0.1951 -0.4534
  807TIP3    H223913   0.507   5.919   1.763 -0.3822 -0.6078 -0.0786
  808TIP3   OH223914   4.307   2.914   4.239 -0.2106 -0.0950  0.1773
  808TIP3    H123915   4.249   2.986   4.265  0.2724  0.1734  0.5204
  808TIP3    H223916   4.393   2.955   4.231  0.4032 -0.9296  1.9560
  809TIP3   OH223917   5.702   4.863   1.500 -0.3617  0.0155  0.0059
  809TIP3    H123918   5.664   4.777   1.482  1.2829 -0.4867 -1.3284
  809TIP3    H223919   5.795   4.854   1.477  0.2534  1.6303  1.6050
  810TIP3   OH223920   2.901   0.431   4.230 -0.0363  0.7083  0.6440
  810TIP3    H123921   2.818   0.388   4.210 -0.6574  1.5061  1.3796
  810TIP3    H223922   2.899   0.512   4.179  0.3011  0.7254  0.6543
  811TIP3   OH223923   3.226   2.555   5.764 -0.6428  0.3341 -0.1125
  811TIP3    H123924   3.277   2.481   5.730 -2.1458 -0.3489 -0.9851
  811TIP3    H223925   3.225   2.618   5.691 -0.0838  0.8540  0.3222
  812TIP3   OH223926   1.870   2.232  15.082  0.6708  0.0010  0.0535
  812TIP3    H123927   1.923   2.311  15.078 -1.6778  1.6139 -1.9635
  812TIP3    H223928   1.925   2.164  15.044  1.8271  1.2601 -0.6067
  813TIP3   OH223929   4.551   6.494  16.795  0.6917 -0.2027  0.1440
  813TIP3    H123930   4.493   6.428  16.757 -0.1633  1.1380 -0.9501
  813TIP3    H223931   4.511   6.514  16.880  0.4696 -0.4453  0.1007
  814TIP3   OH223932   2.811   2.434   3.270 -0.2452  0.0333 -0.3031
  814TIP3    H123933   2.875   2.479   3.326 -0.7011  0.0409  0.2169
  814TIP3    H223934   2.853   2.432   3.184  0.6484 -0.3633  0.1284
  815TIP3   OH223935   5.686   4.797  17.380  0.3768 -0.5434 -0.3259
  815TIP3    H123936   5.702   4.877  17.330 -1.9591 -0.0086 -0.3015
  815TIP3    H223937   5.642   4.826  17.459 -0.3065 -1.8271 -0.2029
  816TIP3   OH223938   6.197   6.767  15.646  0.6464  0.5601 -0.0702
  816TIP3    H123939   6.182   6.682  15.605  3.0271 -0.6003  1.2776
  816TIP3    H223940   6.243   6.819  15.580  0.5988  0.2565 -0.3414
  817TIP3   OH223941   6.416   6.015  14.526  0.4098  0.1207 -0.5283
  817TIP3    H123942   6.507   5.985  14.522 -0.2247 -1.9440 -2.5549
  817TIP3    H223943   6.387   5.991  14.614  1.4861 -0.3917 -0.2868
  818TIP3   OH223944   6.389   2.638  13.187  0.9484 -0.6862 -0.2061
  818TIP3    H123945   6.362   2.634  13.095  1.3780 -1.2576 -0.3102
  818TIP3    H223946   6.462   2.699  13.188  0.1217  0.3394 -0.0281
  819TIP3   OH223947   6.543   1.038  10.867 -0.2280 -0.4900 -0.4987
  819TIP3    H123948   6.504   1.125  10.877 -0.0758 -0.4546 -0.2098
  819TIP3    H223949   6.483   0.980  10.914 -2.3603 -1.1358 -3.6290
  820TIP3   OH223950   2.524   0.999   3.357  0.0715 -0.1831 -0.3599
  820TIP3    H123951   2.435   0.968   3.373 -0.2848  1.4486  1.1547
  820TIP3    H223952   2.578   0.920   3.352 -1.3828 -1.1744 -0.9394
  821TIP3   OH223953   4.983   1.161   4.224  0.3747 -0.2636 -0.6041
  821TIP3    H123954   4.965   1.228   4.291  0.1003 -0.5464 -0.3949
  821TIP3    H223955   5.072   1.132   4.244  0.6047  0.2454 -0.8736
  822TIP3   OH223956   5.380   5.769  17.343 -0.4323  0.0382  0.0030
  822TIP3    H123957   5.357   5.690  17.392 -0.3912  0.0316  0.0117
  822TIP3    H223958   5.342   5.755  17.256  0.3302 -0.3846 -0.2756
  823TIP3   OH223959   5.948   3.302   4.257  0.1248 -0.6100  0.0063
  823TIP3    H123960   6.007   3.352   4.313 -1.2970  0.3990  0.6587
  823TIP3    H223961   5.876   3.362   4.238  0.1909 -1.1535 -2.3245
  824TIP3   OH223962   5.623   6.007  11.826  0.3132  0.0849 -0.3395
  824TIP3    H123963   5.594   6.003  11.734 -2.2409 -0.1442  0.4011
  824TIP3    H223964   5.544   5.987  11.876  1.9313 -0.9969  1.9061
  825TIP3   OH223965   5.015   5.238   0.965  0.4702  0.1523  0.2314
  825TIP3    H123966   5.100   5.195   0.960  1.0876  1.4965 -1.7440
  825TIP3    H223967   4.954   5.167   0.986  1.8317 -1.1316  0.0148
  826TIP3   OH223968   3.252   6.362   0.251 -0.5296  0.1587  0.5598
  826TIP3    H123969   3.253   6.444   0.201  0.8375  0.0127  0.2961
  826TIP3    H223970   3.344   6.348   0.275 -0.6141 -1.6722 -0.0156
  827TIP3   OH223971   5.044   1.803  17.402  0.2857 -0.3125 -0.0873
  827TIP3    H123972   5.017   1.894  17.410 -0.0614 -0.3394 -0.8378
  827TIP3    H223973   5.059   1.774  17.492  2.0678  0.9688  0.0886
  828TIP3   OH223974   0.693   6.035   5.241 -0.1684 -0.1446  0.4043
  828TIP3    H123975   0.772   6.086   5.224 -0.8644  0.5314 -0.9643
  828TIP3    H223976   0.725   5.955   5.282  1.3518 -0.3230 -0.9986
  829TIP3   OH223977   4.778   1.169  15.184  0.3795 -0.3142  0.1113
  829TIP3    H123978   4.822   1.183  15.100 -0.1576 -0.2191 -0.1578
  829TIP3    H223979   4.698   1.221  15.178  0.7508  0.3766  1.0189
  830TIP3   OH223980   4.856   2.851  16.261 -0.4906 -0.1445  0.5186
  830TIP3    H123981   4.925   2.899  16.215 -0.4599 -0.8927 -0.2464
  830TIP3    H223982   4.840   2.774  16.206 -0.8750 -0.7577  1.4631
  831TIP3   OH223983   0.667   1.176   2.711  0.2471  0.3239 -0.1957
  831TIP3    H123984   0.604   1.180   2.639 -0.9266 -0.4803  0.7471
  831TIP3    H223985   0.727   1.248   2.695 -0.1805  0.3604 -1.7966
  832TIP3   OH223986   1.710   6.484  15.867 -0.1558  0.5576  0.0514
  832TIP3    H123987   1.711   6.429  15.945 -2.2189  0.9812  0.4157
  832TIP3    H223988   1.687   6.571  15.898 -0.5703  0.8317 -0.9736
  833TIP3   OH223989   2.970   6.521   6.577  0.5250  0.3625 -0.1949
  833TIP3    H123990   2.880   6.552   6.588  0.6193  0.1335  1.4053
  833TIP3    H223991   2.960   6.431   6.546  0.2556  1.1248 -2.5764
  834TIP3   OH223992   2.249   0.574   2.417  0.2065  0.4163  0.7298
  834TIP3    H123993   2.213   0.657   2.385  0.3614  0.7971  1.5172
  834TIP3    H223994   2.340   0.574   2.387 -0.3765 -0.5214 -1.2156
  835TIP3   OH223995   0.650   2.247   3.684 -0.5373 -0.2109 -0.0352
  835TIP3    H123996   0.694   2.206   3.610  0.1225  0.3863  0.0114
  835TIP3    H223997   0.620   2.332   3.651  1.1505  0.7653  0.7557
  836TIP3   OH223998   1.388   6.044  17.288 -0.9246 -0.1693  0.1315
  836TIP3    H123999   1.444   6.037  17.366 -0.1823  1.6276 -0.1995
  836TIP3    H224000   1.448   6.067  17.217 -2.0837  2.2095 -0.1664
  837TIP3   OH224001   1.280   0.117  15.514 -0.1981  0.7272 -0.3375
  837TIP3    H124002   1.262   0.042  15.571  0.7007  0.6070 -0.1940
  837TIP3    H224003   1.193   0.148  15.487 -0.6022  0.1023  0.2036
  838TIP3   OH224004   6.147   0.306   3.542 -0.3364  0.5607  0.6896
  838TIP3    H124005   6.208   0.333   3.473 -0.2473 -1.3111 -0.0139
  838TIP3    H224006   6.126   0.215   3.521 -1.8307  0.5531  2.0521
  839TIP3   OH224007   5.004   5.792  13.183  0.0002 -0.2808 -0.3094
  839TIP3    H124008   4.954   5.712  13.202 -0.0555  0.1591  1.7006
  839TIP3    H224009   4.970   5.822  13.099  0.0852 -2.3932 -1.1656
  840TIP3   OH224010   0.097   2.622   1.376  0.6773  0.7963 -0.1051
  840TIP3    H124011   0.036   2.572   1.430  1.1542  2.1935  1.8413
  840TIP3    H224012   0.181   2.579   1.387  0.2754 -0.6449 -2.1418
  841TIP3   OH224013   3.348   6.415  15.042  0.0401 -0.2892  0.1942
  841TIP3    H124014   3.322   6.486  14.984  0.0895 -1.0258 -0.7746
  841TIP3    H224015   3.432   6.384  15.005  0.1561 -0.6618  0.7582
  842TIP3   OH224016   4.130   3.791  17.372  0.0376  0.2422  0.3462
  842TIP3    H124017   4.187   3.719  17.344  0.2702 -0.5680  2.6645
  842TIP3    H224018   4.041   3.758  17.359  0.1378 -0.8300  2.0687
  843TIP3   OH224019   4.731   6.213  17.005 -0.5007 -0.3640 -0.0960
  843TIP3    H124020   4.809   6.225  16.950  0.5253  0.2675  1.4177
  843TIP3    H224021   4.741   6.125  17.042 -0.8310 -0.5201 -0.3728
  844TIP3   OH224022   1.089   4.352  16.954  0.3648  0.1331  0.4065
  844TIP3    H124023   1.179   4.342  16.984  0.7349  0.2411 -0.6151
  844TIP3    H224024   1.038   4.293  17.009  0.7586  1.4532  2.2863
  845TIP3   OH224025   2.262   6.622  14.643 -0.5242  0.0645  0.0857
  845TIP3    H124026   2.184   6.589  14.688 -1.5836  0.7743 -1.1449
  845TIP3    H224027   2.268   6.713  14.671 -0.0352 -0.0386  0.3121
  846TIP3   OH224028   5.007   6.302  13.958  0.9499  0.2324 -0.3274
  846TIP3    H124029   5.025   6.217  13.999  0.6556 -0.0579 -0.7983
  846TIP3    H224030   5.064   6.364  14.005 -1.1608  0.3878  2.2958
  847TIP3   OH224031   3.458   0.178   0.202  0.0707  0.2631 -0.1742
  847TIP3    H124032   3.530   0.189   0.264  0.9116 -1.3671 -0.7941
  847TIP3    H224033   3.498   0.193   0.116 -0.3817 -0.3746 -0.5029
  848TIP3   OH224034   3.154   5.174  15.687 -0.1314 -0.6164 -0.8065
  848TIP3    H124035   3.157   5.269  15.698 -2.3632 -0.6505  0.8899
  848TIP3    H224036   3.245   5.146  15.697  0.2806  1.1489  1.2412
  849TIP3   OH224037   5.357   1.774   3.463  0.1721 -0.3086  0.3208
  849TIP3    H124038   5.292   1.722   3.416 -0.7942  1.7094 -0.7179
  849TIP3    H224039   5.341   1.756   3.555  0.0894 -2.0276  0.0142
  850TIP3   OH224040   0.423   0.942  12.751 -0.5561  0.3782  0.3263
  850TIP3    H124041   0.377   0.980  12.676 -2.5660 -0.5581  0.9964
  850TIP3    H224042   0.358   0.943  12.821  0.8540  0.0255  1.6841
  851TIP3   OH224043   1.105   6.304   3.128 -0.3668  0.3992  0.0508
  851TIP3    H124044   1.163   6.261   3.191 -3.2277 -1.9010  1.3908
  851TIP3    H224045   1.134   6.395   3.126  1.9961 -0.2035  2.0940
  852TIP3   OH224046   1.736   2.206  14.742  0.2244  0.1885  0.5844
  852TIP3    H124047   1.721   2.112  14.747 -2.3454  0.4380 -0.6415
  852TIP3    H224048   1.814   2.216  14.688  1.0434 -1.2259  1.4634
  853TIP3   OH224049   3.121   1.167   5.860 -0.3409  0.6395 -0.3515
  853TIP3    H124050   3.121   1.081   5.903  0.1258  0.8598  0.1030
  853TIP3    H224051   3.100   1.148   5.769  1.1329 -0.1261 -0.5717
  854TIP3   OH224052   6.349   2.503  12.412 -0.1939 -0.5196 -0.0268
  854TIP3    H124053   6.301   2.585  12.420  0.3973  0.0010 -1.3638
  854TIP3    H224054   6.284   2.439  12.385 -0.2768  0.0370 -1.2033
  855TIP3   OH224055   5.550   2.129   6.272  0.0481  0.2497  0.4110
  855TIP3    H124056   5.618   2.112   6.207  0.1483 -0.3767  0.6667
  855TIP3    H224057   5.564   2.220   6.299 -1.3390  1.2740 -1.9953
  856TIP3   OH224058   2.051   4.701   5.694  0.4852 -0.4717 -0.5110
  856TIP3    H124059   2.015   4.764   5.632 -0.5336  0.9451  1.4320
  856TIP3    H224060   2.000   4.621   5.679  1.0351 -0.5314 -2.2406
  857TIP3   OH224061   1.737   5.280  12.982  0.2684 -0.0226 -0.2353
  857TIP3    H124062   1.757   5.340  13.054  2.2224  2.3169 -2.5021
  857TIP3    H224063   1.705   5.337  12.912  0.2268 -1.9488 -1.8747
  858TIP3   OH224064   2.103   5.455  16.601 -1.2799  0.3222 -0.2053
  858TIP3    H124065   2.183   5.493  16.564 -0.8839  0.1014  0.4133
  858TIP3    H224066   2.083   5.509  16.677 -1.1683 -0.2112  0.2074
  859TIP3   OH224067   0.313   2.050   4.766 -0.2577  0.2445  0.1921
  859TIP3    H124068   0.327   2.145   4.758 -2.4482  0.6232  0.2547
  859TIP3    H224069   0.365   2.013   4.695  1.8878  1.3176  1.0985
  860TIP3   OH224070   4.717   5.353  15.710  0.3453 -0.3663 -0.4259
  860TIP3    H124071   4.770   5.360  15.631  0.9359  0.5678  0.0398
  860TIP3    H224072   4.631   5.384  15.685 -0.1581 -2.3354 -1.3138
  861TIP3   OH224073   1.763   1.876   6.615  0.6654 -0.1606  0.0644
  861TIP3    H124074   1.742   1.782   6.610  0.2067 -0.0039 -1.1899
  861TIP3    H224075   1.790   1.899   6.526 -0.4177  1.1695  0.0489
  862TIP3   OH224076   5.521   1.632   0.307  0.0552 -0.1602  0.0238
  862TIP3    H124077   5.539   1.576   0.231  0.7285 -1.0594  0.8219
  862TIP3    H224078   5.607   1.664   0.334 -0.4372  2.8108 -1.5051
  863TIP3   OH224079   2.430   4.169   0.602 -0.3453  0.2626  0.2875
  863TIP3    H124080   2.354   4.224   0.584 -1.1527 -0.6573  0.7838
  863TIP3    H224081   2.408   4.084   0.564 -0.2622 -0.4668  1.7821
  864TIP3   OH224082   3.173   5.075  13.581 -0.1950 -0.0621 -0.5104
  864TIP3    H124083   3.078   5.068  13.573 -0.4973  0.2983  1.9384
  864TIP3    H224084   3.207   5.002  13.530 -1.9213 -1.5962  0.4253
  865TIP3   OH224085   3.752   5.306  14.985  0.6907 -0.1685 -0.4509
  865TIP3    H124086   3.662   5.329  14.963  0.5932 -1.6736 -1.8368
  865TIP3    H224087   3.785   5.380  15.036 -1.4287  0.2562  0.3938
  866TIP3   OH224088   6.574   6.359   4.910 -0.1029  0.1920 -0.3877
  866TIP3    H124089   6.638   6.417   4.952 -0.6777  0.5236  0.0606
  866TIP3    H224090   6.609   6.343   4.823  0.1985  1.0118 -0.4251
  867TIP3   OH224091   1.889   5.224  12.608  0.3655  0.6256 -0.6562
  867TIP3    H124092   1.795   5.237  12.620  0.3379  0.7962 -1.0378
  867TIP3    H224093   1.923   5.311  12.588  0.7443  0.7187  0.3497
  868TIP3   OH224094   6.730   2.964   2.178  0.0611 -0.2354 -0.3623
  868TIP3    H124095   6.666   2.913   2.227  0.0884  0.2878  0.2297
  868TIP3    H224096   6.796   2.901   2.151  0.3863 -0.4207  0.8347
  869TIP3   OH224097   1.190   2.128  17.045 -0.4928  0.2446  0.1307
  869TIP3    H124098   1.107   2.152  17.003 -1.8295 -0.6582  2.1013
  869TIP3    H224099   1.257   2.153  16.982 -2.3337 -0.7324 -2.3734
  870TIP3   OH224100   3.610   4.707  14.258 -0.1743 -0.1384 -0.0619
  870TIP3    H124101   3.566   4.622  14.257 -3.2325  1.3213 -1.5376
  870TIP3    H224102   3.582   4.748  14.340 -0.2424  0.1711 -0.2389
  871TIP3   OH224103   0.036   6.091  11.350 -0.4861  0.1210 -0.1693
  871TIP3    H124104   0.058   6.096  11.257  0.5842 -0.8737  0.0100
  871TIP3    H224105   0.113   6.053  11.391 -1.8352 -1.7354  0.7861
  872TIP3   OH224106   3.739   2.895   4.976 -0.6903 -0.3691 -0.4362
  872TIP3    H124107   3.785   2.978   4.965 -2.3422  0.5255 -1.0497
  872TIP3    H224108   3.683   2.909   5.052 -1.2679 -0.7704 -0.7807
  873TIP3   OH224109   5.189   3.940  12.700 -0.2002 -0.0744 -0.1321
  873TIP3    H124110   5.147   3.942  12.614  2.2410  1.8841 -1.4234
  873TIP3    H224111   5.243   3.862  12.699 -1.5285 -1.0354  0.4005
  874TIP3   OH224112   3.128   5.449   4.159  0.1668  0.7026  0.2463
  874TIP3    H124113   3.101   5.359   4.177  0.4164  0.7574  0.9551
  874TIP3    H224114   3.206   5.441   4.105 -0.4631  0.5199 -0.6498
  875TIP3   OH224115   0.856   3.219  14.404 -0.2982 -0.1396  0.0209
  875TIP3    H124116   0.917   3.152  14.435  0.5604  0.9717  0.8227
  875TIP3    H224117   0.849   3.205  14.310 -0.4805 -1.6116  0.2332
  876TIP3   OH224118   5.560   1.978   5.880 -0.4855 -0.2335 -0.1429
  876TIP3    H124119   5.623   2.046   5.903 -1.2815  0.8744 -1.1178
  876TIP3    H224120   5.568   1.968   5.785  0.5222 -2.4526  0.1235
  877TIP3   OH224121   0.482   2.879   6.495 -0.0912 -0.7001 -0.2906
  877TIP3    H124122   0.559   2.823   6.484  2.1231  1.4996  2.3921
  877TIP3    H224123   0.437   2.843   6.572 -1.8831 -1.9748 -1.8431
  878TIP3   OH224124   1.081   1.969   0.054 -0.1947  0.2508  0.1452
  878TIP3    H124125   1.004   1.992   0.106  1.0335  1.1418  1.6553
  878TIP3    H224126   1.151   1.956   0.118  1.7898  2.8905 -1.2531
  879TIP3   OH224127   6.361   0.358   5.657  0.2741 -0.0207  0.1121
  879TIP3    H124128   6.447   0.370   5.615 -0.2503  1.0330 -0.7005
  879TIP3    H224129   6.324   0.446   5.660 -1.0378 -0.5517 -0.1063
  880TIP3   OH224130   0.058   4.237   2.188  0.3512  0.1359  0.5021
  880TIP3    H124131   0.068   4.190   2.105  0.9700  0.6291  0.2858
  880TIP3    H224132   0.001   4.182   2.241  0.5130 -0.5189 -0.0014
  881TIP3   OH224133   2.317   4.802   4.053  0.6159 -0.5163  0.3007
  881TIP3    H124134   2.282   4.770   4.136 -0.0665  0.7426  0.5162
  881TIP3    H224135   2.253   4.867   4.024  1.4625 -0.0811 -0.6139
  882TIP3   OH224136   1.213   5.523  17.298  0.0190 -0.1625  0.6044
  882TIP3    H124137   1.264   5.603  17.278  1.6270 -1.1854  0.4108
  882TIP3    H224138   1.145   5.553  17.357  0.7119  1.3377  0.7059
  883TIP3   OH224139   4.134   4.440   1.386 -0.2201 -0.3847 -0.1536
  883TIP3    H124140   4.131   4.513   1.447 -0.9968  1.3337 -2.1624
  883TIP3    H224141   4.205   4.462   1.325 -0.8741 -0.9606 -1.1587
  884TIP3   OH224142   3.303   1.249   6.213  0.1943 -0.5433 -0.5751
  884TIP3    H124143   3.288   1.172   6.159  0.5536  0.2661 -1.8713
  884TIP3    H224144   3.216   1.282   6.234  0.0539 -0.7914 -0.7672
  885TIP3   OH224145   5.722   1.221  12.192 -0.4899  0.5298  0.4243
  885TIP3    H124146   5.747   1.272  12.115 -0.1299  0.1458  0.2841
  885TIP3    H224147   5.799   1.221  12.248 -1.2712  2.2211  1.5767
  886TIP3   OH224148   4.902   3.724  15.080  0.4016 -0.1472  0.1478
  886TIP3    H124149   4.883   3.772  14.999  1.4271 -1.7605 -1.1002
  886TIP3    H224150   4.969   3.776  15.124  0.5768  0.2221 -0.5485
  887TIP3   OH224151   1.180   5.721   3.665  0.5138 -0.5197  0.0922
  887TIP3    H124152   1.249   5.655   3.653 -0.7597 -1.9611  0.4736
  887TIP3    H224153   1.170   5.728   3.760  0.5486  0.1428  0.0521
  888TIP3   OH224154   3.497   6.443  16.970  0.0047 -0.2640 -0.5920
  888TIP3    H124155   3.450   6.505  16.915 -0.6747 -0.8619 -0.7042
  888TIP3    H224156   3.569   6.413  16.915  1.1108  1.3544 -0.0951
  889TIP3   OH224157   1.099   1.900  16.880 -0.4701 -0.4324 -0.1477
  889TIP3    H124158   1.190   1.870  16.881 -0.2998 -0.0591 -1.4747
  889TIP3    H224159   1.104   1.991  16.911 -0.2072 -0.0318 -1.3138
  890TIP3   OH224160   0.887   3.786  12.025 -0.1711 -0.4679  0.1429
  890TIP3    H124161   0.824   3.844  11.983 -1.6119 -0.9922  1.4986
  890TIP3    H224162   0.970   3.807  11.983 -0.9908  1.2102 -0.7332
  891TIP3   OH224163   1.204   4.539   3.653  0.5178 -0.6806  0.1167
  891TIP3    H124164   1.267   4.550   3.724  0.5103  0.5231 -0.0416
  891TIP3    H224165   1.216   4.617   3.598 -1.2573 -0.3056  0.2051
  892TIP3   OH224166   6.471   3.164  13.580 -0.9411  0.4161  0.0360
  892TIP3    H124167   6.560   3.134  13.562 -0.2487  2.2253  0.2322
  892TIP3    H224168   6.437   3.191  13.495 -1.0908  0.2895  0.0542
  893TIP3   OH224169   2.757   0.006   2.213  0.1472  0.2314 -0.0042
  893TIP3    H124170   2.682   0.050   2.173  0.7513  0.9825 -0.3402
  893TIP3    H224171   2.770  -0.073   2.160  0.8681  1.1556 -1.2709
  894TIP3   OH224172   2.526   3.239   1.817  0.4827 -0.9000  0.0063
  894TIP3    H124173   2.504   3.283   1.900  0.4439 -0.1330 -0.4000
  894TIP3    H224174   2.578   3.304   1.770  0.0606 -1.1409 -0.7942
  895TIP3   OH224175   3.616   6.074  17.080  0.1255  0.0265 -0.0240
  895TIP3    H124176   3.525   6.054  17.105  0.0919  0.3437  0.1025
  895TIP3    H224177   3.625   6.037  16.992  0.1144 -0.7133  0.2736
  896TIP3   OH224178   1.233   2.516  11.763 -0.0429  0.1719  0.2420
  896TIP3    H124179   1.243   2.573  11.686  0.8547 -1.6146 -1.0312
  896TIP3    H224180   1.307   2.538  11.819 -1.1014  2.0110  1.0268
  897TIP3   OH224181   5.411   4.128  13.222  0.0411  0.0474  0.1656
  897TIP3    H124182   5.354   4.138  13.298  0.8454  0.8938  0.6854
  897TIP3    H224183   5.368   4.178  13.153 -0.8104 -0.9121 -0.0248
  898TIP3   OH224184   2.030   0.382  14.470 -0.5362 -0.1612 -0.3936
  898TIP3    H124185   2.110   0.329  14.467  1.2877  2.4277 -1.2183
  898TIP3    H224186   2.029   0.418  14.559 -1.2340 -0.7807 -0.1426
  899TIP3   OH224187   6.242   5.122   3.467  0.4314  0.0023  0.0960
  899TIP3    H124188   6.304   5.148   3.399 -0.8186  1.3069 -0.6235
  899TIP3    H224189   6.195   5.047   3.429 -0.3518  0.8101 -0.5602
  900TIP3   OH224190   5.916   5.327  13.015 -0.0275  0.1269  0.2763
  900TIP3    H124191   5.947   5.368  12.934  0.7194  0.6820  0.8297
  900TIP3    H224192   5.831   5.289  12.992 -0.0578  0.7196 -0.6359
  901TIP3   OH224193   4.660   5.784   2.785  0.1082 -0.3135 -0.2650
  901TIP3    H124194   4.716   5.859   2.763  0.4391  0.2708  2.2786
  901TIP3    H224195   4.720   5.718   2.819 -0.4200 -0.9207 -0.4842
  902TIP3   OH224196   1.653   1.412   2.035  0.0271  0.1627  0.1207
  902TIP3    H124197   1.569   1.433   1.996  0.1862  0.9305  0.1743
  902TIP3    H224198   1.689   1.497   2.061  0.3636 -0.2444  1.0174
  903TIP3   OH224199   6.199   5.474  14.909 -0.2855 -0.0792  0.0869
  903TIP3    H124200   6.272   5.498  14.965  0.8764 -0.5315 -1.1937
  903TIP3    H224201   6.186   5.549  14.851 -0.2901 -0.3125 -0.2217
  904TIP3   OH224202   0.837   2.848   1.186  0.1129 -0.1356 -0.3192
  904TIP3    H124203   0.805   2.876   1.271 -2.1737 -0.6318 -0.9400
  904TIP3    H224204   0.921   2.807   1.204  0.3128  0.9716  1.4854
  905TIP3   OH224205   0.058   6.192  17.249  0.1357  0.3706  0.0042
  905TIP3    H124206  -0.027   6.226  17.277  0.8165  2.5138 -0.2843
  905TIP3    H224207   0.068   6.223  17.159  1.6685  1.1395  0.4014
  906TIP3   OH224208   1.197   3.142  13.094 -0.7522 -0.0442  0.2553
  906TIP3    H124209   1.212   3.188  13.177 -0.2566  2.5037 -1.1375
  906TIP3    H224210   1.159   3.059  13.120 -0.6449  0.6511  3.0386
  907TIP3   OH224211   0.878   5.379  11.446 -0.6636  0.0465 -0.0779
  907TIP3    H124212   0.960   5.381  11.397 -0.5411  2.1266  0.1066
  907TIP3    H224213   0.828   5.307  11.408  1.9785 -2.6130  1.1200
  908TIP3   OH224214   3.387   4.636  15.403  0.1291 -0.1744 -0.0095
  908TIP3    H124215   3.382   4.731  15.415 -1.2644 -0.1112 -0.8698
  908TIP3    H224216   3.369   4.599  15.489  4.5195  0.2786  1.3619
  909TIP3   OH224217   0.123   4.777   3.836  0.1917 -0.1854  0.3192
  909TIP3    H124218   0.215   4.797   3.819  0.2736 -0.1951  0.7354
  909TIP3    H224219   0.075   4.821   3.766  0.3877  1.1952  1.0188
  910TIP3   OH224220   6.170   3.132  12.730 -0.3809  0.1899  0.4271
  910TIP3    H124221   6.189   3.128  12.636  2.4972 -0.7682  0.9558
  910TIP3    H224222   6.147   3.223  12.746  0.3825  0.6693 -1.0170
  911TIP3   OH224223   5.826   4.988   0.362 -0.6162 -0.2455  0.2183
  911TIP3    H124224   5.891   4.919   0.346  0.2010  0.3967  0.6987
  911TIP3    H224225   5.784   5.002   0.277  1.2895  0.7270 -0.6275
  912TIP3   OH224226   0.459   4.174   5.075 -0.2195  0.3735 -0.2241
  912TIP3    H124227   0.407   4.115   5.020  1.1335 -0.9016 -0.1957
  912TIP3    H224228   0.450   4.139   5.163  0.9478 -0.0850 -0.2686
  913TIP3   OH224229   0.426   3.269  16.867 -0.5594  0.5976 -0.1751
  913TIP3    H124230   0.484   3.336  16.831 -1.1714  1.7453  0.9011
  913TIP3    H224231   0.363   3.252  16.797  1.5310 -1.3881 -1.7552
  914TIP3   OH224232   3.496   0.248  14.753  0.9254  0.1748 -0.1533
  914TIP3    H124233   3.592   0.255  14.753  1.1100  0.3800 -4.5943
  914TIP3    H224234   3.465   0.338  14.747  0.5154  0.0503  0.0496
  915TIP3   OH224235   6.740   1.961  10.902 -0.0222  0.2524 -0.4002
  915TIP3    H124236   6.649   1.945  10.930  0.2302 -0.7617 -0.1178
  915TIP3    H224237   6.733   2.034  10.841 -0.9087  0.8690  0.3917
  916TIP3   OH224238   6.072   1.146   5.649 -0.5694  0.4416 -0.4131
  916TIP3    H124239   6.061   1.113   5.560 -1.5125 -0.6474  0.0776
  916TIP3    H224240   6.068   1.241   5.640  1.4137  0.4739 -1.7785
  917TIP3   OH224241   2.933   5.228   4.919 -0.2163 -0.3028 -0.6639
  917TIP3    H124242   2.871   5.170   4.964  0.0774  1.0186  1.5523
  917TIP3    H224243   3.011   5.228   4.974  0.7066  0.3017 -1.9211
  918TIP3   OH224244   2.175   3.489  17.201 -0.6632 -1.0040 -0.1804
  918TIP3    H124245   2.092   3.536  17.215 -0.2610 -0.7356  1.4174
  918TIP3    H224246   2.149   3.408  17.157 -1.6953 -0.6176 -0.3170
  919TIP3   OH224247   5.101   0.592  14.053 -0.4749  0.4307 -0.7555
  919TIP3    H124248   5.159   0.662  14.022  0.7106  1.3629  3.0262
  919TIP3    H224249   5.157   0.515  14.061 -0.2061  0.7345  0.7340
  920TIP3   OH224250   2.563   2.658  14.320  0.5678 -0.1198 -0.3819
  920TIP3    H124251   2.587   2.748  14.301  0.5244 -0.1818 -0.7321
  920TIP3    H224252   2.628   2.629  14.384 -0.1196  0.5259  0.6270
  921TIP3   OH224253   2.514   1.001   2.656 -0.3333 -0.3320 -0.2372
  921TIP3    H124254   2.527   1.090   2.691 -0.3368 -0.8206  1.0522
  921TIP3    H224255   2.600   0.960   2.664  0.5071  0.4331 -3.6129
  922TIP3   OH224256   5.907   5.589  15.063  0.1195  0.0623 -0.5893
  922TIP3    H124257   5.855   5.512  15.038 -1.9077  0.6475  1.4611
  922TIP3    H224258   5.983   5.552  15.109  0.0131 -0.7505 -1.0397
  923TIP3   OH224259   0.164   2.168  12.731  0.0712 -0.3166 -0.1671
  923TIP3    H124260   0.147   2.255  12.767 -1.5696 -0.6393 -0.1180
  923TIP3    H224261   0.080   2.139  12.696 -0.0602 -2.8101  1.8832
  924TIP3   OH224262   5.452   0.304   2.710  0.2081 -0.2716 -0.3905
  924TIP3    H124263   5.502   0.355   2.646  1.4524 -1.4266 -0.3920
  924TIP3    H224264   5.375   0.274   2.663  1.7986 -2.3099 -1.8642
  925TIP3   OH224265   0.151   4.091   2.602 -0.0939  0.3959 -0.2050
  925TIP3    H124266   0.247   4.092   2.599 -0.0633  0.1272  0.3756
  925TIP3    H224267   0.130   4.005   2.639 -0.6127 -0.1319 -1.6430
  926TIP3   OH224268   0.113   1.170   3.347 -0.1218 -0.5049 -0.1399
  926TIP3    H124269   0.041   1.192   3.406 -0.4690  1.0117 -1.0644
  926TIP3    H224270   0.075   1.107   3.285  0.1037 -1.7078  0.9017
  927TIP3   OH224271   1.914   3.636  16.433  0.2570 -0.0524 -0.1085
  927TIP3    H124272   1.935   3.669  16.345  1.3417  0.5079  0.3334
  927TIP3    H224273   1.990   3.584  16.457 -0.3140 -0.7249  0.2561
  928TIP3   OH224274   6.762   4.285  16.124  0.5970 -0.4281 -0.0559
  928TIP3    H124275   6.742   4.356  16.184 -1.2646  0.5788 -1.7489
  928TIP3    H224276   6.857   4.293  16.108  0.3407  2.1208 -0.7013
  929TIP3   OH224277   5.728   2.781  15.764  0.1875 -0.7468  0.0800
  929TIP3    H124278   5.697   2.704  15.813  1.2170 -1.1231  0.1694
  929TIP3    H224279   5.677   2.854  15.800 -0.6266 -1.3450  0.1740
  930TIP3   OH224280   3.880   5.431   2.072 -0.3699  0.3956  0.1377
  930TIP3    H124281   3.875   5.512   2.021 -0.7999  1.2736  1.5215
  930TIP3    H224282   3.802   5.382   2.048 -1.0729  1.2404  0.6551
  931TIP3   OH224283   4.492   6.657  11.967 -0.4229  0.2733 -0.5079
  931TIP3    H124284   4.540   6.718  12.024 -2.7545  0.9825  0.8451
  931TIP3    H224285   4.500   6.572  12.010 -1.2670  0.6054  0.3508
  932TIP3   OH224286   5.074   1.437  14.067  0.1576  0.1163 -0.2621
  932TIP3    H124287   5.046   1.391  14.146  0.4984  0.7998  0.2647
  932TIP3    H224288   5.166   1.459  14.083  1.4586 -3.0479 -2.3965
  933TIP3   OH224289   3.688   5.245   0.257 -0.5187 -0.1780  0.0351
  933TIP3    H124290   3.696   5.215   0.167  2.1247 -2.3469  0.8566
  933TIP3    H224291   3.663   5.166   0.306  2.2582 -0.1678  1.6863
  934TIP3   OH224292   6.403   0.345  14.776 -0.1487 -0.0226  0.6531
  934TIP3    H124293   6.324   0.374  14.730  0.0764 -0.6245 -0.1295
  934TIP3    H224294   6.473   0.354  14.712  0.1033 -1.2577  0.7205
  935TIP3   OH224295   2.038   4.411  16.225 -0.1970 -0.1952  0.3549
  935TIP3    H124296   1.945   4.427  16.237 -0.4272 -0.9552 -0.3169
  935TIP3    H224297   2.047   4.316  16.228  0.6737 -0.1110  1.1568
  936TIP3   OH224298   2.392   4.018   2.172  0.5178 -0.1565 -0.1895
  936TIP3    H124299   2.450   4.060   2.237  0.5756 -0.5917  0.0455
  936TIP3    H224300   2.403   4.071   2.093 -0.4577  1.1021  0.4888
  937TIP3   OH224301   0.393   6.390  11.745 -0.0193  0.1285  0.2269
  937TIP3    H124302   0.394   6.366  11.652 -1.1274  0.5273  0.0881
  937TIP3    H224303   0.454   6.329  11.787  0.9790  0.3471 -0.8487
  938TIP3   OH224304   5.809   1.234  17.105  0.0901 -0.1147 -0.5214
  938TIP3    H124305   5.857   1.199  17.181  0.9661 -0.9550 -1.4379
  938TIP3    H224306   5.840   1.324  17.097 -0.3517  0.1357  0.3777
  939TIP3   OH224307   4.410   5.022   0.860 -0.2346  0.1733 -0.1123
  939TIP3    H124308   4.377   5.098   0.812  0.7053  0.7894  0.2045
  939TIP3    H224309   4.391   5.041   0.952  0.4101  0.2394  0.0103
  940TIP3   OH224310   5.662   0.240  13.667  0.1720  0.0218 -0.1683
  940TIP3    H124311   5.649   0.222  13.760 -0.0719  1.1788  0.0474
  940TIP3    H224312   5.747   0.201  13.647  0.2082 -0.2791  0.5346
  941TIP3   OH224313   3.566   6.517   3.654  0.3577 -0.0387  0.1730
  941TIP3    H124314   3.548   6.540   3.563 -1.4159  0.8650  0.6990
  941TIP3    H224315   3.651   6.556   3.672  0.1596  0.8574 -0.7429
  942TIP3   OH224316   2.395   5.428   5.960  0.1505  0.5011 -0.1160
  942TIP3    H124317   2.390   5.339   5.927  0.9117 -0.6226  2.5383
  942TIP3    H224318   2.373   5.483   5.885 -0.7940 -1.9082 -1.7066
  943TIP3   OH224319   6.120   1.046   2.572 -0.1780  0.1223  0.2152
  943TIP3    H124320   6.088   1.110   2.635  1.7723  0.5818  0.8181
  943TIP3    H224321   6.098   1.083   2.486 -0.5296  0.7797  0.5801
  944TIP3   OH224322   5.600   4.078   2.762  0.4866 -0.0923 -0.1979
  944TIP3    H124323   5.543   4.113   2.693 -0.9234  1.4012  1.6445
  944TIP3    H224324   5.675   4.042   2.714 -0.1567  1.3905 -2.4915
  945TIP3   OH224325   6.506   2.809  17.374  0.2061  0.4890 -0.2944
  945TIP3    H124326   6.535   2.831  17.286  0.7923  0.0419 -0.2155
  945TIP3    H224327   6.464   2.723  17.365 -0.6564  0.8920 -0.3117
  946TIP3   OH224328   5.616   2.444   6.166 -0.0390  0.0834  0.6056
  946TIP3    H124329   5.708   2.465   6.184 -0.1430  0.7752  0.3606
  946TIP3    H224330   5.568   2.522   6.193 -0.3539  0.5290 -1.1086
  947TIP3   OH224331   5.078   5.395   2.336 -0.6213 -0.2512  0.0501
  947TIP3    H124332   5.167   5.384   2.368 -0.9410 -1.6385  0.5687
  947TIP3    H224333   5.076   5.345   2.254  0.1244  3.0578 -2.1374
  948TIP3   OH224334   5.749   0.559   6.611  0.1338 -0.1147 -0.3784
  948TIP3    H124335   5.782   0.612   6.539  0.8340 -0.2479 -0.1600
  948TIP3    H224336   5.680   0.613   6.651 -0.2547 -0.0441 -1.1392
  949TIP3   OH224337   5.067   4.985   5.051  0.4937  0.0563  0.3635
  949TIP3    H124338   5.095   5.041   4.978 -0.2904 -0.5826 -0.4460
  949TIP3    H224339   5.142   4.984   5.111  1.2051  0.4775 -0.5011
  950TIP3   OH224340   0.250   3.993  14.882  0.2861 -0.1987  0.4725
  950TIP3    H124341   0.324   3.932  14.883  0.2242 -0.2779  0.2698
  950TIP3    H224342   0.229   4.003  14.789  1.6683  1.7910  0.3226
  951TIP3   OH224343   1.528   5.837   2.522  0.0058  0.4515 -0.1183
  951TIP3    H124344   1.615   5.803   2.541  1.0085  2.5171 -0.6946
  951TIP3    H224345   1.483   5.766   2.476  2.7170  0.5384 -3.2416
  952TIP3   OH224346   4.401   3.766  12.641  0.0153 -0.3658 -0.0256
  952TIP3    H124347   4.314   3.773  12.602  0.0548  0.7497  0.0425
  952TIP3    H224348   4.394   3.814  12.724  0.6297 -0.4548  0.0813
  953TIP3   OH224349   2.246   4.534  12.409 -0.2058 -0.2484  0.1544
  953TIP3    H124350   2.237   4.603  12.475  2.9063  1.9908 -1.4774
  953TIP3    H224351   2.324   4.485  12.436  0.7743  0.3418 -1.4184
  954TIP3   OH224352   4.969   2.261   0.248  0.7265 -0.3192  0.1384
  954TIP3    H124353   4.907   2.292   0.182  0.5833 -0.8394  0.0242
  954TIP3    H224354   4.988   2.339   0.301  0.1848 -0.0901  0.0066
  955TIP3   OH224355   2.940   2.659   6.703  0.0314 -0.2984  0.3978
  955TIP3    H124356   2.894   2.617   6.630  0.6872 -0.3352 -0.0051
  955TIP3    H224357   2.880   2.651   6.777  0.2028 -2.1694  0.3956
  956TIP3   OH224358   4.742   0.572  14.222  0.4432 -0.3925  0.0772
  956TIP3    H124359   4.670   0.630  14.246  1.3909  0.6373  0.4670
  956TIP3    H224360   4.705   0.484  14.233 -1.1511  0.1079 -0.9721
  957TIP3   OH224361   6.439   4.591   4.184 -0.4052 -0.4518  0.4606
  957TIP3    H124362   6.344   4.577   4.184 -0.1422 -2.3987  0.3726
  957TIP3    H224363   6.475   4.515   4.140  1.3511 -0.8191  2.3763
  958TIP3   OH224364   4.674   4.750  13.232  0.3356  0.0647  0.4987
  958TIP3    H124365   4.590   4.796  13.229  0.4020  0.2176  0.8675
  958TIP3    H224366   4.731   4.808  13.283  1.1977  0.8159 -1.2557
  959TIP3   OH224367   3.893   3.201  17.295  0.5729 -0.2390 -0.8582
  959TIP3    H124368   3.882   3.247  17.212  0.0028  1.3361  0.0523
  959TIP3    H224369   3.977   3.232  17.329  0.2238  0.0757 -0.2729
  960TIP3   OH224370   5.119   0.899   6.427  0.3190 -0.9920 -0.2613
  960TIP3    H124371   5.146   0.911   6.517 -1.9060 -1.2841  0.5164
  960TIP3    H224372   5.117   0.804   6.414 -0.8145 -1.0091 -0.0930
  961TIP3   OH224373   5.200   3.478   3.986 -0.0029 -0.5867 -0.4748
  961TIP3    H124374   5.243   3.470   4.072  0.7462 -1.2111 -0.8945
  961TIP3    H224375   5.213   3.392   3.945  1.4029  0.2903 -2.0019
  962TIP3   OH224376   1.820   0.338  15.409  0.0574 -0.5690 -0.6454
  962TIP3    H124377   1.898   0.302  15.451 -0.5424 -0.4851  0.5892
  962TIP3    H224378   1.797   0.415  15.462 -0.0107  0.3000 -1.8855
  963TIP3   OH224379   5.290   1.703   4.699 -0.2519 -0.2333  0.3661
  963TIP3    H124380   5.266   1.794   4.679 -1.2270 -0.4698  0.4572
  963TIP3    H224381   5.333   1.672   4.619  0.9685  0.5990  0.6650
  964TIP3   OH224382   3.565   6.509   3.391  0.5037 -0.4888  0.1106
  964TIP3    H124383   3.484   6.510   3.339  0.4601  0.7881  0.1686
  964TIP3    H224384   3.615   6.435   3.356  0.1245 -0.1516 -1.1994
  965TIP3   OH224385   1.235   6.092  11.782 -0.0755  0.1103  0.2906
  965TIP3    H124386   1.325   6.110  11.756 -0.1836 -0.2572 -0.3704
  965TIP3    H224387   1.206   6.171  11.827  0.2105  0.6719 -0.4905
  966TIP3   OH224388   0.855   0.885  12.663 -0.0593  0.5342 -0.0884
  966TIP3    H124389   0.853   0.936  12.744 -1.2065  0.3775  0.0058
  966TIP3    H224390   0.771   0.838  12.662 -0.5219  1.2926 -1.8365
  967TIP3   OH224391   2.413   4.110   4.627  0.5369 -0.6263  0.5230
  967TIP3    H124392   2.376   4.094   4.714  1.2076 -2.0644  0.5694
  967TIP3    H224393   2.496   4.062   4.627  0.7787 -0.2390 -0.7435
  968TIP3   OH224394   6.293   2.731   6.093 -0.1608  0.4180 -0.5877
  968TIP3    H124395   6.204   2.756   6.116  0.1702 -0.2849  1.8546
  968TIP3    H224396   6.339   2.814   6.079 -0.4972  0.9752  1.2990
  969TIP3   OH224397   2.791   2.791   1.677 -0.6949  0.2531  0.0125
  969TIP3    H124398   2.737   2.746   1.613  1.1829 -1.4355 -0.4790
  969TIP3    H224399   2.741   2.786   1.759 -1.3264 -1.1270 -0.4424
  970TIP3   OH224400   4.209   5.317  15.169 -0.0302 -0.2931 -0.3480
  970TIP3    H124401   4.128   5.292  15.212 -0.3470 -0.7754 -1.2053
  970TIP3    H224402   4.187   5.324  15.077  0.6014  0.8860 -0.4291
  971TIP3   OH224403   2.740   5.479   1.011 -0.1251 -0.4256 -0.4788
  971TIP3    H124404   2.657   5.526   1.004 -0.5079 -1.2757 -2.1124
  971TIP3    H224405   2.796   5.538   1.062 -2.2328 -0.6224  2.3077
  972TIP3   OH224406   5.589   3.446   4.728  0.8056  0.3739  0.0171
  972TIP3    H124407   5.542   3.372   4.690  0.7636  1.7814 -3.0002
  972TIP3    H224408   5.545   3.463   4.811 -1.5077 -0.7605 -0.9019
  973TIP3   OH224409   6.713   4.794  15.832  0.2664  0.0671 -0.1356
  973TIP3    H124410   6.695   4.717  15.885 -1.3568 -0.5489 -1.4964
  973TIP3    H224411   6.679   4.772  15.745 -1.3409  2.7281 -0.2807
  974TIP3   OH224412   3.806   0.328  16.075  0.5467  0.4162 -0.3434
  974TIP3    H124413   3.895   0.294  16.067  0.8113  1.2484 -1.1162
  974TIP3    H224414   3.812   0.419  16.045 -0.9464 -0.1084 -2.4594
  975TIP3   OH224415   3.775   6.577   1.804 -0.3343 -0.2326  0.4777
  975TIP3    H124416   3.734   6.536   1.880 -0.8647  1.2934  1.0597
  975TIP3    H224417   3.778   6.509   1.737 -3.0078 -0.6638  0.7143
  976TIP3   OH224418   1.155   3.435   0.704  0.3907 -0.0247  0.4888
  976TIP3    H124419   1.198   3.514   0.736  1.3660 -0.7314  0.9790
  976TIP3    H224420   1.143   3.381   0.781 -3.7457  1.1176  0.8802
  977TIP3   OH224421   6.738   2.321  16.016 -0.1157  0.0443  0.1192
  977TIP3    H124422   6.646   2.298  16.031  0.7215 -3.5841  0.5373
  977TIP3    H224423   6.775   2.332  16.103 -0.0644  1.3973 -0.0478
  978TIP3   OH224424   6.419   3.895   1.238  0.2607 -0.0791 -0.5225
  978TIP3    H124425   6.511   3.884   1.213  0.2925 -1.2932  0.0126
  978TIP3    H224426   6.375   3.817   1.203 -0.0874 -0.7291  1.2356
  979TIP3   OH224427   0.355   0.336  15.773  0.2588  0.5937 -0.1910
  979TIP3    H124428   0.359   0.244  15.747  1.5454  0.1443  1.4229
  979TIP3    H224429   0.408   0.381  15.708  1.7898 -0.2234  0.4072
  980TIP3   OH224430   4.931   5.795   1.053  0.3540 -0.4749 -0.1419
  980TIP3    H124431   4.898   5.748   1.130 -1.0840 -1.8418 -1.5222
  980TIP3    H224432   4.972   5.727   1.000  0.5831  0.3005 -0.9723
  981TIP3   OH224433   5.569   0.025  12.576  0.8712 -0.4447  0.3264
  981TIP3    H124434   5.637  -0.019  12.627  2.5321 -0.6510 -1.8903
  981TIP3    H224435   5.598   0.016  12.485 -1.8841 -0.0357 -0.6859
  982TIP3   OH224436   2.823   4.828  16.581 -0.0523 -0.3923 -0.4196
  982TIP3    H124437   2.749   4.769  16.593 -1.3440  1.0889 -0.7750
  982TIP3    H224438   2.889   4.775  16.536 -1.0428 -1.6286 -0.4580
  983TIP3   OH224439   5.146   1.887   0.458 -0.4675  0.6046 -0.1981
  983TIP3    H124440   5.154   1.982   0.453 -1.1240  0.8027  1.6562
  983TIP3    H224441   5.140   1.869   0.552  0.2908 -1.3359 -0.4766
  984TIP3   OH224442   2.956   1.687  16.994  0.0114 -1.1403  0.3640
  984TIP3    H124443   3.049   1.707  16.994 -0.1065 -0.5829  0.5852
  984TIP3    H224444   2.933   1.681  16.901  0.0693 -0.3124  0.2895
  985TIP3   OH224445   3.183   2.757  12.187 -0.1172 -0.2655 -0.3008
  985TIP3    H124446   3.256   2.724  12.134  0.8504  1.0117  0.1938
  985TIP3    H224447   3.205   2.849  12.204 -1.6993  0.0681  0.1189
  986TIP3   OH224448   5.675   2.720  15.234 -0.2623 -0.2313  0.3389
  986TIP3    H124449   5.687   2.733  15.328 -0.1848 -0.1733  0.3213
  986TIP3    H224450   5.718   2.637  15.215 -1.7597 -1.1134  0.6635
  987TIP3   OH224451   2.422   5.271  16.439  0.0866  0.3141 -0.0873
  987TIP3    H124452   2.466   5.266  16.524  1.1873 -0.8659 -0.6937
  987TIP3    H224453   2.350   5.332  16.453  0.0719 -0.0682  1.7734
  988TIP3   OH224454   1.926   1.606  10.572  0.4799 -0.4152 -0.2031
  988TIP3    H124455   1.853   1.637  10.625  0.3697 -0.9330 -0.0451
  988TIP3    H224456   1.910   1.512  10.561  0.2557 -0.2458 -1.5419
  989TIP3   OH224457   0.714   1.365  14.066 -0.6846 -0.0289 -0.1658
  989TIP3    H124458   0.660   1.295  14.101 -0.5277  0.2983  0.7709
  989TIP3    H224459   0.773   1.388  14.138  0.3834 -0.0611 -1.0053
  990TIP3   OH224460   3.406   2.827  12.823  0.0021 -0.0188 -0.3354
  990TIP3    H124461   3.314   2.849  12.814  0.1087  0.4766 -0.2354
  990TIP3    H224462   3.451   2.886  12.763  0.4522  1.3146  1.2249
  991TIP3   OH224463   5.015   3.275  16.025 -0.0739 -0.2366  0.0965
  991TIP3    H124464   4.948   3.268  16.093  1.0923 -1.7150  1.1419
  991TIP3    H224465   5.085   3.326  16.065 -0.3204  0.8820 -0.8262
  992TIP3   OH224466   5.873   0.523   2.840 -0.1686 -0.2075  0.3846
  992TIP3    H124467   5.844   0.533   2.750 -0.0384  2.4829  0.5531
  992TIP3    H224468   5.802   0.474   2.883 -2.1278  1.7841 -0.3696
  993TIP3   OH224469   6.267   5.457   0.704  0.2744 -0.0482  0.0373
  993TIP3    H124470   6.303   5.535   0.662  0.8893 -0.3167  0.0439
  993TIP3    H224471   6.314   5.451   0.787  0.1995 -0.3981  0.0572
  994TIP3   OH224472   4.516   3.857  13.966  0.1249  0.2491  0.4654
  994TIP3    H124473   4.437   3.901  13.998 -0.2091 -0.1569  0.2123
  994TIP3    H224474   4.587   3.918  13.986 -0.2961  0.7716  0.3939
  995TIP3   OH224475   4.134   0.741   2.099  0.1578 -0.1279 -0.0328
  995TIP3    H124476   4.152   0.678   2.029 -3.1217 -1.0340 -0.2217
  995TIP3    H224477   4.165   0.825   2.065  1.1388 -0.9929 -1.3838
  996TIP3   OH224478   0.876   1.402  14.301 -0.8326  0.9027  0.0324
  996TIP3    H124479   0.934   1.477  14.311 -0.5246  0.5248  1.2241
  996TIP3    H224480   0.887   1.352  14.382  1.0088 -1.8807 -1.7489
  997TIP3   OH224481   4.651   0.290   6.004 -0.7013 -0.3446 -0.7176
  997TIP3    H124482   4.645   0.203   6.042 -0.3930 -0.0686 -0.0179
  997TIP3    H224483   4.567   0.303   5.959 -1.6837 -0.1259  1.0917
  998TIP3   OH224484   2.269   2.534  13.137 -0.1651  0.0918  0.2252
  998TIP3    H124485   2.239   2.557  13.049 -0.7980  0.9333  0.6514
  998TIP3    H224486   2.349   2.586  13.150 -0.6271  0.7396  0.5206
  999TIP3   OH224487   2.568   6.255   3.729 -0.1293  0.4194  0.2445
  999TIP3    H124488   2.580   6.169   3.769  0.9474  0.3270 -0.2583
  999TIP3    H224489   2.602   6.246   3.640 -1.6483  0.8858 -0.4237
 1000TIP3   OH224490   3.238   6.342   4.763 -0.5066 -0.3014  1.0025
 1000TIP3    H124491   3.146   6.344   4.789 -0.6055  1.0998  0.5978
 1000TIP3    H224492   3.286   6.376   4.838 -0.6256  1.9026  0.1562
 1001TIP3   OH224493   4.746   5.280  13.657 -0.1239 -0.2254  0.3646
 1001TIP3    H124494   4.664   5.309  13.618  0.2354  0.2502 -0.0420
 1001TIP3    H224495   4.754   5.188  13.631  0.1132  0.0823 -0.6985
 1002TIP3   OH224496   3.725   2.358  12.838  0.2634  0.5702  0.2304
 1002TIP3    H124497   3.820   2.344  12.836  0.2935  0.8133 -0.5185
 1002TIP3    H224498   3.692   2.310  12.762 -0.1124  1.1308  0.0279
 1003TIP3   OH224499   4.072   6.646   1.105 -0.0630 -0.0926 -0.3362
 1003TIP3    H124500   4.145   6.662   1.165 -0.1259  0.0709 -0.3022
 1003TIP3    H224501   4.012   6.591   1.155 -0.9267  1.4503  0.3781
 1004TIP3   OH224502   2.602   2.349   5.290 -0.3994 -0.3263 -0.3304
 1004TIP3    H124503   2.597   2.310   5.377 -1.4012  0.7849  0.1367
 1004TIP3    H224504   2.531   2.413   5.288 -0.1622 -0.0629 -1.8397
 1005TIP3   OH224505   4.944   1.326   1.238  0.1546  0.1862 -0.2214
 1005TIP3    H124506   4.915   1.337   1.328  1.4987 -0.3181  0.3049
 1005TIP3    H224507   4.963   1.415   1.207  0.3731  0.2996  0.2387
 1006TIP3   OH224508   5.867   0.286   0.440  0.3297  0.2297 -0.9990
 1006TIP3    H124509   5.847   0.205   0.487  0.6539  0.0848 -1.1089
 1006TIP3    H224510   5.821   0.277   0.356  1.4654 -0.4492 -1.5738
 1007TIP3   OH224511   5.430   4.853  13.530  0.0984 -0.5785  0.2660
 1007TIP3    H124512   5.353   4.875  13.478 -0.2252  0.9224  1.3262
 1007TIP3    H224513   5.403   4.868  13.620  1.2455 -1.2700  0.7446
 1008TIP3   OH224514   4.579   5.038  14.373  0.0528 -0.5922 -0.1397
 1008TIP3    H124515   4.497   5.083  14.395 -0.3371 -0.5245 -1.6226
 1008TIP3    H224516   4.603   5.072  14.287  1.0882 -1.3939 -0.1928
 1009TIP3   OH224517   3.612   4.934   0.729  0.4318 -0.3921 -0.0896
 1009TIP3    H124518   3.552   4.995   0.688  0.1199 -0.7723 -0.2090
 1009TIP3    H224519   3.596   4.851   0.684  0.6556 -0.6234  0.2512
 1010TIP3   OH224520   1.131   0.591  15.039  0.3729  0.4906 -0.3829
 1010TIP3    H124521   1.063   0.525  15.055 -1.0798  1.0284 -3.4606
 1010TIP3    H224522   1.211   0.540  15.027  0.2851 -0.2734  1.8950
 1011TIP3   OH224523   6.606   0.212   4.718  0.2341 -0.4488 -0.3144
 1011TIP3    H124524   6.525   0.192   4.765  0.1360 -0.8457 -0.6486
 1011TIP3    H224525   6.664   0.139   4.741  0.8273  0.2970  0.6746
 1012TIP3   OH224526   1.245   1.639   4.956  0.4649  0.3851 -0.0985
 1012TIP3    H124527   1.158   1.677   4.969  1.5543  3.4045 -1.0229
 1012TIP3    H224528   1.266   1.655   4.864  2.7555  1.5001  0.5495
 1013TIP3   OH224529   2.897   5.623  14.478 -0.2156  0.1333  0.1674
 1013TIP3    H124530   2.889   5.553  14.412 -0.0403  0.4947 -0.2395
 1013TIP3    H224531   2.911   5.576  14.560  0.5926 -0.2962 -0.2094
 1014TIP3   OH224532   0.964   0.418   0.368  0.2768  0.1747  0.0126
 1014TIP3    H124533   0.974   0.421   0.463 -0.2737  1.1564  0.0519
 1014TIP3    H224534   0.878   0.457   0.352  0.1479 -0.4436 -0.8613
 1015TIP3   OH224535   5.876   3.296  17.247 -0.4846  0.0619 -0.4875
 1015TIP3    H124536   5.792   3.280  17.204 -1.1528 -1.2144  1.1834
 1015TIP3    H224537   5.878   3.234  17.321  0.9899  1.5190  0.7771
 1016TIP3   OH224538   1.717   4.031   2.920  0.1087  0.1439  0.1570
 1016TIP3    H124539   1.658   4.034   2.995  1.9199  0.5904  1.6407
 1016TIP3    H224540   1.756   3.944   2.924  1.3889  0.7198  0.7236
 1017TIP3   OH224541   6.240   4.859  16.034 -0.5610 -0.2565 -0.3171
 1017TIP3    H124542   6.254   4.865  15.940  2.2097  0.1876  0.0514
 1017TIP3    H224543   6.290   4.782  16.061  0.8200  1.0513  1.0717
 1018TIP3   OH224544   6.595   1.104  13.497  0.8285  0.7051 -0.1484
 1018TIP3    H124545   6.673   1.091  13.551 -0.1095 -0.6360  0.9664
 1018TIP3    H224546   6.604   1.043  13.424  1.8592  2.1608 -1.2812
 1019TIP3   OH224547   5.095   5.861  17.037 -0.0005  0.6284 -0.0212
 1019TIP3    H124548   5.131   5.783  17.077 -2.8475 -1.4391 -1.1656
 1019TIP3    H224549   5.109   5.848  16.943 -1.2335  1.0755 -0.2793
 1020TIP3   OH224550   3.932   4.540  14.395  0.2800  0.4532 -0.3804
 1020TIP3    H124551   3.957   4.618  14.345  1.1900  1.7640  1.9454
 1020TIP3    H224552   3.966   4.556  14.483  0.5041 -2.6143  0.2030
 1021TIP3   OH224553   2.892   6.385   3.371  0.4241  0.5528  0.4283
 1021TIP3    H124554   2.811   6.434   3.360 -0.2189 -0.9315 -2.4239
 1021TIP3    H224555   2.939   6.432   3.440 -1.7818  2.8686  0.5146
 1022TIP3   OH224556   0.994   1.780  15.815  0.5021 -0.1678  0.3990
 1022TIP3    H124557   1.026   1.691  15.834 -1.0274 -0.4413  1.9000
 1022TIP3    H224558   0.931   1.798  15.884 -0.3490  1.5144 -0.7550
 1023TIP3   OH224559   4.973   3.967  11.811  0.1063 -0.3567 -0.6514
 1023TIP3    H124560   4.999   4.006  11.895  2.0857 -1.3318 -0.7337
 1023TIP3    H224561   4.882   3.941  11.823  0.1504  0.1416  0.9634
 1024TIP3   OH224562   0.262   3.467   4.222 -0.1185  1.0601  0.0722
 1024TIP3    H124563   0.215   3.389   4.252 -0.7647  0.9476 -1.2003
 1024TIP3    H224564   0.313   3.437   4.147 -0.2516  1.8166 -0.3295
 1025TIP3   OH224565   5.048   2.431  14.717 -0.2187 -0.2990  0.3882
 1025TIP3    H124566   5.137   2.416  14.686  0.0626  2.1383 -0.2058
 1025TIP3    H224567   4.999   2.455  14.639 -1.0752 -0.2941  0.9134
 1026TIP3   OH224568   0.924   5.730   2.485  0.2015  0.5818  0.2508
 1026TIP3    H124569   0.892   5.689   2.405 -0.7603 -1.5591  1.6241
 1026TIP3    H224570   0.857   5.711   2.550  0.4658  3.1480  1.3676
 1027TIP3   OH224571   0.554   3.214   4.809 -0.0748  0.0577  0.2401
 1027TIP3    H124572   0.605   3.241   4.733 -0.8688  0.4591 -0.1703
 1027TIP3    H224573   0.528   3.296   4.851 -0.1931 -0.1444  0.5690
 1028TIP3   OH224574   2.423   6.071  12.206  0.5591 -0.2420  0.1725
 1028TIP3    H124575   2.434   6.158  12.243  0.1110 -0.3885  0.6666
 1028TIP3    H224576   2.331   6.049  12.223  0.0373  0.0877 -1.9050
 1029TIP3   OH224577   0.474   2.634  11.405 -0.1174  0.9417 -0.2419
 1029TIP3    H124578   0.398   2.617  11.460  1.6854  0.6158  2.3236
 1029TIP3    H224579   0.478   2.558  11.346 -1.2058  0.4668  0.2751
 1030TIP3   OH224580   0.876   5.487  15.628 -0.1044 -0.2961  0.4398
 1030TIP3    H124581   0.929   5.521  15.557 -0.9910  0.2540  0.0226
 1030TIP3    H224582   0.792   5.533  15.619 -1.1661 -2.2066  0.1827
 1031TIP3   OH224583   0.272   3.240  11.406 -0.0116  0.8153 -0.3292
 1031TIP3    H124584   0.279   3.199  11.492 -1.9891  0.1720 -0.4234
 1031TIP3    H224585   0.321   3.181  11.348 -0.8853 -0.1840 -0.0717
 1032TIP3   OH224586   6.518   3.559  11.018 -0.4361  0.1128  0.0560
 1032TIP3    H124587   6.513   3.650  10.992 -0.2710 -0.1711 -1.0017
 1032TIP3    H224588   6.555   3.514  10.942 -0.3588 -0.8050  0.6233
 1033TIP3   OH224589   3.358   3.575   5.003  0.0821  0.3737 -0.0142
 1033TIP3    H124590   3.281   3.609   4.958 -0.2980 -0.8154 -0.2934
 1033TIP3    H224591   3.422   3.560   4.934 -0.1184 -0.4306 -0.0369
 1034TIP3   OH224592   1.522   3.799   0.249 -0.2180  0.1712  0.0071
 1034TIP3    H124593   1.586   3.868   0.268 -0.4956  0.7772 -1.1393
 1034TIP3    H224594   1.442   3.846   0.229 -0.2082 -0.4339 -1.5792
 1035TIP3   OH224595   5.976   6.512   4.850  0.1028 -0.6948  0.0224
 1035TIP3    H124596   6.061   6.553   4.869  0.2802 -0.6256 -0.8635
 1035TIP3    H224597   5.911   6.574   4.881  0.3645 -1.1653  1.5794
 1036TIP3   OH224598   3.005   0.735   5.567  0.0230  0.2860  0.3243
 1036TIP3    H124599   2.989   0.640   5.568 -1.4212  0.4891 -0.6577
 1036TIP3    H224600   3.091   0.745   5.608  0.8205 -1.5752 -0.7711
 1037TIP3   OH224601   2.192   0.416   6.295  0.0832 -0.5138 -0.4846
 1037TIP3    H124602   2.199   0.504   6.257  0.2962 -1.0343 -1.7103
 1037TIP3    H224603   2.135   0.428   6.372 -0.5220  0.5699 -1.0659
 1038TIP3   OH224604   1.881   0.900   4.070 -0.4582 -0.1644 -0.0210
 1038TIP3    H124605   1.880   0.975   4.011 -0.9453 -0.0871  0.0804
 1038TIP3    H224606   1.898   0.938   4.157 -2.0381  0.0000  0.2446
 1039TIP3   OH224607   4.224   4.559  14.698  0.2475  0.6276  0.8066
 1039TIP3    H124608   4.284   4.621  14.738  1.0518  0.7929 -0.5982
 1039TIP3    H224609   4.214   4.590  14.608  0.1185 -0.8944  0.2771
 1040TIP3   OH224610   5.350   2.680   1.021 -0.8867  0.2190  0.2137
 1040TIP3    H124611   5.373   2.759   1.070 -0.2696  0.6451 -0.7517
 1040TIP3    H224612   5.428   2.658   0.971 -1.9846  0.6975 -1.8058
 1041TIP3   OH224613   2.322   3.833  11.061  0.9455  0.3960  0.2699
 1041TIP3    H124614   2.242   3.887  11.064 -0.4760 -1.5890  0.4283
 1041TIP3    H224615   2.350   3.828  11.152  0.2552 -0.2309  0.4642
 1042TIP3   OH224616   1.196   2.859   5.255  0.4063 -0.6131  1.0082
 1042TIP3    H124617   1.188   2.834   5.347  0.0013 -0.1128  1.1165
 1042TIP3    H224618   1.286   2.837   5.232  1.4396  1.7854  2.3203
 1043TIP3   OH224619   3.602   1.400  15.624  0.1407  0.1132 -0.3527
 1043TIP3    H124620   3.567   1.489  15.623  0.9038  0.4346  0.2696
 1043TIP3    H224621   3.685   1.408  15.671 -0.1840 -1.0787  0.4697
 1044TIP3   OH224622   3.546   2.659  17.306  0.4572 -0.6663  0.4791
 1044TIP3    H124623   3.507   2.725  17.249  1.2921  1.1389  1.8843
 1044TIP3    H224624   3.571   2.589  17.247 -1.7355 -0.3971 -0.9059
 1045TIP3   OH224625   5.518   0.130  17.278 -0.2624  0.4262  0.2145
 1045TIP3    H124626   5.551   0.217  17.297  1.8183 -0.3687  0.5040
 1045TIP3    H224627   5.479   0.100  17.361 -0.3081  0.7939  0.3252
 1046TIP3   OH224628   2.823   3.672  17.321  0.3275 -0.0593  0.0202
 1046TIP3    H124629   2.802   3.756  17.363  1.0750 -0.2478  0.7767
 1046TIP3    H224630   2.752   3.613  17.348  0.1851  0.1303  0.0640
 1047TIP3   OH224631   3.076   6.213   0.548 -0.2993 -0.1426  0.1274
 1047TIP3    H124632   3.038   6.184   0.464  0.3959 -1.3812  0.2172
 1047TIP3    H224633   3.125   6.292   0.526  0.1568 -0.6429 -0.7133
 1048TIP3   OH224634   4.837   2.601   2.140 -0.0892  0.4848 -0.4270
 1048TIP3    H124635   4.748   2.608   2.175  0.1276  3.3413 -0.2632
 1048TIP3    H224636   4.874   2.526   2.187 -2.5261 -1.1739 -0.9283
 1049TIP3   OH224637   2.417   2.780   2.747  0.4568 -0.5898  0.3311
 1049TIP3    H124638   2.460   2.859   2.714  1.5246 -0.6777  1.4069
 1049TIP3    H224639   2.445   2.775   2.839 -0.6963 -1.4801  0.6589
 1050TIP3   OH224640   0.622   2.975  16.590 -0.4621  0.0983  0.3219
 1050TIP3    H124641   0.674   2.916  16.534 -0.6086  1.0638 -0.8749
 1050TIP3    H224642   0.564   3.020  16.529 -1.8714 -0.0635  1.4879
 1051TIP3   OH224643   3.748   2.324   4.276 -0.0071 -0.0418 -0.5498
 1051TIP3    H124644   3.786   2.331   4.363  0.5457 -1.8657 -0.6046
 1051TIP3    H224645   3.757   2.412   4.239 -0.9648  0.9699  1.4728
 1052TIP3   OH224646   5.005   1.996   3.756  0.2072 -0.1689 -0.4150
 1052TIP3    H124647   4.919   2.035   3.740 -0.0258 -0.5598 -0.1417
 1052TIP3    H224648   5.059   2.025   3.683 -0.4150 -0.6722 -1.0838
 1053TIP3   OH224649   6.436   1.576   0.585 -0.4462  1.0618 -0.3156
 1053TIP3    H124650   6.496   1.562   0.511 -0.4463 -0.4419 -0.0565
 1053TIP3    H224651   6.351   1.550   0.552 -0.6999  1.7550 -0.2161
 1054TIP3   OH224652   0.032   4.955  12.271  0.1044  0.3856 -0.0767
 1054TIP3    H124653   0.057   5.013  12.198 -3.4543  2.0050 -0.1872
 1054TIP3    H224654   0.002   5.014  12.340  0.7214 -1.2322  1.6605
 1055TIP3   OH224655   6.756   1.998   1.439 -0.0663 -0.3467 -0.0978
 1055TIP3    H124656   6.666   1.998   1.406 -0.1823 -0.2177  0.2137
 1055TIP3    H224657   6.799   1.926   1.392 -0.2214 -0.1549 -0.5416
 1056TIP3   OH224658   1.991   1.817  17.518 -0.3292 -0.0252  0.1717
 1056TIP3    H124659   1.943   1.751  17.568  2.3778 -0.9302  1.7821
 1056TIP3    H224660   2.014   1.773  17.436  0.4071 -0.7016  0.7240
 1057TIP3   OH224661   5.878   4.686  16.570  0.3473  0.1738  0.1656
 1057TIP3    H124662   5.841   4.607  16.609  0.7604 -0.8517 -1.4089
 1057TIP3    H224663   5.960   4.701  16.617 -0.5970  0.7559  1.6920
 1058TIP3   OH224664   5.875   6.007   2.416  0.0256 -0.0512 -0.1784
 1058TIP3    H124665   5.965   5.976   2.403  1.3934  2.4041  2.5045
 1058TIP3    H224666   5.846   5.965   2.497  0.2798  2.1213  1.1005
 1059TIP3   OH224667   3.341   4.154   3.478 -0.9159 -0.0527 -0.3790
 1059TIP3    H124668   3.370   4.088   3.541 -0.1723 -0.0120 -0.6658
 1059TIP3    H224669   3.283   4.211   3.529 -1.4762 -0.8470 -0.1031
 1060TIP3   OH224670   6.067   4.453  13.133 -0.1938  0.6409 -0.0457
 1060TIP3    H124671   6.025   4.527  13.177  0.2239  2.0582 -1.8926
 1060TIP3    H224672   6.146   4.490  13.095  2.6286 -1.8178  2.8817
 1061TIP3   OH224673   4.552   6.286   4.538  0.2209  0.2172  0.6310
 1061TIP3    H124674   4.548   6.191   4.539 -0.0576  0.2216 -0.0131
 1061TIP3    H224675   4.461   6.315   4.539  0.2931  0.5096  2.4524
 1062TIP3   OH224676   2.953   3.875   4.852 -0.1793 -0.2500  0.0476
 1062TIP3    H124677   2.978   3.958   4.812 -0.7762  0.5685  1.2884
 1062TIP3    H224678   2.876   3.847   4.804  1.1012 -1.0673 -1.6026
 1063TIP3   OH224679   3.670   3.285   0.817 -0.0422  0.0840 -0.4267
 1063TIP3    H124680   3.576   3.296   0.831 -0.0453  1.2274 -1.2792
 1063TIP3    H224681   3.705   3.265   0.904 -1.1025 -0.7075 -0.1545
 1064TIP3   OH224682   2.149   6.204  12.762 -0.3036  0.1953  0.1860
 1064TIP3    H124683   2.205   6.266  12.715 -0.1231  0.7704  1.1302
 1064TIP3    H224684   2.208   6.134  12.788 -0.2152  0.3241  0.3367
 1065TIP3   OH224685   0.640   1.635   0.064 -0.4012 -0.4081  0.0833
 1065TIP3    H124686   0.558   1.640   0.016 -0.2936  0.2560 -0.0458
 1065TIP3    H224687   0.704   1.605  -0.001 -0.2642  0.4504 -0.1928
 1066TIP3   OH224688   1.437   6.658  13.154 -0.1566  0.7129  0.1571
 1066TIP3    H124689   1.497   6.715  13.106 -0.2892  0.1896 -0.6583
 1066TIP3    H224690   1.426   6.582  13.097 -2.6376  1.3725 -0.3317
 1067TIP3   OH224691   4.056   0.238  16.004  0.0782  0.0369  0.1762
 1067TIP3    H124692   4.144   0.267  16.028 -0.4175  0.4359  1.6617
 1067TIP3    H224693   4.053   0.146  16.032 -0.3149  0.3360  1.1465
 1068TIP3   OH224694   3.858   1.104   5.861  0.1558  0.2395  0.3145
 1068TIP3    H124695   3.800   1.126   5.788  0.2520 -1.0035 -0.1610
 1068TIP3    H224696   3.946   1.124   5.829  0.2684 -1.0311 -0.2212
 1069TIP3   OH224697   0.627   1.423  14.519  0.0757 -0.0730 -0.6407
 1069TIP3    H124698   0.600   1.514  14.531  0.9113  0.0218  0.6889
 1069TIP3    H224699   0.698   1.428  14.455  1.1335  0.3970  0.5492
 1070TIP3   OH224700   6.331   0.622   1.739 -0.2086 -0.1180  0.5156
 1070TIP3    H124701   6.373   0.659   1.816  0.9969  0.3309 -0.3395
 1070TIP3    H224702   6.298   0.537   1.768 -0.6120  0.4392  1.7637
 1071TIP3   OH224703   0.902   1.370   2.576 -0.4530 -0.4854 -0.1818
 1071TIP3    H124704   0.988   1.410   2.563  0.2780 -2.6075 -2.8053
 1071TIP3    H224705   0.878   1.394   2.665  1.7865  2.0985 -0.1505
 1072TIP3   OH224706   6.162   6.244   5.559  0.4446  0.2007  0.1645
 1072TIP3    H124707   6.189   6.175   5.499  0.9514  0.3336  0.2379
 1072TIP3    H224708   6.098   6.202   5.616  0.5213 -0.1278  0.0117
 1073TIP3   OH224709   5.216   5.918   1.382  0.1540 -0.3454  0.5065
 1073TIP3    H124710   5.139   5.963   1.347 -0.5655 -2.3370 -0.6143
 1073TIP3    H224711   5.288   5.978   1.364 -1.0370  1.4381  1.3067
 1074TIP3   OH224712   4.117   4.320  11.705 -0.0724 -0.4141  0.5469
 1074TIP3    H124713   4.048   4.370  11.748  0.1096 -0.9246  1.4627
 1074TIP3    H224714   4.074   4.277  11.631 -0.4371  0.3075  0.3268
 1075TIP3   OH224715   1.890   0.472   1.307  0.2946  0.7708 -0.1736
 1075TIP3    H124716   1.802   0.490   1.340  0.4997  1.0463  0.2332
 1075TIP3    H224717   1.934   0.427   1.379  1.1230  2.4204  0.4161
 1076TIP3   OH224718   2.741   1.185  11.158  0.1751  0.6630 -0.2312
 1076TIP3    H124719   2.807   1.240  11.201  0.6565  0.9186 -1.2711
 1076TIP3    H224720   2.679   1.248  11.120  0.5038  0.4832 -1.0809
 1077TIP3   OH224721   2.898   4.017   0.672 -0.1169  0.3932 -0.2733
 1077TIP3    H124722   2.961   4.059   0.731 -0.1216 -1.3058  1.0220
 1077TIP3    H224723   2.813   4.056   0.696  0.0644  0.6904 -0.1118
 1078TIP3   OH224724   4.033   5.621  12.639 -0.0645 -0.0451  0.2891
 1078TIP3    H124725   3.978   5.631  12.561  0.8288  2.3765 -0.0951
 1078TIP3    H224726   4.104   5.564  12.611  1.1776  2.1288 -1.2728
 1079TIP3   OH224727   5.855   0.893   0.773 -0.3164  0.3429  0.7259
 1079TIP3    H124728   5.829   0.898   0.681  1.0532  0.2043  0.3082
 1079TIP3    H224729   5.773   0.898   0.822 -1.0606  0.4291 -0.5014
 1080TIP3   OH224730   1.222   5.357   3.038  0.2698  0.2020  0.3257
 1080TIP3    H124731   1.175   5.275   3.021  0.6030  0.0102  0.3264
 1080TIP3    H224732   1.313   5.331   3.050  0.6495  0.7265 -1.2051
 1081TIP3   OH224733   2.648   0.719  16.186 -0.1795 -0.3014  0.3302
 1081TIP3    H124734   2.615   0.788  16.245 -3.2017 -1.0164 -0.3737
 1081TIP3    H224735   2.664   0.764  16.104 -1.0402 -0.1949  0.2088
 1082TIP3   OH224736   6.611   4.792  12.374  0.1924 -0.1711 -0.0916
 1082TIP3    H124737   6.541   4.831  12.322 -0.9902 -1.4225  0.4815
 1082TIP3    H224738   6.692   4.820  12.332 -0.6281  1.7476 -0.4785
 1083TIP3   OH224739   0.847   3.979   1.791  0.2230 -0.1424  0.0312
 1083TIP3    H124740   0.933   3.973   1.749  0.7348  1.0396  0.8681
 1083TIP3    H224741   0.787   3.942   1.726  1.7008 -4.4834  0.7985
 1084TIP3   OH224742   3.330   5.102   0.237  0.0692  0.1835  0.1823
 1084TIP3    H124743   3.404   5.134   0.186 -0.1236  0.1944 -0.0940
 1084TIP3    H224744   3.274   5.058   0.173 -0.5854  0.9179  0.2320
 1085TIP3   OH224745   3.682   1.244  16.856 -0.0638 -0.1404  0.2660
 1085TIP3    H124746   3.682   1.203  16.942  0.5250 -0.8980 -0.0883
 1085TIP3    H224747   3.677   1.171  16.794  1.8699  0.2244 -0.3931
 1086TIP3   OH224748   2.124   3.239  11.563 -0.8726 -0.3758 -0.7719
 1086TIP3    H124749   2.160   3.179  11.628 -0.8219 -1.4123 -1.7289
 1086TIP3    H224750   2.137   3.326  11.601 -0.1327 -0.9090  0.2454
 1087TIP3   OH224751   3.173   4.690   0.411 -0.6533  0.5011 -0.6036
 1087TIP3    H124752   3.098   4.631   0.405 -2.3703  2.6865 -2.0795
 1087TIP3    H224753   3.136   4.778   0.401  1.8320  1.8653  1.0171
 1088TIP3   OH224754   5.191   2.098   4.872  0.2624  0.5906  0.1206
 1088TIP3    H124755   5.114   2.150   4.847  0.5241  0.8939 -0.0567
 1088TIP3    H224756   5.203   2.038   4.799 -0.8570 -0.6630  0.9185
 1089TIP3   OH224757   0.145   5.061  15.241 -0.2183  0.3312  0.0737
 1089TIP3    H124758   0.106   5.010  15.171 -2.2495 -0.7689  1.9110
 1089TIP3    H224759   0.097   5.144  15.240  0.5248  0.7708 -0.5091
 1090TIP3   OH224760   1.813   2.568  13.392  0.0378 -0.4733  0.4282
 1090TIP3    H124761   1.801   2.509  13.466  0.9434 -0.9479  0.2145
 1090TIP3    H224762   1.778   2.519  13.317 -0.8416 -0.0103  0.5238
 1091TIP3   OH224763   2.304   3.541   4.987  0.4863 -0.2031  0.4610
 1091TIP3    H124764   2.277   3.616   5.039 -2.4770 -0.7226 -0.1343
 1091TIP3    H224765   2.316   3.471   5.051 -1.5286 -0.4105  0.6882
 1092TIP3   OH224766   5.168   2.732   1.769 -0.0412 -0.2742 -0.1355
 1092TIP3    H124767   5.232   2.668   1.739  0.0628  0.1468 -0.8173
 1092TIP3    H224768   5.150   2.707   1.860  2.5006  0.7145  0.7271
 1093TIP3   OH224769   3.641   3.314   4.557  0.0377  0.5379  0.1856
 1093TIP3    H124770   3.687   3.397   4.552  0.1950  0.4689  0.4733
 1093TIP3    H224771   3.701   3.250   4.519  0.2758  0.4111  0.7567
 1094TIP3   OH224772   2.531   1.609  16.268  0.2469  0.0978 -0.0174
 1094TIP3    H124773   2.513   1.527  16.221 -0.1628 -0.6327  1.3479
 1094TIP3    H224774   2.560   1.580  16.355  2.5533  1.3693 -0.3093
 1095TIP3   OH224775   4.508   6.724   3.784 -0.3701  0.0116 -0.1492
 1095TIP3    H124776   4.513   6.633   3.757  0.8477 -0.4751  1.4987
 1095TIP3    H224777   4.597   6.758   3.771  0.5969 -0.5131  3.6885
 1096TIP3   OH224778   0.909   2.959  12.116 -0.0206 -0.2744 -0.1012
 1096TIP3    H124779   0.820   2.958  12.153  0.2533  0.0535  0.5793
 1096TIP3    H224780   0.940   2.869  12.125 -0.9609 -0.8566 -2.0591
 1097TIP3   OH224781   1.870   4.976   2.503  0.0674  0.7614 -0.3401
 1097TIP3    H124782   1.843   4.969   2.594  0.2263  1.3406 -0.2476
 1097TIP3    H224783   1.954   5.022   2.506  0.7130 -0.3612 -0.6827
 1098TIP3   OH224784   4.917   0.462  16.769  0.0845 -0.4503  0.0265
 1098TIP3    H124785   4.909   0.554  16.794 -0.0634 -0.2593 -0.6910
 1098TIP3    H224786   4.900   0.461  16.675 -3.1194 -1.6150  0.4851
 1099TIP3   OH224787   4.907   1.506   0.051 -0.1411  0.4322 -0.4082
 1099TIP3    H124788   4.906   1.414   0.025  0.5636 -0.2208  1.6937
 1099TIP3    H224789   5.000   1.530   0.050 -0.2090  0.7293  0.3084
 1100TIP3   OH224790   1.300   0.459   2.796  0.1767  0.2940  0.4505
 1100TIP3    H124791   1.272   0.378   2.839 -1.0526  1.0349  1.0878
 1100TIP3    H224792   1.272   0.529   2.855  0.2404  1.2416 -0.6081
 1101TIP3   OH224793   6.071   6.488   5.642 -0.1089 -0.1688 -0.1804
 1101TIP3    H124794   6.061   6.544   5.565  0.2617 -0.4480 -0.4391
 1101TIP3    H224795   6.108   6.406   5.607 -1.1871 -0.8007  0.1027
 1102TIP3   OH224796   4.784   6.455   6.574  0.2071 -0.0288  0.0830
 1102TIP3    H124797   4.699   6.476   6.535  0.9985  0.1527 -1.6396
 1102TIP3    H224798   4.813   6.538   6.612  0.6939  0.5723 -1.5218
 1103TIP3   OH224799   5.901   4.298   5.881 -0.4616 -0.4915 -0.3877
 1103TIP3    H124800   5.812   4.311   5.914 -0.5172 -0.4527 -0.5527
 1103TIP3    H224801   5.954   4.360   5.931 -0.1259 -2.1525  1.4380
 1104TIP3   OH224802   0.176   5.961   6.202  0.0008 -0.2726  0.1657
 1104TIP3    H124803   0.187   6.056   6.210 -1.6536 -0.0034 -0.4727
 1104TIP3    H224804   0.140   5.949   6.114 -1.0551 -1.3651  0.7257
 1105TIP3   OH224805   6.314   5.134  15.265 -0.4705  0.1519  0.0950
 1105TIP3    H124806   6.239   5.121  15.324 -0.6311  1.1130  0.1191
 1105TIP3    H224807   6.277   5.178  15.188 -0.1236 -0.3814 -0.3813
 1106TIP3   OH224808   3.172   5.481   3.041  0.2980  0.3417 -0.0895
 1106TIP3    H124809   3.211   5.547   3.099  0.6763  2.1692 -2.2732
 1106TIP3    H224810   3.084   5.515   3.022  0.7673  0.6719 -1.8321
 1107TIP3   OH224811   2.122   5.928   1.329  0.1410  0.0730 -0.2960
 1107TIP3    H124812   2.027   5.912   1.331  0.2079 -0.2925  0.6033
 1107TIP3    H224813   2.134   5.992   1.259 -0.9457  1.1427  0.4361
 1108TIP3   OH224814   6.748   0.885   2.040  0.4859 -0.0054  0.1504
 1108TIP3    H124815   6.717   0.893   2.130 -0.2849 -2.1526  0.1369
 1108TIP3    H224816   6.714   0.962   1.995  1.5125  1.5060  1.8289
 1109TIP3   OH224817   3.636   5.626   1.530  0.1712 -0.2550 -0.3472
 1109TIP3    H124818   3.559   5.679   1.550 -0.1167  0.0202 -2.0088
 1109TIP3    H224819   3.600   5.543   1.499  0.5604 -0.3831 -0.4542
 1110TIP3   OH224820   1.119   1.832  12.684  0.3376  0.1350  0.0747
 1110TIP3    H124821   1.130   1.920  12.720  1.6056  0.1645 -0.3483
 1110TIP3    H224822   1.207   1.805  12.659 -0.2361 -0.6340 -1.2355
 1111TIP3   OH224823   6.458   0.662   1.976 -0.3773  0.3974 -0.1859
 1111TIP3    H124824   6.503   0.578   1.984 -0.8142  0.1642 -0.1288
 1111TIP3    H224825   6.471   0.704   2.061  0.2598  0.6051 -0.3804
 1112TIP3   OH224826   4.577   4.841  11.955 -0.3487 -0.8171  0.0482
 1112TIP3    H124827   4.574   4.878  12.044  1.5393 -1.3763  0.3999
 1112TIP3    H224828   4.585   4.747  11.968  1.3717 -0.8088 -0.6293
 1113TIP3   OH224829   6.111   0.054  15.112  0.2452 -0.0823 -0.3234
 1113TIP3    H124830   6.118  -0.000  15.034  0.3813 -1.9519  0.9356
 1113TIP3    H224831   6.196   0.048  15.154 -0.2169 -0.1462  0.6279
 1114TIP3   OH224832   3.095   0.107  13.095  0.2626  0.5404 -0.1825
 1114TIP3    H124833   3.078   0.161  13.017  1.7795 -1.5675 -2.1027
 1114TIP3    H224834   3.178   0.138  13.129  0.0209  0.8878  0.1019
 1115TIP3   OH224835   3.190   1.737  16.670 -0.7134 -0.2055  0.8489
 1115TIP3    H124836   3.110   1.703  16.711 -3.0112  0.9986 -2.1408
 1115TIP3    H224837   3.231   1.791  16.737 -2.8934 -0.1737  2.2586
 1116TIP3   OH224838   5.254   3.366   2.345 -0.4488  0.2632 -0.1370
 1116TIP3    H124839   5.239   3.272   2.349  0.3130  0.0551 -1.6848
 1116TIP3    H224840   5.275   3.391   2.435  2.2156 -1.5398 -0.1740
 1117TIP3   OH224841   0.682   2.627   4.979 -0.1064  0.6135 -0.3326
 1117TIP3    H124842   0.612   2.634   5.045 -0.2938  2.0399 -0.6435
 1117TIP3    H224843   0.637   2.598   4.900 -0.0308 -0.2275 -0.0754
 1118TIP3   OH224844   3.540   3.636   2.964  0.1322  0.1043 -0.1080
 1118TIP3    H124845   3.594   3.710   2.937 -2.0109  1.3242 -1.3480
 1118TIP3    H224846   3.526   3.585   2.884  1.1452 -1.4260  0.6237
 1119TIP3   OH224847   3.932   5.930   2.398  0.2796  0.0683 -0.1919
 1119TIP3    H124848   3.991   5.998   2.430 -0.2944  0.6086 -0.2677
 1119TIP3    H224849   3.977   5.848   2.417  0.0788  0.3741  1.8040
 1120TIP3   OH224850   5.991   0.003  11.934 -0.7343 -0.3115 -0.1449
 1120TIP3    H124851   6.004   0.063  11.861 -2.1487  0.0873 -0.0839
 1120TIP3    H224852   6.018  -0.082  11.900 -0.4375  0.0405 -0.8111
 1121TIP3   OH224853   3.975   4.234  13.057 -0.0807  0.1930  0.1733
 1121TIP3    H124854   3.961   4.140  13.069  0.1880 -0.0804 -1.3359
 1121TIP3    H224855   4.015   4.240  12.969 -0.3442  1.7331  0.1457
 1122TIP3   OH224856   5.044   1.382   4.430 -0.1779 -0.2676  0.4367
 1122TIP3    H124857   5.047   1.462   4.376 -1.6499  0.2139  1.0337
 1122TIP3    H224858   5.124   1.387   4.483 -0.5092  1.1007  0.8548
 1123TIP3   OH224859   5.653   1.374  16.622 -0.1207 -0.1471 -0.5976
 1123TIP3    H124860   5.600   1.295  16.637 -1.0188  1.0553  4.1942
 1123TIP3    H224861   5.589   1.441  16.598  0.0002  0.0767 -0.2993
 1124TIP3   OH224862   0.937   5.067   5.191 -0.1952 -0.3552 -0.1873
 1124TIP3    H124863   0.945   5.025   5.277  1.5062  0.7552  0.2540
 1124TIP3    H224864   0.886   5.146   5.208  1.0687  0.4412  0.0734
 1125TIP3   OH224865   5.254   0.255   5.688  0.6693  0.5900  0.3340
 1125TIP3    H124866   5.195   0.220   5.622  1.1818 -1.3583  0.8560
 1125TIP3    H224867   5.308   0.319   5.641  0.5273 -0.2144 -0.9545
 1126TIP3   OH224868   3.909   5.282  13.347  0.1535  0.4284  0.0357
 1126TIP3    H124869   3.942   5.287  13.257  1.3140 -1.0744  0.3287
 1126TIP3    H224870   3.910   5.372  13.378 -0.9259  1.0882 -1.6562
 1127TIP3   OH224871   1.592   4.524   4.051 -0.3061 -0.1188 -0.0245
 1127TIP3    H124872   1.642   4.451   4.014 -1.4347 -0.1569 -1.5325
 1127TIP3    H224873   1.525   4.483   4.105 -0.6519 -0.1908 -0.5044
 1128TIP3   OH224874   6.101   5.123  16.965 -0.1929 -0.6955 -0.2852
 1128TIP3    H124875   6.081   5.110  16.872  1.3310 -1.4427 -0.5404
 1128TIP3    H224876   6.194   5.101  16.973  0.1586  1.0921  1.0996
 1129TIP3   OH224877   2.572   3.538  15.561 -0.6495 -0.1247 -0.2558
 1129TIP3    H124878   2.607   3.616  15.602 -1.8224 -1.0156  2.6901
 1129TIP3    H224879   2.539   3.568  15.476 -0.2333  2.3472  0.3781
 1130TIP3   OH224880   1.441   1.715   0.335 -0.4107 -0.6255  0.0586
 1130TIP3    H124881   1.414   1.716   0.426 -0.1806  1.1381  0.1351
 1130TIP3    H224882   1.438   1.806   0.307 -0.5137 -1.1286 -1.7174
 1131TIP3   OH224883   1.457   1.584   1.251 -0.8091  0.1838 -0.4641
 1131TIP3    H124884   1.393   1.602   1.181 -2.1823  0.3412  0.7701
 1131TIP3    H224885   1.458   1.665   1.303  0.4001  0.1654 -0.4436
 1132TIP3   OH224886   2.220   1.006  17.145  0.2731 -0.0596  0.3593
 1132TIP3    H124887   2.283   0.933  17.147  0.6512  0.2096 -1.1179
 1132TIP3    H224888   2.171   0.997  17.227  0.6799 -1.6573  0.4608
 1133TIP3   OH224889   5.017   3.443  13.241 -0.4772  0.8838  0.0096
 1133TIP3    H124890   5.070   3.521  13.226  1.9378 -0.8892 -1.5152
 1133TIP3    H224891   4.970   3.430  13.158  0.3232 -0.0529 -0.3219
 1134TIP3   OH224892   2.555   2.989  14.915  0.1622  0.3937 -0.3724
 1134TIP3    H124893   2.552   3.033  14.830  1.1409 -1.1988 -1.2778
 1134TIP3    H224894   2.643   2.951  14.918  0.3868  0.9688  1.6636
 1135TIP3   OH224895   0.854   0.074  16.964 -0.1892 -0.4493  0.5327
 1135TIP3    H124896   0.839   0.126  17.042 -0.4489 -0.2112  0.3227
 1135TIP3    H224897   0.948   0.083  16.946 -0.5234  1.3844 -0.5157
 1136TIP3   OH224898   2.091   1.781  12.831 -0.4077  0.7153 -0.1798
 1136TIP3    H124899   2.008   1.793  12.877 -0.5558  1.8984 -0.7034
 1136TIP3    H224900   2.153   1.834  12.881 -0.1296  0.4012 -0.1963
 1137TIP3   OH224901   3.249   5.424  11.242 -0.0858  0.1017 -0.0919
 1137TIP3    H124902   3.312   5.352  11.251 -1.2868 -0.8165  1.6340
 1137TIP3    H224903   3.211   5.412  11.155 -0.9288 -1.9831  0.4908
 1138TIP3   OH224904   0.603   3.204  17.080  0.8109 -0.3754 -0.7893
 1138TIP3    H124905   0.538   3.207  17.150  0.3799 -1.7928 -1.0896
 1138TIP3    H224906   0.554   3.228  17.001  1.0253  0.0894 -0.7835
 1139TIP3   OH224907   4.818   6.284  15.452 -0.9309 -0.3705 -0.1321
 1139TIP3    H124908   4.912   6.303  15.451 -1.4609  3.0988  0.8449
 1139TIP3    H224909   4.812   6.190  15.470  2.3143 -0.7689 -0.5980
 1140TIP3   OH224910   1.039   1.771   5.254 -0.0533  0.0380 -0.0887
 1140TIP3    H124911   1.090   1.848   5.232  0.7040 -0.4639 -0.1169
 1140TIP3    H224912   0.998   1.745   5.171 -1.1257  0.9782  0.1191
 1141TIP3   OH224913   5.500   5.572   5.190  0.0449  0.9580  0.0392
 1141TIP3    H124914   5.572   5.632   5.207  0.8284 -0.3901  1.9379
 1141TIP3    H224915   5.503   5.555   5.096  3.0792 -0.0213  0.1954
 1142TIP3   OH224916   6.331   5.168   3.731  0.1853  0.1881  0.1988
 1142TIP3    H124917   6.247   5.151   3.775  0.5598 -0.7918  0.5704
 1142TIP3    H224918   6.312   5.153   3.638  0.1855 -1.0940  0.3872
 1143TIP3   OH224919   3.653   4.489  14.830 -0.2456  0.1942  0.2256
 1143TIP3    H124920   3.649   4.418  14.766  1.6635  0.8271 -0.6677
 1143TIP3    H224921   3.708   4.455  14.901 -0.1888  0.4134  0.2896
 1144TIP3   OH224922   2.218   5.327   4.371  0.6751 -0.1071  0.0845
 1144TIP3    H124923   2.179   5.406   4.333 -0.3581 -0.5786  0.1258
 1144TIP3    H224924   2.308   5.353   4.393 -0.1381  1.5795  1.7039
 1145TIP3   OH224925   1.634   3.185  12.325 -0.2014 -0.2515  0.9684
 1145TIP3    H124926   1.669   3.220  12.242  0.7367 -1.6596  0.7220
 1145TIP3    H224927   1.707   3.193  12.386 -1.8872  4.0989  2.8443
 1146TIP3   OH224928   2.495   1.046   2.161 -0.2178 -0.3462  0.9212
 1146TIP3    H124929   2.449   1.108   2.105 -0.1897 -0.1232  1.1431
 1146TIP3    H224930   2.428   1.015   2.222 -0.2887 -0.7132  0.6643
 1147TIP3   OH224931   5.034   1.629   4.284  0.1363  0.4937  0.1576
 1147TIP3    H124932   4.977   1.701   4.256  1.9543  1.2658 -1.9140
 1147TIP3    H224933   5.055   1.583   4.202 -0.2641 -1.9023  1.3247
 1148TIP3   OH224934   6.766   2.666   0.429 -0.4382 -0.2856  0.0399
 1148TIP3    H124935   6.853   2.694   0.458 -0.9157  2.0578 -0.5730
 1148TIP3    H224936   6.781   2.584   0.383  1.2893 -0.4723  0.8707
 1149TIP3   OH224937   6.364   5.316  13.127 -0.5409  0.1294  0.3607
 1149TIP3    H124938   6.395   5.316  13.218 -2.2911  1.0413  0.9920
 1149TIP3    H224939   6.360   5.409  13.103  0.9839 -0.1209 -1.0785
 1150TIP3   OH224940   2.930   1.707   6.854  0.5989  0.9512  0.4888
 1150TIP3    H124941   2.928   1.774   6.923 -0.9846  0.1456  1.2672
 1150TIP3    H224942   2.977   1.634   6.893  0.6011  0.8733  0.3389
 1151TIP3   OH224943   4.560   1.563   4.924 -0.0724 -0.3524  0.7615
 1151TIP3    H124944   4.544   1.477   4.962  2.1982 -0.3979  1.7674
 1151TIP3    H224945   4.583   1.618   4.999  0.6418  0.5611 -0.1026
 1152TIP3   OH224946   6.607   2.829  12.116 -0.4725 -0.3030 -0.2555
 1152TIP3    H124947   6.562   2.745  12.120 -1.2619  0.0066 -1.8906
 1152TIP3    H224948   6.656   2.825  12.033 -0.6593  0.9005 -0.4338
 1153TIP3   OH224949   2.161   5.704  11.607 -0.3882  0.1371  0.5530
 1153TIP3    H124950   2.099   5.673  11.674  1.1763 -0.5870  1.7384
 1153TIP3    H224951   2.148   5.645  11.533 -2.1652  0.9577  0.1633
 1154TIP3   OH224952   0.150   5.200  14.595  0.2217  0.2184 -0.2464
 1154TIP3    H124953   0.064   5.179  14.633  0.4851 -0.2047  0.1351
 1154TIP3    H224954   0.197   5.116  14.595  0.9010  0.5891  0.2438
 1155TIP3   OH224955   1.245   2.227  13.472 -0.2292  0.3349 -0.9359
 1155TIP3    H124956   1.296   2.305  13.495 -1.5671  0.8346  0.4931
 1155TIP3    H224957   1.211   2.195  13.555 -0.4252 -1.2954 -1.6020
 1156TIP3   OH224958   4.455   3.130   5.830  0.3340 -0.6481 -0.7228
 1156TIP3    H124959   4.514   3.068   5.872  0.0479 -0.8355 -0.5976
 1156TIP3    H224960   4.395   3.075   5.778 -1.9013 -0.7473  1.7719
 1157TIP3   OH224961   6.439   6.085   5.549  0.4006  0.2814  0.1368
 1157TIP3    H124962   6.470   5.995   5.537  1.7085  0.3577  2.3379
 1157TIP3    H224963   6.373   6.097   5.481  1.5380 -1.6824 -1.4463
 1158TIP3   OH224964   3.423   6.246   0.835 -0.5597 -0.1229 -0.0330
 1158TIP3    H124965   3.359   6.257   0.765  1.0102 -1.8027 -1.8614
 1158TIP3    H224966   3.405   6.159   0.870  0.1576 -0.2529  0.0324
 1159TIP3   OH224967   0.555   3.721  13.162  0.5103  0.5772 -0.0828
 1159TIP3    H124968   0.466   3.687  13.172  0.6501  0.5325  1.2954
 1159TIP3    H224969   0.582   3.740  13.252  1.6562  1.1982 -0.5514
 1160TIP3   OH224970   3.055   6.667   5.340  0.2148  0.1460  0.1072
 1160TIP3    H124971   3.115   6.742   5.337  1.3935 -0.7557  0.1593
 1160TIP3    H224972   3.022   6.665   5.430 -0.2240  0.9012 -0.0357
 1161TIP3   OH224973   6.221   6.033   3.536 -0.4758 -0.0647 -0.6276
 1161TIP3    H124974   6.225   6.072   3.449 -2.3185  1.6873  0.0073
 1161TIP3    H224975   6.141   5.980   3.535 -2.0442  2.1191  0.7468
 1162TIP3   OH224976   2.344   4.878   2.561 -0.1555  0.2582 -0.3313
 1162TIP3    H124977   2.262   4.842   2.596  1.3756 -0.2771  3.1996
 1162TIP3    H224978   2.334   4.973   2.571  0.6164  0.1226  3.0600
 1163TIP3   OH224979   3.944   0.250   6.692 -0.4642  0.4627 -0.3857
 1163TIP3    H124980   3.998   0.303   6.751  1.8915 -0.3812 -1.6507
 1163TIP3    H224981   3.908   0.182   6.748  0.9538  0.2178  0.2978
 1164TIP3   OH224982   4.031   4.402  16.960 -0.2704 -0.1258  0.0466
 1164TIP3    H124983   4.025   4.498  16.954 -0.3208 -0.1097  0.3368
 1164TIP3    H224984   3.962   4.378  17.022 -0.5088 -0.3849 -0.3165
 1165TIP3   OH224985   1.952   0.182   1.751 -0.0568 -0.2674  0.4419
 1165TIP3    H124986   1.971   0.101   1.799  0.6906  0.4029  1.3177
 1165TIP3    H224987   1.900   0.234   1.812  0.8261  0.5584  0.5230
 1166TIP3   OH224988   1.565   4.413   3.346 -0.3078  0.3551  0.5653
 1166TIP3    H124989   1.635   4.466   3.384 -0.1795  0.1047  0.6800
 1166TIP3    H224990   1.508   4.391   3.420  0.3401 -0.7500  0.7468
 1167TIP3   OH224991   5.100   0.796  12.590 -0.7523  0.0105  0.0716
 1167TIP3    H124992   5.021   0.766  12.634  0.0406  0.7413  2.1256
 1167TIP3    H224993   5.087   0.890  12.576 -0.5736 -0.0174 -0.2985
 1168TIP3   OH224994   5.819   5.954   4.294 -0.1644 -0.1771  0.1507
 1168TIP3    H124995   5.857   5.958   4.206  1.5277 -0.8387  0.8067
 1168TIP3    H224996   5.868   5.884   4.338 -2.0191 -0.9078  1.1529
 1169TIP3   OH224997   1.167   0.528   4.750  0.4858  0.2260  0.2889
 1169TIP3    H124998   1.123   0.603   4.792  1.7792  0.5909  1.0559
 1169TIP3    H224999   1.183   0.467   4.822  0.5025 -0.2711 -0.1307
 1170TIP3   OH225000   0.009   3.365   3.008 -0.1293 -0.4402  0.2373
 1170TIP3    H125001   0.056   3.311   2.945 -0.1674 -0.7479  0.4693
 1170TIP3    H225002  -0.066   3.399   2.959 -2.1239 -3.4311  0.9559
 1171TIP3   OH225003   3.284   3.009  12.267  0.5841 -0.2657 -0.2144
 1171TIP3    H125004   3.322   3.076  12.323 -0.2143  0.4232 -0.4719
 1171TIP3    H225005   3.285   3.048  12.179  0.7110 -0.8498 -0.4757
 1172TIP3   OH225006   0.758   2.108  17.459  0.0484 -0.2389 -0.1577
 1172TIP3    H125007   0.678   2.059  17.437  0.7068 -1.1413 -0.5880
 1172TIP3    H225008   0.779   2.080  17.548 -0.2982  0.2775  0.0978
 1173TIP3   OH225009   1.790   4.159  15.579  0.1136 -0.1903 -0.1717
 1173TIP3    H125010   1.763   4.168  15.487 -1.1176 -0.5575  0.1332
 1173TIP3    H225011   1.850   4.085  15.579 -3.0166 -2.9956 -0.1610
 1174TIP3   OH225012   4.984   0.336   4.930  0.0343  0.4845  0.0822
 1174TIP3    H125013   5.016   0.247   4.945  0.8416  0.6288 -0.6759
 1174TIP3    H225014   4.986   0.378   5.016  2.0272  0.5143  0.0721
 1175TIP3   OH225015   2.513   1.625  15.637 -0.2366 -0.1301 -0.6377
 1175TIP3    H125016   2.421   1.612  15.660  0.3522 -1.3411  1.2140
 1175TIP3    H225017   2.552   1.667  15.713  0.8942 -0.2192 -1.1379
 1176TIP3   OH225018   5.152   1.141  16.602  0.1709  0.3031 -0.1987
 1176TIP3    H125019   5.160   1.178  16.514  1.1787 -1.5604 -0.9400
 1176TIP3    H225020   5.173   1.048  16.592  0.2693  0.0195  2.0127
 1177TIP3   OH225021   2.581   2.545   6.281  0.0283 -0.5844  0.0820
 1177TIP3    H125022   2.539   2.547   6.368 -1.5815 -1.6658 -0.6135
 1177TIP3    H225023   2.612   2.455   6.272  0.4063 -0.4091 -0.3862
 1178TIP3   OH225024   2.178   4.058   0.149 -0.4786  0.2419 -0.3892
 1178TIP3    H125025   2.270   4.046   0.174  0.1860  1.9689 -1.7885
 1178TIP3    H225026   2.140   3.971   0.159  1.3031 -0.5307  0.2340
 1179TIP3   OH225027   2.505   1.323   4.735  0.7153 -0.2155 -0.0695
 1179TIP3    H125028   2.471   1.322   4.825  1.5054  1.6767  0.2982
 1179TIP3    H225029   2.600   1.325   4.745  0.9480 -2.8389 -1.0503
 1180TIP3   OH225030   3.681   0.738   4.673  0.1995 -0.4406 -0.1727
 1180TIP3    H125031   3.738   0.668   4.706 -0.4094 -0.6036  0.5607
 1180TIP3    H225032   3.595   0.719   4.711 -0.0740  0.4639 -0.3141
 1181TIP3   OH225033   4.101   5.103   3.242 -0.5509  0.4762 -0.2759
 1181TIP3    H125034   4.157   5.156   3.298 -1.5278  1.7386 -0.4562
 1181TIP3    H225035   4.084   5.158   3.165 -0.6591 -0.5383 -0.9983
 1182TIP3   OH225036   0.539   5.970  10.597  0.1687 -0.0599  0.4698
 1182TIP3    H125037   0.518   6.038  10.534 -1.2533 -1.8278 -1.0912
 1182TIP3    H225038   0.630   5.947  10.579  0.3047  0.6472  0.2420
 1183TIP3   OH225039   5.105   0.071  15.159 -0.8508 -0.1901  0.1844
 1183TIP3    H125040   5.168   0.039  15.095 -2.1598 -0.6939 -0.9083
 1183TIP3    H225041   5.146   0.055  15.244  0.2308 -1.0482 -0.4785
 1184TIP3   OH225042   1.487   6.340  17.490  0.0494  0.0082  0.6627
 1184TIP3    H125043   1.505   6.373  17.402 -0.2163 -1.6808 -0.0664
 1184TIP3    H225044   1.529   6.403  17.549  0.5544  0.9582 -0.6716
 1185TIP3   OH225045   1.429   6.386   5.802 -0.4365  0.2680  0.1328
 1185TIP3    H125046   1.474   6.441   5.738  3.5401 -0.4633  1.9932
 1185TIP3    H225047   1.407   6.306   5.754 -1.2562  1.2855 -1.2437
 1186TIP3   OH225048   4.615   3.479   0.583  0.5945 -0.2401 -0.0670
 1186TIP3    H125049   4.689   3.429   0.550  0.6514  0.1959 -0.6135
 1186TIP3    H225050   4.654   3.559   0.619  0.7603 -1.5730  2.9705
 1187TIP3   OH225051   3.175   3.718  15.065  0.0188 -0.1433 -0.0102
 1187TIP3    H125052   3.240   3.785  15.045  0.7086 -0.5917  0.6861
 1187TIP3    H225053   3.174   3.662  14.988 -0.4559  0.5768 -0.5363
 1188TIP3   OH225054   6.472   4.757   5.539  0.1599 -0.1137 -0.3583
 1188TIP3    H125055   6.488   4.703   5.462 -1.1520 -2.0048  0.6371
 1188TIP3    H225056   6.464   4.846   5.504  3.3569 -0.3019 -1.9401
 1189TIP3   OH225057   0.367   1.136  15.379 -0.5976 -0.2382  0.3308
 1189TIP3    H125058   0.387   1.210  15.321  0.5158 -0.0530  0.9224
 1189TIP3    H225059   0.360   1.176  15.466  1.2104 -0.9552  0.8482
 1190TIP3   OH225060   4.413   4.191  13.543 -0.0790 -0.7892  0.0628
 1190TIP3    H125061   4.403   4.235  13.627  2.6829 -0.8733  0.5302
 1190TIP3    H225062   4.399   4.098  13.562 -0.0315 -0.7416  0.3252
 1191TIP3   OH225063   3.778   6.125  15.374  0.7882  0.0418  0.4810
 1191TIP3    H125064   3.783   6.218  15.352 -0.5851  0.3258  1.2621
 1191TIP3    H225065   3.687   6.101  15.357  1.2182 -1.2806 -0.0955
 1192TIP3   OH225066   2.025   1.615  13.225 -0.3871 -0.3387 -0.0142
 1192TIP3    H125067   2.049   1.584  13.138 -0.6212  0.0024 -0.2004
 1192TIP3    H225068   2.035   1.538  13.281  1.2986 -0.1806 -0.0502
 1193TIP3   OH225069   0.081   2.290   2.160  0.5019  0.0932 -0.0177
 1193TIP3    H125070   0.107   2.369   2.208 -1.2154  0.3015  0.6475
 1193TIP3    H225071   0.011   2.252   2.213  2.3337 -2.8190  0.5359
 1194TIP3   OH225072   0.381   6.239   7.115  0.4420 -0.3424  0.6856
 1194TIP3    H125073   0.375   6.234   7.019  1.9044 -1.6985  0.6110
 1194TIP3    H225074   0.379   6.332   7.134  0.8823 -0.0048 -0.7445
 1195TIP3   OH225075   5.720   0.732   1.986  0.1442 -0.2031 -0.3674
 1195TIP3    H125076   5.816   0.735   1.979  0.1818 -0.9921 -0.2779
 1195TIP3    H225077   5.699   0.638   1.982 -0.5713 -0.0753  0.3148
 1196TIP3   OH225078   5.491   4.144  12.126 -0.6958 -0.2654 -0.7736
 1196TIP3    H125079   5.479   4.239  12.124  0.6536 -0.0791 -1.8855
 1196TIP3    H225080   5.457   4.113  12.043  0.4076 -0.5238 -1.1449
 1197TIP3   OH225081   1.802   3.364  17.036  0.4526  0.1468 -0.1537
 1197TIP3    H125082   1.755   3.419  17.098 -0.4450  1.0591 -1.5696
 1197TIP3    H225083   1.870   3.421  16.999 -0.1834  0.2046 -1.2936
 1198TIP3   OH225084   4.447   2.390  17.437  0.1676  0.2104  0.1866
 1198TIP3    H125085   4.536   2.425  17.436  0.1531  0.2772  0.8221
 1198TIP3    H225086   4.428   2.373  17.529 -0.0701 -0.8795 -0.0485
 1199TIP3   OH225087   3.534   3.662  11.805  0.2363  0.5156 -0.1270
 1199TIP3    H125088   3.444   3.647  11.836  0.5735 -0.3764  0.4396
 1199TIP3    H225089   3.523   3.687  11.713 -0.5600 -0.2584 -0.2624
 1200TIP3   OH225090   0.637   0.323  13.583  0.2239 -0.0353 -0.0386
 1200TIP3    H125091   0.642   0.233  13.615 -0.3547  0.2913  1.0503
 1200TIP3    H225092   0.702   0.370  13.635  0.5494  0.1702 -0.6283
 1201TIP3   OH225093   0.572   0.705   4.037  0.1328 -0.1062 -0.0939
 1201TIP3    H125094   0.635   0.640   4.006 -1.9814 -1.4731 -1.8377
 1201TIP3    H225095   0.557   0.761   3.962  0.1763  0.9929  0.6961
 1202TIP3   OH225096   2.523   2.344  12.776  0.3977 -0.2815 -0.0414
 1202TIP3    H125097   2.520   2.266  12.720  0.2727  0.5657 -1.2635
 1202TIP3    H225098   2.588   2.400  12.734  0.2417  0.4111  0.6331
 1203TIP3   OH225099   6.587   5.417  14.049 -0.4604  0.4719 -0.4942
 1203TIP3    H125100   6.525   5.471  14.001 -2.3131 -1.2803 -0.1819
 1203TIP3    H225101   6.601   5.464  14.132 -1.9160  0.5625 -0.2848
 1204TIP3   OH225102   3.918   4.913  11.673  0.1312  0.0895 -0.0888
 1204TIP3    H125103   3.968   4.921  11.592  1.4129  0.0150  0.6610
 1204TIP3    H225104   3.867   4.994  11.679  0.5531  0.3963 -0.6124
 1205TIP3   OH225105   1.341   4.441  12.042  0.4350  0.3632  0.3502
 1205TIP3    H125106   1.331   4.519  11.988  0.3170 -1.0735 -1.8177
 1205TIP3    H225107   1.435   4.435  12.059  0.5127  0.6760  0.0397
 1206TIP3   OH225108   2.980   3.150   4.894  0.6513 -0.3808 -0.4121
 1206TIP3    H125109   2.969   3.239   4.928 -0.2199 -0.3798 -0.6740
 1206TIP3    H225110   3.072   3.130   4.910  1.0184  0.8062 -0.9274
 1207TIP3   OH225111   2.444   0.174  15.287 -0.7001 -0.5457  0.6446
 1207TIP3    H125112   2.492   0.214  15.214  0.0718 -0.0493  1.3979
 1207TIP3    H225113   2.507   0.115  15.328 -1.4272 -1.5433  0.3407
 1208TIP3   OH225114   5.798   6.180  14.019 -0.2290  0.4292  0.0793
 1208TIP3    H125115   5.814   6.231  13.940 -1.2791 -2.1431 -1.9763
 1208TIP3    H225116   5.870   6.202  14.078  1.7733  0.9837 -2.4024
 1209TIP3   OH225117   3.367   0.963   4.480 -0.5600 -0.1265 -0.2191
 1209TIP3    H125118   3.363   1.038   4.421  0.5203  1.1519  1.2380
 1209TIP3    H225119   3.403   0.892   4.427 -2.4266  0.1006 -1.8646
 1210TIP3   OH225120   0.911   5.615  12.177  0.2280  0.2369  0.0306
 1210TIP3    H125121   0.924   5.665  12.096 -0.3702  2.7367  1.3528
 1210TIP3    H225122   0.990   5.634  12.229 -0.0319 -0.1724  0.5813
 1211TIP3   OH225123   2.708   5.290   1.425 -0.7717 -0.3153 -0.1296
 1211TIP3    H125124   2.721   5.355   1.494  2.1312 -0.4174 -0.4524
 1211TIP3    H225125   2.725   5.206   1.468 -1.5116 -0.6119 -0.4040
 1212TIP3   OH225126   1.034   4.792  14.270 -0.3026 -0.0010 -0.2582
 1212TIP3    H125127   1.015   4.863  14.331  0.0772  0.5768 -0.8127
 1212TIP3    H225128   1.042   4.714  14.327 -0.2119  0.4778  0.3978
 1213TIP3   OH225129   4.243   4.978   6.018 -0.8741 -0.2447 -0.1171
 1213TIP3    H125130   4.305   4.931   5.961  0.9270  0.1333  1.4241
 1213TIP3    H225131   4.218   4.914   6.084 -0.9148  0.0484  0.1534
 1214TIP3   OH225132   3.235   4.441   2.407 -0.7104 -0.2106 -0.3761
 1214TIP3    H125133   3.294   4.372   2.376 -0.0913  0.3851 -0.5501
 1214TIP3    H225134   3.289   4.495   2.465 -1.6047 -0.7558  0.9974
 1215TIP3   OH225135   1.464   3.916  17.113  0.1615 -0.0253 -0.1557
 1215TIP3    H125136   1.467   4.007  17.084 -0.3227  0.0211 -0.0544
 1215TIP3    H225137   1.423   3.918  17.199  0.1475 -0.3396 -0.1523
 1216TIP3   OH225138   3.901   1.097   4.703 -0.1801  0.7779 -0.1378
 1216TIP3    H125139   3.993   1.089   4.725 -0.4331 -2.3929  0.2111
 1216TIP3    H225140   3.897   1.088   4.607 -0.0633  2.8475 -0.4004
 1217TIP3   OH225141   4.474   2.812   0.470  0.8118 -0.6641  0.0201
 1217TIP3    H125142   4.415   2.837   0.399 -0.2057 -3.0096 -0.0206
 1217TIP3    H225143   4.554   2.784   0.425  0.5016 -1.2691 -0.1673
 1218TIP3   OH225144   4.318   0.677  16.429 -0.2710  0.1341  0.1096
 1218TIP3    H125145   4.381   0.646  16.364  0.6783 -2.2518  1.9712
 1218TIP3    H225146   4.235   0.638  16.403 -0.7588  2.1521 -1.5842
 1219TIP3   OH225147   0.495   4.922  17.323 -0.2793 -0.3680  0.1860
 1219TIP3    H125148   0.460   4.833  17.326 -2.5215  0.4643  0.4186
 1219TIP3    H225149   0.430   4.975  17.369  1.6179  1.2272  1.1648
 1220TIP3   OH225150   2.981   5.431   3.443 -0.2589  0.2336 -0.0645
 1220TIP3    H125151   3.030   5.500   3.398  1.3491 -0.6111  0.2974
 1220TIP3    H225152   2.945   5.377   3.373  1.3793 -0.4848 -0.4238
 1221TIP3   OH225153   5.947   3.842  14.471  0.3396 -0.3740  0.0739
 1221TIP3    H125154   6.031   3.797  14.466  1.6006  1.8101  0.3320
 1221TIP3    H225155   5.961   3.913  14.534 -1.7252  0.0041  0.1840
 1222TIP3   OH225156   1.174   4.090  17.204  0.7872  0.8228 -0.0238
 1222TIP3    H125157   1.084   4.124  17.206  0.4143 -0.0164  2.8766
 1222TIP3    H225158   1.165   3.997  17.225  2.3777  1.1405  2.5078
 1223TIP3   OH225159   3.391   0.790  16.174 -0.2434 -0.5823 -0.3366
 1223TIP3    H125160   3.309   0.836  16.153 -0.5425 -1.7849 -1.9833
 1223TIP3    H225161   3.364   0.715  16.226 -0.1142 -0.6548 -0.3745
 1224TIP3   OH225162   5.404   3.819   0.215 -0.1798 -0.4579 -0.2971
 1224TIP3    H125163   5.411   3.743   0.272  1.4212 -0.9472 -1.0917
 1224TIP3    H225164   5.316   3.814   0.179 -0.8502 -0.7183  1.2842
 1225TIP3   OH225165   1.011   0.923   0.179 -0.4788  0.0238 -0.0464
 1225TIP3    H125166   1.009   0.944   0.273 -0.8472  0.2410 -0.1026
 1225TIP3    H225167   1.029   1.007   0.137 -1.1027  0.0727 -0.2192
 1226TIP3   OH225168   3.892   5.041  13.732 -0.0456  0.4069 -0.5150
 1226TIP3    H125169   3.807   5.010  13.703  0.0864  1.3991 -2.0421
 1226TIP3    H225170   3.952   4.969  13.711 -0.3434  0.0976 -0.3163
 1227TIP3   OH225171   1.401   1.141  15.259 -0.2873  0.5391 -0.1734
 1227TIP3    H125172   1.412   1.233  15.236  1.4613  0.5582  0.5390
 1227TIP3    H225173   1.457   1.129  15.336  0.6631 -1.4255 -1.0866
 1228TIP3   OH225174   5.060   2.858   2.453 -0.5686  0.6611  1.3292
 1228TIP3    H125175   5.047   2.763   2.440  1.2879  0.0962  3.1332
 1228TIP3    H225176   5.152   2.873   2.432 -0.8199  2.0839  1.1589
 1229TIP3   OH225177   3.903   5.154   6.470 -0.0559 -0.2820  0.5362
 1229TIP3    H125178   3.812   5.181   6.477  0.2162  0.4355  1.4360
 1229TIP3    H225179   3.943   5.182   6.552  1.2510  0.4946 -0.3187
 1230TIP3   OH225180   1.878   0.958   4.349  0.8191  0.1738 -0.1193
 1230TIP3    H125181   1.884   1.045   4.387  2.1050 -0.3141  0.8503
 1230TIP3    H225182   1.800   0.919   4.390  2.1041 -0.2977  2.0061
 1231TIP3   OH225183   1.173   5.563   2.428  0.6438  0.1654  0.3181
 1231TIP3    H125184   1.165   5.486   2.484  0.4308 -1.6507 -2.0512
 1231TIP3    H225185   1.108   5.625   2.462  0.1546 -1.0734  1.7139
 1232TIP3   OH225186   5.061   1.522   4.030  0.2600 -0.1803 -0.0480
 1232TIP3    H125187   5.098   1.434   4.020 -1.1169 -0.8136  0.2386
 1232TIP3    H225188   4.972   1.515   3.996  0.7025  1.5815 -1.6912
 1233TIP3   OH225189   3.196   3.905  11.633 -0.1771 -0.2340 -0.3173
 1233TIP3    H125190   3.134   3.832  11.628 -0.2086 -0.4096  1.7633
 1233TIP3    H225191   3.168   3.955  11.709 -0.2378  2.0854 -1.7784
 1234TIP3   OH225192   2.015   0.141   4.696 -0.2205 -0.0270 -0.0324
 1234TIP3    H125193   2.007   0.122   4.602 -0.2235  1.2644 -0.3085
 1234TIP3    H225194   1.981   0.062   4.739 -2.0658  0.1276 -1.1176
 1235TIP3   OH225195   5.711   2.664  16.676 -0.5691  0.2058  0.5605
 1235TIP3    H125196   5.782   2.671  16.740  0.1108 -0.2059 -0.1369
 1235TIP3    H225197   5.635   2.638  16.728 -0.3305  1.0792  1.3817
 1236TIP3   OH225198   3.359   5.797   1.636 -0.1557  0.2919 -0.2706
 1236TIP3    H125199   3.278   5.838   1.665  0.1923 -0.9747  2.8715
 1236TIP3    H225200   3.336   5.705   1.623  0.5777  0.1168 -0.3607
 1237TIP3   OH225201   3.014   5.848   2.849 -0.0136 -0.2014 -0.3652
 1237TIP3    H125202   2.962   5.927   2.835  0.9596  0.2751 -1.5485
 1237TIP3    H225203   3.074   5.870   2.919 -0.4881 -0.2851  0.0715
 1238TIP3   OH225204   1.538   4.871   1.984  0.1452 -0.1798 -0.2184
 1238TIP3    H125205   1.479   4.918   2.043 -0.4222 -0.7559 -0.3149
 1238TIP3    H225206   1.490   4.865   1.901  0.5496 -0.2070 -0.4564
 1239TIP3   OH225207   0.740   3.203  12.957  0.1909 -0.0908 -0.2428
 1239TIP3    H125208   0.750   3.298  12.963  2.1393 -0.1755 -1.2862
 1239TIP3    H225209   0.794   3.178  12.882 -0.9197 -1.9487 -0.4889
 1240TIP3   OH225210   2.571   2.225   4.816  0.6149 -0.8717 -0.4153
 1240TIP3    H125211   2.583   2.179   4.899 -0.1075 -0.4441 -0.0699
 1240TIP3    H225212   2.528   2.307   4.840 -1.0906 -1.4509 -1.3881
 1241TIP3   OH225213   3.916   1.421  13.643 -0.5587 -0.5624  0.3721
 1241TIP3    H125214   3.956   1.395  13.725  2.8820  1.6607 -0.4056
 1241TIP3    H225215   3.965   1.499  13.615 -3.4013  0.4780 -2.4202
 1242TIP3   OH225216   5.806   4.109  11.681  0.3162 -0.3994 -0.2773
 1242TIP3    H125217   5.755   4.191  11.680  0.4621 -0.3079 -0.8773
 1242TIP3    H225218   5.771   4.060  11.756  1.2470  0.8393  1.0187
 1243TIP3   OH225219   3.857   4.423  15.857 -0.0112  0.1365  0.5172
 1243TIP3    H125220   3.884   4.364  15.927  0.4736 -0.1013  0.1294
 1243TIP3    H225221   3.924   4.413  15.790  0.3973  1.5610  0.6866
 1244TIP3   OH225222   2.539   3.756   2.758  0.3259 -0.3477 -0.3833
 1244TIP3    H125223   2.450   3.787   2.774  0.8378  0.9413  0.0346
 1244TIP3    H225224   2.551   3.685   2.821 -0.3002 -0.3460 -0.2494
 1245TIP3   OH225225   0.275   4.932   3.537  0.3811 -0.0716  0.2176
 1245TIP3    H125226   0.208   4.864   3.531 -1.3056  1.2542  2.3241
 1245TIP3    H225227   0.256   4.992   3.465  1.5781 -1.4777 -1.3510
 1246TIP3   OH225228   2.382   0.492  12.246 -0.3120 -0.1017 -0.0477
 1246TIP3    H125229   2.385   0.401  12.216  0.1777  0.4160 -1.6986
 1246TIP3    H225230   2.332   0.538  12.179  0.1438  0.9913  0.3328
 1247TIP3   OH225231   4.369   0.899  13.503 -0.3351  0.4179 -0.0798
 1247TIP3    H125232   4.333   0.848  13.575  0.1467 -0.7532 -0.6524
 1247TIP3    H225233   4.363   0.842  13.427  0.1428  1.2446 -0.7583
 1248TIP3   OH225234   5.337   0.857  15.662 -0.2743 -0.0728  0.0977
 1248TIP3    H125235   5.388   0.834  15.739 -0.6027  2.4021  1.1657
 1248TIP3    H225236   5.392   0.831  15.588  1.6026  0.5561  1.2016
 1249TIP3   OH225237   5.978   5.850  14.255 -0.1724 -0.2530  0.2233
 1249TIP3    H125238   6.026   5.882  14.179  0.5734 -1.0076  0.3591
 1249TIP3    H225239   6.025   5.770  14.281 -2.2446 -1.7776 -0.4341
 1250TIP3   OH225240   5.148   1.265   3.993 -0.0706 -0.4640  0.3841
 1250TIP3    H125241   5.192   1.212   4.060 -0.1805 -2.4082 -0.9857
 1250TIP3    H225242   5.076   1.210   3.963 -0.4226  0.6228 -0.8606
 1251TIP3   OH225243   4.792   2.270  14.838 -0.0770  0.0766 -0.4743
 1251TIP3    H125244   4.815   2.349  14.788 -0.0931  0.2544 -0.2038
 1251TIP3    H225245   4.740   2.302  14.911 -0.5574 -0.2470 -0.6668
 1252TIP3   OH225246   4.033   4.622  11.506  0.1902  0.4145  0.6417
 1252TIP3    H125247   4.023   4.527  11.498  0.5899  0.4289 -0.1326
 1252TIP3    H225248   3.953   4.657  11.468  1.5813  0.4504 -2.5819
 1253TIP3   OH225249   1.082   0.853  15.387  0.1891  0.1505  0.1474
 1253TIP3    H125250   1.056   0.764  15.414  1.5941 -0.1559  0.5657
 1253TIP3    H225251   1.005   0.888  15.342 -0.0355 -1.6886 -1.0089
 1254TIP3   OH225252   1.560   0.215  10.621 -0.3718 -0.0945 -0.2180
 1254TIP3    H125253   1.647   0.252  10.611 -0.3053 -0.1957 -0.0034
 1254TIP3    H225254   1.549   0.158  10.545  0.5709 -1.7444  0.8099
 1255TIP3   OH225255   3.920   5.120  14.157  0.3080 -0.0378  0.5122
 1255TIP3    H125256   3.860   5.194  14.162  0.6431  0.2503  0.2967
 1255TIP3    H225257   3.863   5.043  14.156 -0.1388  0.2770 -1.1760
 1256TIP3   OH225258   2.469   5.439  16.836  0.5645  0.5592  0.7723
 1256TIP3    H125259   2.461   5.380  16.761 -0.9688  0.3419  1.0618
 1256TIP3    H225260   2.547   5.491  16.818  0.9197 -0.3258 -0.3689
 1257TIP3   OH225261   3.404   0.182   6.333 -0.0421  0.1245  0.4143
 1257TIP3    H125262   3.439   0.158   6.247  0.8168 -0.5124  0.9253
 1257TIP3    H225263   3.380   0.099   6.373 -0.0757  0.3845  0.9438
 1258TIP3   OH225264   2.980   3.159   1.163  0.5001 -0.0378 -0.4590
 1258TIP3    H125265   2.953   3.112   1.241  0.5107  1.5272  0.5421
 1258TIP3    H225266   2.962   3.099   1.091  0.0669 -1.3451  0.6979
 1259TIP3   OH225267   4.195   1.379  15.706  0.4787  0.2576  1.0913
 1259TIP3    H125268   4.243   1.411  15.630 -0.8206  1.2489  0.6429
 1259TIP3    H225269   4.192   1.284  15.695  0.2211  0.4014 -0.1653
 1260TIP3   OH225270   5.060   2.423  11.421  0.2365  0.3448  0.2464
 1260TIP3    H125271   4.986   2.474  11.455 -0.2864 -0.8165  0.8965
 1260TIP3    H225272   5.130   2.488  11.410  0.1069  0.9869  2.5805
 1261TIP3   OH225273   5.933   4.735   2.942  0.3157 -0.2820  0.2406
 1261TIP3    H125274   5.942   4.673   3.014  1.8597 -0.4082 -0.0094
 1261TIP3    H225275   6.023   4.747   2.910 -0.1887  0.6714 -0.9012
 1262TIP3   OH225276   2.271   3.253   5.810 -0.0965  0.3818 -0.1713
 1262TIP3    H125277   2.363   3.276   5.826 -1.2381  3.3787  3.7577
 1262TIP3    H225278   2.243   3.209   5.890 -2.1774 -0.1688 -1.1349
 1263TIP3   OH225279   4.820   5.031   5.367 -0.0264 -0.4553  0.1499
 1263TIP3    H125280   4.898   5.061   5.319 -0.0670 -0.1207  0.2905
 1263TIP3    H225281   4.747   5.059   5.313 -0.0707 -0.1269  0.3827
 1264TIP3   OH225282   0.881   2.254  16.070  0.5096 -0.0545  0.1623
 1264TIP3    H125283   0.893   2.231  15.978  1.3743 -1.3098  0.5652
 1264TIP3    H225284   0.796   2.217  16.093  0.6318 -0.3906  0.0684
 1265TIP3   OH225285   5.702   6.552  11.698  0.0602 -0.2793  0.0391
 1265TIP3    H125286   5.704   6.590  11.610  2.0826 -2.0130 -0.7400
 1265TIP3    H225287   5.653   6.470  11.688 -1.2807  0.3518  0.9765
 1266TIP3   OH225288   5.620   2.744  11.128 -0.4763  0.4225 -0.2223
 1266TIP3    H125289   5.547   2.746  11.067 -0.1236 -1.5137 -0.7847
 1266TIP3    H225290   5.581   2.723  11.213 -0.5723 -0.9764 -0.5911
 1267TIP3   OH225291   6.539   0.933   5.875  0.1434  0.5239  0.2597
 1267TIP3    H125292   6.613   0.903   5.928 -0.1937  0.4607  0.6985
 1267TIP3    H225293   6.489   0.990   5.933 -0.0987  0.6443 -0.0656
 1268TIP3   OH225294   2.022   4.261  16.809  0.2841  0.1095  0.8094
 1268TIP3    H125295   2.104   4.272  16.857  1.2490 -0.8194 -0.5621
 1268TIP3    H225296   1.994   4.172  16.831 -0.3073  0.3849  1.1851
 1269TIP3   OH225297   5.138   4.406  14.008  0.1869  0.1410 -0.9494
 1269TIP3    H125298   5.164   4.484  13.959 -3.0848  1.8098 -0.3047
 1269TIP3    H225299   5.187   4.411  14.090 -1.0461  2.4382 -0.2860
 1270TIP3   OH225300   2.269   0.735  15.229  0.9023 -0.0772  0.0211
 1270TIP3    H125301   2.307   0.707  15.313 -1.1313 -0.1548  0.9744
 1270TIP3    H225302   2.262   0.830  15.236 -1.5090 -0.2477  1.0436
 1271TIP3   OH225303   0.328   0.878   4.109 -0.0559 -0.2834  0.5658
 1271TIP3    H125304   0.334   0.791   4.070  0.4994  0.4318 -1.0035
 1271TIP3    H225305   0.279   0.864   4.191 -3.4923 -1.4860 -1.4756
 1272TIP3   OH225306   1.595   2.811   5.102  0.3292 -0.5983 -0.4694
 1272TIP3    H125307   1.654   2.874   5.061 -0.1558  0.8334  0.9483
 1272TIP3    H225308   1.535   2.786   5.031 -0.4406  1.7573 -0.7204
 1273TIP3   OH225309   4.670   0.117   0.825  0.2076  0.5240  0.3479
 1273TIP3    H125310   4.668   0.201   0.871  1.7969 -0.1782  1.8366
 1273TIP3    H225311   4.581   0.083   0.831 -0.5013  2.1599 -0.4582
 1274TIP3   OH225312   0.215   4.759  12.590  0.2558 -0.1901  0.0658
 1274TIP3    H125313   0.199   4.853  12.589  0.0897 -0.2052  0.7763
 1274TIP3    H225314   0.166   4.727  12.666 -1.3979 -1.1630 -1.3108
 1275TIP3   OH225315   6.631   4.983   0.596 -0.1561 -0.3333  0.0709
 1275TIP3    H125316   6.562   5.039   0.633  1.0412 -0.4011  2.5780
 1275TIP3    H225317   6.713   5.029   0.617  0.7264 -1.8049 -0.0224
 1276TIP3   OH225318   0.145   4.509  13.632 -0.1912  0.1030  0.2582
 1276TIP3    H125319   0.166   4.467  13.549 -0.5738  1.0503 -0.3348
 1276TIP3    H225320   0.198   4.589  13.633  0.9944 -0.6597  1.6533
 1277TIP3   OH225321   0.047   1.438   1.822 -0.1689  0.2768  0.5615
 1277TIP3    H125322   0.099   1.373   1.774 -1.1862  1.6834 -2.7674
 1277TIP3    H225323   0.106   1.514   1.831 -0.9116  1.1545 -1.4409
 1278TIP3   OH225324   4.293   4.695   0.088 -0.0468  0.0101  0.2634
 1278TIP3    H125325   4.249   4.651   0.015  0.6044 -0.7816  0.3362
 1278TIP3    H225326   4.355   4.631   0.121 -0.3272  0.3614  1.5259
 1279TIP3   OH225327   0.502   0.231   6.926 -0.4384  0.9945  0.0950
 1279TIP3    H125328   0.507   0.326   6.935 -1.3832  1.2422 -1.6042
 1279TIP3    H225329   0.415   0.215   6.890 -0.1338 -0.4831 -0.0450
 1280TIP3   OH225330   5.480   2.011   2.733 -0.4593  0.7901  0.3622
 1280TIP3    H125331   5.505   2.099   2.706 -1.3973  1.2223  0.8460
 1280TIP3    H225332   5.505   2.006   2.826  0.2488  0.2806  0.1563
 1281TIP3   OH225333   2.663   4.880  15.650 -0.0982 -0.2596 -0.1529
 1281TIP3    H125334   2.743   4.863  15.699 -1.5927 -0.7482  2.3365
 1281TIP3    H225335   2.605   4.808  15.674 -2.2406  1.5562  0.4593
 1282TIP3   OH225336   1.406   3.049  16.327  0.4586 -0.4526 -0.0058
 1282TIP3    H125337   1.345   3.033  16.254  1.1034 -1.8310 -0.2853
 1282TIP3    H225338   1.399   3.143  16.344 -0.4008 -0.2645 -1.2212
 1283TIP3   OH225339   2.593   5.177  12.523 -0.0131  0.5662  0.5512
 1283TIP3    H125340   2.655   5.116  12.563 -1.6159  0.1508  2.5737
 1283TIP3    H225341   2.647   5.233  12.467  1.9481 -0.7167  1.0629
 1284TIP3   OH225342   4.951   2.222  12.295  0.2367 -0.0073 -0.2263
 1284TIP3    H125343   4.963   2.284  12.223  3.9182 -0.6085 -0.3229
 1284TIP3    H225344   4.860   2.236  12.323  0.0314  3.4562 -1.9905
 1285TIP3   OH225345   5.054   0.769  15.193  0.2823 -0.1516 -0.1341
 1285TIP3    H125346   5.074   0.694  15.249 -0.2874 -0.3496 -0.1935
 1285TIP3    H225347   5.011   0.732  15.117  0.7608  0.1537 -0.5583
 1286TIP3   OH225348   0.022   4.266  17.251  0.3927 -0.1316 -0.1772
 1286TIP3    H125349   0.109   4.257  17.213 -0.1472  2.7005 -2.3977
 1286TIP3    H225350  -0.023   4.184  17.229  1.8485 -0.7881 -0.8003
 1287TIP3   OH225351   5.233   0.312  14.754 -0.0382 -0.1456 -0.6455
 1287TIP3    H125352   5.259   0.369  14.682 -1.6643  0.6945 -0.6158
 1287TIP3    H225353   5.205   0.373  14.823  1.1740 -0.9407  0.5912
 1288TIP3   OH225354   1.782   3.757   0.442 -0.5505 -0.8422  0.3989
 1288TIP3    H125355   1.743   3.682   0.486  0.2038 -1.4154  0.1064
 1288TIP3    H225356   1.761   3.744   0.349  1.1081 -1.6763  0.0989
 1289TIP3   OH225357   3.214   4.197   1.278 -1.2223 -0.7920  0.6630
 1289TIP3    H125358   3.278   4.250   1.326  0.7837 -1.6277 -0.9068
 1289TIP3    H225359   3.165   4.260   1.225 -0.2579 -0.2752  0.3484
 1290TIP3   OH225360   3.812   0.255   0.576  0.2382 -0.5072  0.1603
 1290TIP3    H125361   3.853   0.341   0.565 -1.6037  0.4960  0.5300
 1290TIP3    H225362   3.831   0.231   0.666  0.0310 -0.0469  0.3343
 1291TIP3   OH225363   1.743   6.191   1.292  0.0058  0.6057  0.9739
 1291TIP3    H125364   1.814   6.235   1.244  0.8283 -1.7997 -0.1752
 1291TIP3    H225365   1.786   6.120   1.339 -1.7612 -2.2115 -1.3539
 1292TIP3   OH225366   0.973   4.102   2.306 -0.7988 -0.1568 -0.0010
 1292TIP3    H125367   0.968   4.049   2.226  1.1299 -0.8267  0.2786
 1292TIP3    H225368   0.982   4.192   2.275  0.0403 -0.4232 -0.5489
 1293TIP3   OH225369   4.023   5.127  17.110  0.3245  0.3718  0.3589
 1293TIP3    H125370   4.012   5.073  17.032 -0.8024  0.8612  0.1467
 1293TIP3    H225371   4.062   5.208  17.078  2.9525 -0.6218  0.8207
 1294TIP3   OH225372   1.367   3.479  16.005 -0.6637  0.1351  0.8811
 1294TIP3    H125373   1.432   3.443  16.066  1.0036  0.7512 -0.4400
 1294TIP3    H225374   1.312   3.404  15.983  0.0782 -0.6085  1.4643
 1295TIP3   OH225375   1.785   3.580  12.306 -0.5092  0.3240  0.0930
 1295TIP3    H125376   1.697   3.542  12.306 -0.6719  0.6905 -0.2015
 1295TIP3    H225377   1.771   3.672  12.282  0.0546  0.1445 -0.9862
 1296TIP3   OH225378   2.898   6.318   2.620 -0.2202  0.4999  0.1124
 1296TIP3    H125379   2.815   6.269   2.624 -0.5003  0.9994  0.5640
 1296TIP3    H225380   2.881   6.397   2.671  0.3271  0.9232 -0.3572
 1297TIP3   OH225381   6.637   6.058   2.779  0.0717 -0.1243  0.4705
 1297TIP3    H125382   6.562   6.099   2.736  0.1218 -1.2516 -0.7333
 1297TIP3    H225383   6.599   6.008   2.851 -0.5958 -2.2556 -1.2866
 1298TIP3   OH225384   6.466   4.113  17.015  0.1900 -0.3663  0.6870
 1298TIP3    H125385   6.410   4.036  17.010 -1.6704  0.9222  0.6864
 1298TIP3    H225386   6.419   4.174  17.072  0.5508  1.5984 -0.9998
 1299TIP3   OH225387   0.239   0.582  17.145 -0.5004 -0.0580  0.2566
 1299TIP3    H125388   0.250   0.641  17.220 -1.5013  0.2813  0.1464
 1299TIP3    H225389   0.145   0.568  17.139 -0.3024 -1.4685  0.1105
 1300TIP3   OH225390   3.407   2.270  16.907  0.1736 -0.0183 -0.1062
 1300TIP3    H125391   3.333   2.215  16.883  0.9517 -1.1183 -0.0481
 1300TIP3    H225392   3.401   2.345  16.848 -1.7524  0.5974  0.8015
 1301TIP3   OH225393   3.977   6.709  13.620 -0.6031  0.2318  0.0543
 1301TIP3    H125394   3.962   6.646  13.549  0.8196 -1.9640  1.5697
 1301TIP3    H225395   3.952   6.793  13.583 -1.3574 -1.0196 -2.5330
 1302TIP3   OH225396   1.426   0.676  16.823  0.6452  0.0054  0.5373
 1302TIP3    H125397   1.461   0.588  16.821 -3.2626 -1.8978  2.8549
 1302TIP3    H225398   1.473   0.720  16.894  0.7890 -1.2090  1.2119
 1303TIP3   OH225399   1.077   2.827  15.469 -0.0933 -0.1776  0.2432
 1303TIP3    H125400   1.081   2.871  15.554  0.5403  0.6743 -0.2079
 1303TIP3    H225401   1.165   2.792  15.456  0.3249  1.1599 -0.7928
 1304TIP3   OH225402   4.202   0.467   1.635  0.1069  0.0963  0.4527
 1304TIP3    H125403   4.274   0.499   1.690  1.2659 -0.4167 -0.7158
 1304TIP3    H225404   4.244   0.435   1.555 -1.5578  1.8861 -1.2986
 1305TIP3   OH225405   0.551   0.603   4.878  0.0737  0.3239 -0.5808
 1305TIP3    H125406   0.501   0.679   4.846  1.0753  0.8667 -0.8865
 1305TIP3    H225407   0.624   0.594   4.817  0.4418 -0.3679 -0.0548
 1306TIP3   OH225408   0.763   1.559   2.443  0.8193 -0.4780  0.5670
 1306TIP3    H125409   0.677   1.535   2.477  0.1210 -0.1190 -0.8858
 1306TIP3    H225410   0.818   1.483   2.461  0.0260 -0.9886  0.8786
 1307TIP3   OH225411   4.912   4.637   2.642 -0.1539 -0.4346 -0.3184
 1307TIP3    H125412   4.892   4.644   2.735  1.6233  1.3690 -0.0095
 1307TIP3    H225413   4.895   4.724   2.607 -0.7682 -1.0842 -1.7128
 1308TIP3   OH225414   3.866   3.537   1.444  0.3964  0.8048 -0.1224
 1308TIP3    H125415   3.949   3.546   1.396  0.4250  1.0959 -0.0179
 1308TIP3    H225416   3.869   3.605   1.510  1.6677 -1.3784  2.2571
 1309TIP3   OH225417   5.665   6.226   4.750  0.5384 -0.4967  0.3313
 1309TIP3    H125418   5.720   6.163   4.703 -1.7415 -3.4144  1.2663
 1309TIP3    H225419   5.586   6.177   4.771 -2.2698  3.2845 -0.4634
 1310TIP3   OH225420   1.164   0.531   1.812  0.1972  0.6792 -0.2248
 1310TIP3    H125421   1.133   0.592   1.879  1.2315 -0.5517  1.4563
 1310TIP3    H225422   1.254   0.558   1.795  0.5917 -0.2313  0.3748
 1311TIP3   OH225423   2.733   2.520  14.140  0.3708 -0.2661 -0.3058
 1311TIP3    H125424   2.782   2.602  14.133  0.7371 -0.5791 -1.6968
 1311TIP3    H225425   2.654   2.543  14.189  0.0090  1.1532 -1.4841
 1312TIP3   OH225426   5.755   1.494   2.256  0.2290  0.0542 -0.3402
 1312TIP3    H125427   5.667   1.490   2.294  0.7087 -0.5739  0.7636
 1312TIP3    H225428   5.749   1.442   2.176  0.0173 -1.5836  0.6796
 1313TIP3   OH225429   2.945   1.452   1.825  0.2913 -0.4971 -0.6954
 1313TIP3    H125430   3.028   1.441   1.872  0.3394 -0.1636 -0.7037
 1313TIP3    H225431   2.879   1.417   1.885  0.4536 -0.9300 -0.7608
 1314TIP3   OH225432   6.170   1.548   1.793  0.7152 -0.0454 -0.0956
 1314TIP3    H125433   6.125   1.468   1.820  1.5315 -0.1117  1.1244
 1314TIP3    H225434   6.207   1.527   1.708 -1.3620 -0.0481 -1.0741
 1315TIP3   OH225435   1.988   4.516  13.279  0.4320 -0.0529 -0.2360
 1315TIP3    H125436   2.028   4.601  13.260  0.6897 -0.1256 -0.0178
 1315TIP3    H225437   2.042   4.452  13.232 -0.5279  0.0127 -1.4916
 1316TIP3   OH225438   4.318   2.094  16.879 -0.2343  0.4546  0.2100
 1316TIP3    H125439   4.279   2.119  16.795  0.3121  2.7565  0.5854
 1316TIP3    H225440   4.347   2.004  16.865 -3.3003 -0.5162 -0.8909
 1317TIP3   OH225441   4.226   0.870   3.443 -0.0040 -0.3268  0.1046
 1317TIP3    H125442   4.217   0.828   3.529 -0.5020 -0.6186 -0.0825
 1317TIP3    H225443   4.312   0.911   3.445 -0.0364 -0.2763  0.7699
 1318TIP3   OH225444   0.412   3.575   1.694 -0.3185  0.7914 -0.1693
 1318TIP3    H125445   0.402   3.481   1.709 -1.0733  0.8531 -0.2697
 1318TIP3    H225446   0.334   3.615   1.733  1.3402  1.6986  2.5358
 1319TIP3   OH225447   6.078   2.969   5.419 -0.4588  0.1028  0.2007
 1319TIP3    H125448   6.088   2.900   5.484  1.1001 -0.7581 -0.8622
 1319TIP3    H225449   6.034   3.041   5.465  0.2759 -0.6011  2.0868
 1320TIP3   OH225450   0.909   4.851   5.737 -0.0508 -0.1239  0.4438
 1320TIP3    H125451   0.920   4.938   5.776  2.1415  0.6147 -1.5804
 1320TIP3    H225452   0.814   4.844   5.720 -0.2010  2.1924  0.0312
 1321TIP3   OH225453   3.550   4.966  16.504 -0.2373 -0.4227 -0.3480
 1321TIP3    H125454   3.619   4.979  16.439 -0.1325  0.2895 -0.0936
 1321TIP3    H225455   3.551   5.045  16.558 -1.3503 -0.3322 -0.4278
 1322TIP3   OH225456   0.710   2.756  13.579 -0.0383  0.1157 -0.0577
 1322TIP3    H125457   0.618   2.760  13.553  0.1472 -2.1787 -1.3506
 1322TIP3    H225458   0.708   2.718  13.667 -0.3616  1.8345  0.7193
 1323TIP3   OH225459   6.567   3.330   2.272 -0.2209  0.2149  0.1997
 1323TIP3    H125460   6.655   3.318   2.236 -0.4152 -2.1062  0.3313
 1323TIP3    H225461   6.581   3.335   2.367 -0.0777  2.0590  0.1095
 1324TIP3   OH225462   2.683   3.765  15.658 -0.7156 -0.0621 -0.2135
 1324TIP3    H125463   2.768   3.772  15.614 -0.8291 -0.7378 -0.5590
 1324TIP3    H225464   2.634   3.842  15.628 -0.1846  0.4019  0.0897
 1325TIP3   OH225465   0.234   2.487   4.261 -0.4296 -0.2149  0.2608
 1325TIP3    H125466   0.245   2.394   4.280  0.8298 -0.1206  0.0456
 1325TIP3    H225467   0.141   2.496   4.241 -0.5560 -1.4396  0.2131
 1326TIP3   OH225468   1.006   3.991   3.798 -0.2275  0.1554 -0.0089
 1326TIP3    H125469   0.966   3.979   3.884  1.5935  1.1318  1.0421
 1326TIP3    H225470   1.100   3.984   3.815  0.1272 -2.4938 -2.4172
 1327TIP3   OH225471   1.393   5.633  12.764 -0.3224 -0.5215 -0.1041
 1327TIP3    H125472   1.303   5.612  12.740 -0.0492  1.0088 -3.0190
 1327TIP3    H225473   1.440   5.631  12.681  1.8480  0.8886  0.9948
 1328TIP3   OH225474   3.029   2.890   1.569  0.3610 -0.0079  0.0536
 1328TIP3    H125475   3.095   2.840   1.616 -0.7482 -2.5531 -0.9315
 1328TIP3    H225476   2.946   2.857   1.602 -0.4171  0.2608 -1.5148
 1329TIP3   OH225477   4.672   5.784  15.038  0.0641  0.0588 -0.6651
 1329TIP3    H125478   4.755   5.737  15.029 -0.1935 -0.7452  0.9052
 1329TIP3    H225479   4.645   5.801  14.948  0.6014 -2.0868 -1.3026
 1330TIP3   OH225480   3.592   3.090  16.060  0.3610  0.2368 -0.2498
 1330TIP3    H125481   3.635   3.116  15.979  1.1692 -0.9859 -0.2405
 1330TIP3    H225482   3.500   3.109  16.046  0.6383  1.0270 -1.0451
 1331TIP3   OH225483   4.920   5.733   1.854  0.0218 -0.0499  0.6564
 1331TIP3    H125484   5.013   5.754   1.843  0.0260 -1.0882 -1.7732
 1331TIP3    H225485   4.876   5.818   1.846  0.6912  0.3426  1.0014
 1332TIP3   OH225486   6.161   5.797  13.325 -0.9263 -0.0100 -0.1886
 1332TIP3    H125487   6.202   5.847  13.254  1.5412  1.0418  1.7879
 1332TIP3    H225488   6.069   5.823  13.324 -0.7321  0.7545 -2.3079
 1333TIP3   OH225489   3.175   6.722   5.790  0.2093 -0.2499 -0.0551
 1333TIP3    H125490   3.178   6.817   5.788  1.0046 -0.2753 -0.4136
 1333TIP3    H225491   3.221   6.698   5.871 -0.6950 -0.3162  0.4568
 1334TIP3   OH225492   5.251   1.654  12.931 -0.2348 -0.0897  0.1006
 1334TIP3    H125493   5.157   1.666  12.942 -0.8056 -3.7669  0.6184
 1334TIP3    H225494   5.286   1.661  13.020 -0.2500 -0.2579  0.1195
 1335TIP3   OH225495   4.586   2.644  12.307 -0.4508 -0.2086  1.5436
 1335TIP3    H125496   4.630   2.664  12.389  1.0705  0.2357  0.6513
 1335TIP3    H225497   4.650   2.665  12.239 -2.6462  2.3883  0.0591
 1336TIP3   OH225498   1.347   1.638   0.792  0.1242 -0.1576  0.1794
 1336TIP3    H125499   1.349   1.688   0.873 -1.0450 -1.0906  0.8166
 1336TIP3    H225500   1.425   1.583   0.796 -0.9480 -1.6911  1.7111
 1337TIP3   OH225501   1.829   6.195   6.576  0.5908 -0.7487 -0.0989
 1337TIP3    H125502   1.825   6.196   6.672 -1.5050  0.5206 -0.1470
 1337TIP3    H225503   1.760   6.134   6.549 -0.0748  0.2868 -0.8029
 1338TIP3   OH225504   3.018   5.506  15.507  0.3938 -0.0607 -0.6635
 1338TIP3    H125505   3.080   5.466  15.568  2.6102  2.2350 -1.2913
 1338TIP3    H225506   3.052   5.485  15.420  0.4091  1.3723 -1.0250
 1339TIP3   OH225507   2.089   3.409  15.798  0.0588  0.8361  0.3432
 1339TIP3    H125508   2.089   3.354  15.720 -2.2911  1.8596 -0.4820
 1339TIP3    H225509   2.151   3.367  15.857 -0.5249 -1.8412 -0.7930
 1340TIP3   OH225510   5.630   5.649  14.158  0.1153  0.8498  0.0797
 1340TIP3    H125511   5.555   5.669  14.213  0.2619  0.6276  0.3669
 1340TIP3    H225512   5.666   5.735  14.134 -0.6531  0.9679 -0.6597
 1341TIP3   OH225513   2.425   2.695  17.227 -0.0136  0.4052  0.2330
 1341TIP3    H125514   2.424   2.713  17.321  0.1973  0.3565  0.2442
 1341TIP3    H225515   2.335   2.710  17.199 -0.2727 -0.4407  0.6031
 1342TIP3   OH225516   5.657   3.692   2.517  0.5010  0.2542  0.1464
 1342TIP3    H125517   5.684   3.622   2.457 -0.8124 -0.1381 -0.0253
 1342TIP3    H225518   5.739   3.729   2.549  1.2294 -0.4362 -0.8404
 1343TIP3   OH225519   6.054   5.209  15.962 -0.2816 -0.3382  0.0074
 1343TIP3    H125520   6.067   5.284  15.904 -1.0860 -0.6764 -0.6364
 1343TIP3    H225521   5.960   5.208  15.978 -0.1837 -0.8061  0.5677
 1344TIP3   OH225522   4.588   5.145   3.062 -0.4511  0.0566 -0.2102
 1344TIP3    H125523   4.572   5.073   3.124  1.0828 -0.6684 -0.6103
 1344TIP3    H225524   4.508   5.151   3.011 -1.5704  0.3378  1.4967
 1345TIP3   OH225525   1.108   0.929   0.667  0.2191  0.0010 -0.8285
 1345TIP3    H125526   1.183   0.946   0.723 -0.2804 -2.1871  0.6338
 1345TIP3    H225527   1.142   0.874   0.596  0.3732  0.8028 -1.4005
 1346TIP3   OH225528   0.949   2.923   1.655  0.4495 -0.0783 -0.2354
 1346TIP3    H125529   0.983   3.012   1.638  0.7368  0.3018  1.9957
 1346TIP3    H225530   1.012   2.886   1.717 -2.5382  0.2980  3.3524
 1347TIP3   OH225531   6.303   6.384   0.759 -0.1498 -0.1639  0.2960
 1347TIP3    H125532   6.285   6.469   0.720 -0.5223 -0.3616  0.0340
 1347TIP3    H225533   6.277   6.320   0.692  1.7613 -0.4660 -0.2205
 1348TIP3   OH225534   4.798   2.673  13.741  0.2683 -0.4898  0.5610
 1348TIP3    H125535   4.807   2.592  13.690  1.8617  0.2605 -0.4245
 1348TIP3    H225536   4.870   2.670  13.804  1.2032  0.7769 -0.4069
 1349TIP3   OH225537   1.236   2.337   4.775 -0.3922 -0.0154  0.4255
 1349TIP3    H125538   1.302   2.286   4.728  0.5819  1.2372  0.3777
 1349TIP3    H225539   1.269   2.427   4.773 -1.0141  0.2970  2.3206
 1350TIP3   OH225540   2.599   1.075  12.787  0.2972 -0.1210  0.2343
 1350TIP3    H125541   2.578   1.155  12.836 -0.6564 -0.5975  0.6333
 1350TIP3    H225542   2.671   1.101  12.729  0.9772  0.6479  1.3723
 1351TIP3   OH225543   5.584   4.576  15.479  0.8143  0.0153 -0.1942
 1351TIP3    H125544   5.522   4.625  15.424  0.8243 -1.0456 -1.1794
 1351TIP3    H225545   5.585   4.624  15.562 -1.4721 -0.0453 -0.0707
 1352TIP3   OH225546   1.041   5.253   0.150  0.3132 -0.2850 -0.7433
 1352TIP3    H125547   0.999   5.200   0.218  1.6055  1.4338  1.5177
 1352TIP3    H225548   1.115   5.200   0.122 -0.3976 -1.1395 -1.0816
 1353TIP3   OH225549   5.556   0.007  14.318 -0.3169 -0.0964 -0.5425
 1353TIP3    H125550   5.607  -0.053  14.264 -1.0547 -0.5117 -0.7963
 1353TIP3    H225551   5.491   0.044  14.257 -0.1263  0.6626 -0.3015
 1354TIP3   OH225552   3.648   1.719  14.082  0.6125  0.0386 -0.0017
 1354TIP3    H125553   3.717   1.693  14.143  1.5145  1.3459 -0.4087
 1354TIP3    H225554   3.613   1.800  14.120 -0.3919 -0.3691 -0.0416
 1355TIP3   OH225555   4.521   0.282   1.729  0.2992  0.1709 -0.6961
 1355TIP3    H125556   4.510   0.375   1.749  2.0350  0.4659 -0.8941
 1355TIP3    H225557   4.506   0.238   1.813  3.5092  1.0458  0.4947
 1356TIP3   OH225558   1.878   2.834   1.267 -0.2109 -0.0360 -0.3339
 1356TIP3    H125559   1.931   2.904   1.230  1.2313 -0.0975  1.4381
 1356TIP3    H225560   1.814   2.812   1.199 -1.5023  3.7710 -0.5520
 1357TIP3   OH225561   5.032   1.639   0.965  0.0432 -0.3571  0.0868
 1357TIP3    H125562   4.974   1.677   0.899  0.3563 -0.0841 -0.0345
 1357TIP3    H225563   5.114   1.623   0.919  0.3528  0.0849  0.4744
 1358TIP3   OH225564   1.070   5.592  17.054  0.5989  0.0878 -0.1721
 1358TIP3    H125565   1.104   5.666  17.003 -0.5905  0.9683  0.2477
 1358TIP3    H225566   1.141   5.571  17.115  1.6374 -0.3106 -1.4683
 1359TIP3   OH225567   0.027   1.696   3.036  0.0850 -0.1355 -0.6028
 1359TIP3    H125568   0.052   1.618   3.085 -0.4376 -0.8002 -1.3644
 1359TIP3    H225569   0.037   1.671   2.944 -0.1548  0.6676 -0.8532
 1360TIP3   OH225570   5.681   3.289  13.330 -0.0594  0.1380  0.9281
 1360TIP3    H125571   5.759   3.343  13.347 -0.2797  0.3411  1.3145
 1360TIP3    H225572   5.694   3.256  13.241  1.3473 -1.3245  1.6417
 1361TIP3   OH225573   4.175   2.657   0.397 -0.0367 -0.1844  0.0676
 1361TIP3    H125574   4.231   2.580   0.402 -0.8732 -0.8921 -0.9741
 1361TIP3    H225575   4.218   2.722   0.453  0.1685 -1.7203  1.8053
 1362TIP3   OH225576   5.240   6.472   3.795 -0.3940 -0.1711 -0.0846
 1362TIP3    H125577   5.186   6.401   3.831 -0.7201  0.0403 -0.1557
 1362TIP3    H225578   5.205   6.487   3.708  0.9830 -1.3215 -0.8913
 1363TIP3   OH225579   3.598   0.538   0.410  0.2546 -0.2209  0.4933
 1363TIP3    H125580   3.674   0.584   0.445  2.7285 -2.3474 -1.6271
 1363TIP3    H225581   3.588   0.571   0.321  1.0309 -2.4053 -0.4833
 1364TIP3   OH225582   1.321   5.480  14.469 -0.7225 -0.1764 -0.3463
 1364TIP3    H125583   1.268   5.542  14.520 -0.3864 -0.4893  0.3796
 1364TIP3    H225584   1.377   5.536  14.415 -0.1177  0.1714  0.6152
 1365TIP3   OH225585   4.533   5.956  12.618 -0.1316  0.0633  0.3980
 1365TIP3    H125586   4.511   5.868  12.647 -2.7234 -0.0380 -1.4842
 1365TIP3    H225587   4.594   5.943  12.545 -0.4871 -0.2063  0.1433
 1366TIP3   OH225588   2.084   3.331   2.489 -0.1394 -0.1147 -0.3894
 1366TIP3    H125589   2.142   3.407   2.482 -2.3547  1.6576 -0.2895
 1366TIP3    H225590   2.031   3.333   2.409 -0.6746 -1.2077 -0.0848
 1367TIP3   OH225591   0.603   3.712  11.294 -0.1490  0.9760  0.8872
 1367TIP3    H125592   0.519   3.713  11.248  0.4652  2.3403 -0.2666
 1367TIP3    H225593   0.659   3.655  11.241  0.2854  1.8264  0.4013
 1368TIP3   OH225594   1.803   0.263  13.523  0.7784  0.3895 -0.1082
 1368TIP3    H125595   1.838   0.349  13.549  0.8266  1.2906 -2.8888
 1368TIP3    H225596   1.717   0.259  13.565  2.1528  0.1472  3.0053
 1369TIP3   OH225597   1.510   3.046  14.604 -0.3371 -0.1409  0.0264
 1369TIP3    H125598   1.509   3.110  14.532 -0.0319  1.4389  1.3742
 1369TIP3    H225599   1.603   3.024  14.616 -0.4223 -0.7054 -0.2935
 1370TIP3   OH225600   3.549   3.294  11.019  0.0068 -0.1142  0.4196
 1370TIP3    H125601   3.478   3.264  10.962 -0.4789  1.0971  0.3374
 1370TIP3    H225602   3.515   3.376  11.057  0.0539 -1.1924  2.9640
 1371TIP3   OH225603   2.520   5.581  12.857 -0.0798  0.2677  0.8689
 1371TIP3    H125604   2.539   5.531  12.778  0.5390 -1.8895  2.3095
 1371TIP3    H225605   2.424   5.587  12.859 -0.0848  0.9987 -0.3899
 1372TIP3   OH225606   1.329   0.397   5.687 -0.3374 -0.0384  0.4140
 1372TIP3    H125607   1.276   0.474   5.707 -1.3189 -0.8849  1.2215
 1372TIP3    H225608   1.325   0.389   5.592 -2.5809 -0.6554  0.4982
 1373TIP3   OH225609   6.381   5.530   5.116  0.1516 -0.4642  0.8442
 1373TIP3    H125610   6.373   5.508   5.023  4.1384  3.3481 -0.7225
 1373TIP3    H225611   6.317   5.599   5.130 -0.1050 -0.6892  0.7819
 1374TIP3   OH225612   3.340   2.902   0.100 -0.2956  0.1236  0.1819
 1374TIP3    H125613   3.353   2.836   0.168 -1.0554  0.4404  0.6399
 1374TIP3    H225614   3.429   2.932   0.079  0.1759 -1.7507 -0.7695
 1375TIP3   OH225615   5.183   1.592  11.376  0.1560 -0.1715  0.0970
 1375TIP3    H125616   5.088   1.585  11.363  0.4361 -1.2552 -1.7050
 1375TIP3    H225617   5.213   1.652  11.308  0.8530 -0.5615  0.0407
 1376TIP3   OH225618   6.052   2.552  13.019 -0.4685  0.2305  0.5278
 1376TIP3    H125619   6.141   2.532  12.992 -1.8042 -3.3735 -2.0468
 1376TIP3    H225620   6.013   2.594  12.942 -1.5251 -0.2298  0.7940
 1377TIP3   OH225621   2.845   2.179  12.180  0.0178  0.1881  0.2586
 1377TIP3    H125622   2.754   2.150  12.180  0.0834 -0.1099 -1.3155
 1377TIP3    H225623   2.895   2.101  12.204 -0.0247 -0.1965 -0.8486
 1378TIP3   OH225624   2.572   3.988   3.380  0.0120  0.1369  0.2361
 1378TIP3    H125625   2.663   3.966   3.364  0.0216 -0.3252  0.8458
 1378TIP3    H225626   2.524   3.952   3.305  0.3186  0.2935 -0.0342
 1379TIP3   OH225627   4.733   0.162  11.344 -0.1989 -0.1963  0.2964
 1379TIP3    H125628   4.793   0.101  11.301  0.6193  0.7128  0.1214
 1379TIP3    H225629   4.680   0.197  11.272  0.3709  0.4371  0.1746
 1380TIP3   OH225630   2.493   4.561   3.166 -0.2817  0.2601 -0.0347
 1380TIP3    H125631   2.444   4.643   3.177 -0.3658  0.3405 -0.8877
 1380TIP3    H225632   2.585   4.587   3.172 -0.2772 -0.0882  2.9041
 1381TIP3   OH225633   1.222   1.310  13.054  0.2335  0.3489  0.2324
 1381TIP3    H125634   1.217   1.406  13.060 -0.8098  0.2305  1.9783
 1381TIP3    H225635   1.303   1.288  13.101 -0.9691  0.2636  2.4151
 1382TIP3   OH225636   3.940   0.202  13.294 -0.6977  0.0555  0.7276
 1382TIP3    H125637   4.035   0.195  13.284 -0.9880 -1.4492 -2.0267
 1382TIP3    H225638   3.927   0.228  13.385  2.3338  0.1802  1.2225
 1383TIP3   OH225639   4.056   4.714   1.272 -0.1864  0.2789  0.1160
 1383TIP3    H125640   4.058   4.809   1.272 -2.6296  0.3968  0.7428
 1383TIP3    H225641   4.094   4.689   1.356 -1.2539  0.8246  0.7867
 1384TIP3   OH225642   3.350   2.936   2.988 -0.1094  0.4892  0.2488
 1384TIP3    H125643   3.353   2.949   3.083  0.9260 -0.1306  0.3191
 1384TIP3    H225644   3.257   2.932   2.967 -0.4452  3.2723  0.8529
 1385TIP3   OH225645   5.406   2.079   1.757 -0.0814 -0.1122  0.0262
 1385TIP3    H125646   5.387   2.169   1.784  0.9227  1.1705 -3.1599
 1385TIP3    H225647   5.320   2.042   1.737 -0.3088  1.4550 -2.2327
 1386TIP3   OH225648   5.459   4.184   3.336  0.7259 -0.1788  0.3342
 1386TIP3    H125649   5.463   4.210   3.244  2.5647 -0.1830  0.3740
 1386TIP3    H225650   5.431   4.263   3.382 -1.0762 -0.4113 -0.2776
 1387TIP3   OH225651   0.642   6.375   4.357  0.1113  0.0593 -0.0946
 1387TIP3    H125652   0.685   6.407   4.437  0.1484 -0.8122  0.2424
 1387TIP3    H225653   0.683   6.425   4.286 -0.6449  1.6059  0.4917
 1388TIP3   OH225654   5.281   1.197   2.373  0.2520  0.3084 -0.4171
 1388TIP3    H125655   5.270   1.193   2.468 -0.5067 -0.3476 -0.5173
 1388TIP3    H225656   5.375   1.183   2.359 -0.0034 -2.8097  0.1264
 1389TIP3   OH225657   1.243   2.130   1.275  0.0146  0.3054  0.5970
 1389TIP3    H125658   1.279   2.191   1.339  0.3220  2.1021 -1.2069
 1389TIP3    H225659   1.238   2.047   1.322  0.1233  1.5592  2.9656
 1390TIP3   OH225660   1.978   5.001   2.004  0.0334 -0.2786  0.4427
 1390TIP3    H125661   2.027   4.975   2.082  0.3149 -2.3794 -0.3747
 1390TIP3    H225662   2.041   5.049   1.950  0.7541 -1.4922  0.1640
 1391TIP3   OH225663   1.422   3.377   1.963 -0.0267 -0.0327  0.2914
 1391TIP3    H125664   1.452   3.454   1.915  0.9599 -1.2746 -1.1594
 1391TIP3    H225665   1.329   3.393   1.977  0.2497  1.6375  0.4718
 1392TIP3   OH225666   2.002   3.772   6.335 -0.7482  0.1792 -0.4114
 1392TIP3    H125667   2.038   3.773   6.246 -1.9134 -2.5737 -0.9969
 1392TIP3    H225668   2.066   3.724   6.387  1.4299  4.2290  1.1323
 1393TIP3   OH225669   6.592   2.204   4.439 -0.4112  0.0777  0.3945
 1393TIP3    H125670   6.674   2.157   4.425  0.4530  1.5391  0.3967
 1393TIP3    H225671   6.602   2.245   4.525 -1.2394  0.0802  0.4957
 1394TIP3   OH225672   5.340   1.756   5.762 -0.7929  0.2177 -0.1467
 1394TIP3    H125673   5.342   1.662   5.782  3.0694 -0.1840 -1.5692
 1394TIP3    H225674   5.425   1.789   5.791 -0.4366  2.3995 -3.1165
 1395TIP3   OH225675   1.721   2.501  14.791 -0.0045 -0.2543  0.0976
 1395TIP3    H125676   1.658   2.465  14.854 -0.0105 -0.9221 -0.2809
 1395TIP3    H225677   1.755   2.424  14.745 -1.3176  0.3181 -1.9896
 1396TIP3   OH225678   1.658   5.146   1.970  0.2665  0.3065  0.2127
 1396TIP3    H125679   1.574   5.104   1.989  1.2117 -1.4928  0.6693
 1396TIP3    H225680   1.703   5.149   2.054  0.0187  2.8819  0.3181
 1397TIP3   OH225681   0.513   2.378  16.541  0.0089 -0.1939 -0.1285
 1397TIP3    H125682   0.435   2.385  16.486 -0.2967 -2.7654 -0.1414
 1397TIP3    H225683   0.586   2.369  16.480  0.1000  0.3314 -0.1034
 1398TIP3   OH225684   3.665   3.715  16.143 -0.3403 -0.3956 -0.2743
 1398TIP3    H125685   3.712   3.634  16.126 -1.6806 -0.9017 -1.8989
 1398TIP3    H225686   3.573   3.694  16.125 -0.6386  1.6601 -1.5024
 1399TIP3   OH225687   0.383   3.211   1.951  0.4261 -0.2667 -0.0725
 1399TIP3    H125688   0.373   3.220   2.046  4.0301 -0.9617  0.5161
 1399TIP3    H225689   0.406   3.119   1.938  2.1843  0.3007 -1.3129
 1400TIP3   OH225690   5.633   4.923   4.309  0.1286 -0.4471 -0.0595
 1400TIP3    H125691   5.560   4.862   4.308 -0.0442 -0.2930 -2.0314
 1400TIP3    H225692   5.710   4.868   4.292  0.3268 -0.4435  0.7795
 1401TIP3   OH225693   1.424   0.391   6.148 -0.5449 -0.1857 -0.5946
 1401TIP3    H125694   1.394   0.309   6.188 -1.5757 -0.2643 -1.4901
 1401TIP3    H225695   1.343   0.436   6.122  0.0297  0.8707 -0.6055
 1402TIP3   OH225696   4.899   5.731  15.571 -0.4979 -0.3950  0.3770
 1402TIP3    H125697   4.846   5.690  15.502  1.4413  0.3482 -1.6614
 1402TIP3    H225698   4.978   5.677  15.576 -0.7386 -0.6608  2.3617
 1403TIP3   OH225699   1.816   3.851   1.372 -0.1932 -0.0968  0.1463
 1403TIP3    H125700   1.842   3.838   1.463 -1.2493 -0.6815  0.3815
 1403TIP3    H225701   1.836   3.768   1.329 -0.6852 -0.1988  0.1015
 1404TIP3   OH225702   1.371   3.738   0.537 -0.1581 -0.2770  0.0391
 1404TIP3    H125703   1.445   3.697   0.493  0.7814 -0.0436  1.3397
 1404TIP3    H225704   1.355   3.683   0.613 -0.6531  0.2425  0.3208
 1405TIP3   OH225705   5.145   2.561  16.250  0.6313 -0.1916  0.1386
 1405TIP3    H125706   5.096   2.550  16.332  0.7387 -0.4478  0.1714
 1405TIP3    H225707   5.101   2.501  16.189  0.2473  0.3591 -0.1273
 1406TIP3   OH225708   2.892   5.115  15.751  0.0228 -0.3108  0.2658
 1406TIP3    H125709   2.980   5.153  15.746 -0.6360  1.2960 -0.0432
 1406TIP3    H225710   2.841   5.168  15.688 -1.5965  0.0942  1.8520
 1407TIP3   OH225711   0.185   3.776  10.663  0.0534  0.1594 -0.0021
 1407TIP3    H125712   0.235   3.819  10.732 -0.4256  1.2743 -0.3291
 1407TIP3    H225713   0.248   3.719  10.619  0.4778 -0.1845  1.0260
 1408TIP3   OH225714   3.211   5.241   3.833  0.2915 -0.0524  0.0795
 1408TIP3    H125715   3.300   5.274   3.818  0.2441  1.0749  1.9044
 1408TIP3    H225716   3.214   5.203   3.921 -0.8277 -0.8058 -0.1851
 1409TIP3   OH225717   3.024   0.265   2.977 -0.1821  0.0051  0.1470
 1409TIP3    H125718   2.937   0.304   2.983 -1.3589 -2.4071  0.0634
 1409TIP3    H225719   3.017   0.201   2.906  0.9814 -1.8103  1.5652
 1410TIP3   OH225720   3.493   3.434  11.365  0.5154  0.1736 -0.2450
 1410TIP3    H125721   3.468   3.451  11.456  2.8683 -0.9675  0.6930
 1410TIP3    H225722   3.410   3.430  11.318 -0.7620  1.0776  1.7721
 1411TIP3   OH225723   2.365   4.607  14.213  0.1037 -0.2637  0.0131
 1411TIP3    H125724   2.419   4.655  14.150  0.5944  0.2612  0.8144
 1411TIP3    H225725   2.275   4.630  14.190  0.3309  1.4146  0.6226
 1412TIP3   OH225726   0.790   0.057  14.452 -0.8546  0.7526  0.4048
 1412TIP3    H125727   0.833   0.140  14.431 -0.3225  0.6855  1.2068
 1412TIP3    H225728   0.774   0.062  14.547  0.6074 -0.7160  0.7680
 1413TIP3   OH225729   2.427   5.099   3.859 -0.4167  0.0573 -0.1686
 1413TIP3    H125730   2.467   5.148   3.787  0.5954 -0.6457 -0.1071
 1413TIP3    H225731   2.495   5.037   3.886 -0.6407  0.5720  1.6580
 1414TIP3   OH225732   0.652   3.377   2.638 -0.6497 -0.3882 -0.0622
 1414TIP3    H125733   0.700   3.339   2.712  0.4823  2.6183  0.8787
 1414TIP3    H225734   0.610   3.455   2.675 -1.7083  0.0951 -2.1752
 1415TIP3   OH225735   2.551   0.471  16.190 -0.1638  0.2538 -0.0215
 1415TIP3    H125736   2.522   0.465  16.099  2.1036 -0.5654 -0.7501
 1415TIP3    H225737   2.609   0.547  16.192  0.1702 -0.0049  0.6260
 1416TIP3   OH225738   4.499   5.609   5.992  0.3898 -0.0986 -0.5372
 1416TIP3    H125739   4.514   5.515   6.002  1.1298  0.0906  0.2075
 1416TIP3    H225740   4.566   5.638   5.930 -0.4313 -0.2084 -1.5129
 1417TIP3   OH225741   1.813   2.822  11.104  0.5222 -0.3059 -0.2691
 1417TIP3    H125742   1.906   2.803  11.100  0.7422  0.8307 -1.2273
 1417TIP3    H225743   1.802   2.898  11.047 -0.5448  1.3442  1.9888
 1418TIP3   OH225744   0.988   0.602  14.641  0.0252 -0.2698  0.2806
 1418TIP3    H125745   1.019   0.638  14.724  0.4311  0.2131 -0.0775
 1418TIP3    H225746   0.958   0.677  14.592  2.5770 -0.0959 -1.2135
 1419TIP3   OH225747   4.841   0.044  13.761  0.2351 -0.0828 -0.1089
 1419TIP3    H125748   4.870   0.097  13.687  1.1872  0.9145  0.9642
 1419TIP3    H225749   4.874   0.089  13.838  0.3994 -1.8135  0.8808
 1420TIP3   OH225750   5.689   0.751   5.141  0.1794  0.0055  0.2072
 1420TIP3    H125751   5.657   0.752   5.051 -1.6328  0.6455  0.8310
 1420TIP3    H225752   5.776   0.790   5.135  0.9619 -1.7843 -1.5359
 1421TIP3   OH225753   2.021   6.011  11.888  0.7867  0.2259 -0.1483
 1421TIP3    H125754   1.993   5.954  11.960 -1.3217  1.3928  0.0264
 1421TIP3    H225755   2.005   5.959  11.809  1.3864 -0.3778  0.1146
 1422TIP3   OH225756   2.970   2.835  10.465 -0.0411  0.0408  0.2278
 1422TIP3    H125757   3.009   2.749  10.478 -1.0007 -0.4353 -0.0373
 1422TIP3    H225758   2.876   2.822  10.479 -0.3960  0.7101 -1.3817
 1423TIP3   OH225759   5.667   1.523  13.747  0.2170 -0.9567  0.0693
 1423TIP3    H125760   5.668   1.605  13.697  1.5574 -0.2495  1.1855
 1423TIP3    H225761   5.574   1.504  13.760 -0.1176  0.1344 -0.6007
 1424TIP3   OH225762   2.924   6.652  14.003 -0.2735 -0.2509 -0.5250
 1424TIP3    H125763   2.978   6.703  13.943 -0.2684  0.9588  0.4721
 1424TIP3    H225764   2.834   6.683  13.986 -0.2865  0.0012 -0.0123
 1425TIP3   OH225765   5.683   4.330  15.558 -0.3190  0.2007  0.4941
 1425TIP3    H125766   5.732   4.280  15.493 -3.5798 -1.8549 -0.6504
 1425TIP3    H225767   5.660   4.412  15.514 -0.4276 -0.1219 -0.0624
 1426TIP3   OH225768   1.915   3.571   5.002 -0.2307 -0.2138  0.3777
 1426TIP3    H125769   1.856   3.629   4.952 -1.2177 -1.9485 -0.5868
 1426TIP3    H225770   1.855   3.516   5.053  0.5998 -1.3171  0.1811
 1427TIP3   OH225771   4.701   4.595   1.046 -0.2208  0.4344  0.0918
 1427TIP3    H125772   4.651   4.677   1.048 -0.1056  0.4967  0.9838
 1427TIP3    H225773   4.724   4.580   1.138  0.5223 -0.1327 -0.1844
 1428TIP3   OH225774   1.591   1.280   4.549  0.0037 -0.4010 -0.4363
 1428TIP3    H125775   1.556   1.341   4.613  0.2982 -1.2782  0.5866
 1428TIP3    H225776   1.514   1.248   4.501 -0.1830  0.4943 -0.7479
 1429TIP3   OH225777   4.219   0.516   0.760  0.5747 -0.1805 -0.1316
 1429TIP3    H125778   4.253   0.594   0.716 -1.0363  0.4578 -0.3370
 1429TIP3    H225779   4.202   0.546   0.850  0.1606 -0.3359 -0.1531
 1430TIP3   OH225780   0.396   0.921   6.911 -0.4278 -0.0150  0.2555
 1430TIP3    H125781   0.406   0.831   6.879 -0.5147  0.7780 -2.1949
 1430TIP3    H225782   0.483   0.960   6.900 -0.6740  0.5292  0.2391
 1431TIP3   OH225783   6.333   2.987   5.312  0.2230  0.6407  0.0928
 1431TIP3    H125784   6.251   2.995   5.361  0.5156  3.3728  0.2616
 1431TIP3    H225785   6.310   3.012   5.223  0.8099  1.1570  0.0828
 1432TIP3   OH225786   2.712   3.039  16.853  0.0274  0.1519 -0.3398
 1432TIP3    H125787   2.762   3.020  16.932 -0.9708 -0.3457  0.1883
 1432TIP3    H225788   2.627   2.998  16.868 -0.6601  1.2433 -1.0725
 1433TIP3   OH225789   5.234   0.829   0.343 -0.1315  0.6465 -0.4989
 1433TIP3    H125790   5.230   0.747   0.293  0.8251 -0.9976  1.9013
 1433TIP3    H225791   5.143   0.850   0.364 -0.3832  0.1854 -1.1117
 1434TIP3   OH225792   2.128   6.198   4.450 -0.0282 -0.1275  0.5205
 1434TIP3    H125793   2.136   6.106   4.474  0.6623 -0.6377 -1.4910
 1434TIP3    H225794   2.190   6.243   4.506  2.1635 -1.3744 -0.7898
 1435TIP3   OH225795   3.730   3.012   0.664  0.1812 -0.2349 -0.0453
 1435TIP3    H125796   3.806   3.035   0.717  0.1363 -0.9288  0.3223
 1435TIP3    H225797   3.655   3.045   0.713  0.2557  0.8874 -0.6406
 1436TIP3   OH225798   3.204   6.442  17.347 -0.5211  0.0316 -0.0341
 1436TIP3    H125799   3.118   6.448  17.306 -0.6317 -0.9997  0.0327
 1436TIP3    H225800   3.188   6.401  17.432 -0.1787  1.4104  0.7286
 1437TIP3   OH225801   1.644   5.146  16.174 -0.0757  0.1033  0.1207
 1437TIP3    H125802   1.591   5.076  16.136 -0.1640 -0.6773  1.5938
 1437TIP3    H225803   1.734   5.124  16.150 -0.2902  0.8889 -1.5385
 1438TIP3   OH225804   2.396   0.677   3.170 -0.3004  0.2006  0.1435
 1438TIP3    H125805   2.337   0.658   3.243 -0.3447 -1.8584 -0.3549
 1438TIP3    H225806   2.478   0.633   3.193 -0.5946 -1.2750 -1.3919
 1439TIP3   OH225807   2.496   6.139   5.192  0.1748 -0.2767 -0.2430
 1439TIP3    H125808   2.466   6.224   5.160 -0.0948 -1.3492 -3.1650
 1439TIP3    H225809   2.418   6.098   5.229 -0.0976  0.0703 -0.4289
 1440TIP3   OH225810   3.661   6.489   4.802  0.0580 -0.5012  0.0437
 1440TIP3    H125811   3.756   6.481   4.812  0.4862  2.5364 -0.6125
 1440TIP3    H225812   3.649   6.515   4.711 -1.2789  0.4116  0.4573
 1441TIP3   OH225813   3.343   0.714  13.471  0.3254 -0.2351 -0.3758
 1441TIP3    H125814   3.310   0.714  13.381  0.5225 -0.7953 -0.4499
 1441TIP3    H225815   3.406   0.786  13.474 -3.7371  3.7300  0.8430
 1442TIP3   OH225816   0.471   3.779  14.455  0.6683  0.3540 -0.3587
 1442TIP3    H125817   0.392   3.823  14.422  0.0542 -0.2280  0.2978
 1442TIP3    H225818   0.505   3.840  14.521  1.1721  0.9287 -1.1422
 1443TIP3   OH225819   3.885   2.524   3.658  0.9091 -0.4461  0.2681
 1443TIP3    H125820   3.807   2.478   3.627 -0.0249  2.2256 -1.7832
 1443TIP3    H225821   3.856   2.573   3.734  0.7827 -0.0683 -0.0207
 1444TIP3   OH225822   4.977   1.038  12.938 -0.4140  0.0949 -0.3147
 1444TIP3    H125823   4.978   1.042  12.842  0.3690 -0.2567 -0.3295
 1444TIP3    H225824   5.062   1.073  12.964  0.1328 -1.5050  0.1741
 1445TIP3   OH225825   2.321   0.650   1.186 -0.2349 -0.3679  0.2418
 1445TIP3    H125826   2.233   0.651   1.224  0.0316  2.9696  1.0720
 1445TIP3    H225827   2.352   0.740   1.194  3.2695 -1.3922 -0.1224
 1446TIP3   OH225828   0.879   1.590  13.560 -0.3901  0.2441  0.4058
 1446TIP3    H125829   0.937   1.565  13.488  0.1286 -0.9286  1.2182
 1446TIP3    H225830   0.813   1.521  13.562 -0.2298  0.1126  1.2420
 1447TIP3   OH225831   2.896   2.951  12.566  1.2386 -0.8707  0.2338
 1447TIP3    H125832   2.925   3.036  12.531 -0.1552 -0.7692 -0.7891
 1447TIP3    H225833   2.810   2.969  12.603  1.2617 -1.7004  0.7119
 1448TIP3   OH225834   2.850   6.192   6.072  0.4581 -0.0216 -0.7744
 1448TIP3    H125835   2.759   6.164   6.058  0.4514  0.5595 -1.9875
 1448TIP3    H225836   2.901   6.112   6.060  0.1292 -0.2977 -0.3601
 1449TIP3   OH225837   2.541   4.769   4.963 -0.1126 -0.2359 -0.4035
 1449TIP3    H125838   2.618   4.713   4.955 -0.0853 -0.0952 -1.3298
 1449TIP3    H225839   2.475   4.727   4.906 -0.3849  0.1790 -0.4019
 1450TIP3   OH225840   3.506   3.122  13.780 -0.1510  0.2543 -0.3065
 1450TIP3    H125841   3.568   3.066  13.733 -1.5894 -0.8214 -1.0127
 1450TIP3    H225842   3.501   3.083  13.868  0.8102  0.8841  0.0441
 1451TIP3   OH225843   1.246   1.119  17.186 -0.2137 -0.2608 -0.6257
 1451TIP3    H125844   1.155   1.116  17.157 -1.0056  0.1590  1.5826
 1451TIP3    H225845   1.279   1.031  17.173 -0.7953 -0.3244 -1.8064
 1452TIP3   OH225846   6.696   5.031  15.957 -0.4817  0.2389  0.1913
 1452TIP3    H125847   6.786   5.059  15.973 -0.9280  2.5973 -0.9623
 1452TIP3    H225848   6.704   4.955  15.899  0.7835  0.8174 -0.4313
 1453TIP3   OH225849   2.013   0.885   0.126 -0.3009  0.1471  0.8256
 1453TIP3    H125850   2.043   0.874   0.217  1.4996 -1.2267  0.1420
 1453TIP3    H225851   1.918   0.887   0.132 -0.2019  2.1657  2.9160
 1454TIP3   OH225852   0.308   1.911   2.366 -0.1074 -0.0815 -0.2329
 1454TIP3    H125853   0.353   1.904   2.450 -0.5334 -1.7093 -0.1222
 1454TIP3    H225854   0.268   1.826   2.352  0.4536 -0.0624 -2.3801
 1455TIP3   OH225855   5.463   2.269  16.786 -0.1330  0.2613 -0.4677
 1455TIP3    H125856   5.504   2.192  16.826 -2.5405 -0.1035  1.6124
 1455TIP3    H225857   5.382   2.235  16.748 -1.4676  1.7785  0.8827
 1456TIP3   OH225858   5.541   1.358  11.772  0.3650  0.2432  0.0547
 1456TIP3    H125859   5.482   1.403  11.711  1.0307  2.6311  1.0484
 1456TIP3    H225860   5.486   1.293  11.815 -1.1510  1.3400 -0.1442
 1457TIP3   OH225861   2.160   3.949   0.715 -0.0349 -0.0027 -0.4205
 1457TIP3    H125862   2.167   3.862   0.754  0.7425 -0.2293 -1.0447
 1457TIP3    H225863   2.229   3.951   0.649  1.2395  1.7782  0.8770
 1458TIP3   OH225864   6.193   4.221  15.778 -0.5009 -0.7372  0.0659
 1458TIP3    H125865   6.286   4.220  15.799 -0.7101 -3.4588  1.2848
 1458TIP3    H225866   6.156   4.286  15.838  0.6487  0.9420 -0.9565
 1459TIP3   OH225867   0.775   3.199   5.441 -0.2887 -0.1033  0.2487
 1459TIP3    H125868   0.816   3.181   5.526  1.2095  1.3256 -0.1026
 1459TIP3    H225869   0.683   3.212   5.461  0.0853  0.5498  1.7369
 1460TIP3   OH225870   1.637   5.798   3.518  0.1279 -0.5144 -0.1215
 1460TIP3    H125871   1.550   5.780   3.554 -0.0347  1.3953  0.5783
 1460TIP3    H225872   1.621   5.819   3.426 -0.1128 -0.4002 -0.0545
 1461TIP3   OH225873   3.299   1.477  10.954 -0.2016 -0.4954  0.2194
 1461TIP3    H125874   3.203   1.477  10.951 -0.1695 -0.9368 -1.9660
 1461TIP3    H225875   3.323   1.386  10.972 -0.1895 -0.8802 -1.6038
 1462TIP3   OH225876   4.416   2.697  13.726 -0.2284 -0.0031 -0.2443
 1462TIP3    H125877   4.392   2.726  13.814  2.7169  0.3509  0.5504
 1462TIP3    H225878   4.379   2.764  13.669 -1.0712  0.4772  0.8166
 1463TIP3   OH225879   3.115   1.973  12.484  0.5929  0.9467  0.0310
 1463TIP3    H125880   3.060   2.008  12.555 -1.5397  1.3047 -1.6846
 1463TIP3    H225881   3.189   1.933  12.529 -0.8430  0.8247  2.4937
 1464TIP3   OH225882   2.422   2.398   2.706 -0.3039  0.2183  0.0386
 1464TIP3    H125883   2.436   2.308   2.735  0.2323  0.9392  2.1633
 1464TIP3    H225884   2.492   2.415   2.643 -0.1467 -0.6915 -0.0431
 1465TIP3   OH225885   1.779   4.982   1.780  0.4057 -0.0537 -0.6503
 1465TIP3    H125886   1.691   5.012   1.805 -0.0225 -1.3990 -0.4874
 1465TIP3    H225887   1.835   5.005   1.854 -0.2628 -1.2342  0.2587
 1466TIP3   OH225888   2.187   5.368   0.734 -0.8927 -0.2386  0.4465
 1466TIP3    H125889   2.276   5.374   0.698 -0.4286  1.3384  1.7320
 1466TIP3    H225890   2.130   5.384   0.659 -0.1436 -1.7090 -0.4907
 1467TIP3   OH225891   1.526   0.763   2.985 -0.3652 -0.1825  0.3230
 1467TIP3    H125892   1.544   0.714   3.066  0.0492 -1.9027 -0.7642
 1467TIP3    H225893   1.612   0.785   2.951 -0.5108 -0.4292 -0.2101
 1468TIP3   OH225894   0.951   5.921   1.601 -0.0026  0.1827  0.0412
 1468TIP3    H125895   0.941   5.950   1.692  0.1182  1.2948 -0.2804
 1468TIP3    H225896   0.981   5.999   1.554  1.1915 -0.6910 -0.7234
 1469TIP3   OH225897   3.587   5.680  12.552 -0.0582 -0.7880 -0.0341
 1469TIP3    H125898   3.658   5.672  12.488  0.5774  0.7941  0.4524
 1469TIP3    H225899   3.540   5.759  12.526 -0.2212 -0.5194  1.0437
 1470TIP3   OH225900   5.567   0.864  15.445  0.3594 -0.1315  0.2316
 1470TIP3    H125901   5.484   0.911  15.437  0.9613  1.2592  1.5360
 1470TIP3    H225902   5.630   0.920  15.400  0.6773 -0.9834 -0.4044
 1471TIP3   OH225903   1.063   3.208   2.166 -0.5423  0.0920 -0.4286
 1471TIP3    H125904   1.013   3.267   2.223 -1.6592 -1.1744 -0.0571
 1471TIP3    H225905   1.142   3.188   2.217 -0.8057  0.1736  0.0147
 1472TIP3   OH225906   5.288   1.447  15.339 -0.2222  0.1290  0.1246
 1472TIP3    H125907   5.214   1.481  15.389  1.4427  1.3853  1.8945
 1472TIP3    H225908   5.298   1.508  15.266  0.3925  1.3045  1.1480
 1473TIP3   OH225909   6.566   4.567  17.510  0.6534 -0.3551  0.7534
 1473TIP3    H125910   6.560   4.476  17.539  1.3072 -0.3127  1.0291
 1473TIP3    H225911   6.598   4.561  17.420  1.0694 -0.3805  0.9031
 1474TIP3   OH225912   4.546   4.574   4.299 -0.8071  0.4630  0.2828
 1474TIP3    H125913   4.502   4.658   4.288 -0.0674  0.6906 -1.1283
 1474TIP3    H225914   4.493   4.512   4.249  0.3247  0.7112 -1.3119
 1475TIP3   OH225915   2.098   1.894  16.189  0.2078  0.7450 -0.2449
 1475TIP3    H125916   2.156   1.819  16.171  0.7118  0.7334  1.2354
 1475TIP3    H225917   2.020   1.854  16.228  1.0414  1.0068  1.8649
 1476TIP3   OH225918   2.940   3.796   5.887  0.4344  0.4278  0.0838
 1476TIP3    H125919   2.868   3.840   5.933  0.6330  0.5008  0.3210
 1476TIP3    H225920   2.950   3.847   5.806  0.6888  0.8427  0.3753
 1477TIP3   OH225921   1.612   1.763  14.200 -0.1107 -0.2509 -0.0372
 1477TIP3    H125922   1.580   1.844  14.161  2.6928  1.2451  0.5346
 1477TIP3    H225923   1.591   1.771  14.293  2.1559  0.9774  0.4337
 1478TIP3   OH225924   5.748   5.241  12.109  0.3536 -0.2095 -0.2915
 1478TIP3    H125925   5.835   5.279  12.114  0.1056  0.8176 -2.5473
 1478TIP3    H225926   5.758   5.165  12.051  0.0741 -1.2824  0.9960
 1479TIP3   OH225927   5.710   5.102  14.649  0.6194  0.1534  0.0673
 1479TIP3    H125928   5.679   5.163  14.583  2.5289  0.0241 -1.0206
 1479TIP3    H225929   5.685   5.015  14.616 -0.6858  0.2143  0.8262
 1480TIP3   OH225930   2.917   3.818  15.146 -0.0206 -0.1219 -0.1352
 1480TIP3    H125931   2.923   3.843  15.239 -1.2901 -0.2941  0.0162
 1480TIP3    H225932   3.005   3.788  15.124  0.8651  1.8185  0.4433
 1481TIP3   OH225933   5.201   0.428  11.900  0.2827 -0.2502 -0.2533
 1481TIP3    H125934   5.125   0.371  11.912 -1.3409  1.6442 -0.9643
 1481TIP3    H225935   5.277   0.371  11.912 -1.2465 -2.2739  0.1978
 1482TIP3   OH225936   1.613   2.893   2.456  0.5525  0.4057  0.4766
 1482TIP3    H125937   1.703   2.925   2.470  0.4809  0.0499  1.8218
 1482TIP3    H225938   1.583   2.867   2.542 -0.6653 -0.0031 -0.0546
 1483TIP3   OH225939   3.766   1.640   3.396 -0.2269 -0.2798 -0.5868
 1483TIP3    H125940   3.848   1.608   3.357  0.1080 -1.9724  1.3412
 1483TIP3    H225941   3.705   1.568   3.387 -1.3731  0.7665 -1.4873
 1484TIP3   OH225942   3.230   0.566  16.682 -0.5164 -0.2470 -0.0233
 1484TIP3    H125943   3.244   0.660  16.681  1.0472 -0.4582  0.3504
 1484TIP3    H225944   3.207   0.545  16.773 -1.0802 -0.2077 -0.1533
 1485TIP3   OH225945   5.893   0.414   0.798 -0.2780  0.4389 -0.5196
 1485TIP3    H125946   5.873   0.397   0.890  0.4015 -1.0378 -0.6133
 1485TIP3    H225947   5.937   0.499   0.798 -0.2796  0.4457  0.5158
 1486TIP3   OH225948   0.532   2.282   5.805  0.1340  0.2956 -0.2415
 1486TIP3    H125949   0.490   2.196   5.798 -0.5457  0.4087  1.8118
 1486TIP3    H225950   0.611   2.274   5.750  0.8108 -2.1057  0.9202
 1487TIP3   OH225951   5.429   0.114   3.860  0.0429  0.0875 -0.2235
 1487TIP3    H125952   5.502   0.066   3.822  0.3122  1.8521 -2.0925
 1487TIP3    H225953   5.466   0.160   3.935  0.5090 -0.1479 -0.3076
 1488TIP3   OH225954   5.410   3.709   1.870  0.1109 -0.3455  0.0758
 1488TIP3    H125955   5.343   3.764   1.827 -0.6829 -1.6888 -0.4601
 1488TIP3    H225956   5.493   3.742   1.835 -0.4286 -0.4158 -1.3665
 1489TIP3   OH225957   5.905   1.210  15.108  0.2738  0.1155  0.2386
 1489TIP3    H125958   5.980   1.158  15.136 -0.0699 -0.5210 -0.0226
 1489TIP3    H225959   5.829   1.167  15.146  0.1677  1.9465  2.3007
 1490TIP3   OH225960   6.337   1.259   0.840  0.5972 -0.1992 -0.8931
 1490TIP3    H125961   6.310   1.168   0.827 -0.6292  0.3979 -2.9779
 1490TIP3    H225962   6.424   1.264   0.800  1.1985 -0.7148  0.3219
 1491TIP3   OH225963   5.595   1.626  14.777  0.1291 -0.2619  0.6504
 1491TIP3    H125964   5.531   1.564  14.811 -1.5042  1.3126  0.5752
 1491TIP3    H225965   5.632   1.582  14.700 -0.5528 -1.3605  0.9188
 1492TIP3   OH225966   0.982   0.526   1.032 -0.5652 -0.7201 -0.1753
 1492TIP3    H125967   0.962   0.516   1.125  1.0857  4.0070  0.9977
 1492TIP3    H225968   0.900   0.557   0.993 -0.8095 -1.0507  0.0695
 1493TIP3   OH225969   4.702   2.252  13.678 -0.9747 -0.0720 -0.0217
 1493TIP3    H125970   4.647   2.178  13.704  0.1506 -0.3634  1.7001
 1493TIP3    H225971   4.723   2.296  13.760 -0.4813  1.3495 -0.8857
 1494TIP3   OH225972   3.671   0.234  17.232  0.0530  0.1631  0.4111
 1494TIP3    H125973   3.602   0.212  17.169 -0.7519  0.1142  1.2872
 1494TIP3    H225974   3.713   0.312  17.196  2.4528 -2.1887 -2.3866
 1495TIP3   OH225975   1.851   6.636   3.710 -0.4456 -0.1129  0.6053
 1495TIP3    H125976   1.799   6.680   3.777 -1.1135 -0.7925  0.5586
 1495TIP3    H225977   1.828   6.543   3.720 -0.2446 -0.2681 -0.2963
 1496TIP3   OH225978   6.019   0.276   6.007 -0.0115 -0.5161  0.0755
 1496TIP3    H125979   6.005   0.352   5.950  0.4670  1.2182  2.1415
 1496TIP3    H225980   5.936   0.228   6.004 -0.2708 -0.0404 -1.4072
 1497TIP3   OH225981   6.622   3.889   2.671  0.5389 -0.0722  0.3780
 1497TIP3    H125982   6.561   3.834   2.621  0.3946  0.9347 -0.6132
 1497TIP3    H225983   6.692   3.910   2.608  1.0450  0.1350  1.0058
 1498TIP3   OH225984   3.555   2.965  13.017  0.1199  0.5432 -0.2297
 1498TIP3    H125985   3.625   2.992  12.958  1.0965 -0.3334  0.4915
 1498TIP3    H225986   3.493   2.918  12.962  0.6918  0.2989 -0.6719
 1499TIP3   OH225987   0.068   1.955   4.825  0.1893  0.6751  0.5070
 1499TIP3    H125988   0.144   2.001   4.789  0.8193 -0.4318  0.3959
 1499TIP3    H225989   0.012   1.938   4.749  0.8614 -0.4215  0.2405
 1500TIP3   OH225990   4.349   2.502  15.810 -0.1811 -0.6116  0.4442
 1500TIP3    H125991   4.423   2.559  15.787 -0.1898 -0.9986 -0.6203
 1500TIP3    H225992   4.383   2.447  15.881  1.2986 -2.1400 -1.2954
 1501TIP3   OH225993   1.173   2.851  11.908 -0.0959 -0.0117 -0.6560
 1501TIP3    H125994   1.244   2.866  11.969 -0.6161  0.5382 -0.1677
 1501TIP3    H225995   1.168   2.931  11.856 -2.0272  1.0668  1.0664
 1502TIP3   OH225996   4.834   3.786  16.103 -0.6377 -0.1070 -0.4493
 1502TIP3    H125997   4.876   3.708  16.138  1.6061  0.9329 -0.6459
 1502TIP3    H225998   4.820   3.842  16.179  0.4917  0.4799 -0.6504
 1503TIP3   OH225999   0.001   6.505   0.965  0.1440  0.0454  0.2840
 1503TIP3    H126000  -0.089   6.479   0.983  0.1314 -0.2353 -0.1751
 1503TIP3    H226001  -0.002   6.541   0.876  0.3953  0.4833  0.4481
 1504TIP3   OH226002   1.457   2.275   0.569 -0.2246  0.0468 -0.5125
 1504TIP3    H126003   1.496   2.324   0.641 -1.3943  0.5959 -0.2378
 1504TIP3    H226004   1.416   2.199   0.611  0.0158 -0.2013 -0.7247
 1505TIP3   OH226005   1.122   2.114   3.305 -0.3311 -0.4174 -0.0764
 1505TIP3    H126006   1.155   2.158   3.227 -0.6808 -1.0195 -0.5722
 1505TIP3    H226007   1.028   2.110   3.292 -0.3299 -1.0751  0.0810
 1506TIP3   OH226008   5.264   5.896   3.179  0.2044 -0.4780  0.0962
 1506TIP3    H126009   5.293   5.890   3.088  2.3823 -0.3538  0.7308
 1506TIP3    H226010   5.237   5.806   3.201 -2.5646 -0.0879 -1.2785
 1507TIP3   OH226011   1.061   6.498  13.842 -0.4606  0.6780  0.5403
 1507TIP3    H126012   1.099   6.455  13.765  0.6860 -0.8738  1.8972
 1507TIP3    H226013   1.109   6.581  13.848 -0.6468  0.8782 -0.4667
 1508TIP3   OH226014   5.377   3.078  13.101  0.3707  0.4492 -0.1336
 1508TIP3    H126015   5.439   3.059  13.171 -1.0883  1.5673  1.5503
 1508TIP3    H226016   5.291   3.059  13.139 -0.3921 -2.0892 -2.7240
 1509TIP3   OH226017   6.262   5.913  12.631 -0.1632  0.7069  0.0613
 1509TIP3    H126018   6.194   5.978  12.614 -0.0258  0.3470 -2.0764
 1509TIP3    H226019   6.270   5.863  12.550 -0.2662 -2.0344  1.6088
 1510TIP3   OH226020   3.371   4.782   4.508 -0.1565 -0.1302  0.3155
 1510TIP3    H126021   3.455   4.753   4.472  0.7234 -0.2542  2.3758
 1510TIP3    H226022   3.393   4.846   4.575 -1.8864  2.0469 -1.0468
 1511TIP3   OH226023   0.666   6.198   3.701  0.5149 -0.1688  0.4082
 1511TIP3    H126024   0.655   6.278   3.650  0.4167  0.2911  1.1428
 1511TIP3    H226025   0.759   6.178   3.696  0.2088 -1.3737 -1.7922
 1512TIP3   OH226026   0.004   5.503   5.575 -0.3182  0.3428 -0.0316
 1512TIP3    H126027  -0.047   5.522   5.653 -0.3167 -1.2119  0.3876
 1512TIP3    H226028  -0.036   5.423   5.538  1.0468 -0.2338 -0.3459
 1513TIP3   OH226029   3.528   4.890   1.338  0.3360 -0.7158 -0.0104
 1513TIP3    H126030   3.473   4.860   1.266  0.5064  0.6504 -0.7368
 1513TIP3    H226031   3.528   4.817   1.399 -3.6115 -0.2825  0.8189
 1514TIP3   OH226032   4.289   5.696  13.434 -0.0245 -0.3468 -0.0799
 1514TIP3    H126033   4.246   5.754  13.371  0.0408  0.5807  0.6870
 1514TIP3    H226034   4.356   5.651  13.384  1.4044  1.8576 -0.3095
 1515TIP3   OH226035   1.231   1.173   3.134 -0.7001  0.9040  0.2976
 1515TIP3    H126036   1.225   1.191   3.227 -0.0121 -0.0746  0.5407
 1515TIP3    H226037   1.289   1.241   3.100  0.9433 -0.0978  1.0021
 1516TIP3   OH226038   2.695   5.078   0.972  0.4338  0.1681  0.2606
 1516TIP3    H126039   2.775   5.114   0.934  0.4958 -0.1371  0.1037
 1516TIP3    H226040   2.676   5.136   1.046  0.1764  0.9087 -0.3664
 1517TIP3   OH226041   5.535   2.672  15.980 -0.2539  0.0655 -0.7790
 1517TIP3    H126042   5.606   2.607  15.975 -0.4617 -0.1150 -1.4018
 1517TIP3    H226043   5.527   2.690  16.074  2.1390  1.7811 -0.8044
 1518TIP3   OH226044   6.422   2.346  14.517 -0.4053 -0.5994  0.1542
 1518TIP3    H126045   6.397   2.367  14.606 -0.0231  2.3617 -0.3130
 1518TIP3    H226046   6.342   2.314  14.475 -0.7878 -1.1846  1.3149
 1519TIP3   OH226047   2.707   0.593   5.802  0.2802 -0.5601  0.2063
 1519TIP3    H126048   2.670   0.646   5.872 -0.1795 -0.1422 -0.3505
 1519TIP3    H226049   2.801   0.614   5.802  0.2087 -0.2440  0.4132
 1520TIP3   OH226050   3.520   1.476   1.887 -0.0922 -0.1530  0.0010
 1520TIP3    H126051   3.614   1.483   1.902  0.1414 -0.5991 -1.1254
 1520TIP3    H226052   3.506   1.519   1.802 -0.3688 -2.8834 -1.4480
 1521TIP3   OH226053   4.674   1.331  13.992  0.2398 -0.0655 -0.5096
 1521TIP3    H126054   4.586   1.367  14.007 -0.0474 -1.1841  0.6547
 1521TIP3    H226055   4.677   1.252  14.046  2.4525  0.7041  0.6207
 1522TIP3   OH226056   0.983   5.479   3.655 -0.4226 -0.1596  0.1340
 1522TIP3    H126057   1.007   5.439   3.739  0.2200 -1.1895 -0.5301
 1522TIP3    H226058   1.053   5.543   3.638  0.4394 -1.2363 -0.4794
 1523TIP3   OH226059   4.303   2.704  17.425 -0.4433  0.3682 -0.3437
 1523TIP3    H126060   4.292   2.648  17.348  0.1234 -0.1940 -0.0295
 1523TIP3    H226061   4.246   2.665  17.492 -0.3669  0.4141 -0.2509
 1524TIP3   OH226062   0.412   4.517   1.773 -0.1413  0.0394 -0.2433
 1524TIP3    H126063   0.503   4.542   1.758 -0.1726 -0.5507 -1.5828
 1524TIP3    H226064   0.401   4.522   1.868  0.6194  2.3390 -0.2089
 1525TIP3   OH226065   6.511   3.180  11.636  0.0574 -0.1236 -0.8946
 1525TIP3    H126066   6.573   3.249  11.612 -0.9067  0.7171 -1.0428
 1525TIP3    H226067   6.564   3.100  11.639  1.3776  0.7490  0.1763
 1526TIP3   OH226068   3.374   1.477   5.534  0.4115 -0.1373  0.3014
 1526TIP3    H126069   3.421   1.406   5.490  1.0344 -0.0242  0.7772
 1526TIP3    H226070   3.313   1.510   5.468 -0.1080 -1.3181  0.1738
 1527TIP3   OH226071   1.387   5.676  14.186 -0.3087 -0.1681  0.6596
 1527TIP3    H126072   1.354   5.764  14.204 -2.7318 -0.7001 -0.8237
 1527TIP3    H226073   1.309   5.624  14.170  1.0944 -2.5287  1.0590
 1528TIP3   OH226074   3.860   2.384  13.279 -0.2999  0.1479 -0.2032
 1528TIP3    H126075   3.818   2.304  13.248  0.3091  0.8111 -2.9718
 1528TIP3    H226076   3.796   2.453  13.264 -0.9021  0.2440  2.3655
 1529TIP3   OH226077   0.069   3.084   1.494 -0.7742  0.2421  0.0321
 1529TIP3    H126078   0.160   3.064   1.517 -0.5152  0.6825 -0.5647
 1529TIP3    H226079   0.048   3.021   1.425 -0.8658  0.2496  0.0540
 1530TIP3   OH226080   4.351   4.109  11.598 -0.1819 -0.0717  0.2820
 1530TIP3    H126081   4.312   4.182  11.551  1.6706  1.0964  0.4363
 1530TIP3    H226082   4.406   4.065  11.533 -1.6460 -1.6962  0.0588
 1531TIP3   OH226083   4.056   1.623   0.138 -0.6988 -0.1915  0.0704
 1531TIP3    H126084   4.108   1.560   0.188  1.0600  1.8890  1.0541
 1531TIP3    H226085   4.018   1.572   0.067  1.6799 -2.1044  0.0434
 1532TIP3   OH226086   0.994   4.882   4.671 -0.4566 -0.1439 -0.1460
 1532TIP3    H126087   1.060   4.820   4.638 -0.4275 -0.0217 -0.3181
 1532TIP3    H226088   0.976   4.852   4.760 -0.1801 -0.1875 -0.1035
 1533TIP3   OH226089   4.466   0.886  12.355 -0.5225 -0.3818  0.1168
 1533TIP3    H126090   4.470   0.831  12.433 -1.0428  0.5949  0.8559
 1533TIP3    H226091   4.509   0.834  12.287  0.5142 -0.9873  1.2015
 1534TIP3   OH226092   2.041   4.147  12.869  0.1879 -0.3756  0.7057
 1534TIP3    H126093   2.093   4.202  12.811  0.1585 -0.5105  0.5514
 1534TIP3    H226094   1.951   4.161  12.842 -0.0141  1.1381  2.0540
 1535TIP3   OH226095   6.772   3.860  16.548 -0.2854  0.3925  0.6277
 1535TIP3    H126096   6.840   3.907  16.499  2.4414 -1.5138  2.2978
 1535TIP3    H226097   6.716   3.822  16.480  0.2865  2.0001 -0.8356
 1536TIP3   OH226098   2.120   4.773  15.970  0.4311  0.3243  0.4670
 1536TIP3    H126099   2.061   4.698  15.957  1.9485 -0.9373  0.5317
 1536TIP3    H226100   2.138   4.805  15.882 -0.5073  0.8761  0.4586
 1537TIP3   OH226101   3.369   4.076   2.673  0.0591  0.2921  0.0284
 1537TIP3    H126102   3.296   4.115   2.623  1.0215  0.8053 -1.0208
 1537TIP3    H226103   3.446   4.094   2.620  0.8691 -0.8872  0.7676
 1538TIP3   OH226104   1.264   3.953   3.839  0.7552 -0.2267 -0.0517
 1538TIP3    H126105   1.331   3.930   3.904  0.0242 -0.5825  0.5887
 1538TIP3    H226106   1.290   4.040   3.808  1.3789 -0.2588  0.3634
 1539TIP3   OH226107   0.213   2.223   3.376 -0.3841 -0.0380 -0.1157
 1539TIP3    H126108   0.182   2.162   3.443  0.9472  1.4253  1.9286
 1539TIP3    H226109   0.255   2.167   3.311 -1.4575 -1.4801  0.3599
 1540TIP3   OH226110   5.245   6.176  11.591 -0.1335 -0.0265  0.0056
 1540TIP3    H126111   5.322   6.128  11.618  0.0254  0.2437  0.0416
 1540TIP3    H226112   5.204   6.205  11.672  1.2613  2.2304  0.0087
 1541TIP3   OH226113   5.952   4.064  11.992 -0.2979 -0.2023  0.1336
 1541TIP3    H126114   5.920   4.001  11.928 -2.1126 -0.1502  0.9144
 1541TIP3    H226115   5.877   4.122  12.008  1.6203  3.1132 -1.5934
 1542TIP3   OH226116   4.864   0.721  12.762 -0.5017  0.2771  0.0327
 1542TIP3    H126117   4.926   0.742  12.831  0.3328 -0.6570 -0.4150
 1542TIP3    H226118   4.820   0.642  12.793 -0.1046 -0.1601 -0.5066
 1543TIP3   OH226119   1.238   5.287  15.789  0.2625 -0.0476  0.1229
 1543TIP3    H126120   1.272   5.368  15.751  1.8283 -0.7781 -0.0792
 1543TIP3    H226121   1.252   5.221  15.721 -0.4721 -0.6124  0.5061
 1544TIP3   OH226122   4.648   0.686   4.855  0.4926 -0.1869  0.1713
 1544TIP3    H126123   4.660   0.598   4.892  2.4291 -0.1502 -0.2558
 1544TIP3    H226124   4.590   0.673   4.780  0.9497 -1.1757 -0.0343
 1545TIP3   OH226125   6.354   2.968   4.596 -0.1624  0.4163 -0.1183
 1545TIP3    H126126   6.415   2.934   4.661 -0.4504  1.5092  0.7510
 1545TIP3    H226127   6.294   2.895   4.580 -0.0221  0.0883  0.7709
 1546TIP3   OH226128   3.335   3.384  11.609 -0.3342  0.3751  0.5180
 1546TIP3    H126129   3.257   3.422  11.568 -0.2358 -0.1113 -0.1439
 1546TIP3    H226130   3.317   3.290  11.611  0.5497  0.1737 -0.3547
 1547TIP3   OH226131   6.066   1.308   6.163 -0.0844 -0.9787 -0.4352
 1547TIP3    H126132   6.135   1.285   6.226 -1.0722 -0.5567  0.8235
 1547TIP3    H226133   6.097   1.271   6.080  1.6908 -0.7453  0.0773
 1548TIP3   OH226134   4.902   1.401  16.572  0.0462  0.5466  0.3969
 1548TIP3    H126135   4.970   1.468  16.579  0.0470  0.5082  0.7515
 1548TIP3    H226136   4.835   1.429  16.635  0.4618 -0.2801  1.2223
 1549TIP3   OH226137   6.407   6.294  10.526  0.7746 -0.2893  0.3063
 1549TIP3    H126138   6.324   6.331  10.496  0.8443 -0.2548  0.1554
 1549TIP3    H226139   6.385   6.248  10.607  0.2879 -1.7128 -0.6002
 1550TIP3   OH226140   4.012   4.647  15.268  0.0905 -0.1165  0.4584
 1550TIP3    H126141   3.944   4.605  15.216  0.6181 -0.6320  0.1650
 1550TIP3    H226142   4.052   4.576  15.318  0.9692  0.0188 -0.0137
 1551TIP3   OH226143   6.020   5.282   0.202  0.4301  0.0123  0.8942
 1551TIP3    H126144   6.035   5.360   0.148 -0.5132 -0.4869 -0.1431
 1551TIP3    H226145   6.107   5.244   0.214  0.4612 -2.1208 -3.8496
 1552TIP3   OH226146   1.551   0.217   4.749 -0.1979 -0.1136 -0.0052
 1552TIP3    H126147   1.626   0.273   4.770  1.2463 -1.5306 -1.1482
 1552TIP3    H226148   1.488   0.276   4.707  0.6640  0.9310  0.1351
 1553TIP3   OH226149   6.720   1.686  12.765 -0.3046  0.6013 -0.1970
 1553TIP3    H126150   6.658   1.754  12.789  0.4212  1.6844 -1.2730
 1553TIP3    H226151   6.802   1.712  12.808 -0.0241  0.4080 -0.6103
 1554TIP3   OH226152   2.210   4.314   1.247  0.4113  0.1421 -0.0586
 1554TIP3    H126153   2.224   4.350   1.335 -1.1616 -0.6895  0.5681
 1554TIP3    H226154   2.224   4.220   1.257 -2.8929 -0.4369  0.1071
 1555TIP3   OH226155   3.259   4.107  15.445 -0.0926  0.0097 -0.5946
 1555TIP3    H126156   3.200   4.129  15.374 -2.0299  0.9980  1.2094
 1555TIP3    H226157   3.210   4.044  15.499  1.0551 -0.2365  0.2237
 1556TIP3   OH226158   3.632   0.141   3.941 -0.8499 -0.5001  0.1837
 1556TIP3    H126159   3.660   0.223   3.981  0.7439 -0.0749 -1.6261
 1556TIP3    H226160   3.571   0.167   3.872 -0.3871 -0.8066 -0.3555
 1557TIP3   OH226161   5.413   1.878  11.642  0.2743  0.0916  0.3901
 1557TIP3    H126162   5.368   1.954  11.677 -0.0833  0.4378 -0.7876
 1557TIP3    H226163   5.405   1.812  11.711 -1.4609  0.3597  0.4922
 1558TIP3   OH226164   1.547   5.753   1.638  0.3465  0.0826  0.0938
 1558TIP3    H126165   1.461   5.716   1.652  0.0265 -0.2620 -2.2822
 1558TIP3    H226166   1.542   5.841   1.676 -1.0796  0.1016 -0.0848
 1559TIP3   OH226167   3.373   6.065  12.546  0.5274 -0.2402 -0.3942
 1559TIP3    H126168   3.403   6.154  12.566 -0.1388 -0.0599 -0.1636
 1559TIP3    H226169   3.424   6.039  12.470  0.2261  0.6141 -0.8993
 1560TIP3   OH226170   0.974   4.789  15.772  0.1892 -0.2036  0.4008
 1560TIP3    H126171   0.890   4.817  15.809  0.8201  1.1859  0.8632
 1560TIP3    H226172   0.973   4.825  15.683  1.2830  2.0736  1.2126
 1561TIP3   OH226173   6.265   5.346  16.139 -0.1671  0.4541 -0.3713
 1561TIP3    H126174   6.264   5.411  16.209 -0.3427  0.2765 -0.2050
 1561TIP3    H226175   6.331   5.377  16.078  0.5107  0.2415  0.2383
 1562TIP3   OH226176   2.316   3.811  14.336 -0.2885 -0.1736  0.2554
 1562TIP3    H126177   2.287   3.832  14.248 -2.1425 -1.1372  0.5909
 1562TIP3    H226178   2.338   3.896  14.375  0.6519  0.2553 -1.1276
 1563TIP3   OH226179   6.263   0.147  14.158 -0.2394  0.3077  0.2787
 1563TIP3    H126180   6.329   0.215  14.168  0.2418 -0.3448  1.7806
 1563TIP3    H226181   6.306   0.080  14.104 -0.0516  0.3651  0.3566
 1564TIP3   OH226182   4.322   2.443   0.573  0.3462 -0.0824  0.3837
 1564TIP3    H126183   4.270   2.389   0.514 -0.7562  2.0781 -0.7308
 1564TIP3    H226184   4.275   2.440   0.657 -0.4021  0.1576 -0.0229
 1565TIP3   OH226185   4.166   2.386  14.831  0.3051  0.0121  0.0634
 1565TIP3    H126186   4.182   2.309  14.776  0.0938  0.2549 -0.3416
 1565TIP3    H226187   4.180   2.354  14.920  0.5183 -0.4213 -0.1177
 1566TIP3   OH226188   1.949   2.567   1.403 -0.1564  0.0114 -0.3450
 1566TIP3    H126189   1.964   2.502   1.334 -3.2636 -0.5992 -0.5826
 1566TIP3    H226190   1.911   2.642   1.357  0.0856  0.6058  0.3997
 1567TIP3   OH226191   5.697   5.693  11.055 -0.3147  0.3508  0.4532
 1567TIP3    H126192   5.681   5.602  11.076 -1.2880  0.5170  0.4586
 1567TIP3    H226193   5.656   5.743  11.126 -0.1526  0.7976  0.2411
 1568TIP3   OH226194   0.129   3.665   4.643 -0.5106  0.3417 -0.0107
 1568TIP3    H126195   0.068   3.709   4.584 -1.6838 -0.9747  0.1598
 1568TIP3    H226196   0.157   3.733   4.704  0.7018  1.7341 -1.9982
 1569TIP3   OH226197   2.331   1.540   3.726 -0.1840  0.2043 -0.4590
 1569TIP3    H126198   2.340   1.496   3.642 -0.0562 -0.7424  0.0402
 1569TIP3    H226199   2.240   1.527   3.751 -0.3674  0.9537 -0.6887
 1570TIP3   OH226200   4.195   5.808  14.670  0.4551 -0.2031  0.1891
 1570TIP3    H126201   4.270   5.868  14.676 -0.6319  1.2654 -0.3188
 1570TIP3    H226202   4.141   5.828  14.746 -0.5887  0.4557 -0.6888
 1571TIP3   OH226203   1.228   3.018  12.337 -0.2014  0.3794  0.3712
 1571TIP3    H126204   1.291   3.013  12.265 -0.7340 -1.4352 -0.0253
 1571TIP3    H226205   1.280   3.001  12.416 -0.1559 -1.3210  0.0279
 1572TIP3   OH226206   0.771   2.100  10.749  0.5313 -0.3445  0.1231
 1572TIP3    H126207   0.791   2.103  10.655 -2.5069  0.2151 -0.6172
 1572TIP3    H226208   0.728   2.184  10.767 -0.1108 -0.9620  1.6920
 1573TIP3   OH226209   3.390   2.437  12.026  0.1947 -0.3213 -0.4315
 1573TIP3    H126210   3.436   2.383  11.961 -1.4874  1.0129 -2.8981
 1573TIP3    H226211   3.460   2.479  12.076  1.6275 -0.5149 -2.1685
 1574TIP3   OH226212   1.195   0.884   5.956  0.4271  0.3610 -0.3197
 1574TIP3    H126213   1.276   0.893   5.905 -0.4294  0.4362 -1.7106
 1574TIP3    H226214   1.205   0.946   6.028  0.9612  1.5052 -1.3414
 1575TIP3   OH226215   0.529   1.947   0.176  0.4989 -0.4577  0.0319
 1575TIP3    H126216   0.544   1.966   0.083 -1.8192  0.5213 -0.2074
 1575TIP3    H226217   0.456   1.886   0.177  0.4587 -0.4139  1.2214
 1576TIP3   OH226218   1.844   0.850  13.744  0.5976  0.6395  0.9845
 1576TIP3    H126219   1.869   0.768  13.702  2.7460  1.2306  1.0185
 1576TIP3    H226220   1.803   0.823  13.826 -3.1636 -0.5100 -1.0472
 1577TIP3   OH226221   1.639   1.222   5.375  0.0236  0.6017  0.0355
 1577TIP3    H126222   1.574   1.218   5.304  0.4427  1.2302 -0.4068
 1577TIP3    H226223   1.708   1.280   5.340  0.5140  0.4520  0.7369
 1578TIP3   OH226224   5.218   3.759  11.901  0.4862 -0.2704  0.2126
 1578TIP3    H126225   5.284   3.785  11.837 -1.4697  0.7545 -1.4666
 1578TIP3    H226226   5.247   3.800  11.983  1.8683  0.1980 -0.4822
 1579TIP3   OH226227   5.385   3.258  11.267  0.3999  0.0722 -0.6247
 1579TIP3    H126228   5.351   3.288  11.183  1.0867 -2.5537 -1.9639
 1579TIP3    H226229   5.434   3.333  11.302 -1.2908  1.7694 -1.7232
 1580TIP3   OH226230   4.782   3.012   3.827  0.1505  0.5629  0.1507
 1580TIP3    H126231   4.795   3.088   3.885  0.6375 -0.4624  1.4332
 1580TIP3    H226232   4.828   2.940   3.871 -0.5457 -0.5538 -0.8909
 1581TIP3   OH226233   3.227   1.296   4.636 -0.3615  0.0409  0.8263
 1581TIP3    H126234   3.313   1.257   4.651 -1.2109 -0.9667  3.7043
 1581TIP3    H226235   3.243   1.390   4.632  1.2402 -0.2165 -2.3953
 1582TIP3   OH226236   6.592   5.983   3.827  0.2602  0.0323 -0.2724
 1582TIP3    H126237   6.627   5.923   3.893  0.2702  0.9635  0.5782
 1582TIP3    H226238   6.614   5.941   3.744  1.8943 -0.2495  0.2687
 1583TIP3   OH226239   0.629   4.357  17.080  0.6329  0.1889 -0.1615
 1583TIP3    H126240   0.675   4.294  17.025  0.8809 -0.0645  0.3271
 1583TIP3    H226241   0.604   4.307  17.158  0.4223  0.5821  0.0263
 1584TIP3   OH226242   2.807   0.419  13.657  0.2457  0.2452 -0.9422
 1584TIP3    H126243   2.833   0.381  13.741  0.5490  0.0526 -1.1255
 1584TIP3    H226244   2.849   0.505  13.655 -1.9083  1.4154  0.2957
 1585TIP3   OH226245   5.543   1.035  15.901 -0.1106 -0.4539 -0.3220
 1585TIP3    H126246   5.618   1.066  15.952 -0.5499 -0.8196  0.5701
 1585TIP3    H226247   5.540   1.092  15.825  1.3480 -0.7221 -0.6052
 1586TIP3   OH226248   0.369   6.514   6.534 -0.4422  0.1672 -0.0043
 1586TIP3    H126249   0.333   6.426   6.522 -1.7180  0.6043  0.4693
 1586TIP3    H226250   0.292   6.569   6.549  0.2405  1.5772 -1.4834
 1587TIP3   OH226251   0.228   3.325   1.305 -0.0320  0.6036  0.3443
 1587TIP3    H126252   0.160   3.360   1.247 -1.0558  0.6514  1.5155
 1587TIP3    H226253   0.281   3.269   1.249  1.1118  3.2364 -1.4070
 1588TIP3   OH226254   4.564   4.098  17.484  0.0633 -0.4177  0.3410
 1588TIP3    H126255   4.485   4.048  17.460  0.4136 -0.0613 -1.7682
 1588TIP3    H226256   4.591   4.061  17.568 -1.7025 -1.3187  0.5736
 1589TIP3   OH226257   4.958   3.602   1.503  0.1572  0.7070 -0.0677
 1589TIP3    H126258   4.926   3.537   1.565  3.8615 -1.1892  0.1622
 1589TIP3    H226259   4.908   3.585   1.423  0.0575 -1.5980  0.4105
 1590TIP3   OH226260   4.700   0.175  15.716  0.2044 -0.2300 -0.0319
 1590TIP3    H126261   4.628   0.112  15.718 -0.0504  0.0638  0.2862
 1590TIP3    H226262   4.702   0.206  15.625 -0.7891  0.5613  0.1978
 1591TIP3   OH226263   4.066   2.796  13.211  0.6999 -0.0815 -0.1858
 1591TIP3    H126264   4.018   2.762  13.287 -0.3170  0.2912 -0.6430
 1591TIP3    H226265   4.158   2.796  13.239  0.6854 -2.5777  0.0758
 1592TIP3   OH226266   5.798   0.582  12.702 -0.3855  0.2329  0.0760
 1592TIP3    H126267   5.855   0.535  12.764 -1.5829 -0.7551  0.4623
 1592TIP3    H226268   5.715   0.535  12.705 -1.5112  2.1236  0.1210
 1593TIP3   OH226269   0.297   4.940  12.070 -0.0616  0.5291 -0.0622
 1593TIP3    H126270   0.296   4.904  12.158  1.1540  0.5905 -0.0001
 1593TIP3    H226271   0.333   4.870  12.015 -0.6028  0.5678 -0.4767
 1594TIP3   OH226272   1.187   4.766  17.406  0.0735 -0.5858 -0.0012
 1594TIP3    H126273   1.259   4.742  17.464  1.1890 -0.1403 -1.1513
 1594TIP3    H226274   1.181   4.694  17.344 -0.5699 -0.6873  0.1787
 1595TIP3   OH226275   0.643   3.474   0.029 -0.5276 -0.3020  0.2861
 1595TIP3    H126276   0.732   3.460  -0.003  0.4567  1.3017  2.0814
 1595TIP3    H226277   0.618   3.390   0.066 -0.7977 -1.5011 -2.3883
 1596TIP3   OH226278   1.495   0.126  16.396 -0.1589 -0.5102 -0.4745
 1596TIP3    H126279   1.531   0.124  16.308 -0.0988 -0.6172 -0.4492
 1596TIP3    H226280   1.571   0.139  16.453 -0.3200  0.6755 -0.5034
 1597TIP3   OH226281   2.607   4.834   0.906 -0.5200 -0.3885 -0.1891
 1597TIP3    H126282   2.621   4.815   0.813 -0.5524  0.0033 -0.2750
 1597TIP3    H226283   2.641   4.923   0.918 -0.5059 -0.4426  0.1766
 1598TIP3   OH226284   2.185   2.257   4.064 -0.0598 -0.0492  0.5925
 1598TIP3    H126285   2.219   2.331   4.114  0.3020 -0.7306  1.3897
 1598TIP3    H226286   2.114   2.222   4.118 -2.3692  1.5589 -1.1952
 1599TIP3   OH226287   1.949   2.468  17.108  0.2175  0.3027 -0.0599
 1599TIP3    H126288   1.876   2.412  17.079 -0.6810  0.1052  2.3368
 1599TIP3    H226289   2.004   2.410  17.161 -1.7491  1.8479  4.1385
 1600TIP3   OH226290   3.067   5.908  16.410  0.4840  0.4328  0.7936
 1600TIP3    H126291   3.043   5.875  16.497  1.3515  0.9998  1.2576
 1600TIP3    H226292   3.044   6.001  16.412  0.1943  0.3799  0.2870
 1601TIP3   OH226293   6.432   0.166   3.868 -0.6567 -0.2870  0.3948
 1601TIP3    H126294   6.487   0.231   3.910 -0.7248  0.2676 -0.3455
 1601TIP3    H226295   6.443   0.182   3.774 -1.4391 -0.6956  0.2195
 1602TIP3   OH226296   1.790   2.087   4.591  0.1691 -0.0282 -0.1951
 1602TIP3    H126297   1.717   2.115   4.537 -0.5139  0.3302  0.8706
 1602TIP3    H226298   1.761   2.103   4.681  1.3223 -0.4470  0.2791
 1603TIP3   OH226299   4.352   2.953   3.520 -0.3186 -0.4777  0.3238
 1603TIP3    H126300   4.316   2.994   3.442  1.1083  0.3384  0.0466
 1603TIP3    H226301   4.328   2.860   3.512 -1.0385 -0.2261 -0.5678
 1604TIP3   OH226302   5.481   0.149   1.374 -0.3044 -0.0384  0.1574
 1604TIP3    H126303   5.529   0.078   1.332 -1.5367 -0.7310 -0.1422
 1604TIP3    H226304   5.514   0.151   1.464 -0.8196 -1.5713  0.4205
 1605TIP3   OH226305   0.625   3.973  13.658  0.5288  0.2688  0.5333
 1605TIP3    H126306   0.710   3.930  13.669  0.5051  0.2205  0.5242
 1605TIP3    H226307   0.574   3.945  13.734  1.4556  2.5004  2.0915
 1606TIP3   OH226308   1.790   6.332  11.397  0.6526 -0.0061 -0.2650
 1606TIP3    H126309   1.828   6.404  11.447 -1.4443  0.7743  0.3425
 1606TIP3    H226310   1.817   6.253  11.444  0.8882  0.5630  0.5698
 1607TIP3   OH226311   2.407   3.766  17.465 -0.1167  0.0461 -0.0805
 1607TIP3    H126312   2.331   3.779  17.522 -0.8138  0.3883 -1.0549
 1607TIP3    H226313   2.387   3.817  17.386  0.0575 -1.6917 -1.3196
 1608TIP3   OH226314   2.702   5.751  11.731 -0.3442 -0.4594  0.2147
 1608TIP3    H126315   2.681   5.817  11.664  0.8684 -0.0324  0.2298
 1608TIP3    H226316   2.757   5.798  11.794  1.0635 -1.6319 -0.0971
 1609TIP3   OH226317   2.326   3.629   4.196  0.3985  0.1331 -0.6302
 1609TIP3    H126318   2.308   3.714   4.157  0.1198 -0.1228 -1.0654
 1609TIP3    H226319   2.244   3.580   4.185  0.5358 -0.1703 -0.3250
 1610TIP3   OH226320   1.185   3.019   1.496  0.2589  0.1575  0.4446
 1610TIP3    H126321   1.258   3.075   1.468  0.0481  1.0104  1.5721
 1610TIP3    H226322   1.224   2.959   1.560  0.3616 -0.6745 -0.3580
 1611TIP3   OH226323   3.070   2.689   5.171  0.0357 -0.1064  0.2597
 1611TIP3    H126324   3.023   2.636   5.235 -2.4273  0.5847 -0.8626
 1611TIP3    H226325   3.078   2.632   5.094 -1.2900  0.5912 -0.4279
 1612TIP3   OH226326   3.273   6.743   3.626 -0.1262 -0.3445 -0.0399
 1612TIP3    H126327   3.291   6.667   3.570 -0.8778  0.1081 -0.9032
 1612TIP3    H226328   3.199   6.716   3.680  1.2053 -1.1464  1.4895
 1613TIP3   OH226329   4.003   0.706  14.237  0.2802  0.1624 -0.3704
 1613TIP3    H126330   4.039   0.670  14.318  1.7221  5.1274  1.5561
 1613TIP3    H226331   3.908   0.706  14.251  0.5464  2.5069  2.2912
 1614TIP3   OH226332   5.559   0.053   2.863 -0.3119  0.0371  0.1298
 1614TIP3    H126333   5.483  -0.001   2.843  1.3601 -2.6869  0.6240
 1614TIP3    H226334   5.577   0.101   2.782 -2.1971  0.3332 -0.1398
 1615TIP3   OH226335   0.235   5.279   0.459  0.3378  0.0002  0.3606
 1615TIP3    H126336   0.221   5.301   0.367  1.2116  1.3248  0.5309
 1615TIP3    H226337   0.238   5.363   0.504 -0.6567 -0.6427  1.7112
 1616TIP3   OH226338   5.294   1.212  15.192  0.0531 -0.2808 -0.7809
 1616TIP3    H126339   5.225   1.197  15.127 -0.9469 -1.5797  0.5266
 1616TIP3    H226340   5.266   1.291  15.238 -0.7738 -0.9875 -0.0351
 1617TIP3   OH226341   0.762   5.644   6.601  0.4389  0.4222  0.1263
 1617TIP3    H126342   0.830   5.705   6.571 -0.0134  1.0590  0.3754
 1617TIP3    H226343   0.791   5.617   6.688  0.8267 -0.0105 -0.1329
 1618TIP3   OH226344   1.537   0.368   4.359  0.2549  0.2033 -0.5966
 1618TIP3    H126345   1.563   0.444   4.411  0.4999  0.3278 -0.8951
 1618TIP3    H226346   1.454   0.339   4.398  0.1611  0.6217 -0.4787
 1619TIP3   OH226347   2.174   6.758   2.741 -0.2937 -0.3227 -0.0183
 1619TIP3    H126348   2.155   6.815   2.816 -0.7874 -0.4012 -0.0774
 1619TIP3    H226349   2.088   6.739   2.704 -0.0690 -0.4890 -0.4561
 1620TIP3   OH226350   2.691   5.557   3.422 -0.0090  0.1890  0.1694
 1620TIP3    H126351   2.750   5.625   3.456  1.2182  0.0091 -1.4919
 1620TIP3    H226352   2.713   5.479   3.472  0.2265  0.4395  0.4624
 1621TIP3   OH226353   6.758   3.104  14.248  0.2414 -0.3291  0.2091
 1621TIP3    H126354   6.718   3.155  14.319  1.6654 -0.6996  1.3209
 1621TIP3    H226355   6.705   3.024  14.244 -0.0743 -0.1484  0.6202
 1622TIP3   OH226356   1.152   0.513   1.424 -0.3065  0.0172 -0.1447
 1622TIP3    H126357   1.083   0.519   1.358 -1.0579  0.8813  0.6926
 1622TIP3    H226358   1.171   0.604   1.447  0.6089 -0.2417  0.1596
 1623TIP3   OH226359   4.113   6.009  15.439  0.8820  0.1839  0.4816
 1623TIP3    H126360   4.074   5.932  15.398  1.0813  0.3590 -0.0612
 1623TIP3    H226361   4.048   6.040  15.501  0.4389  0.0779  0.0759
 1624TIP3   OH226362   0.088   1.625  11.761  0.1740  0.3870  0.0025
 1624TIP3    H126363   0.139   1.706  11.762 -0.4316  0.7850 -0.3786
 1624TIP3    H226364   0.001   1.652  11.729  0.5278 -0.7467 -2.0985
 1625TIP3   OH226365   5.118   2.624   2.007  0.1124  0.2820 -0.3984
 1625TIP3    H126366   5.139   2.560   2.075  0.3063  0.0526 -0.6755
 1625TIP3    H226367   5.026   2.645   2.023 -0.2940 -0.9443 -1.0203
 1626TIP3   OH226368   0.750   5.780  13.770  0.1177  0.1066  0.2731
 1626TIP3    H126369   0.711   5.865  13.790 -2.0164 -0.8700  0.5170
 1626TIP3    H226370   0.748   5.733  13.853  0.8388 -0.3592  0.0333
 1627TIP3   OH226371   0.328   6.017   0.087  0.2868 -0.4823  0.4997
 1627TIP3    H126372   0.261   5.995   0.022  2.0682 -0.7511 -1.3213
 1627TIP3    H226373   0.285   6.082   0.143 -0.0936  3.1499 -3.4885
 1628TIP3   OH226374   2.014   5.523  11.746 -0.3661 -0.2658  0.4582
 1628TIP3    H126375   1.995   5.432  11.768 -1.5613 -0.0326  0.4902
 1628TIP3    H226376   1.947   5.546  11.681  2.0827 -0.4522 -2.3199
 1629TIP3   OH226377   5.603   2.226  13.079 -0.0954 -0.0834  0.3550
 1629TIP3    H126378   5.513   2.205  13.106  0.6912 -0.6289  2.8304
 1629TIP3    H226379   5.605   2.205  12.986 -2.0819 -1.7475  0.5932
 1630TIP3   OH226380   5.696   4.960  15.858  0.2627  0.0465 -0.0833
 1630TIP3    H126381   5.650   4.912  15.928 -0.2138 -0.5121 -0.7659
 1630TIP3    H226382   5.680   4.908  15.779  1.3692  0.3063 -0.4913
 1631TIP3   OH226383   4.714   5.358   2.092  0.3085 -0.4935 -0.6481
 1631TIP3    H126384   4.647   5.300   2.056  0.3263 -0.9487  0.0384
 1631TIP3    H226385   4.775   5.371   2.020 -0.1926 -0.5654 -1.0941
 1632TIP3   OH226386   3.529   1.317   5.001  0.4253 -0.0791 -0.4576
 1632TIP3    H126387   3.609   1.280   5.038  0.5431 -0.2397 -0.8630
 1632TIP3    H226388   3.538   1.304   4.907 -0.0007  0.0593 -0.5215
 1633TIP3   OH226389   4.378   5.251  14.389  0.5927 -0.7224 -0.3155
 1633TIP3    H126390   4.404   5.285  14.303 -0.8011  1.5850  0.1079
 1633TIP3    H226391   4.288   5.221  14.376  0.3822 -0.3749  0.3279
 1634TIP3   OH226392   1.835   3.846  16.621 -0.2257 -0.4122  0.5518
 1634TIP3    H126393   1.900   3.822  16.687 -0.7403 -0.4202  1.0703
 1634TIP3    H226394   1.864   3.803  16.541  1.4297  1.0811  0.2918
 1635TIP3   OH226395   4.423   1.173  13.540 -0.0755 -0.1300 -0.1538
 1635TIP3    H126396   4.392   1.205  13.625 -1.0800 -0.3523 -0.4194
 1635TIP3    H226397   4.395   1.081  13.538  0.7309 -0.3782 -0.3662
 1636TIP3   OH226398   2.989   2.749  11.770 -0.6559  0.1603 -0.7570
 1636TIP3    H126399   2.939   2.828  11.749  1.1874  2.5503  2.8828
 1636TIP3    H226400   2.960   2.725  11.858 -0.1479 -2.4749 -1.2278
 1637TIP3   OH226401   4.217   5.749   0.828  0.4747 -0.3932  0.6367
 1637TIP3    H126402   4.157   5.675   0.838  0.4835 -0.4348  0.3930
 1637TIP3    H226403   4.161   5.823   0.805  0.5875 -0.6025 -0.3614
 1638TIP3   OH226404   3.480   1.207  17.432 -0.5231 -0.0906 -0.4699
 1638TIP3    H126405   3.467   1.127  17.483  1.6725 -0.8055 -0.9221
 1638TIP3    H226406   3.424   1.272  17.476 -1.3728 -1.5293  0.6903
 1639TIP3   OH226407   3.560   3.935   2.329 -0.1350  0.1580  0.2240
 1639TIP3    H126408   3.639   3.985   2.351 -0.6288  0.7362  0.6792
 1639TIP3    H226409   3.550   3.874   2.401  0.4594 -0.6139 -0.3245
 1640TIP3   OH226410   3.622   2.990   0.154 -0.3618 -0.1811 -0.4903
 1640TIP3    H126411   3.630   3.010   0.248 -1.5346  0.6916 -0.5523
 1640TIP3    H226412   3.675   3.057   0.111 -0.3037 -0.2207 -0.4808
 1641TIP3   OH226413   5.642   3.099  13.954  0.3970  0.3141  0.2679
 1641TIP3    H126414   5.622   3.086  13.861  0.6010 -3.1979  0.5811
 1641TIP3    H226415   5.558   3.094  13.998  0.4812 -0.0146  0.3996
 1642TIP3   OH226416   4.840   1.629   4.537 -0.4901 -0.2856  1.0351
 1642TIP3    H126417   4.782   1.555   4.522  0.9617 -1.5024  1.2039
 1642TIP3    H226418   4.905   1.623   4.468  0.0074  0.4743  1.4232
 1643TIP3   OH226419   2.093   5.335   0.144  0.5487 -0.1519  0.1410
 1643TIP3    H126420   2.103   5.306   0.053 -1.3189  0.9585 -0.4721
 1643TIP3    H226421   2.023   5.281   0.179 -0.1279  0.7797  0.2656
 1644TIP3   OH226422   1.196   4.022   5.058 -0.0827  0.6484 -0.2246
 1644TIP3    H126423   1.285   4.053   5.042 -0.2983  2.2878  1.3970
 1644TIP3    H226424   1.140   4.078   5.005 -0.2319  0.4828 -0.2447
 1645TIP3   OH226425   3.513   0.518  13.233 -0.0810 -0.0330 -0.4288
 1645TIP3    H126426   3.435   0.561  13.197  0.3852  0.7668 -0.5042
 1645TIP3    H226427   3.485   0.489  13.320 -0.2880  0.8118 -0.1978
 1646TIP3   OH226428   2.687   0.224   1.729 -0.7124 -0.3890 -0.0010
 1646TIP3    H126429   2.651   0.268   1.806  1.3542 -0.1910  0.9401
 1646TIP3    H226430   2.640   0.261   1.655 -1.3898  0.8852  1.0392
 1647TIP3   OH226431   6.468   0.139  16.108 -0.1442  0.1730  0.2097
 1647TIP3    H126432   6.530   0.154  16.179 -0.7712 -0.5515  0.9212
 1647TIP3    H226433   6.385   0.120  16.151 -1.2499  2.4997 -0.7240
 1648TIP3   OH226434   1.926   5.718  15.889  0.2778  0.0827  0.5448
 1648TIP3    H126435   1.842   5.746  15.926 -0.0011 -0.8940  0.6958
 1648TIP3    H226436   1.977   5.692  15.966  1.6484  2.9438  0.6973
 1649TIP3   OH226437   0.779   6.057   3.212  0.1131  0.3161  0.4543
 1649TIP3    H126438   0.855   6.008   3.181  1.0102  0.0543  2.8648
 1649TIP3    H226439   0.732   6.081   3.133  1.8460 -0.9050 -1.0204
 1650TIP3   OH226440   0.328   5.681  15.669  0.0334  0.5463 -0.5508
 1650TIP3    H126441   0.296   5.632  15.593 -1.0313  1.4715 -0.7245
 1650TIP3    H226442   0.264   5.661  15.738 -0.0806  1.2284 -0.4571
 1651TIP3   OH226443   3.234   3.138  15.040 -0.4526 -0.4707 -0.1488
 1651TIP3    H126444   3.245   3.051  15.079 -2.3743 -0.2791  0.9673
 1651TIP3    H226445   3.151   3.133  14.991 -0.2024  0.5083 -0.7070
 1652TIP3   OH226446   2.066   5.362   2.792  0.2579  0.7361  0.3361
 1652TIP3    H126447   2.015   5.318   2.724  1.1744  1.3171 -0.7679
 1652TIP3    H226448   2.002   5.383   2.860 -0.4199 -1.2035  0.3709
 1653TIP3   OH226449   0.175   0.703  11.664 -0.4738  0.4463 -0.1254
 1653TIP3    H126450   0.171   0.642  11.737 -1.2979  0.7003  0.0569
 1653TIP3    H226451   0.112   0.668  11.601  1.2212 -0.5477 -1.3547
 1654TIP3   OH226452   1.474   0.412  17.369 -0.1944 -0.1220 -0.5385
 1654TIP3    H126453   1.436   0.343  17.315 -0.9925  0.3815 -0.6501
 1654TIP3    H226454   1.455   0.385  17.459  1.3478 -1.0814 -0.4631
 1655TIP3   OH226455   4.741   3.541   0.026  0.1729  0.5681  0.3138
 1655TIP3    H126456   4.694   3.457   0.033 -2.0231  1.6216 -0.7714
 1655TIP3    H226457   4.737   3.578   0.114 -0.1414  0.2008  0.4571
 1656TIP3   OH226458   3.430   6.589   4.848 -0.6533  0.1286 -0.3135
 1656TIP3    H126459   3.401   6.619   4.762 -2.0063  0.1934  0.1349
 1656TIP3    H226460   3.519   6.557   4.834 -1.4261 -1.4200 -2.1008
 1657TIP3   OH226461   1.547   5.301  11.720  0.0681 -0.8333  0.2547
 1657TIP3    H126462   1.594   5.257  11.790  0.1670 -1.4375 -0.1868
 1657TIP3    H226463   1.592   5.275  11.640 -0.6384 -0.9396 -0.1195
 1658TIP3   OH226464   2.448   2.305   3.889 -0.0123  0.2672 -0.0743
 1658TIP3    H126465   2.369   2.274   3.933 -0.1870  0.6278 -0.1270
 1658TIP3    H226466   2.432   2.287   3.796  0.8076 -1.4889  0.0797
 1659TIP3   OH226467   1.265   0.400  12.556 -0.9128  0.0277 -0.4204
 1659TIP3    H126468   1.273   0.470  12.621 -2.2139  1.1211 -1.3694
 1659TIP3    H226469   1.254   0.446  12.473 -0.4761 -1.3248 -1.2636
 1660TIP3   OH226470   5.875   1.431  13.884  0.4292 -0.8091 -0.5196
 1660TIP3    H126471   5.932   1.407  13.811  0.6883 -0.9717 -0.2667
 1660TIP3    H226472   5.806   1.484  13.844  2.8836  2.8656 -0.3046
 1661TIP3   OH226473   1.854   6.278  16.809  0.0189  0.7176  0.3036
 1661TIP3    H126474   1.786   6.220  16.775  0.2427 -0.0747  1.1574
 1661TIP3    H226475   1.807   6.359  16.831 -0.7095  0.1026  1.0961
 1662TIP3   OH226476   6.574   2.213  12.755  0.4324  0.2420  0.2386
 1662TIP3    H126477   6.518   2.278  12.713 -1.4178 -0.9760  0.7367
 1662TIP3    H226478   6.645   2.265  12.793 -0.9563  1.9887  0.5892
 1663TIP3   OH226479   2.860   1.935   3.720  0.7153 -0.2861  0.2065
 1663TIP3    H126480   2.937   1.944   3.663  0.6360  1.4534  0.3266
 1663TIP3    H226481   2.897   1.924   3.808  0.8229 -0.5210  0.1339
 1664TIP3   OH226482   2.075   5.406   0.474 -0.5718  0.0505  0.8321
 1664TIP3    H126483   2.155   5.402   0.423 -0.6285 -4.8087  0.6715
 1664TIP3    H226484   2.005   5.417   0.410 -0.3146 -1.1537  0.3184
 1665TIP3   OH226485   5.623   0.401  12.802 -0.5269 -0.0356 -0.5833
 1665TIP3    H126486   5.537   0.400  12.761 -0.3417 -0.3776 -0.9788
 1665TIP3    H226487   5.612   0.453  12.881 -1.4310 -1.2519  0.1287
 1666TIP3   OH226488   3.625   0.153   5.797  0.6158  0.0156  0.2649
 1666TIP3    H126489   3.717   0.175   5.812  1.1475 -1.1511 -1.0946
 1666TIP3    H226490   3.627   0.066   5.756 -1.1546 -0.5489  1.2441
 1667TIP3   OH226491   3.032   2.793  11.135  0.3320  0.1972 -0.1166
 1667TIP3    H126492   3.084   2.785  11.055  0.2944 -0.7434 -0.0541
 1667TIP3    H226493   3.062   2.875  11.174 -1.3809  1.9904 -2.3051
 1668TIP3   OH226494   2.487   4.002  12.162 -0.2168  0.0792  0.0603
 1668TIP3    H126495   2.561   3.985  12.105  0.4718  1.3108  0.5580
 1668TIP3    H226496   2.410   3.986  12.108  0.4115 -0.9103 -0.5463
 1669TIP3   OH226497   6.608   2.387   3.931  0.5879 -0.2135 -0.3317
 1669TIP3    H126498   6.570   2.303   3.954 -1.0174 -0.0257 -2.0490
 1669TIP3    H226499   6.644   2.374   3.843 -0.0753  0.9586 -0.8109
 1670TIP3   OH226500   2.359   6.021   5.905 -0.8831 -0.1929 -0.1421
 1670TIP3    H126501   2.323   6.013   5.993  0.8580 -1.6920  0.4908
 1670TIP3    H226502   2.416   6.098   5.910 -1.7903  0.5193 -0.3735
 1671TIP3   OH226503   0.119   0.908  13.396  0.1868 -0.7443  0.5239
 1671TIP3    H126504   0.063   0.955  13.458 -0.4678  0.0112 -0.5970
 1671TIP3    H226505   0.130   0.969  13.323  1.7744 -1.2273  0.3365
 1672TIP3   OH226506   3.078   4.986   4.059  0.3634  0.2057 -0.0224
 1672TIP3    H126507   3.117   5.059   4.107 -0.1072 -1.1540  2.6479
 1672TIP3    H226508   3.141   4.915   4.068  0.5397  0.0469 -2.0577
 1673TIP3   OH226509   4.601   1.583   3.847 -0.1626 -0.2593  0.5377
 1673TIP3    H126510   4.586   1.627   3.930 -0.6763  2.2899 -0.8062
 1673TIP3    H226511   4.516   1.545   3.824 -0.1974 -0.3672  0.8452
 1674TIP3   OH226512   4.138   0.497  16.346 -0.3754  0.2596 -0.0773
 1674TIP3    H126513   4.052   0.492  16.389 -0.0887  0.6213  0.5479
 1674TIP3    H226514   4.181   0.414  16.368  0.7526  1.4287  2.4910
 1675TIP3   OH226515   5.919   6.310   6.028  0.4418 -0.5335  0.1357
 1675TIP3    H126516   5.995   6.251   6.026  0.5470 -0.4909  1.7592
 1675TIP3    H226517   5.917   6.344   6.117 -0.7517  0.4567 -0.2414
 1676TIP3   OH226518   4.476   2.970  11.870 -0.2871  0.6041 -0.3201
 1676TIP3    H126519   4.490   3.060  11.841  1.2704  1.4990  2.7777
 1676TIP3    H226520   4.558   2.946  11.914 -1.3884 -1.5754  0.6743
 1677TIP3   OH226521   2.198   3.487  15.519 -0.7159 -0.1558  0.4682
 1677TIP3    H126522   2.208   3.504  15.425 -1.2947 -1.7960  0.0714
 1677TIP3    H226523   2.243   3.560  15.561  2.5785 -1.0892 -1.0922
 1678TIP3   OH226524   4.121   5.311  11.623 -0.8282  0.3351  0.2841
 1678TIP3    H126525   4.129   5.404  11.640  0.0575  0.4913 -0.8269
 1678TIP3    H226526   4.128   5.304  11.527  0.2026 -0.9563  0.4333
 1679TIP3   OH226527   1.240   4.824   3.113  0.2885  0.1725  1.1077
 1679TIP3    H126528   1.250   4.883   3.188 -0.3684  0.3757  1.0424
 1679TIP3    H226529   1.147   4.802   3.113  0.4257 -0.4260  0.7958
 1680TIP3   OH226530   5.216   2.888  16.693  0.4035  0.5056  0.4923
 1680TIP3    H126531   5.148   2.952  16.715  1.6791  2.0157  0.2621
 1680TIP3    H226532   5.169   2.807  16.675 -1.4214  1.7734 -0.7208
 1681TIP3   OH226533   2.184   6.242  15.160  0.6173 -0.0560 -0.1669
 1681TIP3    H126534   2.217   6.239  15.250 -0.1170  0.2328  0.1204
 1681TIP3    H226535   2.193   6.153  15.128 -1.1789 -0.6991  0.9701
 1682TIP3   OH226536   6.768   4.161  16.746  0.1738 -0.8689 -0.1477
 1682TIP3    H126537   6.847   4.214  16.758 -0.2635 -0.4484  1.0863
 1682TIP3    H226538   6.783   4.082  16.798  0.8144 -1.9927 -1.9724
 1683TIP3   OH226539   6.624   1.652   4.928  0.1791 -0.3971 -0.4823
 1683TIP3    H126540   6.558   1.591   4.962  0.4191 -0.1309  0.5077
 1683TIP3    H226541   6.585   1.738   4.940  0.2840 -0.2925 -0.8740
 1684TIP3   OH226542   2.512   4.163   1.193  0.3917  0.2313  0.3340
 1684TIP3    H126543   2.538   4.199   1.278  0.6479  0.6447  0.0824
 1684TIP3    H226544   2.584   4.105   1.168 -0.7332 -1.8041  1.5038
 1685TIP3   OH226545   1.311   4.755   1.170 -0.4144  0.1944 -0.1850
 1685TIP3    H126546   1.242   4.747   1.235 -0.5635 -2.1079 -0.5576
 1685TIP3    H226547   1.329   4.849   1.165 -2.5426  0.7006  0.9137
 1686TIP3   OH226548   6.384   0.398   3.115 -0.1452  0.1698  0.4295
 1686TIP3    H126549   6.341   0.423   3.033 -1.0475  1.2426  1.1980
 1686TIP3    H226550   6.337   0.320   3.144 -0.2443  0.1620  0.2473
 1687TIP3   OH226551   2.544   1.530  17.175 -0.4828  0.2823 -0.1059
 1687TIP3    H126552   2.597   1.561  17.248  0.0163 -0.4029 -0.1653
 1687TIP3    H226553   2.532   1.436  17.192 -1.4272  0.3657 -0.2503
 1688TIP3   OH226554   5.821   0.622   2.573  0.1836  0.6428 -0.2628
 1688TIP3    H126555   5.829   0.573   2.491 -0.6699  1.0297 -0.5911
 1688TIP3    H226556   5.905   0.668   2.581  1.5756 -1.8736  0.7582
 1689TIP3   OH226557   1.226   6.709  16.337  0.7241  0.4996  0.4650
 1689TIP3    H126558   1.135   6.705  16.368  0.4968 -0.6204 -0.2859
 1689TIP3    H226559   1.279   6.703  16.417  0.1702 -3.7808  0.7110
 1690TIP3   OH226560   2.694   0.783  12.731 -0.4034 -0.1403 -0.7510
 1690TIP3    H126561   2.630   0.801  12.800 -1.8419 -2.7898 -1.2383
 1690TIP3    H226562   2.664   0.837  12.657 -0.8610  0.1740 -0.3459
 1691TIP3   OH226563   5.287   5.660   3.354 -0.0132 -1.2341  0.4141
 1691TIP3    H126564   5.319   5.721   3.420 -2.2051  1.3109 -0.6956
 1691TIP3    H226565   5.352   5.589   3.353  1.8097  0.2411  2.9170
 1692TIP3   OH226566   1.554   3.768   2.932 -0.0673  0.7206 -0.5655
 1692TIP3    H126567   1.628   3.785   2.874  1.0681 -1.7008  0.0542
 1692TIP3    H226568   1.582   3.801   3.017  1.6928 -2.7236  0.3828
 1693TIP3   OH226569   5.620   0.953   6.103  0.0736 -0.0598 -0.1038
 1693TIP3    H126570   5.557   1.019   6.072  1.3535  1.6319  0.6861
 1693TIP3    H226571   5.601   0.944   6.196  0.8551  0.3721  0.1159
 1694TIP3   OH226572   3.776   6.120   4.929 -0.4082  0.0476 -0.9341
 1694TIP3    H126573   3.731   6.037   4.948 -1.7791  1.0051  0.2536
 1694TIP3    H226574   3.866   6.105   4.957 -0.7217 -0.9368 -0.3823
 1695TIP3   OH226575   5.607   0.467   3.823 -0.2409 -0.1950 -0.1681
 1695TIP3    H126576   5.514   0.457   3.845 -0.3944  1.5050  0.1385
 1695TIP3    H226577   5.650   0.391   3.862 -1.3791 -0.5033  0.5341
 1696TIP3   OH226578   0.770   1.403   2.114 -0.2416  0.3456 -0.3799
 1696TIP3    H126579   0.792   1.453   2.192  1.6480 -0.1291 -0.5652
 1696TIP3    H226580   0.842   1.420   2.053  0.8810 -3.0995 -0.2094
 1697TIP3   OH226581   3.451   0.305   2.740  0.0110 -0.0161 -0.3545
 1697TIP3    H126582   3.425   0.344   2.656  1.6797  0.9442 -0.4672
 1697TIP3    H226583   3.385   0.336   2.802 -2.2112 -2.0524 -1.5274
 1698TIP3   OH226584   1.212   6.243  12.237  0.2347  0.2160  0.6378
 1698TIP3    H126585   1.269   6.293  12.179  1.4379 -2.6791 -0.9039
 1698TIP3    H226586   1.124   6.260  12.206  0.7180  0.3792 -0.6912
 1699TIP3   OH226587   0.421   1.192   5.565  0.3887  0.1596 -0.2496
 1699TIP3    H126588   0.375   1.146   5.635 -0.4136 -0.9954 -1.4710
 1699TIP3    H226589   0.371   1.273   5.553 -1.6855 -1.2294 -1.7881
 1700TIP3   OH226590   5.092   0.430  11.300  0.0845 -0.2818  0.5285
 1700TIP3    H126591   5.022   0.494  11.288  0.4172 -0.3312 -2.4489
 1700TIP3    H226592   5.170   0.483  11.318  0.4107  0.3105 -2.1572
 1701TIP3   OH226593   4.706   6.665  17.316 -0.0614 -0.2419 -0.3154
 1701TIP3    H126594   4.711   6.573  17.293  0.6673 -0.4519  0.6187
 1701TIP3    H226595   4.690   6.710  17.233 -0.5241 -1.2125 -0.7577
 1702TIP3   OH226596   6.146   3.424   4.409 -0.2724  0.1337 -0.2387
 1702TIP3    H126597   6.189   3.343   4.436 -0.2733  0.1365 -0.2289
 1702TIP3    H226598   6.209   3.467   4.351 -0.4764 -0.1189 -0.6545
 1703TIP3   OH226599   3.793   1.737   3.102  0.1325  0.0617  0.4770
 1703TIP3    H126600   3.858   1.667   3.100 -0.9418 -0.9546 -0.9919
 1703TIP3    H226601   3.711   1.692   3.124 -0.1799  1.2586  1.9015
 1704TIP3   OH226602   4.093   2.961   0.649 -0.7692 -0.2907  0.3199
 1704TIP3    H126603   4.033   2.977   0.576 -0.7156 -0.3645  0.2591
 1704TIP3    H226604   4.178   2.988   0.616 -0.7388 -0.3559  0.3441
 1705TIP3   OH226605   0.083   0.265  16.198  0.4775  0.0790 -0.4478
 1705TIP3    H126606   0.176   0.285  16.207  0.0435  2.6172 -0.7347
 1705TIP3    H226607   0.080   0.186  16.145  2.4725  0.6312 -1.4755
 1706TIP3   OH226608   5.453   4.098  15.033  0.2457 -0.0281  0.4265
 1706TIP3    H126609   5.450   4.008  15.000  1.5982  0.6408 -1.7390
 1706TIP3    H226610   5.408   4.149  14.965  0.4344  1.0608  1.1013
 1707TIP3   OH226611   2.472   6.339  12.335  0.1559 -0.1076 -0.5871
 1707TIP3    H126612   2.428   6.421  12.312  2.0075  1.0396 -0.2383
 1707TIP3    H226613   2.554   6.341  12.287  0.8241 -1.1349  0.4608
 1708TIP3   OH226614   5.343   0.415  12.734 -0.5506 -0.1990 -0.2704
 1708TIP3    H126615   5.294   0.405  12.652 -1.9128 -0.2943  0.5168
 1708TIP3    H226616   5.343   0.328  12.773 -0.5103 -0.0098  0.1582
 1709TIP3   OH226617   4.879   1.968   1.890 -0.0427 -0.2384  0.1188
 1709TIP3    H126618   4.951   1.989   1.950  1.1385 -1.3827 -0.8197
 1709TIP3    H226619   4.866   1.874   1.902 -1.4944 -0.0154  0.3734
 1710TIP3   OH226620   5.718   2.160  17.482 -0.0927 -0.3298 -0.1202
 1710TIP3    H126621   5.676   2.241  17.511  0.4000 -0.1062 -0.0185
 1710TIP3    H226622   5.793   2.149  17.542 -0.0508 -0.7600 -0.2468
 1711TIP3   OH226623   6.498   0.636  13.478  0.0768 -0.6351 -0.3052
 1711TIP3    H126624   6.569   0.650  13.416  1.5437 -0.7068  1.2873
 1711TIP3    H226625   6.521   0.555  13.523 -0.0610  0.2680  1.4674
 1712TIP3   OH226626   6.705   5.510  15.098 -0.7507 -0.2942  0.1055
 1712TIP3    H126627   6.786   5.463  15.083 -0.2810  0.7470 -0.7469
 1712TIP3    H226628   6.732   5.598  15.123 -1.5575  0.6579 -2.0728
 1713TIP3   OH226629   3.393   4.362  13.336 -0.4826 -0.3321 -0.1206
 1713TIP3    H126630   3.395   4.277  13.291  0.4201 -0.3477 -0.0785
 1713TIP3    H226631   3.365   4.424  13.270  0.5696 -0.4001 -0.6572
 1714TIP3   OH226632   3.229   3.261  15.769  0.0374 -0.0065 -0.1294
 1714TIP3    H126633   3.311   3.215  15.753  0.8537  1.3207  0.0818
 1714TIP3    H226634   3.171   3.233  15.698  1.6633  1.3268 -2.0976
 1715TIP3   OH226635   0.681   3.313   4.570 -0.6749 -0.0698  0.1210
 1715TIP3    H126636   0.724   3.259   4.504 -1.1184  0.8419 -0.9348
 1715TIP3    H226637   0.602   3.346   4.527 -0.5800  1.1477  0.8504
 1716TIP3   OH226638   4.302   5.351   2.214  0.1295  0.3456  0.5804
 1716TIP3    H126639   4.370   5.418   2.205  0.4205 -0.0099  0.0715
 1716TIP3    H226640   4.257   5.351   2.130  0.8094 -0.8171  0.1993
 1717TIP3   OH226641   1.990   2.119  15.341  0.2297 -0.0982  0.4337
 1717TIP3    H126642   2.011   2.149  15.252  0.2296 -1.6581 -0.1275
 1717TIP3    H226643   1.990   2.199  15.394  1.7668  0.6837 -0.6588
 1718TIP3   OH226644   0.270   4.351  16.114 -0.1557 -0.1487 -0.1094
 1718TIP3    H126645   0.308   4.437  16.131 -0.5200  0.2849 -1.3887
 1718TIP3    H226646   0.320   4.291  16.170  1.1258  0.6732 -0.3422
 1719TIP3   OH226647   5.421   5.292   1.239  0.0761  0.4629 -0.3042
 1719TIP3    H126648   5.359   5.354   1.200 -1.2445  1.0937  2.5199
 1719TIP3    H226649   5.497   5.346   1.262  0.6633  0.1814 -1.5474
 1720TIP3   OH226650   3.213   5.091   3.022 -0.5529 -0.4212 -0.3194
 1720TIP3    H126651   3.146   5.034   3.061 -0.3967 -0.0668  0.4653
 1720TIP3    H226652   3.259   5.130   3.096  0.6151 -0.7505 -0.8460
 1721TIP3   OH226653   1.213   4.273   0.308 -0.4456  0.4412 -0.5050
 1721TIP3    H126654   1.304   4.295   0.291 -0.6648  0.7617 -1.3186
 1721TIP3    H226655   1.213   4.237   0.397  0.9955 -2.6076 -1.5868
 1722TIP3   OH226656   2.750   1.151  12.588 -0.2657 -0.4209 -0.5024
 1722TIP3    H126657   2.826   1.096  12.568 -1.2967 -1.7251 -0.9367
 1722TIP3    H226658   2.754   1.222  12.524  0.4968 -0.5524 -0.6076
 1723TIP3   OH226659   1.646   6.656  11.268  0.2674 -0.0803 -0.4549
 1723TIP3    H126660   1.640   6.593  11.196  1.1443  0.6237 -1.1591
 1723TIP3    H226661   1.739   6.664  11.286  0.1695  1.0111 -0.3674
 1724TIP3   OH226662   3.760   6.235  16.422 -0.0893 -0.3677 -0.6120
 1724TIP3    H126663   3.804   6.318  16.400  1.1494 -0.9469 -0.4281
 1724TIP3    H226664   3.785   6.176  16.351 -0.4272 -0.7669 -0.3968
 1725TIP3   OH226665   0.774   3.183   3.574  0.1942 -0.3537 -0.3650
 1725TIP3    H126666   0.854   3.189   3.522 -0.3828 -0.0186 -1.2317
 1725TIP3    H226667   0.754   3.274   3.597 -0.8736 -0.2411 -1.6263
 1726TIP3   OH226668   3.054   6.562   5.614  0.5053  0.2282 -0.2255
 1726TIP3    H126669   3.092   6.618   5.681  1.4631  0.0193 -0.5850
 1726TIP3    H226670   3.129   6.523   5.569 -0.1357 -0.5952 -0.6141
 1727TIP3   OH226671   5.120   2.019  12.174 -0.4113 -0.4747  0.0288
 1727TIP3    H126672   5.077   2.091  12.221 -0.5854  0.3138 -1.2915
 1727TIP3    H226673   5.049   1.960  12.149 -0.4400 -0.4005 -0.0663
 1728TIP3   OH226674   0.957   2.093  12.161 -0.1805 -0.5859  0.2440
 1728TIP3    H126675   0.905   2.172  12.146  0.9775  0.5356  1.7508
 1728TIP3    H226676   0.958   2.048  12.077 -1.1320  0.8516 -0.5758
 1729TIP3   OH226677   3.988   0.613  15.792  0.0375 -0.4628  0.2886
 1729TIP3    H126678   3.964   0.595  15.883  1.0495 -1.4997  0.3670
 1729TIP3    H226679   4.060   0.552  15.773  0.6972  0.6133 -0.8089
 1730TIP3   OH226680   6.521   1.786  11.230 -0.1354  0.7390 -0.2068
 1730TIP3    H126681   6.507   1.816  11.140 -0.8999  0.2090 -0.2781
 1730TIP3    H226682   6.443   1.814  11.277 -0.2359  0.0699  0.0366
 1731TIP3   OH226683   6.250   3.108  11.629 -1.0033  0.5412  0.1049
 1731TIP3    H126684   6.190   3.176  11.600 -1.1533  0.2717 -0.2168
 1731TIP3    H226685   6.337   3.142  11.606 -1.0150  0.9909  0.6931
 1732TIP3   OH226686   3.668   4.727  15.007 -0.0832  0.4313 -0.4267
 1732TIP3    H126687   3.642   4.672  14.932  0.0221 -1.1791  0.6579
 1732TIP3    H226688   3.588   4.771  15.033 -0.8569 -1.3069  0.3161
 1733TIP3   OH226689   2.837   1.245  10.902  0.5390  0.2767  0.7582
 1733TIP3    H126690   2.803   1.181  10.840 -1.0117  0.8679  0.9496
 1733TIP3    H226691   2.829   1.203  10.988  2.5478 -0.4848  0.6344
 1734TIP3   OH226692   4.735   1.729   6.223 -0.4001  0.4353  0.3736
 1734TIP3    H126693   4.792   1.805   6.234 -0.3043  0.7343 -1.6813
 1734TIP3    H226694   4.646   1.764   6.238 -0.2178  0.4650  1.4402
 1735TIP3   OH226695   6.722   6.672  14.769 -0.2022 -0.3115  0.4564
 1735TIP3    H126696   6.671   6.740  14.812  0.8797  0.7330  0.1316
 1735TIP3    H226697   6.676   6.655  14.688 -0.1311  0.5236  0.2327
 1736TIP3   OH226698   1.635   6.757  17.424 -0.1854  0.7656  0.1059
 1736TIP3    H126699   1.545   6.754  17.458  0.4024 -1.2793  1.6407
 1736TIP3    H226700   1.625   6.746  17.329 -1.5679  1.3568  0.1541
 1737TIP3   OH226701   2.797   5.863   1.688  0.3121  0.0554  0.1203
 1737TIP3    H126702   2.773   5.909   1.607 -0.2894 -0.1928  0.1597
 1737TIP3    H226703   2.814   5.773   1.660  0.9424  0.1631  0.1366
 1738TIP3   OH226704   2.500   5.195  13.854 -0.0144  0.4252  0.4735
 1738TIP3    H126705   2.409   5.221  13.866 -0.9017 -1.4761 -1.4443
 1738TIP3    H226706   2.542   5.271  13.815 -1.5114  0.4425 -1.2396
 1739TIP3   OH226707   5.791   1.050   4.382  0.4191  0.0735  0.0273
 1739TIP3    H126708   5.820   0.973   4.334  1.1959  0.5861 -0.3325
 1739TIP3    H226709   5.871   1.089   4.416  0.0520  0.8309  0.0456
 1740TIP3   OH226710   1.458   5.103   0.438 -0.0029  0.6559  1.1273
 1740TIP3    H126711   1.517   5.152   0.381 -0.4495 -0.7423 -0.6627
 1740TIP3    H226712   1.481   5.011   0.423 -1.0391  0.1905  2.2049
 1741TIP3   OH226713   5.630   0.653   1.697  0.4507 -0.0356  0.4621
 1741TIP3    H126714   5.571   0.725   1.671 -0.7613 -0.9059  0.7399
 1741TIP3    H226715   5.685   0.691   1.765  0.0553  0.7267  0.3746
 1742TIP3   OH226716   6.302   5.957  15.540  0.2962 -0.3522  0.7333
 1742TIP3    H126717   6.251   5.935  15.462  1.1110 -1.2654  0.4380
 1742TIP3    H226718   6.297   6.052  15.546 -0.6401 -0.3593  0.1672
 1743TIP3   OH226719   6.613   1.478   1.645 -0.0488  0.1064  0.2206
 1743TIP3    H126720   6.636   1.562   1.604 -0.3483 -0.1212 -0.4296
 1743TIP3    H226721   6.691   1.455   1.696  0.8325 -0.1832 -1.1875
 1744TIP3   OH226722   3.139   1.103  11.442 -0.9458  0.3402  0.2933
 1744TIP3    H126723   3.229   1.071  11.447 -0.6511  0.3480 -2.9361
 1744TIP3    H226724   3.085   1.025  11.460 -0.3600  0.2556  1.8598
 1745TIP3   OH226725   5.969   4.142  16.152 -0.4151 -0.3861 -0.4828
 1745TIP3    H126726   5.893   4.135  16.211 -0.0872 -0.6075 -0.0776
 1745TIP3    H226727   5.962   4.065  16.096  0.5819 -1.5129  0.8598
 1746TIP3   OH226728   3.219   6.672  15.654  0.3980 -0.0328  0.0062
 1746TIP3    H126729   3.253   6.661  15.743  0.7483 -0.8816 -0.2175
 1746TIP3    H226730   3.248   6.759  15.627  3.4464 -1.1135 -0.5880
 1747TIP3   OH226731   3.032   4.443  12.687  0.1257 -0.2013  0.6097
 1747TIP3    H126732   3.093   4.480  12.751 -0.7753 -0.0264  1.3838
 1747TIP3    H226733   2.952   4.494  12.698 -0.4810 -1.0774  0.2825
 1748TIP3   OH226734   5.125   5.730  14.430  0.2732 -0.3284 -0.3852
 1748TIP3    H126735   5.123   5.710  14.524  0.4996 -1.1500 -0.5466
 1748TIP3    H226736   5.041   5.697  14.396  0.1751  0.0016 -0.4650
 1749TIP3   OH226737   5.074   4.660  16.103 -0.4393 -0.2560 -0.7685
 1749TIP3    H126738   5.113   4.746  16.082 -2.2405  0.3477 -1.9058
 1749TIP3    H226739   5.028   4.675  16.185  0.0029 -0.4092 -0.4870
 1750TIP3   OH226740   6.293   6.665   4.508  0.0272  0.2899  0.3781
 1750TIP3    H126741   6.348   6.738   4.478 -0.7068  0.3939 -0.7710
 1750TIP3    H226742   6.258   6.626   4.428 -1.3146  0.0254  1.0540
 1751TIP3   OH226743   3.698   5.218   4.132 -0.1253 -0.2136 -0.1981
 1751TIP3    H126744   3.721   5.133   4.169  0.3753 -0.6717 -1.5009
 1751TIP3    H226745   3.760   5.279   4.173  0.9401 -0.8326 -0.8182
 1752TIP3   OH226746   3.941   6.249  11.639 -0.3658 -0.0510  0.5911
 1752TIP3    H126747   3.856   6.289  11.621 -1.1296 -1.3615  1.1720
 1752TIP3    H226748   3.988   6.253  11.555 -0.2750  2.2802  0.6789
 1753TIP3   OH226749   0.608   2.626  11.056 -0.5257 -0.0826  0.1713
 1753TIP3    H126750   0.649   2.613  10.971  1.3668  1.0683  0.8432
 1753TIP3    H226751   0.583   2.537  11.084  0.4885 -0.7012 -0.8006
 1754TIP3   OH226752   2.747   4.247  14.283  0.0928  0.6945 -0.5022
 1754TIP3    H126753   2.686   4.184  14.246 -1.7842  1.4108  1.1695
 1754TIP3    H226754   2.805   4.270  14.211 -1.6214 -0.0106 -2.1853
 1755TIP3   OH226755   0.775   4.439   2.947  0.5421  0.0212 -0.2503
 1755TIP3    H126756   0.846   4.500   2.925 -0.1933  0.7858 -0.5556
 1755TIP3    H226757   0.702   4.466   2.892 -0.5121  0.2889  1.2106
 1756TIP3   OH226758   4.301   6.686   6.265 -0.3117 -0.1752 -0.5104
 1756TIP3    H126759   4.285   6.768   6.312  0.0105 -0.4038  0.0026
 1756TIP3    H226760   4.299   6.618   6.332  0.9874 -0.4076 -0.6817
 1757TIP3   OH226761   0.088   5.033   1.786  0.5720  0.0159  0.4523
 1757TIP3    H126762   0.116   5.105   1.843 -1.3731  0.1523  1.3259
 1757TIP3    H226763   0.005   5.004   1.824  1.5044 -3.0121  0.3830
 1758TIP3   OH226764   4.353   5.884  12.999  0.6679 -0.1065  0.1169
 1758TIP3    H126765   4.392   5.875  12.912  1.1275  0.9917  0.1883
 1758TIP3    H226766   4.333   5.795  13.026  1.0072 -0.5035 -0.8944
 1759TIP3   OH226767   3.395   0.610   0.583 -0.4247 -0.2738 -0.6266
 1759TIP3    H126768   3.326   0.620   0.518  0.1265  1.7173 -0.9857
 1759TIP3    H226769   3.467   0.567   0.536 -0.7059 -0.5537 -0.8027
 1760TIP3   OH226770   6.242   4.992  16.715  0.3987 -0.0005  0.1749
 1760TIP3    H126771   6.169   5.044  16.681 -1.0658  0.3337  3.4406
 1760TIP3    H226772   6.222   4.903  16.688  0.8268  0.5289 -2.0937
 1761TIP3   OH226773   4.538   1.215  12.329 -0.3067  0.3922  0.3996
 1761TIP3    H126774   4.524   1.127  12.364  1.7655  0.1936  0.8565
 1761TIP3    H226775   4.614   1.206  12.271 -2.2886  1.1661 -2.5546
 1762TIP3   OH226776   2.990   1.817   1.540  0.2830  0.4045  0.5653
 1762TIP3    H126777   2.948   1.777   1.616 -2.9054  0.3439 -1.0814
 1762TIP3    H226778   2.950   1.774   1.464  1.1567  2.5025 -1.2014
 1763TIP3   OH226779   6.333   6.070   3.779 -0.0524 -0.5683  0.3617
 1763TIP3    H126780   6.316   6.057   3.686  2.0972  3.5334 -0.8352
 1763TIP3    H226781   6.412   6.017   3.796  0.4991 -0.0852 -0.6102
 1764TIP3   OH226782   2.638   3.360  14.460 -0.5814  0.0028 -0.0081
 1764TIP3    H126783   2.638   3.432  14.398 -0.5321 -0.0003 -0.0123
 1764TIP3    H226784   2.593   3.395  14.537 -0.1058  0.2055  0.1809
 1765TIP3   OH226785   0.927   1.642   0.893 -0.2263  0.1777  0.7100
 1765TIP3    H126786   0.928   1.685   0.978 -1.6929 -1.9390  1.8914
 1765TIP3    H226787   1.000   1.581   0.895 -0.8112 -0.5325  0.8416
 1766TIP3   OH226788   2.200   5.125  14.546 -0.2704 -0.0882 -0.5842
 1766TIP3    H126789   2.198   5.190  14.617  1.6814  1.0530 -1.4833
 1766TIP3    H226790   2.246   5.050  14.584 -2.2037 -0.8629  0.3456
 1767TIP3   OH226791   4.680   0.009   0.350 -0.3193  0.3628 -0.4212
 1767TIP3    H126792   4.728  -0.060   0.304  0.3064  0.0763  0.6369
 1767TIP3    H226793   4.609   0.032   0.290  1.0679  0.7414 -1.9914
 1768TIP3   OH226794   5.104   5.940  16.766  0.0949  0.2956  0.1010
 1768TIP3    H126795   5.032   6.002  16.776  0.4249  1.1453 -2.2321
 1768TIP3    H226796   5.158   5.977  16.696  2.4642 -0.6444  1.3045
 1769TIP3   OH226797   1.686   3.626  15.780  0.1641  0.2711  0.3723
 1769TIP3    H126798   1.716   3.594  15.865  0.2380 -0.4321  0.0881
 1769TIP3    H226799   1.767   3.638  15.729  0.0737 -0.0654  0.1449
 1770TIP3   OH226800   5.305   4.005   2.737  0.0394 -0.2938 -0.1122
 1770TIP3    H126801   5.213   4.005   2.711 -0.9217  0.5814  2.9590
 1770TIP3    H226802   5.312   3.934   2.801  0.0183  2.8763  3.8012
 1771TIP3   OH226803   1.616   4.690  16.960  0.2168 -0.5935 -0.1051
 1771TIP3    H126804   1.669   4.745  16.904  0.6956  0.3931  1.2587
 1771TIP3    H226805   1.581   4.749  17.027 -3.2723 -1.0133 -1.3054
 1772TIP3   OH226806   0.101   0.760  15.833  0.2008 -0.2215  0.2827
 1772TIP3    H126807   0.164   0.731  15.898  0.9097 -0.3401 -0.4468
 1772TIP3    H226808   0.090   0.686  15.774  0.8768  0.4466 -0.7199
 1773TIP3   OH226809   0.988   3.634  12.253  0.1443 -0.4361  0.0464
 1773TIP3    H126810   0.913   3.578  12.275 -0.5653  0.2579 -0.5340
 1773TIP3    H226811   0.948   3.713  12.216  1.1484  0.1945  0.2783
 1774TIP3   OH226812   4.249   4.235   1.612  0.7679  0.0843 -0.4818
 1774TIP3    H126813   4.245   4.276   1.526 -0.8875  1.1058  0.0449
 1774TIP3    H226814   4.287   4.302   1.669  0.5534 -0.0843 -0.1356
 1775TIP3   OH226815   0.828   5.372   5.031  0.6485  0.0610  0.8470
 1775TIP3    H126816   0.738   5.377   5.061  0.1075  1.0988 -0.7622
 1775TIP3    H226817   0.827   5.306   4.962  0.3305  2.2360 -1.3903
 1776TIP3   OH226818   6.582   5.254   4.589 -0.2068  0.0999 -0.3473
 1776TIP3    H126819   6.634   5.174   4.595  0.4257  0.5691  0.6379
 1776TIP3    H226820   6.515   5.235   4.523  0.8797 -0.6991 -1.2448
 1777TIP3   OH226821   2.255   4.043   5.850 -0.2030  0.4410  0.4502
 1777TIP3    H126822   2.162   4.058   5.868 -0.3135 -1.2683  1.5058
 1777TIP3    H226823   2.294   4.027   5.935  0.8357 -0.0285 -0.0963
 1778TIP3   OH226824   6.171   3.658  16.473  0.0813 -0.1348  0.1431
 1778TIP3    H126825   6.201   3.737  16.518 -2.1249  1.3799 -0.8592
 1778TIP3    H226826   6.229   3.650  16.397 -0.7813  1.6417 -0.7567
 1779TIP3   OH226827   2.934   0.955  12.664  0.7321  0.1315 -0.1772
 1779TIP3    H126828   2.918   0.868  12.702  1.0092  0.3939  0.5637
 1779TIP3    H226829   3.000   0.940  12.597  0.3320 -0.3247 -0.4798
 1780TIP3   OH226830   1.948   3.811  15.250  0.3756  0.9058  0.1037
 1780TIP3    H126831   1.980   3.890  15.206  1.9389  1.5919  2.3032
 1780TIP3    H226832   1.854   3.828  15.264  0.3844  1.7209 -0.7281
 1781TIP3   OH226833   0.270   4.111  10.907 -0.1562 -0.0158  0.1170
 1781TIP3    H126834   0.261   4.151  10.993 -0.6990 -2.4500  1.2701
 1781TIP3    H226835   0.194   4.054  10.899  1.4135 -2.1459 -0.6304
 1782TIP3   OH226836   5.661   0.219   4.414 -0.2150  0.4967  0.0058
 1782TIP3    H126837   5.722   0.241   4.485  0.7390  1.2063 -0.9973
 1782TIP3    H226838   5.574   0.227   4.453  0.2881 -1.7887  1.8470
 1783TIP3   OH226839   6.147   2.499   4.076  0.7468  0.4914 -0.4429
 1783TIP3    H126840   6.069   2.519   4.127  0.3905 -2.2296  0.2154
 1783TIP3    H226841   6.220   2.533   4.128  0.1541  0.8847  0.1415
 1784TIP3   OH226842   3.431   1.866  12.134 -0.1571  0.0006  0.0381
 1784TIP3    H126843   3.496   1.805  12.101 -0.6624 -0.2051 -0.6027
 1784TIP3    H226844   3.387   1.819  12.204  0.5640  0.2462  0.6734
 1785TIP3   OH226845   4.499   3.853  13.445  0.0293 -0.0918 -0.7071
 1785TIP3    H126846   4.507   3.796  13.522  2.4081  1.4291  0.2966
 1785TIP3    H226847   4.429   3.914  13.467 -0.1038 -0.4060 -0.2504
 1786TIP3   OH226848   5.409   5.879  15.402  0.3240 -0.0178 -0.3264
 1786TIP3    H126849   5.370   5.820  15.337 -1.6206  1.0223 -0.1888
 1786TIP3    H226850   5.365   5.857  15.484 -0.6762  1.7713 -0.3347
 1787TIP3   OH226851   5.734   4.769  12.577  0.3536 -0.3124 -0.1348
 1787TIP3    H126852   5.691   4.693  12.616  3.1076 -1.7462  0.3550
 1787TIP3    H226853   5.680   4.790  12.500 -1.1505 -1.9881  0.3954
 1788TIP3   OH226854   4.435   0.140   1.154  0.5436 -0.0474  0.6659
 1788TIP3    H126855   4.450   0.046   1.156 -1.2160 -0.3579  1.8993
 1788TIP3    H226856   4.413   0.160   1.063 -0.8167 -1.1755  0.7059
 1789TIP3   OH226857   6.594   3.061   4.046 -0.2911 -0.4519 -0.2502
 1789TIP3    H126858   6.524   3.116   4.081 -1.3100 -1.5285 -0.5538
 1789TIP3    H226859   6.550   2.995   3.992  0.9198 -1.3301 -0.2298
 1790TIP3   OH226860   4.391   6.746  17.511 -0.2181 -0.7339 -0.4690
 1790TIP3    H126861   4.421   6.735  17.420  0.1382  0.6239 -0.5357
 1790TIP3    H226862   4.307   6.791  17.503  0.0049 -0.2479 -0.1208
 1791TIP3   OH226863   0.066   0.601  12.721  0.1188 -0.0174  0.1970
 1791TIP3    H126864   0.088   0.525  12.666 -0.1871  1.0375 -1.4777
 1791TIP3    H226865   0.139   0.609  12.782  0.5716 -1.1450 -0.1773
 1792TIP3   OH226866   4.686   3.714   1.187  0.1527  0.1191 -0.1668
 1792TIP3    H126867   4.635   3.768   1.247  0.6453 -0.0388  0.4101
 1792TIP3    H226868   4.715   3.640   1.240  1.0099  0.2274 -0.4681
 1793TIP3   OH226869   0.907   2.601  14.659  0.5125 -0.1672  0.7378
 1793TIP3    H126870   0.838   2.666  14.643  0.2251 -0.2488  1.5916
 1793TIP3    H226871   0.890   2.531  14.597 -0.6672 -0.5612  1.4923
 1794TIP3   OH226872   6.318   4.594   5.704 -0.0820  0.0916  0.2956
 1794TIP3    H126873   6.371   4.664   5.666  0.9394 -0.4223  0.7323
 1794TIP3    H226874   6.262   4.564   5.631  1.4967 -0.5510 -0.7055
 1795TIP3   OH226875   6.637   2.561   0.764 -0.5836 -0.1073  0.3195
 1795TIP3    H126876   6.620   2.653   0.782  1.3026  0.1609  1.0460
 1795TIP3    H226877   6.698   2.534   0.833  0.4147 -1.3466 -0.9710
 1796TIP3   OH226878   3.053   0.327   1.210  0.3823  0.7825 -0.3642
 1796TIP3    H126879   2.971   0.334   1.259  0.8982  1.6504  0.4200
 1796TIP3    H226880   3.035   0.369   1.127 -0.4451 -0.5133 -0.8784
 1797TIP3   OH226881   6.194   3.579  16.761  0.1416 -0.4586 -0.5370
 1797TIP3    H126882   6.217   3.672  16.768  0.5018 -0.4550 -1.5569
 1797TIP3    H226883   6.120   3.577  16.699 -0.8057 -0.7302  0.5780
 1798TIP3   OH226884   2.739   0.882   2.738  0.3640  0.8024  0.4917
 1798TIP3    H126885   2.768   0.909   2.825 -0.4248 -0.4308  1.1696
 1798TIP3    H226886   2.757   0.788   2.735 -1.0187  0.5240 -0.0886
 1799TIP3   OH226887   6.424   6.546  14.323 -0.6117 -0.2083  0.2705
 1799TIP3    H126888   6.494   6.495  14.283 -0.1868  0.9485 -0.5084
 1799TIP3    H226889   6.351   6.485  14.332  0.7771 -1.7177  2.0302
 1800TIP3   OH226890   1.691   1.611   1.080  0.0963 -1.0124  0.4338
 1800TIP3    H126891   1.744   1.676   1.126 -1.1065  1.1424 -1.0499
 1800TIP3    H226892   1.621   1.589   1.141  0.1744 -0.4488  0.7250
 1801TIP3   OH226893   1.017   6.044  12.712  0.3068  0.1021 -0.1739
 1801TIP3    H126894   0.925   6.024  12.732 -0.3700  0.3607 -2.7062
 1801TIP3    H226895   1.065   5.967  12.743 -0.8946 -0.5686  0.1128
 1802TIP3   OH226896   1.795   6.753   5.279  0.0778  0.3916 -0.1983
 1802TIP3    H126897   1.871   6.705   5.248  0.9771  1.3775  0.4214
 1802TIP3    H226898   1.830   6.837   5.309 -1.2799  0.9465 -0.0959
 1803TIP3   OH226899   3.573   3.410  11.738 -0.1412 -0.5111  0.5428
 1803TIP3    H126900   3.489   3.402  11.694 -0.4487  1.2564  0.7286
 1803TIP3    H226901   3.569   3.494  11.783  1.8329 -0.2516  0.3391
 1804TIP3   OH226902   6.070   3.214  15.711  0.9352 -0.1848 -0.5403
 1804TIP3    H126903   6.119   3.193  15.790  0.0972  0.3846  0.1560
 1804TIP3    H226904   6.003   3.146  15.705  0.6878  0.0523 -0.4849
 1805TIP3   OH226905   4.056   5.619   2.613  0.3003 -0.1669  0.5138
 1805TIP3    H126906   4.055   5.657   2.700 -0.4630 -0.3632  0.5927
 1805TIP3    H226907   4.060   5.525   2.627  1.3254 -0.1628  0.3234
 1806TIP3   OH226908   3.333   3.174  10.857 -0.1609  0.6003  0.3288
 1806TIP3    H126909   3.298   3.086  10.872  2.9552 -0.3056  3.8475
 1806TIP3    H226910   3.276   3.231  10.909 -2.2472  0.8066 -2.0362
 1807TIP3   OH226911   4.286   0.421  13.756  0.2166  0.4529  0.2795
 1807TIP3    H126912   4.298   0.334  13.793  1.8696  0.8893  0.8831
 1807TIP3    H226913   4.234   0.468  13.821  0.0226  0.1589  0.3372
 1808TIP3   OH226914   1.908   5.019   1.233 -0.1546 -0.1901 -0.1595
 1808TIP3    H126915   1.818   5.051   1.235  0.2568  1.0405 -0.3115
 1808TIP3    H226916   1.909   4.952   1.165 -0.8642  0.0786 -0.4433
 1809TIP3   OH226917   3.762   6.740  16.337 -0.0889  0.4163  0.1653
 1809TIP3    H126918   3.787   6.655  16.302 -1.7469  0.3928 -1.1113
 1809TIP3    H226919   3.754   6.726  16.432  0.0455 -0.7367  0.0228
 1810TIP3   OH226920   4.980   2.535  17.436 -0.0087  0.3680  0.2304
 1810TIP3    H126921   5.058   2.579  17.470 -0.2058  1.5522 -0.7681
 1810TIP3    H226922   4.945   2.595  17.370 -1.3939 -0.4368  0.1788
 1811TIP3   OH226923   2.540   0.999  10.971  0.1954 -0.1854 -0.1600
 1811TIP3    H126924   2.587   1.080  10.994  0.2879  0.0513 -1.1049
 1811TIP3    H226925   2.448   1.018  10.991  0.4352 -0.5274  1.3745
 1812TIP3   OH226926   5.409   1.636  13.187 -0.4910 -0.0205 -0.3275
 1812TIP3    H126927   5.450   1.590  13.113  1.1181  1.2660 -0.2910
 1812TIP3    H226928   5.457   1.604  13.264 -0.1151  0.8550 -0.1862
 1813TIP3   OH226929   5.059   3.868   2.702  0.2379  0.2806  0.4337
 1813TIP3    H126930   5.082   3.844   2.792  2.7601  1.3889  0.1906
 1813TIP3    H226931   5.070   3.788   2.652  3.0900  0.5086  0.5106
 1814TIP3   OH226932   1.288   3.124   1.021  0.0046 -0.3175  0.1276
 1814TIP3    H126933   1.275   3.042   0.974 -0.2307 -1.6716  2.4181
 1814TIP3    H226934   1.213   3.178   0.997  0.5878 -0.3904 -2.0558
 1815TIP3   OH226935   1.624   5.649   5.424  0.0138  0.6594  0.1486
 1815TIP3    H126936   1.636   5.728   5.371  0.2743  0.7354  0.3234
 1815TIP3    H226937   1.645   5.577   5.364 -0.0095  0.7321  0.0527
 1816TIP3   OH226938   5.153   4.375  13.606 -0.3893 -0.5271  0.2868
 1816TIP3    H126939   5.145   4.454  13.552  1.2753 -1.4403 -1.3755
 1816TIP3    H226940   5.081   4.319  13.577  0.1573 -0.7790 -0.6194
 1817TIP3   OH226941   5.811   0.404  14.944  0.0385 -0.6617  0.6218
 1817TIP3    H126942   5.753   0.358  14.883  0.4013 -0.2027 -0.0788
 1817TIP3    H226943   5.889   0.425  14.892  0.0821  0.3180  1.0700
 1818TIP3   OH226944   4.315   6.209   1.685 -1.0566  0.6418 -0.1050
 1818TIP3    H126945   4.260   6.163   1.621 -1.6405  2.2028 -0.7773
 1818TIP3    H226946   4.252   6.247   1.747 -0.4787 -1.6000  2.0355
 1819TIP3   OH226947   4.126   6.544  16.452 -0.7923  0.1911  0.1901
 1819TIP3    H126948   4.099   6.635  16.469 -0.4396  0.0388  1.7072
 1819TIP3    H226949   4.099   6.496  16.531  1.9876 -0.3655  0.8971
 1820TIP3   OH226950   6.327   6.017   5.856  0.0320  0.3319  0.3910
 1820TIP3    H126951   6.281   5.935   5.835 -0.6118  0.9143 -0.6091
 1820TIP3    H226952   6.349   6.054   5.770  0.8332  0.9237  0.8431
 1821TIP3   OH226953   3.916   1.586  14.165 -0.6109 -0.0965 -0.1831
 1821TIP3    H126954   3.998   1.607  14.211 -0.1369 -1.4328 -0.3459
 1821TIP3    H226955   3.945   1.539  14.086 -1.4931  0.5567 -0.9046
 1822TIP3   OH226956   3.112   1.198   4.414  0.0687 -0.1282 -0.5634
 1822TIP3    H126957   3.161   1.209   4.496 -0.5095 -0.6409 -0.1376
 1822TIP3    H226958   3.166   1.136   4.363  0.4012  0.1469 -0.5496
 1823TIP3   OH226959   5.694   3.204   2.804  0.5760  0.4424 -0.0085
 1823TIP3    H126960   5.700   3.241   2.716 -0.8844 -0.2456 -0.4268
 1823TIP3    H226961   5.699   3.109   2.791 -2.9701  0.0982  0.2054
 1824TIP3   OH226962   2.087   2.253   0.310  0.3266 -0.2409  0.2492
 1824TIP3    H126963   2.099   2.314   0.238 -5.0738  1.1153  0.0472
 1824TIP3    H226964   2.097   2.166   0.271 -3.1397  0.4171 -2.6520
 1825TIP3   OH226965   5.484   2.876  16.759  0.3598  0.1991  0.2389
 1825TIP3    H126966   5.476   2.890  16.854 -0.6153 -0.6132  0.2942
 1825TIP3    H226967   5.401   2.907  16.723  1.4294  2.2384 -0.6015
 1826TIP3   OH226968   6.252   3.127  13.026  0.6008 -0.3904  0.2903
 1826TIP3    H126969   6.326   3.186  13.009  1.0360 -1.4806 -1.9366
 1826TIP3    H226970   6.239   3.080  12.944 -3.2775  0.4570  0.2426
 1827TIP3   OH226971   4.653   3.440  16.520  0.0609 -0.7913 -0.7693
 1827TIP3    H126972   4.612   3.399  16.596  0.0651 -1.2829 -1.0227
 1827TIP3    H226973   4.606   3.521  16.507  1.0767  0.0797  0.7074
 1828TIP3   OH226974   2.519   1.301   0.415 -0.4072  0.0011  0.1993
 1828TIP3    H126975   2.463   1.229   0.385  0.4740 -0.0144 -1.4920
 1828TIP3    H226976   2.528   1.358   0.339  0.9952  0.5735  0.7626
 1829TIP3   OH226977   4.950   0.537  14.584  0.4205 -0.0208  0.8467
 1829TIP3    H126978   4.934   0.632  14.585  2.2408  0.4171 -1.7797
 1829TIP3    H226979   4.978   0.518  14.495  2.1772 -2.6835  1.8303
 1830TIP3   OH226980   5.380   6.541   0.919 -0.2703 -0.4766  0.2283
 1830TIP3    H126981   5.454   6.531   0.859 -1.1488 -0.9618 -0.8187
 1830TIP3    H226982   5.330   6.615   0.883 -0.3993 -0.2750  0.8142
 1831TIP3   OH226983   3.097   5.219   4.445  0.0222 -0.3722  0.5198
 1831TIP3    H126984   3.004   5.242   4.447 -0.1428 -0.0273 -3.4440
 1831TIP3    H226985   3.142   5.303   4.437  0.3254 -0.6950 -1.5561
 1832TIP3   OH226986   5.879   5.067  14.999  0.2194  0.1163 -0.0768
 1832TIP3    H126987   5.827   5.047  15.078 -0.3653 -1.8841 -0.9006
 1832TIP3    H226988   5.950   5.003  15.001 -0.0791 -0.2785 -1.3987
 1833TIP3   OH226989   6.048   1.799  11.643  0.5078 -0.4307  0.2429
 1833TIP3    H126990   6.076   1.869  11.583 -1.6377 -0.3378 -0.7399
 1833TIP3    H226991   6.105   1.725  11.622 -1.3085 -1.0258 -3.3547
 1834TIP3   OH226992   5.215   5.064  13.083 -0.4206 -0.3570  0.1629
 1834TIP3    H126993   5.292   5.118  13.061 -1.5328  1.2716  0.1059
 1834TIP3    H226994   5.229   4.983  13.034 -0.0300  0.9599 -2.0686
 1835TIP3   OH226995   2.269   3.016  15.392 -0.6578  0.4740 -0.3678
 1835TIP3    H126996   2.198   2.953  15.390 -0.2450  0.0134 -1.1261
 1835TIP3    H226997   2.303   3.017  15.302  1.3286 -0.5250  0.3212
 1836TIP3   OH226998   3.664   5.178   4.827 -0.1672  0.5725  0.0651
 1836TIP3    H126999   3.649   5.234   4.903  1.1819  2.1740 -0.7924
 1836TIP3    H227000   3.644   5.233   4.751  0.6168 -0.2818 -0.7971
 1837TIP3   OH227001   0.727   6.221   6.119  0.2240 -0.0963  0.0402
 1837TIP3    H127002   0.707   6.133   6.087 -1.0399 -0.4882  1.7133
 1837TIP3    H227003   0.790   6.207   6.190 -0.1329  0.2954  0.4467
 1838TIP3   OH227004   4.644   4.921   4.781  0.0583  0.4241 -0.2877
 1838TIP3    H127005   4.570   4.878   4.823  0.1065  0.0430 -0.5863
 1838TIP3    H227006   4.619   5.013   4.776  1.0362  0.9549  2.7581
 1839TIP3   OH227007   4.126   1.243   4.371 -0.2724  0.0586  0.3094
 1839TIP3    H127008   4.066   1.179   4.410 -1.2347  1.1784  0.7541
 1839TIP3    H227009   4.201   1.192   4.343 -0.2992 -1.0637  2.0840
 1840TIP3   OH227010   5.079   2.798  13.416  0.0419  0.1951 -0.6969
 1840TIP3    H127011   5.097   2.887  13.446 -1.5664 -0.0353  1.0859
 1840TIP3    H227012   5.091   2.743  13.494 -2.8877 -0.6085 -0.6907
 1841TIP3   OH227013   0.264   0.521  13.539 -0.2263  0.2082 -0.4876
 1841TIP3    H127014   0.187   0.492  13.588  0.3370 -0.0160  0.2729
 1841TIP3    H227015   0.232   0.531  13.449 -1.0076 -0.4299 -0.2943
 1842TIP3   OH227016   3.563   4.578   0.714 -0.3894 -0.4046  0.3595
 1842TIP3    H127017   3.469   4.594   0.728 -0.2304 -0.5093  1.6514
 1842TIP3    H227018   3.585   4.634   0.639 -1.5083 -0.4948 -0.0626
 1843TIP3   OH227019   1.888   1.968  11.940 -0.1774 -0.2044  0.3076
 1843TIP3    H127020   1.878   2.012  11.856  0.2049  0.8809  0.8230
 1843TIP3    H227021   1.874   2.036  12.005 -0.8695 -1.1110  1.1463
 1844TIP3   OH227022   1.994   4.153  16.362  0.0433  0.2551 -0.6450
 1844TIP3    H127023   1.991   4.227  16.423 -0.7597  0.2200 -0.6336
 1844TIP3    H227024   2.082   4.157  16.324  0.1667  0.9412 -0.3074
 1845TIP3   OH227025   0.864   3.798  11.209 -0.0341  0.2247  0.0641
 1845TIP3    H127026   0.930   3.733  11.229 -0.9607 -1.5823 -2.2423
 1845TIP3    H227027   0.809   3.802  11.287  0.7550 -0.8396  0.6960
 1846TIP3   OH227028   6.128   6.531   3.353 -0.1523 -0.4548 -0.3463
 1846TIP3    H127029   6.118   6.530   3.257 -0.9841 -1.7187 -0.2784
 1846TIP3    H227030   6.205   6.476   3.369 -0.3606 -0.7313 -0.2756
 1847TIP3   OH227031   4.726   4.737   1.280 -0.3776  0.9554  0.5269
 1847TIP3    H127032   4.818   4.736   1.306 -0.8578  0.9033  2.3795
 1847TIP3    H227033   4.687   4.806   1.334 -1.2894  1.5031 -0.7902
 1848TIP3   OH227034   1.897   4.742  14.317  0.3029  0.0576 -0.4947
 1848TIP3    H127035   1.916   4.822  14.366 -2.5414  0.7821 -0.4268
 1848TIP3    H227036   1.835   4.694  14.372  1.2635 -1.8149 -0.9533
 1849TIP3   OH227037   6.251   0.742   3.829  0.0910 -0.6627 -0.4810
 1849TIP3    H127038   6.307   0.819   3.815  0.2588 -0.8223 -0.6956
 1849TIP3    H227039   6.309   0.677   3.868 -0.6377  0.1752  2.2045
 1850TIP3   OH227040   1.236   0.512   3.978  0.0228  0.0168  0.2052
 1850TIP3    H127041   1.238   0.566   3.899 -1.3928 -1.5189 -0.9519
 1850TIP3    H227042   1.309   0.544   4.031  2.2912 -0.1526 -2.5717
 1851TIP3   OH227043   4.254   5.295  16.018  0.3783 -0.3578  0.0707
 1851TIP3    H127044   4.265   5.207  15.983  0.4972  0.2535 -1.5125
 1851TIP3    H227045   4.321   5.303  16.087  2.7181 -0.3825 -2.0633
 1852TIP3   OH227046   2.401   1.909   0.635 -0.1573  0.4518  0.1208
 1852TIP3    H127047   2.410   1.814   0.643 -0.3761  0.4595  0.4565
 1852TIP3    H227048   2.457   1.944   0.704 -1.7543  0.5196  1.4255
 1853TIP3   OH227049   5.049   2.935   1.035 -0.3242  0.5751 -0.2805
 1853TIP3    H127050   5.099   2.910   1.112 -1.0040  1.4456  0.4757
 1853TIP3    H227051   5.088   3.018   1.006 -1.3058  1.2675  0.3252
 1854TIP3   OH227052   4.520   1.509  15.760 -0.2733  0.1812  0.3960
 1854TIP3    H127053   4.459   1.493  15.688  0.7469  0.5635 -0.5950
 1854TIP3    H227054   4.590   1.561  15.720 -0.5950  2.0181  2.1168
 1855TIP3   OH227055   5.245   0.612  15.348 -0.4409 -0.1736 -0.6364
 1855TIP3    H127056   5.328   0.630  15.303  1.5108  1.8653  3.2287
 1855TIP3    H227057   5.258   0.527  15.390 -0.0158  0.3626  0.3660
 1856TIP3   OH227058   2.057   3.261   3.005 -0.1897  0.3637 -0.4031
 1856TIP3    H127059   2.033   3.212   3.084 -0.2464 -0.5279 -0.9616
 1856TIP3    H227060   2.075   3.350   3.037  3.5541 -0.7995  1.2543
 1857TIP3   OH227061   0.614   2.330  11.039 -0.5133  0.4868  0.2750
 1857TIP3    H127062   0.613   2.352  10.946 -0.8424  0.9037  0.3756
 1857TIP3    H227063   0.703   2.298  11.055 -0.6377 -0.1620 -0.3113
 1858TIP3   OH227064   1.188   3.263  12.573  0.0143 -0.3285  0.4458
 1858TIP3    H127065   1.268   3.226  12.537 -0.5370  0.9729 -2.3956
 1858TIP3    H227066   1.194   3.248  12.667  2.8163 -1.6656  0.1330
 1859TIP3   OH227067   0.145   4.893  16.824 -0.1193  0.1077  0.2227
 1859TIP3    H127068   0.235   4.864  16.809 -0.6489 -1.2581 -0.3760
 1859TIP3    H227069   0.149   4.988  16.811  0.8761 -0.1451 -1.6735
 1860TIP3   OH227070   2.081   1.173  12.858  0.3591 -0.2648  0.1089
 1860TIP3    H127071   2.019   1.120  12.809 -1.0687  1.3101  0.1491
 1860TIP3    H227072   2.151   1.193  12.796 -1.1820  1.3011 -1.1955
 1861TIP3   OH227073   6.689   0.219   1.774  0.0808  0.3796 -0.3793
 1861TIP3    H127074   6.739   0.272   1.836  0.7239 -0.6449  0.0080
 1861TIP3    H227075   6.702   0.129   1.803 -3.0526  0.0905  0.5299
 1862TIP3   OH227076   4.261   0.918  13.201 -0.3489 -0.7550 -0.0201
 1862TIP3    H127077   4.302   0.836  13.228 -0.0348 -0.6574 -0.2079
 1862TIP3    H227078   4.239   0.962  13.283  1.5672  0.0328  0.1127
 1863TIP3   OH227079   6.220   1.485  11.683  0.1766  0.2153  0.1427
 1863TIP3    H127080   6.199   1.515  11.595  1.0835 -1.3287 -0.6400
 1863TIP3    H227081   6.283   1.550  11.716 -0.7790  1.2444 -0.0009
 1864TIP3   OH227082   0.394   2.124   3.636 -0.3573  0.0626 -0.3082
 1864TIP3    H127083   0.330   2.163   3.696  0.5110 -0.7123  1.1916
 1864TIP3    H227084   0.472   2.178   3.646  0.1438 -0.7224  0.1119
 1865TIP3   OH227085   1.665   0.139   4.489  0.0200 -0.4467 -0.1034
 1865TIP3    H127086   1.621   0.167   4.409 -1.5409 -0.4310  0.7254
 1865TIP3    H227087   1.666   0.217   4.545  0.8265 -0.5358  0.0200
 1866TIP3   OH227088   3.546   3.717  12.427 -0.0418 -0.0803 -0.0626
 1866TIP3    H127089   3.533   3.807  12.456  0.9520  0.3888 -1.0098
 1866TIP3    H227090   3.473   3.700  12.368  0.8742  0.8520 -1.5244
 1867TIP3   OH227091   3.551   2.863  12.127 -0.1209 -0.0487  0.4080
 1867TIP3    H127092   3.518   2.881  12.039 -1.4465  1.4538  1.1687
 1867TIP3    H227093   3.614   2.792  12.115  1.2774  1.4809 -2.0482
 1868TIP3   OH227094   6.309   5.421  12.185  0.7197 -0.5938 -0.1234
 1868TIP3    H127095   6.280   5.390  12.100  1.9964  0.8097 -1.1401
 1868TIP3    H227096   6.377   5.486  12.164  0.0256  0.8770  1.9153
 1869TIP3   OH227097   2.745   1.626  13.775 -0.6587  0.3388  0.4208
 1869TIP3    H127098   2.665   1.646  13.824 -0.0824  2.4872  0.5516
 1869TIP3    H227099   2.759   1.701  13.719  2.2943  0.9426  1.7741
 1870TIP3   OH227100   4.713   2.788   5.712 -0.2202 -0.0054  0.6064
 1870TIP3    H127101   4.784   2.848   5.689 -0.3260  1.1024  2.8571
 1870TIP3    H227102   4.748   2.701   5.691  0.2361  0.7262 -1.9738
 1871TIP3   OH227103   6.374   1.963   5.644 -0.5688  0.2757 -0.2822
 1871TIP3    H127104   6.322   2.006   5.576 -0.2327 -1.5768 -1.7924
 1871TIP3    H227105   6.366   1.869   5.625  0.2078 -0.2636  1.7744
 1872TIP3   OH227106   3.603   2.577   1.380  0.2259  0.3229 -0.2729
 1872TIP3    H127107   3.663   2.522   1.329 -0.0132  1.0810 -1.4216
 1872TIP3    H227108   3.651   2.597   1.460  0.5291 -1.0783 -0.0759
 1873TIP3   OH227109   6.132   3.019   3.089  0.9235 -0.8636 -0.0777
 1873TIP3    H127110   6.180   3.075   3.028  1.4646 -0.5253  0.6393
 1873TIP3    H227111   6.047   3.005   3.048  1.1542 -0.3506 -0.7413
 1874TIP3   OH227112   5.343   5.267   4.101 -0.1965 -0.3892  0.4801
 1874TIP3    H127113   5.292   5.187   4.088 -1.0950  0.0192  1.4399
 1874TIP3    H227114   5.367   5.294   4.012 -0.3759 -1.3946  0.1048
 1875TIP3   OH227115   3.906   1.113  11.231  0.2508 -0.1420  0.4168
 1875TIP3    H127116   3.883   1.110  11.138  0.0273  0.1189  0.4604
 1875TIP3    H227117   3.920   1.021  11.256  0.3696 -0.2059  0.1114
 1876TIP3   OH227118   0.092   4.696  12.845  0.4186  0.3222  0.0135
 1876TIP3    H127119   0.019   4.743  12.885 -0.6899 -1.1824 -0.1744
 1876TIP3    H227120   0.169   4.729  12.891 -0.4096  1.5246  0.6113
 1877TIP3   OH227121   3.795   0.818   0.424 -0.3262 -0.0249 -0.3875
 1877TIP3    H127122   3.879   0.817   0.378 -0.5176 -0.8567 -0.7515
 1877TIP3    H227123   3.800   0.893   0.482  1.9650 -1.7660  1.9364
 1878TIP3   OH227124   2.716   1.473  12.784  0.5701  0.0870 -0.1006
 1878TIP3    H127125   2.808   1.493  12.801  0.0132  2.7831  0.1643
 1878TIP3    H227126   2.693   1.531  12.711 -1.3519  0.7602  0.9864
 1879TIP3   OH227127   0.754   4.798  16.041 -0.6227 -0.2772 -0.1632
 1879TIP3    H127128   0.730   4.840  15.958 -1.7151  0.5115  0.5189
 1879TIP3    H227129   0.689   4.729  16.051  0.1556 -1.0648 -0.4653
 1880TIP3   OH227130   3.078   0.386  12.103 -0.3534 -0.1838  0.0466
 1880TIP3    H127131   3.088   0.376  12.198  0.7575 -0.1795 -0.0574
 1880TIP3    H227132   3.079   0.481  12.089 -3.6680  0.0230  0.3045
 1881TIP3   OH227133   3.827   4.426  16.383  0.9056 -0.1076 -0.2956
 1881TIP3    H127134   3.782   4.467  16.309  0.8800 -0.2386 -0.3534
 1881TIP3    H227135   3.876   4.354  16.343 -1.0329 -1.7453  0.0974
 1882TIP3   OH227136   2.795   1.390   4.948 -0.0538 -0.2319  0.6213
 1882TIP3    H127137   2.857   1.405   5.020 -0.5103  1.7936  0.6632
 1882TIP3    H227138   2.805   1.467   4.892 -1.2925 -0.7147 -0.3056
 1883TIP3   OH227139   6.710   0.081  12.640 -0.0043 -0.1574 -0.3746
 1883TIP3    H127140   6.700   0.173  12.662  0.0194 -0.6947  2.1092
 1883TIP3    H227141   6.713   0.080  12.544 -5.2560  1.9033 -0.8684
 1884TIP3   OH227142   0.705   5.098  17.190  0.1190 -0.9100 -0.1261
 1884TIP3    H127143   0.711   5.161  17.262 -0.8195  0.5756 -1.2977
 1884TIP3    H227144   0.643   5.032  17.221  0.0328 -0.5039  0.5801
 1885TIP3   OH227145   2.004   5.173   4.255 -0.2970  0.2525  0.2243
 1885TIP3    H127146   1.961   5.250   4.291 -0.8397 -0.1410  0.4214
 1885TIP3    H227147   2.091   5.173   4.296  0.5146  1.9070 -1.3211
 1886TIP3   OH227148   0.854   6.756   5.399  0.3641 -0.7395  0.1990
 1886TIP3    H127149   0.877   6.683   5.456  0.3042 -1.0678 -0.1904
 1886TIP3    H227150   0.870   6.834   5.452  0.4149 -1.0346  0.6234
 1887TIP3   OH227151   5.836   3.677  15.033 -0.3611 -0.3071  0.1630
 1887TIP3    H127152   5.804   3.713  15.116  0.0587  0.9544 -0.1986
 1887TIP3    H227153   5.801   3.588  15.031 -0.5939 -0.2767  1.5673
 1888TIP3   OH227154   2.089   1.456   0.616 -0.5485 -0.3335 -0.0905
 1888TIP3    H127155   2.166   1.499   0.578  0.2874 -2.3374 -0.8100
 1888TIP3    H227156   2.076   1.379   0.561 -3.5952  0.3175 -0.4669
 1889TIP3   OH227157   3.851   4.894  14.876 -0.0015  0.3068 -0.4767
 1889TIP3    H127158   3.808   4.854  14.951 -1.1582 -0.0800 -1.3154
 1889TIP3    H227159   3.920   4.832  14.853  0.3342  0.4085  0.2352
 1890TIP3   OH227160   5.531   3.551   6.322 -0.5508 -0.0728  0.9033
 1890TIP3    H127161   5.458   3.609   6.343 -0.5528 -0.0327  0.7858
 1890TIP3    H227162   5.493   3.481   6.270 -0.0628  1.4395 -1.6936
 1891TIP3   OH227163   5.068   1.044  17.136 -0.0465  0.2106  0.2651
 1891TIP3    H127164   4.994   1.014  17.084 -0.4043  1.3628  0.0876
 1891TIP3    H227165   5.143   1.040  17.076 -0.0412 -0.4883  0.3034
 1892TIP3   OH227166   4.311   5.286  10.821  0.4199 -0.4547 -0.3692
 1892TIP3    H127167   4.250   5.237  10.765 -0.4888  1.7749 -1.4540
 1892TIP3    H227168   4.373   5.326  10.760  1.1447 -0.2453  0.4775
 1893TIP3   OH227169   0.736   2.723   0.406 -0.2523 -0.2123  0.0441
 1893TIP3    H127170   0.751   2.746   0.498 -1.1573 -1.6078  0.5686
 1893TIP3    H227171   0.797   2.651   0.389  0.8246  0.8548 -0.8655
 1894TIP3   OH227172   2.202   0.375   2.224 -0.0930 -0.1606 -0.1359
 1894TIP3    H127173   2.175   0.428   2.299  0.1091 -1.3229  0.7987
 1894TIP3    H227174   2.284   0.333   2.252  0.2647 -0.2154 -1.2108
 1895TIP3   OH227175   2.589   2.542  15.802  0.4380  0.4338 -0.8023
 1895TIP3    H127176   2.567   2.552  15.709  0.0553 -0.9995 -0.8821
 1895TIP3    H227177   2.568   2.627  15.841 -0.8969  0.5510 -1.7343
 1896TIP3   OH227178   6.444   6.695  16.462  0.0740  0.4248 -0.0812
 1896TIP3    H127179   6.497   6.617  16.443 -0.8499 -0.2538  0.0171
 1896TIP3    H227180   6.358   6.675  16.424 -0.4297  1.0306  0.7121
 1897TIP3   OH227181   4.142   6.745   4.970 -0.2989  0.8724 -0.6400
 1897TIP3    H127182   4.201   6.670   4.963 -1.1625  0.0894  0.1197
 1897TIP3    H227183   4.110   6.743   5.060 -0.7523  1.8439 -0.7590
 1898TIP3   OH227184   5.332   1.784  15.804 -0.3417 -0.1260  0.0577
 1898TIP3    H127185   5.334   1.823  15.716 -0.4094 -2.7621 -1.2273
 1898TIP3    H227186   5.424   1.783  15.832 -0.4601  1.9339  0.6617
 1899TIP3   OH227187   4.594   1.731  14.242  0.1945 -0.4797 -0.0905
 1899TIP3    H127188   4.654   1.743  14.316  3.2947 -0.4748 -2.4164
 1899TIP3    H227189   4.564   1.641  14.250  0.0560 -0.3315  1.4038
 1900TIP3   OH227190   3.273   5.218  17.340  0.1379 -0.6407 -0.4628
 1900TIP3    H127191   3.344   5.283  17.341  1.5871 -2.0820  2.4861
 1900TIP3    H227192   3.198   5.265  17.376  0.1109  0.3059 -1.6472
 1901TIP3   OH227193   4.916   4.080  17.446  0.5668  0.2580 -0.5320
 1901TIP3    H127194   4.982   4.041  17.389  1.1123  0.5944 -0.1429
 1901TIP3    H227195   4.904   4.016  17.516  2.7192  1.4629  1.0411
 1902TIP3   OH227196   4.398   3.027   0.611  0.2829  0.2231 -0.3151
 1902TIP3    H127197   4.467   3.029   0.677  0.2944 -0.0810 -0.3157
 1902TIP3    H227198   4.421   2.953   0.555 -0.0000  0.1697 -0.3639
 1903TIP3   OH227199   3.313   5.006   0.783 -0.4348 -0.0854 -0.1970
 1903TIP3    H127200   3.309   5.097   0.755  1.9378 -0.2276 -1.2356
 1903TIP3    H227201   3.297   4.956   0.703  1.2764 -0.5266 -0.3006
 1904TIP3   OH227202   0.904   4.053  16.437 -0.6334  0.0235  0.3273
 1904TIP3    H127203   0.974   3.987  16.446  0.0953  0.5149 -1.3855
 1904TIP3    H227204   0.951   4.135  16.425 -1.5201  0.4351 -0.3901
 1905TIP3   OH227205   5.645   6.028   0.212 -0.0660 -0.4158 -0.0810
 1905TIP3    H127206   5.731   5.986   0.208 -0.0929 -0.6168  1.2488
 1905TIP3    H227207   5.583   5.957   0.195 -0.0448 -0.6336  0.7359
 1906TIP3   OH227208   5.191   4.104   2.993  0.4288 -0.4007 -0.1355
 1906TIP3    H127209   5.136   4.163   2.941 -1.0527  2.0982  3.7924
 1906TIP3    H227210   5.136   4.029   3.012 -0.2006  0.2042  0.4604
 1907TIP3   OH227211   2.221   1.024   2.213  0.2638 -0.1850  0.5658
 1907TIP3    H127212   2.198   0.984   2.129  2.2695 -1.3738  0.5281
 1907TIP3    H227213   2.173   1.107   2.213 -0.2439 -0.4033 -1.4878
 1908TIP3   OH227214   4.256   0.038  13.045  0.1395  0.0748  0.2773
 1908TIP3    H127215   4.246   0.119  12.995 -1.7583 -0.9167 -1.0426
 1908TIP3    H227216   4.290  -0.025  12.982 -2.1213 -1.1449  0.1807
 1909TIP3   OH227217   3.289   2.795   3.749  0.0552 -0.4985 -0.0532
 1909TIP3    H127218   3.275   2.801   3.655 -0.0856  2.8468  0.0510
 1909TIP3    H227219   3.385   2.795   3.759  0.0792  0.2233 -0.2061
 1910TIP3   OH227220   2.092   0.932   6.269 -0.6185 -0.1115  0.7138
 1910TIP3    H127221   2.098   0.978   6.185 -0.9884  0.5599  1.0525
 1910TIP3    H227222   1.999   0.929   6.288 -0.7840 -2.4453 -0.0779
 1911TIP3   OH227223   2.026   4.369   6.463  0.1289  0.0375  0.5832
 1911TIP3    H127224   2.092   4.430   6.498 -0.4096 -0.3734  2.4062
 1911TIP3    H227225   1.969   4.350   6.537  1.6100 -4.5595  0.7928
 1912TIP3   OH227226   2.394   1.888   5.068 -0.1326  0.1867 -0.2161
 1912TIP3    H127227   2.324   1.912   5.128  0.1496  0.5600 -0.0338
 1912TIP3    H227228   2.387   1.950   4.996 -1.0023 -0.7781 -1.0048
 1913TIP3   OH227229   2.025   2.054   3.461  0.0083 -0.5300 -0.3481
 1913TIP3    H127230   1.938   2.034   3.497 -0.2288  0.9313 -0.0483
 1913TIP3    H227231   2.041   1.984   3.398 -0.7889 -1.5850  0.5725
 1914TIP3   OH227232   5.970   5.882  12.528 -0.1121  0.0156 -0.4451
 1914TIP3    H127233   5.963   5.957  12.588  1.1023 -0.3872  0.2288
 1914TIP3    H227234   5.955   5.919  12.441 -0.2696  0.9080 -0.0455
 1915TIP3   OH227235   6.164   1.279  14.176 -0.5328 -0.3016 -0.2315
 1915TIP3    H127236   6.166   1.189  14.208  2.0868  0.1660  1.2218
 1915TIP3    H227237   6.211   1.276  14.092  0.9084 -0.1357  0.5265
 1916TIP3   OH227238   2.442   4.202   1.990 -0.6670 -0.4759 -0.6278
 1916TIP3    H127239   2.417   4.276   2.044 -2.1554  0.0598 -1.9715
 1916TIP3    H227240   2.369   4.190   1.929  1.2338 -0.4405 -3.1136
 1917TIP3   OH227241   4.761   6.591   3.451  0.5811 -0.2921  0.0277
 1917TIP3    H127242   4.825   6.631   3.393 -1.2592  0.3010 -1.7223
 1917TIP3    H227243   4.687   6.652   3.451  0.3311 -0.4680  2.7353
 1918TIP3   OH227244   1.239   5.370   2.696  0.2220  0.0108  0.1048
 1918TIP3    H127245   1.187   5.290   2.703  0.1584 -0.0805 -1.1884
 1918TIP3    H227246   1.329   5.342   2.714 -0.0843  0.1214  2.0805
 1919TIP3   OH227247   0.319   3.314   2.755 -0.1643 -0.1018 -0.5278
 1919TIP3    H127248   0.335   3.225   2.723  1.3700  0.4934 -1.5438
 1919TIP3    H227249   0.317   3.305   2.850  0.8881 -1.1113 -0.5743
 1920TIP3   OH227250   2.428   0.043  12.529 -0.2807  0.4196 -0.2091
 1920TIP3    H127251   2.368   0.016  12.598 -0.2705 -0.7569 -0.6370
 1920TIP3    H227252   2.393   0.002  12.450  0.8847  0.0065 -0.5288
 1921TIP3   OH227253   5.860   3.409  15.644 -0.0316 -0.3116  0.6036
 1921TIP3    H127254   5.899   3.326  15.619  2.1222  0.8254 -0.1211
 1921TIP3    H227255   5.861   3.408  15.740  0.1012 -1.0586  0.5986
 1922TIP3   OH227256   4.769   3.456   5.739  0.5147  0.0538 -0.1123
 1922TIP3    H127257   4.673   3.465   5.732  0.4008 -0.9515  0.0560
 1922TIP3    H227258   4.803   3.529   5.687 -0.3499 -0.0250 -0.8179
 1923TIP3   OH227259   2.618   0.633  15.042 -0.8307 -0.3601  0.4188
 1923TIP3    H127260   2.640   0.597  14.956  0.5841 -0.3269  0.7498
 1923TIP3    H227261   2.522   0.636  15.043 -0.8631 -0.1436 -1.2354
 1924TIP3   OH227262   4.475   0.860   4.641  0.2850  0.0513 -0.6253
 1924TIP3    H127263   4.502   0.865   4.550  0.9708  0.1443 -0.4255
 1924TIP3    H227264   4.526   0.928   4.685  0.6338 -0.5830 -0.0238
 1925TIP3   OH227265   2.314   0.504   2.758  0.3320  0.3002 -0.2704
 1925TIP3    H127266   2.352   0.591   2.745 -1.2990  1.1050  0.0600
 1925TIP3    H227267   2.338   0.480   2.847  1.1270  0.2233 -0.5003
 1926TIP3   OH227268   0.891   5.660  13.397  0.1363 -0.0345  0.2680
 1926TIP3    H127269   0.889   5.670  13.302 -0.2637  0.9564  0.3724
 1926TIP3    H227270   0.942   5.580  13.412  0.4057 -0.0638 -0.7606
 1927TIP3   OH227271   1.629   2.514   6.067 -0.8404  0.0602 -0.2159
 1927TIP3    H127272   1.646   2.421   6.052  0.0041  0.0696  0.6394
 1927TIP3    H227273   1.555   2.516   6.127  0.1398 -0.1129  1.0404
 1928TIP3   OH227274   2.860   1.117  13.541 -0.3203 -0.7554  0.2607
 1928TIP3    H127275   2.952   1.126  13.513 -0.5229  1.0697  0.0715
 1928TIP3    H227276   2.863   1.132  13.635 -0.3779 -1.1371  0.3243
 1929TIP3   OH227277   0.771   3.086  13.593  0.5643  0.0510  0.3759
 1929TIP3    H127278   0.833   3.119  13.528 -0.0460  0.5742  0.0479
 1929TIP3    H227279   0.824   3.033  13.651  1.2705  0.2431 -0.0759
 1930TIP3   OH227280   6.609   2.352  16.734  0.1928 -0.0145 -0.4553
 1930TIP3    H127281   6.619   2.263  16.769 -0.3972 -0.0636 -0.3957
 1930TIP3    H227282   6.688   2.398  16.762  0.2590 -0.3742 -0.0440
 1931TIP3   OH227283   2.123   5.868  14.532 -0.1142  0.2035 -0.0298
 1931TIP3    H127284   2.122   5.861  14.627 -0.8013 -0.7919 -0.0847
 1931TIP3    H227285   2.034   5.893  14.509 -0.4021 -1.1294 -0.4776
 1932TIP3   OH227286   1.816   6.133   6.250  0.3424  0.3630 -0.4418
 1932TIP3    H127287   1.908   6.124   6.275 -0.1871  0.9821  1.9496
 1932TIP3    H227288   1.800   6.059   6.191  1.7799 -1.2177  1.0285
 1933TIP3   OH227289   1.798   1.473   0.505 -0.1198 -0.2088  0.8467
 1933TIP3    H127290   1.807   1.455   0.412  0.4202 -1.3938  1.1085
 1933TIP3    H227291   1.703   1.475   0.521 -0.2317 -2.1618  0.6400
 1934TIP3   OH227292   6.604   5.725  14.619  0.0035 -0.8604  0.2190
 1934TIP3    H127293   6.667   5.680  14.675 -0.1606 -0.0921  1.0487
 1934TIP3    H227294   6.642   5.812  14.606 -0.6513 -0.5517  0.3305
 1935TIP3   OH227295   3.135   6.150   4.337 -0.5909  0.3400 -0.5129
 1935TIP3    H127296   3.113   6.061   4.308 -1.1476  0.0080  0.8690
 1935TIP3    H227297   3.108   6.153   4.429  2.1171  0.9894  0.3456
 1936TIP3   OH227298   5.774   2.459   3.003  0.1216 -0.2560  0.0161
 1936TIP3    H127299   5.771   2.384   3.062  0.8259 -0.0379  0.3342
 1936TIP3    H227300   5.833   2.521   3.045  0.5513 -0.0529 -0.8648
 1937TIP3   OH227301   4.304   0.076   6.515 -0.4120 -0.1931 -0.1204
 1937TIP3    H127302   4.333   0.063   6.605 -1.7917 -3.1439  0.0152
 1937TIP3    H227303   4.234   0.012   6.502 -1.4058  1.2375 -2.8149
 1938TIP3   OH227304   2.254   6.277   4.898 -0.1020 -0.5417  0.2071
 1938TIP3    H127305   2.195   6.316   4.963 -0.1136 -0.3748  0.0974
 1938TIP3    H227306   2.341   6.283   4.937 -0.1845 -0.9889  0.4647
 1939TIP3   OH227307   2.314   5.125   7.014  0.6955 -0.0790  0.7613
 1939TIP3    H127308   2.356   5.116   6.928 -0.2061  0.1489  0.2875
 1939TIP3    H227309   2.231   5.079   7.005  0.0112  1.0464  1.0917
 1940TIP3   OH227310   4.588   5.604  13.778  0.3126 -0.1656  0.2751
 1940TIP3    H127311   4.580   5.572  13.688  1.5489 -0.2155  0.1669
 1940TIP3    H227312   4.616   5.695  13.768  0.9321 -0.3136  0.6038
 1941TIP3   OH227313   4.171   4.543  12.758 -0.1251 -0.0368  0.3235
 1941TIP3    H127314   4.140   4.523  12.669 -0.4097  1.1147  0.1393
 1941TIP3    H227315   4.234   4.614  12.746 -0.1243  0.0908  1.0388
 1942TIP3   OH227316   6.691   5.609   4.251  1.0107  0.2230  0.1779
 1942TIP3    H127317   6.616   5.643   4.300  1.8764  0.9784  1.0328
 1942TIP3    H227318   6.716   5.529   4.297  0.3400 -0.4079 -0.5139
 1943TIP3   OH227319   5.047   6.456   0.630  0.3564 -0.1751  0.0480
 1943TIP3    H127320   5.142   6.451   0.629  0.3834  0.2378  0.3034
 1943TIP3    H227321   5.019   6.394   0.562  0.8215  0.0448 -0.3551
 1944TIP3   OH227322   6.385   5.074  12.684  0.2176 -0.0413  0.3448
 1944TIP3    H127323   6.352   5.078  12.774  1.6740 -0.1212  0.9072
 1944TIP3    H227324   6.366   5.161  12.648  1.0835  0.5533  1.2780
 1945TIP3   OH227325   0.058   2.193   2.436 -0.2191 -0.6753 -0.3898
 1945TIP3    H127326   0.149   2.180   2.463 -0.2267 -2.0791 -0.9996
 1945TIP3    H227327   0.011   2.119   2.473 -0.6808 -1.2856 -2.1117
 1946TIP3   OH227328   3.860   4.565  12.404 -0.0568 -0.5388 -0.1423
 1946TIP3    H127329   3.886   4.615  12.327 -0.7166 -2.3501 -1.6249
 1946TIP3    H227330   3.771   4.594  12.423 -0.0187 -0.3276 -0.2908
 1947TIP3   OH227331   5.506   6.543   3.715  0.0862 -0.5785 -0.2110
 1947TIP3    H127332   5.417   6.521   3.741  0.4126 -0.3816  1.1682
 1947TIP3    H227333   5.518   6.498   3.631 -1.4085 -0.3188 -0.5958
 1948TIP3   OH227334   0.076   0.733   4.714  0.1299  0.1347 -0.2867
 1948TIP3    H127335   0.111   0.744   4.803 -1.4700 -0.9960  0.5375
 1948TIP3    H227336   0.152   0.741   4.657  1.7608 -2.1075  1.3869
 1949TIP3   OH227337   1.618   2.745  12.048 -0.4904 -0.3681 -0.6767
 1949TIP3    H127338   1.709   2.737  12.021 -0.2746  0.3560 -0.1880
 1949TIP3    H227339   1.588   2.828  12.010 -1.1028 -0.8476 -1.2666
 1950TIP3   OH227340   2.549   0.731   1.463 -0.0959  0.1788  0.3851
 1950TIP3    H127341   2.568   0.770   1.548  0.4976 -1.1303  0.8827
 1950TIP3    H227342   2.497   0.653   1.483 -1.3596  0.7300 -0.5904
 1951TIP3   OH227343   3.003   6.385  13.006 -0.0830  0.2890  0.4190
 1951TIP3    H127344   2.928   6.335  13.038  0.7436 -0.6889  0.8783
 1951TIP3    H227345   3.015   6.356  12.916 -1.3693  1.8103 -0.2928
 1952TIP3   OH227346   1.980   0.313  11.336 -0.1373 -0.0624 -0.3616
 1952TIP3    H127347   1.943   0.401  11.341  0.6916  0.3642 -1.4114
 1952TIP3    H227348   2.001   0.300  11.244 -1.8013 -2.0491 -0.5589
 1953TIP3   OH227349   6.311   6.086   3.010  0.1638 -0.7073  0.3507
 1953TIP3    H127350   6.302   6.178   2.983 -1.2657 -0.9890 -0.2352
 1953TIP3    H227351   6.324   6.038   2.928 -2.5678 -1.3854  0.2321
 1954TIP3   OH227352   2.420   2.584   1.724  0.6062  0.0439  0.3191
 1954TIP3    H127353   2.334   2.544   1.741 -0.0604  1.6395  0.9244
 1954TIP3    H227354   2.482   2.511   1.731 -0.7919 -1.4459 -1.5431
 1955TIP3   OH227355   4.409   6.411  17.318 -0.1269  0.2424  0.5099
 1955TIP3    H127356   4.396   6.339  17.380  0.1375 -0.2726 -0.0283
 1955TIP3    H227357   4.320   6.439  17.295 -0.2265  0.4722  1.1555
 1956TIP3   OH227358   3.213   4.555  11.064  0.1045 -0.2677 -0.1241
 1956TIP3    H127359   3.290   4.602  11.034  0.3340 -0.5095  0.0756
 1956TIP3    H227360   3.248   4.474  11.103 -0.1342  0.2829  1.2886
 1957TIP3   OH227361   1.203   3.457  13.635  0.6753 -0.2290  0.3785
 1957TIP3    H127362   1.150   3.442  13.557 -0.0206 -2.4938  1.2151
 1957TIP3    H227363   1.289   3.482  13.602  0.2090 -0.5260 -1.0942
 1958TIP3   OH227364   4.804   0.402  12.275  0.0041 -0.1290  0.0328
 1958TIP3    H127365   4.879   0.342  12.278  0.1269  0.0638  2.0986
 1958TIP3    H227366   4.837   0.478  12.227  1.2884  0.0984  1.1944
 1959TIP3   OH227367   2.121   5.749  13.440 -0.8767 -0.1799 -0.4257
 1959TIP3    H127368   2.061   5.811  13.399 -1.7537  0.4900  1.7356
 1959TIP3    H227369   2.141   5.787  13.526  0.3657 -1.7934  0.0515
 1960TIP3   OH227370   5.974   3.972   1.410 -0.2372 -0.5301 -0.4472
 1960TIP3    H127371   5.920   4.013   1.478 -1.1775  0.2851 -1.6447
 1960TIP3    H227372   5.991   3.884   1.443 -0.1800  0.0148  1.0988
 1961TIP3   OH227373   3.602   4.146   3.761  0.2087 -0.4575  0.1893
 1961TIP3    H127374   3.556   4.179   3.839  1.1628  1.5071 -0.0138
 1961TIP3    H227375   3.571   4.202   3.690 -0.5699 -2.1697 -0.8613
 1962TIP3   OH227376   4.623   1.777   0.137  0.4011  0.4781  0.0353
 1962TIP3    H127377   4.601   1.744   0.050 -1.1731 -2.9001  1.5482
 1962TIP3    H227378   4.715   1.757   0.148  0.2471 -0.4851 -0.3241
 1963TIP3   OH227379   4.542   0.013   3.497  0.4685  0.3906 -0.2365
 1963TIP3    H127380   4.602   0.068   3.548  1.1199 -1.4623  1.0898
 1963TIP3    H227381   4.460   0.016   3.546  0.8218 -0.6437  0.4469
 1964TIP3   OH227382   6.335   1.989  13.899  0.2761 -0.1120  0.4293
 1964TIP3    H127383   6.426   1.970  13.875  0.3135  2.0693 -1.5293
 1964TIP3    H227384   6.336   1.992  13.995  2.5246  0.8376  0.4492
 1965TIP3   OH227385   0.994   0.592  16.453  0.5384 -0.1833  0.7781
 1965TIP3    H127386   1.039   0.667  16.492  0.0844  0.8010 -0.5537
 1965TIP3    H227387   1.053   0.563  16.383 -0.7235  0.9626 -0.8179
 1966TIP3   OH227388   2.135   3.089   2.618 -0.2040 -0.1808 -0.4814
 1966TIP3    H127389   2.156   3.169   2.570 -0.6155 -1.0227 -2.1375
 1966TIP3    H227390   2.196   3.024   2.585 -1.2676 -1.0822 -0.7399
 1967TIP3   OH227391   2.929   1.350  15.571 -0.5087  0.4419  0.0846
 1967TIP3    H127392   2.908   1.442  15.587 -1.1192  0.0259  1.8112
 1967TIP3    H227393   2.997   1.330  15.635  0.3257 -0.0656 -0.9369
 1968TIP3   OH227394   3.636   6.115   3.432 -0.5590 -0.1358 -0.1853
 1968TIP3    H127395   3.581   6.075   3.365 -0.5418 -1.0179  0.3028
 1968TIP3    H227396   3.594   6.092   3.515  0.1223 -0.1758  0.1636
 1969TIP3   OH227397   4.844   6.607  13.560 -0.0389  0.6446 -0.4248
 1969TIP3    H127398   4.831   6.512  13.560 -0.7262  0.6990 -1.9622
 1969TIP3    H227399   4.834   6.633  13.651  1.3137 -0.8848  0.2094
 1970TIP3   OH227400   6.192   4.273  12.835  0.4722  0.2073 -0.1742
 1970TIP3    H127401   6.219   4.346  12.779  1.7066  0.3166  0.5133
 1970TIP3    H227402   6.202   4.307  12.924  0.7078 -0.6779  0.1449
 1971TIP3   OH227403   2.967   4.154  12.672 -0.3981 -0.3357 -0.0952
 1971TIP3    H127404   2.993   4.246  12.661  0.4553 -0.0184  3.3566
 1971TIP3    H227405   2.880   4.149  12.632 -0.5342  2.0397 -0.2448
 1972TIP3   OH227406   6.211   4.134  11.878  0.1537 -0.3208  0.2789
 1972TIP3    H127407   6.120   4.116  11.899  0.0195 -1.8141 -1.3479
 1972TIP3    H227408   6.250   4.048  11.863  1.4642  0.3566 -0.4505
 1973TIP3   OH227409   2.316   1.664   3.427 -0.0357 -0.2881  0.1190
 1973TIP3    H127410   2.389   1.694   3.482  0.3640 -1.3799  0.2206
 1973TIP3    H227411   2.289   1.581   3.467 -1.7404  0.3784  0.4230
 1974TIP3   OH227412   2.650   5.547  10.646 -0.0340  0.1986  0.0601
 1974TIP3    H127413   2.642   5.642  10.640  0.5649  0.2488  0.0204
 1974TIP3    H227414   2.719   5.525  10.583  1.1428 -0.0519  1.3739
 1975TIP3   OH227415   4.215   6.528  14.480 -0.2183 -0.3766  0.0615
 1975TIP3    H127416   4.155   6.468  14.434  1.1197  1.2423 -4.2155
 1975TIP3    H227417   4.301   6.487  14.472  0.0239 -0.2574  1.6819
 1976TIP3   OH227418   0.041   0.625  17.359  0.8683 -0.5701 -0.2400
 1976TIP3    H127419   0.077   0.584  17.437 -1.0553 -0.1924  0.8966
 1976TIP3    H227420   0.108   0.687  17.332  0.8968  0.5311  2.1330
 1977TIP3   OH227421   4.392   2.650  14.993  0.3210 -0.3059 -0.4502
 1977TIP3    H127422   4.471   2.670  15.043  0.1602  0.0458 -0.3246
 1977TIP3    H227423   4.353   2.576  15.038  0.9793 -0.9795 -0.9719
 1978TIP3   OH227424   6.666   4.829   5.708  0.5862  1.0478  0.3458
 1978TIP3    H127425   6.717   4.751   5.726  2.9665  2.5234  0.3820
 1978TIP3    H227426   6.604   4.803   5.640  0.9774 -0.9643  0.7130
 1979TIP3   OH227427   1.944   5.946  13.915  0.0846 -0.0756  0.2606
 1979TIP3    H127428   1.879   5.880  13.937 -0.2863  0.7327  1.7276
 1979TIP3    H227429   1.932   5.961  13.821 -2.5567  0.7439  0.6481
 1980TIP3   OH227430   3.958   4.077  17.225 -0.5039 -0.2005 -0.4727
 1980TIP3    H127431   4.039   4.075  17.276  0.4786 -0.5988 -2.0101
 1980TIP3    H227432   3.939   3.985  17.207 -0.7474 -0.0506 -0.9790
 1981TIP3   OH227433   4.042   6.479  13.860 -0.0360  0.3523  0.9199
 1981TIP3    H127434   4.042   6.533  13.780 -2.2156  1.9052  1.8516
 1981TIP3    H227435   4.117   6.421  13.850  0.7794  1.6677 -1.4634
 1982TIP3   OH227436   5.877   5.779  14.502  0.1136  0.6190  0.3815
 1982TIP3    H127437   5.784   5.763  14.484  0.3292 -0.5113  0.2176
 1982TIP3    H227438   5.910   5.824  14.424 -0.0785  0.1767  0.0451
 1983TIP3   OH227439   5.657   1.610   5.714  0.2390  0.3053 -0.1863
 1983TIP3    H127440   5.577   1.566   5.684 -1.0449  1.1299  1.8716
 1983TIP3    H227441   5.719   1.596   5.642 -2.0457  0.5650 -2.3703
 1984TIP3   OH227442   3.424   1.759   5.180  0.6939  0.0987  0.1121
 1984TIP3    H127443   3.372   1.838   5.169 -1.3905 -1.1521  0.5416
 1984TIP3    H227444   3.405   1.729   5.269  0.6882 -1.3991 -0.3648
 1985TIP3   OH227445   0.580   2.247  12.834  0.3085 -0.6679  0.1172
 1985TIP3    H127446   0.614   2.322  12.883 -2.5367  0.7333  0.1534
 1985TIP3    H227447   0.594   2.173  12.892  0.6049  0.3089  1.3539
 1986TIP3   OH227448   4.060   0.681  11.649 -0.3173  0.2852  0.2524
 1986TIP3    H127449   3.985   0.694  11.591 -0.5143 -1.1983  0.1163
 1986TIP3    H227450   4.082   0.768  11.681 -1.3582  0.8923 -0.6301
 1987TIP3   OH227451   4.949   3.161  16.557  0.2568  0.1632 -0.1842
 1987TIP3    H127452   4.937   3.256  16.564  0.9070  0.1980  0.6737
 1987TIP3    H227453   4.882   3.133  16.495 -1.0583  0.9602  0.8276
 1988TIP3   OH227454   4.525   4.173  12.456 -0.3936  0.2056 -0.4731
 1988TIP3    H127455   4.520   4.266  12.434  0.4045  0.8475  1.7696
 1988TIP3    H227456   4.434   4.145  12.462 -0.6768  1.1937  0.1227
 1989TIP3   OH227457   2.755   0.686  12.221  0.0470 -0.2534 -0.2428
 1989TIP3    H127458   2.782   0.761  12.273 -1.2406  0.9662 -1.2858
 1989TIP3    H227459   2.750   0.614  12.284  0.1738  0.7885  0.9871
 1990TIP3   OH227460   4.717   0.151   4.048 -0.6375 -0.8371 -0.2445
 1990TIP3    H127461   4.784   0.197   4.099 -1.7134  0.9495 -0.3498
 1990TIP3    H227462   4.727   0.185   3.959 -2.2486  0.2066 -0.0729
 1991TIP3   OH227463   3.943   3.417   4.841 -0.5442  0.6265  0.0910
 1991TIP3    H127464   4.035   3.392   4.850 -0.7484 -0.0240  0.4828
 1991TIP3    H227465   3.902   3.344   4.794 -0.9073  0.7842  0.1546
 1992TIP3   OH227466   6.015   0.661   0.839  0.4706  0.2943 -0.1024
 1992TIP3    H127467   5.970   0.740   0.809  0.8031 -0.0196 -1.4774
 1992TIP3    H227468   6.021   0.672   0.934 -1.1542  1.0376 -0.0573
 1993TIP3   OH227469   4.482   1.758   4.252  0.0975  0.1182  0.1394
 1993TIP3    H127470   4.402   1.771   4.201  0.3067  0.7376 -0.0347
 1993TIP3    H227471   4.498   1.663   4.248  1.1973  0.3479 -2.5969
 1994TIP3   OH227472   2.801   2.646   0.207 -0.0306 -0.1211  0.2135
 1994TIP3    H127473   2.819   2.562   0.251 -1.8001 -1.1582 -0.9204
 1994TIP3    H227474   2.886   2.673   0.172  0.3468 -2.1653 -0.5937
 1995TIP3   OH227475   1.945   5.911   5.314 -0.2577  0.2324 -0.4444
 1995TIP3    H127476   1.958   5.905   5.219  0.9476 -1.0634 -0.2476
 1995TIP3    H227477   2.033   5.902   5.350 -0.4411  2.6098  0.7821
 1996TIP3   OH227478   1.065   1.229   2.024  0.0988 -0.3152 -0.5021
 1996TIP3    H127479   1.005   1.223   1.950 -1.3290  1.0477  0.4804
 1996TIP3    H227480   1.032   1.164   2.086  0.6597 -0.7094 -0.6013
 1997TIP3   OH227481   4.682   6.448   0.547 -0.0921  0.0139 -0.4869
 1997TIP3    H127482   4.769   6.411   0.558  0.2702  0.6598 -1.0850
 1997TIP3    H227483   4.692   6.540   0.574 -0.9208 -0.2397  0.7889
 1998TIP3   OH227484   2.224   2.614   4.873 -0.5657  0.4350 -0.3840
 1998TIP3    H127485   2.159   2.671   4.913  1.3389  0.5145  3.0055
 1998TIP3    H227486   2.276   2.673   4.817 -1.0452  1.1754 -0.0691
 1999TIP3   OH227487   2.032   3.782  14.403 -0.4701 -0.3030  0.5182
 1999TIP3    H127488   2.124   3.808  14.403 -0.3831 -0.6075  0.1383
 1999TIP3    H227489   2.032   3.693  14.367 -0.8372 -0.5757  1.1694
 2000TIP3   OH227490   6.083   0.223  12.970 -0.1116 -0.2624 -0.1869
 2000TIP3    H127491   6.057   0.230  13.062 -0.8735 -0.0493 -0.4151
 2000TIP3    H227492   6.108   0.132  12.959 -1.2375 -0.5996 -0.0767
 2001TIP3   OH227493   4.650   0.460  15.549  0.2612  0.1011 -0.0325
 2001TIP3    H127494   4.626   0.483  15.460  2.4863  1.6747 -0.3203
 2001TIP3    H227495   4.741   0.432  15.543  0.0301 -1.1626  1.5580
 2002TIP3   OH227496   3.692   0.395   1.794  0.2842  0.0549 -0.4464
 2002TIP3    H127497   3.763   0.358   1.743 -1.9527 -1.6085 -2.5614
 2002TIP3    H227498   3.712   0.489   1.799  2.1821 -0.2400 -1.6440
 2003TIP3   OH227499   0.657   1.512  13.355 -0.2701  0.4058 -0.0800
 2003TIP3    H127500   0.605   1.582  13.315  1.1926  0.8381 -1.3331
 2003TIP3    H227501   0.713   1.481  13.284  0.2011 -0.9850  0.8689
 2004TIP3   OH227502   2.790   0.890  11.644  0.2687  0.9696 -0.3779
 2004TIP3    H127503   2.810   0.822  11.708  0.7321  0.5939 -0.9063
 2004TIP3    H227504   2.698   0.911  11.659 -0.9922 -2.2688 -2.4120
 2005TIP3   OH227505   4.357   3.189   4.161 -0.1135  0.1192  0.0850
 2005TIP3    H127506   4.319   3.273   4.135 -0.9504  0.0858  1.1651
 2005TIP3    H227507   4.427   3.174   4.096  1.2928  2.5219  0.8900
 2006TIP3   OH227508   0.432   4.626  12.760  0.3939  0.4153 -0.4227
 2006TIP3    H127509   0.375   4.557  12.793 -1.2839  1.6943 -0.4871
 2006TIP3    H227510   0.374   4.681  12.707  2.0029  1.0387 -1.6099
 2007TIP3   OH227511   5.464   3.560   5.537 -0.0733  0.1236 -0.8287
 2007TIP3    H127512   5.536   3.598   5.486 -0.2300  0.6056 -0.6995
 2007TIP3    H227513   5.392   3.622   5.526  0.5003  1.3360  1.6126
 2008TIP3   OH227514   3.585   1.093   5.232  0.2621  0.2332 -0.1380
 2008TIP3    H127515   3.577   1.022   5.167  1.8612  0.0417 -0.1866
 2008TIP3    H227516   3.663   1.069   5.283 -1.1109  0.2405  2.0697
 2009TIP3   OH227517   3.898   1.763   2.042  0.3026 -0.1922  0.3042
 2009TIP3    H127518   3.907   1.842   1.988 -0.6117 -0.0271  0.3686
 2009TIP3    H227519   3.984   1.751   2.081  0.1223  1.5968  1.3942
 2010TIP3   OH227520   6.693   4.767   5.122  0.2733 -0.4586  0.5268
 2010TIP3    H127521   6.730   4.714   5.051 -0.0121 -0.1165  0.1179
 2010TIP3    H227522   6.610   4.798   5.088  0.7284  0.8003  0.4962
 2011TIP3   OH227523   1.560   3.283  14.443 -0.2602  0.3310 -0.6094
 2011TIP3    H127524   1.625   3.337  14.487  0.2968  1.0830 -2.2783
 2011TIP3    H227525   1.611   3.226  14.385 -1.0388  0.3422 -1.3330
 2012TIP3   OH227526   4.098   4.170  12.806  0.6130  0.0529  0.2849
 2012TIP3    H127527   4.071   4.078  12.808 -1.2462  0.5493 -0.2676
 2012TIP3    H227528   4.032   4.213  12.752  2.3366  1.4645 -0.7768
 2013TIP3   OH227529   5.090   0.085   4.076  0.0970 -0.0374 -0.0529
 2013TIP3    H127530   5.041   0.039   4.008 -0.9372 -0.0069  0.6550
 2013TIP3    H227531   5.158   0.023   4.103 -0.9171 -0.9437  0.4793
 2014TIP3   OH227532   0.438   3.347  12.971 -0.6430  0.1983 -0.1768
 2014TIP3    H127533   0.506   3.320  13.032 -0.3548  1.7257  0.2254
 2014TIP3    H227534   0.485   3.365  12.889 -0.6776  0.4850 -0.1339
 2015TIP3   OH227535   2.449   5.876   1.839  0.1670 -0.2399 -0.4432
 2015TIP3    H127536   2.388   5.882   1.912  0.3106 -1.0090 -0.2396
 2015TIP3    H227537   2.525   5.830   1.876 -0.1237 -1.4451 -1.2934
 2016TIP3   OH227538   3.403   5.050  15.093  0.4815  0.4356 -0.5844
 2016TIP3    H127539   3.497   5.072  15.097  0.8299 -0.9509 -0.5903
 2016TIP3    H227540   3.402   4.954  15.086 -1.0190  0.1033  2.6793
 2017TIP3   OH227541   5.893   1.819   5.445 -0.4272  0.0167 -0.3493
 2017TIP3    H127542   5.939   1.810   5.362  0.7369  0.1650  0.2587
 2017TIP3    H227543   5.854   1.733   5.460  3.1991 -1.5583  1.1223
 2018TIP3   OH227544   6.340   6.485   1.263  0.6356 -0.1179  0.0574
 2018TIP3    H127545   6.342   6.498   1.169  0.7941  0.9033  0.1979
 2018TIP3    H227546   6.394   6.555   1.299 -0.6454  0.4254  1.0033
 2019TIP3   OH227547   5.492   4.369   0.316 -0.5850 -0.8281  0.4354
 2019TIP3    H127548   5.398   4.386   0.310 -0.5433 -0.9423 -0.8175
 2019TIP3    H227549   5.499   4.274   0.324 -0.5421 -1.0737 -1.7831
 2020TIP3   OH227550   2.982   4.839  16.288 -0.5001 -0.0938  0.0810
 2020TIP3    H127551   3.016   4.876  16.369  0.4006 -0.2167 -0.2256
 2020TIP3    H227552   3.029   4.885  16.218 -0.5660 -0.6545 -0.3476
 2021TIP3   OH227553   6.547   3.305  15.636  0.6315 -0.3770 -0.4073
 2021TIP3    H127554   6.508   3.392  15.645  0.0844 -0.6660  0.0762
 2021TIP3    H227555   6.582   3.304  15.547  1.1513  0.5384 -0.2303
 2022TIP3   OH227556   2.101   4.707  12.616 -0.8124  0.0393  0.1655
 2022TIP3    H127557   2.142   4.654  12.684 -2.0146 -0.7023  0.3275
 2022TIP3    H227558   2.109   4.797  12.647  2.0494  0.1141 -0.5287
 2023TIP3   OH227559   5.803   3.407   6.228 -0.3274  0.3380 -0.4947
 2023TIP3    H127560   5.804   3.313   6.247  0.4435  0.4847  0.2480
 2023TIP3    H227561   5.895   3.434   6.233 -0.6924  1.4572  1.1043
 2024TIP3   OH227562   2.800   0.501  11.592 -0.4308  0.8940 -0.1607
 2024TIP3    H127563   2.869   0.446  11.555  0.3923  1.8032 -0.0349
 2024TIP3    H227564   2.729   0.498  11.528  0.2104  0.9109 -0.8861
 2025TIP3   OH227565   1.539   2.246   6.069  0.2714 -0.1588 -0.1985
 2025TIP3    H127566   1.444   2.245   6.081  0.1995  0.6128 -0.6702
 2025TIP3    H227567   1.566   2.155   6.087 -0.8017 -0.8939 -2.0541
 2026TIP3   OH227568   5.700   5.388  12.599 -0.3423  0.3641  0.0463
 2026TIP3    H127569   5.654   5.382  12.515 -0.0792  1.4450 -0.1914
 2026TIP3    H227570   5.659   5.461  12.644 -2.6075 -2.0721  2.2521
 2027TIP3   OH227571   2.110   1.264   0.420  0.0585 -0.1409 -0.1222
 2027TIP3    H127572   2.156   1.181   0.429  0.6255  0.2884  1.2287
 2027TIP3    H227573   2.018   1.240   0.413  0.0308 -0.8615  2.0135
 2028TIP3   OH227574   2.290   0.692   3.583 -0.2242  0.3190 -0.1959
 2028TIP3    H127575   2.211   0.704   3.637  1.1062  1.2926  1.6429
 2028TIP3    H227576   2.333   0.616   3.621  0.3146  0.5106 -0.4166
 2029TIP3   OH227577   0.088   1.871   0.874  0.0231  0.3246 -0.5370
 2029TIP3    H127578   0.099   1.807   0.944  0.6339  0.2570 -0.6914
 2029TIP3    H227579   0.124   1.829   0.796  0.1248  0.7274 -0.7114
 2030TIP3   OH227580   2.789   5.485  13.372 -0.0240  0.3777  0.3436
 2030TIP3    H127581   2.823   5.396  13.383  1.4765  0.9664  0.8347
 2030TIP3    H227582   2.758   5.488  13.281  0.1578 -0.5709  0.2393
 2031TIP3   OH227583   2.573   6.732   2.452 -0.2164 -0.0913 -0.3469
 2031TIP3    H127584   2.518   6.721   2.530  0.5636 -0.0611  0.2152
 2031TIP3    H227585   2.659   6.702   2.479 -0.5712 -3.1150 -2.1176
 2032TIP3   OH227586   0.920   5.414  16.174  0.4983  0.1597 -0.0854
 2032TIP3    H127587   0.830   5.442  16.154 -0.7501 -1.6121  2.4841
 2032TIP3    H227588   0.960   5.399  16.089 -1.0345  2.6505 -1.3659
 2033TIP3   OH227589   3.139   3.755   1.632 -0.0630  0.0599  0.1899
 2033TIP3    H127590   3.140   3.675   1.580  1.7702  0.9353 -1.2209
 2033TIP3    H227591   3.082   3.815   1.584  0.4191  0.3634 -0.0133
 2034TIP3   OH227592   2.523   3.366   2.535  0.1010  0.2863 -0.2096
 2034TIP3    H127593   2.534   3.322   2.620 -0.8102 -1.2977 -0.8856
 2034TIP3    H227594   2.598   3.426   2.530  0.1028  0.5169  1.7641
 2035TIP3   OH227595   1.660   6.139  16.681  0.2110  0.5256 -0.1065
 2035TIP3    H127596   1.683   6.047  16.675  0.4824  0.5491  0.5209
 2035TIP3    H227597   1.614   6.158  16.599 -0.4230 -0.3257  0.0470
 2036TIP3   OH227598   0.575   2.070  13.482 -0.2446 -0.6413  0.2996
 2036TIP3    H127599   0.643   2.007  13.505 -0.8986 -1.3507  0.3392
 2036TIP3    H227600   0.606   2.110  13.401 -0.4851 -2.0726 -0.5346
 2037TIP3   OH227601   4.280   6.079  15.100 -0.2444  0.1076  0.1765
 2037TIP3    H127602   4.278   6.158  15.047 -1.1222  0.8102  1.2207
 2037TIP3    H227603   4.340   6.100  15.172  0.2476 -0.5219 -0.0356
 2038TIP3   OH227604   6.594   4.107   5.615  0.1000  0.5192 -0.3152
 2038TIP3    H127605   6.562   4.197   5.623 -1.5228  0.0911 -1.4152
 2038TIP3    H227606   6.632   4.087   5.701 -2.2867  1.2478  1.0073
 2039TIP3   OH227607   3.551   1.918   4.486 -0.3329 -0.5023  0.1281
 2039TIP3    H127608   3.599   1.944   4.408  1.0203 -1.2517  0.6759
 2039TIP3    H227609   3.557   1.993   4.545  2.7209 -1.5704  1.3262
 2040TIP3   OH227610   3.646   1.568  13.605 -0.3474 -0.0786  0.1307
 2040TIP3    H127611   3.661   1.619  13.684 -0.6618 -0.0155  0.1508
 2040TIP3    H227612   3.714   1.500  13.607  0.1150  0.3771  0.0662
 2041TIP3   OH227613   1.357   5.402  14.956 -0.0643 -0.4274  0.3520
 2041TIP3    H127614   1.350   5.311  14.928 -0.8526 -0.7316  1.4817
 2041TIP3    H227615   1.266   5.433  14.958  0.2578  0.7252 -1.0309
 2042TIP3   OH227616   2.182   4.949  14.072  0.3455  0.0393 -0.1947
 2042TIP3    H127617   2.277   4.940  14.079  0.3870  0.3406 -0.3267
 2042TIP3    H227618   2.147   4.865  14.099  0.5638  0.5015  1.6499
 2043TIP3   OH227619   1.071   5.899  10.683  0.4799  0.4657 -0.1034
 2043TIP3    H127620   1.161   5.931  10.683  1.0831 -1.1494 -0.0011
 2043TIP3    H227621   1.075   5.816  10.637 -0.3771 -1.1409  2.5300
 2044TIP3   OH227622   1.338   5.298   5.525 -0.0642 -0.1192 -0.6100
 2044TIP3    H127623   1.310   5.228   5.467  2.0166 -1.0455 -0.5762
 2044TIP3    H227624   1.368   5.367   5.467 -1.6637  0.6077 -0.6335
 2045TIP3   OH227625   3.305   3.404   1.769 -0.2952 -0.5249 -0.0703
 2045TIP3    H127626   3.321   3.396   1.675  1.1666  1.0994  0.0059
 2045TIP3    H227627   3.210   3.414   1.776 -0.4327 -0.7394 -1.3529
 2046TIP3   OH227628   4.751   4.261   5.909 -0.0853  0.5525 -0.1928
 2046TIP3    H127629   4.717   4.269   5.998 -2.0197  0.8899 -0.9147
 2046TIP3    H227630   4.805   4.340   5.897 -0.8997  1.1970  0.2483
 2047TIP3   OH227631   2.862   1.166  14.854  0.0182  0.4234  0.4834
 2047TIP3    H127632   2.908   1.132  14.931  0.9775 -1.0105 -0.6678
 2047TIP3    H227633   2.772   1.135  14.864  0.5383 -1.2900  0.1979
 2048TIP3   OH227634   3.396   1.452   2.389  0.3683  0.1679 -0.0848
 2048TIP3    H127635   3.304   1.455   2.362 -0.2697 -2.8124  1.3248
 2048TIP3    H227636   3.443   1.419   2.313  0.8842  4.2400 -1.7678
 2049TIP3   OH227637   0.243   0.043  13.042  0.1798  0.7903  0.1253
 2049TIP3    H127638   0.311  -0.007  12.997 -1.0679 -0.1175 -0.8172
 2049TIP3    H227639   0.246   0.011  13.132  0.3676  0.0677 -0.1341
 2050TIP3   OH227640   3.088   5.204   3.556 -0.4815  0.1500  0.0186
 2050TIP3    H127641   3.142   5.216   3.634 -2.0298  0.5775  1.0776
 2050TIP3    H227642   3.065   5.293   3.529 -0.0565 -0.0005 -0.8682
 2051TIP3   OH227643   2.497   0.679  13.328 -0.5204 -0.2146  0.4513
 2051TIP3    H127644   2.427   0.641  13.275 -1.4214  1.1412  0.6072
 2051TIP3    H227645   2.575   0.674  13.273 -1.4646  1.3406 -1.1239
 2052TIP3   OH227646   4.147   1.708   3.819 -0.1427  0.2676 -0.0985
 2052TIP3    H127647   4.070   1.762   3.837 -1.0556 -0.7148 -0.8487
 2052TIP3    H227648   4.199   1.759   3.757 -0.4028  0.7792  0.1037
 2053TIP3   OH227649   3.238   3.613   3.562 -0.5012  0.0815  0.1048
 2053TIP3    H127650   3.151   3.583   3.589 -1.2321  0.8599 -1.2578
 2053TIP3    H227651   3.221   3.674   3.490  1.2136 -0.2880 -0.6598
 2054TIP3   OH227652   6.462   0.252   6.384  0.0959  0.0256  0.1236
 2054TIP3    H127653   6.544   0.210   6.411  0.0808  0.9053  1.6595
 2054TIP3    H227654   6.397   0.183   6.392  0.3675 -0.1552  0.8349
 2055TIP3   OH227655   3.280   6.363   3.697 -0.7564  0.1698  0.3906
 2055TIP3    H127656   3.262   6.295   3.761 -0.8975 -0.1337  0.0378
 2055TIP3    H227657   3.355   6.410   3.732 -0.7987 -0.0249  0.7500
 2056TIP3   OH227658   2.759   4.759  13.084 -0.4886  0.1163 -0.4571
 2056TIP3    H127659   2.794   4.688  13.031  1.8053 -1.6682  3.0709
 2056TIP3    H227660   2.674   4.727  13.115 -0.9101  0.3086 -1.3944
 2057TIP3   OH227661   1.026   5.618  11.856 -0.0695  0.4076  0.5790
 2057TIP3    H127662   0.969   5.552  11.815  0.3254  2.3630 -3.5809
 2057TIP3    H227663   0.974   5.698  11.855  1.5568  1.5032 -0.2938
 2058TIP3   OH227664   4.865   2.483  12.744  0.1595  0.0551 -0.0917
 2058TIP3    H127665   4.773   2.480  12.719  0.4026  1.1092 -1.2010
 2058TIP3    H227666   4.872   2.419  12.816 -1.1803 -0.8777 -0.7388
 2059TIP3   OH227667   4.524   6.071   5.987  0.2694  0.3446 -0.2777
 2059TIP3    H127668   4.479   6.130   5.928 -1.0462  0.3125  0.6403
 2059TIP3    H227669   4.561   6.128   6.055  0.6186  0.2662 -0.3984
 2060TIP3   OH227670   6.592   1.563   0.366 -0.2198  0.0782  0.2001
 2060TIP3    H127671   6.620   1.639   0.314 -0.1018  0.6198  1.0466
 2060TIP3    H227672   6.561   1.501   0.300 -0.2229  0.8118 -0.5202
 2061TIP3   OH227673   3.158   0.312   0.525 -0.4401 -0.0782 -0.0226
 2061TIP3    H127674   3.144   0.384   0.465 -0.2957 -0.4172 -0.4671
 2061TIP3    H227675   3.118   0.236   0.481  2.4782 -1.0399 -1.2240
 2062TIP3   OH227676   1.053   6.353  16.920 -0.2332 -1.0178  0.6600
 2062TIP3    H127677   0.973   6.398  16.894  0.9308  0.1234 -1.2281
 2062TIP3    H227678   1.054   6.273  16.867 -0.1824 -1.1043  0.7891
 2063TIP3   OH227679   3.634   5.324   6.244 -0.5063  0.4377 -1.0668
 2063TIP3    H127680   3.638   5.303   6.337  0.7592  1.0989 -0.9493
 2063TIP3    H227681   3.547   5.362   6.231 -0.5289  0.7382 -0.0720
 2064TIP3   OH227682   6.647   6.445   6.755  0.0337 -0.2253  0.4226
 2064TIP3    H127683   6.582   6.380   6.728  1.1536 -0.8404 -0.9122
 2064TIP3    H227684   6.598   6.528   6.757 -0.8429 -0.7012 -0.3663
 2065TIP3   OH227685   0.193   6.121   0.721  0.3256 -0.0560 -0.2014
 2065TIP3    H127686   0.205   6.027   0.738  2.6950 -0.0552 -1.5454
 2065TIP3    H227687   0.256   6.164   0.778  0.3976  0.6233 -0.7857
 2066TIP3   OH227688   6.637   6.653   5.625 -0.2338  0.3555 -0.3050
 2066TIP3    H127689   6.588   6.581   5.665 -1.1829  1.2095  0.1359
 2066TIP3    H227690   6.595   6.666   5.540 -1.0188  1.2777  0.1907
 2067TIP3   OH227691   0.690   1.613  12.174  0.4780  0.0593  0.1306
 2067TIP3    H127692   0.665   1.699  12.209 -0.3008  0.6087 -1.6417
 2067TIP3    H227693   0.783   1.621  12.153  1.3823 -0.7768  3.3214
 2068TIP3   OH227694   1.498   4.498  11.759  0.0294  0.7284  0.1578
 2068TIP3    H127695   1.500   4.572  11.819 -0.4594  0.8273  0.0537
 2068TIP3    H227696   1.570   4.515  11.697  0.5282  0.6312  0.6999
 2069TIP3   OH227697   3.551   5.239  12.755 -0.3769  0.0441  0.0013
 2069TIP3    H127698   3.482   5.277  12.701 -0.9010  1.2250  1.4358
 2069TIP3    H227699   3.511   5.161  12.793 -0.9067  0.6635  0.7392
 2070TIP3   OH227700   1.167   0.209   5.454 -0.1466  0.1542 -0.0508
 2070TIP3    H127701   1.207   0.294   5.473  1.4051 -0.7368  0.9747
 2070TIP3    H227702   1.203   0.151   5.522  0.0820 -1.6599 -1.6422
 2071TIP3   OH227703   0.221   4.875  13.953 -0.4502  0.4494 -0.1833
 2071TIP3    H127704   0.153   4.936  13.982 -0.6222  0.6588 -1.0002
 2071TIP3    H227705   0.281   4.929  13.902 -1.1325 -0.2240 -1.7701
 2072TIP3   OH227706   2.921   3.624  13.226  0.2269 -0.3428  0.5419
 2072TIP3    H127707   2.941   3.712  13.192  2.2905 -1.4153 -1.2888
 2072TIP3    H227708   2.832   3.607  13.196  0.4252  0.4774 -0.6010
 2073TIP3   OH227709   4.601   3.850   1.859 -0.0668 -0.5214  0.3385
 2073TIP3    H127710   4.544   3.842   1.936  0.1291  2.1161  0.8440
 2073TIP3    H227711   4.540   3.849   1.785 -0.6611  0.7271  0.7839
 2074TIP3   OH227712   0.973   1.392  15.523 -0.0803 -0.5372  0.0562
 2074TIP3    H127713   0.919   1.434  15.590 -0.7090  0.3678 -0.9742
 2074TIP3    H227714   1.062   1.417  15.545 -0.0715 -1.7016  1.5401
 2075TIP3   OH227715   2.274   3.753   2.533 -0.1301  0.2554  0.5604
 2075TIP3    H127716   2.316   3.762   2.447 -1.4640 -0.3723 -0.2033
 2075TIP3    H227717   2.195   3.808   2.527 -1.6121 -1.7644  0.3910
 2076TIP3   OH227718   4.691   2.704   0.308  0.3714 -0.8317  0.0427
 2076TIP3    H127719   4.625   2.720   0.241  0.6460  0.3495  0.0253
 2076TIP3    H227720   4.761   2.766   0.288  0.6063 -0.6894  1.2067
 2077TIP3   OH227721   1.449   0.266   0.376  0.1885  0.2056 -0.1382
 2077TIP3    H127722   1.462   0.194   0.314  0.4679  0.3816 -0.2855
 2077TIP3    H227723   1.524   0.260   0.436 -2.0127 -2.4448  2.7007
 2078TIP3   OH227724   4.491   6.344   0.831  0.5123  0.2632 -1.1458
 2078TIP3    H127725   4.485   6.248   0.834 -0.5670  0.3534  0.3751
 2078TIP3    H227726   4.574   6.364   0.872 -1.0127  0.0904  2.3402
 2079TIP3   OH227727   2.445   6.216   0.436  0.3658 -0.4131  0.0219
 2079TIP3    H127728   2.410   6.127   0.434  0.0516 -0.3002  0.4786
 2079TIP3    H227729   2.374   6.269   0.472  0.2448  0.1653 -1.0413
 2080TIP3   OH227730   2.693   1.287   1.352  0.2738 -0.7356  0.2268
 2080TIP3    H127731   2.645   1.255   1.429 -0.1181 -0.4819  0.0926
 2080TIP3    H227732   2.637   1.264   1.278 -1.1668  2.1798  0.2500
 2081TIP3   OH227733   5.322   0.391  13.501  0.1497 -0.4385  0.1806
 2081TIP3    H127734   5.302   0.437  13.582 -0.0577 -1.2086  0.5718
 2081TIP3    H227735   5.258   0.425  13.438 -0.2419 -0.4612  0.5631
 2082TIP3   OH227736   0.158   6.485   5.659 -0.6807 -0.4407  0.3325
 2082TIP3    H127737   0.155   6.570   5.614  1.2734 -0.2956  0.3882
 2082TIP3    H227738   0.205   6.503   5.740  0.7139 -1.7735 -0.1483
 2083TIP3   OH227739   5.375   3.162  16.628  0.4020 -0.5803 -0.0538
 2083TIP3    H127740   5.320   3.112  16.688 -0.3040 -0.7108 -0.7963
 2083TIP3    H227741   5.389   3.103  16.554 -2.3567  1.0191 -2.0359
 2084TIP3   OH227742   4.513   0.745   2.917 -0.2237  0.4086 -0.3824
 2084TIP3    H127743   4.506   0.832   2.877  1.4384  0.3000 -1.0302
 2084TIP3    H227744   4.459   0.750   2.995 -1.2226  1.5922 -1.0963
 2085TIP3   OH227745   4.404   0.320  14.863  0.5735  0.3136 -0.3071
 2085TIP3    H127746   4.320   0.353  14.897  1.5298  0.1414  2.4748
 2085TIP3    H227747   4.453   0.398  14.839  0.7165  0.6164  0.9192
 2086TIP3   OH227748   6.530   5.630   5.401 -0.0768 -0.1671 -0.2479
 2086TIP3    H127749   6.622   5.640   5.379 -0.1145 -0.6422 -0.6506
 2086TIP3    H227750   6.506   5.544   5.365 -0.6584 -0.0693 -0.1059
 2087TIP3   OH227751   5.451   5.676   2.672 -0.2391  0.4197 -0.4056
 2087TIP3    H127752   5.396   5.611   2.717 -1.5673  0.3734 -1.9788
 2087TIP3    H227753   5.530   5.627   2.648 -0.0593  0.1185  0.7276
 2088TIP3   OH227754   5.866   1.737   5.812  0.1860 -0.0337  0.4511
 2088TIP3    H127755   5.847   1.830   5.826 -1.9056 -0.5127  1.1891
 2088TIP3    H227756   5.785   1.701   5.775  1.5676 -1.2400 -1.6252
 2089TIP3   OH227757   2.538   1.452   0.181 -0.3093  0.4020  0.5199
 2089TIP3    H127758   2.502   1.494   0.103  1.5898  0.8804 -0.1504
 2089TIP3    H227759   2.568   1.525   0.236 -1.0378  0.0419  1.4369
 2090TIP3   OH227760   2.468   5.459   4.380 -0.0277 -0.2088 -0.1390
 2090TIP3    H127761   2.462   5.553   4.397  0.5493 -0.3735  1.1888
 2090TIP3    H227762   2.518   5.452   4.299  1.7443  0.6328  0.8134
 2091TIP3   OH227763   3.751   3.847   4.631 -0.0056 -0.1286  0.0187
 2091TIP3    H127764   3.688   3.818   4.698  0.2180 -0.9624 -0.1248
 2091TIP3    H227765   3.701   3.908   4.576  0.2270  1.8615  1.8618
 2092TIP3   OH227766   4.761   4.575   6.726  0.0561  0.1725  0.0676
 2092TIP3    H127767   4.760   4.576   6.822  1.2089  1.6384  0.1106
 2092TIP3    H227768   4.713   4.654   6.701  3.7289  2.5103 -0.3535
 2093TIP3   OH227769   4.492   4.788   4.555 -0.0083 -0.0699 -0.8348
 2093TIP3    H127770   4.579   4.828   4.559 -0.3940  0.7455 -0.4873
 2093TIP3    H227771   4.479   4.767   4.462  0.5368 -0.1558 -0.8932
 2094TIP3   OH227772   0.755   5.679   5.850 -0.3766 -0.1521  0.5068
 2094TIP3    H127773   0.685   5.735   5.816 -1.0064 -1.1695  0.0911
 2094TIP3    H227774   0.784   5.723   5.929 -0.6377  0.9314  0.0163
 2095TIP3   OH227775   2.975   5.695   6.676 -0.0255 -0.6254  0.0903
 2095TIP3    H127776   2.938   5.737   6.754  2.6620  1.9943  0.1261
 2095TIP3    H227777   2.928   5.612   6.669 -1.8245 -0.0360  3.2564
 2096TIP3   OH227778   4.584   5.706   1.997 -0.0092  0.7325  0.4867
 2096TIP3    H127779   4.553   5.656   2.072 -0.2122  1.7493  1.0940
 2096TIP3    H227780   4.538   5.668   1.922  1.1092 -1.1073  0.6731
 2097TIP3   OH227781   1.541   0.542   3.802  0.5028  0.1818  0.5638
 2097TIP3    H127782   1.516   0.556   3.893  0.6721  1.5723  0.4068
 2097TIP3    H227783   1.634   0.519   3.806  0.3324 -0.5107  0.7818
 2098TIP3   OH227784   4.299   4.414  17.249  0.0490  0.5309  0.2500
 2098TIP3    H127785   4.247   4.460  17.315 -0.9964  1.0508 -0.9093
 2098TIP3    H227786   4.386   4.454  17.254 -0.4292  1.5823  0.3053
 2099TIP3   OH227787   3.971   5.392   2.950 -0.2371 -0.4470 -0.2985
 2099TIP3    H127788   4.002   5.335   2.879  0.1275 -0.6438  0.0160
 2099TIP3    H227789   3.888   5.426   2.918  1.0990  1.5047 -1.9505
 2100TIP3   OH227790   4.261   0.150   4.335  0.5280 -0.3305 -0.1882
 2100TIP3    H127791   4.324   0.171   4.265  1.3054 -0.7729  0.3584
 2100TIP3    H227792   4.187   0.111   4.289  1.0976 -0.7687 -0.7652
 2101TIP3   OH227793   4.369   5.620   2.849  0.1577 -0.2807  0.2202
 2101TIP3    H127794   4.364   5.686   2.780 -0.6915 -0.5229  0.0342
 2101TIP3    H227795   4.454   5.578   2.837  0.9640  1.1840  0.7220
 2102TIP3   OH227796   3.379   1.354   3.678 -0.5181  0.1931 -0.1718
 2102TIP3    H127797   3.294   1.346   3.635  0.1445 -2.0130 -1.2476
 2102TIP3    H227798   3.412   1.264   3.681  1.1578  0.7983  1.5490
 2103TIP3   OH227799   1.594   6.513  14.142  0.4599  0.6471  0.0486
 2103TIP3    H127800   1.537   6.567  14.198  1.4857  0.7312  1.0497
 2103TIP3    H227801   1.634   6.450  14.202  1.4589  0.6225 -0.6136
 2104TIP3   OH227802   3.249   1.485  14.824 -0.2709  0.7601  0.0359
 2104TIP3    H127803   3.195   1.532  14.760 -0.6828  3.6500  2.2604
 2104TIP3    H227804   3.282   1.554  14.882  0.9410 -1.5645  2.3167
 2105TIP3   OH227805   4.222   6.674  13.297  0.0718  0.3434 -0.5502
 2105TIP3    H127806   4.310   6.667  13.333 -0.3579 -1.0775  0.3097
 2105TIP3    H227807   4.234   6.712  13.210  1.8297 -2.2649 -1.5671
 2106TIP3   OH227808   4.121   5.094  15.693  0.6174  0.2712  0.6207
 2106TIP3    H127809   4.147   5.183  15.716 -2.3518  1.1720  0.9245
 2106TIP3    H227810   4.078   5.060  15.771 -1.7650  0.0865 -0.6670
 2107TIP3   OH227811   3.774   4.235  13.454  0.4815  0.2683 -0.1874
 2107TIP3    H127812   3.707   4.295  13.486 -0.0821 -0.8441  0.7825
 2107TIP3    H227813   3.744   4.211  13.366 -0.3106 -0.0719  0.1623
 2108TIP3   OH227814   3.793   3.618  15.610 -0.0920 -0.8134 -0.6508
 2108TIP3    H127815   3.698   3.603  15.612 -0.4920  1.4055 -0.7657
 2108TIP3    H227816   3.805   3.683  15.540  1.2866  0.2708  0.5383
 2109TIP3   OH227817   1.063   4.496   0.195 -0.1516  0.0637  0.0055
 2109TIP3    H127818   1.087   4.409   0.228 -0.7576 -0.0331  0.2043
 2109TIP3    H227819   1.145   4.531   0.158  0.4254 -0.0477  1.1268
 2110TIP3   OH227820   4.712   3.985  12.877 -0.6143 -0.2462 -0.0572
 2110TIP3    H127821   4.655   3.912  12.903 -0.0956 -0.4548  0.4976
 2110TIP3    H227822   4.753   3.954  12.796  0.7384 -1.2000  0.9537
 2111TIP3   OH227823   0.970   2.444   3.449 -0.3696  0.4422 -0.3474
 2111TIP3    H127824   0.916   2.366   3.434 -2.2619  1.5791  0.2782
 2111TIP3    H227825   1.030   2.446   3.374 -0.3201 -1.5354 -0.4292
 2112TIP3   OH227826   2.653   2.902  14.292 -0.4840 -0.0215 -0.6134
 2112TIP3    H127827   2.733   2.938  14.330  0.4673 -2.6754  0.0821
 2112TIP3    H227828   2.588   2.971  14.304  1.2096  1.4539  0.6008
 2113TIP3   OH227829   4.567   2.519  12.972  0.0484  0.0128  0.1354
 2113TIP3    H127830   4.652   2.544  13.007 -0.7392 -0.0753  2.2522
 2113TIP3    H227831   4.504   2.571  13.022 -1.3730 -2.8491  1.5575
 2114TIP3   OH227832   3.557   3.973   0.532 -0.0688 -0.0309 -0.2409
 2114TIP3    H127833   3.617   3.941   0.599  0.8681 -0.4021 -1.2378
 2114TIP3    H227834   3.581   4.065   0.520  0.1783 -0.1329 -0.5168
 2115TIP3   OH227835   2.322   5.980   1.629 -0.8799  0.1076  0.3217
 2115TIP3    H127836   2.256   5.911   1.634 -0.9458  0.1650  0.2561
 2115TIP3    H227837   2.390   5.954   1.691 -0.5195 -0.4222 -0.2929
 2116TIP3   OH227838   4.180   2.753   5.123  1.0150  0.0547 -0.1112
 2116TIP3    H127839   4.097   2.774   5.081  0.5266 -2.2107 -0.3656
 2116TIP3    H227840   4.169   2.783   5.214  0.5082  1.1008 -0.5005
 2117TIP3   OH227841   1.317   1.615  17.182 -0.4659 -0.4211  0.5142
 2117TIP3    H127842   1.317   1.615  17.086 -2.6955  0.3982  0.4799
 2117TIP3    H227843   1.344   1.704  17.206 -0.6320 -0.4088  0.6499
 2118TIP3   OH227844   6.245   2.388   6.097  0.1001  0.3254 -0.8129
 2118TIP3    H127845   6.281   2.461   6.148 -0.4302 -0.6733  1.0917
 2118TIP3    H227846   6.166   2.362   6.144 -0.2177 -0.9043 -1.9627
 2119TIP3   OH227847   5.967   3.690   3.695  0.1490  0.4617 -0.0888
 2119TIP3    H127848   6.047   3.637   3.696  0.7245  1.3202  0.8202
 2119TIP3    H227849   5.983   3.756   3.627 -0.0949  0.2020 -0.4057
 2120TIP3   OH227850   2.682   2.892  13.589 -0.3623  0.7798  0.1047
 2120TIP3    H127851   2.716   2.813  13.631 -1.1025 -0.3892 -1.3916
 2120TIP3    H227852   2.720   2.964  13.639  3.7726 -0.3931 -0.9188
 2121TIP3   OH227853   5.668   1.592  16.213 -0.5043  0.3591 -0.4222
 2121TIP3    H127854   5.722   1.514  16.207 -0.4129  0.5436 -4.4042
 2121TIP3    H227855   5.730   1.665  16.212 -0.6436  0.5123 -2.5273
 2122TIP3   OH227856   5.392   4.826  12.820  0.2825 -0.8690 -0.4009
 2122TIP3    H127857   5.314   4.825  12.876  1.3376 -0.1189  1.1370
 2122TIP3    H227858   5.356   4.827  12.731 -1.4836 -0.3507  0.2585
 2123TIP3   OH227859   6.522   1.073  13.898 -0.5029 -0.6767  0.2847
 2123TIP3    H127860   6.597   1.078  13.957 -0.1613 -1.7870 -0.0213
 2123TIP3    H227861   6.456   1.025  13.948 -2.1135  2.6285  1.6147
 2124TIP3   OH227862   4.205   0.663   5.422 -0.5416 -0.0214 -0.0253
 2124TIP3    H127863   4.201   0.596   5.491  0.1786  0.0303  0.0698
 2124TIP3    H227864   4.172   0.618   5.344 -2.0723  0.1282  0.4965
 2125TIP3   OH227865   0.774   3.100   1.864  0.0128 -0.3167 -0.3613
 2125TIP3    H127866   0.863   3.131   1.848 -0.5795  0.6725 -2.1361
 2125TIP3    H227867   0.765   3.100   1.959  1.4653  0.9116 -0.1784
 2126TIP3   OH227868   2.717   0.037  13.048  0.3497  0.5624  0.2001
 2126TIP3    H127869   2.769   0.090  12.988  0.7005  1.0600  0.9267
 2126TIP3    H227870   2.771  -0.040  13.067  0.5033  0.7105  0.3643
 2127TIP3   OH227871   5.822   5.725   3.293 -0.3339  0.1646 -0.4018
 2127TIP3    H127872   5.847   5.650   3.238 -1.6477 -1.0933  0.6419
 2127TIP3    H227873   5.755   5.771   3.241 -1.2716 -0.7859 -0.0720
 2128TIP3   OH227874   4.543   4.032   2.062  0.2659 -0.6715  0.1066
 2128TIP3    H127875   4.460   3.984   2.056 -0.3295  0.4019 -0.7095
 2128TIP3    H227876   4.539   4.094   1.989  2.7215 -2.0114 -1.2889
 2129TIP3   OH227877   1.495   2.504   4.251 -0.2170 -0.4716  0.3999
 2129TIP3    H127878   1.543   2.581   4.219 -0.5800 -0.2055  0.4892
 2129TIP3    H227879   1.560   2.433   4.249  0.1086 -0.1759  0.2732
 2130TIP3   OH227880   4.482   1.290  13.299 -0.2250  0.4272 -0.5152
 2130TIP3    H127881   4.454   1.256  13.384 -2.9853  3.1528 -0.1668
 2130TIP3    H227882   4.578   1.294  13.305 -0.3099  0.2580  2.3533
 2131TIP3   OH227883   0.980   2.488   2.369  0.0951 -0.2461  0.0330
 2131TIP3    H127884   0.984   2.578   2.336  0.1747  0.9251  2.9365
 2131TIP3    H227885   1.063   2.449   2.341  1.6219  1.7197  1.4832
 2132TIP3   OH227886   6.554   3.762  16.853  0.2473 -0.3128 -0.1739
 2132TIP3    H127887   6.536   3.849  16.818 -0.1348 -0.2780  0.1046
 2132TIP3    H227888   6.644   3.744  16.827 -0.3897 -0.7861 -2.2099
 2133TIP3   OH227889   3.989   3.024  12.017  0.2651  0.2650  0.0019
 2133TIP3    H127890   4.080   3.022  12.048  0.4822  0.9735 -0.5697
 2133TIP3    H227891   3.937   3.005  12.095  0.9788 -3.8956 -0.3024
 2134TIP3   OH227892   1.086   3.316  15.533  0.5671 -0.1117  0.1376
 2134TIP3    H127893   1.158   3.364  15.492  0.7557 -1.2694 -0.9175
 2134TIP3    H227894   1.119   3.295  15.621  1.4457 -0.4583 -0.2638
 2135TIP3   OH227895   1.280   3.574  12.771 -0.1543 -0.5481  0.2721
 2135TIP3    H127896   1.201   3.620  12.743 -0.6267 -1.2352  0.4432
 2135TIP3    H227897   1.255   3.481  12.772  1.0651 -0.9220 -1.0366
 2136TIP3   OH227898   2.103   1.336  15.984  0.3518 -0.0086 -0.7192
 2136TIP3    H127899   2.067   1.256  16.022  1.3795 -0.4255 -0.5995
 2136TIP3    H227900   2.026   1.390  15.966 -0.3135 -0.7585 -0.2173
 2137TIP3   OH227901   2.095   1.232   0.092  0.8197  0.4670  0.1628
 2137TIP3    H127902   2.043   1.156   0.120  0.6554  0.8580  0.9549
 2137TIP3    H227903   2.176   1.226   0.142  0.0274  1.8388  1.6925
 2138TIP3   OH227904   5.538   2.878   5.702  0.5006 -0.2557  0.3677
 2138TIP3    H127905   5.446   2.902   5.691  0.5510 -0.4383 -0.5143
 2138TIP3    H227906   5.540   2.826   5.782  0.0732  0.9555  1.1958
 2139TIP3   OH227907   2.417   2.112   0.944  0.1197 -0.0191  0.5520
 2139TIP3    H127908   2.413   2.164   0.865  0.9380 -1.3125 -0.3936
 2139TIP3    H227909   2.327   2.105   0.975 -0.3690 -0.4173 -0.9092
 2140TIP3   OH227910   6.067   0.242   0.684 -0.2615  0.0676  0.4269
 2140TIP3    H127911   6.010   0.309   0.722  0.1830  1.4572 -1.2487
 2140TIP3    H227912   6.134   0.227   0.751  0.1745  2.0253  0.4908
 2141TIP3   OH227913   5.442   1.358  14.039 -0.2158 -0.1434 -0.1529
 2141TIP3    H127914   5.381   1.286  14.028 -0.1246 -0.0427 -1.4456
 2141TIP3    H227915   5.529   1.319  14.028  0.1563 -0.6132  3.2625
 2142TIP3   OH227916   5.518   5.490   3.362  0.4552  0.1042  0.3318
 2142TIP3    H127917   5.486   5.402   3.345  1.6449 -0.9281  2.9066
 2142TIP3    H227918   5.507   5.536   3.279 -3.5099 -1.3684 -0.1815
 2143TIP3   OH227919   5.134   0.382  16.051  0.3311 -0.1615  0.5217
 2143TIP3    H127920   5.112   0.424  16.135  0.5088  0.8904  0.0507
 2143TIP3    H227921   5.072   0.420  15.989  1.1123  0.1007 -0.0988
 2144TIP3   OH227922   3.866   4.121   3.425  0.4233 -0.4035 -0.0176
 2144TIP3    H127923   3.840   4.031   3.403 -0.9895  0.2608 -1.3421
 2144TIP3    H227924   3.830   4.136   3.512  0.8004 -1.1633  0.2760
 2145TIP3   OH227925   3.984   2.247  13.487 -0.3621  0.5392  0.0225
 2145TIP3    H127926   3.890   2.240  13.470 -0.1387 -1.5322 -0.5270
 2145TIP3    H227927   4.009   2.330  13.445 -1.3515 -0.4861 -2.8444
 2146TIP3   OH227928   4.073   0.028   5.613 -0.7609  0.6130  0.6069
 2146TIP3    H127929   3.984   0.047   5.583 -0.3932 -0.2243 -1.1324
 2146TIP3    H227930   4.078  -0.068   5.614  0.4320  0.6459 -0.3589
 2147TIP3   OH227931   4.541   1.003   1.029  0.3252 -0.6074  0.3490
 2147TIP3    H127932   4.626   0.971   1.059  0.7894  1.2077  1.0979
 2147TIP3    H227933   4.546   1.098   1.040 -0.7080 -0.1389 -2.4556
 2148TIP3   OH227934   3.336   4.996   6.630  0.5542  0.5392 -0.5059
 2148TIP3    H127935   3.299   4.937   6.696 -0.3668 -1.2744 -2.4693
 2148TIP3    H227936   3.430   4.988   6.640  0.4314  0.3470  0.6065
 2149TIP3   OH227937   6.427   4.086  15.258  0.0211 -0.0655  0.0025
 2149TIP3    H127938   6.333   4.103  15.263  0.0797  0.7435 -1.1748
 2149TIP3    H227939   6.450   4.102  15.166  1.2253 -0.7199  0.1574
 2150TIP3   OH227940   5.663   4.935  12.793 -0.0990  0.1191  0.6566
 2150TIP3    H127941   5.574   4.901  12.791  0.2222 -0.9657  2.3964
 2150TIP3    H227942   5.713   4.874  12.739 -0.5298  1.2904 -1.1520
 2151TIP3   OH227943   5.322   0.408  14.179  0.2525 -0.1617  0.0363
 2151TIP3    H127944   5.275   0.348  14.237  0.0162 -0.3456 -0.3425
 2151TIP3    H227945   5.360   0.352  14.112 -1.9756  0.2678 -1.7415
 2152TIP3   OH227946   3.064   4.655  13.277 -0.2101 -0.0646  0.0625
 2152TIP3    H127947   3.034   4.565  13.287 -0.2762 -0.1757 -1.1019
 2152TIP3    H227948   2.997   4.708  13.321 -0.1687 -0.5679  0.7521
 2153TIP3   OH227949   3.055   5.783   4.063  0.5773 -0.0365  1.0315
 2153TIP3    H127950   3.133   5.812   4.109 -0.0885  1.3251  1.3652
 2153TIP3    H227951   2.995   5.858   4.068 -0.6855 -0.9779  0.6517
 2154TIP3   OH227952   4.746   6.422  16.361 -0.2713  0.2361 -0.1348
 2154TIP3    H127953   4.669   6.372  16.388 -0.4083  0.8660  0.6678
 2154TIP3    H227954   4.778   6.377  16.283 -2.0494  0.5531 -1.0942
 2155TIP3   OH227955   6.259   1.944   1.762 -0.2539 -0.1579  0.3979
 2155TIP3    H127956   6.197   1.983   1.701 -1.7530 -1.4972  1.0116
 2155TIP3    H227957   6.282   1.860   1.723  0.9851  0.1896  0.3272
 2156TIP3   OH227958   0.529   4.021  14.107 -0.2391  0.4261 -0.6806
 2156TIP3    H127959   0.537   4.103  14.059 -0.6273  1.4277  0.9061
 2156TIP3    H227960   0.452   4.032  14.163  0.6019 -0.3992  0.7058
 2157TIP3   OH227961   3.986   5.808  11.028 -1.0652  0.0873 -0.3952
 2157TIP3    H127962   4.001   5.747  10.956  0.0258  1.7009 -1.6232
 2157TIP3    H227963   3.937   5.880  10.988  0.4167  1.4810  0.1714
 2158TIP3   OH227964   6.335   3.390  13.675 -0.8557 -0.0598 -0.3590
 2158TIP3    H127965   6.288   3.360  13.753 -0.3999  1.1283  0.4016
 2158TIP3    H227966   6.405   3.326  13.664  0.7480  1.1752  1.8596
 2159TIP3   OH227967   0.316   1.222  15.642  0.3824 -0.1182  0.2298
 2159TIP3    H127968   0.301   1.136  15.680  0.6434  0.1446  0.9585
 2159TIP3    H227969   0.357   1.272  15.713  2.9002 -0.2355 -1.0375
 2160TIP3   OH227970   2.331   0.849   4.468  0.1553  0.4639  0.3416
 2160TIP3    H127971   2.283   0.931   4.454 -1.4289 -0.1347  1.9786
 2160TIP3    H227972   2.359   0.852   4.559 -2.1390 -1.8604  1.2306
 2161TIP3   OH227973   5.108   2.223  15.428  0.0810  0.4416  0.5249
 2161TIP3    H127974   5.060   2.299  15.396  0.5318  0.6071  0.2330
 2161TIP3    H227975   5.059   2.193  15.505 -1.0080  0.0505 -0.3071
 2162TIP3   OH227976   5.836   0.360   3.284  0.2109 -0.0534 -0.4151
 2162TIP3    H127977   5.909   0.361   3.223  0.5778  1.7365 -0.0004
 2162TIP3    H227978   5.766   0.407   3.239 -0.2880 -0.6842 -0.3244
 2163TIP3   OH227979   5.198   5.952  16.335 -0.1869  0.1284  0.3367
 2163TIP3    H127980   5.245   5.880  16.293 -0.2948  0.7077 -0.8187
 2163TIP3    H227981   5.264   5.997  16.387 -0.4970 -1.8748  2.5990
 2164TIP3   OH227982   5.735   2.454   0.786  0.1437 -0.1725 -1.0286
 2164TIP3    H127983   5.777   2.521   0.731  2.2268  0.7835  1.4988
 2164TIP3    H227984   5.808   2.402   0.819 -1.1544 -1.5342 -0.2029
 2165TIP3   OH227985   0.318   0.212   4.433  0.0953  0.0739 -0.1538
 2165TIP3    H127986   0.362   0.288   4.395  0.0617 -0.3278 -0.9985
 2165TIP3    H227987   0.294   0.158   4.359 -2.3159  0.4976  0.2240
 2166TIP3   OH227988   3.979   0.770   3.980 -0.6052  0.0727  0.1584
 2166TIP3    H127989   4.044   0.839   3.967  0.1257 -0.1572  2.2492
 2166TIP3    H227990   3.960   0.738   3.892  1.2854  0.8942 -0.5911
 2167TIP3   OH227991   5.227   3.099   2.386 -0.1067  0.4782 -0.6345
 2167TIP3    H127992   5.285   3.068   2.456 -1.3519 -1.7067 -0.4736
 2167TIP3    H227993   5.260   3.057   2.307  0.0500  1.2913 -1.0129
 2168TIP3   OH227994   2.848   2.619  11.298 -0.2263 -0.0316  0.0384
 2168TIP3    H127995   2.773   2.660  11.256 -1.3685 -2.5548 -0.5418
 2168TIP3    H227996   2.924   2.664  11.260 -1.3371  0.2774 -1.9446
 2169TIP3   OH227997   0.733   5.264   3.518  0.1035 -0.2763 -0.8886
 2169TIP3    H127998   0.718   5.263   3.424 -0.0886 -1.5426 -0.8687
 2169TIP3    H227999   0.656   5.306   3.554  0.3392  0.5348 -1.3116
 2170TIP3   OH228000   2.452   6.692   2.199  0.1294 -0.2035  0.1844
 2170TIP3    H128001   2.440   6.671   2.292 -0.1111  0.3070  0.2717
 2170TIP3    H228002   2.527   6.639   2.172  0.7965  0.3429  0.9046
 2171TIP3   OH228003   6.656   3.631  11.794 -0.2292 -0.0408 -0.0093
 2171TIP3    H128004   6.647   3.661  11.884 -0.1414 -0.8786  0.2848
 2171TIP3    H228005   6.567   3.630  11.759 -0.0669  2.5486 -0.7105
 2172TIP3   OH228006   3.413   5.238   5.586  0.2351 -0.3984  0.7477
 2172TIP3    H128007   3.423   5.261   5.678 -0.4950 -0.1711  0.7742
 2172TIP3    H228008   3.319   5.229   5.574 -0.0791  3.2356 -0.8307
 2173TIP3   OH228009   2.826   6.353  15.172 -0.0352 -0.3332  0.4065
 2173TIP3    H128010   2.789   6.430  15.129  1.6952 -0.5090 -1.5796
 2173TIP3    H228011   2.751   6.299  15.193 -1.1105  0.6562 -0.7293
 2174TIP3   OH228012   4.883   0.720   1.391  0.1029 -0.4457 -0.0636
 2174TIP3    H128013   4.856   0.637   1.352 -0.0457 -0.0269 -0.8678
 2174TIP3    H228014   4.819   0.784   1.359 -0.1528 -0.1181  1.0356
 2175TIP3   OH228015   4.153   1.078   0.501 -0.3954 -0.1343 -0.2847
 2175TIP3    H128016   4.163   0.990   0.537 -0.2015  0.3624  0.9445
 2175TIP3    H228017   4.243   1.109   0.489 -0.4624 -0.1075 -0.7419
 2176TIP3   OH228018   6.562   3.786   4.878  0.5919  0.0973  0.1676
 2176TIP3    H128019   6.516   3.724   4.935 -0.0376 -0.6729 -1.1365
 2176TIP3    H228020   6.626   3.828   4.935 -1.0233  0.4536  1.7872
 2177TIP3   OH228021   5.984   0.632  13.145  0.6817 -0.0565 -0.0785
 2177TIP3    H128022   6.030   0.706  13.186 -0.8880  1.2148 -0.5170
 2177TIP3    H228023   5.894   0.640  13.175  0.0213 -0.5357 -1.8151
 2178TIP3   OH228024   3.190   4.893   5.180 -0.2492  0.2040 -0.0073
 2178TIP3    H128025   3.118   4.897   5.243 -0.1465 -0.1528  0.1406
 2178TIP3    H228026   3.236   4.812   5.203 -0.3482 -0.0488 -0.6959
 2179TIP3   OH228027   4.755   3.230   3.235  0.0672 -0.0089 -0.2079
 2179TIP3    H128028   4.701   3.174   3.291  1.4301 -0.8888  0.2987
 2179TIP3    H228029   4.737   3.200   3.146  1.0714 -1.6192  0.0775
 2180TIP3   OH228030   0.721   1.545   6.035 -0.0088  0.3234  0.3310
 2180TIP3    H128031   0.785   1.486   6.076  1.3394  0.4861 -1.4434
 2180TIP3    H228032   0.728   1.625   6.087  0.2622 -0.0898  0.9614
 2181TIP3   OH228033   5.136   4.249  14.313 -0.5742  0.1583 -0.5812
 2181TIP3    H128034   5.199   4.314  14.281  0.5340  1.0616  2.9032
 2181TIP3    H228035   5.188   4.169  14.325 -0.8120  0.0108 -0.5195
 2182TIP3   OH228036   6.195   0.895   2.200  0.5759  0.0087  0.4398
 2182TIP3    H128037   6.275   0.851   2.227 -0.9868 -2.1275  1.9673
 2182TIP3    H228038   6.169   0.946   2.276 -0.8660 -1.5087  1.0469
 2183TIP3   OH228039   4.069   3.822  11.373  0.9130 -0.4592 -0.1619
 2183TIP3    H128040   4.015   3.781  11.440  1.9344 -0.2724  0.8078
 2183TIP3    H228041   4.030   3.908  11.360 -0.3474 -1.1348 -1.1264
 2184TIP3   OH228042   6.687   2.439   5.292  0.1980 -0.0832 -0.5376
 2184TIP3    H128043   6.672   2.532   5.311 -1.6280 -0.2601 -0.9276
 2184TIP3    H228044   6.675   2.396   5.377  1.6065  0.0679 -0.2407
 2185TIP3   OH228045   0.147   4.871   1.443 -0.2657  0.1990  0.5092
 2185TIP3    H128046   0.123   4.961   1.467  2.2344  1.2322 -0.4949
 2185TIP3    H228047   0.140   4.822   1.524 -0.2386  1.6474  1.4243
 2186TIP3   OH228048   2.980   0.125   1.667 -0.3539 -0.5828  0.4188
 2186TIP3    H128049   2.966   0.201   1.723  1.1603 -0.2618  0.3996
 2186TIP3    H228050   3.073   0.103   1.678 -0.0842 -0.6943 -1.7177
 2187TIP3   OH228051   6.691   0.218  13.819 -0.4672  0.9171 -0.3104
 2187TIP3    H128052   6.745   0.188  13.746  1.1386 -0.6083  1.4019
 2187TIP3    H228053   6.627   0.277  13.778 -0.3970 -0.7343 -3.1125
 2188TIP3   OH228054   4.044   1.269   1.061  0.3514 -0.6372  0.4180
 2188TIP3    H128055   4.060   1.178   1.036  1.6869 -0.5286  0.8166
 2188TIP3    H228056   3.970   1.264   1.122 -0.5864 -1.2710 -0.7221
 2189TIP3   OH228057   3.634   0.110  14.295  0.3884  0.0841 -0.3473
 2189TIP3    H128058   3.674   0.099  14.209  0.6680 -0.1688 -0.1867
 2189TIP3    H228059   3.612   0.021  14.323  0.3789  0.1573 -0.1206
 2190TIP3   OH228060   4.543   0.966   0.644  0.5777 -0.3297 -0.4963
 2190TIP3    H128061   4.527   1.057   0.619  0.2005 -0.0458  0.7250
 2190TIP3    H228062   4.458   0.934   0.673  1.2817 -0.0642  2.1322
 2191TIP3   OH228063   6.124   1.052  11.813 -0.0365 -0.4385 -0.1331
 2191TIP3    H128064   6.220   1.058  11.813  0.2558 -3.4545  0.9503
 2191TIP3    H228065   6.106   0.976  11.758 -1.6545 -1.2273  1.4161
 2192TIP3   OH228066   2.926   3.938   3.491  0.1348 -0.2022 -0.2441
 2192TIP3    H128067   2.938   3.862   3.434  0.2852 -1.9875  2.0090
 2192TIP3    H228068   3.013   3.976   3.500  0.0241  0.4067 -1.5398
 2193TIP3   OH228069   3.760   5.377   4.633  0.7391 -0.4451  0.3431
 2193TIP3    H128070   3.692   5.445   4.630  1.4620  0.3973  1.8827
 2193TIP3    H228071   3.808   5.388   4.551  1.0694  1.1825  0.7123
 2194TIP3   OH228072   5.076   2.346  12.627  0.4852 -0.0726  0.3459
 2194TIP3    H128073   4.989   2.384  12.639  0.3715 -0.1034 -0.3482
 2194TIP3    H228074   5.120   2.360  12.711  0.2003  0.9547  0.3373
 2195TIP3   OH228075   6.191   5.319  13.457  0.1185 -0.0660 -0.3838
 2195TIP3    H128076   6.162   5.409  13.438 -2.2165 -0.3819  1.2750
 2195TIP3    H228077   6.139   5.265  13.397  1.4496 -0.3754 -1.3087
 2196TIP3   OH228078   2.434   4.908  15.895 -0.4524  0.2589  0.3006
 2196TIP3    H128079   2.431   4.838  15.961 -1.3026  0.4322  0.4598
 2196TIP3    H228080   2.362   4.887  15.836  0.1458  0.2534 -0.4353
 2197TIP3   OH228081   0.083   3.976   3.002 -0.1243 -0.2768 -0.0017
 2197TIP3    H128082   0.138   3.911   2.959 -0.2051 -0.5503  0.3020
 2197TIP3    H228083   0.037   3.926   3.070 -1.1368 -0.1697 -0.5898
 2198TIP3   OH228084   1.421   5.067   0.896 -0.3461 -0.0789 -0.4988
 2198TIP3    H128085   1.439   5.159   0.876 -0.1913 -0.2099 -0.9865
 2198TIP3    H228086   1.384   5.032   0.815  1.6178 -0.9800 -1.0863
 2199TIP3   OH228087   0.971   4.047   1.454  0.4946  0.5584  0.0434
 2199TIP3    H128088   0.889   4.000   1.443  1.3139 -0.6907 -1.1671
 2199TIP3    H228089   1.014   4.003   1.528  0.9139 -0.1329 -0.5889
 2200TIP3   OH228090   5.365   6.180  15.413  0.3923  0.6837  0.2211
 2200TIP3    H128091   5.339   6.090  15.394  1.6594  0.2600  0.3762
 2200TIP3    H228092   5.375   6.220  15.327 -0.6629  0.8435  0.1576
 2201TIP3   OH228093   2.653   5.543  13.105 -0.2644 -0.4028  0.1031
 2201TIP3    H128094   2.702   5.619  13.137  2.1716 -1.5671 -0.6724
 2201TIP3    H228095   2.612   5.573  13.024 -0.9617  0.6229  0.8121
 2202TIP3   OH228096   3.751   6.315  13.540  0.1009 -0.8069  0.4598
 2202TIP3    H128097   3.665   6.358  13.540 -0.4442 -1.8357  1.0341
 2202TIP3    H228098   3.776   6.310  13.448  0.5297  1.3576  0.4235
 2203TIP3   OH228099   5.395   0.243   4.442  0.0667 -0.3659 -0.0061
 2203TIP3    H128100   5.303   0.233   4.469  0.0070  0.4009  0.1159
 2203TIP3    H228101   5.392   0.243   4.346 -0.1731  0.4692 -0.0086
 2204TIP3   OH228102   3.994   2.633  16.208 -0.2841  0.2111 -0.2025
 2204TIP3    H128103   3.983   2.673  16.122  0.5009 -2.0907 -1.4745
 2204TIP3    H228104   4.057   2.689  16.253  0.4207  0.6619 -1.7012
 2205TIP3   OH228105   0.744   3.755   3.153  0.1433  0.2471  0.0067
 2205TIP3    H128106   0.833   3.766   3.186  0.1749 -0.4717  0.1761
 2205TIP3    H228107   0.745   3.797   3.067  1.2811 -1.7211 -1.0037
 2206TIP3   OH228108   4.208   2.735  15.475 -0.1359  0.5576  0.1789
 2206TIP3    H128109   4.179   2.792  15.404  0.5174 -0.6362 -1.1069
 2206TIP3    H228110   4.257   2.792  15.533  2.1155  1.0657 -2.0297
 2207TIP3   OH228111   1.951   2.377   2.312  0.4095  0.4120 -0.0236
 2207TIP3    H128112   1.944   2.470   2.329 -3.6721 -0.2446  3.7070
 2207TIP3    H228113   2.012   2.344   2.378 -0.2994  0.1783  0.5327
 2208TIP3   OH228114   6.037   5.036  17.395  0.5228 -0.0814 -0.5802
 2208TIP3    H128115   6.019   5.081  17.313 -0.1960  0.4443 -0.1406
 2208TIP3    H228116   6.078   4.954  17.368 -0.4512 -0.2899 -1.5108
 2209TIP3   OH228117   5.806   2.504   2.727  0.3478  0.0449  0.5381
 2209TIP3    H128118   5.894   2.497   2.690  0.0205 -0.5109 -0.1628
 2209TIP3    H228119   5.820   2.513   2.821  1.2102  1.6007  0.2910
 2210TIP3   OH228120   4.186   1.753   3.212 -0.2198 -0.1942 -0.3535
 2210TIP3    H128121   4.171   1.689   3.143  0.8306 -0.1804 -0.6140
 2210TIP3    H228122   4.279   1.742   3.235 -0.6274 -0.4323  1.2953
 2211TIP3   OH228123   0.406   6.499  14.355  0.0774 -0.0868 -0.0787
 2211TIP3    H128124   0.390   6.518  14.448 -0.0808 -0.6196  0.0065
 2211TIP3    H228125   0.417   6.404  14.352  2.3954  0.1158 -0.2598
 2212TIP3   OH228126   0.825   4.913   3.858 -0.3188  0.2009  0.3289
 2212TIP3    H128127   0.894   4.977   3.874  0.6454 -0.7152 -0.0860
 2212TIP3    H228128   0.775   4.950   3.785 -1.4065  1.7345  1.7563
 2213TIP3   OH228129   5.774   2.009  15.332 -0.2313  0.3050 -0.0251
 2213TIP3    H128130   5.799   1.970  15.416 -0.4651  0.7236  0.2452
 2213TIP3    H228131   5.785   1.939  15.268  0.6622  0.1967  0.2424
 2214TIP3   OH228132   5.515   4.881   0.468 -0.3508  0.1545  0.0570
 2214TIP3    H128133   5.578   4.814   0.442  0.0188  1.0701 -1.5810
 2214TIP3    H228134   5.564   4.939   0.526  0.2018  0.5722 -0.7993
 2215TIP3   OH228135   5.949   4.795   1.591 -0.3214  0.3760  0.1033
 2215TIP3    H128136   5.980   4.705   1.586 -2.5521 -0.4003 -1.7777
 2215TIP3    H228137   6.015   4.846   1.545  0.9894 -0.2550  1.2249
 2216TIP3   OH228138   1.426   0.644   4.476 -0.0322  0.2867  0.8323
 2216TIP3    H128139   1.442   0.712   4.541 -0.1231  1.4368 -0.2871
 2216TIP3    H228140   1.361   0.683   4.416 -0.2329 -0.8628  0.2706
 2217TIP3   OH228141   5.985   3.750   2.891  0.3603 -0.4432 -0.2126
 2217TIP3    H128142   5.930   3.671   2.895 -0.9922  0.4500 -0.4742
 2217TIP3    H228143   6.017   3.752   2.801  0.9028 -1.0111 -0.0385
 2218TIP3   OH228144   0.642   6.087   6.484 -0.0134 -0.1540 -0.0389
 2218TIP3    H128145   0.724   6.132   6.462 -1.2786  2.1587 -0.2685
 2218TIP3    H228146   0.621   6.119   6.572  0.3327 -2.3480  0.9153
 2219TIP3   OH228147   4.094   4.981   1.158  0.0927  0.4808  0.4672
 2219TIP3    H128148   4.117   4.954   1.069 -0.3565  0.0228  0.4822
 2219TIP3    H228149   4.138   5.064   1.170  0.8279  0.1547  0.1077
 2220TIP3   OH228150   5.035   1.592  16.430  0.1956 -0.0414 -0.3303
 2220TIP3    H128151   5.129   1.606  16.432  0.2357 -0.2342 -0.8760
 2220TIP3    H228152   5.012   1.591  16.337 -0.4804  0.9107 -0.1944
 2221TIP3   OH228153   3.604   4.459  11.665  0.0228  0.3005 -0.2034
 2221TIP3    H128154   3.549   4.386  11.694  0.0524  0.4813  0.3199
 2221TIP3    H228155   3.603   4.453  11.569 -0.8647  0.2665 -0.2068
 2222TIP3   OH228156   5.913   3.780  17.038 -0.2117  0.7284  0.4840
 2222TIP3    H128157   5.942   3.846  16.974 -1.7778 -1.3052 -2.6170
 2222TIP3    H228158   5.827   3.811  17.067 -0.4799  0.6072 -0.1566
 2223TIP3   OH228159   1.135   1.884   5.914 -0.0634 -0.3303  0.2026
 2223TIP3    H128160   1.139   1.837   5.831 -2.2072  0.7458 -0.5873
 2223TIP3    H228161   1.059   1.848   5.959 -1.4135  1.8417 -0.1659
 2224TIP3   OH228162   4.627   4.483  15.954  0.2156  0.1327  0.3185
 2224TIP3    H128163   4.586   4.570  15.946 -1.1766 -0.4946  0.3081
 2224TIP3    H228164   4.587   4.445  16.031  0.5796 -0.6353  0.1335
 2225TIP3   OH228165   4.898   2.957   2.777 -0.1057  0.4121  0.3287
 2225TIP3    H128166   4.971   3.011   2.747  0.2251 -0.5437 -0.6328
 2225TIP3    H228167   4.822   2.990   2.729 -0.8217  2.7916  2.8145
 2226TIP3   OH228168   5.941   1.558  12.960 -0.6667  0.2210 -0.0941
 2226TIP3    H128169   5.971   1.469  12.943 -0.1130  0.5198 -0.7180
 2226TIP3    H228170   5.879   1.577  12.889  0.6191  0.9820 -1.0512
 2227TIP3   OH228171   1.418   6.095   6.019  0.0739 -0.0795  0.3066
 2227TIP3    H128172   1.508   6.062   6.018 -0.5921 -2.0035  0.2238
 2227TIP3    H228173   1.365   6.019   6.040 -1.6324  0.8070 -0.6186
 2228TIP3   OH228174   2.775   0.273   0.356  0.8612  0.1107 -0.0627
 2228TIP3    H128175   2.852   0.229   0.391  0.6805  0.0732  0.2967
 2228TIP3    H228176   2.716   0.202   0.331  0.6721  0.1455  0.2828
 2229TIP3   OH228177   4.359   5.693   5.685 -0.5629  0.1533 -0.0438
 2229TIP3    H128178   4.426   5.747   5.727 -0.7806 -0.2029  0.7903
 2229TIP3    H228179   4.380   5.697   5.592  0.4794  0.2459  0.1750
 2230TIP3   OH228180   5.718   3.625  13.644 -0.4302  0.3933  0.2001
 2230TIP3    H128181   5.746   3.538  13.675 -2.2859 -0.2499  0.1879
 2230TIP3    H228182   5.627   3.612  13.617  0.1519  1.6679 -2.6303
 2231TIP3   OH228183   5.268   2.671   5.641  0.6859 -0.0815 -0.4298
 2231TIP3    H128184   5.349   2.698   5.598  0.2155 -1.0479 -2.0188
 2231TIP3    H228185   5.283   2.580   5.667  0.4977  0.0893  0.3132
 2232TIP3   OH228186   6.434   0.663   2.553 -0.2487  0.0043 -0.2591
 2232TIP3    H128187   6.418   0.628   2.466  0.7422 -0.2258 -0.3623
 2232TIP3    H228188   6.438   0.586   2.610  0.1770  0.0698 -0.1945
 2233TIP3   OH228189   4.326   5.710  12.452  0.1866  0.4774 -0.1773
 2233TIP3    H128190   4.324   5.644  12.383  1.1516  0.3184 -0.0652
 2233TIP3    H228191   4.249   5.765  12.435 -1.5207 -1.5294  0.5900
 2234TIP3   OH228192   4.474   2.965  14.892 -0.0796  0.0947  0.0989
 2234TIP3    H128193   4.413   2.891  14.896 -0.2682  0.2917  1.0977
 2234TIP3    H228194   4.502   2.968  14.800 -0.4071 -0.9380 -0.0464
 2235TIP3   OH228195   0.157   1.903  14.368 -0.1795  0.5666  0.1130
 2235TIP3    H128196   0.223   1.952  14.319  0.3415  0.0985  0.3326
 2235TIP3    H228197   0.095   1.873  14.302 -0.5682  1.5989 -0.0145
 2236TIP3   OH228198   2.238   0.307   1.353 -0.1772  0.5244 -0.7756
 2236TIP3    H128199   2.147   0.337   1.346 -0.4401 -0.4281 -1.6916
 2236TIP3    H228200   2.245   0.236   1.289  0.2928 -1.6524  1.5312
 2237TIP3   OH228201   3.528   5.809   1.123 -0.2486 -0.4362  0.2841
 2237TIP3    H128202   3.462   5.775   1.183 -1.0232 -2.0832 -1.3921
 2237TIP3    H228203   3.478   5.835   1.046  0.6198  2.4522  0.5882
 2238TIP3   OH228204   6.754   0.466   3.481  0.3052  0.3495  0.6430
 2238TIP3    H128205   6.681   0.527   3.467 -0.9851 -1.1966  0.3092
 2238TIP3    H228206   6.718   0.380   3.457  1.7676 -0.6794  1.9559
 2239TIP3   OH228207   6.532   1.126   2.037  0.0902  0.2970 -0.1777
 2239TIP3    H128208   6.541   1.220   2.020 -1.6101  0.2063 -1.7942
 2239TIP3    H228209   6.460   1.120   2.101 -0.0256  0.0717 -0.3302
 2240TIP3   OH228210   4.763   4.716   3.813 -0.4903 -0.2251 -0.8986
 2240TIP3    H128211   4.696   4.767   3.769  0.8374  1.1382 -1.3953
 2240TIP3    H228212   4.845   4.761   3.794  0.5921 -1.8565 -0.3270
 2241TIP3   OH228213   3.351   1.792   3.715  0.1283  0.0109  0.1720
 2241TIP3    H128214   3.429   1.788   3.660  0.1088  0.3748  0.1191
 2241TIP3    H228215   3.343   1.884   3.740 -1.0644  0.2383 -0.9455
 2242TIP3   OH228216   4.962   5.005  16.340  0.0590  0.2014 -0.3704
 2242TIP3    H128217   4.911   5.023  16.419 -2.7522 -1.1993 -1.7030
 2242TIP3    H228218   4.930   5.068  16.275  1.8504  0.9006 -0.6541
 2243TIP3   OH228219   3.600   0.671  15.930  0.2292  0.2581  0.0717
 2243TIP3    H128220   3.612   0.639  16.019  1.0321  0.6619  0.1129
 2243TIP3    H228221   3.566   0.759  15.940  0.1975  0.2564 -0.0212
 2244TIP3   OH228222   3.875   4.714   1.724  0.4358  0.1483  0.5126
 2244TIP3    H128223   3.802   4.659   1.753  0.2381  0.0146 -0.2408
 2244TIP3    H228224   3.851   4.742   1.636  0.1514  2.1056  1.1672
 2245TIP3   OH228225   3.233   4.726   5.619 -0.4774 -0.2112  0.4733
 2245TIP3    H128226   3.261   4.711   5.529 -0.6868 -0.4244  0.4426
 2245TIP3    H228227   3.144   4.761   5.612  0.2163  1.6635  0.5183
 2246TIP3   OH228228   6.317   3.909  17.369  0.3982 -0.2458 -0.1845
 2246TIP3    H128229   6.276   3.892  17.454  0.2738 -0.1329 -0.2225
 2246TIP3    H228230   6.297   3.831  17.317 -0.5130  0.1792 -0.4913
 2247TIP3   OH228231   2.233   0.123   2.450 -0.8057 -0.3936 -0.3885
 2247TIP3    H128232   2.294   0.125   2.376 -0.9160 -1.4668 -0.5241
 2247TIP3    H228233   2.287   0.139   2.527 -0.2643 -1.7656 -0.4635
 2248TIP3   OH228234   1.450   4.616   3.116 -0.5572 -0.2421 -0.5466
 2248TIP3    H128235   1.423   4.574   3.199 -0.0997  1.1095  0.3161
 2248TIP3    H228236   1.387   4.687   3.105 -1.1322 -0.9196 -1.8374
 2249TIP3   OH228237   3.436   0.050  17.209  0.2314 -0.2261  0.0581
 2249TIP3    H128238   3.475   0.050  17.122 -2.6742  1.6184 -1.4068
 2249TIP3    H228239   3.404  -0.039  17.222  1.6228 -0.7939 -0.2308
 2250TIP3   OH228240   0.208   1.050   6.092 -0.3967 -0.0939 -0.7799
 2250TIP3    H128241   0.296   1.078   6.119 -0.5106 -1.5729  1.3293
 2250TIP3    H228242   0.162   1.033   6.173 -1.9177 -1.5156 -1.8713
 2251TIP3   OH228243   1.255   5.360  11.777  0.2101 -0.0926  0.0892
 2251TIP3    H128244   1.208   5.310  11.710  1.1211 -0.0304 -0.6148
 2251TIP3    H228245   1.348   5.348  11.756  0.4836  2.3924 -0.5568
 2252TIP3   OH228246   2.510   4.407   5.321  0.5045  0.0797  0.1479
 2252TIP3    H128247   2.520   4.485   5.266  0.3443 -0.4710 -0.6857
 2252TIP3    H228248   2.596   4.395   5.361  0.7781  0.2074 -0.3830
 2253TIP3   OH228249   1.751   2.692   3.647 -0.1759  0.2823 -0.6530
 2253TIP3    H128250   1.656   2.679   3.642 -0.2856  1.3773 -1.8094
 2253TIP3    H228251   1.787   2.631   3.583 -0.0765 -0.2247 -0.1233
 2254TIP3   OH228252   5.523   4.958   6.220 -0.6835  0.4123 -0.3736
 2254TIP3    H128253   5.449   5.013   6.192  0.8394  1.8617 -1.8226
 2254TIP3    H228254   5.550   4.996   6.303 -0.1081  1.4710 -1.0083
 2255TIP3   OH228255   5.258   2.521   6.368  0.8038  0.7037  0.3432
 2255TIP3    H128256   5.196   2.592   6.381 -1.4648 -0.6051 -2.3528
 2255TIP3    H228257   5.340   2.564   6.345  0.2160  2.4360  1.3074
 2256TIP3   OH228258   0.600   2.178   4.816  0.1355 -0.3610 -0.1847
 2256TIP3    H128259   0.663   2.108   4.829 -0.0776 -0.8701 -1.6286
 2256TIP3    H228260   0.570   2.201   4.904 -0.0821 -2.3705  0.3204
 2257TIP3   OH228261   1.193   4.866   5.204 -0.5158 -0.2024 -0.5634
 2257TIP3    H128262   1.122   4.811   5.238 -0.9630 -0.7154 -2.2517
 2257TIP3    H228263   1.273   4.827   5.242 -1.0185 -0.4260  0.3020
 2258TIP3   OH228264   1.987   0.975  13.299 -0.4184 -0.3066  0.3059
 2258TIP3    H128265   2.031   1.058  13.281 -0.8918  0.3001  1.7927
 2258TIP3    H228266   1.995   0.964  13.394 -1.6335 -1.2244  0.3223
 2259TIP3   OH228267   5.163   4.260  17.208 -0.3097  0.3768  0.4797
 2259TIP3    H128268   5.175   4.347  17.170  0.3971 -0.0878 -0.3879
 2259TIP3    H228269   5.084   4.226  17.167 -0.2088  0.3442  0.3106
 2260TIP3   OH228270   5.942   5.701  13.619  0.5601 -0.2186  0.0689
 2260TIP3    H128271   6.025   5.664  13.589  0.9392 -0.1238  0.9864
 2260TIP3    H228272   5.967   5.772  13.677 -0.1507 -0.6169  0.8868
 2261TIP3   OH228273   6.260   5.995   3.255  0.0665  0.4891 -0.4360
 2261TIP3    H128274   6.210   5.913   3.256 -1.1189  1.1727 -1.5129
 2261TIP3    H228275   6.275   6.014   3.162 -0.1307  1.7558 -0.2295
 2262TIP3   OH228276   1.260   3.330   2.623 -0.2681 -0.7911  0.0149
 2262TIP3    H128277   1.169   3.327   2.651 -0.5665 -2.2586 -1.0304
 2262TIP3    H228278   1.311   3.323   2.704 -1.0811 -0.9336  0.5188
 2263TIP3   OH228279   4.333   6.198  17.516 -0.7189  0.5333 -0.0552
 2263TIP3    H128280   4.252   6.158  17.548 -0.0491  0.1851  1.2782
 2263TIP3    H228281   4.372   6.239  17.593  0.0450  1.2996 -0.8206
 2264TIP3   OH228282   0.865   6.673  16.641 -0.5200  0.3003 -0.1949
 2264TIP3    H128283   0.932   6.734  16.611 -1.2435  0.5584 -1.3439
 2264TIP3    H228284   0.784   6.724  16.641 -0.7303  0.0168  1.2488
 2265TIP3   OH228285   4.256   0.040  12.219 -0.3000 -0.5973 -0.2732
 2265TIP3    H128286   4.214   0.120  12.188 -0.8663 -1.5117 -1.9285
 2265TIP3    H228287   4.301   0.067  12.300  1.1297  1.8510 -1.7653
 2266TIP3   OH228288   2.345   6.703  15.902  0.1390  0.9794 -0.0661
 2266TIP3    H128289   2.386   6.641  15.842 -0.2662 -0.6158  1.2108
 2266TIP3    H228290   2.313   6.774  15.846  0.5331 -0.0065 -1.6041
 2267TIP3   OH228291   2.704   1.061  11.972  0.3780 -0.0041  0.3215
 2267TIP3    H128292   2.705   1.151  12.004 -1.0020  0.4952 -0.9141
 2267TIP3    H228293   2.776   1.018  12.018  0.3513  1.4240  1.7892
 2268TIP3   OH228294   3.283   1.461  14.503  0.1893 -0.0833  0.4357
 2268TIP3    H128295   3.367   1.506  14.504  0.7109 -1.0123  0.0176
 2268TIP3    H228296   3.221   1.525  14.468  1.0756  0.0516 -0.9706
 2269TIP3   OH228297   0.381   1.243  15.006  0.0126  0.0655 -0.8697
 2269TIP3    H128298   0.312   1.282  14.953 -0.6776  1.5053  0.9876
 2269TIP3    H228299   0.349   1.155  15.027 -0.6444  0.2385 -1.1232
 2270TIP3   OH228300   1.733   2.738  16.679  0.1031 -0.6044  0.3409
 2270TIP3    H128301   1.806   2.795  16.655 -0.7139 -0.2498 -1.3987
 2270TIP3    H228302   1.659   2.797  16.691 -0.4249 -1.1709 -0.0927
 2271TIP3   OH228303   0.118   0.840   2.421 -0.2955 -0.4190  0.0800
 2271TIP3    H128304   0.116   0.767   2.484 -1.1329  0.3273  0.9532
 2271TIP3    H228305   0.026   0.856   2.400 -0.1226  0.4167 -0.0656
 2272TIP3   OH228306   5.688   0.317   5.863  0.1813  0.3908 -0.5244
 2272TIP3    H128307   5.709   0.408   5.843 -0.0064  0.9086  1.4339
 2272TIP3    H228308   5.605   0.302   5.818  0.1060  1.2525 -0.6992
 2273TIP3   OH228309   0.981   5.044  17.157  0.2345  0.4142 -0.2201
 2273TIP3    H128310   1.009   5.135  17.151 -0.0721  0.4758 -0.8917
 2273TIP3    H228311   0.887   5.049  17.176 -0.0977  0.2771 -1.6979
 2274TIP3   OH228312   1.747   5.282   0.639 -0.2102  0.0800  0.1537
 2274TIP3    H128313   1.831   5.310   0.603 -0.5198 -1.7681 -2.2718
 2274TIP3    H228314   1.752   5.187   0.641 -2.2837 -0.0963 -0.2927
 2275TIP3   OH228315   3.953   1.112  13.042 -0.0570  0.0391 -0.1852
 2275TIP3    H128316   4.034   1.073  13.010  0.1991 -0.4148  0.9761
 2275TIP3    H228317   3.927   1.058  13.116 -0.6260  1.0473  0.3828
 2276TIP3   OH228318   2.361   6.507   2.014 -0.2341 -0.1608 -1.0592
 2276TIP3    H128319   2.279   6.465   2.040  0.7297 -1.0942  0.6139
 2276TIP3    H228320   2.367   6.584   2.071  0.6254 -0.7614 -0.3239
 2277TIP3   OH228321   2.923   0.591   4.487  0.7449 -0.1211  0.0978
 2277TIP3    H128322   2.865   0.587   4.411  2.7544  0.5880 -1.6100
 2277TIP3    H228323   2.903   0.675   4.528  0.4422  0.0292 -0.3528
 2278TIP3   OH228324   1.346   3.040  16.909  0.3291  0.1409  0.0123
 2278TIP3    H128325   1.263   3.029  16.955  0.7585 -0.1996  0.7120
 2278TIP3    H228326   1.364   3.134  16.916  0.6738  0.0122  1.0577
 2279TIP3   OH228327   2.870   1.179   5.325 -0.3655  0.1230 -0.1431
 2279TIP3    H128328   2.802   1.187   5.392 -1.1860 -1.7847 -0.6679
 2279TIP3    H228329   2.824   1.191   5.242  0.1656 -0.0156 -0.4657
 2280TIP3   OH228330   5.672   3.753   1.482 -0.4912  0.5640  0.2920
 2280TIP3    H128331   5.590   3.801   1.473 -0.4640  0.2356 -2.6400
 2280TIP3    H228332   5.725   3.806   1.542 -1.7627  2.2862 -0.0509
 2281TIP3   OH228333   3.361   6.239   1.764 -0.9111  0.0395  0.0326
 2281TIP3    H128334   3.403   6.211   1.683 -0.7284  0.7894 -0.1391
 2281TIP3    H228335   3.341   6.331   1.750 -1.2320  0.0767  0.6940
 2282TIP3   OH228336   2.902   6.560   3.615 -0.0716  0.7337  0.2887
 2282TIP3    H128337   2.962   6.596   3.680  0.3223  1.5257 -0.4856
 2282TIP3    H228338   2.823   6.538   3.664  0.2184  1.3189  1.0314
 2283TIP3   OH228339   5.949   3.055   1.060 -0.3724 -0.1540 -0.2022
 2283TIP3    H128340   6.018   3.100   1.108  1.0533 -1.3786 -1.0121
 2283TIP3    H228341   5.867   3.092   1.094  0.6532  3.2822 -1.0744
 2284TIP3   OH228342   3.569   3.851  12.017  0.2256  0.4566 -0.5455
 2284TIP3    H128343   3.562   3.789  11.944 -0.1581  1.3104 -1.2528
 2284TIP3    H228344   3.608   3.800  12.088  0.1153 -0.5370 -1.1759
 2285TIP3   OH228345   4.751   5.781  14.116  0.6120  0.1619 -0.3931
 2285TIP3    H128346   4.732   5.688  14.098 -0.6080 -0.6727  4.0179
 2285TIP3    H228347   4.835   5.797  14.072  0.1934 -2.5457 -2.4929
 2286TIP3   OH228348   5.140   4.811  16.758 -0.2152  0.1698  0.3523
 2286TIP3    H128349   5.121   4.769  16.674 -0.6097  1.4057 -0.1970
 2286TIP3    H228350   5.074   4.879  16.766  0.5221  0.8144  1.1201
 2287TIP3   OH228351   2.734   0.119   6.650  0.5313  0.3014  0.0275
 2287TIP3    H128352   2.742   0.024   6.650 -0.9233  0.0834 -2.2586
 2287TIP3    H228353   2.822   0.151   6.630  1.0723 -0.5152  1.0000
 2288TIP3   OH228354   1.310   6.359   2.607 -0.1607  0.1311 -0.2152
 2288TIP3    H128355   1.227   6.381   2.650 -0.3109 -0.0547 -0.4104
 2288TIP3    H228356   1.285   6.306   2.532  0.0502  0.9989 -0.9207
 2289TIP3   OH228357   2.185   0.172  11.759 -0.2083 -0.3771  0.0685
 2289TIP3    H128358   2.147   0.238  11.816  0.1163 -1.1922  1.2529
 2289TIP3    H228359   2.186   0.213  11.672 -0.4631  0.9729  0.6833
 2290TIP3   OH228360   4.280   0.789  10.785 -0.1639  0.2910  0.3439
 2290TIP3    H128361   4.268   0.697  10.810  0.5724  0.1468  0.1955
 2290TIP3    H228362   4.327   0.827  10.859 -1.2028  0.7678  0.7838
 2291TIP3   OH228363   3.052   5.954  13.046 -0.4419  0.3549 -0.4095
 2291TIP3    H128364   3.143   5.941  13.074 -0.2726 -1.2457 -1.5195
 2291TIP3    H228365   3.012   5.868  13.057 -1.3887  0.6507 -1.3972
 2292TIP3   OH228366   2.419   2.186   0.147 -0.3303 -0.1921 -0.4389
 2292TIP3    H128367   2.414   2.091   0.151  1.8542 -0.5035 -2.5865
 2292TIP3    H228368   2.390   2.209   0.059 -0.4516  1.0999 -0.0884
 2293TIP3   OH228369   1.990   2.579   2.052 -0.0271  0.0114  0.5582
 2293TIP3    H128370   2.058   2.582   2.119 -0.1367  1.9383  0.6584
 2293TIP3    H228371   2.038   2.585   1.969 -0.0085  0.6422  0.6041
 2294TIP3   OH228372   6.523   0.076   3.112 -0.1212 -0.6638  0.2286
 2294TIP3    H128373   6.552   0.098   3.023 -1.3647  3.5880  0.6962
 2294TIP3    H228374   6.600   0.091   3.166  0.3561 -2.3027  0.0567
 2295TIP3   OH228375   1.189   5.145  15.273 -0.0567  0.0378 -0.6268
 2295TIP3    H128376   1.217   5.067  15.226 -1.0653 -0.8623  0.2335
 2295TIP3    H228377   1.156   5.113  15.357  1.2951  1.5624  0.5604
 2296TIP3   OH228378   6.596   2.703   4.103 -0.1057  0.2279  0.0943
 2296TIP3    H128379   6.607   2.677   4.012  0.7045 -1.2741  0.5782
 2296TIP3    H228380   6.641   2.788   4.109  2.6171 -1.0567 -0.2908
 2297TIP3   OH228381   3.541   5.912   0.121 -0.3905  0.3989  0.0518
 2297TIP3    H128382   3.579   5.829   0.152  1.0316  1.7017  2.0307
 2297TIP3    H228383   3.609   5.950   0.065  0.0634  1.4013  1.2552
 2298TIP3   OH228384   1.040   2.270  16.346 -0.4806  0.3692  0.0337
 2298TIP3    H128385   1.114   2.240  16.293 -1.3717 -1.7059 -0.1573
 2298TIP3    H228386   0.967   2.277  16.284 -0.7746  1.0538  0.4455
 2299TIP3   OH228387   3.272   4.858  10.828  0.4954  0.3020 -0.9997
 2299TIP3    H128388   3.281   4.948  10.858 -1.1741 -0.2433  1.4520
 2299TIP3    H228389   3.195   4.858  10.772  0.1717  0.3163 -0.5578
 2300TIP3   OH228390   6.198   1.082  15.194 -0.6603  0.5423  0.4018
 2300TIP3    H128391   6.160   1.093  15.281  2.5231 -0.4460  2.1045
 2300TIP3    H228392   6.267   1.148  15.189 -0.0329 -0.1611 -0.8778
 2301TIP3   OH228393   6.504   6.718  12.790  0.4467 -0.2693  0.0829
 2301TIP3    H128394   6.560   6.760  12.725  0.6415 -0.5587  0.0588
 2301TIP3    H228395   6.461   6.790  12.836 -0.3553 -0.0686 -0.9454
 2302TIP3   OH228396   4.971   0.277  13.015  0.2315  0.4474  0.9303
 2302TIP3    H128397   4.936   0.224  12.943 -1.2019 -0.7875  2.4610
 2302TIP3    H228398   5.014   0.351  12.971 -2.0222  0.6511 -1.1686
 2303TIP3   OH228399   4.089   1.793  11.954 -0.3061  0.1305  0.7964
 2303TIP3    H128400   4.177   1.768  11.928 -0.6753 -0.2050 -0.1770
 2303TIP3    H228401   4.079   1.883  11.920 -0.5936 -0.1063  0.2381
 2304TIP3   OH228402   0.370   3.063  11.220 -0.3061 -0.1100 -0.3055
 2304TIP3    H128403   0.313   3.101  11.153  0.1593 -1.4373 -1.5078
 2304TIP3    H228404   0.440   3.127  11.231 -1.4677  1.0965  0.4937
 2305TIP3   OH228405   3.940   1.611  12.805  0.3281 -0.5654 -0.0992
 2305TIP3    H128406   4.016   1.581  12.854 -0.5633  1.0974  2.5318
 2305TIP3    H228407   3.974   1.676  12.744  1.2506 -1.4452 -0.5507
 2306TIP3   OH228408   5.149   6.709   6.799  0.8199  0.0813 -0.1516
 2306TIP3    H128409   5.126   6.801   6.798  0.8545  0.1588  1.8728
 2306TIP3    H228410   5.241   6.706   6.772  1.4301  0.9044  1.6415
 2307TIP3   OH228411   2.856   3.222  14.559 -0.8578 -0.2902  0.7781
 2307TIP3    H128412   2.919   3.197  14.491  1.0233  1.0733  1.9555
 2307TIP3    H228413   2.789   3.271  14.512 -0.5046 -0.8471 -0.3449
 2308TIP3   OH228414   4.635   0.171  14.387  0.5745  0.1423  0.4495
 2308TIP3    H128415   4.726   0.200  14.381  0.7809 -0.4070  0.9036
 2308TIP3    H228416   4.628   0.099  14.325  0.4361  0.2145  0.3805
 2309TIP3   OH228417   5.001   3.561  10.860  0.3821 -0.4559 -0.0797
 2309TIP3    H128418   5.077   3.603  10.902  0.2632  0.6700 -0.9377
 2309TIP3    H228419   4.928   3.579  10.920  0.8856 -2.2447  1.1667
 2310TIP3   OH228420   4.144   3.395   4.146 -0.1392  0.0001 -0.1660
 2310TIP3    H128421   4.060   3.437   4.164  0.5548  0.9273  1.1213
 2310TIP3    H228422   4.137   3.363   4.056 -2.3882 -1.2627  0.3869
 2311TIP3   OH228423   6.230   0.443   1.015 -0.0189  0.4430 -0.3835
 2311TIP3    H128424   6.324   0.435   1.032 -0.3984 -1.2374  1.3028
 2311TIP3    H228425   6.202   0.354   0.995 -1.5656  0.5672  1.0564
 2312TIP3   OH228426   0.680   0.143   3.838  0.2815 -0.0677  0.3460
 2312TIP3    H128427   0.678   0.209   3.769 -0.2208 -2.2699 -1.8991
 2312TIP3    H228428   0.596   0.152   3.883  0.7937  1.6809  1.0356
 2313TIP3   OH228429   0.561   6.332   3.958 -0.3617 -0.2779  0.1302
 2313TIP3    H128430   0.589   6.264   3.897  2.7502  0.6405  0.3488
 2313TIP3    H228431   0.578   6.296   4.045 -1.2463 -0.2091  0.3392
 2314TIP3   OH228432   3.269   0.576   3.462  0.3496 -1.3786 -0.1333
 2314TIP3    H128433   3.262   0.491   3.505 -2.1577 -0.8412  0.7496
 2314TIP3    H228434   3.192   0.580   3.404  0.2330  0.3573  0.0665
 2315TIP3   OH228435   5.119   5.208  13.846 -0.0117 -0.1926  0.3577
 2315TIP3    H128436   5.153   5.150  13.777 -1.1377 -0.9732  0.4384
 2315TIP3    H228437   5.115   5.153  13.924 -2.6909 -0.5786  0.0543
 2316TIP3   OH228438   0.515   3.464  14.942 -0.0262 -0.3987  0.0557
 2316TIP3    H128439   0.571   3.487  14.868  0.6508 -3.5150 -0.5330
 2316TIP3    H228440   0.528   3.534  15.005  1.0958  1.2117 -1.8442
 2317TIP3   OH228441   6.572   0.298  13.378 -0.5054 -0.0261  0.1364
 2317TIP3    H128442   6.551   0.206  13.364 -0.7307  0.0945 -0.3303
 2317TIP3    H228443   6.631   0.321  13.306 -1.3027  0.4746 -0.3710
 2318TIP3   OH228444   3.342   3.898  13.756 -0.2136 -0.0597  0.4306
 2318TIP3    H128445   3.401   3.836  13.797  1.1562  1.2968  0.6237
 2318TIP3    H228446   3.390   3.981  13.758 -0.1379  0.1950 -3.6434
 2319TIP3   OH228447   5.670   4.812  10.910  0.3721  0.2097 -0.7586
 2319TIP3    H128448   5.686   4.793  11.003  0.8040 -3.3134 -1.4157
 2319TIP3    H228449   5.576   4.802  10.900  0.5073 -0.9512 -0.9582
 2320TIP3   OH228450   4.703   3.015  10.981 -0.0544 -0.1304  0.1580
 2320TIP3    H128451   4.692   3.032  10.888 -0.2483  2.6113  0.6235
 2320TIP3    H228452   4.795   2.988  10.989 -0.1197 -0.7057 -0.8340
 2321TIP3   OH228453   0.577   4.874   3.384  0.2860 -0.0481  0.1657
 2321TIP3    H128454   0.530   4.820   3.447 -0.0729  0.7830  0.6270
 2321TIP3    H228455   0.643   4.816   3.347 -1.0015 -1.1941 -0.3832
 2322TIP3   OH228456   2.965   5.558   6.062 -0.0951  0.3134  0.3222
 2322TIP3    H128457   2.957   5.505   6.141 -1.3258  0.9143  0.6272
 2322TIP3    H228458   3.033   5.622   6.084  0.9167 -0.6901  0.1900
 2323TIP3   OH228459   6.247   5.985  14.731  0.3073  0.3847 -0.1426
 2323TIP3    H128460   6.274   5.894  14.745  0.5392  0.5098  0.2134
 2323TIP3    H228461   6.152   5.983  14.740  0.0063 -0.2805 -2.5597
 2324TIP3   OH228462   6.354   6.285  12.665  0.3420 -0.7238 -0.3207
 2324TIP3    H128463   6.346   6.243  12.750 -2.5858  1.7492  0.7939
 2324TIP3    H228464   6.311   6.226  12.604 -0.7329 -0.8928  0.5838
 2325TIP3   OH228465   3.228   3.658   3.955  0.2589 -0.4495 -0.0143
 2325TIP3    H128466   3.302   3.717   3.937 -0.6315  1.3019  1.6829
 2325TIP3    H228467   3.156   3.696   3.905 -0.8773  1.3190  2.7464
 2326TIP3   OH228468   2.212   0.151   1.593  0.5666 -0.3957  0.4398
 2326TIP3    H128469   2.209   0.204   1.514 -1.7498 -0.8040  0.1703
 2326TIP3    H228470   2.127   0.164   1.634  1.3336 -0.9963  2.3444
 2327TIP3   OH228471   6.757   3.658  16.240  0.2216 -0.0868 -0.4036
 2327TIP3    H128472   6.840   3.622  16.269 -0.0869 -0.8212 -0.4107
 2327TIP3    H228473   6.778   3.747  16.211  0.6879  0.3451  1.2001
 2328TIP3   OH228474   0.822   1.829  16.022 -0.0225 -0.4342  0.0494
 2328TIP3    H128475   0.758   1.764  16.050  0.7630 -2.0853 -1.7687
 2328TIP3    H228476   0.901   1.810  16.072 -0.3042  0.2698  0.7811
 2329TIP3   OH228477   4.151   3.417  15.885 -0.5001 -0.2904  0.6181
 2329TIP3    H128478   4.131   3.511  15.882  0.7065 -0.0043  0.6908
 2329TIP3    H228479   4.115   3.382  15.804 -0.4320  0.3604  0.3016
 2330TIP3   OH228480   6.501   6.219   0.530  0.0394  0.2379  0.1874
 2330TIP3    H128481   6.541   6.296   0.570 -1.1380  1.0773 -0.1734
 2330TIP3    H228482   6.574   6.164   0.504  0.8735  0.3380  2.1620
 2331TIP3   OH228483   5.010   6.580  11.630 -0.4485 -0.2826  0.0476
 2331TIP3    H128484   4.962   6.533  11.698 -2.0438  1.4849  0.2243
 2331TIP3    H228485   5.080   6.625  11.677  0.5425 -1.7195 -0.0018
 2332TIP3   OH228486   4.804   0.912   1.154  0.2978  0.2349  0.7497
 2332TIP3    H128487   4.875   0.860   1.118 -0.1497 -1.4087  2.1173
 2332TIP3    H228488   4.803   0.991   1.100  2.9208  0.1808  0.4902
 2333TIP3   OH228489   3.304   1.363   2.967  0.2253  0.1096  0.0247
 2333TIP3    H128490   3.249   1.435   2.935  0.2570  0.4955  0.8132
 2333TIP3    H228491   3.293   1.294   2.902  1.1309  1.2444 -1.3842
 2334TIP3   OH228492   1.814   0.651   4.362 -0.2552 -0.1990 -0.1715
 2334TIP3    H128493   1.755   0.592   4.409  0.1806 -0.5501 -0.0572
 2334TIP3    H228494   1.859   0.700   4.431  2.1181 -2.3711 -0.0599
 2335TIP3   OH228495   5.849   4.320   0.966  0.3829  0.0913  0.1574
 2335TIP3    H128496   5.831   4.402   0.920  0.6790 -0.4804 -1.0290
 2335TIP3    H228497   5.930   4.288   0.926  0.2058 -0.8367  0.5250
 2336TIP3   OH228498   6.436   6.713  11.718  0.1428 -0.5781  0.2186
 2336TIP3    H128499   6.359   6.663  11.692  0.3606 -1.5783  1.3931
 2336TIP3    H228500   6.464   6.672  11.800 -0.1882  2.0078  1.7255
 2337TIP3   OH228501   3.438   2.081   0.575  0.0345 -0.4683  0.1296
 2337TIP3    H128502   3.503   2.014   0.596 -1.3950 -1.4872  1.5508
 2337TIP3    H228503   3.374   2.037   0.519 -1.8330 -0.8969  2.4440
 2338TIP3   OH228504   2.096   0.723  16.764  0.1199  0.1486 -0.0274
 2338TIP3    H128505   2.164   0.753  16.824  1.2650  0.3341 -1.3585
 2338TIP3    H228506   2.144   0.680  16.692 -1.2974 -2.3497  0.3771
 2339TIP3   OH228507   5.394   1.948  11.939  0.2379  0.1293  0.0139
 2339TIP3    H128508   5.442   1.878  11.982  1.3767  1.1859  0.5438
 2339TIP3    H228509   5.306   1.943  11.975  0.6883 -0.1524  1.1094
 2340TIP3   OH228510   3.822   3.352   0.594 -0.2832  0.3478 -0.1546
 2340TIP3    H128511   3.796   3.336   0.685 -0.3206  0.6661 -0.1103
 2340TIP3    H228512   3.861   3.439   0.595  0.6280 -0.0417 -0.2510
 2341TIP3   OH228513   3.450   3.622   1.517 -0.0357 -0.4992 -0.0817
 2341TIP3    H128514   3.508   3.545   1.521 -0.2133 -0.6212  0.1707
 2341TIP3    H228515   3.508   3.695   1.496  0.2379 -0.5916  0.3428
 2342TIP3   OH228516   4.300   3.764  16.397  0.1784  0.2246  0.1472
 2342TIP3    H128517   4.216   3.748  16.355  0.4049  1.0387 -0.6491
 2342TIP3    H228518   4.282   3.756  16.491 -1.2432  2.2640  0.1146
 2343TIP3   OH228519   6.054   3.598  15.766 -0.1400  0.2611  0.3673
 2343TIP3    H128520   5.959   3.590  15.768 -0.0609 -0.8685  0.0759
 2343TIP3    H228521   6.074   3.621  15.675  0.0180 -2.1417 -0.2755
 2344TIP3   OH228522   5.203   0.755  11.255 -0.0829  0.3933  0.4277
 2344TIP3    H128523   5.138   0.800  11.202 -0.3398  0.9363  1.1918
 2344TIP3    H228524   5.170   0.761  11.345  0.3887 -0.4293  0.6694
 2345TIP3   OH228525   5.910   5.540  16.023  0.6645  0.0487 -0.3693
 2345TIP3    H128526   5.815   5.552  16.033  0.8765  0.4904  1.3834
 2345TIP3    H228527   5.920   5.501  15.936 -1.0719  0.5994 -0.8550
 2346TIP3   OH228528   6.355   2.210   3.402 -0.3678 -0.0137 -0.5476
 2346TIP3    H128529   6.271   2.212   3.357 -0.3846  0.3097 -0.5063
 2346TIP3    H228530   6.348   2.137   3.464 -0.2283 -0.6598 -1.2798
 2347TIP3   OH228531   6.448   0.312   4.238  0.2108 -0.0910 -0.2554
 2347TIP3    H128532   6.490   0.298   4.153 -2.4343  1.3242 -1.9579
 2347TIP3    H228533   6.380   0.378   4.221  0.3294  1.1694  3.2571
 2348TIP3   OH228534   5.930   6.077  12.344  0.4765  0.0276 -0.1372
 2348TIP3    H128535   5.910   6.170  12.338  1.1477  0.2250  0.5394
 2348TIP3    H228536   5.867   6.035  12.285 -0.8355  0.7584  0.6995
 2349TIP3   OH228537   0.466   5.316   4.112 -0.5451 -0.5279  0.2776
 2349TIP3    H128538   0.465   5.396   4.166 -1.0856 -0.4074  0.0921
 2349TIP3    H228539   0.381   5.316   4.069  1.4064  1.8697 -4.2500
 2350TIP3   OH228540   1.608   4.894   4.072 -0.5266 -0.6966 -0.1085
 2350TIP3    H128541   1.631   4.985   4.090 -2.8556 -0.1111  0.2248
 2350TIP3    H228542   1.558   4.866   4.149 -1.3397 -1.6719 -0.9544
 2351TIP3   OH228543   0.585   6.495  15.584 -0.4527 -0.3135 -0.1509
 2351TIP3    H128544   0.586   6.426  15.518 -0.0179 -0.0416 -0.4374
 2351TIP3    H228545   0.675   6.499  15.616 -0.6047 -0.2728  0.2841
 2352TIP3   OH228546   5.942   2.231  15.188  0.7161 -0.7622 -0.3117
 2352TIP3    H128547   5.892   2.150  15.199 -0.5337 -0.0576 -0.6641
 2352TIP3    H228548   5.877   2.301  15.189  1.6017  0.1362 -1.6431
 2353TIP3   OH228549   4.546   3.346   1.690  0.3838  0.4223 -0.2415
 2353TIP3    H128550   4.573   3.432   1.659  1.8261 -0.3201 -1.1516
 2353TIP3    H228551   4.624   3.310   1.733 -1.1915  0.9679  3.5092
 2354TIP3   OH228552   0.586   6.715  17.508 -0.4067 -0.5293 -0.9197
 2354TIP3    H128553   0.533   6.768  17.448  1.5704  1.3296 -1.1468
 2354TIP3    H228554   0.663   6.692  17.457  0.3956 -0.5909  0.2850
 2355TIP3   OH228555   3.000   4.947   3.182 -0.6413  0.7176 -0.1401
 2355TIP3    H128556   3.005   4.857   3.214  1.5451  0.8160 -0.0703
 2355TIP3    H228557   2.972   4.998   3.257  1.4335  0.5174  0.8376
 2356TIP3   OH228558   1.016   4.701  11.431 -0.1206 -0.2815 -1.2796
 2356TIP3    H128559   0.978   4.676  11.515 -1.3569  1.8366 -1.1368
 2356TIP3    H228560   1.073   4.628  11.407  1.7373 -0.1838  2.2483
 2357TIP3   OH228561   6.329   2.280   1.525 -0.2087  0.1062  0.1035
 2357TIP3    H128562   6.288   2.367   1.535 -1.4101 -0.5116  0.7516
 2357TIP3    H228563   6.369   2.263   1.610 -0.8855 -0.4136  0.3276
 2358TIP3   OH228564   2.670   3.045  15.643 -0.2649 -0.3885  0.1394
 2358TIP3    H128565   2.675   3.038  15.547 -1.3555 -0.4144  0.0721
 2358TIP3    H228566   2.589   2.998  15.666  0.8934 -1.9473  1.2475
 2359TIP3   OH228567   4.360   5.548   1.446 -0.4359 -0.8076 -0.2471
 2359TIP3    H128568   4.281   5.537   1.499 -0.6686  0.1851 -0.3680
 2359TIP3    H228569   4.329   5.545   1.356 -0.8249  2.2687 -0.3407
 2360TIP3   OH228570   1.591   6.611  12.314 -0.0414 -0.6231 -0.0831
 2360TIP3    H128571   1.674   6.612  12.266 -0.4131 -0.0376 -0.7221
 2360TIP3    H228572   1.574   6.703  12.335  0.0646 -0.8587  1.0981
 2361TIP3   OH228573   2.672   0.640  14.712  0.0134  0.8124  0.3060
 2361TIP3    H128574   2.706   0.624  14.624  1.2066  0.8193  0.7517
 2361TIP3    H228575   2.675   0.735  14.723  2.2156  0.6821  1.2308
 2362TIP3   OH228576   1.037   1.759  16.666  0.0796  0.6452 -0.0058
 2362TIP3    H128577   1.052   1.812  16.744 -3.2338 -0.4845  1.5473
 2362TIP3    H228578   1.089   1.680  16.679 -0.1890  0.6151  0.8834
 2363TIP3   OH228579   3.235   2.017  13.387  0.5815  0.0455 -0.5923
 2363TIP3    H128580   3.192   2.075  13.450  1.4142  1.2780 -1.1200
 2363TIP3    H228581   3.300   1.969  13.438 -0.1757 -0.5209 -0.1337
 2364TIP3   OH228582   3.813   5.671   1.920  0.1555 -0.2592 -0.0726
 2364TIP3    H128583   3.724   5.689   1.890 -0.0609 -2.6308 -1.0439
 2364TIP3    H228584   3.830   5.739   1.986 -2.0295  0.7579 -0.4587
 2365TIP3   OH228585   5.021   4.674   1.322  0.3097  0.0392  0.3697
 2365TIP3    H128586   5.065   4.740   1.376  0.9383  0.1128 -0.2222
 2365TIP3    H228587   5.092   4.621   1.286 -0.1921 -1.0630  0.9544
 2366TIP3   OH228588   0.117   5.582   3.329  0.1988  0.2079  0.0464
 2366TIP3    H128589   0.181   5.621   3.270 -0.8712  0.3993 -1.0383
 2366TIP3    H228590   0.168   5.553   3.404  1.2205  2.6039  0.3710
 2367TIP3   OH228591   5.045   3.978  11.288  0.0243  0.2582 -0.0627
 2367TIP3    H128592   5.073   3.967  11.378  0.1535 -0.3875 -0.1755
 2367TIP3    H228593   5.108   3.928  11.237 -0.8615 -0.5572 -0.3918
 2368TIP3   OH228594   0.156   3.027  16.354 -0.6530  0.2159 -0.5893
 2368TIP3    H128595   0.184   3.118  16.362 -0.3692  0.0620  0.2791
 2368TIP3    H228596   0.200   2.995  16.275 -0.6404  0.7921 -0.8145
 2369TIP3   OH228597   4.336   3.685   1.127 -0.0916  0.1314 -0.1838
 2369TIP3    H128598   4.375   3.766   1.095  0.8615 -1.2007 -2.6347
 2369TIP3    H228599   4.258   3.673   1.073 -0.0064 -0.7701 -0.1204
 2370TIP3   OH228600   5.394   6.463  16.475 -0.2915 -0.0182  0.0718
 2370TIP3    H128601   5.382   6.512  16.394 -1.0107 -0.2402  0.0307
 2370TIP3    H228602   5.326   6.396  16.472  0.5072 -0.8489  0.2578
 2371TIP3   OH228603   1.240   2.203   4.258  0.0531 -0.0262 -0.7000
 2371TIP3    H128604   1.293   2.269   4.301  0.7416 -0.3380 -1.0425
 2371TIP3    H228605   1.175   2.252   4.207 -3.1451  0.4100  3.2975
 2372TIP3   OH228606   3.615   0.779   5.234 -0.4485 -0.4250  0.3331
 2372TIP3    H128607   3.689   0.725   5.262 -0.6142 -0.4331  0.7683
 2372TIP3    H228608   3.543   0.717   5.225 -0.0226 -0.6897 -1.6960
 2373TIP3   OH228609   1.028   0.194  15.425 -0.1680 -0.4383 -0.3228
 2373TIP3    H128610   1.030   0.287  15.447  1.0470 -1.0262  2.3805
 2373TIP3    H228611   0.934   0.172  15.422 -0.5329  1.1242 -2.5622
 2374TIP3   OH228612   5.933   5.946  13.758 -0.3692  0.0194  0.7211
 2374TIP3    H128613   5.955   6.039  13.752  0.6808 -0.2809 -0.8462
 2374TIP3    H228614   5.837   5.943  13.749 -0.1762  0.7882 -3.1984
 2375TIP3   OH228615   2.632   3.917   5.593 -0.2766  0.4867  0.4439
 2375TIP3    H128616   2.637   3.841   5.651 -0.9252  1.0044  1.2046
 2375TIP3    H228617   2.541   3.945   5.599 -0.2885  0.7154 -0.6324
 2376TIP3   OH228618   2.607   6.709  11.899  0.2856 -0.2258 -0.1492
 2376TIP3    H128619   2.555   6.789  11.896  0.7260  0.1089  0.9751
 2376TIP3    H228620   2.554   6.647  11.949  0.0616 -0.5693 -0.7931
 2377TIP3   OH228621   1.376   3.602   2.594 -0.1368  0.8243 -0.4911
 2377TIP3    H128622   1.311   3.537   2.568 -0.1007  0.1666  0.9630
 2377TIP3    H228623   1.358   3.618   2.687  2.8529 -0.7251  0.4890
 2378TIP3   OH228624   6.527   0.639   3.508 -0.2418  0.0449  0.0828
 2378TIP3    H128625   6.514   0.639   3.413  0.4235 -2.7026 -0.0847
 2378TIP3    H228626   6.579   0.717   3.525 -0.5727  0.7147 -1.7763
 2379TIP3   OH228627   6.101   4.262   0.728  0.0496  0.4333 -0.3388
 2379TIP3    H128628   6.094   4.355   0.745 -1.2987  0.4680 -0.9660
 2379TIP3    H228629   6.183   4.253   0.679  0.6475  1.1493  0.5050
 2380TIP3   OH228630   0.466   5.593   1.697  0.2730  0.2190 -0.3744
 2380TIP3    H128631   0.548   5.637   1.674 -0.1514  1.2423  0.0164
 2380TIP3    H228632   0.432   5.560   1.613  1.6549 -1.2694 -0.3897
 2381TIP3   OH228633   1.672   1.845  13.876 -0.5364  0.1764 -0.6618
 2381TIP3    H128634   1.613   1.908  13.917 -0.5320  0.1636 -0.6353
 2381TIP3    H228635   1.614   1.784  13.831 -0.5939 -0.4908  0.3016
 2382TIP3   OH228636   6.766   4.064  15.518  0.2723 -0.3941  0.2200
 2382TIP3    H128637   6.811   4.066  15.602  0.8439  0.0470 -0.0896
 2382TIP3    H228638   6.820   4.118  15.460 -0.8547  0.4729 -0.0546
 2383TIP3   OH228639   2.531   0.451  10.678  0.0817  0.1654 -0.7619
 2383TIP3    H128640   2.575   0.435  10.761 -1.2992  0.3205  0.0311
 2383TIP3    H228641   2.451   0.397  10.683 -0.7469  1.3041 -1.3549
 2384TIP3   OH228642   5.331   2.778  13.762  0.0308 -0.2070  0.3670
 2384TIP3    H128643   5.323   2.870  13.787 -0.4909 -0.1889  0.1498
 2384TIP3    H228644   5.390   2.778  13.687 -1.0072  0.1013 -0.4674
 2385TIP3   OH228645   0.308   0.895   0.517  0.3304 -0.5447  0.4247
 2385TIP3    H128646   0.310   0.966   0.452 -0.5312 -0.7790  0.1154
 2385TIP3    H228647   0.318   0.938   0.601  0.3008 -0.1049  0.2049
 2386TIP3   OH228648   2.307   1.630  15.141  0.2624  0.1585  0.2337
 2386TIP3    H128649   2.258   1.567  15.089 -0.5023  0.1560  0.9415
 2386TIP3    H228650   2.399   1.608  15.125  0.0595  0.2900 -1.2616
 2387TIP3   OH228651   6.045   6.363  16.682 -0.0840 -0.2120  0.2605
 2387TIP3    H128652   5.985   6.394  16.751 -0.3832  0.2106 -0.1875
 2387TIP3    H228653   6.086   6.442  16.648  1.1633 -0.5388  0.9374
 2388TIP3   OH228654   3.948   1.863   3.889  0.0746  0.2720  0.5220
 2388TIP3    H128655   3.868   1.896   3.849 -0.2931  0.2779  1.2343
 2388TIP3    H228656   3.941   1.889   3.981  1.3351  1.0678  0.4084
 2389TIP3   OH228657   2.994   5.478  13.907 -0.0051  0.2158  0.6438
 2389TIP3    H128658   2.915   5.517  13.868  1.7674  2.4671 -0.9794
 2389TIP3    H228659   2.978   5.481  14.001 -1.4113  1.7753  0.4106
 2390TIP3   OH228660   4.355   6.446   4.204 -0.0173 -0.7537  0.1902
 2390TIP3    H128661   4.424   6.380   4.201  2.5566  1.7220  0.8188
 2390TIP3    H228662   4.302   6.423   4.280  2.4418 -0.6721  2.0342
 2391TIP3   OH228663   6.699   0.861   3.519  0.6033 -0.4219 -0.3560
 2391TIP3    H128664   6.656   0.944   3.543 -1.0024 -1.2665 -0.1926
 2391TIP3    H228665   6.749   0.882   3.440  0.0364  0.6578 -0.4492
 2392TIP3   OH228666   5.724   3.461   1.160 -0.3688  0.0157  0.5586
 2392TIP3    H128667   5.664   3.492   1.227 -0.2407  0.1097  0.6313
 2392TIP3    H228668   5.684   3.486   1.077  0.0803  1.0308  0.6288
 2393TIP3   OH228669   2.390   2.893   0.845  0.1809  0.2439 -0.1047
 2393TIP3    H128670   2.376   2.979   0.886  0.4405  0.0344  0.4286
 2393TIP3    H228671   2.426   2.838   0.915  1.8438  0.2216 -0.9291
 2394TIP3   OH228672   1.019   2.469  16.563 -0.3203  0.5747 -0.1048
 2394TIP3    H128673   1.027   2.408  16.490  1.6865 -0.2007  0.6970
 2394TIP3    H228674   1.013   2.555  16.522  1.6088  0.2241 -1.2180
 2395TIP3   OH228675   6.102   2.192  14.279 -0.8511  0.6251 -0.3012
 2395TIP3    H128676   6.155   2.272  14.275 -2.0427  1.4256 -0.5724
 2395TIP3    H228677   6.024   2.212  14.228 -2.3792  0.2019  1.7233
 2396TIP3   OH228678   3.334   4.112  12.785 -0.0493 -0.1305  1.1592
 2396TIP3    H128679   3.420   4.089  12.751 -0.6436 -0.1311 -0.4067
 2396TIP3    H228680   3.325   4.061  12.865  0.3714 -2.1094 -0.0039
 2397TIP3   OH228681   1.243   5.834  16.188 -0.3654  0.4714  0.1450
 2397TIP3    H128682   1.302   5.853  16.115 -0.3342 -0.7442 -0.1743
 2397TIP3    H228683   1.279   5.754  16.227 -2.6105 -1.2128 -0.9877
 2398TIP3   OH228684   1.533   3.672   6.519 -0.0089  0.4551  0.3420
 2398TIP3    H128685   1.442   3.658   6.494  0.1030 -1.0786  0.6754
 2398TIP3    H228686   1.528   3.722   6.601 -0.5683 -0.0139  0.6011
 2399TIP3   OH228687   5.988   5.922  16.336 -0.0187 -0.3129  0.3714
 2399TIP3    H128688   6.010   6.015  16.333  0.7331 -0.4347  1.4334
 2399TIP3    H228689   6.040   5.883  16.265 -1.7391  0.2938 -1.3262
 2400TIP3   OH228690   4.090   1.492   2.277  0.1356  0.3334  0.1048
 2400TIP3    H128691   4.015   1.518   2.330 -0.2017  1.5205 -0.9025
 2400TIP3    H228692   4.054   1.435   2.210  0.2198  0.4340 -0.0272
 2401TIP3   OH228693   3.500   4.982  12.849 -0.1831 -0.0048  0.2117
 2401TIP3    H128694   3.530   4.939  12.768 -2.5904  0.3571 -0.9686
 2401TIP3    H228695   3.575   4.978  12.908  0.9223 -2.3188 -1.2339
 2402TIP3   OH228696   0.505   3.404   1.315  0.2849 -0.4527  0.5617
 2402TIP3    H128697   0.442   3.334   1.334  2.5697 -2.6975  0.3353
 2402TIP3    H228698   0.584   3.359   1.286  0.9855  2.3369 -2.4846
 2403TIP3   OH228699   4.704   2.610  14.059  0.6923  0.0278  0.1009
 2403TIP3    H128700   4.690   2.533  14.113  0.6125 -0.0248  0.0045
 2403TIP3    H228701   4.797   2.630  14.069  0.5849  0.2947  0.6330
 2404TIP3   OH228702   1.964   1.209  16.999  0.0155  0.3249  0.3071
 2404TIP3    H128703   2.016   1.227  16.920 -0.6332 -1.8240 -0.6884
 2404TIP3    H228704   2.014   1.249  17.070  1.5475  0.7893 -0.9659
 2405TIP3   OH228705   0.832   3.358  15.447 -0.5014 -0.1329  0.5839
 2405TIP3    H128706   0.837   3.448  15.480 -0.3595 -0.9753  3.0563
 2405TIP3    H228707   0.916   3.319  15.473 -0.3521 -0.8530 -0.9233
 2406TIP3   OH228708   6.043   6.505  15.135  0.5286 -0.4274  0.9306
 2406TIP3    H128709   6.057   6.566  15.062  0.0433 -0.1429  1.0723
 2406TIP3    H228710   5.980   6.549  15.192 -0.0289 -1.1705  0.9079
 2407TIP3   OH228711   3.919   6.159   3.730 -0.1951  0.5041  0.2801
 2407TIP3    H128712   3.920   6.083   3.787  0.6300 -0.3674 -0.8578
 2407TIP3    H228713   3.838   6.206   3.754 -1.6391 -1.6240 -0.1804
 2408TIP3   OH228714   5.954   3.521   5.275 -0.0428 -0.0423 -0.1550
 2408TIP3    H128715   5.940   3.614   5.257 -1.5738  0.0792  1.3599
 2408TIP3    H228716   5.890   3.476   5.219 -1.8626  0.0887  1.7065
 2409TIP3   OH228717   5.276   2.385   5.721 -0.0293 -0.1418  0.6693
 2409TIP3    H128718   5.345   2.359   5.783  0.7003  1.4446  0.5698
 2409TIP3    H228719   5.196   2.350   5.759  0.7921 -2.0438  0.7964
 2410TIP3   OH228720   4.004   6.385   1.206 -0.1545 -0.0658  0.5303
 2410TIP3    H128721   3.934   6.400   1.271 -0.2982 -0.0286  0.3686
 2410TIP3    H228722   4.085   6.389   1.257 -0.2405  0.3847  0.6417
 2411TIP3   OH228723   0.116   1.028  15.372  0.3027 -0.0505 -0.9348
 2411TIP3    H128724   0.199   1.075  15.371  0.4601 -0.1701  1.1515
 2411TIP3    H228725   0.049   1.097  15.375  0.4851  0.1005  0.7081
 2412TIP3   OH228726   3.871   2.613  13.085 -0.3107 -0.3442  0.0881
 2412TIP3    H128727   3.927   2.691  13.090  1.2277 -1.3242 -0.8012
 2412TIP3    H228728   3.785   2.647  13.061  0.3508  1.0758 -0.4357
 2413TIP3   OH228729   4.539   4.936  14.041  0.4539  0.3695 -0.0387
 2413TIP3    H128730   4.534   4.988  13.961 -0.2339 -1.3111 -1.1567
 2413TIP3    H228731   4.451   4.939  14.078  0.0533 -0.9534 -0.8002
 2414TIP3   OH228732   6.266   2.816   1.292 -0.3603 -0.1768 -0.1992
 2414TIP3    H128733   6.258   2.830   1.197 -1.2395 -1.6517 -0.3803
 2414TIP3    H228734   6.252   2.902   1.330 -0.7657  0.3090 -1.3890
 2415TIP3   OH228735   3.131   4.885  16.521 -0.0106 -0.3863  0.5784
 2415TIP3    H128736   3.215   4.858  16.558  1.6952  3.2416 -0.2450
 2415TIP3    H228737   3.115   4.972  16.558 -2.7501 -0.3991 -0.3701
 2416TIP3   OH228738   3.381   4.328   0.671  0.1892 -0.1193  0.8448
 2416TIP3    H128739   3.456   4.349   0.615 -1.1896 -0.9257 -1.4537
 2416TIP3    H228740   3.306   4.368   0.626 -1.2716 -2.5201  1.0057
 2417TIP3   OH228741   0.722   6.003  11.146 -0.5194  0.6305 -0.4094
 2417TIP3    H128742   0.685   5.975  11.063  0.4984 -2.8426  0.1524
 2417TIP3    H228743   0.816   6.005  11.132 -0.4134  1.5376  0.2883
 2418TIP3   OH228744   0.167   4.808  17.494 -0.1931  0.1225 -0.0739
 2418TIP3    H128745   0.074   4.797  17.516 -0.6113 -0.7845 -1.9874
 2418TIP3    H228746   0.212   4.738  17.541 -0.5709  0.2268  0.4416
 2419TIP3   OH228747   0.082   5.371   1.723 -0.4940 -0.6172  0.2161
 2419TIP3    H128748   0.083   5.323   1.805  1.1612 -1.9500 -0.5196
 2419TIP3    H228749   0.005   5.339   1.676 -0.9630 -0.4751  0.8833
 2420TIP3   OH228750   0.688   1.136  11.806 -0.2771 -0.3631  0.5657
 2420TIP3    H128751   0.679   1.209  11.868  0.7149  0.1676  0.1007
 2420TIP3    H228752   0.681   1.058  11.860  1.0414  0.0898  1.4421
 2421TIP3   OH228753   0.717   1.486   3.173  0.0058 -0.2027 -0.1769
 2421TIP3    H128754   0.699   1.432   3.096 -0.3399 -1.1060  0.5232
 2421TIP3    H228755   0.699   1.429   3.247 -0.1949  0.8278  0.5873
 2422TIP3   OH228756   0.176   5.311   1.212 -0.3480 -0.2433  0.4991
 2422TIP3    H128757   0.080   5.309   1.209 -0.3170 -1.9092 -0.1843
 2422TIP3    H228758   0.199   5.260   1.289  0.0060 -1.4785 -0.3965
 2423TIP3   OH228759   2.277   2.382   3.301 -0.4596  0.1655 -0.4413
 2423TIP3    H128760   2.226   2.336   3.368  1.3570 -2.1549 -0.4969
 2423TIP3    H228761   2.354   2.414   3.348 -1.3815  2.7737 -0.5429
 2424TIP3   OH228762   0.196   0.876   1.876 -0.0218 -0.1471 -0.3599
 2424TIP3    H128763   0.120   0.906   1.827 -1.4293 -1.4813  0.8990
 2424TIP3    H228764   0.176   0.898   1.967  0.7542 -1.1539  0.0756
 2425TIP3   OH228765   5.078   4.686  15.057 -0.2072  0.4188  0.0947
 2425TIP3    H128766   5.135   4.762  15.072  1.7415 -0.6963 -1.1239
 2425TIP3    H228767   5.106   4.653  14.971 -0.9689 -1.6923  0.6060
 2426TIP3   OH228768   4.501   0.012  15.605  0.0740  0.2032  0.2819
 2426TIP3    H128769   4.519   0.007  15.511  1.7915  1.2183  0.5056
 2426TIP3    H228770   4.506  -0.078  15.635  4.1284  0.1505  0.0858
 2427TIP3   OH228771   6.480   6.217   3.520 -0.0341  0.1674 -0.2395
 2427TIP3    H128772   6.406   6.244   3.466 -0.4056 -1.4179 -0.5482
 2427TIP3    H228773   6.441   6.197   3.605  0.1319 -0.0925 -0.2248
 2428TIP3   OH228774   4.279   2.912   1.729 -0.5521 -0.2333 -0.1071
 2428TIP3    H128775   4.342   2.965   1.778  2.1233 -2.2383 -1.1381
 2428TIP3    H228776   4.242   2.853   1.795  0.4709 -0.6309  0.1398
 2429TIP3   OH228777   5.855   2.279   5.842 -0.1656 -0.1942 -0.0025
 2429TIP3    H128778   5.790   2.292   5.773  0.3054 -2.8424 -1.0724
 2429TIP3    H228779   5.905   2.360   5.844 -1.8732  0.9595 -0.8920
 2430TIP3   OH228780   6.105   0.465  16.895 -0.6562 -0.2101  0.7416
 2430TIP3    H128781   6.130   0.435  16.808  1.3302 -1.2272  1.6036
 2430TIP3    H228782   6.168   0.424  16.954 -2.7941 -0.7109  2.8473
 2431TIP3   OH228783   3.617   3.203  16.917 -0.1108 -0.3648 -0.1342
 2431TIP3    H128784   3.539   3.172  16.963 -0.1985 -1.1903 -0.8063
 2431TIP3    H228785   3.586   3.269  16.856 -0.2767 -0.6595 -0.3676
 2432TIP3   OH228786   1.268   4.880   3.659 -0.0159 -0.0965 -0.4473
 2432TIP3    H128787   1.199   4.896   3.723  0.0156  0.1781 -0.4803
 2432TIP3    H228788   1.348   4.878   3.711 -0.2275 -2.4623 -0.1149
 2433TIP3   OH228789   3.441   1.234  11.727  0.2357 -0.5030  0.2481
 2433TIP3    H128790   3.422   1.193  11.811 -1.7546 -2.0161 -0.8364
 2433TIP3    H228791   3.535   1.250  11.728  0.1963 -0.0349  2.9113
 2434TIP3   OH228792   2.133   0.524  13.154  0.1399  0.7627 -0.4124
 2434TIP3    H128793   2.144   0.588  13.225  0.0005 -0.6919  0.9609
 2434TIP3    H228794   2.077   0.570  13.090 -0.1050  1.9597  0.6055
 2435TIP3   OH228795   3.792   0.005   2.473  0.0224 -0.5587 -0.2047
 2435TIP3    H128796   3.797   0.014   2.568 -0.1577  1.7126 -0.3512
 2435TIP3    H228797   3.878  -0.030   2.448  0.3935 -0.3343  0.7032
 2436TIP3   OH228798   0.722   1.565  15.651  0.7452 -0.3227  0.2778
 2436TIP3    H128799   0.733   1.540  15.559  2.3462  0.4217  0.2355
 2436TIP3    H228800   0.723   1.661  15.650  0.8738 -0.3067  1.0820
 2437TIP3   OH228801   2.483   1.410  13.961  0.0300  0.2715 -0.3637
 2437TIP3    H128802   2.559   1.397  14.017 -0.5139  0.6381  0.4768
 2437TIP3    H228803   2.409   1.384  14.015 -0.4156 -0.5271 -1.3382
 2438TIP3   OH228804   0.674   5.662  15.625  0.2085  0.4872  0.3501
 2438TIP3    H128805   0.708   5.741  15.667 -0.0517 -0.5698  2.7261
 2438TIP3    H228806   0.632   5.613  15.696 -0.2699 -1.4647 -1.1744
 2439TIP3   OH228807   4.128   0.419  14.917 -0.1213  0.1145  0.2362
 2439TIP3    H128808   4.098   0.335  14.952  0.3522 -0.2830 -0.2962
 2439TIP3    H228809   4.061   0.444  14.854  1.1244 -1.3047 -1.7603
 2440TIP3   OH228810   5.441   2.930  17.020  0.3243 -0.3760  0.0513
 2440TIP3    H128811   5.477   2.892  17.101  1.7388 -1.3023 -0.9664
 2440TIP3    H228812   5.475   3.020  17.019  1.0571 -0.6482  0.0461
 2441TIP3   OH228813   2.386   2.201  14.311  0.3038  0.0809  0.1684
 2441TIP3    H128814   2.354   2.112  14.296 -1.8442  0.8735 -0.4349
 2441TIP3    H228815   2.307   2.252  14.330  0.9718  2.4808 -2.7014
 2442TIP3   OH228816   3.164   3.304   1.475 -0.2533 -0.0776  0.5650
 2442TIP3    H128817   3.079   3.262   1.483  0.1914 -0.9087  1.1573
 2442TIP3    H228818   3.145   3.397   1.464 -1.2878 -0.4401 -1.1254
 2443TIP3   OH228819   3.158   5.963   2.495 -0.1629 -0.0973 -0.4348
 2443TIP3    H128820   3.220   5.976   2.566 -0.7643  0.6143 -0.0251
 2443TIP3    H228821   3.114   6.048   2.485 -2.3146 -1.0238  0.4693
 2444TIP3   OH228822   2.347   6.414   6.676  0.4845  0.3231 -0.1550
 2444TIP3    H128823   2.282   6.457   6.620 -0.2074 -0.1070  0.3038
 2444TIP3    H228824   2.411   6.379   6.615 -1.3491 -2.0159 -0.9129
 2445TIP3   OH228825   1.850   1.938  11.412 -0.1411 -0.2373  0.3664
 2445TIP3    H128826   1.894   2.007  11.462 -0.6058 -0.3633  0.9453
 2445TIP3    H228827   1.910   1.920  11.339 -0.2143  1.0899 -0.0417
 2446TIP3   OH228828   2.572   5.691  14.391 -0.0117  0.0782 -1.1316
 2446TIP3    H128829   2.643   5.628  14.403  0.1134  0.0102 -2.1585
 2446TIP3    H228830   2.563   5.733  14.477  0.6089 -0.5917 -0.7228
 2447TIP3   OH228831   4.700   5.474  15.275  0.8713 -0.8297  0.2472
 2447TIP3    H128832   4.709   5.436  15.187  0.9890  2.2322 -1.1750
 2447TIP3    H228833   4.607   5.493  15.284  1.1112  0.5527 -0.0181
 2448TIP3   OH228834   5.909   5.241  15.241 -0.2555 -0.2948 -0.1026
 2448TIP3    H128835   5.881   5.285  15.160  3.9537  0.8296 -1.2276
 2448TIP3    H228836   5.882   5.301  15.311 -2.3013 -0.3466 -0.7887
 2449TIP3   OH228837   5.772   4.591   3.612 -0.0412 -0.3387  0.4047
 2449TIP3    H128838   5.843   4.571   3.673  0.8308  1.2711 -0.0244
 2449TIP3    H228839   5.815   4.604   3.528 -0.2718  3.8846  0.7205
 2450TIP3   OH228840   0.872   0.376  10.731  0.8241 -0.5095  0.0825
 2450TIP3    H128841   0.844   0.437  10.663  1.1679 -1.7922 -1.2616
 2450TIP3    H228842   0.964   0.398  10.747  1.6163 -2.0292 -2.0053
 2451TIP3   OH228843   4.698   5.023   2.350  0.2803  0.3605  0.0963
 2451TIP3    H128844   4.735   5.103   2.312  1.9798 -0.4155  0.0390
 2451TIP3    H228845   4.603   5.035   2.343  0.5102  1.9645 -0.7413
 2452TIP3   OH228846   5.638   1.974  16.263  0.4516 -0.0387 -0.2057
 2452TIP3    H128847   5.648   2.058  16.218 -1.0643 -0.2550 -0.9952
 2452TIP3    H228848   5.686   1.911  16.209  0.4978  0.0891 -0.3131
 2453TIP3   OH228849   5.172   5.877  13.830  0.6253  0.0637 -0.2107
 2453TIP3    H128850   5.264   5.897  13.813  1.0256 -0.3948  1.2530
 2453TIP3    H228851   5.172   5.783  13.851 -0.4212 -0.3145 -1.7061
 2454TIP3   OH228852   1.683   5.197   6.382  0.1303 -0.0179 -0.6994
 2454TIP3    H128853   1.683   5.293   6.377 -0.3669 -0.0480 -1.4419
 2454TIP3    H228854   1.647   5.177   6.469  2.9263  0.4808  0.7040
 2455TIP3   OH228855   3.380   3.105  11.614  0.3845  0.1724  0.1380
 2455TIP3    H128856   3.446   3.041  11.590  0.5384  1.0565 -1.9780
 2455TIP3    H228857   3.324   3.059  11.677  0.7502 -1.8788 -0.9494
 2456TIP3   OH228858   4.262   2.261  15.509 -0.5139 -0.3211  0.2336
 2456TIP3    H128859   4.220   2.344  15.532 -0.5168 -0.4556  0.7450
 2456TIP3    H228860   4.192   2.209  15.469 -0.3412  0.1684 -0.7135
 2457TIP3   OH228861   4.160   1.984   2.350  0.5617  0.2257  0.1103
 2457TIP3    H128862   4.103   1.991   2.274  3.5693 -0.0486 -2.3163
 2457TIP3    H228863   4.157   1.891   2.373  0.2710  0.1635 -0.1720
 2458TIP3   OH228864   5.616   5.706  11.538 -0.1566  0.1592  0.3621
 2458TIP3    H128865   5.605   5.797  11.567  3.7308  0.6325  0.9345
 2458TIP3    H228866   5.554   5.696  11.466 -0.1192  3.6085 -0.3251
 2459TIP3   OH228867   3.274   5.843   0.036 -0.1732  0.0325 -0.8465
 2459TIP3    H128868   3.278   5.879  -0.052  0.1461 -1.0061 -1.2723
 2459TIP3    H228869   3.364   5.848   0.068 -0.2811  0.3724 -0.5960
 2460TIP3   OH228870   0.841   1.538  15.084  0.1318 -0.4702  0.0126
 2460TIP3    H128871   0.864   1.631  15.086  0.3094 -0.5171  2.1767
 2460TIP3    H228872   0.746   1.537  15.073 -0.0990  0.0416  1.7964
 2461TIP3   OH228873   1.608   2.131   3.298  0.1233  0.1029 -0.4302
 2461TIP3    H128874   1.612   2.074   3.221  2.2471 -0.4923  0.0489
 2461TIP3    H228875   1.524   2.111   3.339 -0.1758 -0.9972 -1.5227
 2462TIP3   OH228876   0.045   5.509   3.015  0.1180 -0.0023 -0.3540
 2462TIP3    H128877   0.100   5.576   3.057  0.0718 -1.2366  1.8488
 2462TIP3    H228878  -0.042   5.549   3.011  0.3035  0.4506 -0.0211
 2463TIP3   OH228879   0.396   6.725  11.806  0.1091  0.2740 -0.6394
 2463TIP3    H128880   0.322   6.787  11.804  1.2496  1.8003  0.9680
 2463TIP3    H228881   0.396   6.692  11.896  1.2296  0.1289 -0.6854
 2464TIP3   OH228882   3.174   3.647   6.477  0.3655  0.2252  0.8210
 2464TIP3    H128883   3.105   3.685   6.424 -0.1881 -0.8699  0.7344
 2464TIP3    H228884   3.135   3.569   6.517  1.2314  0.1652  1.6037
 2465TIP3   OH228885   2.594   0.248   1.290 -0.2677 -0.5380 -0.1710
 2465TIP3    H128886   2.576   0.178   1.228 -0.4028  0.8346 -1.7387
 2465TIP3    H228887   2.560   0.327   1.248  1.9580  0.8432  0.4954
 2466TIP3   OH228888   3.735   2.415  11.823  0.0195  0.3666 -0.3098
 2466TIP3    H128889   3.697   2.473  11.757  0.2962 -1.5264 -2.2439
 2466TIP3    H228890   3.662   2.361  11.853  0.2541 -0.0336 -0.4514
 2467TIP3   OH228891   6.569   5.426   4.794  0.3936  0.2647 -0.4564
 2467TIP3    H128892   6.576   5.374   4.714  1.4198  0.0415 -0.2354
 2467TIP3    H228893   6.510   5.375   4.850 -0.9641  0.8130 -1.3514
 2468TIP3   OH228894   6.037   5.682  16.871  0.3825  0.3567  0.1116
 2468TIP3    H128895   6.051   5.757  16.929  1.7448 -0.8019  1.3668
 2468TIP3    H228896   6.033   5.720  16.784  0.6654  1.9361  0.7451
 2469TIP3   OH228897   3.010   0.953  14.300 -0.1524  0.2600 -0.1282
 2469TIP3    H128898   3.091   1.001  14.317 -0.4017  0.7074 -0.1900
 2469TIP3    H228899   2.940   1.017  14.316 -0.4419  0.3806 -1.7419
 2470TIP3   OH228900   5.915   4.645   5.820 -0.0488  0.2602  0.0310
 2470TIP3    H128901   5.954   4.723   5.858  1.2548 -1.1587  1.7813
 2470TIP3    H228902   5.928   4.577   5.886 -2.2218 -1.1773 -0.9073
 2471TIP3   OH228903   1.588   2.682  16.083  0.3749 -0.2081 -0.0920
 2471TIP3    H128904   1.592   2.656  16.175  0.7762 -0.5395 -0.1993
 2471TIP3    H228905   1.501   2.721  16.073  0.6269  0.5649  0.6181
 2472TIP3   OH228906   1.249   2.299  16.665  0.9270  0.9775  0.7183
 2472TIP3    H128907   1.180   2.236  16.644  0.5229  0.4769  3.2288
 2472TIP3    H228908   1.205   2.384  16.667  0.9320  1.0085 -0.1021
 2473TIP3   OH228909   5.879   1.567  12.402 -0.3540  0.1376 -0.1701
 2473TIP3    H128910   5.809   1.535  12.459  0.9721 -0.8181  1.0151
 2473TIP3    H228911   5.887   1.660  12.424  0.7296 -0.3877  1.9773
 2474TIP3   OH228912   2.397   3.701  16.848  0.4618  0.0076 -0.3081
 2474TIP3    H128913   2.349   3.623  16.820 -0.1615 -0.3405  1.6092
 2474TIP3    H228914   2.489   3.673  16.848  0.2009 -0.9411  0.9264
 2475TIP3   OH228915   3.971   0.299  11.415 -0.4424 -0.1653  0.4870
 2475TIP3    H128916   3.966   0.225  11.355  3.6245  0.5576 -1.0706
 2475TIP3    H228917   3.951   0.376  11.361  1.7723  0.3526  0.2978
 2476TIP3   OH228918   0.293   5.551   1.203 -0.0818 -0.4193 -0.1311
 2476TIP3    H128919   0.372   5.545   1.257 -0.7156  0.1510  0.9128
 2476TIP3    H228920   0.257   5.463   1.203  1.5597 -1.1643 -2.2684
 2477TIP3   OH228921   0.985   6.372   0.705 -0.4141  0.5497 -0.0885
 2477TIP3    H128922   0.981   6.339   0.615 -2.4938 -0.2296  0.2305
 2477TIP3    H228923   0.927   6.448   0.705  0.1451  0.9846  0.4371
 2478TIP3   OH228924   4.154   4.833  12.233 -0.1737 -0.2947 -0.4981
 2478TIP3    H128925   4.085   4.775  12.266 -0.9054 -0.0184 -1.5209
 2478TIP3    H228926   4.141   4.914  12.282  1.1812 -1.0996  1.3265
 2479TIP3   OH228927   1.362   6.442  12.990 -0.6537  0.3199  0.4710
 2479TIP3    H128928   1.399   6.453  12.902 -0.7794 -1.9087  0.0896
 2479TIP3    H228929   1.289   6.382  12.978  0.0163 -0.9216  2.2517
 2480TIP3   OH228930   3.641   6.087  14.640 -0.3232 -0.4528  0.2530
 2480TIP3    H128931   3.570   6.147  14.618 -1.3363 -1.6959 -0.0136
 2480TIP3    H228932   3.598   6.001  14.645  1.1672 -1.2309  0.0838
 2481TIP3   OH228933   3.138   4.947   1.981  0.0358 -0.5202 -0.1700
 2481TIP3    H128934   3.075   4.880   2.007  0.3205 -0.8273 -0.2596
 2481TIP3    H228935   3.174   4.914   1.898  0.3032 -0.3443 -0.1248
 2482TIP3   OH228936   6.639   5.934   2.190 -0.1592 -0.3225  0.1111
 2482TIP3    H128937   6.728   5.920   2.157  0.4692 -0.1914  1.6594
 2482TIP3    H228938   6.647   6.010   2.248 -1.3623 -0.1023  0.0229
 2483TIP3   OH228939   6.390   2.017  17.198 -0.2144 -0.7867  0.2645
 2483TIP3    H128940   6.391   2.056  17.286  1.1832 -1.2724  0.4819
 2483TIP3    H228941   6.312   2.055  17.156 -0.9291 -0.5808  1.7186
 2484TIP3   OH228942   5.080   1.287  15.521  0.1107 -0.0863 -0.3982
 2484TIP3    H128943   5.117   1.203  15.545 -0.5944 -0.2064  0.3167
 2484TIP3    H228944   4.988   1.268  15.501 -0.0304  0.4865 -0.3277
 2485TIP3   OH228945   1.863   6.366   5.421  0.0148 -0.5090 -0.2951
 2485TIP3    H128946   1.818   6.392   5.340  0.0599 -1.5151 -0.6620
 2485TIP3    H228947   1.949   6.408   5.415 -0.0958 -0.3265 -0.6345
 2486TIP3   OH228948   5.633   4.123   3.576  0.1559 -0.5449 -0.6384
 2486TIP3    H128949   5.681   4.206   3.572 -0.6744  0.0052  0.1107
 2486TIP3    H228950   5.604   4.107   3.487 -1.4964  1.1279 -0.4728
 2487TIP3   OH228951   6.441   2.418   5.673 -0.5181  0.9036  0.1741
 2487TIP3    H128952   6.460   2.367   5.595  0.1932 -0.6031  1.2868
 2487TIP3    H228953   6.359   2.381   5.707 -0.1262  0.6311  0.8529
 2488TIP3   OH228954   0.956   0.494  16.736  0.3577 -0.2350 -0.2018
 2488TIP3    H128955   1.026   0.431  16.755  1.5147  1.1911  0.4913
 2488TIP3    H228956   0.994   0.552  16.669 -0.0668  0.6891  0.3401
 2489TIP3   OH228957   5.755   5.924  12.197  1.0478 -0.6030  0.0037
 2489TIP3    H128958   5.660   5.922  12.195  1.0190 -0.3797  0.7119
 2489TIP3    H228959   5.781   5.933  12.105  0.4131 -1.3300 -0.2595
 2490TIP3   OH228960   0.988   5.793  15.146  0.1043  0.8735  0.2845
 2490TIP3    H128961   0.900   5.775  15.179 -0.5092  1.6263 -0.8911
 2490TIP3    H228962   1.040   5.720  15.178 -1.4284 -0.8163 -0.8830
 2491TIP3   OH228963   0.686   3.636  13.939  0.2271 -0.0737 -0.3169
 2491TIP3    H128964   0.653   3.593  14.018 -1.0888  0.7701 -0.3770
 2491TIP3    H228965   0.715   3.565  13.882  2.7963 -0.6795  1.5442
 2492TIP3   OH228966   3.041   3.195  15.242 -0.1846  0.2256  0.1145
 2492TIP3    H128967   3.003   3.139  15.174  0.9007 -0.6475  0.2131
 2492TIP3    H228968   3.123   3.152  15.266 -0.1391  0.9744  1.3805
 2493TIP3   OH228969   3.140   5.964  13.830 -0.2161  0.0104 -0.1624
 2493TIP3    H128970   3.081   5.961  13.905  0.5718  0.5314  0.4922
 2493TIP3    H228971   3.161   6.057  13.820  1.0497 -0.2374  0.0633
 2494TIP3   OH228972   0.535   4.051   3.529  0.1151 -0.2310  0.6357
 2494TIP3    H128973   0.465   3.995   3.493  0.3741 -0.8074  1.0122
 2494TIP3    H228974   0.609   4.037   3.471  0.5201 -1.1284  1.3459
 2495TIP3   OH228975   3.777   1.676   1.293 -0.0958 -0.1962 -0.6439
 2495TIP3    H128976   3.749   1.682   1.202 -0.4874  0.1487 -0.5040
 2495TIP3    H228977   3.755   1.761   1.331 -2.8914 -1.3426  0.5964
 2496TIP3   OH228978   5.942   3.321   0.674  0.0589  0.2419 -0.5213
 2496TIP3    H128979   5.871   3.374   0.637 -1.3287 -0.1666  1.4007
 2496TIP3    H228980   5.902   3.276   0.748  2.0003 -1.1018 -0.2208
 2497TIP3   OH228981   0.170   5.139  16.024  0.3143 -0.1420 -0.3742
 2497TIP3    H128982   0.251   5.133  15.973 -1.1883 -0.3757 -2.8942
 2497TIP3    H228983   0.136   5.227  16.005 -0.4069 -0.3166  0.0622
 2498TIP3   OH228984   0.027   6.275  15.531  0.2880  0.0172  0.1797
 2498TIP3    H128985  -0.019   6.210  15.585  0.8586 -0.8385 -0.3283
 2498TIP3    H228986   0.080   6.325  15.594 -2.0097  1.6982  0.9169
 2499TIP3   OH228987   6.765   4.614   6.667  0.4572 -0.3025  0.5607
 2499TIP3    H128988   6.816   4.688   6.699 -1.0090  0.6113  0.8804
 2499TIP3    H228989   6.677   4.629   6.701 -0.0088 -1.8944  0.1362
 2500TIP3   OH228990   3.305   6.757   4.334  0.3388  0.6987 -0.3316
 2500TIP3    H128991   3.220   6.802   4.337  0.3445  0.6740  0.5871
 2500TIP3    H228992   3.317   6.734   4.242 -1.3242 -0.5531 -0.2813
 2501TIP3   OH228993   5.364   4.690  15.343  0.2738 -0.2039 -0.1443
 2501TIP3    H128994   5.272   4.662  15.342  0.2614 -0.1791  0.2360
 2501TIP3    H228995   5.367   4.759  15.409  0.7259 -0.7552  0.4174
 2502TIP3   OH228996   6.414   3.415  11.338 -0.0258 -0.2138 -0.0299
 2502TIP3    H128997   6.459   3.470  11.402 -0.7645 -1.4050  1.5978
 2502TIP3    H228998   6.483   3.360  11.300  0.0441 -1.6157  2.0054
 2503TIP3   OH228999   2.440   6.653  12.298  0.0442 -0.1957 -0.4532
 2503TIP3    H129000   2.367   6.650  12.235  0.4271  0.6193 -0.9568
 2503TIP3    H229001   2.513   6.689  12.247  0.3319  0.5905  0.4926
 2504TIP3   OH229002   4.300   4.381   3.699  0.4015  0.0059 -0.7539
 2504TIP3    H129003   4.264   4.303   3.656 -0.5496  0.7382 -1.3323
 2504TIP3    H229004   4.258   4.382   3.785 -0.5372  0.5220 -1.1996
 2505TIP3   OH229005   4.193   1.317  15.279  0.2226  0.2623  0.1871
 2505TIP3    H129006   4.251   1.372  15.333  0.3063  0.4717 -0.1116
 2505TIP3    H229007   4.144   1.264  15.342  1.5932 -0.7882  0.4099
 2506TIP3   OH229008   3.759   0.624   2.078  0.8593  0.5642 -0.2075
 2506TIP3    H129009   3.826   0.692   2.077  1.2304  0.1987 -0.6490
 2506TIP3    H229010   3.688   0.659   2.024 -0.5864  2.1879  2.5416
 2507TIP3   OH229011   4.137   0.555   1.048 -0.6143 -0.0417  0.1680
 2507TIP3    H129012   4.211   0.611   1.067  0.7245 -2.1241  1.5069
 2507TIP3    H229013   4.107   0.524   1.133 -1.1563 -1.4897 -0.5049
 2508TIP3   OH229014   4.233   2.202  14.482 -0.6635  0.2611  0.4552
 2508TIP3    H129015   4.213   2.294  14.501 -2.3996 -0.2586  1.3391
 2508TIP3    H229016   4.173   2.178  14.412  0.5252  0.0616 -0.5319
 2509TIP3   OH229017   5.580   4.321  12.744  0.1694 -0.6502  0.1692
 2509TIP3    H129018   5.625   4.318  12.660 -1.1289  0.5725 -0.6121
 2509TIP3    H229019   5.498   4.274  12.730 -0.3105  0.0425  0.5626
 2510TIP3   OH229020   3.457   1.726   0.234  0.3723  0.1141 -0.7916
 2510TIP3    H129021   3.542   1.683   0.227  1.0349  1.3118 -0.2706
 2510TIP3    H229022   3.415   1.711   0.149  0.8363 -1.0101 -0.8349
 2511TIP3   OH229023   2.274   3.674   1.267 -0.6496  0.0516  0.0536
 2511TIP3    H129024   2.349   3.661   1.208 -0.3494  0.1811  0.3979
 2511TIP3    H229025   2.296   3.621   1.344 -1.2636 -0.5044 -0.1432
 2512TIP3   OH229026   6.362   1.423  17.412 -0.3516 -0.0386  0.0160
 2512TIP3    H129027   6.271   1.400  17.395  0.0294 -0.3412 -1.7793
 2512TIP3    H229028   6.386   1.481  17.340  0.7728  0.3585  0.6876
 2513TIP3   OH229029   5.890   5.443  13.272 -0.0615  0.4357 -0.5388
 2513TIP3    H129030   5.865   5.404  13.188  0.4244  1.1325 -1.0171
 2513TIP3    H229031   5.974   5.485  13.254  0.8328 -0.7301  0.6891
 2514TIP3   OH229032   0.426   1.950   0.424 -0.0781 -0.2070  0.0960
 2514TIP3    H129033   0.491   1.952   0.354  1.8512  0.7329  1.8036
 2514TIP3    H229034   0.345   1.923   0.381  1.2776 -0.8107 -2.2469
 2515TIP3   OH229035   3.204   0.978   0.400  0.5896  0.1654 -0.2207
 2515TIP3    H129036   3.268   1.049   0.404  0.2303  0.4890 -0.1867
 2515TIP3    H229037   3.168   0.973   0.488 -1.0433  1.4858 -0.7653
 2516TIP3   OH229038   4.893   6.520  16.040 -0.7182  0.2134 -0.1575
 2516TIP3    H129039   4.909   6.614  16.050 -1.0224  0.7957 -3.9002
 2516TIP3    H229040   4.978   6.479  16.061 -0.2439  1.4155  0.3401
 2517TIP3   OH229041   4.695   5.126  17.225 -0.2915 -0.4230  0.3612
 2517TIP3    H129042   4.614   5.144  17.273  0.4920 -0.0657  1.5894
 2517TIP3    H229043   4.765   5.152  17.285  0.8318 -3.3104  0.4609
 2518TIP3   OH229044   2.707   1.543   5.248 -0.2025 -0.1979  0.1433
 2518TIP3    H129045   2.801   1.559   5.238 -0.1177  0.1607  1.3896
 2518TIP3    H229046   2.683   1.493   5.170  0.8328  0.5059 -0.6486
 2519TIP3   OH229047   1.217   6.424  14.596  0.0943 -0.5805 -0.1527
 2519TIP3    H129048   1.204   6.420  14.691 -1.2640  0.8773 -0.2357
 2519TIP3    H229049   1.144   6.373  14.561  0.2477 -0.6062 -0.4307
 2520TIP3   OH229050   2.906   1.902  14.185  0.3207 -0.5271 -0.5895
 2520TIP3    H129051   2.886   1.982  14.233 -0.5272 -1.2104  0.2547
 2520TIP3    H229052   2.934   1.931  14.099  2.8737  0.7839  0.5972
 2521TIP3   OH229053   0.665   5.705  13.535 -0.1571 -0.4683  0.4843
 2521TIP3    H129054   0.679   5.736  13.624  1.0012 -1.8123  0.8123
 2521TIP3    H229055   0.753   5.701  13.497 -0.6338  0.1419 -0.7492
 2522TIP3   OH229056   5.258   5.910  12.452  0.2072  0.1807 -0.1924
 2522TIP3    H129057   5.187   5.937  12.394 -0.5092 -1.1983  0.0051
 2522TIP3    H229058   5.215   5.889  12.535  0.9876  0.3634  0.2707
 2523TIP3   OH229059   6.425   2.756   0.562  0.0249  0.1641 -0.1839
 2523TIP3    H129060   6.488   2.787   0.497 -1.4968  0.8438 -1.3768
 2523TIP3    H229061   6.477   2.744   0.642  1.2129  3.1519 -0.3972
 2524TIP3   OH229062   1.432   0.671  12.256  0.3731  0.4185 -0.1652
 2524TIP3    H129063   1.481   0.621  12.320  2.8560  0.4868 -1.8779
 2524TIP3    H229064   1.340   0.656  12.278  1.0768 -2.4371  1.1755
 2525TIP3   OH229065   0.037   1.073   5.709  0.6162  0.6976 -0.4569
 2525TIP3    H129066  -0.001   1.018   5.777 -1.8076  1.1310 -1.3250
 2525TIP3    H229067   0.014   1.029   5.627  0.4207  1.9287 -1.0880
 2526TIP3   OH229068   2.464   2.761  15.937 -0.8944  0.6824 -0.4838
 2526TIP3    H129069   2.396   2.800  15.882 -2.0546  1.4310  1.3574
 2526TIP3    H229070   2.516   2.835  15.967  0.9429  0.0912 -2.0355
 2527TIP3   OH229071   2.310   1.076   4.925 -0.5453  0.4018 -0.6534
 2527TIP3    H129072   2.218   1.064   4.949  0.0331  0.1350  1.6935
 2527TIP3    H229073   2.336   1.158   4.969  1.1574 -1.2311  1.6527
 2528TIP3   OH229074   4.476   5.194  15.259  0.2040 -0.2981 -0.1213
 2528TIP3    H129075   4.556   5.162  15.217  0.1787  0.1126 -0.4953
 2528TIP3    H229076   4.420   5.221  15.186  0.6553  1.6185  0.1897
 2529TIP3   OH229077   6.045   4.904  11.814 -0.2819  0.3534 -0.0355
 2529TIP3    H129078   6.006   4.947  11.738  1.6718 -0.2399 -1.4655
 2529TIP3    H229079   6.013   4.814  11.810 -0.0052  0.2639 -0.3149
 2530TIP3   OH229080   5.693   0.356  15.473  0.1373  0.6806 -0.1613
 2530TIP3    H129081   5.685   0.273  15.519  0.2951  1.0794  0.5965
 2530TIP3    H229082   5.621   0.409  15.507  1.2883  1.5906  0.9528
 2531TIP3   OH229083   3.091   6.062   6.153  0.5808  0.0324 -0.1402
 2531TIP3    H129084   3.079   5.969   6.169  0.5007  0.0864  0.1191
 2531TIP3    H229085   3.071   6.104   6.237  1.4994  0.2117 -0.0009
 2532TIP3   OH229086   1.916   6.177  15.394  0.1127 -0.2027  0.3840
 2532TIP3    H129087   1.890   6.152  15.306  0.1531 -0.1855  0.3675
 2532TIP3    H229088   1.853   6.133  15.451 -1.2244  1.4723  0.2590
 2533TIP3   OH229089   1.163   2.299  14.521 -0.6749 -0.0610  0.3864
 2533TIP3    H129090   1.198   2.357  14.454  0.1133 -2.6128 -1.5640
 2533TIP3    H229091   1.072   2.283  14.495  0.3540 -3.2300 -1.9200
 2534TIP3   OH229092   0.522   4.228   1.166  0.0541 -0.2704 -0.3773
 2534TIP3    H129093   0.582   4.203   1.097 -0.3936  0.5708 -1.0961
 2534TIP3    H229094   0.487   4.313   1.138 -0.3821 -0.0643  0.7179
 2535TIP3   OH229095   3.847   4.413  11.784 -0.0594  0.4977 -0.0395
 2535TIP3    H129096   3.867   4.506  11.780  1.5524  0.2029  0.5580
 2535TIP3    H229097   3.758   4.406  11.749  0.3755  2.0477 -1.5725
 2536TIP3   OH229098   2.962   6.693   3.013  0.4092 -0.1307 -0.1666
 2536TIP3    H129099   3.037   6.676   2.956  0.9822 -1.7720  1.0213
 2536TIP3    H229100   2.984   6.652   3.096 -1.8029 -0.6541  0.2314
 2537TIP3   OH229101   2.030   6.267  13.698  0.2071 -0.8097  0.2577
 2537TIP3    H129102   2.007   6.185  13.653  0.2282 -0.1012 -1.1141
 2537TIP3    H229103   2.110   6.296  13.653 -0.8659  0.9390 -0.6158
 2538TIP3   OH229104   0.771   3.307   0.753 -0.0670 -0.1374 -0.1681
 2538TIP3    H129105   0.853   3.273   0.719  1.2243  2.5070  0.0446
 2538TIP3    H229106   0.729   3.349   0.678 -0.1302  0.4895  0.2153
 2539TIP3   OH229107   5.117   5.012   4.303  0.1134 -0.1612 -0.7309
 2539TIP3    H129108   5.155   5.005   4.215  0.5497  0.5519 -0.5989
 2539TIP3    H229109   5.069   4.930   4.314  1.1016 -0.8135 -1.1402
 2540TIP3   OH229110   4.694   2.336   3.135  0.5726  0.4281 -0.1099
 2540TIP3    H129111   4.787   2.359   3.135  0.5578  0.5270 -1.0742
 2540TIP3    H229112   4.678   2.302   3.047 -0.0913 -0.4931  0.3500
 2541TIP3   OH229113   0.784   4.006   5.070  0.3705  0.0024  0.1623
 2541TIP3    H129114   0.693   3.991   5.043 -0.1025  1.3293  0.9740
 2541TIP3    H229115   0.822   4.057   4.998  0.1429  0.4400  0.3522
 2542TIP3   OH229116   6.468   5.982  17.097 -0.2380 -0.3416 -0.1425
 2542TIP3    H129117   6.418   5.941  17.027 -0.9871 -0.1744  0.2864
 2542TIP3    H229118   6.452   6.076  17.086  2.1434 -0.0211 -1.6483
 2543TIP3   OH229119   2.433   5.871  15.014 -0.0416 -0.1379 -0.2675
 2543TIP3    H129120   2.449   5.914  15.098 -1.2872 -0.6703  0.2682
 2543TIP3    H229121   2.517   5.830  14.992  0.5604  0.7784  0.2588
 2544TIP3   OH229122   2.054   2.713   3.691  0.4004  0.2530 -0.2195
 2544TIP3    H129123   1.959   2.711   3.698  0.4555 -0.9971  0.2255
 2544TIP3    H229124   2.071   2.720   3.597 -0.1238 -0.5428 -0.3755
 2545TIP3   OH229125   5.073   6.494   4.845 -0.2195 -0.1390 -0.0918
 2545TIP3    H129126   5.001   6.464   4.790  1.0947 -2.7043 -0.5718
 2545TIP3    H229127   5.138   6.526   4.783  0.0696 -0.2318  0.1612
 2546TIP3   OH229128   1.606   5.192  15.254  0.8606 -0.1728 -0.2085
 2546TIP3    H129129   1.616   5.154  15.342  2.4051  0.8766  0.1085
 2546TIP3    H229130   1.582   5.283  15.269 -0.2096 -0.3233 -0.9147
 2547TIP3   OH229131   6.512   1.357   3.062  0.2177 -0.0216 -0.2442
 2547TIP3    H129132   6.435   1.349   3.117 -0.6945  2.4083 -1.0288
 2547TIP3    H229133   6.480   1.346   2.973  1.4409 -2.5059 -0.4675
 2548TIP3   OH229134   1.383   2.275  16.905  0.2500  0.4751  0.2328
 2548TIP3    H129135   1.324   2.273  16.831  0.7253 -0.6149 -0.1508
 2548TIP3    H229136   1.433   2.356  16.895  0.8340 -0.0141 -1.0812
 2549TIP3   OH229137   4.930   5.814   5.478  0.1522 -0.4631  0.3180
 2549TIP3    H129138   5.001   5.751   5.472  0.9169  0.3091  1.0837
 2549TIP3    H229139   4.936   5.866   5.397  0.2642 -0.5871  0.2470
 2550TIP3   OH229140   6.249   4.023   5.619 -0.3543 -0.2494  0.1055
 2550TIP3    H129141   6.280   4.082   5.688 -0.7132 -0.2916  0.3054
 2550TIP3    H229142   6.156   4.008   5.640 -0.6259  0.2182 -0.7247
 2551TIP3   OH229143   0.980   1.682   2.756  0.1544  0.1619  0.0992
 2551TIP3    H129144   1.061   1.637   2.780  0.1396  0.5861  0.9807
 2551TIP3    H229145   0.914   1.613   2.753 -0.2146  0.2534  3.0012
 2552TIP3   OH229146   4.434   0.584   0.541  0.0042  0.0828  0.0353
 2552TIP3    H129147   4.370   0.654   0.552 -0.1763  0.0299 -0.6384
 2552TIP3    H229148   4.485   0.585   0.622 -0.9973 -0.0363  0.6853
 2553TIP3   OH229149   6.536   5.354   3.753  0.1979  0.2863 -0.2520
 2553TIP3    H129150   6.470   5.286   3.748 -0.0356  0.5058 -0.1719
 2553TIP3    H229151   6.493   5.432   3.717 -0.3091  0.9774  1.7254
 2554TIP3   OH229152   3.767   0.110   4.555 -0.5998  0.0374  0.5380
 2554TIP3    H129153   3.704   0.153   4.612 -0.9104  1.9601 -1.1209
 2554TIP3    H229154   3.715   0.081   4.480  0.1886 -0.0243  0.0032
 2555TIP3   OH229155   0.151   4.133  14.190  0.3175 -0.5639  0.8216
 2555TIP3    H129156   0.198   4.156  14.110  2.5178 -1.2393  1.8135
 2555TIP3    H229157   0.084   4.200  14.200  1.2408  0.6118 -0.5749
 2556TIP3   OH229158   0.796   4.008  11.867  0.1921 -0.2298 -0.4239
 2556TIP3    H129159   0.806   4.059  11.947 -0.2876 -1.3055  0.3461
 2556TIP3    H229160   0.727   4.054  11.819 -0.3962 -0.2507  0.3653
 2557TIP3   OH229161   0.563   5.053   0.698  0.7183  0.6559 -0.8257
 2557TIP3    H129162   0.526   4.972   0.660 -0.7229  1.3373 -0.9632
 2557TIP3    H229163   0.591   5.104   0.622 -0.4304  1.2129 -0.9001
 2558TIP3   OH229164   1.267   2.721   6.495 -0.5081 -0.9027  0.8434
 2558TIP3    H129165   1.296   2.804   6.457 -1.1812 -0.2923  1.6300
 2558TIP3    H229166   1.348   2.671   6.508 -0.0980 -0.3785  0.3401
 2559TIP3   OH229167   3.433   2.510   2.895 -0.1362 -0.9848 -0.1157
 2559TIP3    H129168   3.409   2.450   2.965 -1.9080 -1.1409 -0.8136
 2559TIP3    H229169   3.523   2.485   2.872  0.0597 -1.6692  1.3173
 2560TIP3   OH229170   5.493   4.076   0.321  0.2753 -0.0023  0.4024
 2560TIP3    H129171   5.548   4.053   0.246 -1.0832  0.1829 -0.6814
 2560TIP3    H229172   5.407   4.038   0.301 -0.0597 -0.1659  1.9930
 2561TIP3   OH229173   0.378   1.621  10.990  0.1431  0.6549  0.1830
 2561TIP3    H129174   0.373   1.525  10.986  1.0980  0.5617  0.8272
 2561TIP3    H229175   0.381   1.649  10.899  0.7773  0.0082  0.0037
 2562TIP3   OH229176   1.052   1.872  14.849  0.7377  0.6041  0.3630
 2562TIP3    H129177   1.054   1.960  14.812  1.1792  0.3615 -0.2106
 2562TIP3    H229178   1.109   1.821  14.791 -2.0566 -0.8291 -1.3280
 2563TIP3   OH229179   1.734   4.325   0.942 -0.2608 -0.0460 -0.4980
 2563TIP3    H129180   1.646   4.296   0.967 -0.6022  1.0013 -0.4673
 2563TIP3    H229181   1.787   4.245   0.946 -1.7755 -1.3270 -3.3527
 2564TIP3   OH229182   0.981   0.488  15.827 -0.3754  0.1082 -0.3610
 2564TIP3    H129183   0.973   0.476  15.922  0.1202  0.6311 -0.2442
 2564TIP3    H229184   0.974   0.400  15.791 -0.4924 -0.1057  0.1716
 2565TIP3   OH229185   4.407   1.268   5.859  0.5210  0.0352 -0.2292
 2565TIP3    H129186   4.462   1.312   5.794  0.4172 -0.0298 -0.3612
 2565TIP3    H229187   4.443   1.296   5.943  0.7939 -0.0509 -0.3142
 2566TIP3   OH229188   6.741   6.283  15.273 -0.0193  0.1935 -0.7992
 2566TIP3    H129189   6.758   6.375  15.254  1.9346  0.0504 -0.0197
 2566TIP3    H229190   6.768   6.272  15.364 -1.2946 -0.9269 -0.5161
 2567TIP3   OH229191   1.027   5.053  15.996 -0.2415  0.2788 -0.4210
 2567TIP3    H129192   0.970   5.063  16.072  1.2003  0.2280  0.7163
 2567TIP3    H229193   0.968   5.053  15.921 -1.7190  0.2034  0.7055
 2568TIP3   OH229194   3.932   3.051   5.590 -0.4520  0.2150 -0.0965
 2568TIP3    H129195   3.844   3.082   5.568 -0.8833  1.1004  2.5284
 2568TIP3    H229196   3.918   2.965   5.629 -0.1199  0.2086  0.0096
 2569TIP3   OH229197   0.696   4.064   0.114 -0.3999  0.2037  0.3939
 2569TIP3    H129198   0.619   4.116   0.136  0.2575  1.3608  0.0606
 2569TIP3    H229199   0.680   3.979   0.154 -1.9805  0.3231  0.0610
 2570TIP3   OH229200   1.202   2.233  15.886  0.0817 -0.1630 -0.3573
 2570TIP3    H129201   1.266   2.303  15.878 -2.0380  2.1183  0.8731
 2570TIP3    H229202   1.129   2.261  15.831 -1.0813 -1.0490  0.6677
 2571TIP3   OH229203   2.443   2.850   1.583 -0.2272  0.0458  0.4804
 2571TIP3    H129204   2.419   2.764   1.618  1.8531  0.0132  2.0434
 2571TIP3    H229205   2.396   2.912   1.639 -1.1913 -0.0506 -0.2095
 2572TIP3   OH229206   3.586   5.642  17.028  0.2340  0.3186 -0.6987
 2572TIP3    H129207   3.661   5.666  16.974  1.1077  0.6970  0.6069
 2572TIP3    H229208   3.626   5.610  17.110 -1.0168 -0.4833 -0.3845
 2573TIP3   OH229209   2.972   1.652   2.928 -0.0429 -0.2096 -0.1963
 2573TIP3    H129210   3.012   1.592   2.865  2.6259  1.7112 -0.4999
 2573TIP3    H229211   3.027   1.730   2.925 -2.4629  1.6975  1.2879
 2574TIP3   OH229212   1.813   5.882  14.418  0.3807 -0.0286 -0.6896
 2574TIP3    H129213   1.815   5.809  14.356 -3.5835 -0.7041 -0.2604
 2574TIP3    H229214   1.749   5.943  14.381 -2.2179 -0.4790  2.5779
 2575TIP3   OH229215   0.014   2.991   0.263  0.6665  0.3962  0.2851
 2575TIP3    H129216   0.004   3.000   0.358 -1.7872 -0.6457  0.2043
 2575TIP3    H229217  -0.015   3.076   0.228  0.2970  0.3304  0.4275
 2576TIP3   OH229218   2.057   1.235  11.761  0.3724 -0.3756 -0.7117
 2576TIP3    H129219   1.993   1.173  11.726 -0.1390  0.3579 -1.1185
 2576TIP3    H229220   2.007   1.290  11.821  1.1337 -1.2697  0.7801
 2577TIP3   OH229221   3.763   1.278   3.196  0.4616 -0.1019  0.6905
 2577TIP3    H129222   3.720   1.192   3.201  0.4095 -0.0961  0.3770
 2577TIP3    H229223   3.856   1.258   3.203  0.6000 -0.3967 -1.3650
 2578TIP3   OH229224   1.868   5.390   5.441  0.2205 -0.0345  0.2238
 2578TIP3    H129225   1.802   5.393   5.371  0.2448 -1.2202  0.1350
 2578TIP3    H229226   1.937   5.449   5.411  0.3655 -0.7494 -0.9226
 2579TIP3   OH229227   0.142   4.596   1.656 -0.2887 -0.1090 -0.1062
 2579TIP3    H129228   0.229   4.600   1.695  0.1064  0.3707 -1.0160
 2579TIP3    H229229   0.117   4.504   1.664 -1.4591  0.3660  3.8592
 2580TIP3   OH229230   3.794   0.037  11.503  0.0095 -0.1363  0.0704
 2580TIP3    H129231   3.825   0.055  11.414 -0.6025 -1.1703 -0.3678
 2580TIP3    H229232   3.855  -0.029  11.536  1.2365  1.4185  1.0554
 2581TIP3   OH229233   2.675   3.712  16.815  0.0054 -0.0945 -0.4794
 2581TIP3    H129234   2.751   3.685  16.868  1.0645  2.8443 -0.3539
 2581TIP3    H229235   2.702   3.695  16.725  0.2310 -0.4044 -0.3567
 2582TIP3   OH229236   0.495   5.972   1.412  0.0561 -0.5212 -0.0063
 2582TIP3    H129237   0.516   6.065   1.421 -0.5565 -0.4199  0.4575
 2582TIP3    H229238   0.535   5.946   1.329 -1.3471  0.5983 -1.0748
 2583TIP3   OH229239   1.135   5.535  14.120 -0.8724 -0.4845  0.1047
 2583TIP3    H129240   1.115   5.527  14.027  0.9313  0.4019 -0.3920
 2583TIP3    H229241   1.049   5.528  14.163 -2.0898  1.4899 -1.7720
 2584TIP3   OH229242   4.453   4.502   0.765 -0.0949 -0.1052 -0.1994
 2584TIP3    H129243   4.451   4.597   0.765  1.1224 -0.0512 -1.3707
 2584TIP3    H229244   4.537   4.480   0.806 -1.2915 -0.7574  2.0675
 2585TIP3   OH229245   0.907   1.109  12.880 -0.5123  0.5905  0.0361
 2585TIP3    H129246   0.814   1.087  12.888 -0.9459  1.0495 -2.6069
 2585TIP3    H229247   0.911   1.202  12.900 -0.8071  0.7609 -0.6397
 2586TIP3   OH229248   1.101   3.628  14.952 -0.0563  0.4018  0.3501
 2586TIP3    H129249   1.109   3.688  14.877  1.1434 -0.3711 -0.1693
 2586TIP3    H229250   1.085   3.686  15.027  0.6616  1.3435 -0.1981
 2587TIP3   OH229251   3.143   1.152  12.345  0.2311 -0.2570  0.8451
 2587TIP3    H129252   3.214   1.097  12.314 -0.3070 -1.5539  1.8338
 2587TIP3    H229253   3.142   1.140  12.440 -1.8503 -0.9943  0.7924
 2588TIP3   OH229254   0.233   6.521  15.464 -0.4391  0.1357  0.0520
 2588TIP3    H129255   0.295   6.448  15.473 -0.1209  0.5256  1.0891
 2588TIP3    H229256   0.216   6.525  15.370 -0.9440 -1.6812  0.0129
 2589TIP3   OH229257   6.593   4.536  12.761  0.4940 -0.2446  0.0652
 2589TIP3    H129258   6.577   4.581  12.844  2.5916  0.3073  0.2091
 2589TIP3    H229259   6.590   4.605  12.695 -0.1129 -0.5249 -0.2150
 2590TIP3   OH229260   5.703   4.289  11.877 -0.0806 -0.3866 -0.4595
 2590TIP3    H129261   5.627   4.339  11.847 -0.7423 -1.1530 -0.0861
 2590TIP3    H229262   5.778   4.345  11.856 -0.7338  0.3316 -0.9340
 2591TIP3   OH229263   0.434   4.817  16.776 -0.1944  0.5471  0.0851
 2591TIP3    H129264   0.422   4.732  16.734 -2.3112  1.1545 -0.6732
 2591TIP3    H229265   0.526   4.818  16.803  0.3032 -1.3114 -1.3449
 2592TIP3   OH229266   5.605   2.384  14.039  0.1744 -0.1426 -0.3328
 2592TIP3    H129267   5.665   2.373  13.965  1.1062 -0.7275  0.4823
 2592TIP3    H229268   5.549   2.457  14.014  0.1700 -0.6201 -1.8068
 2593TIP3   OH229269   5.657   4.012  15.675  0.1298 -0.3702 -0.4584
 2593TIP3    H129270   5.688   4.061  15.598  1.1597  2.3064  1.5056
 2593TIP3    H229271   5.736   3.976  15.715 -0.0356  0.5031  0.7222
 2594TIP3   OH229272   4.712   5.411   0.233 -0.1909  0.1399  0.3330
 2594TIP3    H129273   4.733   5.376   0.146  0.5419 -0.4158  0.7193
 2594TIP3    H229274   4.687   5.334   0.284 -0.1267  0.3952  0.7514
 2595TIP3   OH229275   2.380   2.824  14.154 -0.3243 -0.8237  0.2241
 2595TIP3    H129276   2.473   2.815  14.133 -0.0479  1.6021  0.0908
 2595TIP3    H229277   2.374   2.798  14.246  0.7214 -0.0118  0.5482
 2596TIP3   OH229278   3.965   4.418   5.507 -0.1471 -1.0811  0.0377
 2596TIP3    H129279   3.992   4.327   5.495  0.4301 -0.6689 -2.4585
 2596TIP3    H229280   3.870   4.416   5.492 -0.4250 -1.4852  1.6974
 2597TIP3   OH229281   0.166   0.321   5.433  0.2996 -0.4848  0.2691
 2597TIP3    H129282   0.212   0.384   5.489  0.7337 -0.8158  0.2888
 2597TIP3    H229283   0.235   0.262   5.401 -0.2117 -1.4885  0.9640
 2598TIP3   OH229284   0.097   6.706  11.239 -0.2177  0.0115  0.0202
 2598TIP3    H129285   0.157   6.750  11.298 -1.2295  0.6037  0.6343
 2598TIP3    H229286   0.098   6.760  11.159  2.1292 -1.4856 -1.0765
 2599TIP3   OH229287   4.975   2.382   5.769  0.0841 -0.1180  0.0674
 2599TIP3    H129288   4.997   2.311   5.708  0.8332 -1.5222  1.8707
 2599TIP3    H229289   4.972   2.461   5.714  3.4287 -0.8229 -1.4017
 2600TIP3   OH229290   0.033   2.567   4.554  0.0624 -0.1207 -0.3913
 2600TIP3    H129291  -0.009   2.647   4.587 -0.6034 -0.5220 -0.2540
 2600TIP3    H229292  -0.019   2.543   4.477 -0.7517 -1.3124  0.4923
 2601TIP3   OH229293   0.564   4.542   4.913 -0.0572  0.3785 -0.3611
 2601TIP3    H129294   0.523   4.541   5.000 -0.7542  1.6913 -0.6382
 2601TIP3    H229295   0.588   4.634   4.900  3.8814 -0.4188  0.1466
 2602TIP3   OH229296   2.663   3.683   0.067 -0.3444  0.5841  0.0204
 2602TIP3    H129297   2.601   3.721   0.004 -1.2893 -0.9577 -0.0217
 2602TIP3    H229298   2.627   3.596   0.086  1.8354 -0.3794 -0.0271
 2603TIP3   OH229299   1.599   5.117  16.431  0.0508  0.3722  0.1007
 2603TIP3    H129300   1.669   5.156  16.484 -1.6363  1.2906  1.7847
 2603TIP3    H229301   1.610   5.155  16.344  1.2105  1.0570  0.5235
 2604TIP3   OH229302   6.013   3.454  16.123 -0.0493 -0.4348 -0.1002
 2604TIP3    H129303   6.094   3.496  16.151 -0.0586 -1.2613  1.2303
 2604TIP3    H229304   5.964   3.438  16.203 -1.4324 -0.1987 -0.8581
 2605TIP3   OH229305   5.876   0.513  17.056  0.0661  1.0338 -0.0684
 2605TIP3    H129306   5.955   0.524  17.002 -0.1002  0.7259 -0.3746
 2605TIP3    H229307   5.892   0.570  17.132  1.3217 -0.2536  0.6936
 2606TIP3   OH229308   3.727   1.627   0.218  0.1207  0.1703  0.0992
 2606TIP3    H129309   3.760   1.537   0.223 -1.3671 -0.4104 -0.0730
 2606TIP3    H229310   3.799   1.681   0.253  0.6801 -1.1609  1.0925
 2607TIP3   OH229311   1.971   6.007   1.561  0.6855  0.4410  0.3497
 2607TIP3    H129312   2.049   5.952   1.562 -0.6542 -1.6461 -1.2744
 2607TIP3    H229313   1.945   6.009   1.468 -0.5289  2.0657  0.6883
 2608TIP3   OH229314   6.528   6.746   2.371  0.0666 -0.4787 -0.3289
 2608TIP3    H129315   6.593   6.703   2.426 -1.0996 -0.5576  1.0439
 2608TIP3    H229316   6.579   6.787   2.300  1.9603  1.7678  2.1129
 2609TIP3   OH229317   4.030   3.973  14.606  0.1058 -0.0745  0.2192
 2609TIP3    H129318   3.934   3.980  14.608  0.1124  0.2986 -0.4380
 2609TIP3    H229319   4.053   3.930  14.688 -0.6814 -0.8018  0.0807
 2610TIP3   OH229320   3.984   0.034  12.479 -0.3398 -0.2042  0.5811
 2610TIP3    H129321   4.018   0.103  12.536 -1.1441 -1.3935  2.6167
 2610TIP3    H229322   4.049  -0.035  12.483 -0.7915 -0.6245  0.7321
 2611TIP3   OH229323   2.465   0.877   5.062  0.4159  0.3832 -0.1281
 2611TIP3    H129324   2.414   0.948   5.022  1.8884  1.1190 -0.7896
 2611TIP3    H229325   2.430   0.797   5.022 -1.7813  0.6120  1.1922
 2612TIP3   OH229326   5.498   0.460   6.505 -0.2487  0.4176  0.0038
 2612TIP3    H129327   5.568   0.519   6.478 -0.3896  0.4275 -0.3517
 2612TIP3    H229328   5.423   0.517   6.521 -0.2617  0.3778  0.0847
 2613TIP3   OH229329   0.455   1.842   5.277 -0.2641 -0.2742  0.0705
 2613TIP3    H129330   0.468   1.852   5.182  0.6593  2.0661  0.3688
 2613TIP3    H229331   0.530   1.789   5.306 -0.8211 -1.4351 -0.5428
 2614TIP3   OH229332   4.849   4.335   3.119  0.0948 -0.6899  0.0288
 2614TIP3    H129333   4.822   4.416   3.163 -0.5162 -1.7340  1.6854
 2614TIP3    H229334   4.774   4.311   3.065  0.8996  0.6731 -1.8390
 2615TIP3   OH229335   2.275   1.133   6.741  0.7500 -0.8378  0.1995
 2615TIP3    H129336   2.274   1.048   6.698 -0.9961 -0.0598 -1.4243
 2615TIP3    H229337   2.252   1.115   6.832 -1.2107 -1.9689 -0.4771
 2616TIP3   OH229338   3.160   1.868   0.141 -0.3735  0.4180 -0.1024
 2616TIP3    H129339   3.189   1.778   0.124 -0.3497  0.6656 -1.4692
 2616TIP3    H229340   3.065   1.864   0.128 -0.4968  0.4173  0.7147
 2617TIP3   OH229341   5.432   4.794  14.196  0.4650 -0.1802  0.3367
 2617TIP3    H129342   5.413   4.845  14.117  1.3494 -2.3268 -1.3823
 2617TIP3    H229343   5.473   4.856  14.256  0.1725  1.4280 -1.0574
 2618TIP3   OH229344   0.751   4.193   3.951  0.0337 -0.2491  0.3648
 2618TIP3    H129345   0.800   4.121   3.991 -1.2209 -1.1615  0.2799
 2618TIP3    H229346   0.800   4.271   3.977  1.3030 -1.0973  0.6245
 2619TIP3   OH229347   2.393   0.474   3.731 -0.0047 -0.5280  0.4674
 2619TIP3    H129348   2.372   0.490   3.823 -1.0266 -1.5574  0.4311
 2619TIP3    H229349   2.340   0.398   3.707 -1.6201  1.1484 -1.6338
 2620TIP3   OH229350   6.422   3.579   1.222  0.3607  0.3544 -0.4962
 2620TIP3    H129351   6.491   3.594   1.287  1.1716  1.3709 -1.5372
 2620TIP3    H229352   6.343   3.563   1.273  1.2620 -0.3623  0.7300
 2621TIP3   OH229353   1.110   3.543   4.421  0.2804 -0.7112  0.6495
 2621TIP3    H129354   1.180   3.495   4.377  0.6425  1.1793 -0.9635
 2621TIP3    H229355   1.030   3.517   4.374  0.5298  0.4836 -0.5080
 2622TIP3   OH229356   4.316   6.044  16.296 -0.2058  0.3367  0.7558
 2622TIP3    H129357   4.379   6.114  16.312  2.8772 -1.6717 -1.5256
 2622TIP3    H229358   4.285   6.060  16.207  0.8498 -1.3054  0.0483
 2623TIP3   OH229359   5.747   5.338   3.787 -0.4508  0.0181 -0.2928
 2623TIP3    H129360   5.783   5.260   3.745  0.0086  1.2049 -2.2601
 2623TIP3    H229361   5.710   5.389   3.715 -1.1342  1.4181  0.9872
 2624TIP3   OH229362   4.095   1.138  13.332  0.1270  0.4116 -0.6904
 2624TIP3    H129363   4.040   1.215  13.316  0.3875  0.8892  0.6055
 2624TIP3    H229364   4.040   1.079  13.384  0.6624  0.6881  0.2106
 2625TIP3   OH229365   0.991   0.199   1.528 -0.2382 -0.0270 -0.0953
 2625TIP3    H129366   1.023   0.113   1.558 -0.4033 -0.6094 -1.5115
 2625TIP3    H229367   1.057   0.228   1.465 -0.9597  0.1737 -0.7696
 2626TIP3   OH229368   3.196   3.153   3.656  0.1379 -0.0565 -0.6098
 2626TIP3    H129369   3.269   3.132   3.715  1.3072 -0.6314 -2.2175
 2626TIP3    H229370   3.236   3.205   3.586 -0.9420 -0.6337 -1.6826
 2627TIP3   OH229371   5.469   5.628   2.045 -0.2097 -0.6563  0.0636
 2627TIP3    H129372   5.526   5.702   2.026 -1.7635  0.4642 -0.3679
 2627TIP3    H229373   5.490   5.604   2.135  0.1945  0.4280  0.2701
 2628TIP3   OH229374   1.595   3.842  13.017 -0.2889 -0.9231  0.3082
 2628TIP3    H129375   1.669   3.869  13.073 -1.1142 -1.3549  1.6413
 2628TIP3    H229376   1.632   3.839  12.928  1.3846 -1.4341  0.9858
 2629TIP3   OH229377   2.520   6.039   3.452  0.0284  0.2021 -0.3953
 2629TIP3    H129378   2.433   6.003   3.437  0.4690 -0.5857 -1.1099
 2629TIP3    H229379   2.522   6.119   3.400 -0.5609  0.6885  0.3108
 2630TIP3   OH229380   3.324   2.255  14.508 -0.0965 -0.1137  0.7234
 2630TIP3    H129381   3.306   2.330  14.565 -0.3361  1.1495 -0.9640
 2630TIP3    H229382   3.419   2.252  14.501 -0.1051  0.4172  0.3176
 2631TIP3   OH229383   2.400   1.035  11.602  0.2487 -0.3098  0.1999
 2631TIP3    H129384   2.439   1.047  11.516 -0.5977 -1.1656 -0.3105
 2631TIP3    H229385   2.468   0.991  11.653  0.5088 -0.3975 -0.2192
 2632TIP3   OH229386   2.758   6.167   2.338  0.2648  0.2975 -0.0882
 2632TIP3    H129387   2.803   6.224   2.401 -0.6260  0.1483  0.7238
 2632TIP3    H229388   2.708   6.226   2.283  1.3879  0.4592 -0.9554
 2633TIP3   OH229389   3.582   1.199  13.000 -0.0814  0.2755  0.3848
 2633TIP3    H129390   3.609   1.155  13.081  1.0536 -0.1206 -0.1734
 2633TIP3    H229391   3.638   1.276  12.995 -2.0288  1.8373  1.3265
 2634TIP3   OH229392   3.222   5.495  10.883 -0.0248  0.1643 -0.1224
 2634TIP3    H129393   3.158   5.470  10.949  0.4659  2.2475  1.2331
 2634TIP3    H229394   3.205   5.588  10.867  1.2481  0.2209 -1.3635
 2635TIP3   OH229395   4.627   6.728   2.109  0.3806 -0.4948  0.0326
 2635TIP3    H129396   4.673   6.767   2.183 -1.0270 -0.4573  0.9235
 2635TIP3    H229397   4.593   6.803   2.059  0.0735 -0.5427  0.1701
 2636TIP3   OH229398   2.081   2.411  14.264  0.3456 -0.0177  0.4449
 2636TIP3    H129399   2.066   2.455  14.348 -1.8833 -0.8058  0.5277
 2636TIP3    H229400   2.011   2.346  14.258  0.7257 -0.3078 -1.8193
 2637TIP3   OH229401   1.478   3.874   0.994 -0.2825 -0.8529 -0.4347
 2637TIP3    H129402   1.463   3.914   0.908  0.3155 -0.8638 -0.5437
 2637TIP3    H229403   1.390   3.866   1.031 -0.5734 -1.0637 -1.1390
 2638TIP3   OH229404   0.533   2.941   2.196  0.5423 -0.5559  0.1098
 2638TIP3    H129405   0.445   2.945   2.232  1.0715 -0.1199  1.4159
 2638TIP3    H229406   0.532   2.864   2.138 -1.3033  0.7217 -1.6732
 2639TIP3   OH229407   1.105   6.353  12.643  0.2074 -0.2450  0.0488
 2639TIP3    H129408   1.180   6.366  12.700 -0.5364 -0.1677  1.0262
 2639TIP3    H229409   1.091   6.258  12.644  0.7463 -0.3452 -0.7469
 2640TIP3   OH229410   5.666   4.731  14.016 -0.0692 -0.3296 -0.4484
 2640TIP3    H129411   5.650   4.667  13.947 -1.6065 -0.2563 -0.1869
 2640TIP3    H229412   5.588   4.728  14.071 -0.7788  2.6080 -1.0971
 2641TIP3   OH229413   0.174   3.775  12.918 -0.3480  0.1980 -0.0081
 2641TIP3    H129414   0.270   3.778  12.923 -0.2732 -1.6532  0.7585
 2641TIP3    H229415   0.146   3.864  12.937  1.2029  0.6037  0.5455
 2642TIP3   OH229416   6.051   6.118  15.393 -0.4687 -0.0063  0.1395
 2642TIP3    H129417   6.126   6.172  15.367  0.4865 -1.6829 -0.7597
 2642TIP3    H229418   5.984   6.181  15.421  1.3547  1.5476  1.2538
 2643TIP3   OH229419   6.042   0.156   0.017 -0.2164  0.4202  0.6565
 2643TIP3    H129420   6.071   0.070  -0.014 -0.1289 -0.1702  2.2567
 2643TIP3    H229421   5.956   0.168  -0.023 -0.2638 -0.4464  0.4718
 2644TIP3   OH229422   5.447   6.351  15.906 -0.7606 -0.4511 -0.3281
 2644TIP3    H129423   5.462   6.297  15.984 -0.5107  0.9425  0.6363
 2644TIP3    H229424   5.519   6.415  15.908 -2.9113  2.1132  0.5645
 2645TIP3   OH229425   4.332   3.195   0.382  0.1381  0.5265  0.2933
 2645TIP3    H129426   4.403   3.256   0.363  1.9345 -0.8050  2.3656
 2645TIP3    H229427   4.335   3.183   0.476 -2.4354 -0.1408  0.3692
 2646TIP3   OH229428   5.423   2.107   4.542  0.4019  0.0485 -0.0406
 2646TIP3    H129429   5.517   2.097   4.553  0.5241  0.9957 -0.1307
 2646TIP3    H229430   5.403   2.193   4.579 -0.1929  0.4861 -1.3251
 2647TIP3   OH229431   5.774   2.027   2.659 -0.2247  0.4618 -0.4934
 2647TIP3    H129432   5.684   2.052   2.635 -0.1584  1.9514  0.6454
 2647TIP3    H229433   5.763   1.965   2.731 -0.3458 -0.1124 -1.0009
 2648TIP3   OH229434   3.299   5.741  13.899 -0.4451 -0.1699  0.2910
 2648TIP3    H129435   3.278   5.668  13.840  0.7114 -1.1311  1.0116
 2648TIP3    H229436   3.247   5.814  13.866 -2.4137 -1.5555  0.1144
 2649TIP3   OH229437   2.975   5.847   1.424 -0.0624  0.4315 -0.4498
 2649TIP3    H129438   3.057   5.891   1.448 -0.3855 -0.0458  1.7810
 2649TIP3    H229439   2.920   5.916   1.388  0.7287  1.0956 -0.4092
 2650TIP3   OH229440   0.459   0.007   3.953 -0.1163  0.3519 -0.7930
 2650TIP3    H129441   0.515  -0.059   3.912  0.0370  0.3758 -0.6244
 2650TIP3    H229442   0.399   0.034   3.884 -1.3009 -1.1888 -0.4258
 2651TIP3   OH229443   0.262   1.266  16.279  0.1609 -0.2819  0.3959
 2651TIP3    H129444   0.242   1.321  16.203 -0.1668 -0.7678  0.1249
 2651TIP3    H229445   0.238   1.319  16.355 -0.7598 -0.2933  0.1150
 2652TIP3   OH229446   3.758   0.244  14.695 -0.2206 -0.4895 -0.7707
 2652TIP3    H129447   3.776   0.279  14.608  0.7747 -2.1441 -1.2840
 2652TIP3    H229448   3.778   0.151  14.688  3.0251 -0.2237  2.0169
 2653TIP3   OH229449   0.711   4.811   4.924 -0.4851 -0.3640  0.3307
 2653TIP3    H129450   0.805   4.801   4.940 -0.9586 -2.1202  2.5551
 2653TIP3    H229451   0.681   4.871   4.993 -1.3498 -1.7694  1.2230
 2654TIP3   OH229452   6.614   2.821  17.125  0.3278  0.8712  0.3368
 2654TIP3    H129453   6.561   2.759  17.075 -0.5376  0.6518  1.4816
 2654TIP3    H229454   6.704   2.793  17.111  0.0017 -0.1141  0.1316
 2655TIP3   OH229455   4.201   0.311  16.606  0.6781  0.2584  0.4026
 2655TIP3    H129456   4.281   0.313  16.660 -0.2956 -1.1039  2.0058
 2655TIP3    H229457   4.232   0.287  16.519  2.0306 -0.4966  1.0430
 2656TIP3   OH229458   1.390   5.810  11.249 -0.4229 -0.4228 -0.0531
 2656TIP3    H129459   1.388   5.892  11.200 -0.8500  0.8619  1.9675
 2656TIP3    H229460   1.305   5.805  11.292  0.4410 -0.6372  1.7594
 2657TIP3   OH229461   4.394   4.458  12.902 -0.1846 -0.8589  0.1366
 2657TIP3    H129462   4.311   4.491  12.867  1.9619  2.5157 -2.4850
 2657TIP3    H229463   4.436   4.416  12.827  1.4664 -0.2626  0.6848
 2658TIP3   OH229464   1.190   0.698  15.989 -0.3963  0.0477 -0.0283
 2658TIP3    H129465   1.228   0.682  16.076 -0.7521  0.5035  0.2160
 2658TIP3    H229466   1.234   0.636  15.932  1.3821  1.1555  0.0708
 2659TIP3   OH229467   1.517   1.568   2.827 -0.3178  0.7046 -0.4267
 2659TIP3    H129468   1.473   1.575   2.742 -0.2398  0.7297 -0.4655
 2659TIP3    H229469   1.498   1.651   2.871 -0.8713  0.4435 -0.1705
 2660TIP3   OH229470   6.432   2.483   1.830  0.6567  0.0909 -0.3763
 2660TIP3    H129471   6.465   2.394   1.842  0.3091 -0.0440 -0.4234
 2660TIP3    H229472   6.341   2.480   1.860  0.2782  0.1400 -1.4762
 2661TIP3   OH229473   6.398   4.387   3.251  0.0708  0.1876 -0.2408
 2661TIP3    H129474   6.393   4.351   3.162  2.0532  1.5993 -0.9886
 2661TIP3    H229475   6.490   4.411   3.262 -0.1108 -0.0080  2.2431
 2662TIP3   OH229476   4.955   4.691   2.296 -0.1978 -0.2814 -0.2798
 2662TIP3    H129477   4.978   4.624   2.232  0.5444 -0.1770 -0.1398
 2662TIP3    H229478   4.890   4.649   2.352 -1.8195  0.0461 -1.8339
 2663TIP3   OH229479   5.742   3.977   2.974 -0.0193  0.8158  0.3675
 2663TIP3    H129480   5.677   4.015   2.915  0.3277  1.2379  0.2560
 2663TIP3    H229481   5.727   3.882   2.968  0.6924  0.7573 -1.2204
 2664TIP3   OH229482   0.162   0.929   4.317 -1.0063  0.2951  0.5472
 2664TIP3    H129483   0.162   1.003   4.378 -1.1216 -0.1385  1.0873
 2664TIP3    H229484   0.071   0.898   4.317 -0.7154 -0.5996  1.2740
 2665TIP3   OH229485   6.091   0.471  13.957 -0.7284  0.1078 -0.3548
 2665TIP3    H129486   6.009   0.505  13.922 -1.3533 -0.9420  0.0454
 2665TIP3    H229487   6.158   0.532  13.925 -1.6986  1.2168 -0.3422
 2666TIP3   OH229488   0.700   2.666  13.193  0.3932  0.5763  0.7311
 2666TIP3    H129489   0.688   2.745  13.246  0.0752  0.0206  1.4908
 2666TIP3    H229490   0.691   2.594  13.254  3.9852 -0.0376  0.7592
 2667TIP3   OH229491   6.017   2.420   5.084 -0.0397 -0.0203  0.1848
 2667TIP3    H129492   5.982   2.420   4.994  0.1999  1.9171  0.0542
 2667TIP3    H229493   6.076   2.495   5.087 -0.3459  0.2003  2.0805
 2668TIP3   OH229494   0.970   4.464  16.600 -0.0302  0.1819 -0.1239
 2668TIP3    H129495   1.045   4.482  16.656 -1.5013 -0.9626  2.4182
 2668TIP3    H229496   0.999   4.394  16.542  1.0515  0.2471  0.3139
 2669TIP3   OH229497   2.188   3.407  12.184  0.1839 -0.3237  0.4718
 2669TIP3    H129498   2.243   3.339  12.147 -0.0861 -0.2412 -0.1109
 2669TIP3    H229499   2.117   3.360  12.228 -0.6679 -0.4569 -0.9446
 2670TIP3   OH229500   4.446   4.173   2.435  0.0828 -0.4304  0.5744
 2670TIP3    H129501   4.538   4.148   2.439  0.3894  0.7245  0.9044
 2670TIP3    H229502   4.446   4.268   2.430 -1.0120 -0.4630 -1.9765
 2671TIP3   OH229503   3.813   6.714  14.579  0.1702 -0.0217  0.4025
 2671TIP3    H129504   3.762   6.633  14.587 -0.9806  0.7170  0.6957
 2671TIP3    H229505   3.838   6.717  14.486 -0.4256 -0.3372  0.2279
 2672TIP3   OH229506   6.468   5.305  13.370 -0.1126  0.4499  0.1005
 2672TIP3    H129507   6.536   5.275  13.430 -1.0697  0.0509  1.0293
 2672TIP3    H229508   6.386   5.294  13.419 -0.8183  1.2573 -0.8434
 2673TIP3   OH229509   2.638   1.865  12.386 -0.0676  0.4313 -0.0548
 2673TIP3    H129510   2.647   1.933  12.319 -0.2479  0.0823 -0.4351
 2673TIP3    H229511   2.547   1.837  12.380  0.2054 -0.4135 -0.4614
 2674TIP3   OH229512   2.428   5.729   3.952 -0.0622 -0.2108  0.0268
 2674TIP3    H129513   2.512   5.683   3.956  0.4547  0.7355  0.2288
 2674TIP3    H229514   2.385   5.708   4.035 -0.1922 -0.9860 -0.2264
 2675TIP3   OH229515   2.060   0.619   3.147 -0.3149 -0.4486  0.3251
 2675TIP3    H129516   2.145   0.590   3.182 -0.4585  0.0927  1.1340
 2675TIP3    H229517   2.049   0.707   3.181 -0.4551  0.1137 -1.1273
 2676TIP3   OH229518   4.259   3.959   1.604  0.5856 -0.7205 -0.1073
 2676TIP3    H129519   4.262   4.053   1.619 -2.3739 -0.5471 -0.1189
 2676TIP3    H229520   4.214   3.949   1.520  1.8214 -2.1432 -0.6475
 2677TIP3   OH229521   1.015   3.345   2.719  0.1832  0.3971  0.1662
 2677TIP3    H129522   0.980   3.402   2.650 -1.0436 -1.5231 -0.8969
 2677TIP3    H229523   0.994   3.391   2.801 -0.9914  1.3668 -0.6364
 2678TIP3   OH229524   1.571   1.949   5.058 -0.5243  0.3063 -0.1483
 2678TIP3    H129525   1.557   2.021   5.120 -0.0675 -0.2870  0.6633
 2678TIP3    H229526   1.650   1.905   5.090 -1.0463 -0.8217 -0.3839
 2679TIP3   OH229527   5.145   3.298  14.411  0.2552  0.3543  0.2219
 2679TIP3    H129528   5.184   3.271  14.494  0.5564 -0.1319 -0.0708
 2679TIP3    H229529   5.058   3.257  14.411  0.0133  0.8681  0.5705
 2680TIP3   OH229530   0.069   4.395   6.544 -0.1955  0.4269  0.2566
 2680TIP3    H129531   0.028   4.310   6.554 -2.6007  0.9183 -3.5572
 2680TIP3    H229532   0.015   4.454   6.597 -0.8528  0.1472 -0.0973
 2681TIP3   OH229533   6.455   5.484  16.490 -0.4516  0.0705  0.2249
 2681TIP3    H129534   6.380   5.501  16.433 -2.3363  2.1992  3.0436
 2681TIP3    H229535   6.425   5.417  16.550  0.7576 -0.6447  0.0713
 2682TIP3   OH229536   4.848   5.537   0.760  0.4806 -0.3042  0.0810
 2682TIP3    H129537   4.775   5.514   0.817  0.5484 -1.5457 -0.2866
 2682TIP3    H229538   4.816   5.609   0.706  0.0067  0.0610  0.8467
 2683TIP3   OH229539   4.180   6.477   3.644 -0.1523 -0.0597  0.0338
 2683TIP3    H129540   4.146   6.393   3.614 -1.9934 -0.0612  1.9206
 2683TIP3    H229541   4.200   6.525   3.563 -2.1505 -1.1173 -1.1623
 2684TIP3   OH229542   2.717   3.200   4.192 -0.5910 -0.0856 -0.7016
 2684TIP3    H129543   2.643   3.258   4.213 -0.0912  0.0397  0.8338
 2684TIP3    H229544   2.786   3.227   4.252  0.1367 -1.3371 -0.9571
 2685TIP3   OH229545   3.645   3.224  11.477 -0.1273 -0.1940  0.4104
 2685TIP3    H129546   3.603   3.297  11.430 -1.3851 -1.4022 -0.4378
 2685TIP3    H229547   3.610   3.230  11.566 -1.4612 -0.6432 -0.0537
 2686TIP3   OH229548   0.623   0.209  14.206  0.0708 -0.4322  0.3130
 2686TIP3    H129549   0.698   0.238  14.153  1.8573 -1.3228  2.1918
 2686TIP3    H229550   0.629   0.113  14.205  1.6731 -0.5362  3.9082
 2687TIP3   OH229551   0.951   5.318  13.417  0.1566  0.3060 -0.1940
 2687TIP3    H129552   1.031   5.313  13.364 -0.2827  1.8100 -1.0452
 2687TIP3    H229553   0.982   5.325  13.507  0.9676  0.3070 -0.4664
 2688TIP3   OH229554   6.476   3.661  10.742  0.0761  0.2271  0.1486
 2688TIP3    H129555   6.482   3.756  10.735  1.6112  0.0868 -0.9324
 2688TIP3    H229556   6.561   3.629  10.713 -1.9102 -1.7144 -4.6683
 2689TIP3   OH229557   1.735   4.123  12.965  0.8160 -0.2314 -0.4670
 2689TIP3    H129558   1.805   4.057  12.973  1.2064 -0.0203 -1.8247
 2689TIP3    H229559   1.712   4.145  13.055  1.2299 -1.6465  0.0094
 2690TIP3   OH229560   3.618   3.262   2.570  0.0512  0.1448 -0.4854
 2690TIP3    H129561   3.703   3.300   2.591 -0.0933  0.5386 -0.6068
 2690TIP3    H229562   3.595   3.211   2.648 -0.5805  1.7624  0.4157
 2691TIP3   OH229563   6.417   2.287   5.417 -0.0100 -0.0823 -0.8972
 2691TIP3    H129564   6.357   2.360   5.403  0.9610  0.9433  0.0841
 2691TIP3    H229565   6.412   2.236   5.337 -1.2287  0.6716 -1.3292
 2692TIP3   OH229566   6.642   2.854   5.048  0.2798  0.0348 -0.2128
 2692TIP3    H129567   6.569   2.822   4.996 -0.7185 -0.0130  1.1670
 2692TIP3    H229568   6.718   2.847   4.990 -0.7185 -0.3583 -1.5149
 2693TIP3   OH229569   3.478   2.846   5.156 -0.1542 -0.4935  0.1363
 2693TIP3    H129570   3.516   2.899   5.225 -1.1741 -0.1622  0.4581
 2693TIP3    H229571   3.384   2.861   5.162 -0.5092 -2.4756  0.3722
 2694TIP3   OH229572   5.508   4.307  15.803 -0.3263  0.4268 -0.2796
 2694TIP3    H129573   5.569   4.322  15.731 -0.9738 -0.0806 -0.9460
 2694TIP3    H229574   5.563   4.276  15.875  0.2498  0.3348 -0.7551
 2695TIP3   OH229575   5.996   1.096  15.695  0.2047  0.0189  0.4452
 2695TIP3    H129576   5.945   1.159  15.746 -0.9521 -1.6049  1.3812
 2695TIP3    H229577   5.984   1.013  15.740  1.7120 -0.8940 -0.7303
 2696TIP3   OH229578   6.537   3.453   4.709  0.5272 -0.6972  0.0743
 2696TIP3    H129579   6.542   3.537   4.661  1.0424 -0.8008 -0.0615
 2696TIP3    H229580   6.446   3.447   4.736  0.6359  0.2703  0.7357
 2697TIP3   OH229581   3.845   0.155   3.451 -0.6673 -0.5738 -0.0949
 2697TIP3    H129582   3.792   0.078   3.433 -1.8554 -0.1570  1.4985
 2697TIP3    H229583   3.926   0.120   3.489 -0.0857 -1.1464 -1.7343
 2698TIP3   OH229584   5.333   5.386   4.623  0.0922  0.3447  0.6711
 2698TIP3    H129585   5.304   5.457   4.566 -3.7507 -1.2504  0.3361
 2698TIP3    H229586   5.331   5.308   4.567 -1.0977 -0.8343  2.2743
 2699TIP3   OH229587   6.086   1.134  11.065 -0.1095 -0.8260  0.0537
 2699TIP3    H129588   6.062   1.171  10.980  1.4151  0.6007  0.1831
 2699TIP3    H229589   6.002   1.117  11.109 -0.9000  0.0844 -1.0511
 2700TIP3   OH229590   5.258   0.474  14.546  0.3796 -0.1120  0.1711
 2700TIP3    H129591   5.183   0.473  14.486  0.9721  0.9575 -0.6036
 2700TIP3    H229592   5.333   0.495  14.491  1.3165 -1.3761  0.8987
 2701TIP3   OH229593   1.546   5.772  12.972  0.3006  1.2500 -0.3858
 2701TIP3    H129594   1.490   5.728  12.909  1.6285 -1.5039  0.2188
 2701TIP3    H229595   1.524   5.732  13.056  1.9623  1.2681  0.1064
 2702TIP3   OH229596   3.485   2.760   1.144 -0.0181  0.5564 -0.4511
 2702TIP3    H129597   3.534   2.833   1.182  1.0713 -0.8197  0.9235
 2702TIP3    H229598   3.413   2.745   1.205 -1.7110  1.9522 -1.9745
 2703TIP3   OH229599   2.887   4.452  14.649 -0.2871 -0.1008  0.5377
 2703TIP3    H129600   2.808   4.422  14.604  0.9331 -0.9346 -1.1596
 2703TIP3    H229601   2.934   4.371  14.670  0.8039  0.4271  0.1986
 2704TIP3   OH229602   0.470   0.096   5.831 -0.0946  0.0296  0.7282
 2704TIP3    H129603   0.536   0.110   5.763 -0.4938 -0.3684  0.2508
 2704TIP3    H229604   0.386   0.100   5.785 -0.3511 -0.7502  1.1024
 2705TIP3   OH229605   2.730   0.632   2.424 -0.2464 -0.0789 -0.5612
 2705TIP3    H129606   2.801   0.644   2.488 -0.2655  1.4990 -0.7776
 2705TIP3    H229607   2.763   0.565   2.364  1.6084  1.3793 -1.3125
 2706TIP3   OH229608   2.345   3.893  17.237 -0.3852  0.4613  0.2175
 2706TIP3    H129609   2.370   3.927  17.151 -1.2026  0.4149 -0.0488
 2706TIP3    H229610   2.274   3.950  17.266 -0.4196  0.2016  0.6607
 2707TIP3   OH229611   3.446   6.641  16.759 -0.0355 -0.1911 -0.0841
 2707TIP3    H129612   3.490   6.656  16.676 -0.1659  2.0537  0.1914
 2707TIP3    H229613   3.495   6.694  16.822 -0.3094 -1.3665  1.1576
 2708TIP3   OH229614   6.214   0.185   0.891  0.1782 -0.1113  0.6275
 2708TIP3    H129615   6.297   0.193   0.843  0.1079 -1.8152  0.1772
 2708TIP3    H229616   6.209   0.093   0.916 -1.4294  0.0392  0.9398
 2709TIP3   OH229617   0.211   2.245   3.821 -0.1584 -0.2093 -0.0897
 2709TIP3    H129618   0.160   2.204   3.891 -1.5926 -2.4477 -2.2848
 2709TIP3    H229619   0.147   2.296   3.771  0.4155 -0.2658 -0.9053
 2710TIP3   OH229620   3.509   6.394  11.701 -0.4547  0.4511 -0.1860
 2710TIP3    H129621   3.449   6.439  11.761 -0.9187  0.3541 -0.5697
 2710TIP3    H229622   3.577   6.359  11.758 -1.0901  0.0303  0.3395
 2711TIP3   OH229623   4.875   5.479  12.108  0.1589  0.1017 -0.7303
 2711TIP3    H129624   4.861   5.465  12.201 -2.5155  1.4057 -0.8473
 2711TIP3    H229625   4.842   5.400  12.066 -0.7614  0.4264 -0.6450
 2712TIP3   OH229626   6.148   2.497   0.617  0.3219  0.1007 -0.7060
 2712TIP3    H129627   6.241   2.478   0.608  0.2455 -0.3639 -0.4940
 2712TIP3    H229628   6.145   2.581   0.663  0.6281 -0.0575 -0.3982
 2713TIP3   OH229629   4.666   2.689  12.555 -0.0427 -0.0908 -0.0319
 2713TIP3    H129630   4.698   2.747  12.624 -0.0664 -0.0928 -0.0198
 2713TIP3    H229631   4.631   2.614  12.602 -1.5294  0.6142  0.0324
 2714TIP3   OH229632   3.978   6.739   0.210  0.4925  0.0224 -0.1835
 2714TIP3    H129633   4.053   6.719   0.154  1.9866  0.9836  1.3586
 2714TIP3    H229634   3.983   6.675   0.281  0.8241  1.0209  0.7401
 2715TIP3   OH229635   1.170   3.792   2.003  0.0154  0.1042 -0.4441
 2715TIP3    H129636   1.227   3.733   2.052  0.0652  1.3001  0.9977
 2715TIP3    H229637   1.206   3.879   2.018 -1.3287  0.7386 -0.7318
 2716TIP3   OH229638   6.740   3.920   0.584 -0.2748 -0.5938 -0.2344
 2716TIP3    H129639   6.767   3.905   0.675  0.0233 -0.6696 -0.3330
 2716TIP3    H229640   6.686   3.844   0.563 -0.4704 -0.5019 -0.0745
 2717TIP3   OH229641   6.198   2.512  16.257 -0.1555  0.3837  0.2910
 2717TIP3    H129642   6.221   2.466  16.338 -0.7260 -0.5621 -0.0726
 2717TIP3    H229643   6.283   2.534  16.218  0.1778 -1.7069 -0.2774
 2718TIP3   OH229644   6.305   3.024  16.608  0.1993 -0.5828  0.4973
 2718TIP3    H129645   6.264   3.095  16.657 -0.3230 -0.5541  0.0263
 2718TIP3    H229646   6.232   2.975  16.572  0.5825  0.0433 -1.1957
 2719TIP3   OH229647   3.440   2.626  15.075 -0.1399  0.2948 -0.0028
 2719TIP3    H129648   3.408   2.544  15.037  0.6802 -0.2294  0.4178
 2719TIP3    H229649   3.453   2.606  15.167 -0.6183  1.1144  0.2482
 2720TIP3   OH229650   0.845   6.583  15.555 -0.8388  0.2268 -0.5589
 2720TIP3    H129651   0.923   6.546  15.513 -0.0135 -0.3684  1.3839
 2720TIP3    H229652   0.879   6.651  15.613 -2.0326  1.6295 -1.4408
 2721TIP3   OH229653   1.095   1.896   0.643 -0.0774  0.0916 -0.2341
 2721TIP3    H129654   1.058   1.858   0.564  0.7324 -1.2685  0.0065
 2721TIP3    H229655   1.066   1.839   0.714  0.5221  0.3643  0.2442
 2722TIP3   OH229656   6.615   1.001  14.667 -0.5873 -0.8310  0.8617
 2722TIP3    H129657   6.594   1.067  14.601 -0.2755  0.1192  1.6832
 2722TIP3    H229658   6.696   0.961  14.636 -0.0223  0.1434  1.0426
 2723TIP3   OH229659   4.438   0.204  13.477 -0.9715 -0.6998  0.0957
 2723TIP3    H129660   4.531   0.192  13.496 -0.7959  0.0370 -0.2444
 2723TIP3    H229661   4.395   0.126  13.513 -0.1669 -1.2750 -0.1744
 2724TIP3   OH229662   4.268   1.676   2.340 -0.7143  0.5052  0.1181
 2724TIP3    H129663   4.350   1.638   2.310 -0.3102  0.9425  0.6526
 2724TIP3    H229664   4.207   1.602   2.343 -0.3388  0.1791 -0.2785
 2725TIP3   OH229665   6.243   1.711   2.270  0.0824  0.6658  0.1510
 2725TIP3    H129666   6.303   1.668   2.331  0.9027 -0.5819 -1.4831
 2725TIP3    H229667   6.157   1.676   2.293  0.5348 -0.7041 -0.1378
 2726TIP3   OH229668   4.625   5.581   1.521 -0.4081 -0.5332  0.3989
 2726TIP3    H129669   4.619   5.644   1.592  1.1384  2.2278 -1.7071
 2726TIP3    H229670   4.542   5.589   1.474 -0.0084  0.3867 -0.1709
 2727TIP3   OH229671   5.261   4.551   3.017 -0.5373  0.2560  0.3428
 2727TIP3    H129672   5.239   4.476   3.074 -2.2895 -0.5255 -1.2586
 2727TIP3    H229673   5.300   4.615   3.077  1.9533 -2.2390  1.6428
 2728TIP3   OH229674   0.129   5.407  17.046  0.6580  0.3525 -0.0655
 2728TIP3    H129675   0.081   5.356  16.980  1.9721  0.9134 -1.5123
 2728TIP3    H229676   0.102   5.497  17.031  0.4737  0.4170  0.6204
 2729TIP3   OH229677   0.701   1.642   4.333 -0.3292  0.7290  0.4938
 2729TIP3    H129678   0.715   1.735   4.315 -1.0407  1.2343  2.2990
 2729TIP3    H229679   0.693   1.638   4.428  2.6246 -1.6116  0.7713
 2730TIP3   OH229680   1.001   1.332   1.246  0.3916  0.1936  0.2649
 2730TIP3    H129681   1.072   1.357   1.305  1.5414 -1.4084 -0.3773
 2730TIP3    H229682   0.921   1.361   1.291  1.4147  1.9281  1.0556
 2731TIP3   OH229683   4.639   3.015  13.908  0.4665 -0.3412  0.5359
 2731TIP3    H129684   4.674   2.973  13.830  2.6828 -2.0346  2.2876
 2731TIP3    H229685   4.558   3.057  13.879  1.9775  0.4896 -2.9644
 2732TIP3   OH229686   5.387   4.793   0.228  0.6094  0.4787  0.0788
 2732TIP3    H129687   5.477   4.799   0.194  1.0979 -0.5657  1.1085
 2732TIP3    H229688   5.373   4.699   0.243  0.3297  0.8226  2.3936
 2733TIP3   OH229689   0.764   0.634   3.631  0.1279 -0.1280 -0.1785
 2733TIP3    H129690   0.754   0.655   3.724  1.8686 -1.7807  0.4424
 2733TIP3    H229691   0.858   0.622   3.619  0.0353  0.9608 -2.3950
 2734TIP3   OH229692   5.986   2.500   1.812  0.0658 -0.1442  0.4203
 2734TIP3    H129693   5.911   2.521   1.868  0.0462  1.1932 -0.0652
 2734TIP3    H229694   6.005   2.408   1.830 -3.1971 -1.2797 -1.1986
 2735TIP3   OH229695   3.703   4.933   2.180 -0.1739  0.6823 -0.1835
 2735TIP3    H129696   3.668   4.994   2.245 -0.3066  0.3594  0.0472
 2735TIP3    H229697   3.701   4.848   2.223  0.0458  0.5182 -0.4935
 2736TIP3   OH229698   1.357   1.737   4.711 -0.0385  0.1438 -0.2415
 2736TIP3    H129699   1.414   1.813   4.728  0.8103 -0.5314  0.0069
 2736TIP3    H229700   1.290   1.771   4.652  1.0760  0.7859 -1.1970
 2737TIP3   OH229701   6.037   4.578   6.890  0.1273 -0.0169 -0.3701
 2737TIP3    H129702   6.023   4.660   6.844 -2.3745 -1.1144 -1.7335
 2737TIP3    H229703   6.132   4.573   6.901  0.3987  2.6789 -0.8486
 2738TIP3   OH229704   0.790   2.330   4.654  0.3919  0.3920 -0.1889
 2738TIP3    H129705   0.733   2.265   4.695 -1.2667  1.1794 -1.1425
 2738TIP3    H229706   0.846   2.361   4.725  0.1624 -0.9636  0.6158
 2739TIP3   OH229707   4.662   3.358  13.572  0.4662  0.0274  0.5846
 2739TIP3    H129708   4.594   3.291  13.577 -1.4149  1.8579  1.5395
 2739TIP3    H229709   4.708   3.352  13.656  0.6664 -0.4014  0.4464
 2740TIP3   OH229710   0.155   1.703   1.099  0.6360  0.1762  0.0364
 2740TIP3    H129711   0.195   1.757   1.168 -1.0364  0.3753  0.8880
 2740TIP3    H229712   0.193   1.616   1.111  0.3397  0.1996  1.2494
 2741TIP3   OH229713   0.149   3.544  15.682  0.4807 -0.0215 -0.1777
 2741TIP3    H129714   0.153   3.614  15.747 -3.2761 -0.4307  0.7282
 2741TIP3    H229715   0.088   3.575  15.616  2.8451 -0.3796 -2.6815
 2742TIP3   OH229716   3.906   2.543   6.192 -0.1176 -0.2076 -0.0758
 2742TIP3    H129717   3.850   2.471   6.164 -2.7794  1.2680  1.0740
 2742TIP3    H229718   3.896   2.546   6.287  0.0893  1.5102 -0.0711
 2743TIP3   OH229719   2.776   4.358   3.062  0.1933  0.0449  0.5928
 2743TIP3    H129720   2.801   4.363   2.969  0.2103  1.4949  0.6436
 2743TIP3    H229721   2.683   4.338   3.061 -0.3442  2.2549  0.1516
 2744TIP3   OH229722   0.318   4.904  15.758 -0.3869  0.0671  0.3144
 2744TIP3    H129723   0.317   4.929  15.666 -0.0280  0.5147  0.4283
 2744TIP3    H229724   0.358   4.979  15.803 -2.7289  0.9028  1.1427
 2745TIP3   OH229725   0.995   0.394  12.132  0.6518  0.4093 -0.2945
 2745TIP3    H129726   1.014   0.300  12.125 -1.0890  0.1353 -2.1454
 2745TIP3    H229727   0.903   0.397  12.158  1.3851  1.6779  2.5996
 2746TIP3   OH229728   2.412   2.768  17.486 -0.5752  0.3102  0.0446
 2746TIP3    H129729   2.469   2.745  17.559 -0.5641  0.9368  0.2465
 2746TIP3    H229730   2.401   2.863  17.494  0.6308  0.6435 -1.6261
 2747TIP3   OH229731   2.078   1.969   4.110 -0.3281 -0.0252 -0.4220
 2747TIP3    H129732   2.104   1.882   4.142  0.1170  0.0459 -0.5882
 2747TIP3    H229733   2.157   2.022   4.116 -0.6324  0.4118 -0.1939
 2748TIP3   OH229734   1.084   1.517  13.381  0.3697 -0.4504 -0.6365
 2748TIP3    H129735   1.169   1.478  13.399 -0.0720 -2.5650 -2.5923
 2748TIP3    H229736   1.105   1.604  13.345  1.5744 -0.2104  0.5715
 2749TIP3   OH229737   6.099   6.638  16.568  0.0070  1.0029  0.6102
 2749TIP3    H129738   6.152   6.690  16.507 -0.4338  0.5985 -0.1342
 2749TIP3    H229739   6.040   6.702  16.609  1.1067  1.4734  1.5152
 2750TIP3   OH229740   4.221   2.843  11.658 -0.4574 -0.3359  0.5804
 2750TIP3    H129741   4.260   2.862  11.572 -0.1231  1.8126  1.1300
 2750TIP3    H229742   4.178   2.925  11.683  0.2831 -0.5565  2.8620
 2751TIP3   OH229743   6.025   3.856   5.844 -0.5410 -0.5870  0.1394
 2751TIP3    H129744   5.985   3.773   5.870  1.5079 -1.8210 -0.4290
 2751TIP3    H229745   6.045   3.900   5.927 -0.8592 -1.0392  0.4603
 2752TIP3   OH229746   5.343   6.387  12.738  0.5004 -0.3037  0.3423
 2752TIP3    H129747   5.249   6.403  12.730  0.6957  1.2056  0.8203
 2752TIP3    H229748   5.380   6.416  12.655  0.4504 -1.9546 -0.2975
 2753TIP3   OH229749   5.008   2.058  12.956 -0.6422 -0.0984  0.0392
 2753TIP3    H129750   4.997   1.971  12.916 -3.0594  0.9037 -1.7180
 2753TIP3    H229751   5.006   2.118  12.883  0.6714  1.5188  1.2616
 2754TIP3   OH229752   0.327   6.153  15.633 -0.1640 -0.6619 -0.3643
 2754TIP3    H129753   0.331   6.226  15.695  2.7085 -0.1962 -0.9928
 2754TIP3    H229754   0.310   6.076  15.688 -1.8276  0.2194  0.4581
 2755TIP3   OH229755   2.905   6.500  15.974  0.0929  0.3092 -0.8152
 2755TIP3    H129756   2.866   6.453  16.047  0.8052 -0.8396 -1.1395
 2755TIP3    H229757   2.983   6.542  16.011  1.1548 -1.2907 -1.1267
 2756TIP3   OH229758   6.597   5.358  11.186 -0.7223 -0.4619 -0.1485
 2756TIP3    H129759   6.610   5.263  11.180 -0.5214 -0.5272  1.1972
 2756TIP3    H229760   6.649   5.386  11.261 -1.1300  0.6513 -0.2544
 2757TIP3   OH229761   4.737   3.369   5.189  0.0002 -0.1920 -0.6886
 2757TIP3    H129762   4.820   3.417   5.193 -0.5871  0.7994  0.1581
 2757TIP3    H229763   4.736   3.331   5.101  1.6903 -0.8797 -0.4616
 2758TIP3   OH229764   0.670   0.632  14.278 -0.0248  0.2976  0.2361
 2758TIP3    H129765   0.728   0.666  14.210 -0.8845  0.2800 -0.5201
 2758TIP3    H229766   0.719   0.560  14.317  0.9574  1.0496  0.4444
 2759TIP3   OH229767   2.613   0.753  17.369 -0.2386 -0.5977 -0.0510
 2759TIP3    H129768   2.540   0.773  17.311  1.4001 -1.1114 -2.4619
 2759TIP3    H229769   2.627   0.659  17.357  1.4355 -0.3267 -0.5061
 2760TIP3   OH229770   6.702   3.251   4.653  0.1562  0.2060 -0.2259
 2760TIP3    H129771   6.647   3.324   4.681  0.0837  0.9333 -2.1013
 2760TIP3    H229772   6.688   3.183   4.719 -0.1213  1.7091  1.3147
 2761TIP3   OH229773   4.913   3.885  13.945  0.0598  0.5179 -0.4082
 2761TIP3    H129774   4.974   3.816  13.970 -0.9747 -0.2688 -0.0030
 2761TIP3    H229775   4.968   3.962  13.932  1.2180 -0.3359 -0.7290
 2762TIP3   OH229776   1.840   0.333   2.279 -0.0884 -0.8424 -0.1765
 2762TIP3    H129777   1.860   0.335   2.373  2.8979 -0.5651 -0.7006
 2762TIP3    H229778   1.846   0.425   2.252  0.0563 -1.0317 -0.8023
 2763TIP3   OH229779   6.028   3.735   2.611 -0.2741 -0.2080  0.6029
 2763TIP3    H129780   6.106   3.768   2.566 -0.0849 -1.4506 -0.0242
 2763TIP3    H229781   5.983   3.682   2.545  0.5060 -2.8825  2.0847
 2764TIP3   OH229782   1.612   2.174  15.486  0.5490  0.5836  0.8295
 2764TIP3    H129783   1.527   2.181  15.529  0.3709  0.8793  0.4334
 2764TIP3    H229784   1.594   2.190  15.393  0.8725 -0.3734  0.5810
 2765TIP3   OH229785   0.607   0.608  14.662  0.4579 -0.2592 -0.4346
 2765TIP3    H129786   0.630   0.686  14.611  1.6679  0.3959  1.0455
 2765TIP3    H229787   0.652   0.536  14.618 -2.3805 -0.6533 -3.1456
 2766TIP3   OH229788   1.549   3.137   2.310  0.2769  0.5431  0.2339
 2766TIP3    H129789   1.566   3.127   2.216 -2.5251 -0.7992 -0.2118
 2766TIP3    H229790   1.549   3.048   2.344 -4.1222  0.3880  0.3495
 2767TIP3   OH229791   1.368   3.362   0.525  0.0803 -0.3668 -0.6658
 2767TIP3    H129792   1.388   3.273   0.554 -0.3342 -0.0451  0.6768
 2767TIP3    H229793   1.303   3.394   0.588  0.9718  1.2492 -0.5225
 2768TIP3   OH229794   0.168   0.115  11.710  0.2269  0.1265 -0.2450
 2768TIP3    H129795   0.089   0.066  11.688 -0.4548 -0.2516  2.6567
 2768TIP3    H229796   0.159   0.197  11.662 -1.2463 -0.4601 -1.0361
 2769TIP3   OH229797   2.630   2.412  17.062  0.1427  0.0517 -0.2964
 2769TIP3    H129798   2.690   2.486  17.064 -1.4523  1.4957 -1.9009
 2769TIP3    H229799   2.686   2.335  17.048  1.6274  1.2989 -1.5237
 2770TIP3   OH229800   1.965   3.323  14.436 -0.3284 -0.1589  0.4030
 2770TIP3    H129801   1.959   3.274  14.518 -0.2273 -0.5524  0.1779
 2770TIP3    H229802   2.041   3.381  14.448 -0.3033 -0.2277  0.5797
 2771TIP3   OH229803   3.332   1.417  12.974 -0.2404  0.2995 -0.2327
 2771TIP3    H129804   3.409   1.474  12.972  0.9915 -1.2987 -0.4483
 2771TIP3    H229805   3.321   1.388  12.884 -3.1264  2.9696 -0.9174
 2772TIP3   OH229806   1.184   6.737   6.491  0.2431 -0.0565 -0.1385
 2772TIP3    H129807   1.190   6.805   6.425 -0.2267  1.1127  0.9830
 2772TIP3    H229808   1.252   6.759   6.555 -0.3989 -0.2036  0.6097
 2773TIP3   OH229809   3.792   1.353   5.127  0.3868  0.4489 -0.3058
 2773TIP3    H129810   3.882   1.376   5.150  0.2937  0.4853  0.0337
 2773TIP3    H229811   3.800   1.275   5.073  0.7089  1.2609 -1.4861
 2774TIP3   OH229812   2.197   0.253  12.564  0.3958  0.2700  0.4190
 2774TIP3    H129813   2.229   0.191  12.629  1.2429 -0.8213 -0.9637
 2774TIP3    H229814   2.272   0.308  12.544  0.9461 -1.0115 -1.3830
 2775TIP3   OH229815   4.838   3.446   3.697 -0.5500 -0.3004 -0.3176
 2775TIP3    H129816   4.909   3.506   3.672 -0.9993 -0.1812 -1.3875
 2775TIP3    H229817   4.781   3.444   3.620  0.4534 -3.6567 -1.1497
 2776TIP3   OH229818   0.270   5.399  15.862  0.1011 -0.0580  0.2792
 2776TIP3    H129819   0.180   5.377  15.888  0.0488 -0.5124 -0.2478
 2776TIP3    H229820   0.322   5.323  15.890  0.1737 -0.1872 -0.1945
 2777TIP3   OH229821   3.235   2.233   0.954 -0.5450  0.3705  0.4298
 2777TIP3    H129822   3.183   2.174   0.900 -0.3444  0.4125  0.1898
 2777TIP3    H229823   3.315   2.184   0.973  0.2988  1.1065 -1.0281
 2778TIP3   OH229824   0.319   2.529  14.994 -0.4124  0.2140  0.2684
 2778TIP3    H129825   0.354   2.471  15.061 -0.0799  0.8298  0.6362
 2778TIP3    H229826   0.246   2.575  15.037 -1.4951 -0.8283 -0.3974
 2779TIP3   OH229827   5.260   6.750  15.370 -0.2731 -0.7966 -0.3512
 2779TIP3    H129828   5.311   6.825  15.400  1.4285 -1.6545 -0.9283
 2779TIP3    H229829   5.228   6.709  15.451 -3.0688  1.6357 -0.0527
 2780TIP3   OH229830   0.228   2.851  16.128  0.1216  0.2674 -0.2153
 2780TIP3    H129831   0.318   2.820  16.131  0.5639  1.4123 -0.7958
 2780TIP3    H229832   0.195   2.820  16.043 -0.4631 -1.2124  0.5210
 2781TIP3   OH229833   4.757   5.137   1.088  0.5717  0.2271  0.0585
 2781TIP3    H129834   4.754   5.165   0.996 -1.5481  1.9771  0.5583
 2781TIP3    H229835   4.707   5.056   1.090  1.1714 -0.1605 -0.4178
 2782TIP3   OH229836   5.451   1.201   2.650 -0.4561 -0.0663  0.0947
 2782TIP3    H129837   5.534   1.153   2.643  0.3057  1.3495 -1.0617
 2782TIP3    H229838   5.456   1.244   2.735  0.1517  0.2666 -0.1017
 2783TIP3   OH229839   2.149   3.497  11.699  0.8585 -0.1970 -0.2234
 2783TIP3    H129840   2.237   3.530  11.681  0.3726  0.8305 -0.7971
 2783TIP3    H229841   2.105   3.568  11.745 -0.2239  0.0221 -1.5154
 2784TIP3   OH229842   1.018   3.459  17.192 -0.3157 -0.1102 -0.0475
 2784TIP3    H129843   0.924   3.469  17.174 -0.4081 -1.5896 -0.5118
 2784TIP3    H229844   1.054   3.547  17.181 -1.3176  0.1161 -1.8746
 2785TIP3   OH229845   4.439   1.082  14.034 -0.1567  0.0168  0.2642
 2785TIP3    H129846   4.526   1.050  14.058 -0.5549 -0.5609  0.9866
 2785TIP3    H229847   4.394   1.094  14.117 -1.7366 -2.4675 -0.1240
 2786TIP3   OH229848   3.229   4.089  13.986  0.0340  0.2032 -0.0391
 2786TIP3    H129849   3.292   4.096  14.057 -1.7716  1.3688  1.5764
 2786TIP3    H229850   3.162   4.029  14.020 -0.9190  0.8831 -0.6802
 2787TIP3   OH229851   1.791   6.488   6.184  0.3790  0.3267 -0.0159
 2787TIP3    H129852   1.718   6.541   6.217  0.0981 -0.3445  0.4759
 2787TIP3    H229853   1.751   6.432   6.117  0.0560 -1.2046  1.3871
 2788TIP3   OH229854   0.563   4.946  14.028  0.2560 -0.6560  0.2996
 2788TIP3    H129855   0.496   4.986  13.972  0.5316 -1.4266 -0.6023
 2788TIP3    H229856   0.570   5.005  14.103 -0.9318 -0.1926  0.0698
 2789TIP3   OH229857   4.633   3.762   4.775  0.0017 -0.1633 -0.2844
 2789TIP3    H129858   4.633   3.794   4.865 -0.0639 -0.8166 -0.0475
 2789TIP3    H229859   4.726   3.750   4.755  0.0429  0.4253 -0.4707
 2790TIP3   OH229860   4.687   1.531  12.745 -0.4798 -0.1769  0.1111
 2790TIP3    H129861   4.610   1.582  12.770  1.2617  2.4787  0.3880
 2790TIP3    H229862   4.693   1.541  12.650 -0.9041 -1.1046 -0.0305
 2791TIP3   OH229863   2.425   2.413   4.951  0.2099  0.1232  0.0244
 2791TIP3    H129864   2.376   2.377   5.025 -0.0676  0.6668  0.1115
 2791TIP3    H229865   2.370   2.485   4.919  0.9576  0.7527  0.1341
 2792TIP3   OH229866   3.507   1.538  12.778  0.0249  0.0884 -0.7661
 2792TIP3    H129867   3.571   1.566  12.843  0.2508  0.7582 -1.2618
 2792TIP3    H229868   3.540   1.455  12.746  1.7365  1.3182 -2.4141
 2793TIP3   OH229869   3.914   1.232   3.788 -0.4666 -0.4686 -0.0519
 2793TIP3    H129870   3.890   1.313   3.832  1.3137 -0.5879  1.2843
 2793TIP3    H229871   3.848   1.220   3.720 -1.2675  1.6219  0.2974
 2794TIP3   OH229872   6.233   4.876   0.124  0.4832  0.3698  0.0302
 2794TIP3    H129873   6.245   4.790   0.085  1.2054 -0.0437  1.1390
 2794TIP3    H229874   6.206   4.932   0.051 -1.2502 -1.0513 -0.4890
 2795TIP3   OH229875   5.634   5.270   0.439 -0.3087 -0.0084 -0.1822
 2795TIP3    H129876   5.601   5.309   0.358 -0.5837  0.0405 -0.0481
 2795TIP3    H229877   5.723   5.305   0.448 -0.6727  0.8785  0.1213
 2796TIP3   OH229878   1.922   3.757   1.644 -0.2615 -0.2105  0.2968
 2796TIP3    H129879   1.962   3.783   1.727  0.4145  0.5195 -0.2478
 2796TIP3    H229880   1.830   3.743   1.665 -0.6670  2.5171  0.6665
 2797TIP3   OH229881   4.516   2.913  15.421  0.8317 -0.3274 -0.2525
 2797TIP3    H129882   4.513   3.005  15.396 -1.8240 -0.5250 -0.9353
 2797TIP3    H229883   4.544   2.867  15.342 -0.3859 -0.2889 -0.7340
 2798TIP3   OH229884   3.761   4.969   1.763 -0.7633  0.0362  0.1130
 2798TIP3    H129885   3.785   4.889   1.810  1.7725  2.6989  3.9365
 2798TIP3    H229886   3.841   4.995   1.717 -1.6258  0.2844 -1.2927
 2799TIP3   OH229887   3.508   1.156  15.699  0.3697  0.2138  0.1554
 2799TIP3    H129888   3.573   1.130  15.763  1.3927 -0.1238 -0.9775
 2799TIP3    H229889   3.509   1.252  15.701  0.1075  0.2055  0.9005
 2800TIP3   OH229890   1.377   0.457  14.966 -0.2647 -0.2800  0.0583
 2800TIP3    H129891   1.378   0.372  14.922 -1.0467  0.3062 -1.1393
 2800TIP3    H229892   1.419   0.440  15.050  1.6152 -1.3449 -1.0275
 2801TIP3   OH229893   3.533   6.472  13.594  0.2154 -0.4774  0.1916
 2801TIP3    H129894   3.550   6.533  13.522  0.8678 -0.1098  0.6517
 2801TIP3    H229895   3.438   6.463  13.595  0.2287 -0.9700 -1.1082
 2802TIP3   OH229896   2.636   5.001  13.956  0.3155 -0.3495  0.6418
 2802TIP3    H129897   2.646   4.922  13.903  0.7148  1.2525 -1.8194
 2802TIP3    H229898   2.580   5.058  13.903  0.7913  1.3821  1.9178
 2803TIP3   OH229899   3.592   1.148   2.257  0.0776  0.0960 -0.4385
 2803TIP3    H129900   3.609   1.203   2.333  0.8558 -2.9705  1.7961
 2803TIP3    H229901   3.657   1.175   2.192  1.8661  0.3514  1.3960
 2804TIP3   OH229902   2.340   4.428   0.730  0.9970 -0.0707 -0.3813
 2804TIP3    H129903   2.277   4.488   0.769  0.1703  0.7075 -2.7314
 2804TIP3    H229904   2.317   4.342   0.767 -0.3259  0.4680  0.1092
 2805TIP3   OH229905   0.030   6.127  14.324 -0.1579 -0.0902 -0.2301
 2805TIP3    H129906  -0.004   6.044  14.357  2.5907 -1.1970  0.0485
 2805TIP3    H229907   0.098   6.103  14.262  1.4784  1.9045  0.6529
 2806TIP3   OH229908   4.930   4.143  15.640  0.2365 -0.4133  0.3315
 2806TIP3    H129909   4.997   4.143  15.571 -1.5787  0.1419 -1.5411
 2806TIP3    H229910   4.929   4.233  15.672 -0.7680  0.0566 -0.9126
 2807TIP3   OH229911   3.154   2.118   5.511  0.4030 -0.2981 -0.1632
 2807TIP3    H129912   3.132   2.211   5.503  1.4548 -0.0389 -0.2411
 2807TIP3    H229913   3.152   2.100   5.605 -1.7110 -0.7139 -0.2299
 2808TIP3   OH229914   1.284   0.426   1.049  0.0101 -0.3414  0.1471
 2808TIP3    H129915   1.303   0.339   1.014 -0.8682 -0.2734 -0.5544
 2808TIP3    H229916   1.347   0.484   1.006 -0.5614 -0.3766 -0.7669
 2809TIP3   OH229917   4.704   1.393  16.827 -0.6705  0.2143 -0.2214
 2809TIP3    H129918   4.613   1.365  16.818 -1.1371  1.9661 -1.5980
 2809TIP3    H229919   4.701   1.467  16.887 -0.3418  0.9884 -1.1285
 2810TIP3   OH229920   2.577   5.785  12.301 -0.2026  0.3872 -0.1850
 2810TIP3    H129921   2.562   5.869  12.345  0.9883 -0.2405  1.5054
 2810TIP3    H229922   2.513   5.726  12.340  1.1291 -0.2747  1.1001
 2811TIP3   OH229923   2.284   5.112   1.601  0.2189 -0.0542 -0.0764
 2811TIP3    H129924   2.365   5.071   1.632 -1.4645 -4.0126 -0.3025
 2811TIP3    H229925   2.222   5.100   1.673 -1.4390 -1.7146 -1.6696
 2812TIP3   OH229926   1.958   3.793   1.913  0.0136  0.6120  0.0646
 2812TIP3    H129927   1.894   3.823   1.978  0.2926  1.1551  0.0971
 2812TIP3    H229928   1.975   3.701   1.936 -0.3999  0.6038  0.3400
 2813TIP3   OH229929   5.363   3.456  16.708 -1.0562  0.3068 -0.0923
 2813TIP3    H129930   5.442   3.418  16.747 -0.5890  1.3550  0.0265
 2813TIP3    H229931   5.352   3.408  16.626 -0.7094 -0.3377  0.2301
 2814TIP3   OH229932   1.366   6.419   3.005  0.3293  0.0767 -0.0512
 2814TIP3    H129933   1.317   6.471   2.942  0.8280  0.4783 -0.1207
 2814TIP3    H229934   1.406   6.485   3.063 -2.6673 -0.2771  2.7094
 2815TIP3   OH229935   6.563   1.809  12.971  0.3525 -0.2906 -0.4009
 2815TIP3    H129936   6.625   1.866  13.017  0.2104 -0.0403 -0.5189
 2815TIP3    H229937   6.581   1.722  13.006  0.8768 -0.2456 -0.5429
 2816TIP3   OH229938   1.637   5.232   2.484 -0.4306 -0.6177 -0.3326
 2816TIP3    H129939   1.602   5.157   2.532 -0.0628 -0.1420  0.7123
 2816TIP3    H229940   1.561   5.288   2.468 -0.2497  0.3728  1.8555
 2817TIP3   OH229941   3.793   1.505   1.565 -0.0378  0.2222 -0.1947
 2817TIP3    H129942   3.798   1.472   1.476  0.7014  0.0224 -0.0808
 2817TIP3    H229943   3.874   1.476   1.607 -1.2510 -1.4271  1.1505
 2818TIP3   OH229944   2.335   1.023   1.040  0.7122  0.0236  0.0860
 2818TIP3    H129945   2.382   1.039   0.959  0.7949 -0.9737 -0.0632
 2818TIP3    H229946   2.388   0.959   1.088 -0.9875 -2.0057 -0.5872
 2819TIP3   OH229947   4.737   1.228  13.381  0.0867  0.1272  0.1049
 2819TIP3    H129948   4.720   1.174  13.458 -2.0107  0.7655  0.1622
 2819TIP3    H229949   4.782   1.170  13.320  0.8765 -0.6832  1.4094
 2820TIP3   OH229950   3.453   3.984  11.697 -0.2262 -0.1001 -0.5030
 2820TIP3    H129951   3.507   3.929  11.640 -1.1568 -1.3768 -0.1966
 2820TIP3    H229952   3.365   3.949  11.687 -0.4937 -0.0598  1.3713
 2821TIP3   OH229953   0.486   5.677   2.053  0.0929  0.0008 -0.4669
 2821TIP3    H129954   0.430   5.606   2.085  1.0218 -0.6268 -0.1827
 2821TIP3    H229955   0.432   5.723   1.988 -0.8881 -0.3198  0.0995
 2822TIP3   OH229956   4.147   1.954   0.326  0.3147  0.2378  0.3277
 2822TIP3    H129957   4.146   1.914   0.239  0.5816  2.2354 -0.6505
 2822TIP3    H229958   4.068   1.921   0.369  0.7647 -1.6507 -0.2402
 2823TIP3   OH229959   3.457   2.455   3.765  0.2048 -0.2051 -0.0577
 2823TIP3    H129960   3.368   2.472   3.734 -0.2554 -3.2239 -0.7616
 2823TIP3    H229961   3.445   2.399   3.842  1.5196  0.9874  1.0797
 2824TIP3   OH229962   1.620   2.885  14.899 -0.3827  0.0282  0.6534
 2824TIP3    H129963   1.657   2.918  14.817 -2.1833  0.6797  0.0668
 2824TIP3    H229964   1.594   2.964  14.947 -2.2518 -0.3980  0.4214
 2825TIP3   OH229965   0.455   6.175  12.533 -0.1849 -0.1120  0.1197
 2825TIP3    H129966   0.370   6.173  12.489 -0.1641  2.2960 -0.1833
 2825TIP3    H229967   0.468   6.267  12.556  2.5150 -0.3198 -0.1910
 2826TIP3   OH229968   4.642   1.811  11.523  0.0171 -0.5727 -0.1486
 2826TIP3    H129969   4.680   1.756  11.591 -0.5312 -0.6556  0.0911
 2826TIP3    H229970   4.668   1.768  11.441  1.2331 -0.1124 -0.0291
 2827TIP3   OH229971   6.145   5.520   1.705  0.3897 -0.0802  0.2673
 2827TIP3    H129972   6.159   5.591   1.643 -0.2028 -0.9692 -0.9368
 2827TIP3    H229973   6.050   5.505   1.703  0.0180  1.2335  2.9915
 2828TIP3   OH229974   2.206   1.366  12.221 -0.0167 -0.5167 -0.6453
 2828TIP3    H129975   2.139   1.345  12.286  1.3792 -0.7715  0.7676
 2828TIP3    H229976   2.260   1.287  12.215  1.5447  0.4315  0.0412
 2829TIP3   OH229977   2.741   5.052   1.544 -0.3057 -0.4544  0.3095
 2829TIP3    H129978   2.712   4.962   1.532 -0.1870 -0.5062  0.4077
 2829TIP3    H229979   2.835   5.049   1.531 -0.4456 -0.1170 -0.9988
 2830TIP3   OH229980   5.743   4.649   4.927 -0.2265 -0.0318 -0.0596
 2830TIP3    H129981   5.830   4.666   4.892 -0.4180 -0.0988 -0.5815
 2830TIP3    H229982   5.743   4.555   4.948 -0.3339 -0.1482 -0.5480
 2831TIP3   OH229983   3.041   5.685  15.864 -0.3195  0.2104  0.5849
 2831TIP3    H129984   3.133   5.712  15.866 -0.0799 -0.5056 -0.3958
 2831TIP3    H229985   3.025   5.646  15.950 -0.3128  2.2305  1.5554
 2832TIP3   OH229986   1.829   5.506   6.195 -0.1442  0.1771  0.1552
 2832TIP3    H129987   1.882   5.585   6.203  1.0719 -0.7019  1.1804
 2832TIP3    H229988   1.792   5.492   6.282 -1.7610  0.5203 -0.4272
 2833TIP3   OH229989   0.701   5.535  16.761  0.1598 -0.2108  0.6645
 2833TIP3    H129990   0.667   5.456  16.805  1.9225 -0.2946  1.9720
 2833TIP3    H229991   0.654   5.537  16.678  1.1080 -3.5279 -0.1197
 2834TIP3   OH229992   1.534   2.061   1.902  0.0447 -0.3920 -0.6544
 2834TIP3    H129993   1.503   2.066   1.992  1.3227 -0.3897 -0.1950
 2834TIP3    H229994   1.455   2.054   1.849 -0.6842 -1.7759  0.5650
 2835TIP3   OH229995   1.065   4.227  15.796  0.0198  0.3657 -0.3415
 2835TIP3    H129996   0.982   4.187  15.823 -0.7984  0.8112 -2.0193
 2835TIP3    H229997   1.050   4.321  15.804  0.5280  0.4428 -0.2362
 2836TIP3   OH229998   5.838   4.660   5.230  0.1610 -0.2319  0.6521
 2836TIP3    H129999   5.747   4.643   5.253 -0.1205  0.0846 -0.1670
 2836TIP3    H230000   5.839   4.657   5.134  1.0677 -0.5121  0.6612
 2837TIP3   OH230001   5.806   1.539   5.465 -0.3794 -0.0900  0.3040
 2837TIP3    H130002   5.877   1.517   5.405  0.1106  1.4569  0.2661
 2837TIP3    H230003   5.727   1.508   5.421  0.0186  0.5871 -0.9395
 2838TIP3   OH230004   1.922   5.519  14.456  0.1010 -0.3661  0.3336
 2838TIP3    H130005   1.896   5.588  14.396  1.6654 -0.5074 -0.5728
 2838TIP3    H230006   1.870   5.443  14.430 -0.5614  0.0602  0.3838
 2839TIP3   OH230007   3.910   3.311  10.905 -0.3951  0.1992 -0.7066
 2839TIP3    H130008   3.979   3.378  10.898  0.5578 -0.7115 -0.2469
 2839TIP3    H230009   3.915   3.263  10.822  1.2610 -1.4691  0.2881
 2840TIP3   OH230010   5.191   2.570   3.622  0.4295  0.4621 -0.3351
 2840TIP3    H130011   5.118   2.509   3.615  1.2467 -0.5635 -0.1961
 2840TIP3    H230012   5.249   2.545   3.550  0.3855  1.6385 -0.8017
 2841TIP3   OH230013   2.278   4.080  16.550 -0.5192 -0.8059 -0.1276
 2841TIP3    H130014   2.210   4.020  16.518 -1.4955  0.7999 -1.1987
 2841TIP3    H230015   2.352   4.023  16.571 -1.7060 -2.4682 -0.2534
 2842TIP3   OH230016   1.622   3.249  15.286  0.4564  0.2433  0.3386
 2842TIP3    H130017   1.565   3.312  15.240  1.5304  1.2751  0.3780
 2842TIP3    H230018   1.597   3.257  15.378 -0.6618 -0.7377  0.1460
 2843TIP3   OH230019   4.253   1.916  13.852 -0.3332 -0.3314  0.4158
 2843TIP3    H130020   4.207   1.985  13.804 -0.7561  0.0521  1.3458
 2843TIP3    H230021   4.287   1.960  13.930  1.0911 -0.7497  0.0592
 2844TIP3   OH230022   6.247   4.865  12.585  0.1386  0.4753 -0.0429
 2844TIP3    H130023   6.301   4.786  12.593 -0.0171  0.5179  1.9483
 2844TIP3    H230024   6.303   4.935  12.618 -0.5149  0.8115  0.3667
 2845TIP3   OH230025   0.354   4.999   3.285  0.3699  0.1788 -0.1614
 2845TIP3    H130026   0.434   4.994   3.337 -0.7426  1.0297  1.7509
 2845TIP3    H230027   0.336   5.093   3.277 -1.1536 -0.0170  0.6397
 2846TIP3   OH230028   3.795   1.520   1.972 -0.1746 -0.0951 -0.1960
 2846TIP3    H130029   3.840   1.600   1.997 -2.0317  1.2676 -0.9693
 2846TIP3    H230030   3.862   1.452   1.974  1.6835  1.6633 -0.5193
 2847TIP3   OH230031   3.598   4.393  12.088  0.6272  0.0238 -0.2933
 2847TIP3    H130032   3.515   4.348  12.075 -1.2048  2.0301  3.1203
 2847TIP3    H230033   3.574   4.485  12.097  2.8308  0.4288  3.0988
 2848TIP3   OH230034   0.369   1.049   3.697  0.7891 -0.4315  0.4995
 2848TIP3    H130035   0.421   1.122   3.663 -1.0958  0.4610 -0.6666
 2848TIP3    H230036   0.313   1.024   3.623  0.1796 -1.8971  1.4279
 2849TIP3   OH230037   2.247   3.230  17.374 -0.3777  0.4492  0.7096
 2849TIP3    H130038   2.223   3.320  17.393 -0.1804  0.2413  2.0602
 2849TIP3    H230039   2.301   3.203  17.449 -1.6247 -1.2341  1.0800
 2850TIP3   OH230040   1.754   4.859   3.592  0.5125  0.2422 -0.3944
 2850TIP3    H130041   1.828   4.912   3.620  1.1177  0.2245 -1.8738
 2850TIP3    H230042   1.760   4.857   3.496 -0.6680 -0.8063 -0.4800
 2851TIP3   OH230043   6.133   4.931  14.792  0.2416 -0.1757  0.2011
 2851TIP3    H130044   6.209   4.963  14.840  1.1970 -0.6559 -0.9430
 2851TIP3    H230045   6.133   4.837  14.809 -0.0758 -0.1801  0.1699
 2852TIP3   OH230046   2.248   3.464   2.292  0.3878 -0.1029 -0.7671
 2852TIP3    H130047   2.307   3.536   2.316  0.0492  0.0297 -0.3364
 2852TIP3    H230048   2.162   3.505   2.285 -0.1643 -0.7882  1.3398
 2853TIP3   OH230049   0.140   0.319   6.587 -0.2257  0.1243  0.0578
 2853TIP3    H130050   0.219   0.356   6.548 -1.0876  1.4465 -0.4859
 2853TIP3    H230051   0.081   0.393   6.598 -0.5639 -0.4282  2.6111
 2854TIP3   OH230052   5.197   1.579  12.515 -0.4580 -0.2314  0.7260
 2854TIP3    H130053   5.112   1.589  12.559 -1.8073  0.2376 -1.7875
 2854TIP3    H230054   5.195   1.644  12.445  2.1115 -0.0747  0.7042
 2855TIP3   OH230055   0.597   4.805  13.649  0.0532 -0.4887 -0.7491
 2855TIP3    H130056   0.575   4.897  13.633  0.0799 -0.1965  0.7113
 2855TIP3    H230057   0.669   4.787  13.590 -0.0338  0.3937 -1.1463
 2856TIP3   OH230058   2.288   6.132   2.569  0.1993 -0.4654  0.6462
 2856TIP3    H130059   2.296   6.071   2.496 -1.2915 -0.8083  0.7280
 2856TIP3    H230060   2.355   6.198   2.552 -0.6778 -0.0248 -1.5563
 2857TIP3   OH230061   3.390   5.051  16.238  0.7063 -0.3223  0.1005
 2857TIP3    H130062   3.402   5.133  16.285 -0.5428  0.8191 -1.4756
 2857TIP3    H230063   3.477   5.029  16.205  1.1423  0.0890  0.9549
 2858TIP3   OH230064   5.940   6.535   2.014  0.1041 -0.2254  0.1758
 2858TIP3    H130065   5.878   6.607   2.026  0.2485 -0.1113  0.2497
 2858TIP3    H230066   6.023   6.578   1.991  0.2103 -0.3633  0.2928
 2859TIP3   OH230067   6.311   5.584  13.047  0.0897 -0.0861  0.0752
 2859TIP3    H130068   6.387   5.643  13.049 -0.5504  0.7621  0.2711
 2859TIP3    H230069   6.299   5.565  12.954  0.0250  0.4812 -0.0402
 2860TIP3   OH230070   2.818   0.475   2.219  0.3196 -0.2051  0.5753
 2860TIP3    H130071   2.811   0.535   2.145  2.1365  1.3666  1.5728
 2860TIP3    H230072   2.834   0.389   2.180 -0.0459  0.3515 -0.8516
 2861TIP3   OH230073   0.848   2.147   3.170  0.2840 -0.1891  0.3520
 2861TIP3    H130074   0.793   2.211   3.124 -0.4282  0.0660  1.5186
 2861TIP3    H230075   0.805   2.063   3.155  1.0143 -0.3649 -0.8713
 2862TIP3   OH230076   1.465   6.375   5.074  0.4971  0.5343  0.4245
 2862TIP3    H130077   1.505   6.306   5.127 -0.8209  0.9748  2.0838
 2862TIP3    H230078   1.449   6.447   5.136 -1.8780  0.7573 -0.3250
 2863TIP3   OH230079   4.670   3.976  14.337  0.1533  0.1955  0.0888
 2863TIP3    H130080   4.742   4.016  14.386  0.2040  1.2442 -0.7972
 2863TIP3    H230081   4.593   3.990  14.391  0.2563  1.0753  0.0223
 2864TIP3   OH230082   2.199   2.247  12.481  0.3032  0.2587 -0.5905
 2864TIP3    H130083   2.284   2.256  12.523 -0.9899  1.3672  1.9853
 2864TIP3    H230084   2.162   2.166  12.517 -0.8742  1.2777  0.5652
 2865TIP3   OH230085   0.357   0.647   5.237  0.0938 -0.1198 -0.0472
 2865TIP3    H130086   0.338   0.730   5.192  0.5372  0.2628  0.4586
 2865TIP3    H230087   0.349   0.668   5.330  3.2380  0.2088  0.2646
 2866TIP3   OH230088   5.670   0.997  16.735  0.0168  0.2174 -0.3870
 2866TIP3    H130089   5.683   1.024  16.826  0.4410 -0.5586 -0.2103
 2866TIP3    H230090   5.758   1.000  16.696  0.0568 -0.7638 -0.3958
 2867TIP3   OH230091   1.133   3.887  12.592 -0.3303  0.5794 -0.0949
 2867TIP3    H130092   1.090   3.819  12.643 -0.4428  1.4433  0.9963
 2867TIP3    H230093   1.176   3.839  12.520 -1.7151 -0.4550 -0.2737
 2868TIP3   OH230094   6.408   3.255   5.113  0.3120  0.4084  0.4864
 2868TIP3    H130095   6.439   3.294   5.194 -0.7031  3.0952 -0.3167
 2868TIP3    H230096   6.315   3.238   5.128  0.4258 -0.4146  0.3303
 2869TIP3   OH230097   3.832   1.971   4.659 -0.8464 -0.0227 -0.5449
 2869TIP3    H130098   3.770   1.937   4.723 -1.0913 -0.2374 -0.8950
 2869TIP3    H230099   3.885   2.034   4.708 -0.0007 -1.3134  0.2549
 2870TIP3   OH230100   5.299   3.012   3.296  0.0316  0.5147  0.3141
 2870TIP3    H130101   5.279   2.964   3.215  2.3931  2.5298 -1.5964
 2870TIP3    H230102   5.378   2.969   3.330 -0.7957 -0.1502  1.4990
 2871TIP3   OH230103   4.540   4.737  15.853  0.3277 -0.1320 -0.0038
 2871TIP3    H130104   4.588   4.779  15.925 -0.1119 -0.5466  0.5456
 2871TIP3    H230105   4.499   4.810  15.806  0.5603  0.1434  0.2118
 2872TIP3   OH230106   3.927   5.070   2.739 -0.0820 -0.7989  0.3284
 2872TIP3    H130107   3.911   4.989   2.691 -0.7143 -0.9795  0.8260
 2872TIP3    H230108   3.932   5.043   2.831  0.4983 -0.3769  0.4239
 2873TIP3   OH230109   4.542   1.640   2.308  0.4197 -0.2496 -0.3033
 2873TIP3    H130110   4.570   1.729   2.287 -0.2411 -0.2564 -1.2966
 2873TIP3    H230111   4.586   1.585   2.243 -2.4264 -0.1692 -2.5251
 2874TIP3   OH230112   2.455   6.051  15.543  0.4209  0.6638 -0.2192
 2874TIP3    H130113   2.425   6.085  15.627  0.3472 -2.1143  0.9992
 2874TIP3    H230114   2.535   6.003  15.563  1.0195  0.8499 -1.9486
 2875TIP3   OH230115   4.447   5.362  14.159 -0.0525 -0.5011 -0.7436
 2875TIP3    H130116   4.368   5.385  14.110  0.8727  1.6134 -1.3683
 2875TIP3    H230117   4.517   5.408  14.113  1.0532  0.5636  1.8280
 2876TIP3   OH230118   2.312   1.456   1.326  0.2213 -0.2221 -0.6948
 2876TIP3    H130119   2.289   1.470   1.234 -0.0356  2.6223 -0.2936
 2876TIP3    H230120   2.305   1.543   1.365  2.8516 -0.8589  1.4570
 2877TIP3   OH230121   1.209   5.133   5.345 -0.1933 -0.2677 -0.1075
 2877TIP3    H130122   1.229   5.058   5.289  1.1703 -0.3054  0.3905
 2877TIP3    H230123   1.142   5.101   5.405  1.4920 -1.6036  1.1326
 2878TIP3   OH230124   5.041   1.965  14.802 -0.1358 -0.1027  0.5989
 2878TIP3    H130125   5.128   1.936  14.775 -0.7645 -1.9835  0.3848
 2878TIP3    H230126   4.987   1.953  14.724 -0.8245 -0.1017  1.0644
 2879TIP3   OH230127   4.509   3.892  16.731 -0.2343 -0.0047 -0.5867
 2879TIP3    H130128   4.546   3.958  16.672 -0.7303 -0.9783 -2.0572
 2879TIP3    H230129   4.526   3.925  16.819  0.9989  1.2557 -1.2687
 2880TIP3   OH230130   5.393   3.245   3.233  0.2359  0.3252 -0.4845
 2880TIP3    H130131   5.393   3.156   3.268 -0.7108  1.0796  1.6631
 2880TIP3    H230132   5.478   3.281   3.259 -0.3405  0.7830  0.8532
 2881TIP3   OH230133   5.350   1.086  16.935 -0.1069  0.8603  0.5628
 2881TIP3    H130134   5.444   1.072  16.947  0.0398  1.1185 -0.2747
 2881TIP3    H230135   5.339   1.181  16.937 -0.3848  0.8272  0.8383
 2882TIP3   OH230136   1.118   2.200   2.123 -0.0504  0.1475  0.2742
 2882TIP3    H130137   1.157   2.113   2.132 -0.6753 -0.1790 -0.0786
 2882TIP3    H230138   1.043   2.187   2.065 -0.8162  0.7204  1.1006
 2883TIP3   OH230139   5.143   2.993   6.152 -0.1292 -0.1920  0.1663
 2883TIP3    H130140   5.120   3.078   6.115 -0.6074 -0.3300  0.1500
 2883TIP3    H230141   5.067   2.938   6.137  1.0379 -1.3256 -1.9587
 2884TIP3   OH230142   2.366   5.737   0.248 -0.1075 -0.3870 -0.6943
 2884TIP3    H130143   2.442   5.692   0.285 -0.2059 -0.7653 -0.9414
 2884TIP3    H230144   2.311   5.666   0.215  0.9169 -0.0360 -3.4264
 2885TIP3   OH230145   6.578   4.621   1.361  0.5177  0.2031  0.3967
 2885TIP3    H130146   6.671   4.602   1.360  0.2320 -1.4892  1.5390
 2885TIP3    H230147   6.540   4.557   1.301  0.0649  0.7406  0.1006
 2886TIP3   OH230148   3.413   4.553   1.052 -0.6242  0.0140 -0.4635
 2886TIP3    H130149   3.417   4.459   1.070  0.5850  0.5306  2.6952
 2886TIP3    H230150   3.502   4.576   1.023 -0.9702  0.1748 -1.4259
 2887TIP3   OH230151   6.311   1.844  16.522 -0.0346 -0.1220  0.4266
 2887TIP3    H130152   6.234   1.810  16.566  0.4839 -0.4465  1.1128
 2887TIP3    H230153   6.323   1.788  16.446 -0.7733  0.2599  0.0249
 2888TIP3   OH230154   2.871   2.212  13.427 -0.9120 -0.3705 -0.2901
 2888TIP3    H130155   2.963   2.240  13.430 -0.9432 -0.2606 -0.3618
 2888TIP3    H230156   2.850   2.211  13.334 -0.8442 -0.8489 -0.3029
 2889TIP3   OH230157   6.002   2.821  15.391 -0.3307  0.7194 -0.1221
 2889TIP3    H130158   5.987   2.915  15.388  0.1010  0.9175  2.0247
 2889TIP3    H230159   6.050   2.807  15.473  0.6932 -1.2357 -0.9791
 2890TIP3   OH230160   3.572   5.298  16.504  0.2218  0.1560  0.2260
 2890TIP3    H130161   3.504   5.364  16.520 -0.1375 -0.1849  0.1231
 2890TIP3    H230162   3.579   5.293  16.409  0.8059  0.6052  0.2372
 2891TIP3   OH230163   6.466   3.906  14.961  0.2980 -0.6518  0.0177
 2891TIP3    H130164   6.461   3.887  14.868  1.8141 -1.2237  0.0344
 2891TIP3    H230165   6.535   3.848  14.994 -0.6544 -0.9322  1.6159
 2892TIP3   OH230166   6.294   1.634  14.034 -0.2367  0.7124  0.2252
 2892TIP3    H130167   6.305   1.557  13.977  2.1075  1.0392  0.1413
 2892TIP3    H230168   6.291   1.598  14.122  0.2052  0.4676  0.1445
 2893TIP3   OH230169   2.885   4.042  16.584  0.5186  0.2398 -0.4981
 2893TIP3    H130170   2.922   4.117  16.630  0.3974  0.6711 -1.0950
 2893TIP3    H230171   2.942   4.028  16.508  0.0026  0.3308 -0.9122
 2894TIP3   OH230172   5.308   6.366   0.580  0.0254 -0.0648 -0.1956
 2894TIP3    H130173   5.367   6.440   0.567 -0.8422  1.2250  2.3882
 2894TIP3    H230174   5.351   6.312   0.646 -0.0740 -1.0606 -0.9225
 2895TIP3   OH230175   0.897   3.748   5.619  0.1116  0.0397  0.1718
 2895TIP3    H130176   0.882   3.654   5.627  1.9098 -0.2797  0.3776
 2895TIP3    H230177   0.852   3.773   5.539 -1.9058 -0.6155  1.0313
 2896TIP3   OH230178   1.752   5.456  13.963 -0.4752 -0.1041 -0.3943
 2896TIP3    H130179   1.705   5.387  13.917  0.3396 -2.0809  1.5879
 2896TIP3    H230180   1.845   5.436  13.949 -0.1744  1.5430 -1.0763
 2897TIP3   OH230181   5.104   2.293   4.525  0.3422 -0.5156  0.8691
 2897TIP3    H130182   5.033   2.277   4.463 -0.3846  0.9028  1.2982
 2897TIP3    H230183   5.069   2.265   4.610  1.2677 -2.2798  0.7104
 2898TIP3   OH230184   5.469   5.879   0.082  0.7290  0.1510 -0.1330
 2898TIP3    H130185   5.376   5.890   0.102  0.3524 -3.0964  0.4508
 2898TIP3    H230186   5.470   5.834  -0.003  1.7996  0.4743 -0.3087
 2899TIP3   OH230187   1.330   3.445  14.502 -0.4460  0.3857 -0.7401
 2899TIP3    H130188   1.397   3.389  14.462 -1.1578 -0.3865 -0.8725
 2899TIP3    H230189   1.360   3.534  14.484 -0.3784  0.0679 -2.4152
 2900TIP3   OH230190   0.013   3.876   2.446 -0.5271  0.2520  0.3624
 2900TIP3    H130191   0.088   3.929   2.419  0.2253 -0.5857  0.7427
 2900TIP3    H230192  -0.000   3.814   2.373 -1.4265  0.9652 -0.0999
 2901TIP3   OH230193   6.553   3.456   1.813  0.4248 -0.0017 -0.1882
 2901TIP3    H130194   6.507   3.385   1.858 -0.3080  0.4381 -0.2194
 2901TIP3    H230195   6.593   3.414   1.737 -1.9703 -0.0356 -1.5472
 2902TIP3   OH230196   2.895   2.036  12.642  0.3176  0.4227 -0.2776
 2902TIP3    H130197   2.863   2.069  12.726 -0.2362  0.7192 -0.5948
 2902TIP3    H230198   2.846   2.087  12.577 -0.0799 -0.5880 -0.7798
 2903TIP3   OH230199   5.575   6.033   5.198 -0.0022 -0.3483  0.4096
 2903TIP3    H130200   5.578   6.071   5.286 -0.6354  0.2623  0.1839
 2903TIP3    H230201   5.634   6.087   5.146 -0.8311  0.2990  0.1099
 2904TIP3   OH230202   5.692   5.841  12.757  0.2656 -0.3800  0.1935
 2904TIP3    H130203   5.601   5.860  12.777  0.2873 -0.1156  0.0368
 2904TIP3    H230204   5.722   5.915  12.705 -0.0554 -1.5227 -1.7010
 2905TIP3   OH230205   3.410   3.047   0.870 -0.3430 -0.0022  0.1230
 2905TIP3    H130206   3.362   3.096   0.937 -1.5420 -1.0371  0.0450
 2905TIP3    H230207   3.468   2.990   0.919  1.1871  1.5582  0.2152
 2906TIP3   OH230208   6.024   6.674  11.324 -0.7786 -0.7158 -0.0553
 2906TIP3    H130209   6.037   6.755  11.274 -1.5906  0.1256  1.0571
 2906TIP3    H230210   6.033   6.604  11.259  0.9559  0.1931 -0.8614
 2907TIP3   OH230211   3.096   4.164  12.922 -0.5748 -0.5471  0.4905
 2907TIP3    H130212   3.176   4.183  12.872 -0.6536  1.3402  0.9902
 2907TIP3    H230213   3.030   4.147  12.855 -0.7477  2.2428 -0.1732
 2908TIP3   OH230214   4.604   2.736   1.517 -0.1141  0.4486  0.1059
 2908TIP3    H130215   4.612   2.666   1.452  0.4896 -0.9783  1.6479
 2908TIP3    H230216   4.683   2.728   1.570 -1.1337  0.7917  1.7489
 2909TIP3   OH230217   3.797   1.128  14.688 -0.5776 -0.4763 -0.4645
 2909TIP3    H130218   3.739   1.054  14.703  0.5083 -0.8999  2.1801
 2909TIP3    H230219   3.867   1.093  14.633 -0.1618 -1.3950  0.6212
 2910TIP3   OH230220   3.628   6.025  16.814 -0.5346 -0.1700 -0.2004
 2910TIP3    H130221   3.690   6.082  16.768 -1.3414  1.1305  0.2778
 2910TIP3    H230222   3.554   6.017  16.754 -1.2937  0.9723  0.5495
 2911TIP3   OH230223   0.693   5.202  12.124  0.7314  0.4719  0.0706
 2911TIP3    H130224   0.688   5.284  12.173 -0.0315  0.7628 -0.4652
 2911TIP3    H230225   0.751   5.221  12.051 -0.8961  1.1403 -1.1140
 2912TIP3   OH230226   2.024   4.856  12.121 -0.2878  0.5828  0.3288
 2912TIP3    H130227   2.002   4.767  12.095 -2.1404  0.6617  1.4121
 2912TIP3    H230228   1.995   4.910  12.047 -1.4360  0.4461  0.6458
 2913TIP3   OH230229   6.655   5.761   1.134  0.3508 -0.2638 -0.7040
 2913TIP3    H130230   6.594   5.749   1.061 -0.0967  0.7101 -0.5072
 2913TIP3    H230231   6.620   5.837   1.182 -0.6435 -2.1284  1.7873
 2914TIP3   OH230232   2.374   3.576  13.693 -0.1672 -0.2195  0.0756
 2914TIP3    H130233   2.390   3.507  13.758 -0.8180  0.7658  1.3109
 2914TIP3    H230234   2.322   3.533  13.626  0.8001 -1.3484  0.0020
 2915TIP3   OH230235   3.040   5.792  15.471  0.1629  0.5731 -0.2472
 2915TIP3    H130236   3.051   5.700  15.445  0.5433  0.5445  0.0169
 2915TIP3    H230237   3.009   5.788  15.561 -0.0467  0.6990 -0.3146
 2916TIP3   OH230238   6.199   2.001  11.907  0.2841 -0.4809 -0.7146
 2916TIP3    H130239   6.121   2.050  11.882 -0.5602 -1.7602 -0.7085
 2916TIP3    H230240   6.166   1.929  11.962  1.2619 -1.9389 -1.9408
 2917TIP3   OH230241   1.912   3.269  10.721  0.6034 -0.4663  0.3632
 2917TIP3    H130242   1.880   3.216  10.648  0.1874 -1.2992  1.1335
 2917TIP3    H230243   1.998   3.232  10.741  0.0112 -1.3551  1.3693
 2918TIP3   OH230244   5.585   6.521   4.908 -0.2435  0.1257  0.0565
 2918TIP3    H130245   5.668   6.568   4.909 -0.6173  0.9185 -1.9632
 2918TIP3    H230246   5.587   6.469   4.828 -2.0455  0.8445 -0.5069
 2919TIP3   OH230247   3.778   1.319  15.049  0.1198 -0.3630 -0.2831
 2919TIP3    H130248   3.731   1.329  15.132  0.6690  1.5212 -0.1320
 2919TIP3    H230249   3.712   1.335  14.981 -0.1898 -1.2638 -0.2051
 2920TIP3   OH230250   0.608   1.079  14.430  0.0487 -0.9236  0.0227
 2920TIP3    H130251   0.702   1.100  14.433 -0.4190  1.5145  0.0604
 2920TIP3    H230252   0.573   1.140  14.365 -1.7836 -0.5837  1.2669
 2921TIP3   OH230253   3.860   0.924  13.255 -0.0198  0.1379  0.2775
 2921TIP3    H130254   3.850   0.852  13.193 -1.2283  0.9478 -0.5296
 2921TIP3    H230255   3.855   0.883  13.341 -3.1967 -0.5705 -0.0873
 2922TIP3   OH230256   6.351   2.316  13.693  0.0119 -0.3338  0.4772
 2922TIP3    H130257   6.425   2.275  13.736  1.1333  0.1930 -0.8810
 2922TIP3    H230258   6.301   2.242  13.656 -0.4719 -0.7212  1.8359
 2923TIP3   OH230259   0.667   2.018  11.697  0.1407 -0.3638 -0.4905
 2923TIP3    H130260   0.592   2.014  11.757  0.2158 -0.1370 -0.3814
 2923TIP3    H230261   0.739   2.050  11.751  1.3067 -4.0418  0.4012
 2924TIP3   OH230262   3.938   5.070   0.237  0.3651 -0.1603  0.0383
 2924TIP3    H130263   3.891   5.148   0.208 -1.0818 -1.0318 -0.1044
 2924TIP3    H230264   3.998   5.050   0.165  1.5350  1.3932  0.5330
 2925TIP3   OH230265   1.982   6.275   0.434 -0.2215 -0.0056  0.0721
 2925TIP3    H130266   1.994   6.262   0.340 -0.3916  0.0684  0.0400
 2925TIP3    H230267   1.888   6.269   0.447 -0.6001  3.0944 -0.2759
 2926TIP3   OH230268   5.540   4.690  13.735  0.0560  0.2605  0.2068
 2926TIP3    H130269   5.552   4.733  13.650  2.8550  1.6659  1.1930
 2926TIP3    H230270   5.600   4.615  13.733  0.7049  0.7341  1.1933
 2927TIP3   OH230271   1.215   4.250   0.013  0.3058  0.4870  0.2551
 2927TIP3    H130272   1.240   4.277   0.102 -0.4493 -1.9910  1.3252
 2927TIP3    H230273   1.120   4.260   0.011  0.2000 -0.4860  0.1214
 2928TIP3   OH230274   4.460   5.907   2.915  0.2477 -0.4496  0.3283
 2928TIP3    H130275   4.384   5.898   2.858 -0.0024  1.9145  0.1993
 2928TIP3    H230276   4.524   5.845   2.880 -1.4801 -2.2900  0.2811
 2929TIP3   OH230277   4.366   3.277  11.516 -0.6449 -0.4781  0.0843
 2929TIP3    H130278   4.314   3.357  11.513  0.3890  0.3073  1.6763
 2929TIP3    H230279   4.444   3.296  11.465 -1.3164 -1.2250 -1.2681
 2930TIP3   OH230280   3.528   0.438  16.124 -0.3323 -0.2674  0.0323
 2930TIP3    H130281   3.507   0.433  16.217 -2.0046  0.4003 -0.2660
 2930TIP3    H230282   3.593   0.370  16.110 -1.9320 -2.1285  1.1881
 2931TIP3   OH230283   5.955   5.105  11.235 -0.6246  0.3502  0.3689
 2931TIP3    H130284   6.020   5.169  11.266 -1.1746 -0.2332  2.9248
 2931TIP3    H230285   5.885   5.159  11.198  0.5683  1.0432 -0.9583
 2932TIP3   OH230286   4.025   3.787   5.907 -0.3979  0.4067 -0.1409
 2932TIP3    H130287   4.117   3.805   5.924 -0.5106  0.7704  0.0921
 2932TIP3    H230288   3.978   3.844   5.967 -0.7725 -0.2056  0.1610
 2933TIP3   OH230289   2.977   1.043  13.231  0.0507  0.0470  0.0011
 2933TIP3    H130290   3.053   1.063  13.177  1.2056 -1.8108  0.8388
 2933TIP3    H230291   3.005   1.064  13.320 -1.9643  3.4777  0.0064
 2934TIP3   OH230292   2.271   1.830  14.677  0.1685  0.5279 -0.1863
 2934TIP3    H130293   2.248   1.833  14.770  1.5614  2.1417  0.1601
 2934TIP3    H230294   2.208   1.889  14.635 -0.1259  0.2136 -0.1897
 2935TIP3   OH230295   2.030   5.841   5.051  0.1954  0.2266 -0.1126
 2935TIP3    H130296   2.001   5.751   5.064  1.1097  0.0632  0.9530
 2935TIP3    H230297   2.030   5.853   4.956  0.1584 -0.9206 -0.2678
 2936TIP3   OH230298   5.247   1.226   4.840  0.0425  0.0884 -0.1873
 2936TIP3    H130299   5.258   1.271   4.756 -1.1351 -0.2533 -0.5400
 2936TIP3    H230300   5.196   1.148   4.819 -2.6796  1.3463  1.2176
 2937TIP3   OH230301   0.502   5.784  13.958 -0.1911  0.0932  0.3907
 2937TIP3    H130302   0.565   5.742  14.016  0.5788  0.4397 -0.1838
 2937TIP3    H230303   0.517   5.744  13.873  1.7728  2.6493 -0.6046
 2938TIP3   OH230304   4.736   3.730  12.336 -0.4029 -0.0010 -0.6269
 2938TIP3    H130305   4.663   3.761  12.282 -1.7280  0.2864  1.2411
 2938TIP3    H230306   4.723   3.773  12.421  0.6042 -1.7815  0.4886
 2939TIP3   OH230307   0.001   5.704   0.067  0.1128 -0.9258 -0.4460
 2939TIP3    H130308  -0.063   5.664   0.008 -0.0023 -1.4415  0.0190
 2939TIP3    H230309   0.019   5.789   0.028 -1.8827 -0.1761  0.1384
 2940TIP3   OH230310   3.193   0.291   1.487  0.5207  0.7329 -0.0111
 2940TIP3    H130311   3.151   0.350   1.425  0.1685  0.0717 -0.4172
 2940TIP3    H230312   3.235   0.348   1.551 -0.9999  1.4390  0.4135
 2941TIP3   OH230313   1.792   0.649   3.094  0.2909 -0.2581  0.5270
 2941TIP3    H130314   1.885   0.627   3.103  0.4313 -1.2764 -2.3781
 2941TIP3    H230315   1.749   0.596   3.161  1.6311 -1.3807  0.5584
 2942TIP3   OH230316   2.797   3.409  16.956  0.2369  0.4181 -0.0217
 2942TIP3    H130317   2.795   3.502  16.977 -1.5916  0.5786 -0.6561
 2942TIP3    H230318   2.705   3.385  16.943  0.6380 -1.5238  0.2842
 2943TIP3   OH230319   0.818   1.530  13.112 -0.9177 -0.3423  0.6033
 2943TIP3    H130320   0.787   1.516  13.022 -0.0886  0.5014  0.1676
 2943TIP3    H230321   0.798   1.622  13.130  2.0414  0.5494 -0.0454
 2944TIP3   OH230322   6.743   6.740   0.184 -0.5450  0.1903 -0.0098
 2944TIP3    H130323   6.656   6.778   0.194 -0.5166 -0.0234  1.2098
 2944TIP3    H230324   6.796   6.780   0.254  0.4080  0.4941 -0.8748
 2945TIP3   OH230325   1.318   2.875   1.258 -0.4746  0.1059  0.0277
 2945TIP3    H130326   1.232   2.890   1.298 -0.7538 -2.2190  0.4669
 2945TIP3    H230327   1.299   2.864   1.165 -0.4092  1.2635 -0.1295
 2946TIP3   OH230328   5.799   4.624   1.051 -0.2876 -0.5177  0.2862
 2946TIP3    H130329   5.789   4.609   0.957  0.3925 -2.9239  0.5414
 2946TIP3    H230330   5.821   4.717   1.058  0.2701 -0.4213 -1.9693
 2947TIP3   OH230331   2.457   6.426   2.536 -0.0708  0.8079 -0.8637
 2947TIP3    H130332   2.426   6.507   2.577  0.7694  0.7413 -0.0532
 2947TIP3    H230333   2.498   6.454   2.454 -1.7436  0.9495 -1.6772
 2948TIP3   OH230334   0.586   1.425   4.075 -0.1240  0.0385 -0.2631
 2948TIP3    H130335   0.532   1.374   4.015  0.2814 -0.8324  0.0847
 2948TIP3    H230336   0.668   1.440   4.027  0.3348 -0.9583  0.1720
 2949TIP3   OH230337   0.768   1.844  13.878  0.4782 -0.2761  0.5699
 2949TIP3    H130338   0.693   1.785  13.877  0.4789 -0.3003 -1.2024
 2949TIP3    H230339   0.731   1.929  13.854  1.1223 -0.4936 -1.3590
 2950TIP3   OH230340   4.999   2.145   5.621  0.4408  0.0146  0.2636
 2950TIP3    H130341   4.924   2.095   5.588 -1.6586  1.0009  3.1808
 2950TIP3    H230342   5.060   2.078   5.653 -0.4143 -0.7604  0.3118
 2951TIP3   OH230343   4.239   4.413   4.942  0.1340  0.3657 -0.2347
 2951TIP3    H130344   4.275   4.402   4.854  2.1099 -1.1568  0.6947
 2951TIP3    H230345   4.223   4.324   4.973  0.3798  0.8277  1.2985
 2952TIP3   OH230346   1.816   1.312   4.810  0.1254 -0.5071 -0.2853
 2952TIP3    H130347   1.825   1.387   4.750 -0.9992 -1.5473 -1.8108
 2952TIP3    H230348   1.871   1.336   4.885 -0.2092  1.8588 -0.6932
 2953TIP3   OH230349   1.221   1.360   4.721 -0.2996  0.0490  0.3176
 2953TIP3    H130350   1.310   1.395   4.729  0.2133 -1.2541  0.5890
 2953TIP3    H230351   1.167   1.437   4.705  1.1700  0.6631 -2.2986
 2954TIP3   OH230352   5.233   0.947   1.613 -0.2787  0.1484 -0.2191
 2954TIP3    H130353   5.155   1.004   1.615 -0.2605  0.1571  0.3391
 2954TIP3    H230354   5.219   0.891   1.536 -1.4836 -0.7457  0.6032
 2955TIP3   OH230355   3.117   5.438   1.034  0.1318 -1.2243 -0.2674
 2955TIP3    H130356   3.206   5.426   0.999  2.1977  1.4915  3.2886
 2955TIP3    H230357   3.107   5.366   1.096  0.3252 -0.9235  0.1157
 2956TIP3   OH230358   2.642   5.518   6.148 -0.0433  0.2559  0.1935
 2956TIP3    H130359   2.715   5.578   6.131  2.2276 -2.4635 -0.3090
 2956TIP3    H230360   2.600   5.506   6.063 -1.3778  2.0714  0.5412
 2957TIP3   OH230361   4.775   0.385   4.733 -0.0390  0.4779  0.0333
 2957TIP3    H130362   4.707   0.319   4.746  1.3948 -1.0257  0.3504
 2957TIP3    H230363   4.837   0.368   4.804  1.9106  0.1147 -1.6589
 2958TIP3   OH230364   3.068   6.444   5.172 -0.3083  0.3900  0.3480
 2958TIP3    H130365   3.058   6.538   5.189  0.6386  0.6710 -0.5277
 2958TIP3    H230366   3.152   6.437   5.126 -0.9032 -0.7569 -0.6101
 2959TIP3   OH230367   2.115   3.477   4.138  0.2057  0.4816  0.2889
 2959TIP3    H130368   2.070   3.437   4.064 -0.4493  0.7650  0.5284
 2959TIP3    H230369   2.120   3.408   4.203 -0.3516  0.5976  0.4586
 2960TIP3   OH230370   5.329   2.616  11.610 -0.2125 -0.6703  0.4768
 2960TIP3    H130371   5.285   2.632  11.526  1.4270 -0.2634 -0.3457
 2960TIP3    H230372   5.302   2.689  11.665  0.5904  0.4186 -0.5211
 2961TIP3   OH230373   5.742   3.751  13.413  0.4376 -0.1132 -0.2218
 2961TIP3    H130374   5.765   3.682  13.474 -0.2194 -0.9767 -0.9346
 2961TIP3    H230375   5.687   3.709  13.347 -0.1822  1.1321 -0.5392
 2962TIP3   OH230376   3.049   1.880  13.266 -0.4581 -0.4113 -0.0114
 2962TIP3    H130377   3.133   1.922  13.282 -1.5361  1.5014  0.9439
 2962TIP3    H230378   3.069   1.786  13.269  2.0467 -0.0963 -2.2674
 2963TIP3   OH230379   3.987   5.904   1.620 -0.5644 -0.3990 -0.9069
 2963TIP3    H130380   3.925   5.972   1.646  0.3244  0.1494 -0.1504
 2963TIP3    H230381   3.933   5.837   1.578 -1.7519 -0.2164  0.2432
 2964TIP3   OH230382   1.318   0.528  16.529 -0.1674 -0.1954  0.3152
 2964TIP3    H130383   1.398   0.569  16.494 -0.4739  0.8794  0.8408
 2964TIP3    H230384   1.305   0.450  16.474  0.8597 -0.0147 -0.2089
 2965TIP3   OH230385   1.763   6.167   0.740 -0.0516 -0.4374  0.2051
 2965TIP3    H130386   1.788   6.238   0.799  1.4420  0.0119 -0.9176
 2965TIP3    H230387   1.699   6.116   0.790  2.2053 -0.9625  2.8383
 2966TIP3   OH230388   3.302   3.461  15.552 -0.2457  0.2562 -0.3745
 2966TIP3    H130389   3.221   3.423  15.517  0.8327 -2.9717  0.2402
 2966TIP3    H230390   3.303   3.434  15.644  1.9738 -0.7602 -0.6318
 2967TIP3   OH230391   4.390   3.299   4.744  0.2002  0.3078 -0.0499
 2967TIP3    H130392   4.445   3.376   4.731  1.5267 -0.8417 -1.6879
 2967TIP3    H230393   4.431   3.231   4.691 -1.5727 -1.2307  0.4415
 2968TIP3   OH230394   5.305   3.493  14.849  0.2987  0.5069  0.4212
 2968TIP3    H130395   5.228   3.550  14.857  0.4071  0.6581  0.3962
 2968TIP3    H230396   5.272   3.414  14.805  0.2108  0.6750  0.1824
 2969TIP3   OH230397   4.378   0.162   0.432  0.8700  0.1292  0.3999
 2969TIP3    H130398   4.411   0.155   0.342  0.4163 -2.5202  0.3586
 2969TIP3    H230399   4.325   0.242   0.432  1.4007  0.5312 -1.5090
 2970TIP3   OH230400   2.979   6.502   1.751  0.0003  0.0357 -0.2977
 2970TIP3    H130401   3.063   6.507   1.706  0.1970 -0.6923 -0.0189
 2970TIP3    H230402   2.996   6.540   1.838  0.4684 -1.5331  0.3430
 2971TIP3   OH230403   0.651   4.019  16.322  0.1995 -0.0086  0.0029
 2971TIP3    H130404   0.729   4.031  16.377  1.6790  0.4479 -2.0442
 2971TIP3    H230405   0.663   3.933  16.283 -0.5565 -0.1175  0.0060
 2972TIP3   OH230406   4.307   2.078   0.812 -0.3245 -0.3758 -0.4897
 2972TIP3    H130407   4.361   2.146   0.771 -2.9654  1.4589 -1.1935
 2972TIP3    H230408   4.267   2.032   0.738 -0.7851 -0.8263  0.0319
 2973TIP3   OH230409   6.702   0.990  15.741  0.1310  0.2029  0.2983
 2973TIP3    H130410   6.746   1.074  15.752  1.0977 -0.1270 -0.9669
 2973TIP3    H230411   6.768   0.925  15.764  0.3230 -0.2898 -1.5107
 2974TIP3   OH230412   4.505   2.278  10.826  0.9795 -0.5580 -0.2511
 2974TIP3    H130413   4.411   2.274  10.810  0.8425  1.1635 -0.1332
 2974TIP3    H230414   4.542   2.318  10.747  1.5972 -1.0378 -0.2196
 2975TIP3   OH230415   2.485   4.243   1.490  0.5365  0.3489  0.2994
 2975TIP3    H130416   2.391   4.258   1.499  0.6129  1.3667 -0.4541
 2975TIP3    H230417   2.509   4.192   1.568 -0.9187 -1.3714 -0.3160
 2976TIP3   OH230418   1.424   0.431  11.196 -0.2898  0.4707 -0.1704
 2976TIP3    H130419   1.411   0.346  11.153 -0.9123 -0.2420  1.3457
 2976TIP3    H230420   1.418   0.495  11.125 -2.1596 -0.5726 -1.0274
 2977TIP3   OH230421   6.399   2.608  16.106  0.0137  0.3143 -0.7440
 2977TIP3    H130422   6.371   2.699  16.113  0.2262  0.5122 -2.1343
 2977TIP3    H230423   6.494   2.611  16.108  0.1751 -0.3981  4.4304
 2978TIP3   OH230424   2.910   5.555   0.187  0.0224  0.0396 -0.5267
 2978TIP3    H130425   2.890   5.595   0.272 -1.9018  0.7000 -1.2541
 2978TIP3    H230426   2.999   5.520   0.198 -1.0418 -2.1002  2.5845
 2979TIP3   OH230427   2.457   0.736  10.598 -0.2231 -0.0579 -0.1732
 2979TIP3    H130428   2.551   0.756  10.599 -0.2595  0.1778 -0.9976
 2979TIP3    H230429   2.453   0.641  10.595 -0.0230 -0.1035  0.6788
 2980TIP3   OH230430   6.393   5.015  12.948 -0.2077  0.4739 -0.2995
 2980TIP3    H130431   6.431   5.001  13.035  0.6803 -1.9415 -0.9769
 2980TIP3    H230432   6.299   5.007  12.961 -0.1533  1.2120  0.6028
 2981TIP3   OH230433   0.616   2.534  12.418 -0.4926  0.2332  0.0380
 2981TIP3    H130434   0.619   2.570  12.330 -0.1774  2.2749  0.8380
 2981TIP3    H230435   0.527   2.499  12.427 -0.2830 -0.7205 -1.3212
 2982TIP3   OH230436   3.703   1.726   5.149  0.2815  0.1380  0.3674
 2982TIP3    H130437   3.617   1.709   5.186  0.7599 -3.1228  0.2501
 2982TIP3    H230438   3.699   1.688   5.061  1.7082  0.3022  0.2099
 2983TIP3   OH230439   2.849   4.302   6.330 -0.0557 -0.1016 -0.4443
 2983TIP3    H130440   2.786   4.233   6.352  0.2399 -0.0284  0.6608
 2983TIP3    H230441   2.901   4.314   6.409 -1.1634  2.5387  0.0148
 2984TIP3   OH230442   3.292   1.765  13.534 -0.5679 -0.4181 -0.0043
 2984TIP3    H130443   3.310   1.790  13.625  0.5589  0.0609 -0.3491
 2984TIP3    H230444   3.276   1.671  13.538  2.4629 -1.0173  0.3224
 2985TIP3   OH230445   4.470   3.152  15.245  0.0127 -0.0926  0.6689
 2985TIP3    H130446   4.457   3.218  15.313 -2.4061 -0.4568  0.6534
 2985TIP3    H230447   4.563   3.158  15.222  0.6949  0.6604  3.3424
 2986TIP3   OH230448   4.827   6.305  11.643 -0.2905  0.0047  0.0886
 2986TIP3    H130449   4.921   6.300  11.661 -0.3894 -2.9279  0.2848
 2986TIP3    H230450   4.795   6.374  11.702  1.7260  1.2179 -0.1508
 2987TIP3   OH230451   5.857   1.955   0.846  0.5357  0.7754  0.3741
 2987TIP3    H130452   5.766   1.925   0.846 -0.1405  2.6245 -1.2149
 2987TIP3    H230453   5.877   1.971   0.938 -0.3299 -0.7680  0.8611
 2988TIP3   OH230454   0.396   5.946   4.977  1.0485  0.0069 -0.4811
 2988TIP3    H130455   0.344   5.921   4.901  1.2572 -0.7882 -0.3776
 2988TIP3    H230456   0.480   5.903   4.964  2.0180  2.0294 -1.0898
 2989TIP3   OH230457   0.878   5.979   2.647 -0.2372 -0.2623  0.1086
 2989TIP3    H130458   0.815   5.908   2.633 -0.8572  0.7048 -2.6270
 2989TIP3    H230459   0.831   6.058   2.622  1.4908  0.6981 -0.2452
 2990TIP3   OH230460   0.985   2.188   0.778 -0.2881  0.0776  0.7577
 2990TIP3    H130461   1.018   2.123   0.717 -0.0866  0.1911  0.7442
 2990TIP3    H230462   1.005   2.153   0.865  0.0325  0.2316  0.7463
 2991TIP3   OH230463   6.583   6.026  11.938  0.2874  0.4550 -0.6036
 2991TIP3    H130464   6.523   6.083  11.890  0.2465 -0.2069 -1.3692
 2991TIP3    H230465   6.634   5.982  11.869  0.2573 -0.4913 -0.0418
 2992TIP3   OH230466   2.685   5.578  14.832  0.4255 -0.1383 -0.1061
 2992TIP3    H130467   2.632   5.601  14.756 -1.8308 -0.0003  1.4426
 2992TIP3    H230468   2.752   5.519  14.796 -0.6512 -0.2148 -2.1626
 2993TIP3   OH230469   4.757   3.279  15.665  0.0202  0.0121 -0.3251
 2993TIP3    H130470   4.799   3.215  15.608 -1.9392 -0.8093 -0.9508
 2993TIP3    H230471   4.767   3.242  15.753  2.0855  0.7279 -0.2234
 2994TIP3   OH230472   0.937   5.396  14.602  0.0044 -0.1205  0.1914
 2994TIP3    H130473   1.003   5.464  14.587  1.9191 -1.8829  0.2775
 2994TIP3    H230474   0.858   5.429  14.557  1.8149  0.6488 -2.7030
 2995TIP3   OH230475   0.029   2.467   0.002  0.3420 -0.2557 -0.1267
 2995TIP3    H130476   0.105   2.516   0.035 -0.5832  0.7670  0.5441
 2995TIP3    H230477   0.068   2.396  -0.050  1.7523  0.9161 -0.7780
 2996TIP3   OH230478   2.605   3.505   1.252 -0.5807 -0.2958 -0.0421
 2996TIP3    H130479   2.665   3.439   1.288  0.4270  0.1152 -0.9024
 2996TIP3    H230480   2.661   3.563   1.201 -1.5406  0.8799  0.1891
 2997TIP3   OH230481   2.596   6.671  14.665 -0.3962 -0.3477  0.0618
 2997TIP3    H130482   2.602   6.765  14.650 -0.5661 -0.7937 -3.6387
 2997TIP3    H230483   2.510   6.658  14.705 -1.4562  0.9108 -1.7048
 2998TIP3   OH230484   2.942   2.927   1.011 -0.8057 -0.1647 -0.1071
 2998TIP3    H130485   2.847   2.930   0.997 -1.1335 -1.9210  1.3703
 2998TIP3    H230486   2.957   2.846   1.059  1.1658  1.2139  1.8366
 2999TIP3   OH230487   6.419   1.369   3.630  0.7389 -0.3402 -0.6332
 2999TIP3    H130488   6.327   1.371   3.656  1.1935  0.3798  1.0262
 2999TIP3    H230489   6.425   1.433   3.559 -0.1048 -0.7217 -1.0697
 3000TIP3   OH230490   2.641   1.142  17.048  0.1243  1.1087 -0.5987
 3000TIP3    H130491   2.659   1.053  17.017 -1.1419  1.1899 -1.6780
 3000TIP3    H230492   2.660   1.198  16.973  0.8086  1.7448  0.0389
 3001TIP3   OH230493   4.950   2.811  14.212  0.1296 -0.0499  0.2128
 3001TIP3    H130494   4.968   2.836  14.302 -1.0095 -0.9349  0.7082
 3001TIP3    H230495   4.862   2.843  14.195  0.6523  0.8782 -0.8951
 3002TIP3   OH230496   0.413   2.280   4.582  0.0643 -0.1726 -0.1070
 3002TIP3    H130497   0.446   2.292   4.671 -1.1336  0.2359  0.3032
 3002TIP3    H230498   0.355   2.355   4.568  0.4789 -0.0733 -1.3540
 3003TIP3   OH230499   0.940   1.799   3.102  0.3632 -0.8073  0.2175
 3003TIP3    H130500   0.943   1.860   3.028  2.4143 -1.4250 -0.2582
 3003TIP3    H230501   0.884   1.843   3.166 -0.7892  0.1264 -1.3356
 3004TIP3   OH230502   3.443   3.533  13.200  0.1792  0.8710 -0.3998
 3004TIP3    H130503   3.504   3.576  13.259  0.2241 -0.3414  0.4893
 3004TIP3    H230504   3.364   3.520  13.254  0.8077 -1.7905  0.0094
 3005TIP3   OH230505   2.960   6.209   0.270 -0.0344  0.1053  0.2807
 3005TIP3    H130506   2.977   6.146   0.200 -0.5710  0.4621 -0.1732
 3005TIP3    H230507   2.865   6.214   0.275 -0.0463 -1.0124  2.0214
 3006TIP3   OH230508   0.972   3.518   2.934 -0.6882  0.0926  0.1582
 3006TIP3    H130509   0.911   3.585   2.904  0.0319  0.9051  0.4748
 3006TIP3    H230510   1.028   3.563   2.996  0.2149 -0.6559 -0.0967
 3007TIP3   OH230511   1.675   5.223  14.816  0.2888 -0.3463  0.3036
 3007TIP3    H130512   1.658   5.170  14.894  2.2839 -0.0153  1.0041
 3007TIP3    H230513   1.653   5.312  14.842 -1.6016 -0.5369 -0.4085
 3008TIP3   OH230514   0.966   1.412  13.969 -0.3556 -0.0383 -0.0931
 3008TIP3    H130515   0.873   1.390  13.968  0.0087 -1.8228 -1.3829
 3008TIP3    H230516   1.009   1.332  14.000  0.7085  1.0949  1.4736
 3009TIP3   OH230517   1.445   1.495   3.838 -0.0661  0.1749 -0.0248
 3009TIP3    H130518   1.349   1.492   3.838 -0.0634 -0.4413 -1.0026
 3009TIP3    H230519   1.472   1.405   3.821  0.6522  0.5462 -0.9691
 3010TIP3   OH230520   4.900   0.814  13.333 -0.1872 -0.3142  0.3608
 3010TIP3    H130521   4.821   0.827  13.386  0.4878  0.7933  1.1411
 3010TIP3    H230522   4.891   0.877  13.261  0.2231  0.1670  0.7312
 3011TIP3   OH230523   5.784   4.640  15.061  0.1582 -0.5938 -0.6372
 3011TIP3    H130524   5.826   4.660  14.978  2.5818  0.8114  0.8226
 3011TIP3    H230525   5.809   4.549  15.080  2.7971  0.2485  0.2555
 3012TIP3   OH230526   1.584   2.278   5.780  0.0178 -0.7909 -0.3166
 3012TIP3    H130527   1.576   2.231   5.863 -0.2510  0.7625  0.5854
 3012TIP3    H230528   1.657   2.338   5.793 -1.6598  1.3527 -0.1845
 3013TIP3   OH230529   3.267   4.188   4.403 -0.7162 -0.4630 -0.1699
 3013TIP3    H130530   3.202   4.227   4.345 -0.8975 -1.3034 -0.5535
 3013TIP3    H230531   3.226   4.109   4.436 -0.0304 -0.8152 -0.1283
 3014TIP3   OH230532   0.805   3.551  13.357 -0.1589 -0.3264  0.0304
 3014TIP3    H130533   0.771   3.476  13.309  0.1410 -1.3424  1.3259
 3014TIP3    H230534   0.873   3.514  13.414 -0.0693  0.9076  0.7680
 3015TIP3   OH230535   5.289   4.108   1.122  0.3369  0.5704  0.2613
 3015TIP3    H130536   5.327   4.159   1.193  2.1832  0.0971 -0.3318
 3015TIP3    H230537   5.358   4.047   1.096 -0.6031  0.1105 -1.3304
 3016TIP3   OH230538   0.660   1.378   6.277 -0.0074  0.2708  0.0745
 3016TIP3    H130539   0.750   1.395   6.249  0.3743  0.7717  1.4976
 3016TIP3    H230540   0.618   1.464   6.277 -0.4986  0.0382 -0.5920
 3017TIP3   OH230541   0.653   5.323  15.193  0.0686  0.0692 -0.1006
 3017TIP3    H130542   0.644   5.415  15.166  1.8906  0.1411 -0.6130
 3017TIP3    H230543   0.729   5.324  15.251 -0.1293 -1.0737  0.1879
 3018TIP3   OH230544   5.142   4.259   4.162  0.2801  0.8368  0.6357
 3018TIP3    H130545   5.099   4.276   4.078  1.4496  3.0077  0.4055
 3018TIP3    H230546   5.206   4.190   4.143 -0.8690 -0.1628  0.2642
 3019TIP3   OH230547   2.900   1.802   5.282  0.0994 -0.2718 -0.2746
 3019TIP3    H130548   2.815   1.812   5.238 -0.0698  1.1840  0.3189
 3019TIP3    H230549   2.883   1.827   5.373  1.2078  0.2949 -0.2103
 3020TIP3   OH230550   3.281   4.329  17.323  0.0387  0.3358  0.0347
 3020TIP3    H130551   3.368   4.325  17.283 -0.2399  0.7056 -0.6188
 3020TIP3    H230552   3.264   4.239  17.352  0.5128  0.2010 -0.0894
 3021TIP3   OH230553   2.452   4.970  14.165 -0.0042 -0.3478  0.0031
 3021TIP3    H130554   2.510   4.965  14.089 -0.0497  0.5503 -0.1082
 3021TIP3    H230555   2.497   5.030  14.225 -0.6687  0.1138  0.0442
 3022TIP3   OH230556   6.127   5.028  12.969  0.2857  0.2540 -0.0123
 3022TIP3    H130557   6.060   5.074  13.021  0.6351  1.2304 -0.3943
 3022TIP3    H230558   6.078   4.967  12.915 -0.2486  0.5195  0.1629
 3023TIP3   OH230559   4.253   5.669   6.408 -0.3365 -0.7224  0.6569
 3023TIP3    H130560   4.254   5.637   6.318  1.2974 -0.4778  0.5462
 3023TIP3    H230561   4.167   5.708   6.420 -0.4293 -0.4042 -0.9335
 3024TIP3   OH230562   4.125   3.023  16.940  0.0764 -0.2739  0.2249
 3024TIP3    H130563   4.034   2.995  16.928 -0.8009  0.5560  3.7780
 3024TIP3    H230564   4.167   2.950  16.984  0.1310  0.6017  1.6894
 3025TIP3   OH230565   3.500   6.083  15.362 -0.1034  0.2357 -0.4400
 3025TIP3    H130566   3.483   6.054  15.452 -0.5787 -1.7608 -1.1053
 3025TIP3    H230567   3.432   6.148  15.344 -1.2865 -0.8370  0.0101
 3026TIP3   OH230568   4.325   5.127   3.776  0.1105  0.0610 -0.0342
 3026TIP3    H130569   4.316   5.220   3.796 -2.3801  0.1930 -1.3716
 3026TIP3    H230570   4.250   5.107   3.720  0.7390 -2.7047 -0.0354
 3027TIP3   OH230571   4.983   4.883   2.889 -0.1859 -0.3667  0.3916
 3027TIP3    H130572   4.983   4.827   2.966 -1.2030  0.4428  1.0149
 3027TIP3    H230573   5.031   4.833   2.823  0.8253 -1.0213  1.5727
 3028TIP3   OH230574   4.823   3.634  13.036 -0.3537  0.1377  0.2499
 3028TIP3    H130575   4.802   3.687  13.113 -2.0646  0.2359 -0.2511
 3028TIP3    H230576   4.747   3.576  13.026  0.1741 -0.3701 -0.9454
 3029TIP3   OH230577   2.534   6.644   5.409  0.1600  0.2027  0.0552
 3029TIP3    H130578   2.467   6.712   5.404  0.4466  0.4714 -0.2045
 3029TIP3    H230579   2.606   6.685   5.458 -0.2180 -0.3842  1.1126
 3030TIP3   OH230580   0.788   5.548   0.480 -0.1322  0.2195 -0.3910
 3030TIP3    H130581   0.695   5.565   0.465 -0.2914 -1.3121 -1.3675
 3030TIP3    H230582   0.825   5.537   0.393  0.8706  0.3553  0.0096
 3031TIP3   OH230583   4.838   6.147  11.929  0.4777  0.0922  1.0583
 3031TIP3    H130584   4.753   6.124  11.893  0.0987  2.8528 -0.0446
 3031TIP3    H230585   4.819   6.205  12.003  1.3168  2.4470 -0.4597
 3032TIP3   OH230586   4.369   3.264   6.469 -0.1644 -0.0847  0.1261
 3032TIP3    H130587   4.379   3.239   6.561  1.2009  0.4812  0.1448
 3032TIP3    H230588   4.449   3.235   6.426 -0.7046 -0.1705 -0.8595
 3033TIP3   OH230589   5.657   5.173   3.008  0.6315  0.3094  0.5844
 3033TIP3    H130590   5.623   5.176   3.097 -0.7065 -0.4182  0.1318
 3033TIP3    H230591   5.694   5.260   2.993 -0.4444  0.9237  1.3535
 3034TIP3   OH230592   0.125   2.499  11.868  0.3082  0.0156 -0.9904
 3034TIP3    H130593   0.081   2.415  11.851  0.2751  0.2044 -1.8697
 3034TIP3    H230594   0.053   2.560  11.883  0.3465 -0.4515  1.4656
 3035TIP3   OH230595   3.389   4.225  12.080 -0.1114  0.3951 -0.3853
 3035TIP3    H130596   3.313   4.204  12.025 -0.7449  1.0363  0.2238
 3035TIP3    H230597   3.458   4.168  12.048 -0.7045  0.1714 -1.3031
 3036TIP3   OH230598   0.214   2.011  13.204  0.1227  0.1372  0.5205
 3036TIP3    H130599   0.276   1.972  13.266 -0.3825 -0.1891  0.8225
 3036TIP3    H230600   0.265   2.023  13.124  0.4420 -0.5835  0.6108
 3037TIP3   OH230601   2.865   2.128  14.319  0.1087 -0.1154  0.0956
 3037TIP3    H130602   2.890   2.189  14.389 -1.2331  0.4882  0.0754
 3037TIP3    H230603   2.789   2.169  14.277 -0.5755 -1.6061 -0.1902
 3038TIP3   OH230604   2.381   4.051   2.644 -0.0210 -0.1640  0.4683
 3038TIP3    H130605   2.308   4.095   2.601 -0.5474  0.5371  2.0104
 3038TIP3    H230606   2.378   3.961   2.613 -0.2476  0.3607 -1.0858
 3039TIP3   OH230607   4.778   1.824  14.681  0.1390 -0.6875  0.2324
 3039TIP3    H130608   4.704   1.860  14.632  0.1391 -1.4549 -0.3438
 3039TIP3    H230609   4.754   1.837  14.773  0.6458  1.8088  0.0812
 3040TIP3   OH230610   6.300   2.573   1.423  0.2448 -0.2012 -0.7225
 3040TIP3    H130611   6.316   2.518   1.346 -2.2193  0.1490 -1.5950
 3040TIP3    H230612   6.274   2.657   1.386 -2.3940 -0.4327  0.3624
 3041TIP3   OH230613   2.041   3.190  16.763 -0.4572 -0.3677  0.0538
 3041TIP3    H130614   2.048   3.151  16.676 -0.4395 -0.4793  0.1055
 3041TIP3    H230615   1.982   3.265  16.752 -0.9938 -0.7868  0.0896
 3042TIP3   OH230616   2.724   5.453  12.633 -0.1995  0.0310 -0.0124
 3042TIP3    H130617   2.763   5.384  12.687  2.5282 -0.2332 -2.1080
 3042TIP3    H230618   2.790   5.522  12.630 -0.6378  0.4361 -2.1609
 3043TIP3   OH230619   5.450   0.356   2.232  0.1789 -0.4861 -0.2601
 3043TIP3    H130620   5.377   0.294   2.240  0.8200 -1.6025 -2.4187
 3043TIP3    H230621   5.525   0.302   2.209  0.8231  1.0504 -1.9545
 3044TIP3   OH230622   2.368   2.755  14.909  0.3469  0.3568 -0.4589
 3044TIP3    H130623   2.440   2.718  14.960 -0.4752 -1.4354 -0.5202
 3044TIP3    H230624   2.405   2.835  14.871  2.1540 -0.2521 -0.1151
 3045TIP3   OH230625   0.397   5.923   3.330  0.2109 -0.3000 -0.3345
 3045TIP3    H130626   0.428   5.964   3.249  1.9522 -2.7120 -1.0254
 3045TIP3    H230627   0.470   5.868   3.359 -1.5638 -2.1637  0.9803
 3046TIP3   OH230628   0.354   3.364   0.752 -0.0958  0.2417 -0.3706
 3046TIP3    H130629   0.270   3.320   0.740 -1.0789  2.1874 -1.0124
 3046TIP3    H230630   0.364   3.371   0.847 -1.1653  0.8937 -0.2951
 3047TIP3   OH230631   3.996   0.744   3.206  0.3716  0.2305  0.4204
 3047TIP3    H130632   4.030   0.752   3.296  0.4070  0.0755  0.4203
 3047TIP3    H230633   3.901   0.754   3.216  0.2954 -0.5800  0.5769
 3048TIP3   OH230634   3.848   0.229   4.162 -0.1254 -0.2786 -0.6260
 3048TIP3    H130635   3.875   0.290   4.232 -2.1043 -0.8328  0.6990
 3048TIP3    H230636   3.870   0.275   4.081  1.9625  0.5251  0.3137
 3049TIP3   OH230637   4.982   1.377  13.153  0.1051  0.6774 -0.3986
 3049TIP3    H130638   4.929   1.454  13.173 -1.9901 -1.1779  1.8810
 3049TIP3    H230639   4.962   1.358  13.062 -0.3832  2.0615 -0.6068
 3050TIP3   OH230640   3.344   4.225  13.780 -0.7006  0.2822 -0.1912
 3050TIP3    H130641   3.303   4.199  13.862 -2.7369 -0.6162 -1.4268
 3050TIP3    H230642   3.415   4.162  13.767  0.0318  0.7940  1.1111
 3051TIP3   OH230643   4.940   3.718   5.333  0.5900  0.5160  0.1476
 3051TIP3    H130644   5.033   3.712   5.357  0.9009  0.6356 -0.9820
 3051TIP3    H230645   4.911   3.800   5.373  0.6210 -0.1261  1.5782
 3052TIP3   OH230646   6.395   3.592  14.389  0.1276  0.1488 -0.1931
 3052TIP3    H130647   6.365   3.522  14.331 -1.0108  1.2946 -1.0629
 3052TIP3    H230648   6.328   3.598  14.457  1.4184 -1.1327  1.2611
 3053TIP3   OH230649   3.531   1.690   4.615  0.4439  0.0944  0.7881
 3053TIP3    H130650   3.524   1.767   4.559 -0.1204 -0.9172 -0.5951
 3053TIP3    H230651   3.588   1.717   4.686  0.4178  1.7233  0.2263
 3054TIP3   OH230652   3.802   6.658  12.184 -0.0024 -0.5709  0.1273
 3054TIP3    H130653   3.893   6.685  12.191 -0.1677 -0.3723  2.0448
 3054TIP3    H230654   3.798   6.573  12.229 -0.5035 -1.2647 -1.1867
 3055TIP3   OH230655   3.113   3.802   1.271  0.0946  0.4364 -0.2136
 3055TIP3    H130656   3.140   3.869   1.334 -1.4505  0.9605 -0.0692
 3055TIP3    H230657   3.087   3.852   1.193  1.9156 -0.2021 -1.2858
 3056TIP3   OH230658   1.595   1.345   6.229 -0.2764  0.1819  0.2718
 3056TIP3    H130659   1.613   1.256   6.259  2.5925  0.2773 -0.8547
 3056TIP3    H230660   1.649   1.355   6.150 -2.3017  2.1793 -0.9912
 3057TIP3   OH230661   5.139   5.007  11.171  0.3333 -0.6003 -0.5498
 3057TIP3    H130662   5.049   5.027  11.197  0.9638  1.4109  0.2784
 3057TIP3    H230663   5.156   4.920  11.208 -0.7470 -0.3364  0.6362
 3058TIP3   OH230664   2.092   0.914  12.290  0.4308  0.5025  0.1442
 3058TIP3    H130665   2.073   0.994  12.240  0.5283  0.8452  0.6456
 3058TIP3    H230666   2.146   0.862  12.231  0.9904  1.1355  0.0847
 3059TIP3   OH230667   3.718   1.005  17.074 -0.0539  0.3413 -0.5226
 3059TIP3    H130668   3.672   0.921  17.066  0.2936  0.1216 -0.2031
 3059TIP3    H230669   3.652   1.065  17.110  0.0104 -0.0603  0.2716
 3060TIP3   OH230670   3.014   5.083   1.466 -0.0740 -0.2076  0.0022
 3060TIP3    H130671   3.033   5.127   1.549  1.4627 -2.7345  1.0883
 3060TIP3    H230672   3.093   5.033   1.446 -1.2950 -1.5863 -1.7468
 3061TIP3   OH230673   5.443   4.371   0.714  0.6094 -0.1468  0.3004
 3061TIP3    H130674   5.359   4.363   0.669 -0.5763 -2.0959  2.6543
 3061TIP3    H230675   5.493   4.433   0.660 -1.6848 -0.1842 -2.0776
 3062TIP3   OH230676   0.488   2.057  17.140 -0.2674 -0.2575 -0.4275
 3062TIP3    H130677   0.477   2.148  17.168  0.5945 -0.1429 -0.4513
 3062TIP3    H230678   0.581   2.047  17.124  0.0269 -1.8056  1.7909
 3063TIP3   OH230679   2.989   3.168   5.485  0.3343 -0.3322  0.1406
 3063TIP3    H130680   2.962   3.081   5.514  1.7502 -1.4898 -1.7667
 3063TIP3    H230681   2.993   3.162   5.389  1.6978  1.4399  0.0236
 3064TIP3   OH230682   5.275   5.202   1.585  0.5066 -0.0014  0.1154
 3064TIP3    H130683   5.339   5.140   1.549  2.7992  1.9668  0.5411
 3064TIP3    H230684   5.206   5.207   1.518  0.4910 -2.5265 -0.1712
 3065TIP3   OH230685   1.166   6.691   2.519 -0.2240 -0.5334 -0.0018
 3065TIP3    H130686   1.130   6.723   2.601 -1.3909  0.8478 -0.9924
 3065TIP3    H230687   1.094   6.642   2.479  0.1831 -0.8088 -0.4016
 3066TIP3   OH230688   5.314   2.848   3.666  0.2032  0.0471  0.4943
 3066TIP3    H130689   5.243   2.896   3.709 -0.4294 -0.1433 -0.3264
 3066TIP3    H230690   5.276   2.764   3.643  0.5441  0.1219 -0.3876
 3067TIP3   OH230691   2.123   6.178   0.169  0.2787 -0.3670 -0.4508
 3067TIP3    H130692   2.180   6.142   0.237  0.1534 -0.0098 -0.1539
 3067TIP3    H230693   2.094   6.102   0.119  1.2239 -0.5279 -0.7642
 3068TIP3   OH230694   0.599   5.939   2.907 -0.0026 -0.5406  0.4040
 3068TIP3    H130695   0.569   5.988   2.830 -0.1734 -0.7803  0.3170
 3068TIP3    H230696   0.523   5.887   2.933  0.2243 -0.8651  0.4133
 3069TIP3   OH230697   1.583   6.027  17.479 -0.0121 -0.6257 -0.1772
 3069TIP3    H130698   1.657   6.081  17.453  0.9089 -1.4641  0.6506
 3069TIP3    H230699   1.622   5.951  17.521 -1.3613 -0.7925  0.8347
 3070TIP3   OH230700   0.312   3.693  17.426 -0.4189 -0.2925 -0.6771
 3070TIP3    H130701   0.299   3.702  17.520 -0.3096 -0.1264 -0.6764
 3070TIP3    H230702   0.227   3.667  17.392 -0.2726 -1.1313 -0.4340
 3071TIP3   OH230703   5.044   4.592   0.716 -0.3969  0.4636  0.0174
 3071TIP3    H130704   5.108   4.660   0.695  2.0397 -2.2146 -2.1445
 3071TIP3    H230705   4.962   4.623   0.678  0.6130  2.1845 -0.8815
 3072TIP3   OH230706   4.782   5.047   2.845  0.2322  0.3189 -0.1722
 3072TIP3    H130707   4.859   4.991   2.844  0.1310  0.1733  0.0848
 3072TIP3    H230708   4.767   5.065   2.938 -0.7972 -0.6932 -0.1254
 3073TIP3   OH230709   2.689   5.942   1.051  0.4954 -0.2910  0.2181
 3073TIP3    H130710   2.644   5.862   1.025 -0.3186  0.1797  0.1562
 3073TIP3    H230711   2.693   5.994   0.971  0.2572  0.0875  0.4512
 3074TIP3   OH230712   1.578   0.108  14.445  0.1030 -0.1179 -0.2102
 3074TIP3    H130713   1.651   0.060  14.485 -0.2219 -0.4595 -0.0164
 3074TIP3    H230714   1.617   0.189  14.414  0.8373 -0.8466 -1.2593
 3075TIP3   OH230715   4.660   2.074   0.954  0.0287 -0.0158  0.3767
 3075TIP3    H130716   4.710   2.028   1.021 -0.8019 -0.4332  0.7184
 3075TIP3    H230717   4.725   2.094   0.886  0.9927  0.8124  1.4735
 3076TIP3   OH230718   3.217   0.100   1.768 -0.0902  0.4020  0.0113
 3076TIP3    H130719   3.281   0.080   1.837  1.1299 -0.6878 -1.3533
 3076TIP3    H230720   3.245   0.185   1.734  2.3596 -1.1352 -2.2613
 3077TIP3   OH230721   1.319   3.456  11.771 -0.2747  0.0830 -0.4729
 3077TIP3    H130722   1.244   3.515  11.768  0.9498  1.6681 -1.1615
 3077TIP3    H230723   1.321   3.415  11.684 -0.2015  0.2085 -0.5297
 3078TIP3   OH230724   2.935   3.240  13.537  0.5791  0.2288  0.2672
 3078TIP3    H130725   3.024   3.272  13.546  1.2717 -1.5458  0.0208
 3078TIP3    H230726   2.894   3.260  13.622  2.2216 -1.8826  1.6519
 3079TIP3   OH230727   0.157   0.693   6.355  0.6703  0.2647  0.0405
 3079TIP3    H130728   0.204   0.636   6.414  1.3232  0.3358 -0.4024
 3079TIP3    H230729   0.103   0.748   6.412 -0.8710 -1.5575  0.4287
 3080TIP3   OH230730   5.220   0.224   2.553 -0.5699 -0.0219 -0.0032
 3080TIP3    H130731   5.149   0.190   2.499 -0.2991  0.1477 -0.4681
 3080TIP3    H230732   5.219   0.319   2.537  0.8563 -0.2027 -1.3520
 3081TIP3   OH230733   2.057   4.231   5.306 -0.0564  0.0571 -0.3217
 3081TIP3    H130734   2.054   4.234   5.402 -1.5807  3.1071 -0.3210
 3081TIP3    H230735   2.138   4.277   5.284  0.7079 -1.3458 -0.5577
 3082TIP3   OH230736   0.248   2.291   5.129 -0.3355 -0.3174  0.3320
 3082TIP3    H130737   0.270   2.329   5.214 -1.9536  1.1118  0.1518
 3082TIP3    H230738   0.158   2.261   5.138 -1.9079  3.0934 -1.8118
 3083TIP3   OH230739   4.675   4.347  16.624 -0.0342 -0.1464  0.1826
 3083TIP3    H130740   4.626   4.418  16.583 -1.2885 -1.4016 -0.5861
 3083TIP3    H230741   4.765   4.357  16.592 -0.2599  0.9177 -0.1306
 3084TIP3   OH230742   1.711   1.247  13.091  0.6410 -0.0461  0.3832
 3084TIP3    H130743   1.778   1.266  13.025  2.7460 -3.4388  1.2645
 3084TIP3    H230744   1.760   1.211  13.165 -2.0958 -2.5808  1.1574
 3085TIP3   OH230745   1.551   4.451   2.938  0.5007  0.0595  0.1409
 3085TIP3    H130746   1.515   4.512   3.002  0.2168 -0.1901  0.2222
 3085TIP3    H230747   1.574   4.373   2.990  1.2160  0.2328  0.1024
 3086TIP3   OH230748   0.111   0.101   1.524  0.0677 -0.5067 -0.4616
 3086TIP3    H130749   0.041   0.070   1.581  0.3723 -0.3706 -0.0013
 3086TIP3    H230750   0.087   0.192   1.505  0.6898 -0.0945  0.6330
 3087TIP3   OH230751   2.044   5.299   1.500  0.3377  0.2880 -0.7692
 3087TIP3    H130752   2.106   5.346   1.444  1.6295 -0.1756  0.2151
 3087TIP3    H230753   2.099   5.244   1.556 -0.9731 -0.1700  0.1316
 3088TIP3   OH230754   4.650   6.039  10.686  0.4336  0.2753  0.1608
 3088TIP3    H130755   4.570   5.988  10.676  1.0683 -0.3593 -2.4406
 3088TIP3    H230756   4.717   5.975  10.712  0.5660  0.3965  0.1209
 3089TIP3   OH230757   5.483   3.292   3.984  0.0680  0.0385 -0.0981
 3089TIP3    H130758   5.469   3.347   3.907  1.6817  0.6755  0.0282
 3089TIP3    H230759   5.577   3.276   3.985  0.3323  1.2720  2.5334
 3090TIP3   OH230760   0.721   6.688   1.398 -0.4888 -0.3381 -0.4704
 3090TIP3    H130761   0.801   6.696   1.347 -0.0918 -0.5744  0.1030
 3090TIP3    H230762   0.731   6.606   1.446 -1.3006 -0.6306 -0.7718
 3091TIP3   OH230763   3.137   2.475   4.019  0.1115  0.6830  0.4693
 3091TIP3    H130764   3.186   2.417   3.960  0.2367  1.0562  0.2011
 3091TIP3    H230765   3.121   2.553   3.967 -0.8731  0.5241  0.5115
 3092TIP3   OH230766   3.928   1.937  10.569 -0.1915  0.1608  1.3505
 3092TIP3    H130767   3.922   1.871  10.500  2.2085  0.9362  0.3021
 3092TIP3    H230768   3.945   1.887  10.649 -1.5249 -0.6494  1.1557
 3093TIP3   OH230769   4.767   1.144   4.980  0.0063  0.2453  0.7199
 3093TIP3    H130770   4.743   1.182   5.064 -0.5504  0.8017  0.3149
 3093TIP3    H230771   4.840   1.197   4.949 -0.4332  0.6703  0.3966
 3094TIP3   OH230772   0.603   1.221   1.673 -0.2039  0.2619  0.0059
 3094TIP3    H130773   0.589   1.308   1.709 -0.8595  0.0155  0.3686
 3094TIP3    H230774   0.636   1.236   1.584 -2.2898  0.9080 -0.7164
 3095TIP3   OH230775   4.772   2.933  13.666 -0.3215 -0.8200 -0.1456
 3095TIP3    H130776   4.861   2.968  13.665 -0.4761 -0.3054 -2.6900
 3095TIP3    H230777   4.782   2.844  13.701  1.0807 -0.5198  0.2657
 3096TIP3   OH230778   5.354   5.892   4.557  0.4268  0.4993  0.1125
 3096TIP3    H130779   5.402   5.952   4.500  1.5328 -0.0973  0.3827
 3096TIP3    H230780   5.356   5.808   4.511 -1.7312  0.7891 -0.6003
 3097TIP3   OH230781   6.455   0.256   3.616  0.2986 -0.1798  0.1376
 3097TIP3    H130782   6.430   0.333   3.564 -0.3241 -0.1065  0.5406
 3097TIP3    H230783   6.498   0.198   3.553  0.5058  0.3688 -0.2361
 3098TIP3   OH230784   4.164   0.377  13.476  0.3041  0.2757 -0.0697
 3098TIP3    H130785   4.230   0.363  13.408 -0.1208  2.6597 -1.0636
 3098TIP3    H230786   4.214   0.375  13.558  1.2101 -0.2160 -0.6148
 3099TIP3   OH230787   4.334   6.406   2.445  0.1281  0.0846 -0.0103
 3099TIP3    H130788   4.405   6.365   2.495 -0.0901 -0.6398 -0.2719
 3099TIP3    H230789   4.379   6.459   2.379  0.4440 -0.8274 -0.5459
 3100TIP3   OH230790   1.297   5.562  12.069  0.1018  0.6676  0.0537
 3100TIP3    H130791   1.248   5.562  12.152  0.0577  1.6075  0.0315
 3100TIP3    H230792   1.384   5.532  12.094 -0.4693 -1.0723  0.0852
 3101TIP3   OH230793   2.625   2.957   5.787  0.4975  0.0361 -0.2391
 3101TIP3    H130794   2.568   2.979   5.860  0.6442  0.5532 -0.2828
 3101TIP3    H230795   2.652   2.867   5.804 -0.0822 -0.1076 -0.0579
 3102TIP3   OH230796   6.098   4.027   4.187 -0.2150  0.1204 -0.3553
 3102TIP3    H130797   6.008   4.008   4.212 -0.5036 -0.2629 -1.6410
 3102TIP3    H230798   6.133   3.944   4.154  0.2860  0.4991 -0.8065
 3103TIP3   OH230799   4.505   2.644  10.911  0.5210  0.2284  0.0463
 3103TIP3    H130800   4.514   2.707  10.839  1.2565  0.7833  0.6026
 3103TIP3    H230801   4.419   2.663  10.949  1.1816  1.7322  0.9312
 3104TIP3   OH230802   1.471   1.517  14.613 -0.0520  0.3659  0.5511
 3104TIP3    H130803   1.396   1.503  14.554  1.5404 -0.3553 -1.4065
 3104TIP3    H230804   1.492   1.610  14.603  1.6473 -0.1975 -1.9566
 3105TIP3   OH230805   5.239   5.989   0.808  0.2071 -0.1390 -0.2849
 3105TIP3    H130806   5.187   6.034   0.874  1.6417 -0.1919  0.9380
 3105TIP3    H230807   5.176   5.961   0.742 -1.3296 -0.3511  1.2171
 3106TIP3   OH230808   4.460   5.395  11.607 -0.5106 -0.3948  0.2717
 3106TIP3    H130809   4.434   5.314  11.651  2.4138 -1.5478  0.1074
 3106TIP3    H230810   4.500   5.448  11.676 -1.4519  0.5011  0.1595
 3107TIP3   OH230811   0.800   3.954  17.414 -0.0282 -0.7775 -0.0529
 3107TIP3    H130812   0.753   3.978  17.494 -1.8087  0.9771 -1.4977
 3107TIP3    H230813   0.852   3.877  17.438 -0.1993 -0.0972  2.8447
 3108TIP3   OH230814   4.350   1.674   0.495 -0.0024  0.0986  0.8255
 3108TIP3    H130815   4.361   1.622   0.574  2.0653 -0.2882  0.3315
 3108TIP3    H230816   4.371   1.763   0.521 -2.5601  0.6018  1.4316
 3109TIP3   OH230817   3.804   3.790   2.945  0.5927 -0.1436 -0.1143
 3109TIP3    H130818   3.878   3.851   2.943  0.2782  0.4061  2.4522
 3109TIP3    H230819   3.809   3.745   2.861  0.8896  3.3239 -2.1644
 3110TIP3   OH230820   4.921   4.197  13.511  0.1392 -0.9995  0.4058
 3110TIP3    H130821   4.884   4.111  13.493 -2.1114  0.2332 -1.2501
 3110TIP3    H230822   4.870   4.231  13.585 -0.7433 -0.1053 -0.5808
 3111TIP3   OH230823   3.244   5.889   2.997 -0.4058  0.0405 -0.1346
 3111TIP3    H130824   3.264   5.892   3.090 -0.5866  0.3770 -0.1032
 3111TIP3    H230825   3.299   5.820   2.962  0.0950  0.3099  0.1205
 3112TIP3   OH230826   6.442   0.462  15.570 -0.1066 -0.0139  0.1439
 3112TIP3    H130827   6.425   0.517  15.494  2.1427  0.0090 -0.4256
 3112TIP3    H230828   6.530   0.487  15.598  0.1508 -1.8543  1.1435
 3113TIP3   OH230829   0.133   6.001   3.680 -0.3054 -0.0034 -1.0400
 3113TIP3    H130830   0.225   6.010   3.655 -0.5320  0.0993 -1.8847
 3113TIP3    H230831   0.134   5.943   3.757  0.4319 -0.3751 -1.3209
 3114TIP3   OH230832   1.719   6.565  13.019 -0.1801  0.2793  0.6697
 3114TIP3    H130833   1.667   6.645  13.012 -1.4234 -0.3825  1.9443
 3114TIP3    H230834   1.768   6.575  13.101 -1.4822 -0.8765  1.6286
 3115TIP3   OH230835   4.761   6.436   1.207 -0.1247 -0.2130 -0.3771
 3115TIP3    H130836   4.777   6.426   1.113 -0.8677  1.7867 -0.7589
 3115TIP3    H230837   4.711   6.517   1.215  1.4231  0.6328  1.9036
 3116TIP3   OH230838   4.556   4.612   0.318 -0.2158 -0.1163  0.1237
 3116TIP3    H130839   4.501   4.574   0.386  0.5113  0.2264  0.9301
 3116TIP3    H230840   4.546   4.555   0.242 -1.1060 -0.4566  0.4975
 3117TIP3   OH230841   4.388   5.725  16.788 -0.0751 -0.1652 -0.0769
 3117TIP3    H130842   4.441   5.738  16.710  0.8446  0.3189  0.6149
 3117TIP3    H230843   4.332   5.649  16.767 -0.6680  0.6630 -1.6096
 3118TIP3   OH230844   2.756   6.015  16.837  0.3117 -1.0240 -0.3235
 3118TIP3    H130845   2.707   5.971  16.905 -0.0507 -1.0608 -0.6075
 3118TIP3    H230846   2.703   6.006  16.758  0.9232 -1.3448 -0.7094
 3119TIP3   OH230847   0.108   3.763  12.497  0.5101 -0.5516  0.2361
 3119TIP3    H130848   0.016   3.738  12.488 -0.3026  2.1667 -0.1540
 3119TIP3    H230849   0.133   3.795  12.410  0.8696  1.4240  1.0010
 3120TIP3   OH230850   0.985   2.118  13.954 -0.3526  0.0114 -0.5314
 3120TIP3    H130851   1.076   2.128  13.982 -0.6709 -0.9526  0.9037
 3120TIP3    H230852   0.977   2.027  13.927 -1.5413 -0.7389  2.0219
 3121TIP3   OH230853   6.126   1.370  11.182 -0.0362  0.6440  0.2917
 3121TIP3    H130854   6.054   1.349  11.242 -0.7069 -1.1914 -1.0767
 3121TIP3    H230855   6.139   1.290  11.130  2.5204  1.1546 -0.0155
 3122TIP3   OH230856   0.761   4.862  11.420 -0.4379  0.1414 -0.5805
 3122TIP3    H130857   0.845   4.818  11.412  0.6187  1.8825  0.3451
 3122TIP3    H230858   0.751   4.878  11.514 -1.0077  1.4038 -0.8347
 3123TIP3   OH230859   2.976   3.529  15.216  0.2593  0.1516 -0.2008
 3123TIP3    H130860   3.033   3.592  15.261  0.6469  0.7983 -1.5578
 3123TIP3    H230861   2.995   3.445  15.258  1.4260  0.5411  0.0944
 3124TIP3   OH230862   1.910   2.702  14.741  0.1013  0.0674  0.2237
 3124TIP3    H130863   1.842   2.638  14.760 -0.6717  0.3631 -1.3693
 3124TIP3    H230864   1.989   2.650  14.725 -0.1587 -0.3891  0.4420
 3125TIP3   OH230865   1.706   4.000   0.251 -0.1934  0.2112 -0.2915
 3125TIP3    H130866   1.722   4.037   0.165  0.0350 -1.0773 -0.8200
 3125TIP3    H230867   1.764   4.049   0.309  0.3102  0.4824 -1.0100
 3126TIP3   OH230868   0.132   4.971   4.941  0.2315  0.4175 -0.1196
 3126TIP3    H130869   0.127   5.037   5.010 -2.0132  0.7883 -0.5537
 3126TIP3    H230870   0.182   5.013   4.871  0.0883  1.1221  0.1912
 3127TIP3   OH230871   6.551   4.076  17.345  0.7515  0.0460  0.3075
 3127TIP3    H130872   6.591   4.060  17.260  0.0051  1.3375 -0.3232
 3127TIP3    H230873   6.461   4.043  17.336  1.1044 -1.1770  1.1051
 3128TIP3   OH230874   4.367   2.555  14.063  0.5915 -0.9410  0.5407
 3128TIP3    H130875   4.455   2.529  14.037  0.4088 -0.5379 -0.5479
 3128TIP3    H230876   4.369   2.651  14.063 -0.1894 -0.8869 -0.8740
 3129TIP3   OH230877   0.256   6.277   4.268  0.0613  0.1358  0.4309
 3129TIP3    H130878   0.212   6.343   4.323 -0.7376  0.4929 -0.5959
 3129TIP3    H230879   0.185   6.222   4.235  0.4804  0.1372 -0.5103
 3130TIP3   OH230880   6.368   3.419   0.565 -0.1895  0.5577  0.7101
 3130TIP3    H130881   6.301   3.467   0.516  0.5205  1.0065  0.1636
 3130TIP3    H230882   6.324   3.340   0.594 -1.1754  1.1926  0.9996
 3131TIP3   OH230883   2.278   2.765  14.574 -0.0781 -0.1548 -0.2755
 3131TIP3    H130884   2.365   2.805  14.576  0.3644 -1.1001  0.0898
 3131TIP3    H230885   2.280   2.700  14.645 -1.2026  0.0463 -0.0412
 3132TIP3   OH230886   4.082   3.126  14.933 -0.2928  0.0902 -0.4259
 3132TIP3    H130887   4.165   3.171  14.954  0.4722 -2.0070  1.5118
 3132TIP3    H230888   4.037   3.119  15.018 -0.8460 -1.7971 -0.8313
 3133TIP3   OH230889   5.206   5.356   3.637 -0.6665  0.5266  0.0769
 3133TIP3    H130890   5.152   5.411   3.693 -1.1740 -1.7452  1.9874
 3133TIP3    H230891   5.285   5.338   3.689 -1.5438 -2.3679  0.6254
 3134TIP3   OH230892   3.569   3.182   3.109 -0.0033 -0.0790 -0.1729
 3134TIP3    H130893   3.504   3.135   3.163  1.2345 -3.1995 -1.1464
 3134TIP3    H230894   3.516   3.228   3.044 -1.3470  0.4533  1.2231
 3135TIP3   OH230895   3.799   1.423   0.943  0.4641 -0.8889 -0.0155
 3135TIP3    H130896   3.761   1.507   0.970  1.2264  0.6179 -3.1002
 3135TIP3    H230897   3.884   1.421   0.986  0.0658 -0.5402  0.8182
 3136TIP3   OH230898   2.310   2.986  12.250  0.0742  0.1432  0.0421
 3136TIP3    H130899   2.290   3.025  12.335 -0.8929 -0.6491  0.2011
 3136TIP3    H230900   2.230   2.939  12.226  1.3692 -2.2914  0.1812
 3137TIP3   OH230901   1.724   0.586   0.445  0.1790  0.5668  0.3110
 3137TIP3    H130902   1.819   0.602   0.438 -0.1426  2.1774 -0.9622
 3137TIP3    H230903   1.701   0.538   0.366 -0.2548  1.2549  0.0114
 3138TIP3   OH230904   6.736   3.751  10.831  0.0420  0.4548  0.0389
 3138TIP3    H130905   6.710   3.833  10.873  0.0377  1.1994 -1.3451
 3138TIP3    H230906   6.772   3.778  10.747 -0.1417 -0.9813 -0.5281
 3139TIP3   OH230907   4.135   2.899   6.071 -0.0816  0.1322  0.6471
 3139TIP3    H130908   4.117   2.806   6.054  0.8668  0.1838 -0.8566
 3139TIP3    H230909   4.194   2.898   6.147  0.7118 -0.5735  0.0441
 3140TIP3   OH230910   6.759   2.940   5.287  0.0241 -0.6307 -0.3750
 3140TIP3    H130911   6.792   3.029   5.276  0.5067 -0.7395  0.1684
 3140TIP3    H230912   6.716   2.920   5.203  0.4797 -0.1252 -0.7352
 3141TIP3   OH230913   0.044   2.468   3.727  0.4384 -0.1153 -0.0531
 3141TIP3    H130914  -0.024   2.441   3.666 -1.3250  0.5725  1.5219
 3141TIP3    H230915   0.043   2.564   3.724 -0.0189 -0.0489  1.3599
 3142TIP3   OH230916   2.405   5.586  17.371  0.3690 -0.2325  0.3522
 3142TIP3    H130917   2.351   5.508  17.383 -0.4854  0.3139  0.1492
 3142TIP3    H230918   2.448   5.598  17.456  0.9260 -1.2124  0.2273
 3143TIP3   OH230919   5.827   4.630  11.526  0.4467 -0.3012 -0.6192
 3143TIP3    H130920   5.846   4.692  11.456 -0.8516 -0.1630 -0.8754
 3143TIP3    H230921   5.831   4.544  11.483 -2.2574 -0.1205 -1.3764
 3144TIP3   OH230922   0.372   0.349  17.363 -0.2047  0.5370 -0.0876
 3144TIP3    H130923   0.329   0.353  17.278  0.6307  1.4929 -0.5000
 3144TIP3    H230924   0.400   0.258  17.372 -1.3952  0.1454 -0.2647
 3145TIP3   OH230925   3.013   0.671  14.361 -0.4181  0.2011 -0.1303
 3145TIP3    H130926   3.109   0.673  14.364 -0.2716 -0.7182 -2.1601
 3145TIP3    H230927   2.988   0.759  14.332 -0.3270  0.9396  1.9185
 3146TIP3   OH230928   0.754   0.574  10.590 -0.0443  0.1040  0.2756
 3146TIP3    H130929   0.741   0.645  10.526  0.4048  0.2663  0.3632
 3146TIP3    H230930   0.678   0.580  10.648  0.2846  0.8989  0.6430
 3147TIP3   OH230931   6.710   0.383  14.073 -1.5721  0.3735 -0.4900
 3147TIP3    H130932   6.746   0.332  14.000 -0.6750  3.0055 -2.0182
 3147TIP3    H230933   6.770   0.368  14.145 -0.3817  0.5281 -1.4165
 3148TIP3   OH230934   2.686   0.329   5.715 -0.1069 -0.1486 -0.1508
 3148TIP3    H130935   2.777   0.308   5.692 -0.5277  0.6897 -3.0571
 3148TIP3    H230936   2.687   0.423   5.734 -0.5428  0.1709 -1.5855
 3149TIP3   OH230937   4.519   6.475  15.696  0.2949  0.0828 -0.2207
 3149TIP3    H130938   4.575   6.427  15.756  0.4077  0.7257  0.1989
 3149TIP3    H230939   4.513   6.419  15.619 -1.0757 -1.4742  0.9454
 3150TIP3   OH230940   5.845   1.973   0.477 -0.0288  0.5043 -0.1967
 3150TIP3    H130941   5.903   2.036   0.521 -1.2985  0.2959  1.9405
 3150TIP3    H230942   5.799   2.025   0.411 -0.1605  1.5864  0.7040
 3151TIP3   OH230943   6.463   4.892   0.845  0.1581 -0.4235  0.1294
 3151TIP3    H130944   6.530   4.848   0.793  0.3385  0.4505 -0.4086
 3151TIP3    H230945   6.483   4.985   0.836 -0.7949 -0.1754  0.4231
 3152TIP3   OH230946   5.088   4.392   5.072 -0.1090 -0.1339  0.9220
 3152TIP3    H130947   5.035   4.471   5.083  1.3191  0.8150  1.2749
 3152TIP3    H230948   5.099   4.384   4.977  2.5756  2.1579  0.8907
 3153TIP3   OH230949   0.885   4.419   2.484 -0.2299 -0.6313 -0.3559
 3153TIP3    H130950   0.857   4.361   2.555  2.1871 -1.3179  0.1333
 3153TIP3    H230951   0.959   4.468   2.521 -0.1191  0.3729 -1.8317
 3154TIP3   OH230952   4.073   4.625   3.457 -0.1474  0.2856  0.5445
 3154TIP3    H130953   4.012   4.635   3.530 -1.1985  0.4689 -0.3365
 3154TIP3    H230954   4.080   4.531   3.444 -2.8518  0.2455 -1.4206
 3155TIP3   OH230955   4.608   0.805  13.199 -0.7767  0.1850  0.1769
 3155TIP3    H130956   4.617   0.887  13.151 -1.2186  0.4641  0.5688
 3155TIP3    H230957   4.616   0.830  13.291 -0.9739 -0.2032  0.3015
 3156TIP3   OH230958   3.370   5.678   3.158 -0.4560  0.3119  0.0574
 3156TIP3    H130959   3.410   5.608   3.209 -1.9011 -0.4197  0.2535
 3156TIP3    H230960   3.443   5.731   3.128  0.5615 -0.3743  1.2349
 3157TIP3   OH230961   1.810   5.497   5.895 -0.2354  0.7387  0.4540
 3157TIP3    H130962   1.801   5.403   5.878  1.3678  0.7944 -0.9538
 3157TIP3    H230963   1.808   5.505   5.990 -0.2387 -0.7392  0.5967
 3158TIP3   OH230964   3.136   6.231  13.886 -0.2049  0.1017  0.0156
 3158TIP3    H130965   3.068   6.297  13.877  0.0803  0.2605 -1.1146
 3158TIP3    H230966   3.131   6.203  13.978 -1.6894  0.1939 -0.0256
 3159TIP3   OH230967   0.060   0.064  11.960 -0.3832  0.0374 -0.1410
 3159TIP3    H130968   0.059   0.114  12.041 -0.5441  0.3127 -0.3125
 3159TIP3    H230969   0.118   0.113  11.902 -0.1113 -0.2637 -0.1275
 3160TIP3   OH230970   5.938   6.288   1.887  0.2424  0.5009  0.5921
 3160TIP3    H130971   6.032   6.272   1.891  0.0891 -0.5643  0.3269
 3160TIP3    H230972   5.925   6.371   1.933  1.4101  1.1220 -0.1429
 3161TIP3   OH230973   3.076   0.811   1.497  0.3956 -0.8652 -0.7586
 3161TIP3    H130974   3.150   0.822   1.556  0.6465 -1.9028 -0.8668
 3161TIP3    H230975   3.040   0.900   1.487  2.3729 -0.1225 -1.7263
 3162TIP3   OH230976   0.088   5.575  13.468 -0.4304 -0.0862 -0.0869
 3162TIP3    H130977   0.004   5.571  13.421 -0.5365 -0.0708  0.1016
 3162TIP3    H230978   0.075   5.641  13.535 -0.4906 -0.5702  0.3860
 3163TIP3   OH230979   2.046   3.745   3.731 -0.1143 -0.5275  0.3464
 3163TIP3    H130980   2.071   3.658   3.762  1.1569 -0.3558 -0.1263
 3163TIP3    H230981   1.983   3.729   3.661  1.1965 -1.1526 -0.7240
 3164TIP3   OH230982   4.629   1.327  14.509  0.3905 -0.1781  0.1873
 3164TIP3    H130983   4.599   1.411  14.473  0.4895  0.0614  0.6502
 3164TIP3    H230984   4.670   1.351  14.592  1.0435 -0.6128 -0.0119
 3165TIP3   OH230985   1.921   3.633   3.239 -0.0713  0.5420 -0.1583
 3165TIP3    H130986   1.828   3.638   3.263  0.0364 -1.4265  0.9483
 3165TIP3    H230987   1.965   3.614   3.322  1.1956  0.4416 -0.8379
 3166TIP3   OH230988   5.113   4.050   5.921 -0.5293 -0.1241 -0.9968
 3166TIP3    H130989   5.204   4.022   5.911 -0.0631  0.9330  0.0810
 3166TIP3    H230990   5.076   3.989   5.984  0.4312  1.4302  1.1961
 3167TIP3   OH230991   6.749   5.261  16.861 -0.3739 -0.5284  0.2890
 3167TIP3    H130992   6.709   5.335  16.816  2.6795 -0.3222 -2.5001
 3167TIP3    H230993   6.733   5.186  16.803  0.8231 -0.9535  0.4680
 3168TIP3   OH230994   4.068   5.919  16.912  0.1534 -0.4840  0.5473
 3168TIP3    H130995   4.027   5.832  16.910 -0.4822 -0.1712 -0.3200
 3168TIP3    H230996   4.040   5.961  16.831  0.3427  0.5934  1.0268
 3169TIP3   OH230997   0.638   6.405   3.290 -0.2557  0.2968 -0.0209
 3169TIP3    H130998   0.695   6.451   3.228 -0.0127  0.8804  0.6282
 3169TIP3    H230999   0.691   6.333   3.323  0.1471  0.8868  0.6415
 3170TIP3   OH231000   3.273   0.252  13.933  0.3822  0.5008  0.3178
 3170TIP3    H131001   3.221   0.332  13.934 -0.2244  0.1155  1.0197
 3170TIP3    H231002   3.212   0.183  13.909  0.4187 -0.0352  1.6463
 3171TIP3   OH231003   5.499   4.594  11.361  0.1031  0.6636  0.4763
 3171TIP3    H131004   5.521   4.512  11.405  1.4097  0.9590  0.3948
 3171TIP3    H231005   5.407   4.583  11.336 -0.0363 -0.3630  1.3587
 3172TIP3   OH231006   1.198   3.024   0.271 -0.1724 -0.0882 -0.0718
 3172TIP3    H131007   1.187   3.078   0.193  0.9830 -0.1410 -0.2960
 3172TIP3    H231008   1.288   2.990   0.264  0.3704  0.8085  1.8512
 3173TIP3   OH231009   3.995   4.250  12.503  0.3406 -0.2200 -0.2676
 3173TIP3    H131010   3.946   4.277  12.426  0.0812 -0.9639 -0.3751
 3173TIP3    H231011   3.947   4.286  12.577  0.3809  0.1787 -0.4374
 3174TIP3   OH231012   1.219   0.242  13.288 -0.1273  0.2594 -0.5289
 3174TIP3    H131013   1.230   0.229  13.194  0.2832  0.7751 -0.5587
 3174TIP3    H231014   1.128   0.218  13.306 -0.2317  0.2457 -1.0701
 3175TIP3   OH231015   0.339   3.800   1.277  0.1079 -0.5308 -0.0886
 3175TIP3    H131016   0.398   3.777   1.349  1.3769 -0.3731 -1.0415
 3175TIP3    H231017   0.355   3.732   1.211  0.6312  0.5728 -1.1220
 3176TIP3   OH231018   4.084   5.360  12.342 -0.4278 -0.1930 -0.2570
 3176TIP3    H131019   4.078   5.290  12.277  2.2345  0.3379 -1.1904
 3176TIP3    H231020   4.047   5.437  12.297 -0.7997 -0.3613 -0.2434
 3177TIP3   OH231021   1.656   0.893   4.497  0.3309 -0.3098 -0.0681
 3177TIP3    H131022   1.570   0.867   4.530  0.3961  1.7206  1.9559
 3177TIP3    H231023   1.640   0.973   4.448  1.0285 -0.0730  0.0761
 3178TIP3   OH231024   0.434   3.228   4.163 -0.1145  0.2156  0.9611
 3178TIP3    H131025   0.508   3.197   4.215  0.9858  0.5522 -0.3444
 3178TIP3    H231026   0.394   3.149   4.128 -0.0193  0.0686  1.1841
 3179TIP3   OH231027   5.926   5.341  16.227  0.1118 -0.2156 -0.1000
 3179TIP3    H131028   5.879   5.289  16.162 -0.4726 -0.3003  0.3757
 3179TIP3    H231029   5.991   5.389  16.177 -0.0733 -0.5688 -0.6932
 3180TIP3   OH231030   0.602   6.116   0.319 -0.3129 -0.2301 -0.2219
 3180TIP3    H131031   0.658   6.102   0.243 -0.2518  0.4409 -0.3125
 3180TIP3    H231032   0.571   6.207   0.308 -0.3895 -0.1698  0.4942
 3181TIP3   OH231033   1.147   1.741  13.272  0.7089  0.6553 -1.0349
 3181TIP3    H131034   1.176   1.688  13.197 -2.0209 -1.3422 -0.8131
 3181TIP3    H231035   1.095   1.811  13.234 -2.5261 -1.5700 -1.1461
 3182TIP3   OH231036   4.893   2.958   5.618  0.2142 -0.1607 -0.0806
 3182TIP3    H131037   4.825   2.946   5.552 -2.2401 -1.2543  2.4383
 3182TIP3    H231038   4.911   3.052   5.618 -1.9296  0.2887 -0.3052
 3183TIP3   OH231039   0.387   6.398   3.393 -0.1594 -0.0750  0.2542
 3183TIP3    H131040   0.477   6.395   3.360  0.4667 -0.5452  1.9017
 3183TIP3    H231041   0.337   6.442   3.324  1.1478 -0.6227 -1.0869
 3184TIP3   OH231042   4.329   3.566  15.612  0.1330  0.4546  0.0140
 3184TIP3    H131043   4.299   3.657  15.621 -1.1927  0.1373 -0.8231
 3184TIP3    H231044   4.407   3.561  15.666 -0.1266  1.9335  0.5839
 3185TIP3   OH231045   1.478   3.276   4.274  0.6410  0.4121 -0.6967
 3185TIP3    H131046   1.524   3.292   4.357 -2.5120 -1.3440  1.5857
 3185TIP3    H231047   1.512   3.192   4.243  0.6331  0.2524 -0.2756
 3186TIP3   OH231048   0.979   2.041  13.599  0.0218  0.1238  0.0932
 3186TIP3    H131049   0.990   1.970  13.662  0.5207  0.1776  0.0700
 3186TIP3    H231050   0.901   2.088  13.629 -0.2651 -0.3808  0.1551
 3187TIP3   OH231051   4.645   1.680   5.155 -0.3182  0.2703 -0.0724
 3187TIP3    H131052   4.693   1.627   5.219 -2.0237  1.6467  2.5158
 3187TIP3    H231053   4.693   1.763   5.151  0.7183 -0.3411 -1.9652
 3188TIP3   OH231054   2.387   3.003   0.089 -0.5585  0.2127  0.6460
 3188TIP3    H131055   2.445   3.071   0.122 -1.8415  0.9483  1.5049
 3188TIP3    H231056   2.299   3.031   0.117 -1.4228 -0.4614 -1.2383
 3189TIP3   OH231057   6.333   0.265  11.652 -0.3281 -0.2931  0.2649
 3189TIP3    H131058   6.317   0.196  11.587 -0.2943 -0.3611  0.3279
 3189TIP3    H231059   6.337   0.346  11.601  3.8726 -0.7225 -0.4645
 3190TIP3   OH231060   2.443   1.913  17.488 -0.2956 -0.3847 -0.1549
 3190TIP3    H131061   2.358   1.917  17.444 -0.8340 -0.0689  0.8812
 3190TIP3    H231062   2.507   1.934  17.420 -1.0621 -0.3989 -0.8892
 3191TIP3   OH231063   6.287   6.471  17.192 -0.5893 -0.7908  0.3572
 3191TIP3    H131064   6.215   6.512  17.144 -0.5510 -1.0809  0.0510
 3191TIP3    H231065   6.354   6.539  17.196 -0.4651 -0.8684 -0.2868
 3192TIP3   OH231066   2.024   0.744   4.482 -0.3117 -0.0840  0.1882
 3192TIP3    H131067   1.978   0.817   4.440  0.1611  0.0601 -0.0877
 3192TIP3    H231068   2.117   0.763   4.468 -0.1878 -1.5281 -1.2709
 3193TIP3   OH231069   5.363   1.131  11.869 -0.5897 -0.0204  0.2397
 3193TIP3    H131070   5.281   1.166  11.903 -0.4817  2.1679 -1.5054
 3193TIP3    H231071   5.344   1.111  11.777  1.4316  3.2785 -1.0738
 3194TIP3   OH231072   2.771   1.394   2.036  0.5617  0.4194  0.3373
 3194TIP3    H131073   2.773   1.318   2.094  1.0766  0.8503  0.9021
 3194TIP3    H231074   2.771   1.469   2.096 -2.3305  0.8979 -0.1446
 3195TIP3   OH231075   3.935   3.423  11.477  0.0483  0.7013 -0.8248
 3195TIP3    H131076   4.018   3.464  11.451  0.1643  0.5387 -0.7139
 3195TIP3    H231077   3.929   3.440  11.571 -1.3981  3.1337 -1.2798
 3196TIP3   OH231078   0.474   1.659   4.692  0.0536 -0.2844 -0.5746
 3196TIP3    H131079   0.418   1.679   4.617 -2.4134  1.9484  1.6648
 3196TIP3    H231080   0.421   1.600   4.746  0.2299  0.9987  1.0876
 3197TIP3   OH231081   2.886   0.086  14.955  0.2251 -0.0845 -0.3986
 3197TIP3    H131082   2.891   0.181  14.969 -3.1032  0.3679 -1.4702
 3197TIP3    H231083   2.913   0.075  14.864  0.7567 -0.2075 -0.2296
 3198TIP3   OH231084   0.679   3.846   0.751 -0.1545 -0.0449 -0.2233
 3198TIP3    H131085   0.662   3.929   0.706 -1.1726  0.6987  1.4320
 3198TIP3    H231086   0.614   3.843   0.822  1.4617 -1.0740  1.3060
 3199TIP3   OH231087   4.148   3.352  15.615  0.4554 -0.6323  0.0210
 3199TIP3    H131088   4.205   3.428  15.605  0.1820 -0.1149  1.9964
 3199TIP3    H231089   4.114   3.335  15.527 -0.9663  2.7438 -0.2209
 3200TIP3   OH231090   0.812   6.679   3.951 -0.1552 -0.6087  0.7245
 3200TIP3    H131091   0.815   6.774   3.941  0.0457 -0.6668  0.2125
 3200TIP3    H231092   0.732   6.652   3.905  0.5794 -0.8382 -0.4535
 3201TIP3   OH231093   1.136   5.692  16.689  0.0650 -0.0163 -0.8787
 3201TIP3    H131094   1.105   5.725  16.605  0.4365 -0.5546 -1.2342
 3201TIP3    H231095   1.110   5.600  16.690 -0.3797  0.1090 -0.1815
 3202TIP3   OH231096   6.519   6.185  14.022 -0.2595  0.4413  0.0811
 3202TIP3    H131097   6.521   6.162  14.116  3.3243  1.6446  0.4402
 3202TIP3    H231098   6.577   6.120  13.981  0.4362  1.6035 -0.8157
 3203TIP3   OH231099   6.165   4.882   5.736 -0.8244  0.0349 -0.1891
 3203TIP3    H131100   6.167   4.791   5.765 -0.7999  0.1395  0.1500
 3203TIP3    H231101   6.255   4.913   5.749 -1.3606  0.8413  2.1394
 3204TIP3   OH231102   1.398   6.626   4.035  0.0932 -0.2413 -0.2309
 3204TIP3    H131103   1.307   6.641   4.010  0.0837 -0.3996 -0.2894
 3204TIP3    H231104   1.395   6.548   4.090  0.0702  0.2746  0.5157
 3205TIP3   OH231105   2.610   1.650  12.567 -0.5048  0.0361 -0.2805
 3205TIP3    H131106   2.651   1.728  12.530  1.4775 -0.9893 -0.4089
 3205TIP3    H231107   2.601   1.590  12.493  1.1272 -1.0664  0.3381
 3206TIP3   OH231108   6.514   3.244   1.979  0.3385  0.8918 -0.3248
 3206TIP3    H131109   6.522   3.289   2.064  2.5486 -0.9539  0.5603
 3206TIP3    H231110   6.460   3.167   1.997  0.6327  0.6090 -0.6232
 3207TIP3   OH231111   3.100   4.379  13.222  0.0227 -0.3820  0.4205
 3207TIP3    H131112   3.130   4.307  13.276  0.8243 -0.7863 -0.5378
 3207TIP3    H231113   3.179   4.412  13.179 -0.6507 -0.4195 -0.8941
 3208TIP3   OH231114   4.109   6.758  16.602  0.0512 -0.2553  0.1246
 3208TIP3    H131115   4.138   6.714  16.682  0.2385 -2.2168 -0.9370
 3208TIP3    H231116   4.151   6.844  16.604  1.2403 -0.8326  1.4197
 3209TIP3   OH231117   4.831   2.920  17.183  0.0150 -0.3873  0.3634
 3209TIP3    H131118   4.896   2.924  17.113 -1.1377  0.3386 -0.7228
 3209TIP3    H231119   4.791   3.007  17.184 -1.9804 -1.2320 -0.0826
 3210TIP3   OH231120   3.286   4.041  11.405  0.2048  0.1102  0.1229
 3210TIP3    H131121   3.253   3.982  11.472  0.5108 -0.0211  0.1551
 3210TIP3    H231122   3.313   3.983  11.333 -1.1620  0.2944 -0.5805
 3211TIP3   OH231123   5.918   3.792   5.482 -0.0110  0.1974  0.1214
 3211TIP3    H131124   5.923   3.887   5.476 -0.6815  0.1990 -0.4316
 3211TIP3    H231125   5.988   3.768   5.544  1.3493  0.8963 -1.0811
 3212TIP3   OH231126   3.509   5.162  11.593 -0.1571  0.2503  0.6295
 3212TIP3    H131127   3.601   5.158  11.618 -0.5041 -1.4851  1.7861
 3212TIP3    H231128   3.510   5.156  11.497  0.8593 -4.4648  0.7315
 3213TIP3   OH231129   4.903   2.062  17.406 -0.3350  0.6134  0.0169
 3213TIP3    H131130   4.933   2.142  17.362 -1.4013  1.3836  0.6358
 3213TIP3    H231131   4.812   2.052  17.378 -0.3491 -0.1458  0.3019
 3214TIP3   OH231132   1.739   5.757  15.032  0.0745  0.5714 -0.4673
 3214TIP3    H131133   1.804   5.686  15.033 -0.9595 -0.4086 -0.1816
 3214TIP3    H231134   1.681   5.734  14.959 -1.3828  0.0547  0.8076
 3215TIP3   OH231135   6.550   2.227  11.582  0.3431  0.0227 -0.0020
 3215TIP3    H131136   6.468   2.181  11.599 -1.3558  2.9424  0.3327
 3215TIP3    H231137   6.574   2.267  11.665  1.5682  0.0687 -0.3509
 3216TIP3   OH231138   4.190   1.094  15.121 -0.0745 -0.0556  0.1839
 3216TIP3    H131139   4.259   1.048  15.169  0.3024 -0.0626 -0.3483
 3216TIP3    H231140   4.198   1.185  15.150 -1.6345 -0.4803  2.1901
 3217TIP3   OH231141   2.669   2.937  11.004  0.0424 -0.2065  0.4726
 3217TIP3    H131142   2.752   2.982  10.991 -0.0828  0.1434  0.8755
 3217TIP3    H231143   2.624   2.945  10.920  0.6161 -0.8222  0.0968
 3218TIP3   OH231144   1.969   2.513   3.908 -0.0737  0.0248 -0.0255
 3218TIP3    H131145   2.041   2.577   3.906  1.7100 -1.8777 -0.5607
 3218TIP3    H231146   1.942   2.504   3.817 -0.2422 -0.0575  0.0332
 3219TIP3   OH231147   4.826   5.292  16.121 -0.6988 -0.3973  0.1106
 3219TIP3    H131148   4.849   5.357  16.187  2.5370  1.1230 -2.2146
 3219TIP3    H231149   4.794   5.217  16.171 -1.0095  1.6078  3.1639
 3220TIP3   OH231150   3.779   2.961  11.740  0.2097 -0.3150 -0.3136
 3220TIP3    H131151   3.822   2.879  11.715 -0.2515 -1.0354  1.1155
 3220TIP3    H231152   3.844   3.008  11.792  0.7435  0.6238 -1.7510
 3221TIP3   OH231153   2.475   6.012  15.242 -0.0793 -0.2722  0.2666
 3221TIP3    H131154   2.468   6.032  15.335  0.3917 -0.0315  0.2519
 3221TIP3    H231155   2.568   6.023  15.222 -0.4167  1.3084 -0.5946
 3222TIP3   OH231156   1.584   1.428   5.928  0.8652  0.5146  0.7062
 3222TIP3    H131157   1.674   1.405   5.907  0.3067  0.0097 -1.3368
 3222TIP3    H231158   1.567   1.507   5.877 -0.1650 -0.0362  0.1503
 3223TIP3   OH231159   3.945   5.498  13.523 -0.7106  0.2510  0.6157
 3223TIP3    H131160   3.995   5.507  13.604 -2.0817  1.8059  1.3454
 3223TIP3    H231161   3.874   5.561  13.531 -0.2044  1.3672 -2.3343
 3224TIP3   OH231162   1.590   0.163  14.092 -0.4493  0.1530  0.0268
 3224TIP3    H131163   1.657   0.123  14.148 -0.3803 -0.4940 -0.5086
 3224TIP3    H231164   1.615   0.138  14.003  0.1643  2.2100 -0.4471
 3225TIP3   OH231165   5.960   1.398   1.116  0.3313 -0.3304 -0.8584
 3225TIP3    H131166   5.960   1.376   1.023  0.0631 -0.1187 -0.9078
 3225TIP3    H231167   6.040   1.357   1.150 -0.2232 -1.5074 -0.9128
 3226TIP3   OH231168   4.982   2.187   4.011 -0.2506  0.4577 -0.2480
 3226TIP3    H131169   5.011   2.138   3.934  2.1751  0.5501  0.5071
 3226TIP3    H231170   4.987   2.124   4.082 -1.2802  0.6997  0.0531
 3227TIP3   OH231171   3.218   5.938   3.272 -0.3660 -0.0981  0.8420
 3227TIP3    H131172   3.141   5.993   3.275 -0.6846 -0.5472  1.1007
 3227TIP3    H231173   3.231   5.909   3.363  1.5003  1.8452  1.2828
 3228TIP3   OH231174   0.964   4.257   6.412 -0.7937  0.3446  0.3475
 3228TIP3    H131175   1.049   4.221   6.436 -2.2181 -1.5665  3.1276
 3228TIP3    H231176   0.977   4.351   6.411  1.2703  0.1250  1.0458
 3229TIP3   OH231177   2.601   0.550   2.963  0.4678  0.0747 -0.1219
 3229TIP3    H131178   2.559   0.606   2.898 -1.9061 -1.0793  0.3410
 3229TIP3    H231179   2.534   0.487   2.988  2.0921 -1.0487  1.6552
 3230TIP3   OH231180   0.504   2.358  16.221 -0.5178  0.0718 -0.1406
 3230TIP3    H131181   0.471   2.393  16.138 -0.1440 -0.7082 -0.6300
 3230TIP3    H231182   0.427   2.321  16.263 -1.1436  2.3273  0.8767
 3231TIP3   OH231183   0.647   6.676  12.505 -0.1450 -0.5106 -0.5931
 3231TIP3    H131184   0.719   6.613  12.513 -0.4548 -0.8128 -0.1077
 3231TIP3    H231185   0.690   6.760  12.489  0.2178 -1.0985 -2.9492
 3232TIP3   OH231186   4.199   5.554  14.980  0.1421 -0.3891  0.1989
 3232TIP3    H131187   4.268   5.517  15.035 -0.3311 -0.4079  0.7969
 3232TIP3    H231188   4.236   5.556  14.892  1.0271 -0.0709  0.5702
 3233TIP3   OH231189   3.781   2.440  17.245  0.1031 -0.0727  0.3894
 3233TIP3    H131190   3.731   2.414  17.323  0.0042  0.8029  0.6332
 3233TIP3    H231191   3.714   2.455  17.178  0.1620 -0.4574  0.2411
 3234TIP3   OH231192   2.295   2.944   3.456  0.2190 -0.1361 -0.6242
 3234TIP3    H131193   2.303   2.860   3.412 -2.7722 -1.3195  0.8557
 3234TIP3    H231194   2.339   2.932   3.541  0.6272  0.1523 -0.7870
 3235TIP3   OH231195   4.576   2.061   6.094 -0.3047  0.2195 -0.6409
 3235TIP3    H131196   4.547   2.151   6.107 -0.6321  0.0754 -0.3572
 3235TIP3    H231197   4.603   2.031   6.181 -0.5204 -0.0679 -0.6711
 3236TIP3   OH231198   4.793   2.724   4.481 -0.3731  0.9452 -0.0797
 3236TIP3    H131199   4.783   2.641   4.527 -1.2309  0.3964 -1.2143
 3236TIP3    H231200   4.872   2.763   4.519  0.1213 -0.4473  0.3748
 3237TIP3   OH231201   0.993   3.731  17.063 -0.4242  0.1746 -0.5874
 3237TIP3    H131202   0.909   3.728  17.110  0.6772  0.7167  1.5520
 3237TIP3    H231203   1.045   3.795  17.111  1.7934 -1.3268 -0.8239
 3238TIP3   OH231204   6.690   4.978  17.524 -0.0643  0.2748 -0.1293
 3238TIP3    H131205   6.647   5.059  17.494 -0.3645  0.5660  1.0386
 3238TIP3    H231206   6.713   4.996  17.616  1.0235 -0.5064 -0.2327
 3239TIP3   OH231207   1.374   3.040  10.467 -0.4371  0.0472 -0.4170
 3239TIP3    H131208   1.344   2.955  10.434 -1.7788 -1.0767  3.2299
 3239TIP3    H231209   1.306   3.102  10.439 -2.0328 -1.0293  0.8936
 3240TIP3   OH231210   4.520   3.050  14.615  0.8755  0.1284 -0.1566
 3240TIP3    H131211   4.613   3.053  14.639  1.1586  0.8821 -1.2498
 3240TIP3    H231212   4.491   3.141  14.619  0.3401 -0.0242 -0.4315
 3241TIP3   OH231213   4.251   6.569   0.210  0.1102 -0.0375  0.4030
 3241TIP3    H131214   4.337   6.591   0.175  0.7587 -1.7438  0.8104
 3241TIP3    H231215   4.258   6.477   0.236 -1.4329  0.1465  1.6767
 3242TIP3   OH231216   3.547   6.686   5.683 -0.4869  0.1019 -0.3505
 3242TIP3    H131217   3.470   6.629   5.691  0.0317 -0.3920  2.3699
 3242TIP3    H231218   3.611   6.633   5.635 -2.0776  0.9378 -3.6766
 3243TIP3   OH231219   5.937   2.386  14.146 -0.7024 -0.2686  0.1992
 3243TIP3    H131220   5.970   2.375  14.056 -0.9461 -0.9068  0.1876
 3243TIP3    H231221   5.963   2.475  14.169 -0.1273 -0.2993 -0.2931
 3244TIP3   OH231222   4.163   4.850   4.539 -0.4174 -0.0627 -0.4121
 3244TIP3    H131223   4.129   4.814   4.622 -0.6355  0.6150 -0.2039
 3244TIP3    H231224   4.227   4.785   4.510  1.7491  0.9684  1.7213
 3245TIP3   OH231225   5.542   2.821   0.651  0.4888 -0.3127 -0.1270
 3245TIP3    H131226   5.587   2.874   0.717  0.1885  0.3492 -0.4413
 3245TIP3    H231227   5.458   2.865   0.639  1.7694  1.5916 -3.3440
 3246TIP3   OH231228   0.002   1.275  15.415 -0.5124 -0.1309 -0.2984
 3246TIP3    H131229  -0.017   1.269  15.322 -2.5035  2.0933 -0.1324
 3246TIP3    H231230   0.080   1.332  15.420  1.0704 -2.1616 -0.6255
 3247TIP3   OH231231   2.158   4.239   0.521  0.1374 -0.1756  0.2477
 3247TIP3    H131232   2.127   4.149   0.526  1.2713 -0.8164 -2.4319
 3247TIP3    H231233   2.081   4.292   0.538 -0.5526 -1.6135  1.8930
 3248TIP3   OH231234   5.314   5.900   0.460 -0.4284  0.3520  0.0919
 3248TIP3    H131235   5.222   5.884   0.483 -0.1206 -0.5285  0.7714
 3248TIP3    H231236   5.310   5.952   0.380 -1.5368 -0.7925 -0.6384
 3249TIP3   OH231237   2.326   2.358   4.306 -0.4454  0.2260  0.3806
 3249TIP3    H131238   2.336   2.352   4.401 -1.2249 -0.1368  0.4485
 3249TIP3    H231239   2.410   2.330   4.271 -0.3681 -0.2828  0.9580
 3250TIP3   OH231240   3.722   1.699   2.266 -0.4386 -0.2314 -0.7293
 3250TIP3    H131241   3.774   1.737   2.195 -0.6091 -1.5851 -1.6198
 3250TIP3    H231242   3.786   1.655   2.322 -0.4832 -0.7036 -1.0486
 3251TIP3   OH231243   6.590   1.926   4.087  0.3231 -0.2044  1.0224
 3251TIP3    H131244   6.511   1.876   4.108 -0.6025  1.3743  1.4082
 3251TIP3    H231245   6.571   2.015   4.116  1.8936  0.4163  0.2561
 3252TIP3   OH231246   3.319   0.489  15.916  0.0021  0.4760 -0.5318
 3252TIP3    H131247   3.395   0.529  15.959  0.9004 -0.4451 -1.2300
 3252TIP3    H231248   3.285   0.558  15.859 -0.3366  1.2400  0.5764
 3253TIP3   OH231249   1.752   5.232   5.871 -0.7231 -0.1542 -0.1529
 3253TIP3    H131250   1.701   5.206   5.947 -1.7847  0.4245 -0.6508
 3253TIP3    H231251   1.842   5.206   5.892 -0.9667  0.1577  1.3638
 3254TIP3   OH231252   3.284   0.215   4.513 -0.6975 -0.8441  0.4856
 3254TIP3    H131253   3.208   0.274   4.515  0.1476  0.2664  0.7974
 3254TIP3    H231254   3.276   0.168   4.430  0.2110  1.9234 -1.3045
 3255TIP3   OH231255   2.604   3.658  12.482  0.3633 -0.0535 -0.1559
 3255TIP3    H131256   2.603   3.630  12.574  1.1679  0.2208 -0.0529
 3255TIP3    H231257   2.556   3.590  12.435 -0.1663 -0.1317  0.4819
 3256TIP3   OH231258   5.154   5.253  11.797 -0.4002  0.4968  0.1203
 3256TIP3    H131259   5.097   5.321  11.761  1.9857  1.2252 -2.6677
 3256TIP3    H231260   5.202   5.296  11.868 -1.1317  0.7513  0.4694
 3257TIP3   OH231261   5.296   3.839   3.175 -0.3205  0.2743 -0.3574
 3257TIP3    H131262   5.240   3.901   3.219 -0.9208 -1.3040  1.2222
 3257TIP3    H231263   5.374   3.833   3.230  0.7615  1.2777 -1.7055
 3258TIP3   OH231264   0.044   1.218  12.850  0.2777  0.1089 -0.2871
 3258TIP3    H131265   0.001   1.161  12.787  0.2990 -0.2133 -0.0147
 3258TIP3    H231266   0.137   1.215  12.827  0.2380  0.2950 -0.4756
 3259TIP3   OH231267   0.813   6.554  13.729  0.2714 -0.0527 -0.0025
 3259TIP3    H131268   0.893   6.536  13.778 -0.9404 -1.9924  1.3803
 3259TIP3    H231269   0.746   6.563  13.796 -1.3570 -2.3603 -1.1867
 3260TIP3   OH231270   2.502   4.372   2.575  0.0592  0.2112  0.3293
 3260TIP3    H131271   2.540   4.459   2.563 -0.3580  0.2427 -0.9753
 3260TIP3    H231272   2.525   4.324   2.495 -0.8788 -0.4156  0.4101
 3261TIP3   OH231273   3.515   2.211  15.273 -0.3505 -0.3277 -0.8061
 3261TIP3    H131274   3.512   2.134  15.216  1.2131 -1.5347  0.6496
 3261TIP3    H231275   3.567   2.275  15.225  0.8385 -1.2763 -0.8132
 3262TIP3   OH231276   1.584   3.969  13.936 -1.1283 -0.3204  0.0120
 3262TIP3    H131277   1.657   3.970  13.997 -1.0230  0.6585 -0.1095
 3262TIP3    H231278   1.536   3.889  13.957 -0.0063 -0.9882  0.0578
 3263TIP3   OH231279   4.007   0.169  14.130 -0.1458 -0.2587  0.9201
 3263TIP3    H131280   4.072   0.227  14.171 -0.5086  1.4458 -0.8138
 3263TIP3    H231281   4.053   0.085  14.122  1.2558  0.4284  1.2822
 3264TIP3   OH231282   5.430   0.760   6.487  0.0895  0.1916  0.4196
 3264TIP3    H131283   5.336   0.745   6.504  0.4076  0.0311  2.3158
 3264TIP3    H231284   5.439   0.856   6.489 -0.2592  0.2802 -1.2928
 3265TIP3   OH231285   3.227   2.517  14.622  0.2858 -0.2675 -0.0136
 3265TIP3    H131286   3.167   2.519  14.697 -0.8277 -1.1559 -0.8522
 3265TIP3    H231287   3.254   2.608  14.611 -1.4296  0.2795 -0.0040
 3266TIP3   OH231288   2.275   3.901   4.131  0.1562  0.2182 -0.1718
 3266TIP3    H131289   2.286   3.925   4.223  1.2916 -0.5703 -0.0767
 3266TIP3    H231290   2.234   3.977   4.091  0.7779  1.0616  0.7454
 3267TIP3   OH231291   3.939   2.033  16.563 -0.2086  0.0168  0.1584
 3267TIP3    H131292   4.028   2.037  16.600 -0.0319  3.1555 -0.3515
 3267TIP3    H231293   3.951   1.995  16.476  0.0721 -2.7439  1.3039
 3268TIP3   OH231294   4.269   0.131  13.882 -0.2112  0.5702  0.1277
 3268TIP3    H131295   4.257   0.057  13.823  1.6054  0.9361 -0.7748
 3268TIP3    H231296   4.220   0.107  13.961  1.8358 -2.5444  0.6618
 3269TIP3   OH231297   0.944   0.424   1.682 -0.4322  0.8345  0.4983
 3269TIP3    H131298   1.021   0.431   1.738 -0.0822  0.4248  0.0769
 3269TIP3    H231299   0.947   0.335   1.647 -0.3230  1.2545 -0.6166
 3270TIP3   OH231300   3.155   6.467  14.649 -0.0586 -0.3644  0.3893
 3270TIP3    H131301   3.139   6.374  14.664  0.3495 -0.4947  0.0704
 3270TIP3    H231302   3.161   6.474  14.553  0.7395 -0.1612  0.4455
 3271TIP3   OH231303   3.421   1.520  16.660  0.1771  0.4545  0.1411
 3271TIP3    H131304   3.370   1.596  16.633 -0.7298 -0.1122  0.2116
 3271TIP3    H231305   3.503   1.557  16.693 -1.0521  1.5969  2.1564
 3272TIP3   OH231306   0.209   6.105   0.323  0.2034  0.7569  0.2226
 3272TIP3    H131307   0.121   6.126   0.292  0.2081  0.1320 -0.2288
 3272TIP3    H231308   0.233   6.179   0.379 -0.3657  1.2229 -0.1395
 3273TIP3   OH231309   0.040   3.665  16.861  0.3691 -0.1402 -0.5050
 3273TIP3    H131310  -0.008   3.583  16.876  0.0931  0.3774  1.7133
 3273TIP3    H231311   0.133   3.639  16.862  0.2794 -0.4390  0.0733
 3274TIP3   OH231312   2.651   1.619  14.691 -0.0977 -0.0065  0.1874
 3274TIP3    H131313   2.694   1.699  14.663 -1.4408  0.4344 -0.7464
 3274TIP3    H231314   2.710   1.580  14.755  0.3314  2.0135  1.0888
 3275TIP3   OH231315   1.399   5.405  16.917  0.5329  0.6978  0.4592
 3275TIP3    H131316   1.458   5.346  16.870  0.4305  0.4762  0.6064
 3275TIP3    H231317   1.377   5.358  16.997 -2.0995 -0.4853 -0.8356
 3276TIP3   OH231318   6.709   6.536   1.317  0.7230  0.1450 -0.0640
 3276TIP3    H131319   6.804   6.542   1.311  0.6682  0.2595 -0.9006
 3276TIP3    H231320   6.685   6.470   1.252  0.2065  0.3576 -0.0902
 3277TIP3   OH231321   0.205   3.710   2.966 -0.0426 -0.1376 -0.0986
 3277TIP3    H131322   0.130   3.695   3.023 -0.8832 -0.7105 -1.3023
 3277TIP3    H231323   0.199   3.641   2.900  1.4184 -0.0526 -0.3549
 3278TIP3   OH231324   5.554   5.525  15.043  0.2918  0.1969  0.5023
 3278TIP3    H131325   5.593   5.596  14.992 -0.9213  1.1140  0.8142
 3278TIP3    H231326   5.564   5.448  14.987  0.4989  0.8567 -0.4006
 3279TIP3   OH231327   2.980   3.330   0.144  0.5928 -0.5672 -0.3488
 3279TIP3    H131328   3.053   3.276   0.113  1.2694  0.0586  0.1254
 3279TIP3    H231329   2.903   3.274   0.135  0.9197 -0.7646 -2.1525
 3280TIP3   OH231330   5.212   5.731  13.348 -0.3289  0.2048 -0.4633
 3280TIP3    H131331   5.224   5.804  13.409 -1.9575 -0.5329  0.8317
 3280TIP3    H231332   5.137   5.757  13.295 -2.0422 -1.1402  1.1420
 3281TIP3   OH231333   5.366   4.678   4.555  0.7820  0.1581  0.3430
 3281TIP3    H131334   5.382   4.771   4.538  2.1639 -0.2509 -0.8530
 3281TIP3    H231335   5.402   4.663   4.643  0.9726  0.6659  0.3535
 3282TIP3   OH231336   0.674   2.463   2.236 -0.3065 -0.3448 -0.0727
 3282TIP3    H131337   0.594   2.514   2.248  0.9336  1.2127  2.2332
 3282TIP3    H231338   0.667   2.391   2.298  0.4685  0.3373  0.8251
 3283TIP3   OH231339   0.189   4.175  13.592  0.0672 -0.6179  0.6488
 3283TIP3    H131340   0.109   4.179  13.540  1.1128 -0.9972 -1.0883
 3283TIP3    H231341   0.191   4.258  13.639 -1.0187 -0.3249  0.2131
 3284TIP3   OH231342   2.090   4.988   3.430  0.1457 -0.8863 -0.1773
 3284TIP3    H131343   2.183   4.974   3.449  0.4375  1.3040  0.2414
 3284TIP3    H231344   2.088   5.020   3.340 -0.2083 -0.9268 -0.1873
 3285TIP3   OH231345   3.465   3.434   5.519 -0.5464  0.4172  1.4223
 3285TIP3    H131346   3.401   3.481   5.572 -0.8035 -0.1330  1.6029
 3285TIP3    H231347   3.416   3.405   5.442 -0.2723  0.8585  1.0771
 3286TIP3   OH231348   5.109   1.534   1.773 -0.6231  0.1193 -0.0527
 3286TIP3    H131349   5.136   1.488   1.852 -0.2291 -2.1291 -1.4152
 3286TIP3    H231350   5.161   1.494   1.703 -1.0966  1.8942 -1.5064
 3287TIP3   OH231351   0.686   6.601  15.318  0.0495  0.3803 -0.5073
 3287TIP3    H131352   0.708   6.597  15.411 -0.0182  0.1777 -0.4973
 3287TIP3    H231353   0.694   6.510  15.288  0.6638  0.5436 -0.8420
 3288TIP3   OH231354   1.643   3.922  16.014 -0.5347  0.0465 -0.0026
 3288TIP3    H131355   1.735   3.897  16.007 -0.3023  0.5916  0.9286
 3288TIP3    H231356   1.621   3.960  15.929  0.2087  0.2777 -0.0928
 3289TIP3   OH231357   3.457   4.449   0.181 -0.4301  0.5082  0.1339
 3289TIP3    H131358   3.481   4.367   0.226  0.3799  0.1898 -0.8416
 3289TIP3    H231359   3.371   4.431   0.143 -0.7522  0.5004  0.8442
 3290TIP3   OH231360   5.118   5.676   1.368 -0.5337  0.5225  0.8215
 3290TIP3    H131361   5.024   5.686   1.351 -0.3641  0.7775  0.0075
 3290TIP3    H231362   5.152   5.765   1.367 -0.4097  0.4962  1.9218
 3291TIP3   OH231363   4.252   0.300  11.277 -0.1807  0.6390  0.3246
 3291TIP3    H131364   4.158   0.314  11.265  0.0046  1.3728 -0.3665
 3291TIP3    H231365   4.285   0.385  11.306  0.1715  0.2027  1.2393
 3292TIP3   OH231366   6.490   6.310  15.399 -0.5300 -0.1593  0.4086
 3292TIP3    H131367   6.571   6.262  15.381 -0.9340 -0.4988 -0.5272
 3292TIP3    H231368   6.519   6.387  15.450  0.6551  0.7681 -1.5593
 3293TIP3   OH231369   3.132   5.451   1.398  0.0841 -0.4611 -0.0010
 3293TIP3    H131370   3.134   5.381   1.334  0.7718  0.1553 -0.6617
 3293TIP3    H231371   3.221   5.485   1.400 -0.1440  0.1192  0.6212
 3294TIP3   OH231372   6.379   2.109   5.173  0.2172 -0.4328 -0.1538
 3294TIP3    H131373   6.373   2.023   5.214 -0.5223 -0.2672  0.0855
 3294TIP3    H231374   6.292   2.147   5.182  0.3554  0.0698 -0.8639
 3295TIP3   OH231375   6.311   5.969   2.770 -0.5995  0.0464  0.0622
 3295TIP3    H131376   6.220   5.997   2.782 -0.4282  0.3399  0.7236
 3295TIP3    H231377   6.343   6.023   2.698 -1.3297 -0.9876 -1.0829
 3296TIP3   OH231378   2.769   4.543   6.180  0.1315  0.0247  0.1868
 3296TIP3    H131379   2.750   4.509   6.092  3.5782 -0.4617 -0.5271
 3296TIP3    H231380   2.796   4.466   6.230  3.1245  0.8649  0.0599
 3297TIP3   OH231381   1.942   4.396   0.464  0.2508 -0.2679 -0.5913
 3297TIP3    H131382   1.941   4.428   0.374 -2.1880 -0.7389 -0.8066
 3297TIP3    H231383   1.940   4.474   0.519  1.5453  0.0155 -0.9244
 3298TIP3   OH231384   1.741   1.700  12.435 -0.1873 -0.0439 -0.2749
 3298TIP3    H131385   1.714   1.729  12.348  0.8036 -1.8555 -1.2289
 3298TIP3    H231386   1.829   1.666  12.424 -1.3782 -3.9213  0.5374
 3299TIP3   OH231387   6.758   1.223   3.041  0.0809 -0.2417 -0.2271
 3299TIP3    H131388   6.724   1.141   3.077 -0.3597  0.4384  0.9769
 3299TIP3    H231389   6.685   1.284   3.048  1.5412  1.4461  3.0267
 3300TIP3   OH231390   2.909   6.642  15.668 -0.3437  0.0030  0.3183
 3300TIP3    H131391   2.889   6.722  15.619 -0.2847 -0.5439 -0.6313
 3300TIP3    H231392   3.005   6.635  15.664 -0.4269 -0.7889 -0.7365
 3301TIP3   OH231393   4.468   2.846   5.096  0.4908 -0.0794 -0.1359
 3301TIP3    H131394   4.408   2.798   5.153  2.6470 -0.6688  1.7898
 3301TIP3    H231395   4.546   2.791   5.092  1.2595  1.0496 -1.8607
 3302TIP3   OH231396   1.892   0.435   4.112 -0.1240  0.2297 -0.4503
 3302TIP3    H131397   1.981   0.448   4.078 -0.1763 -0.6001 -0.9457
 3302TIP3    H231398   1.843   0.511   4.081  0.6292  1.1706  0.6223
 3303TIP3   OH231399   5.929   2.149  11.884 -0.3313  0.0394  0.0281
 3303TIP3    H131400   5.900   2.109  11.966 -2.6787  2.1996  0.4031
 3303TIP3    H231401   5.872   2.225  11.874  0.8392  0.6549 -2.9192
 3304TIP3   OH231402   1.431   3.137  11.770  0.5328  0.3909  0.1661
 3304TIP3    H131403   1.451   3.045  11.750 -0.6832  0.2345 -0.4073
 3304TIP3    H231404   1.437   3.181  11.685 -1.5618  0.3140 -0.0666
 3305TIP3   OH231405   1.107   3.433   3.320  0.1275  0.1161  0.3858
 3305TIP3    H131406   1.018   3.399   3.320  0.2266 -0.1739 -0.4471
 3305TIP3    H231407   1.109   3.497   3.249  0.7698 -0.4179 -0.0916
 3306TIP3   OH231408   0.611   6.118   4.663  0.6762  0.2045 -0.0880
 3306TIP3    H131409   0.667   6.103   4.587 -1.7738 -0.5641 -1.8772
 3306TIP3    H231410   0.602   6.032   4.703  1.8233  0.5773  1.0071
 3307TIP3   OH231411   0.517   1.254   3.594  0.1683 -0.3883 -0.5747
 3307TIP3    H131412   0.432   1.290   3.567  0.4221  0.7614  0.0806
 3307TIP3    H231413   0.566   1.330   3.624  1.6572 -0.9512 -1.4724
 3308TIP3   OH231414   5.615   3.172  12.478 -0.0382 -0.1191 -0.5079
 3308TIP3    H131415   5.627   3.192  12.386 -1.7721  0.4657 -0.6498
 3308TIP3    H231416   5.533   3.217  12.502  1.0697  0.9181  1.6662
 3309TIP3   OH231417   3.208   1.954   4.559 -0.3511  0.0866 -0.0224
 3309TIP3    H131418   3.146   1.947   4.632 -1.8915  0.9559 -1.1906
 3309TIP3    H231419   3.224   1.863   4.532 -1.2445 -0.1410  0.2045
 3310TIP3   OH231420   2.904   6.174  12.309 -0.2265  0.4179  0.3782
 3310TIP3    H131421   2.954   6.092  12.312 -1.3924 -0.3258  0.2505
 3310TIP3    H231422   2.944   6.224  12.237  2.1421  1.1081  2.0474
 3311TIP3   OH231423   4.527   6.424   3.925  0.0555  0.5284 -0.2990
 3311TIP3    H131424   4.524   6.445   3.832  0.2404  0.7749 -0.2494
 3311TIP3    H231425   4.566   6.501   3.966 -3.2455  2.0050  0.4275
 3312TIP3   OH231426   4.616   3.510  12.936 -0.1948  0.0472 -0.7660
 3312TIP3    H131427   4.607   3.601  12.908  1.1987  0.4944  0.0879
 3312TIP3    H231428   4.583   3.458  12.863  0.0507  1.2220 -1.7472
 3313TIP3   OH231429   4.140   3.946  16.217  0.4112  0.4402  0.0622
 3313TIP3    H131430   4.059   3.900  16.195 -0.2362  1.2883  0.6096
 3313TIP3    H231431   4.210   3.887  16.187 -0.3962  0.3439 -1.7588
 3314TIP3   OH231432   3.549   0.143  11.601  0.1918  0.0091 -0.2052
 3314TIP3    H131433   3.597   0.087  11.540 -0.4773  0.1738 -0.8967
 3314TIP3    H231434   3.538   0.226  11.554 -1.6876 -0.3749 -0.4902
 3315TIP3   OH231435   4.584   5.596  12.994 -0.1039 -0.3517 -0.2430
 3315TIP3    H131436   4.490   5.582  13.010  0.1635 -1.1794  0.6428
 3315TIP3    H231437   4.626   5.580  13.078  0.6341  2.4472  0.0255
 3316TIP3   OH231438   5.423   6.654  16.267  0.0359  0.3923 -0.4022
 3316TIP3    H131439   5.459   6.733  16.226  0.6685 -0.7756 -2.2425
 3316TIP3    H231440   5.329   6.667  16.266  0.1788  1.7660  0.7663
 3317TIP3   OH231441   0.929   5.370  13.772 -0.0537 -0.0331 -0.6346
 3317TIP3    H131442   0.868   5.389  13.701 -1.2766 -0.1932  0.3327
 3317TIP3    H231443   0.879   5.314  13.832  1.3929 -1.0323 -0.3166
 3318TIP3   OH231444   5.706   2.528   5.674 -0.3883 -0.1084  0.2518
 3318TIP3    H131445   5.725   2.496   5.586 -0.7474 -1.0890  0.5219
 3318TIP3    H231446   5.694   2.623   5.663 -1.1072 -0.3100 -0.8628
 3319TIP3   OH231447   4.900   1.832   2.956 -0.5161  0.2152  0.7708
 3319TIP3    H131448   4.805   1.831   2.969 -0.6387  0.9183 -0.0199
 3319TIP3    H231449   4.923   1.924   2.951  0.0121  0.0352 -0.4503
 3320TIP3   OH231450   6.063   6.713  12.898  0.3834 -0.1521 -0.0828
 3320TIP3    H131451   5.976   6.675  12.881  0.2595 -0.1779  0.5634
 3320TIP3    H231452   6.117   6.683  12.825 -0.9184  2.5356 -2.3044
 3321TIP3   OH231453   1.018   5.991   6.049  0.0340 -0.1218  0.6397
 3321TIP3    H131454   1.068   6.053   6.102 -0.0248  0.8414 -0.4097
 3321TIP3    H231455   1.011   5.913   6.104 -0.4315  1.0075  2.2398
 3322TIP3   OH231456   1.158   1.511  14.143 -0.0878 -0.4656 -0.3348
 3322TIP3    H131457   1.152   1.606  14.142  0.5878 -0.4042  0.5391
 3322TIP3    H231458   1.107   1.483  14.067 -0.5150  0.5749 -0.4463
 3323TIP3   OH231459   5.250   4.580   5.670 -0.4570 -0.7400  0.1646
 3323TIP3    H131460   5.201   4.503   5.641 -0.9274 -0.0297 -0.9807
 3323TIP3    H231461   5.244   4.641   5.597  1.4420 -0.2950  0.3328
 3324TIP3   OH231462   1.741   4.924  15.893 -0.1780 -0.1142 -0.1417
 3324TIP3    H131463   1.657   4.955  15.928 -0.6902 -1.7626  0.1972
 3324TIP3    H231464   1.735   4.828  15.898  1.2877 -0.2927 -1.1726
 3325TIP3   OH231465   1.324   5.080   2.381 -0.3668  0.2018 -0.2991
 3325TIP3    H131466   1.384   5.009   2.358  1.1427  1.5733 -0.8056
 3325TIP3    H231467   1.237   5.039   2.381  0.5091 -1.7797  0.1512
 3326TIP3   OH231468   4.571   3.557  12.615  0.2079 -0.6842  0.2529
 3326TIP3    H131469   4.506   3.623  12.637  0.7230  0.1554 -0.6544
 3326TIP3    H231470   4.645   3.606  12.578  0.4273 -1.7840 -0.8750
 3327TIP3   OH231471   6.545   5.179  12.131 -0.2946  0.7350 -0.0561
 3327TIP3    H131472   6.479   5.199  12.065  0.6597  0.3618 -1.1507
 3327TIP3    H231473   6.629   5.189  12.086  0.4107  1.0825  1.2738
 3328TIP3   OH231474   4.851   1.778   3.362  0.7228  0.3137 -0.3599
 3328TIP3    H131475   4.861   1.687   3.334 -0.4836  0.9538 -3.2882
 3328TIP3    H231476   4.756   1.794   3.357  0.5206  0.9135  3.2156
 3329TIP3   OH231477   5.888   0.069  15.231 -0.0548  0.0715 -0.6284
 3329TIP3    H131478   5.863   0.157  15.259 -0.3046 -0.3684  0.5607
 3329TIP3    H231479   5.962   0.083  15.171 -0.7815  1.1468 -1.3067
 3330TIP3   OH231480   1.745   0.640   0.041 -0.7702 -0.0207  0.4943
 3330TIP3    H131481   1.755   0.707   0.109  0.7845  0.8314 -0.5142
 3330TIP3    H231482   1.654   0.648   0.013 -1.3230 -0.0866  2.1232
 3331TIP3   OH231483   0.240   1.707   0.722  0.1546 -0.3016 -0.4602
 3331TIP3    H131484   0.317   1.764   0.730  0.5397 -1.0539  2.3362
 3331TIP3    H231485   0.275   1.618   0.725 -0.7437 -0.6565  0.1134
 3332TIP3   OH231486   5.406   4.991  12.079 -0.3394  0.5352  0.2736
 3332TIP3    H131487   5.330   4.940  12.050 -0.4476  1.6411 -1.5766
 3332TIP3    H231488   5.369   5.070  12.118 -0.2071  1.2365 -0.9369
 3333TIP3   OH231489   5.643   1.857  12.708 -0.1812 -0.7756  0.0612
 3333TIP3    H131490   5.587   1.912  12.762 -1.2796 -1.0109 -0.8250
 3333TIP3    H231491   5.602   1.855  12.622 -0.3731 -3.2089  0.1267
 3334TIP3   OH231492   5.818   0.282   4.642  0.2658  0.2347 -0.3183
 3334TIP3    H131493   5.849   0.342   4.709  1.9965  0.7316 -1.4954
 3334TIP3    H231494   5.887   0.215   4.637  0.0083  0.0332 -1.3580
 3335TIP3   OH231495   1.827   0.544  11.337 -0.1081  0.3568 -0.3165
 3335TIP3    H131496   1.851   0.636  11.342  0.8530  0.0590  1.6504
 3335TIP3    H231497   1.739   0.539  11.375  0.2152  0.3740  0.4612
 3336TIP3   OH231498   2.430   1.259   4.470  0.4038 -0.4253  0.0423
 3336TIP3    H131499   2.388   1.173   4.475  1.4874 -0.9719  0.0427
 3336TIP3    H231500   2.471   1.271   4.556  0.3656  0.0338  0.0003
 3337TIP3   OH231501   0.614   2.396   0.364 -0.0859  0.1803  0.1810
 3337TIP3    H131502   0.584   2.308   0.385 -0.0404  0.1227  0.0067
 3337TIP3    H231503   0.578   2.451   0.434  1.8687 -0.3162  1.6533
 3338TIP3   OH231504   2.483   1.818  13.313 -0.0711  0.1767 -0.3682
 3338TIP3    H131505   2.390   1.805  13.331 -0.1285  1.4393  0.4252
 3338TIP3    H231506   2.523   1.733  13.329 -0.7731  0.1527  1.5477
 3339TIP3   OH231507   5.508   3.117   0.641 -0.1183  0.5040  0.0252
 3339TIP3    H131508   5.425   3.078   0.668 -0.0400  0.3348  0.0229
 3339TIP3    H231509   5.511   3.202   0.685  1.1842 -0.8074  2.6739
 3340TIP3   OH231510   6.090   6.632   0.365 -0.0173  0.0627  0.2087
 3340TIP3    H131511   5.997   6.654   0.370 -0.0221 -0.2282  2.3733
 3340TIP3    H231512   6.130   6.682   0.436  1.4881  0.1229 -0.6340
 3341TIP3   OH231513   6.016   1.659   0.976  0.5239  0.0231  0.3237
 3341TIP3    H131514   6.066   1.584   0.946 -0.7210 -1.4364  1.6858
 3341TIP3    H231515   5.939   1.621   1.018  0.1244  2.0407  1.5578
 3342TIP3   OH231516   4.094   3.487   0.347  0.0245  0.4319  0.4209
 3342TIP3    H131517   4.105   3.458   0.438  0.5175  1.2931  0.6519
 3342TIP3    H231518   4.162   3.439   0.299 -0.4593 -0.2872  0.4327
 3343TIP3   OH231519   1.198   6.546  16.815 -0.1839 -0.1337 -0.3495
 3343TIP3    H131520   1.160   6.461  16.795 -0.8249  0.4290 -1.6543
 3343TIP3    H231521   1.154   6.574  16.896  0.1667 -1.0963  0.1920
 3344TIP3   OH231522   2.075   1.271   2.278  0.1561  0.0243  0.2350
 3344TIP3    H131523   2.088   1.355   2.234 -2.7053  0.5189  0.1342
 3344TIP3    H231524   1.995   1.283   2.328  0.5715 -2.1623  1.5336
 3345TIP3   OH231525   3.841   3.811  16.625 -0.1367  0.1516 -0.2302
 3345TIP3    H131526   3.877   3.741  16.680  2.0906  0.5248 -1.0978
 3345TIP3    H231527   3.844   3.889  16.680 -1.6925 -0.1995  0.4049
 3346TIP3   OH231528   4.694   1.627   0.529 -0.6120  0.2641  0.0527
 3346TIP3    H131529   4.778   1.656   0.492  0.1356 -0.3441  1.1867
 3346TIP3    H231530   4.654   1.706   0.563 -0.5977  0.5948 -0.6878
 3347TIP3   OH231531   3.867   5.005   3.556  0.1504 -0.0727 -0.2306
 3347TIP3    H131532   3.792   4.971   3.604 -0.0946  1.8846  0.8654
 3347TIP3    H231533   3.853   5.100   3.553  2.0426  0.2311 -0.9245
 3348TIP3   OH231534   2.920   6.173  17.303  0.1068 -0.1321  0.2368
 3348TIP3    H131535   2.827   6.165  17.326 -0.8594 -0.8578 -3.3477
 3348TIP3    H231536   2.924   6.147  17.211  3.9528 -0.3674  0.3400
 3349TIP3   OH231537   6.433   2.211   6.223 -0.5455 -1.5298 -0.3338
 3349TIP3    H131538   6.377   2.199   6.300 -0.8385  1.7328  0.1174
 3349TIP3    H231539   6.382   2.268   6.166  1.2545 -0.6602 -1.1305
 3350TIP3   OH231540   1.962   0.405  16.786  0.0215  0.1298 -0.6114
 3350TIP3    H131541   2.015   0.337  16.828 -1.1650 -0.3187  0.2431
 3350TIP3    H231542   2.011   0.486  16.800  0.6197 -0.3127 -0.1036
 3351TIP3   OH231543   6.362   5.624   1.144  0.4241  0.3384 -0.1143
 3351TIP3    H131544   6.354   5.718   1.159 -1.1351  0.2504 -0.2250
 3351TIP3    H231545   6.338   5.584   1.228  1.6275  0.0225  0.1060
 3352TIP3   OH231546   3.781   1.154   2.042  0.1426 -0.0603 -0.5507
 3352TIP3    H131547   3.770   1.119   1.954 -1.7587 -0.4305 -0.1873
 3352TIP3    H231548   3.868   1.194   2.041  2.0265 -3.7581 -1.3022
 3353TIP3   OH231549   2.428   1.422  15.401  0.1978  0.2322 -0.2463
 3353TIP3    H131550   2.489   1.443  15.471  1.4718  1.7447 -1.7012
 3353TIP3    H231551   2.404   1.507  15.363 -1.4747 -0.4491 -0.8347
 3354TIP3   OH231552   2.705   0.260   3.757 -0.0882 -0.3401  0.3857
 3354TIP3    H131553   2.660   0.301   3.831  1.1715  0.4972  0.7318
 3354TIP3    H231554   2.742   0.334   3.707  0.0685 -0.9464 -0.4249
 3355TIP3   OH231555   2.959   5.453   4.742  0.3578  0.1000  0.3414
 3355TIP3    H131556   2.923   5.410   4.820 -2.2790  1.8128  0.1824
 3355TIP3    H231557   2.957   5.546   4.763  0.5765  0.5224 -1.4088
 3356TIP3   OH231558   0.780   1.564   5.719  0.5328 -0.3742  0.1585
 3356TIP3    H131559   0.807   1.606   5.801  1.3629  0.1935 -0.3858
 3356TIP3    H231560   0.849   1.500   5.701 -0.3165 -1.4212  0.5672
 3357TIP3   OH231561   5.114   2.478   0.379  0.3785 -0.2141  0.0926
 3357TIP3    H131562   5.074   2.542   0.437 -0.4144  0.2076 -0.8881
 3357TIP3    H231563   5.199   2.459   0.419  0.9507  1.9933  0.0549
 3358TIP3   OH231564   3.360   5.984  13.002 -0.4866 -0.0969  0.3469
 3358TIP3    H131565   3.439   6.039  13.004  0.6272 -1.6369  0.6928
 3358TIP3    H231566   3.393   5.895  13.013 -2.3608 -0.7135  1.3934
 3359TIP3   OH231567   6.451   0.473   2.749  0.1967  0.2873 -0.3030
 3359TIP3    H131568   6.437   0.384   2.780 -0.3773 -0.1490 -1.7464
 3359TIP3    H231569   6.373   0.521   2.776  0.3490  0.2688  0.1709
 3360TIP3   OH231570   0.352   5.210  12.288 -0.2164  0.0529 -0.0557
 3360TIP3    H131571   0.394   5.291  12.259  1.4574 -0.9847 -0.7471
 3360TIP3    H231572   0.259   5.231  12.295  0.0864  1.8373 -0.8771
 3361TIP3   OH231573   3.372   6.043   5.143  0.0637 -0.3168  0.0106
 3361TIP3    H131574   3.422   6.118   5.175 -0.4855 -0.6332  1.6991
 3361TIP3    H231575   3.299   6.083   5.095  0.0986  0.2284  0.3949
 3362TIP3   OH231576   0.040   1.262   6.036  0.6682 -0.5701 -0.2967
 3362TIP3    H131577   0.009   1.299   6.118  5.0013  2.6547  0.2432
 3362TIP3    H231578   0.060   1.170   6.056  0.8421 -0.0767  2.0193
 3363TIP3   OH231579   1.530   3.658  11.746 -0.6183 -0.0389  0.2991
 3363TIP3    H131580   1.466   3.587  11.745 -2.0808  1.2223 -0.4301
 3363TIP3    H231581   1.485   3.731  11.789  0.7917  0.5046  0.9099
 3364TIP3   OH231582   3.371   1.467  15.928  0.1090 -0.8016 -0.5763
 3364TIP3    H131583   3.353   1.514  16.010  0.5529 -2.7342  0.7120
 3364TIP3    H231584   3.449   1.509  15.893 -0.1290  0.1045 -0.0652
 3365TIP3   OH231585   2.181   4.929  16.190  0.8845  0.1615 -0.2024
 3365TIP3    H131586   2.273   4.910  16.208  0.8515  0.5620  0.4323
 3365TIP3    H231587   2.161   4.881  16.110  0.9719 -2.0708  1.0194
 3366TIP3   OH231588   6.225   3.645  14.718 -0.9622  0.2002 -0.3545
 3366TIP3    H131589   6.180   3.667  14.800  1.1284  1.2408  0.5832
 3366TIP3    H231590   6.224   3.726  14.668  1.0648  0.6750  0.3020
 3367TIP3   OH231591   2.305   2.275  13.100 -0.4180  0.0322  0.4113
 3367TIP3    H131592   2.289   2.369  13.107 -0.5506  0.0690 -0.3462
 3367TIP3    H231593   2.221   2.238  13.072 -0.1251 -0.1977 -0.1830
 3368TIP3   OH231594   1.400   1.397  15.162  0.6964  0.7926  0.2943
 3368TIP3    H131595   1.401   1.383  15.067 -0.6846 -1.4798  0.5233
 3368TIP3    H231596   1.476   1.452  15.179  0.7401  1.6247 -2.1631
 3369TIP3   OH231597   1.002   1.587   4.632 -0.2221  0.0183 -0.4330
 3369TIP3    H131598   0.987   1.570   4.725  1.5918 -0.0339 -0.1177
 3369TIP3    H231599   0.915   1.580   4.592 -1.0765  0.2853  1.2811
 3370TIP3   OH231600   5.705   3.823  12.496  0.5948  0.7550  0.3269
 3370TIP3    H131601   5.663   3.765  12.559 -1.1060  1.4887 -0.0887
 3370TIP3    H231602   5.674   3.911  12.519 -0.3488  1.0019 -1.7100
 3371TIP3   OH231603   2.341   4.431   2.145  0.3614  0.1051 -0.3307
 3371TIP3    H131604   2.289   4.451   2.223 -1.1319 -1.8285 -0.7502
 3371TIP3    H231605   2.431   4.451   2.171  0.0666 -1.5281  2.3393
 3372TIP3   OH231606   2.612   6.205  16.416 -0.5337  0.1177  0.2063
 3372TIP3    H131607   2.585   6.296  16.426 -1.6851 -0.1776 -0.0335
 3372TIP3    H231608   2.548   6.168  16.356 -1.0900 -1.2549  1.5700
 3373TIP3   OH231609   4.363   4.075  15.005  0.0468  0.3554  0.1984
 3373TIP3    H131610   4.291   4.127  14.971 -0.6495 -0.8296 -0.1847
 3373TIP3    H231611   4.394   4.024  14.930 -1.1068 -1.8314  1.1164
 3374TIP3   OH231612   0.760   6.713   0.679  0.0948  0.4180 -0.2516
 3374TIP3    H131613   0.700   6.686   0.610  0.5399  0.3422 -0.6103
 3374TIP3    H231614   0.705   6.764   0.739 -0.0896  1.3501 -1.1824
 3375TIP3   OH231615   5.784   1.355  11.961 -0.4235 -0.0554 -0.2010
 3375TIP3    H131616   5.717   1.370  11.895  0.4465 -0.0552 -1.1080
 3375TIP3    H231617   5.795   1.440  12.004  0.0938  0.3505 -1.1121
 3376TIP3   OH231618   2.360   1.659  13.916  0.2005 -0.0518 -0.2656
 3376TIP3    H131619   2.404   1.704  13.988 -0.5984  0.6452 -0.2049
 3376TIP3    H231620   2.420   1.587  13.893  1.2527  0.7180 -0.0269
 3377TIP3   OH231621   0.596   4.264   6.400 -0.0501 -0.2358 -0.5733
 3377TIP3    H131622   0.546   4.317   6.339 -1.8239 -1.9127 -0.7016
 3377TIP3    H231623   0.589   4.310   6.484 -2.1674 -0.5821 -0.5155
 3378TIP3   OH231624   5.684   3.806   5.819  0.4274  0.0629 -0.8999
 3378TIP3    H131625   5.747   3.838   5.883  0.6455 -0.2291 -0.9639
 3378TIP3    H231626   5.726   3.729   5.781  0.5609  0.5808 -1.8269
 3379TIP3   OH231627   2.531   2.554  13.908 -0.3114 -0.1853  0.0015
 3379TIP3    H131628   2.527   2.490  13.979  0.8461  0.9356  1.1125
 3379TIP3    H231629   2.566   2.505  13.834 -4.0556 -2.1112 -0.7508
 3380TIP3   OH231630   5.497   4.444   2.436 -0.1939  0.7239 -0.0187
 3380TIP3    H131631   5.464   4.532   2.417  0.4914  1.1075  0.5161
 3380TIP3    H231632   5.544   4.418   2.356  2.1618  2.0824  0.8404
 3381TIP3   OH231633   6.654   5.489   5.105 -0.1411  0.2271  0.1462
 3381TIP3    H131634   6.650   5.394   5.096  0.5884 -0.0230  2.1243
 3381TIP3    H231635   6.563   5.515   5.122 -0.3780 -0.0701 -0.6151
 3382TIP3   OH231636   4.722   2.931   5.402  0.0967 -0.0771  0.1362
 3382TIP3    H131637   4.776   2.883   5.339 -1.6557 -1.3195 -0.5005
 3382TIP3    H231638   4.688   3.005   5.353  1.0274  0.6088  0.4898
 3383TIP3   OH231639   6.021   0.060  17.115  0.5600 -0.2157  0.4897
 3383TIP3    H131640   5.930   0.060  17.145  0.5541 -3.5179  0.8659
 3383TIP3    H231641   6.059  -0.019  17.154  3.8741  1.4489  1.0045
 3384TIP3   OH231642   3.802   5.267  15.391 -0.4036 -0.0785 -0.0539
 3384TIP3    H131643   3.786   5.198  15.455 -2.5186 -1.0454 -1.5034
 3384TIP3    H231644   3.895   5.287  15.400  0.3134 -3.1256  0.4378
 3385TIP3   OH231645   3.716   6.753  14.089  0.6945 -0.6948 -0.2553
 3385TIP3    H131646   3.653   6.800  14.035  1.6485  1.9114  0.7026
 3385TIP3    H231647   3.745   6.680  14.035 -2.5828 -1.6524 -0.9720
 3386TIP3   OH231648   3.099   5.856  17.300  0.5454 -0.2851  0.1826
 3386TIP3    H131649   3.148   5.937  17.314  0.0392 -0.1645  1.3207
 3386TIP3    H231650   3.050   5.843  17.381  1.7824 -2.5638  0.6346
 3387TIP3   OH231651   0.415   6.723  12.839  0.3386  0.0808 -1.1144
 3387TIP3    H131652   0.463   6.751  12.917 -2.7255 -2.9364  2.2413
 3387TIP3    H231653   0.471   6.656  12.798  0.9813 -0.0425 -0.0544
 3388TIP3   OH231654   4.973   2.382  13.014 -0.7958  0.5217  0.0002
 3388TIP3    H131655   4.885   2.420  13.013 -0.4729  1.2994  0.6721
 3388TIP3    H231656   4.990   2.363  13.106 -0.5095 -0.2457 -0.2000
 3389TIP3   OH231657   2.081   2.312  17.273 -0.4540 -0.1873  0.3611
 3389TIP3    H131658   2.150   2.346  17.329 -1.3960  2.4557  0.0927
 3389TIP3    H231659   2.064   2.224  17.305  2.5274 -0.6687  0.8440
 3390TIP3   OH231660   4.152   2.977   4.905 -0.1681  0.2843 -0.0493
 3390TIP3    H131661   4.100   2.898   4.892  0.0209  0.2752 -0.8441
 3390TIP3    H231662   4.217   2.975   4.834 -0.2525  1.2199 -0.1697
 3391TIP3   OH231663   3.820   6.741  15.826  0.0711 -0.1297 -0.0310
 3391TIP3    H131664   3.737   6.763  15.786  0.6434 -0.0261 -1.1955
 3391TIP3    H231665   3.807   6.758  15.920 -1.6917 -1.6065  0.0400
 3392TIP3   OH231666   5.929   3.414   5.535  0.2539 -0.0715  0.4698
 3392TIP3    H131667   5.918   3.428   5.441  1.7702 -2.2085 -0.1080
 3392TIP3    H231668   6.006   3.467   5.558  1.3139 -1.3196 -0.0522
 3393TIP3   OH231669   4.231   2.289  12.461  0.1541  0.0560 -0.1852
 3393TIP3    H131670   4.199   2.367  12.415 -0.6618 -0.2590 -0.1664
 3393TIP3    H231671   4.153   2.235  12.474 -0.5155  1.6596  4.7002
 3394TIP3   OH231672   0.896   1.370   5.002 -0.5611  0.3036 -0.0779
 3394TIP3    H131673   0.934   1.282   5.007  0.8215  0.7911 -1.3035
 3394TIP3    H231674   0.916   1.410   5.087  2.9322  0.9796 -1.0664
 3395TIP3   OH231675   0.652   5.770  13.081 -0.1801 -1.4135  0.0850
 3395TIP3    H131676   0.745   5.751  13.086  0.1875  0.4808  1.2684
 3395TIP3    H231677   0.614   5.729  13.159 -0.3476 -2.0949 -0.3421
 3396TIP3   OH231678   2.293   4.394  13.510 -0.0804 -0.4323  0.6213
 3396TIP3    H131679   2.384   4.365  13.512  0.3600  0.9348  2.6745
 3396TIP3    H231680   2.255   4.361  13.592 -0.7164  1.0854  0.9786
 3397TIP3   OH231681   4.839   2.927   0.839  0.1235  0.1686  0.7522
 3397TIP3    H131682   4.834   3.020   0.816 -0.0917  0.7293  2.8430
 3397TIP3    H231683   4.916   2.920   0.895 -0.2213 -0.7884  1.1272
 3398TIP3   OH231684   1.419   2.325   2.708  0.1944 -0.0147 -0.2640
 3398TIP3    H131685   1.359   2.335   2.634  0.2860  0.1556 -0.3154
 3398TIP3    H231686   1.440   2.415   2.734  2.5386  0.0296 -1.9567
 3399TIP3   OH231687   6.701   4.358  16.557  0.2671 -0.4308 -0.2762
 3399TIP3    H131688   6.744   4.275  16.578 -0.0205 -0.8078 -1.1264
 3399TIP3    H231689   6.755   4.425  16.600  1.1794 -0.9648 -0.5629
 3400TIP3   OH231690   4.722   0.662   5.934  0.4927 -0.3839 -0.4562
 3400TIP3    H131691   4.805   0.654   5.887  0.5184  0.9388 -0.6770
 3400TIP3    H231692   4.681   0.576   5.926  2.0480 -1.2231  0.0651
 3401TIP3   OH231693   0.816   4.154   2.892  0.0050  0.3281 -0.3419
 3401TIP3    H131694   0.769   4.219   2.944  0.9604  1.7648 -1.1877
 3401TIP3    H231695   0.904   4.151   2.930 -0.6365 -2.2283  1.1418
 3402TIP3   OH231696   4.351   1.676   3.990 -1.0103 -0.1658 -0.1981
 3402TIP3    H131697   4.284   1.685   3.923  0.4056 -0.5486 -1.7229
 3402TIP3    H231698   4.344   1.585   4.019 -1.5656 -0.0233  0.1303
 3403TIP3   OH231699   1.575   1.238  16.761 -0.0027  0.3849 -0.4248
 3403TIP3    H131700   1.567   1.149  16.796 -2.5117  1.0509  0.9692
 3403TIP3    H231701   1.608   1.289  16.835 -0.4239  0.9160 -0.5986
 3404TIP3   OH231702   5.182   1.870   0.749  0.3183 -0.4185 -0.8918
 3404TIP3    H131703   5.252   1.933   0.730 -0.3532  0.0505 -1.8996
 3404TIP3    H231704   5.102   1.923   0.753  0.2038 -0.6301  2.2777
 3405TIP3   OH231705   3.419   2.859   4.053 -0.8357 -0.3964  0.0864
 3405TIP3    H131706   3.443   2.825   3.966 -0.5209 -0.2141  0.0992
 3405TIP3    H231707   3.324   2.848   4.057 -0.9315  0.1192 -0.5145
 3406TIP3   OH231708   4.330   1.799  11.759  0.2341 -0.3991  0.5201
 3406TIP3    H131709   4.411   1.821  11.805  1.1294 -1.0190 -0.7150
 3406TIP3    H231710   4.304   1.880  11.715  1.8177 -0.9061 -1.4710
 3407TIP3   OH231711   3.954   3.753   1.597 -0.0828  0.4405 -0.0017
 3407TIP3    H131712   4.025   3.710   1.645  0.6209  0.1823 -1.2122
 3407TIP3    H231713   3.942   3.837   1.641 -0.0123 -0.1072  1.0894
 3408TIP3   OH231714   4.228   1.484   0.312 -0.2145  0.1967 -0.0977
 3408TIP3    H131715   4.313   1.499   0.272 -1.4702  0.8320 -2.7082
 3408TIP3    H231716   4.227   1.541   0.389  0.9211  1.8569 -1.2579
 3409TIP3   OH231717   5.698   6.194   2.019 -0.3430  0.0104  0.1388
 3409TIP3    H131718   5.789   6.180   1.994  0.1845  1.4345  1.1280
 3409TIP3    H231719   5.695   6.168   2.112 -0.9606 -0.0771  0.0981
 3410TIP3   OH231720   0.401   6.365  15.293  0.3758 -0.0821  0.1897
 3410TIP3    H131721   0.483   6.355  15.341  1.3052  0.7218 -1.1638
 3410TIP3    H231722   0.426   6.358  15.201 -1.5728 -3.0788 -0.2350
 3411TIP3   OH231723   0.486   1.259   5.101  0.4877  0.6053  0.4681
 3411TIP3    H131724   0.397   1.231   5.077  0.8015 -1.2639  1.3177
 3411TIP3    H231725   0.523   1.291   5.019 -0.3520 -0.3379 -0.3167
 3412TIP3   OH231726   3.020   5.189  15.194 -0.3544 -0.1682  0.1396
 3412TIP3    H131727   3.083   5.255  15.168  0.2280  0.3301  2.5862
 3412TIP3    H231728   3.072   5.121  15.236 -1.0921 -1.5708 -1.1193
 3413TIP3   OH231729   2.615   0.069   0.329 -0.4296  0.3344  0.4554
 3413TIP3    H131730   2.635   0.016   0.252  0.0288  3.3078 -1.6537
 3413TIP3    H231731   2.620   0.007   0.402 -0.6228 -2.6066 -1.8087
 3414TIP3   OH231732   2.770   1.386   3.019 -0.1291 -0.1702 -0.5619
 3414TIP3    H131733   2.701   1.447   2.990  0.3463 -0.2205 -1.8831
 3414TIP3    H231734   2.734   1.346   3.098 -0.4226  1.8824  0.4280
 3415TIP3   OH231735   2.349   0.844   4.158 -0.1093  0.1949 -0.8776
 3415TIP3    H131736   2.376   0.931   4.186  1.2935 -0.0326 -1.4593
 3415TIP3    H231737   2.291   0.813   4.228 -0.9693  1.7282 -0.8606
 3416TIP3   OH231738   0.680   5.858   7.016 -0.3058 -0.1683  0.6843
 3416TIP3    H131739   0.602   5.902   7.051 -2.4102 -0.9462 -2.5249
 3416TIP3    H231740   0.714   5.920   6.951 -0.9744 -1.5108 -1.0575
 3417TIP3   OH231741   3.532   2.535  15.495  0.2068  0.4913  0.4569
 3417TIP3    H131742   3.603   2.501  15.441  1.0314  0.6543  1.4115
 3417TIP3    H231743   3.473   2.460  15.506 -0.2413  0.5879 -1.0530
 3418TIP3   OH231744   2.737   6.204   6.399 -0.6400  0.0701 -0.1726
 3418TIP3    H131745   2.830   6.216   6.419 -0.5199 -0.7992 -0.1749
 3418TIP3    H231746   2.712   6.126   6.447 -1.8720  1.3556  1.3796
 3419TIP3   OH231747   5.179   5.618  15.646 -0.4598 -0.2627 -0.4047
 3419TIP3    H131748   5.190   5.713  15.655 -1.7746 -0.2147  1.5000
 3419TIP3    H231749   5.240   5.581  15.710 -3.2407 -0.3996  2.4368
 3420TIP3   OH231750   6.476   2.258   1.286  0.3492 -0.5329  0.3701
 3420TIP3    H131751   6.472   2.171   1.245  1.5909 -1.3054  1.8026
 3420TIP3    H231752   6.423   2.249   1.366  0.9851 -0.1658  0.8407
 3421TIP3   OH231753   1.329   0.381  16.132  0.2773  0.3134  1.0358
 3421TIP3    H131754   1.400   0.320  16.154  1.7043  1.7593  0.6356
 3421TIP3    H231755   1.343   0.402  16.040 -1.7411 -0.6731  0.4483
 3422TIP3   OH231756   0.987   0.496   4.478 -0.5761 -0.0456  0.1999
 3422TIP3    H131757   1.027   0.442   4.546 -0.1344  0.6969  0.5411
 3422TIP3    H231758   1.037   0.578   4.480 -0.4384 -0.0756 -1.1380
 3423TIP3   OH231759   1.893   5.318  16.485 -0.2777  0.1140 -0.2503
 3423TIP3    H131760   1.927   5.264  16.413 -0.0201  0.0298 -0.0666
 3423TIP3    H231761   1.966   5.376  16.507  0.1582 -0.8316  0.9059
 3424TIP3   OH231762   3.139   1.451  11.964  0.1728  0.3290  0.1511
 3424TIP3    H131763   3.092   1.530  11.937 -1.0211 -0.2174  0.5632
 3424TIP3    H231764   3.231   1.476  11.963 -0.0066  1.0654 -1.9358
 3425TIP3   OH231765   4.681   1.612  11.283  0.0064  0.0763 -0.4627
 3425TIP3    H131766   4.596   1.568  11.281 -1.8211  3.2289  0.7375
 3425TIP3    H231767   4.679   1.673  11.210  1.8231 -0.6653 -1.1829
 3426TIP3   OH231768   1.331   2.617  11.015  0.1319  0.5204 -0.1757
 3426TIP3    H131769   1.260   2.551  11.016 -0.9399  1.5992  2.3391
 3426TIP3    H231770   1.289   2.696  10.981  0.6749  0.6776 -0.4936
 3427TIP3   OH231771   3.972   4.602   4.029  0.3122  0.1388 -0.2372
 3427TIP3    H131772   4.010   4.539   4.090 -0.1849  1.6458  1.7399
 3427TIP3    H231773   4.033   4.676   4.031 -0.4852  0.8171 -0.4114
 3428TIP3   OH231774   5.679   3.672   5.402  0.1712  0.0149 -0.0301
 3428TIP3    H131775   5.640   3.710   5.323  1.5546  0.4102 -0.5668
 3428TIP3    H231776   5.756   3.727   5.419  1.1074 -1.3619  0.3330
 3429TIP3   OH231777   3.888   5.557  11.644 -0.0438  0.0880  0.2925
 3429TIP3    H131778   3.906   5.552  11.550 -0.2501  2.8888  0.0011
 3429TIP3    H231779   3.797   5.530  11.653  0.1617 -0.8025 -0.2046
 3430TIP3   OH231780   1.614   5.538   0.468 -0.2150  0.1126  0.2671
 3430TIP3    H131781   1.530   5.509   0.434 -0.6439  1.8307 -0.2592
 3430TIP3    H231782   1.600   5.547   0.563  0.5109 -3.1191  0.8028
 3431TIP3   OH231783   6.214   2.425   5.315 -0.2136  0.0426  0.1275
 3431TIP3    H131784   6.138   2.378   5.348  0.6502 -1.3724  0.1824
 3431TIP3    H231785   6.200   2.432   5.221 -1.7340  2.3206  0.4649
 3432TIP3   OH231786   5.323   0.391  17.263 -0.4610  0.0215  0.1240
 3432TIP3    H131787   5.344   0.310  17.217  0.8177  0.1286  0.4899
 3432TIP3    H231788   5.227   0.392  17.267 -0.5113 -1.1923 -0.3620
 3433TIP3   OH231789   3.000   2.841  13.714 -0.6265 -0.2394  0.2944
 3433TIP3    H131790   2.942   2.913  13.735 -0.6691  0.0191 -0.6662
 3433TIP3    H231791   2.945   2.763  13.720 -0.4135 -0.2860  2.0279
 3434TIP3   OH231792   3.605   2.103  16.778  0.5458 -0.8052 -0.4073
 3434TIP3    H131793   3.559   2.151  16.847  3.0095  2.1038 -0.5656
 3434TIP3    H231794   3.537   2.083  16.713 -0.8584  1.6254  0.1734
 3435TIP3   OH231795   0.544   0.051  14.601 -0.3164 -0.4081  0.1261
 3435TIP3    H131796   0.530   0.139  14.567 -0.0428 -0.3630  0.1263
 3435TIP3    H231797   0.459   0.026  14.639 -0.2682  0.0345  0.5321
 3436TIP3   OH231798   5.612   3.798   0.396  0.1888  0.3373  0.2148
 3436TIP3    H131799   5.561   3.816   0.318  0.5227  0.6048  0.0577
 3436TIP3    H231800   5.549   3.759   0.457 -0.0320 -0.0402 -0.2478
 3437TIP3   OH231801   6.543   4.766  14.412  0.1464  0.6355  0.3105
 3437TIP3    H131802   6.597   4.775  14.333  0.5263 -0.5591  0.4213
 3437TIP3    H231803   6.598   4.798  14.483  1.0068 -1.2236  0.5248
 3438TIP3   OH231804   1.495   2.836   4.836  0.1442  0.4378  0.0081
 3438TIP3    H131805   1.500   2.931   4.833 -0.0282  0.5458  1.9317
 3438TIP3    H231806   1.481   2.810   4.745  1.1746  2.1652 -0.6937
 3439TIP3   OH231807   4.264   5.673   5.137  0.4910 -0.3896  0.1298
 3439TIP3    H131808   4.323   5.598   5.147 -0.5945 -1.3431 -0.3974
 3439TIP3    H231809   4.186   5.650   5.188  0.3620  0.6498  0.4410
 3440TIP3   OH231810   5.115   6.315   6.042 -0.1258 -0.2731 -0.0194
 3440TIP3    H131811   5.207   6.342   6.049 -0.2971  0.5629 -0.8406
 3440TIP3    H231812   5.067   6.379   6.094 -0.5768  1.3445 -2.3170
 3441TIP3   OH231813   4.585   4.779   2.295  0.0303 -0.3490 -0.2403
 3441TIP3    H131814   4.600   4.722   2.370  0.2116 -0.6749 -0.5217
 3441TIP3    H231815   4.649   4.850   2.305 -0.7399  0.2640  0.5551
 3442TIP3   OH231816   4.584   1.523  15.181 -0.3291  0.3211  0.1477
 3442TIP3    H131817   4.647   1.594  15.194 -0.1803 -0.1305  2.1553
 3442TIP3    H231818   4.499   1.564  15.195 -0.2104  0.0057  1.9503
 3443TIP3   OH231819   6.598   0.950  12.432 -0.5624  0.1953  0.3919
 3443TIP3    H131820   6.607   0.892  12.356  1.7125  0.0533  0.7196
 3443TIP3    H231821   6.508   0.983  12.426  0.3098  2.5053 -4.0299
 3444TIP3   OH231822   2.229   4.728  11.512 -0.3246  0.0477  0.1743
 3444TIP3    H131823   2.283   4.723  11.433 -0.3915  0.6395  0.0893
 3444TIP3    H231824   2.220   4.822  11.530  0.4899 -0.1027  1.4456
 3445TIP3   OH231825   5.317   2.264  15.974 -0.2062 -0.9263  0.1326
 3445TIP3    H131826   5.294   2.301  16.059 -0.9833 -1.5212  0.1951
 3445TIP3    H231827   5.349   2.176  15.994  0.5805 -0.7047 -0.1067
 3446TIP3   OH231828   4.064   3.142   6.569 -0.5100  0.8544  0.5962
 3446TIP3    H131829   3.971   3.130   6.551  0.0694 -0.8395 -1.7877
 3446TIP3    H231830   4.077   3.103   6.656 -1.9294  0.7832  0.7957
 3447TIP3   OH231831   1.684   6.739  10.671 -0.0333  0.2755 -0.2378
 3447TIP3    H131832   1.603   6.788  10.663 -0.7137 -0.5319  1.4053
 3447TIP3    H231833   1.698   6.729  10.765  2.3992  1.0559 -0.4482
 3448TIP3   OH231834   6.231   1.654  11.483 -0.1166 -0.0774 -0.0892
 3448TIP3    H131835   6.236   1.745  11.453 -0.7805  0.1500  0.4595
 3448TIP3    H231836   6.287   1.606  11.423  2.3572  1.0826  1.1653
 3449TIP3   OH231837   5.814   2.797   4.936 -0.2052 -0.1345  0.3637
 3449TIP3    H131838   5.747   2.745   4.979  0.4477 -0.7432  0.6642
 3449TIP3    H231839   5.773   2.882   4.921 -0.7766 -0.2404  1.2739
 3450TIP3   OH231840   2.002   0.356  17.273 -0.3238  0.0818  0.2178
 3450TIP3    H131841   2.069   0.303  17.230  0.7297  1.2584  0.3256
 3450TIP3    H231842   1.968   0.413  17.203 -0.8245 -0.1445  0.2786
 3451TIP3   OH231843   3.355   4.226   2.061  0.1067  0.0694 -0.0462
 3451TIP3    H131844   3.353   4.144   2.012  2.4715 -0.1120  0.0524
 3451TIP3    H231845   3.290   4.214   2.131  0.0878 -1.5353 -0.3035
 3452TIP3   OH231846   1.630   0.596   0.707 -0.6730  0.1774  0.2824
 3452TIP3    H131847   1.671   0.599   0.621  0.4745 -2.2739  0.6420
 3452TIP3    H231848   1.559   0.532   0.697 -1.3409  0.8173  0.8492
 3453TIP3   OH231849   4.686   1.276  11.368 -0.3715  0.1185 -0.4413
 3453TIP3    H131850   4.661   1.287  11.276 -2.8049 -0.6404  0.0606
 3453TIP3    H231851   4.699   1.182  11.379 -0.1321  0.2007  0.0211
 3454TIP3   OH231852   2.860   1.073  15.290  0.2903  0.2601 -0.1427
 3454TIP3    H131853   2.942   1.023  15.287  0.4696  0.5127  0.4337
 3454TIP3    H231854   2.887   1.162  15.268 -0.0763  0.0643 -1.4763
 3455TIP3   OH231855   2.738   2.641  11.640  0.6006  0.0046  0.0574
 3455TIP3    H131856   2.831   2.651  11.621  0.4871 -0.6169 -0.8962
 3455TIP3    H231857   2.695   2.703  11.581  0.4458  0.9413  1.1298
 3456TIP3   OH231858   0.595   6.543  12.198 -0.1284 -0.0279 -0.4579
 3456TIP3    H131859   0.588   6.463  12.146  0.2455 -0.4080  0.0683
 3456TIP3    H231860   0.623   6.514  12.284 -0.8666  0.5802  0.0087
 3457TIP3   OH231861   5.798   5.381   2.180  0.2950 -0.1368 -0.4138
 3457TIP3    H131862   5.705   5.366   2.196  0.9102 -3.3633  1.0193
 3457TIP3    H231863   5.823   5.446   2.245 -1.0539  1.2922 -1.2760
 3458TIP3   OH231864   1.954   1.586  16.146 -0.1407  0.3130  0.3714
 3458TIP3    H131865   1.970   1.666  16.196  1.3099 -0.6732  1.6123
 3458TIP3    H231866   1.997   1.518  16.198 -1.8738 -1.3797 -0.3005
 3459TIP3   OH231867   2.067   4.017   1.501  0.9953  0.4807 -0.8123
 3459TIP3    H131868   2.020   3.934   1.501 -1.9288  2.0129 -0.4057
 3459TIP3    H231869   2.148   3.999   1.550 -0.2789 -1.7212  0.6576
 3460TIP3   OH231870   4.600   3.249  14.961 -0.1772 -0.5651 -0.1325
 3460TIP3    H131871   4.591   3.231  14.868  1.1313 -2.8861  0.1113
 3460TIP3    H231872   4.616   3.343  14.967  4.7909 -0.9326 -2.7335
 3461TIP3   OH231873   2.744   5.683   3.180 -0.5318 -0.4784 -0.2831
 3461TIP3    H131874   2.654   5.704   3.154 -0.7233 -1.3993 -0.3744
 3461TIP3    H231875   2.735   5.608   3.238  0.2757 -1.2932 -1.2004
 3462TIP3   OH231876   1.634   6.305  13.479  0.2963  0.7790  0.5092
 3462TIP3    H131877   1.638   6.256  13.397  0.4860 -0.4996  1.2656
 3462TIP3    H231878   1.574   6.254  13.534 -0.0339  1.7643  1.0798
 3463TIP3   OH231879   0.045   4.972  16.356  0.2380  0.0268 -0.3655
 3463TIP3    H131880   0.045   4.929  16.442  0.2382  0.7899  0.0256
 3463TIP3    H231881   0.136   4.997  16.342  0.2303 -0.0587 -0.5769
 3464TIP3   OH231882   2.305   6.671   4.008 -0.1491  0.4875  0.2680
 3464TIP3    H131883   2.228   6.615   4.000 -0.5780  1.2121 -1.0239
 3464TIP3    H231884   2.292   6.718   4.091 -0.2931 -0.5329  0.8416
 3465TIP3   OH231885   1.719   5.860   0.131  0.4009  0.1412  0.3219
 3465TIP3    H131886   1.682   5.849   0.219  0.5991  0.9556  0.5188
 3465TIP3    H231887   1.796   5.915   0.144 -1.3040  2.9688 -0.6970
 3466TIP3   OH231888   2.685   2.366  11.763  0.2794  0.0341 -0.2859
 3466TIP3    H131889   2.777   2.342  11.774  0.5701  1.1324 -0.1298
 3466TIP3    H231890   2.683   2.421  11.685 -0.2135  0.1625 -0.1905
 3467TIP3   OH231891   2.786   0.106  16.267  0.5972  0.1254  0.2791
 3467TIP3    H131892   2.874   0.109  16.305  0.0495 -0.8913  1.7198
 3467TIP3    H231893   2.729   0.083  16.341 -0.4860 -2.2779 -1.1732
 3468TIP3   OH231894   4.743   0.767  16.422 -0.5954 -0.0580  0.3575
 3468TIP3    H131895   4.831   0.806  16.427 -0.0982 -0.5674 -2.3905
 3468TIP3    H231896   4.714   0.787  16.333 -3.2245 -0.0756  1.1381
 3469TIP3   OH231897   5.306   3.056  13.819 -0.0460 -0.0255 -0.3168
 3469TIP3    H131898   5.222   3.084  13.782  0.1281  0.7765 -0.1299
 3469TIP3    H231899   5.370   3.115  13.779  0.2044  0.5667  0.8989
 3470TIP3   OH231900   5.590   6.307   6.816  0.1855 -0.4117 -0.0680
 3470TIP3    H131901   5.544   6.227   6.788 -0.1732 -0.1996 -0.0915
 3470TIP3    H231902   5.528   6.377   6.797  1.1823  0.0673 -1.7285
 3471TIP3   OH231903   2.460   5.503  14.659 -0.1181  0.2186  0.4816
 3471TIP3    H131904   2.381   5.553  14.640 -0.3274 -0.7232 -1.3154
 3471TIP3    H231905   2.472   5.446  14.583  0.4918 -1.9725  2.0995
 3472TIP3   OH231906   1.851   5.363  15.089 -0.0332 -0.1299 -0.0342
 3472TIP3    H131907   1.786   5.413  15.039  0.2622 -0.7220 -1.0295
 3472TIP3    H231908   1.931   5.368  15.036  1.1076  1.5695  1.7315
 3473TIP3   OH231909   2.321   6.276  15.401 -0.5034  0.1835 -0.1803
 3473TIP3    H131910   2.271   6.295  15.480 -3.8709 -0.6536 -1.9240
 3473TIP3    H231911   2.361   6.191  15.417 -0.0699  0.6071  1.0546
 3474TIP3   OH231912   2.840   3.380   1.070  0.1611 -0.2387  0.1892
 3474TIP3    H131913   2.839   3.324   1.147 -0.5659  0.3784  0.6421
 3474TIP3    H231914   2.933   3.394   1.052  0.3913  0.9474  1.9743
 3475TIP3   OH231915   0.148   4.581  15.189 -0.1008  0.2458 -0.4838
 3475TIP3    H131916   0.091   4.657  15.203  0.5009  0.7518 -0.7093
 3475TIP3    H231917   0.201   4.605  15.113  0.0023 -0.4642 -0.6457
 3476TIP3   OH231918   2.619   6.005  11.256  0.5232  0.1977  0.0694
 3476TIP3    H131919   2.606   5.931  11.197  2.0195  0.2090 -0.3270
 3476TIP3    H231920   2.669   6.068  11.203 -1.2445  1.7765  0.1960
 3477TIP3   OH231921   1.437   1.968   0.231  0.3764  0.2788 -0.0497
 3477TIP3    H131922   1.509   1.985   0.171  1.0370  1.7750  1.1103
 3477TIP3    H231923   1.404   2.054   0.256 -1.5784 -0.3475 -0.2236
 3478TIP3   OH231924   3.693   6.482   1.072 -0.2447 -0.3551  0.3610
 3478TIP3    H131925   3.670   6.399   1.114  0.3351 -0.0558  1.2973
 3478TIP3    H231926   3.621   6.541   1.094 -0.8026 -0.6705 -0.5487
 3479TIP3   OH231927   4.214   0.218  16.959  0.1768 -0.8035  0.2047
 3479TIP3    H131928   4.178   0.297  16.997  1.4763 -0.1032  0.0465
 3479TIP3    H231929   4.155   0.148  16.987 -0.8001  0.1676  0.6199
 3480TIP3   OH231930   4.693   4.940  17.456  0.3366  0.4175 -0.6022
 3480TIP3    H131931   4.618   4.994  17.479  0.3041  0.9520 -1.8394
 3480TIP3    H231932   4.662   4.885  17.384  0.1464 -1.8488  1.0983
 3481TIP3   OH231933   4.658   5.514   0.949 -0.2419  0.4264 -0.0582
 3481TIP3    H131934   4.635   5.451   1.017 -1.9349  0.9525 -0.1025
 3481TIP3    H231935   4.581   5.570   0.941  0.2943  0.9795 -1.7353
 3482TIP3   OH231936   5.381   5.617  15.284  0.0466 -0.2709  0.0863
 3482TIP3    H131937   5.433   5.615  15.364 -1.6072 -1.5671  1.1807
 3482TIP3    H231938   5.422   5.552  15.227  1.1522  0.5656 -0.1079
 3483TIP3   OH231939   2.678   4.017  13.081 -0.1618 -0.4302 -0.3653
 3483TIP3    H131940   2.746   4.077  13.050  0.8534 -1.4521 -0.2183
 3483TIP3    H231941   2.635   4.064  13.153  0.7559  0.0381 -0.1053
 3484TIP3   OH231942   5.340   0.292  13.183  0.3978 -0.6306 -0.5547
 3484TIP3    H131943   5.254   0.330  13.202  0.6800  1.2594 -2.6916
 3484TIP3    H231944   5.321   0.205  13.149 -0.7957  0.1259 -1.9358
 3485TIP3   OH231945   2.555   2.615  16.839  0.5795 -0.1263 -0.2341
 3485TIP3    H131946   2.566   2.573  16.924  0.3264  0.8094  0.2821
 3485TIP3    H231947   2.462   2.601  16.818  0.7688 -0.8265 -0.6223
 3486TIP3   OH231948   3.128   1.678  13.020  0.1490  0.2573 -0.2883
 3486TIP3    H131949   3.172   1.599  12.987  0.7743  0.7473 -0.6353
 3486TIP3    H231950   3.037   1.650  13.031  0.4428 -0.6374  0.0064
 3487TIP3   OH231951   1.083   6.116  16.780  0.4206 -0.1268  0.2853
 3487TIP3    H131952   1.042   6.055  16.840  2.9748 -1.9736  0.3246
 3487TIP3    H231953   1.169   6.078  16.761  1.3350  2.4229 -1.3589
 3488TIP3   OH231954   3.295   6.736  15.157  0.2560  0.5427  0.1594
 3488TIP3    H131955   3.267   6.645  15.165  0.0490  0.5210 -0.7173
 3488TIP3    H231956   3.348   6.738  15.078  0.6116  1.1054  0.4037
 3489TIP3   OH231957   4.046   0.014   4.249 -0.3646  0.2492  0.6448
 3489TIP3    H131958   3.982   0.052   4.189 -2.4698 -2.4601  0.9665
 3489TIP3    H231959   3.999   0.007   4.332  1.6256  1.5127  1.9379
 3490TIP3   OH231960   5.810   6.550  16.446  0.4276  0.0891  0.4947
 3490TIP3    H131961   5.820   6.643  16.430 -1.8315  0.5101  1.2025
 3490TIP3    H231962   5.871   6.531  16.518 -0.1566  1.3550  1.3519
 3491TIP3   OH231963   6.286   3.905  13.784  0.1113 -0.0090  0.5582
 3491TIP3    H131964   6.335   3.823  13.776 -0.2979 -0.1600 -0.6687
 3491TIP3    H231965   6.327   3.951  13.857  2.6622  0.2657 -0.9540
 3492TIP3   OH231966   4.884   5.365  16.611  0.0777 -0.6758 -0.1872
 3492TIP3    H131967   4.907   5.274  16.589  0.2421 -0.7121  0.1381
 3492TIP3    H231968   4.797   5.358  16.650 -0.1369 -0.6313 -0.6406
 3493TIP3   OH231969   2.518   2.044  16.559 -0.0215 -0.0864  0.3277
 3493TIP3    H131970   2.455   1.972  16.556 -0.2150  0.0323  1.2305
 3493TIP3    H231971   2.485   2.102  16.628  0.3412  0.6767 -0.1245
 3494TIP3   OH231972   2.828   1.321  12.371 -0.4655  0.8226 -0.0144
 3494TIP3    H131973   2.885   1.323  12.295 -1.8704  2.2628 -1.1032
 3494TIP3    H231974   2.858   1.393  12.426 -0.6028  0.9452 -0.1002
 3495TIP3   OH231975   2.283   4.530   2.742  0.3116 -0.5549  0.0602
 3495TIP3    H131976   2.330   4.606   2.776  0.5534 -1.0263  0.8068
 3495TIP3    H231977   2.352   4.469   2.716  0.1336 -0.2037 -1.3097
 3496TIP3   OH231978   3.370   4.911   2.109  0.7075 -0.5354  0.1297
 3496TIP3    H131979   3.276   4.923   2.099  0.7006 -0.1406  0.6397
 3496TIP3    H231980   3.408   4.965   2.040  0.5251 -2.0069 -1.1571
 3497TIP3   OH231981   5.181   2.587   3.085 -0.1140  0.0912  0.0781
 3497TIP3    H131982   5.126   2.651   3.129  0.7462  0.2838  0.9005
 3497TIP3    H231983   5.270   2.606   3.115  0.3466 -0.5286 -0.8352
 3498TIP3   OH231984   4.748   0.490   5.192  0.5023  0.2238  0.3685
 3498TIP3    H131985   4.693   0.468   5.117  0.5797 -1.0524  0.6607
 3498TIP3    H231986   4.707   0.568   5.230 -0.3336  0.0731 -0.1929
 3499TIP3   OH231987   4.347   3.099   5.184  0.1792 -0.0752  0.4709
 3499TIP3    H131988   4.366   3.012   5.148 -1.1179 -0.2819  0.2109
 3499TIP3    H231989   4.364   3.090   5.278  0.1992 -0.5684  0.4239
 3500TIP3   OH231990   1.572   1.968  17.050 -0.0451  0.1560 -0.0563
 3500TIP3    H131991   1.569   2.060  17.076 -1.6724 -0.0023  0.3846
 3500TIP3    H231992   1.606   1.923  17.127 -0.9996  0.1765  0.3832
 3501TIP3   OH231993   0.464   6.452  12.607  0.1462  0.5595 -0.2045
 3501TIP3    H131994   0.507   6.528  12.567 -1.0529  0.6068 -1.4936
 3501TIP3    H231995   0.521   6.428  12.680  0.2799  3.0222  0.5947
 3502TIP3   OH231996   0.684   0.938  12.068  0.0278 -0.9329 -0.3181
 3502TIP3    H131997   0.711   0.847  12.080  0.7546 -0.5863  0.8826
 3502TIP3    H231998   0.603   0.945  12.118 -0.7621 -1.2337 -1.5128
 3503TIP3   OH231999   1.820   6.731  11.884  0.9093  0.1149  0.1146
 3503TIP3    H132000   1.909   6.755  11.857  0.1627  1.1594 -1.5564
 3503TIP3    H232001   1.764   6.762  11.813 -0.6132 -2.4149  0.0903
 3504TIP3   OH232002   2.226   5.169  14.229 -0.1502  0.2612  0.0494
 3504TIP3    H132003   2.260   5.208  14.148 -0.5148  1.6728  0.5411
 3504TIP3    H232004   2.205   5.079  14.205  2.3144 -0.1919 -0.7066
 3505TIP3   OH232005   6.198   3.891  13.174  0.0835 -0.7327 -0.7853
 3505TIP3    H132006   6.152   3.929  13.100 -0.6689 -0.7312 -0.3203
 3505TIP3    H232007   6.203   3.961  13.239 -1.1023 -1.3277 -0.0177
 3506TIP3   OH232008   6.540   6.722   0.854  0.1133  0.2485 -0.4635
 3506TIP3    H132009   6.491   6.796   0.817  1.0163  0.5703 -1.0288
 3506TIP3    H232010   6.626   6.728   0.814  0.1913 -1.1338 -0.5261
 3507TIP3   OH232011   3.995   4.006   5.163 -0.4577  0.0450 -0.2018
 3507TIP3    H132012   4.050   3.951   5.219 -1.8263 -1.3532 -0.1603
 3507TIP3    H232013   3.924   3.948   5.135 -1.8835  1.7667 -0.3040
 3508TIP3   OH232014   0.192   1.128   4.086 -0.2751 -0.1879  0.1552
 3508TIP3    H132015   0.108   1.114   4.131  0.4642  2.0801  2.5123
 3508TIP3    H232016   0.234   1.042   4.086 -0.9547 -0.6200  2.6621
 3509TIP3   OH232017   4.503   2.989  13.364  0.0593 -0.1682 -0.3167
 3509TIP3    H132018   4.490   3.026  13.277 -0.4557  1.2605  0.3469
 3509TIP3    H232019   4.598   2.983  13.374  0.1303 -1.4822 -1.4131
 3510TIP3   OH232020   2.483   4.435  13.841  0.2496 -0.0375 -0.4405
 3510TIP3    H132021   2.393   4.404  13.849 -0.0282  1.1162  1.6244
 3510TIP3    H232022   2.510   4.410  13.753 -2.0806 -0.3864 -1.1019
 3511TIP3   OH232023   2.520   5.344  15.162  0.2877 -1.0162  0.2916
 3511TIP3    H132024   2.609   5.371  15.139 -0.5574  1.6130 -0.2275
 3511TIP3    H232025   2.532   5.279  15.231  2.6136 -1.3022 -0.2999
 3512TIP3   OH232026   3.957   2.413  12.574  0.0477  0.3439 -0.3842
 3512TIP3    H132027   3.972   2.481  12.641  2.1384  0.5400 -1.0021
 3512TIP3    H232028   4.018   2.434  12.504 -0.7909 -0.9582 -1.5611
 3513TIP3   OH232029   0.613   3.515   5.367  0.0474  0.2354  0.1993
 3513TIP3    H132030   0.634   3.607   5.384  0.5223  0.5533 -1.7934
 3513TIP3    H232031   0.672   3.465   5.423  0.3759  1.1509  0.6788
 3514TIP3   OH232032   3.732   4.894   5.871  1.1393 -0.2392  0.4413
 3514TIP3    H132033   3.711   4.815   5.821  0.2454  0.9765 -1.2063
 3514TIP3    H232034   3.648   4.937   5.884  1.7407  1.0371  0.2554
 3515TIP3   OH232035   5.452   2.692   0.409 -0.0617 -0.3459 -0.7575
 3515TIP3    H132036   5.365   2.731   0.413 -0.4045 -0.8469 -2.6731
 3515TIP3    H232037   5.495   2.723   0.489 -1.1307  1.9458 -0.9881
 3516TIP3   OH232038   3.699   2.330  12.519  0.3509 -0.0152 -0.1117
 3516TIP3    H132039   3.790   2.346  12.543  0.7305 -0.4931 -1.1724
 3516TIP3    H232040   3.692   2.234  12.517 -0.3508  0.0130  0.5811
 3517TIP3   OH232041   3.517   2.544   0.389 -0.1318  0.1749  0.2372
 3517TIP3    H132042   3.597   2.529   0.338 -0.1534 -0.0612  0.2753
 3517TIP3    H232043   3.538   2.513   0.477 -0.1099  0.5406  0.3654
 3518TIP3   OH232044   2.599   2.567   2.153  0.1900  0.6467 -0.3973
 3518TIP3    H132045   2.579   2.621   2.076 -2.8640  0.8690  0.4332
 3518TIP3    H232046   2.557   2.483   2.134  0.5211  0.2832  0.4772
 3519TIP3   OH232047   6.210   1.357  10.581 -0.5280 -0.3208  0.1168
 3519TIP3    H132048   6.171   1.308  10.654  2.4672 -2.9331  0.2139
 3519TIP3    H232049   6.171   1.318  10.503 -2.5157  1.3512  0.1961
 3520TIP3   OH232050   6.476   3.321   3.273 -0.1859  0.1228  0.0156
 3520TIP3    H132051   6.537   3.383   3.313 -0.7338 -0.4664  1.8367
 3520TIP3    H232052   6.524   3.238   3.273 -0.1240  0.1486 -0.7702
 3521TIP3   OH232053   4.069   6.749   6.100 -0.1697 -0.3464  0.4607
 3521TIP3    H132054   3.998   6.752   6.164 -0.1762 -0.6345  0.4680
 3521TIP3    H232055   4.148   6.734   6.153 -0.3922 -2.5520  0.2687
 3522TIP3   OH232056   6.493   4.826  17.428  0.1177 -0.4078  0.3792
 3522TIP3    H132057   6.553   4.894  17.458  0.1817 -0.1610 -0.3020
 3522TIP3    H232058   6.490   4.763  17.501  0.2895  0.1649  0.8876
 3523TIP3   OH232059   1.886   5.158  17.235 -0.3237  0.0219  0.3460
 3523TIP3    H132060   1.975   5.123  17.239 -0.2975  0.0136 -0.2359
 3523TIP3    H232061   1.887   5.232  17.297  0.0035 -0.1520  0.5549
 3524TIP3   OH232062   3.095   5.420  17.423 -0.4909  0.2046 -0.4737
 3524TIP3    H132063   3.054   5.482  17.363  0.5273 -0.3438 -1.7737
 3524TIP3    H232064   3.108   5.470  17.504 -0.0157  1.5783 -1.3719
 3525TIP3   OH232065   3.827   0.081   5.548 -0.0912 -0.2582  0.2940
 3525TIP3    H132066   3.779   0.000   5.528  1.8286 -0.7075 -3.3288
 3525TIP3    H232067   3.784   0.148   5.496 -1.3855  1.1363  2.9393
 3526TIP3   OH232068   5.626   2.829  17.209  0.1689  0.2869 -0.1019
 3526TIP3    H132069   5.699   2.825  17.148  0.8208 -1.5217  0.7225
 3526TIP3    H232070   5.641   2.756  17.269 -2.1725  0.0195  0.2472
 3527TIP3   OH232071   6.752   6.762  13.415  0.3961 -0.6766 -0.0617
 3527TIP3    H132072   6.749   6.813  13.496  4.5739  0.4559 -0.4140
 3527TIP3    H232073   6.662   6.766  13.381 -0.7370  1.6328  2.7963
 3528TIP3   OH232074   2.529   6.052  16.160 -0.0831  0.4664  0.5736
 3528TIP3    H132075   2.536   6.139  16.121 -0.6279  0.8938  1.3941
 3528TIP3    H232076   2.445   6.018  16.129 -0.8623  1.1005  1.8947
 3529TIP3   OH232077   2.981   1.329   2.436  0.0952 -0.0293 -0.0177
 3529TIP3    H132078   3.015   1.325   2.347  1.5911 -1.6976  0.5557
 3529TIP3    H232079   3.043   1.277   2.488 -2.1167 -1.3143  1.5344
 3530TIP3   OH232080   3.439   0.656  11.580 -0.1659  0.0287 -0.6699
 3530TIP3    H132081   3.529   0.680  11.599 -0.5285  0.9796 -0.0606
 3530TIP3    H232082   3.402   0.629  11.664 -1.0617  1.8171 -0.4403
 3531TIP3   OH232083   2.809   4.078  11.939 -0.5808  0.0624  0.3674
 3531TIP3    H132084   2.855   4.121  12.011  0.1907 -0.7961  0.4006
 3531TIP3    H232085   2.840   3.988  11.942 -1.1183 -0.1572 -0.5745
 3532TIP3   OH232086   5.742   6.481   1.798  0.3352  0.8705  0.1146
 3532TIP3    H132087   5.790   6.402   1.772  1.3888  1.9556 -1.3821
 3532TIP3    H232088   5.662   6.447   1.838  0.4769 -0.9610 -1.0109
 3533TIP3   OH232089   6.147   4.441   2.385 -0.1790 -0.0886 -0.0650
 3533TIP3    H132090   6.139   4.496   2.463  1.3081  1.5234 -0.9812
 3533TIP3    H232091   6.098   4.488   2.317 -0.7460 -1.0353 -0.3281
 3534TIP3   OH232092   6.237   5.942  16.202  0.0890  0.3585 -0.2039
 3534TIP3    H132093   6.293   5.943  16.280  2.1389 -1.4109 -1.5521
 3534TIP3    H232094   6.237   6.033  16.172  1.6897  0.5600  0.2801
 3535TIP3   OH232095   5.540   3.624  12.618 -0.0839 -0.2882  0.7791
 3535TIP3    H132096   5.493   3.541  12.627 -0.7093  0.1261  1.4724
 3535TIP3    H232097   5.480   3.689  12.655  0.7247  0.3591  0.9811
 3536TIP3   OH232098   5.079   1.628  15.640 -0.3338  0.0237  0.0114
 3536TIP3    H132099   5.080   1.592  15.552  0.3567  0.6871 -0.2667
 3536TIP3    H232100   5.139   1.571  15.689  0.4383  0.5359 -0.3247
 3537TIP3   OH232101   3.398   1.050  15.372 -0.5220 -0.2143  0.2351
 3537TIP3    H132102   3.396   1.144  15.354 -1.2611 -0.0249  1.1785
 3537TIP3    H232103   3.488   1.032  15.398 -0.4333  0.2877  0.2837
 3538TIP3   OH232104   6.134   3.647  15.363 -0.0073 -0.0228 -0.1935
 3538TIP3    H132105   6.085   3.682  15.288  0.9541  0.7030 -0.5068
 3538TIP3    H232106   6.186   3.576  15.325  1.0868  0.8680 -0.3983
 3539TIP3   OH232107   5.446   2.456   2.792 -0.0762  1.0492  0.8317
 3539TIP3    H132108   5.411   2.419   2.873 -0.5462  1.9462  1.0461
 3539TIP3    H232109   5.525   2.503   2.819  0.7430 -0.1092  0.5014
 3540TIP3   OH232110   1.454   3.000  13.153  0.3052 -0.1826 -0.1867
 3540TIP3    H132111   1.397   2.958  13.218 -1.5028 -0.7796 -2.0404
 3540TIP3    H232112   1.428   2.960  13.070  2.4294  0.6631 -1.3240
 3541TIP3   OH232113   6.718   6.145  14.774  0.5229 -0.1448 -0.4903
 3541TIP3    H132114   6.626   6.155  14.799  0.6302 -1.9378  0.9080
 3541TIP3    H232115   6.754   6.234  14.775 -0.3296  0.2922  2.7846
 3542TIP3   OH232116   2.798   6.136   1.842  0.8059  0.4653 -0.4755
 3542TIP3    H132117   2.829   6.062   1.895 -0.9508 -0.0666 -0.1070
 3542TIP3    H232118   2.813   6.213   1.898  0.3092  0.0790  0.2112
 3543TIP3   OH232119   4.586   5.977   4.899  0.9565 -0.0301  0.6261
 3543TIP3    H132120   4.578   6.068   4.926 -0.6042 -0.1946  0.7984
 3543TIP3    H232121   4.568   5.927   4.979  0.5430 -0.4854  0.2558
 3544TIP3   OH232122   0.441   4.646   4.374  0.0822  0.4052  0.3442
 3544TIP3    H132123   0.353   4.644   4.412  0.3255  0.6248  0.9105
 3544TIP3    H232124   0.466   4.554   4.367 -0.1545  0.3463  0.2618
 3545TIP3   OH232125   3.283   5.528  12.762  0.5535 -0.0749  0.0666
 3545TIP3    H132126   3.353   5.476  12.723 -0.3419 -1.5220  0.3289
 3545TIP3    H232127   3.277   5.606  12.706 -0.0974 -1.6709 -2.2099
 3546TIP3   OH232128   2.130   3.086  13.827 -0.3031  0.0879 -0.8625
 3546TIP3    H132129   2.190   3.123  13.763  0.4081 -0.8566 -0.7610
 3546TIP3    H232130   2.179   3.086  13.909 -0.4125 -0.7477 -0.7894
 3547TIP3   OH232131   2.506   4.962  14.732 -0.1840 -0.0069  0.2791
 3547TIP3    H132132   2.584   4.906  14.742  1.0291  1.8248  1.8230
 3547TIP3    H232133   2.516   5.001  14.645  0.7920  0.3814  0.5439
 3548TIP3   OH232134   4.434   0.656  16.714 -0.2962  0.1975 -0.3555
 3548TIP3    H132135   4.491   0.580  16.698  0.2802  0.8502 -1.5281
 3548TIP3    H232136   4.372   0.655  16.641 -1.5210 -0.2260  0.6521
 3549TIP3   OH232137   3.492   0.410  11.474 -0.5622  0.5723 -0.4418
 3549TIP3    H132138   3.489   0.402  11.379 -1.3326 -0.6177 -0.3493
 3549TIP3    H232139   3.458   0.498  11.492  1.2677  1.5043 -1.3137
 3550TIP3   OH232140   3.809   1.779  17.495 -0.0410  0.7639 -0.1822
 3550TIP3    H132141   3.815   1.721  17.570 -2.1583  1.5356  0.6613
 3550TIP3    H232142   3.752   1.850  17.524 -0.8444  1.1371 -2.4828
 3551TIP3   OH232143   1.626   2.491  16.955  0.9913  0.5196 -0.9859
 3551TIP3    H132144   1.694   2.460  16.896 -0.0356  0.1864 -2.0374
 3551TIP3    H232145   1.633   2.586  16.954  1.6280  0.4741 -0.8500
 3552TIP3   OH232146   3.941   0.559   1.702 -0.3874  0.1174  0.1637
 3552TIP3    H132147   4.024   0.529   1.665 -0.2751  0.9690 -0.2967
 3552TIP3    H232148   3.963   0.638   1.751 -0.8214 -0.0178  0.5862
 3553TIP3   OH232149   5.449   3.847   5.252  0.1027 -0.4355 -0.1988
 3553TIP3    H132150   5.432   3.799   5.171 -2.6421 -1.9251  1.1243
 3553TIP3    H232151   5.403   3.798   5.320 -2.1197  3.4623  1.4700
 3554TIP3   OH232152   0.313   0.082   3.164 -0.2770  0.0497  0.0914
 3554TIP3    H132153   0.373   0.153   3.142  0.9533 -0.0492  2.7069
 3554TIP3    H232154   0.350   0.005   3.121 -1.5506  0.8577 -2.6630
 3555TIP3   OH232155   4.757   0.794   1.899 -0.1739  0.1968  0.4540
 3555TIP3    H132156   4.839   0.838   1.919 -0.3255  0.6666  0.0554
 3555TIP3    H232157   4.754   0.789   1.804  0.4139 -1.7843  0.4777
 3556TIP3   OH232158   4.668   2.234   5.604  0.2106  0.3089  0.1308
 3556TIP3    H132159   4.581   2.238   5.563  0.2908  2.3468  0.0433
 3556TIP3    H232160   4.722   2.187   5.542 -0.5874 -0.0912 -0.2811
 3557TIP3   OH232161   4.558   5.472   3.071  0.1257 -0.5158 -0.1869
 3557TIP3    H132162   4.562   5.377   3.058  1.4533 -0.6776  1.1559
 3557TIP3    H232163   4.465   5.490   3.083 -0.2233 -1.5326 -1.1414
 3558TIP3   OH232164   3.974   4.421  13.525 -0.3910  0.2823 -0.4604
 3558TIP3    H132165   3.982   4.503  13.478  1.2560  0.1536 -0.4653
 3558TIP3    H232166   3.898   4.378  13.487 -1.3812  1.8617 -0.3318
 3559TIP3   OH232167   4.854   0.680  12.071 -0.0517 -0.2406  0.1918
 3559TIP3    H132168   4.939   0.665  12.112  0.4474  2.2541  0.1949
 3559TIP3    H232169   4.843   0.775  12.071 -0.9478 -0.1766 -3.5616
 3560TIP3   OH232170   1.614   5.471  14.913 -0.3754 -0.3382 -0.6346
 3560TIP3    H132171   1.531   5.452  14.956 -0.1282 -1.5617 -0.6656
 3560TIP3    H232172   1.590   5.520  14.834 -1.0063 -0.0995 -0.2995
 3561TIP3   OH232173   2.815   3.921  17.517  0.0526  0.1062 -0.3874
 3561TIP3    H132174   2.904   3.956  17.511 -1.1778  3.7086 -0.2287
 3561TIP3    H232175   2.823   3.845  17.575  3.0530  0.1042 -0.6668
 3562TIP3   OH232176   5.461   6.588   2.800  0.2641  0.9363  0.0371
 3562TIP3    H132177   5.538   6.541   2.769  0.9479  0.4036  2.3528
 3562TIP3    H232178   5.387   6.537   2.767  0.9839 -1.5956  2.0468
 3563TIP3   OH232179   6.347   1.719  16.263  0.1450  0.3681 -0.5327
 3563TIP3    H132180   6.300   1.665  16.200 -0.5857 -1.4095  1.4244
 3563TIP3    H232181   6.401   1.658  16.313 -1.2401  1.2215  2.2403
 3564TIP3   OH232182   6.448   0.988  15.595  0.0287 -0.0118  0.1606
 3564TIP3    H132183   6.454   1.076  15.558  0.7874 -0.2954 -0.4022
 3564TIP3    H232184   6.524   0.981  15.652 -0.3224 -0.1239  0.6302
 3565TIP3   OH232185   3.169   4.473  11.668 -0.1618  0.0012  0.2619
 3565TIP3    H132186   3.111   4.526  11.723 -0.0278  0.3844  0.0357
 3565TIP3    H232187   3.127   4.387  11.664 -0.1351 -0.0624  1.0334
 3566TIP3   OH232188   1.634   0.957   5.893 -0.2742 -0.2697 -0.2438
 3566TIP3    H132189   1.662   0.881   5.943 -2.5570 -0.0174  1.5886
 3566TIP3    H232190   1.681   1.031   5.933 -1.6119 -0.1550  1.2082
 3567TIP3   OH232191   6.395   0.967   3.786  0.0654 -0.6199 -0.0473
 3567TIP3    H132192   6.387   1.056   3.821  1.4330 -0.8473  0.9353
 3567TIP3    H232193   6.364   0.973   3.696  1.4438  1.1605 -0.4388
 3568TIP3   OH232194   6.370   3.950   4.361 -0.1221  0.0751  0.5597
 3568TIP3    H132195   6.289   3.979   4.402  0.6874  0.3994  1.9872
 3568TIP3    H232196   6.347   3.936   4.269 -1.2808  2.2151  0.4801
 3569TIP3   OH232197   2.159   1.437  11.581  0.2472 -0.6027 -0.1935
 3569TIP3    H132198   2.152   1.357  11.632 -1.6814  0.9907  2.2647
 3569TIP3    H232199   2.087   1.432  11.518 -0.7103 -0.2658  0.8455
 3570TIP3   OH232200   2.542   6.594  16.598  0.2936  0.0382  0.0184
 3570TIP3    H132201   2.540   6.541  16.677  0.5217  0.6570  0.4519
 3570TIP3    H232202   2.456   6.582  16.558  0.1124 -0.1390  0.4605
 3571TIP3   OH232203   0.725   0.654  12.500  0.1070 -0.4431 -0.3612
 3571TIP3    H132204   0.783   0.579  12.514 -0.3973 -0.9151 -0.7432
 3571TIP3    H232205   0.669   0.655  12.578  0.5921 -0.0083 -0.0080
 3572TIP3   OH232206   3.288   1.822  13.810 -0.2672 -0.0467  0.2641
 3572TIP3    H132207   3.321   1.911  13.822  2.2287 -0.4436 -2.5107
 3572TIP3    H232208   3.301   1.780  13.895  1.3898  1.4033  0.8020
 3573TIP3   OH232209   2.531   2.998  10.775 -0.0060  0.0317  0.2889
 3573TIP3    H132210   2.564   3.088  10.767  1.7712 -0.6193 -0.2752
 3573TIP3    H232211   2.436   3.008  10.780  0.1445  1.9424  0.2807
 3574TIP3   OH232212   3.007   2.896  12.860 -0.4227  0.2403 -0.3056
 3574TIP3    H132213   2.912   2.908  12.860 -0.4489  0.1453 -1.3965
 3574TIP3    H232214   3.034   2.923  12.948 -1.4650  0.1709  0.0600
 3575TIP3   OH232215   0.732   1.066  17.138 -0.0495 -0.1302 -0.6728
 3575TIP3    H132216   0.694   1.098  17.056  1.9112  0.6395 -1.3374
 3575TIP3    H232217   0.696   1.125  17.205 -2.5058 -1.4242 -0.7554
 3576TIP3   OH232218   6.616   4.009   6.651  0.2883  0.3058  0.4337
 3576TIP3    H132219   6.585   3.919   6.637 -1.1432  0.4868  2.0469
 3576TIP3    H232220   6.553   4.046   6.713  1.0170  2.3409  0.0221
 3577TIP3   OH232221   3.473   4.284   3.967 -0.0030  0.7911  0.0931
 3577TIP3    H132222   3.386   4.256   3.994  0.9662 -1.5683  1.0181
 3577TIP3    H232223   3.511   4.326   4.044  0.1234  0.7041  0.0792
 3578TIP3   OH232224   3.006   0.087   2.748 -0.1866  0.4062 -0.0834
 3578TIP3    H132225   3.092   0.049   2.728  1.1067  1.6637  2.6270
 3578TIP3    H232226   2.944   0.015   2.734  1.1346 -0.3232 -2.8421
 3579TIP3   OH232227   0.212   3.151   4.500 -0.0561  0.1910  0.0002
 3579TIP3    H132228   0.285   3.108   4.544 -0.5201 -1.3354 -0.6454
 3579TIP3    H232229   0.203   3.236   4.544 -0.0580 -0.9642  2.3602
 3580TIP3   OH232230   4.178   0.554   3.464  0.0489 -0.6786  0.5811
 3580TIP3    H132231   4.172   0.524   3.554 -2.1087 -0.1069  0.6930
 3580TIP3    H232232   4.119   0.495   3.416 -0.7060  0.4974  0.0138
 3581TIP3   OH232233   2.559   6.632  17.322  0.1055 -0.9120 -0.5254
 3581TIP3    H132234   2.620   6.569  17.359 -0.0763 -0.4387  0.5927
 3581TIP3    H232235   2.476   6.616  17.368 -0.1996 -0.4893 -0.9160
 3582TIP3   OH232236   1.090   0.486   0.113  0.2785 -0.8944  0.2011
 3582TIP3    H132237   1.106   0.578   0.091 -1.3955 -0.7658 -0.6329
 3582TIP3    H232238   1.002   0.486   0.151  0.1504 -2.1944 -0.0630
 3583TIP3   OH232239   0.508   3.655   1.459 -0.1817 -0.6028 -0.4502
 3583TIP3    H132240   0.533   3.580   1.404  0.1711 -1.1234  0.4076
 3583TIP3    H232241   0.470   3.615   1.537 -1.8290  0.1474 -0.8272
 3584TIP3   OH232242   4.708   3.581   1.647 -0.0498  0.1380 -0.2658
 3584TIP3    H132243   4.704   3.508   1.708 -0.3579 -1.0253 -1.6127
 3584TIP3    H232244   4.699   3.659   1.702 -0.3795 -0.8499  1.1444
 3585TIP3   OH232245   0.312   0.382   5.135 -0.6593 -0.1517  0.0549
 3585TIP3    H132246   0.333   0.468   5.172 -0.4970  0.4993 -1.4811
 3585TIP3    H232247   0.396   0.346   5.108 -0.7777 -0.6187  0.2867
 3586TIP3   OH232248   6.171   5.527   1.347 -0.0445  0.1489  0.2131
 3586TIP3    H132249   6.195   5.600   1.404 -1.1269  1.5975 -1.0855
 3586TIP3    H232250   6.114   5.472   1.401  0.3282  0.5565  1.0360
 3587TIP3   OH232251   4.434   6.296   2.160 -0.4079 -0.0437 -0.0260
 3587TIP3    H132252   4.358   6.263   2.207 -0.1110  0.3386  0.7460
 3587TIP3    H232253   4.459   6.375   2.208  0.4217 -0.1259 -0.3099
 3588TIP3   OH232254   1.846   0.290   0.995  0.1817 -0.2235  0.5291
 3588TIP3    H132255   1.936   0.278   1.025  0.7422  2.5866  0.2411
 3588TIP3    H232256   1.793   0.267   1.072  1.2529  0.0483  1.3849
 3589TIP3   OH232257   0.467   4.801   1.966 -0.1973 -0.2131  0.8905
 3589TIP3    H132258   0.380   4.825   1.934  0.7118  0.3434 -1.3534
 3589TIP3    H232259   0.509   4.885   1.988  0.7017 -0.2070 -0.7064
 3590TIP3   OH232260   5.890   3.086  15.070  0.0407  0.0019  0.3013
 3590TIP3    H132261   5.975   3.070  15.028 -0.4038 -1.6347 -0.0491
 3590TIP3    H232262   5.839   3.132  15.003 -0.0021 -0.8056 -0.2370
 3591TIP3   OH232263   6.595   1.674  14.619  0.2009  0.0090 -0.3083
 3591TIP3    H132264   6.615   1.688  14.527 -1.1328  1.0021 -0.4849
 3591TIP3    H232265   6.501   1.695  14.626  0.4109  0.5011  1.3665
 3592TIP3   OH232266   2.393   4.870  14.432  0.3727 -0.1148  0.4662
 3592TIP3    H132267   2.303   4.900  14.444  1.0554  2.3679  0.0184
 3592TIP3    H232268   2.414   4.891  14.341  1.5668 -0.1277  0.7185
 3593TIP3   OH232269   5.387   5.848   5.127  0.6162 -0.0015 -0.4902
 3593TIP3    H132270   5.436   5.925   5.155 -0.5518  0.6633 -0.2063
 3593TIP3    H232271   5.419   5.829   5.039  0.6087  1.0761 -0.7401
 3594TIP3   OH232272   0.920   5.319  11.955 -0.2779  0.0473  0.1386
 3594TIP3    H132273   0.941   5.354  12.042  0.6475  1.1196 -0.4786
 3594TIP3    H232274   0.993   5.261  11.935 -0.2038  0.2291 -0.1337
 3595TIP3   OH232275   5.948   5.377  12.729 -0.0039  0.6492  0.0829
 3595TIP3    H132276   5.857   5.353  12.709  0.0636 -1.0507  1.5675
 3595TIP3    H232277   5.963   5.458  12.680 -2.5787  1.4393  0.4499
 3596TIP3   OH232278   4.316   3.223  12.148  0.0700 -0.2240  0.0912
 3596TIP3    H132279   4.288   3.142  12.107 -0.4428 -0.1288  0.2475
 3596TIP3    H232280   4.291   3.291  12.085  1.4669 -0.2607 -0.5351
 3597TIP3   OH232281   3.569   5.488  14.637  0.0204  0.0077 -0.0811
 3597TIP3    H132282   3.504   5.483  14.567 -0.7472  0.8783  0.5513
 3597TIP3    H232283   3.529   5.544  14.703  0.8527 -0.5584  0.9308
 3598TIP3   OH232284   3.434   4.238   0.930  0.9012  0.4499 -0.2263
 3598TIP3    H132285   3.387   4.155   0.922 -2.3292  2.1337 -0.3271
 3598TIP3    H232286   3.419   4.283   0.847 -0.8188  2.6575  1.1506
 3599TIP3   OH232287   5.222   4.109  13.449 -0.0957 -0.0720 -0.6096
 3599TIP3    H132288   5.182   4.022  13.439  0.8270 -0.3908 -1.8837
 3599TIP3    H232289   5.170   4.166  13.392  0.9923 -0.4245 -2.0296
 3600TIP3   OH232290   6.463   3.784   3.383  0.5131 -0.1621  0.6661
 3600TIP3    H132291   6.456   3.772   3.289 -1.7555  0.8747  0.6480
 3600TIP3    H232292   6.556   3.801   3.398  0.5445  2.4862 -1.7600
 3601TIP3   OH232293   4.088   0.602   4.512 -0.2024  0.9047 -0.1568
 3601TIP3    H132294   4.171   0.615   4.557 -0.0866  0.8530 -0.3551
 3601TIP3    H232295   4.097   0.648   4.429  0.6958 -1.3947 -1.4322
 3602TIP3   OH232296   1.595   6.497   0.141  0.3009  0.7615  0.3074
 3602TIP3    H132297   1.682   6.519   0.109  0.2133 -0.0106 -0.4978
 3602TIP3    H232298   1.574   6.567   0.203  1.4887  0.9520  0.5211
 3603TIP3   OH232299   0.911   6.271  10.901  0.2131  0.3516 -0.5509
 3603TIP3    H132300   0.972   6.294  10.830 -0.8651 -0.9124 -1.9638
 3603TIP3    H232301   0.828   6.311  10.876 -0.0074  0.5270  0.4194
 3604TIP3   OH232302   0.526   0.015   2.008  0.1492 -0.7173 -0.5262
 3604TIP3    H132303   0.523   0.105   2.041 -1.0993 -0.8712 -0.1672
 3604TIP3    H232304   0.519  -0.040   2.086  0.2486 -1.1186 -0.7955
 3605TIP3   OH232305   3.127   1.125  13.884  0.0538 -0.3252 -0.2890
 3605TIP3    H132306   3.169   1.179  13.817  0.0736 -0.2621 -0.2252
 3605TIP3    H232307   3.096   1.188  13.949  0.4839 -0.4216  0.0134
 3606TIP3   OH232308   0.733   1.052   3.192  0.0047  0.1456  0.2392
 3606TIP3    H132309   0.822   1.044   3.225 -0.2020  0.7413  0.9608
 3606TIP3    H232310   0.695   1.124   3.243 -0.8521 -0.0327 -0.1379
 3607TIP3   OH232311   1.842   5.918  17.305 -0.0736 -0.5554  0.1407
 3607TIP3    H132312   1.808   6.004  17.329  0.1038 -0.4157 -0.1110
 3607TIP3    H232313   1.810   5.902  17.216  1.7753  0.2558 -0.7148
 3608TIP3   OH232314   1.763   0.718  12.990 -0.2130  0.1440  0.0126
 3608TIP3    H132315   1.721   0.721  12.904 -0.0798 -0.3260 -0.0731
 3608TIP3    H232316   1.857   0.720  12.971 -0.1827  0.0289  0.1458
 3609TIP3   OH232317   4.822   3.059   4.230 -1.0475 -0.4647 -0.3874
 3609TIP3    H132318   4.812   2.994   4.160  2.0040 -0.8048 -0.6488
 3609TIP3    H232319   4.815   3.009   4.311 -0.3917 -0.8524 -0.5618
 3610TIP3   OH232320   1.098   2.757   5.974  0.2322 -0.5959  0.1272
 3610TIP3    H132321   1.192   2.754   5.955  0.7735  1.4425  2.0935
 3610TIP3    H232322   1.080   2.675   6.020  0.5183 -1.9555 -1.9960
 3611TIP3   OH232323   4.485   0.956  11.282  0.0896 -0.5018  0.5588
 3611TIP3    H132324   4.556   0.925  11.226  0.2119  0.6469  0.0587
 3611TIP3    H232325   4.529   0.999  11.355 -0.0799  0.3932  0.1449
 3612TIP3   OH232326   4.683   5.158   6.809  0.0556  0.1026  0.1397
 3612TIP3    H132327   4.618   5.220   6.777  1.0744 -0.0562 -2.4865
 3612TIP3    H232328   4.637   5.075   6.818 -0.4023  0.3035 -0.3611
 3613TIP3   OH232329   4.722   2.866  11.921  0.5958 -0.3807 -0.1628
 3613TIP3    H132330   4.703   2.773  11.931 -0.1802 -0.0854  1.3484
 3613TIP3    H232331   4.801   2.880  11.973  0.9262 -0.2472 -0.6867
 3614TIP3   OH232332   4.658   0.102   3.255 -0.0545 -0.7485  0.1910
 3614TIP3    H132333   4.605   0.049   3.315  1.1317 -1.0740  0.9968
 3614TIP3    H232334   4.615   0.188   3.256 -0.9910 -1.1968  0.2362
 3615TIP3   OH232335   3.141   4.080  13.185  0.6759 -0.8674 -0.3600
 3615TIP3    H132336   3.142   3.993  13.146  0.3941 -0.9232 -0.2465
 3615TIP3    H232337   3.089   4.133  13.125  0.2024 -0.9650 -0.0420
 3616TIP3   OH232338   0.159   3.924   1.738 -0.0187  0.0681  0.4824
 3616TIP3    H132339   0.230   3.923   1.673  0.8125  1.7253  1.3275
 3616TIP3    H232340   0.175   3.846   1.792  1.3095  0.5493  0.8077
 3617TIP3   OH232341   2.581   1.947   1.845  0.1071  0.5693 -0.0858
 3617TIP3    H132342   2.492   1.972   1.868  0.3924  1.1447  0.4194
 3617TIP3    H232343   2.580   1.940   1.750 -0.6054  0.0626 -0.0477
 3618TIP3   OH232344   5.613   2.736  14.197  0.2703 -0.0701 -0.1306
 3618TIP3    H132345   5.549   2.717  14.128 -0.5068  0.7087  0.3521
 3618TIP3    H232346   5.620   2.832  14.197  0.4158 -0.0774  0.7402
 3619TIP3   OH232347   0.844   3.192  16.460  0.1452  0.7033  0.2053
 3619TIP3    H132348   0.851   3.237  16.544 -0.4661  0.8732  0.1649
 3619TIP3    H232349   0.875   3.103  16.478 -0.7506  0.5024  0.8016
 3620TIP3   OH232350   0.788   5.775  16.871  1.0609 -0.1804 -0.3110
 3620TIP3    H132351   0.746   5.703  16.824 -0.7847  1.5905 -1.5377
 3620TIP3    H232352   0.772   5.756  16.963 -0.8026 -0.5799 -0.6757
 3621TIP3   OH232353   2.959   0.374   1.816 -0.5985 -0.5899  0.3555
 3621TIP3    H132354   2.864   0.383   1.820 -0.5382 -0.1540  0.8498
 3621TIP3    H232355   2.984   0.424   1.738 -0.9755 -2.4879 -1.0538
 3622TIP3   OH232356   0.403   2.141   5.321 -0.0015  0.1019  0.0476
 3622TIP3    H132357   0.353   2.139   5.403  0.5493 -0.6311  0.3866
 3622TIP3    H232358   0.405   2.050   5.292 -1.8208  0.5763 -1.8343
 3623TIP3   OH232359   5.821   0.431   2.338  0.4073  0.2565 -0.0649
 3623TIP3    H132360   5.836   0.468   2.251  2.5486 -1.2732 -0.4457
 3623TIP3    H232361   5.772   0.351   2.322 -0.7095  0.8425  0.3428
 3624TIP3   OH232362   5.218   2.764   5.301  0.3184 -0.2191  0.1385
 3624TIP3    H132363   5.167   2.735   5.377  0.6915  1.1791  0.9408
 3624TIP3    H232364   5.305   2.729   5.316  0.6641  0.9312  0.9041
 3625TIP3   OH232365   1.700   1.797   5.510  0.5259 -0.2578  0.7009
 3625TIP3    H132366   1.763   1.850   5.462 -0.4993  1.6012  1.3186
 3625TIP3    H232367   1.621   1.798   5.456  0.4376 -1.0754  0.7946
 3626TIP3   OH232368   4.738   5.053  12.993 -0.1436 -0.1149 -0.0988
 3626TIP3    H132369   4.723   5.114  12.920 -3.3844 -0.7366 -0.1249
 3626TIP3    H232370   4.772   4.974  12.952 -0.7133 -0.0074 -0.8059
 3627TIP3   OH232371   3.259   3.386   3.963 -0.2584  0.1569  0.2969
 3627TIP3    H132372   3.229   3.476   3.945  0.4014  0.1651 -0.9179
 3627TIP3    H232373   3.185   3.344   4.005 -1.1392  0.8522 -0.5003
 3628TIP3   OH232374   0.836   2.794  13.003 -0.7408  0.2476  0.5311
 3628TIP3    H132375   0.776   2.846  12.949 -0.5183  1.1241  1.1003
 3628TIP3    H232376   0.779   2.738  13.056 -1.0905  1.2490  1.2485
 3629TIP3   OH232377   3.915   6.501   3.508 -0.5659  0.2790 -0.3655
 3629TIP3    H132378   3.852   6.436   3.479 -0.7435  0.2759  0.0270
 3629TIP3    H232379   3.998   6.454   3.511 -0.6554  0.1233 -0.2895
 3630TIP3   OH232380   1.402   3.950  15.265  0.5867  0.2862 -0.2451
 3630TIP3    H132381   1.324   3.909  15.303  2.3120 -1.0133  2.1755
 3630TIP3    H232382   1.396   4.042  15.291 -1.0949  0.6940 -1.8702
 3631TIP3   OH232383   1.687   5.852   2.839  0.3364  0.2204  0.3599
 3631TIP3    H132384   1.660   5.931   2.886  0.9425 -0.2746  1.5886
 3631TIP3    H232385   1.620   5.787   2.861 -0.5677  0.5789 -1.2478
 3632TIP3   OH232386   5.661   2.790  14.517 -0.1528  0.2942  0.2993
 3632TIP3    H132387   5.703   2.735  14.451 -0.5462 -0.7471  0.8806
 3632TIP3    H232388   5.569   2.792  14.491 -0.2681  0.0695  0.6753
 3633TIP3   OH232389   6.458   4.800   2.271 -0.0542  0.5526 -0.1773
 3633TIP3    H132390   6.444   4.809   2.177 -0.8533  1.2288 -0.0020
 3633TIP3    H232391   6.520   4.727   2.279 -0.3454  0.1736 -1.1962
 3634TIP3   OH232392   2.618   0.954   5.767  0.7197 -0.0896 -0.5133
 3634TIP3    H132393   2.666   0.928   5.689  0.7115 -0.4451 -0.3999
 3634TIP3    H232394   2.686   0.969   5.833  0.8615  1.8449 -1.0420
 3635TIP3   OH232395   0.440   0.868   4.835  0.2012  0.3875 -0.2336
 3635TIP3    H132396   0.349   0.850   4.808 -0.7079 -0.5119  2.9392
 3635TIP3    H232397   0.450   0.962   4.822 -0.5671  0.2620 -2.1709
 3636TIP3   OH232398   1.427   4.612  15.964  0.3098 -0.3735  0.1584
 3636TIP3    H132399   1.373   4.533  15.952 -1.8775  0.6254  2.3898
 3636TIP3    H232400   1.379   4.663  16.029  1.1411  3.2830 -1.8396
 3637TIP3   OH232401   1.208   3.976   3.201 -0.2178 -0.7030  0.2035
 3637TIP3    H132402   1.269   4.035   3.246  0.0445 -1.6123  1.0926
 3637TIP3    H232403   1.259   3.940   3.128 -0.5872  0.6423 -0.7515
 3638TIP3   OH232404   0.285   3.835   3.262 -0.1226 -0.5934 -0.3971
 3638TIP3    H132405   0.339   3.781   3.321  0.8280  2.3416  1.6394
 3638TIP3    H232406   0.196   3.801   3.275  0.3790 -1.5132  1.0089
 3639TIP3   OH232407   5.268   3.006  13.492 -0.2482  0.3369 -0.3106
 3639TIP3    H132408   5.341   2.945  13.490 -0.7487 -0.3327  0.7105
 3639TIP3    H232409   5.307   3.089  13.521  0.0878 -0.0813  0.4778
 3640TIP3   OH232410   6.052   4.745   3.550  0.3307 -0.2828 -0.2641
 3640TIP3    H132411   6.095   4.679   3.604  0.4180  0.2894  0.3769
 3640TIP3    H232412   6.036   4.818   3.609 -1.8736 -0.6049 -0.3592
 3641TIP3   OH232413   4.476   2.024   6.505  0.2930 -0.0065  0.9610
 3641TIP3    H132414   4.437   2.112   6.510 -3.0564 -1.3437  1.2301
 3641TIP3    H232415   4.500   2.003   6.595  0.6664  0.4569  0.9698
 3642TIP3   OH232416   0.828   5.057   0.950 -0.3203 -0.3452 -0.1273
 3642TIP3    H132417   0.837   5.089   1.040 -0.8566  1.3783 -0.6563
 3642TIP3    H232418   0.890   5.109   0.899 -0.4801 -0.8515 -0.8597
 3643TIP3   OH232419   6.309   5.007   5.483  0.5998 -0.0702  0.3123
 3643TIP3    H132420   6.326   5.039   5.394  1.1611 -1.1860 -0.0002
 3643TIP3    H232421   6.229   4.955   5.475 -0.0948  0.9008  0.7417
 3644TIP3   OH232422   0.956   1.060   2.197 -0.3560  0.1234  0.0068
 3644TIP3    H132423   0.993   0.974   2.219 -0.3619  0.0154 -0.4075
 3644TIP3    H232424   0.899   1.081   2.271 -1.0961 -0.6595 -0.3301
 3645TIP3   OH232425   2.809   1.846  16.034 -0.1640 -0.0433  0.2616
 3645TIP3    H132426   2.852   1.926  16.062 -1.3339  0.0613  1.8977
 3645TIP3    H232427   2.867   1.776  16.065 -0.5693  0.1247  1.4662
 3646TIP3   OH232428   1.661   0.540   6.215  0.4005  0.2320  0.1409
 3646TIP3    H132429   1.586   0.509   6.165 -1.3904  1.3286  1.9692
 3646TIP3    H232430   1.659   0.489   6.296 -0.0034  2.0107  1.3276
 3647TIP3   OH232431   1.709   1.838   0.141  0.6924 -0.9468 -0.3644
 3647TIP3    H132432   1.712   1.846   0.236 -1.9212 -0.3551 -0.2494
 3647TIP3    H232433   1.693   1.745   0.126  2.8414 -1.3729 -0.3762
 3648TIP3   OH232434   6.722   1.881  13.175  0.3189 -0.7012 -0.0173
 3648TIP3    H132435   6.677   1.803  13.207  0.3083 -1.0827 -0.9131
 3648TIP3    H232436   6.763   1.919  13.252  0.7949 -1.9112  0.3410
 3649TIP3   OH232437   1.471   4.765  15.035  0.0756 -0.1886  0.1774
 3649TIP3    H132438   1.561   4.759  15.003  0.0609 -1.5464  0.3349
 3649TIP3    H232439   1.421   4.792  14.959  0.5785  0.3567  0.0288
 3650TIP3   OH232440   2.464   6.597  15.680  0.3479 -0.0577  0.3187
 3650TIP3    H132441   2.542   6.545  15.700  0.3140  0.1784  1.1042
 3650TIP3    H232442   2.487   6.644  15.600  0.7612 -0.4987  0.1684
 3651TIP3   OH232443   4.016   3.724  16.384 -0.0992 -0.0182  0.5731
 3651TIP3    H132444   3.988   3.739  16.475  0.8662  0.9085  0.7427
 3651TIP3    H232445   3.952   3.773  16.332 -1.5483 -1.7536  0.6143
 3652TIP3   OH232446   4.950   3.978   5.467 -0.2384 -0.4842 -0.5095
 3652TIP3    H132447   4.950   4.015   5.555  0.3908  0.1057 -0.7526
 3652TIP3    H232448   4.981   4.049   5.410 -2.5716 -0.1700 -1.5097
 3653TIP3   OH232449   2.957   6.466  17.218  0.1149  0.2894  0.2143
 3653TIP3    H132450   2.918   6.501  17.138 -2.5922  1.3180  1.8392
 3653TIP3    H232451   2.913   6.382  17.231 -1.6009  1.3597  1.9558
 3654TIP3   OH232452   5.206   5.171   5.404  0.4116 -0.2374  0.2768
 3654TIP3    H132453   5.156   5.169   5.486 -0.7263  0.8227 -0.3540
 3654TIP3    H232454   5.286   5.121   5.424 -0.4974 -1.2733  1.5727
 3655TIP3   OH232455   6.351   4.738   1.054 -0.1969  0.3804 -0.3694
 3655TIP3    H132456   6.384   4.649   1.039  0.7682  0.2880  1.9456
 3655TIP3    H232457   6.388   4.789   0.982  0.9773 -0.6896 -0.5632
 3656TIP3   OH232458   1.065   3.149   1.887  0.4295  0.3468  0.0892
 3656TIP3    H132459   1.050   3.184   1.975  1.1398  0.7321  0.0606
 3656TIP3    H232460   1.102   3.063   1.901 -1.1677 -0.3680  0.1605
 3657TIP3   OH232461   1.054   4.682   5.373  0.3364  0.1686 -0.1523
 3657TIP3    H132462   1.098   4.703   5.455  1.4186  1.3084 -0.9754
 3657TIP3    H232463   0.961   4.680   5.395  0.1112  4.8347  0.3919
 3658TIP3   OH232464   2.044   2.673  12.436  0.6509 -0.0620  0.1157
 3658TIP3    H132465   2.004   2.760  12.449  2.5952  1.0403 -0.7979
 3658TIP3    H232466   2.119   2.673  12.495  0.6293 -1.1871  0.1597
 3659TIP3   OH232467   2.777   1.247   5.715 -0.7386 -0.0892 -0.2178
 3659TIP3    H132468   2.845   1.186   5.687 -0.3406 -0.1276  0.7886
 3659TIP3    H232469   2.739   1.280   5.634  0.6849  0.1662 -0.7945
 3660TIP3   OH232470   3.552   0.146   4.729 -0.0157  0.1519  0.1795
 3660TIP3    H132471   3.483   0.082   4.711 -0.8573  1.2080 -0.4494
 3660TIP3    H232472   3.506   0.229   4.744  1.0900  0.7957  0.1532
 3661TIP3   OH232473   5.567   0.522  11.663 -0.2343 -0.3008 -0.3001
 3661TIP3    H132474   5.482   0.482  11.643 -0.2250  0.1518 -1.3225
 3661TIP3    H232475   5.549   0.583  11.734 -0.4517 -1.3158  0.5491
 3662TIP3   OH232476   4.934   3.241  13.422 -0.6721 -0.3570  0.5920
 3662TIP3    H132477   4.844   3.264  13.396 -0.6221 -0.4966  0.2886
 3662TIP3    H232478   4.987   3.312  13.388 -0.8356  0.5646  2.1552
 3663TIP3   OH232479   0.706   6.565   3.024  0.1582 -0.3657 -0.6765
 3663TIP3    H132480   0.786   6.587   2.977 -0.2656  1.2458 -0.7183
 3663TIP3    H232481   0.700   6.631   3.093  0.2867 -2.1068  1.0921
 3664TIP3   OH232482   2.487   5.879  13.032 -0.3018 -0.4109 -0.1677
 3664TIP3    H132483   2.562   5.832  13.067 -0.2929 -0.2779 -0.0077
 3664TIP3    H232484   2.450   5.820  12.967  0.2097 -0.2945 -0.5705
 3665TIP3   OH232485   3.907   1.715   5.809 -0.6218 -0.0557 -0.0418
 3665TIP3    H132486   3.894   1.806   5.785 -2.1973 -0.3275 -0.3208
 3665TIP3    H232487   3.919   1.670   5.725  3.5947  0.2742  0.1601
 3666TIP3   OH232488   4.084   4.443   0.195 -0.1400  0.4333 -0.1605
 3666TIP3    H132489   4.173   4.478   0.194 -0.7210  2.0463  0.7130
 3666TIP3    H232490   4.089   4.365   0.140  1.1117  2.2369 -2.8574
 3667TIP3   OH232491   2.281   2.865   0.361 -0.0513  0.6397 -0.6665
 3667TIP3    H132492   2.244   2.940   0.315 -0.1184  0.2863 -1.1882
 3667TIP3    H232493   2.250   2.789   0.313 -1.0563  0.2058  0.6336
 3668TIP3   OH232494   1.587   4.101  14.911  0.3739  0.2109  0.1288
 3668TIP3    H132495   1.642   4.030  14.942  1.2755  0.9238  0.1878
 3668TIP3    H232496   1.639   4.145  14.845 -0.6500  0.0933 -0.7833
 3669TIP3   OH232497   5.452   1.223   5.745 -0.1766 -0.3443  0.3563
 3669TIP3    H132498   5.522   1.253   5.687 -0.3928 -0.0843  0.2286
 3669TIP3    H232499   5.413   1.149   5.699 -0.3217 -0.1634  0.1870
 3670TIP3   OH232500   4.304   3.796  16.064  0.2779 -0.1077  0.0010
 3670TIP3    H132501   4.227   3.739  16.069 -0.2112  0.6634  1.8727
 3670TIP3    H232502   4.356   3.758  15.993 -1.1132 -1.5206 -0.3340
 3671TIP3   OH232503   2.733   1.387  11.447 -0.1949  0.0024 -0.3459
 3671TIP3    H132504   2.757   1.450  11.515  3.7730 -0.5002 -1.0264
 3671TIP3    H232505   2.757   1.302  11.484 -1.2658 -0.6422 -1.0984
 3672TIP3   OH232506   2.725   6.650   0.162  0.5694 -0.5888 -0.8880
 3672TIP3    H132507   2.766   6.728   0.124 -0.4424 -0.1200 -1.0479
 3672TIP3    H232508   2.723   6.587   0.090  1.3443 -0.7531 -0.7730
 3673TIP3   OH232509   2.535   5.700  16.678  0.2642 -0.1403 -0.5778
 3673TIP3    H132510   2.585   5.754  16.617 -0.1954 -0.3819 -1.1749
 3673TIP3    H232511   2.445   5.733  16.671  0.5017  1.1243  1.3863
 3674TIP3   OH232512   1.489   3.304  11.969  0.4638 -0.0647  0.3310
 3674TIP3    H132513   1.492   3.221  11.921  1.1108  0.5449 -0.7148
 3674TIP3    H232514   1.454   3.367  11.907  0.6217  0.5989  0.8922
 3675TIP3   OH232515   2.093   1.020  16.037  0.5483 -0.6553  0.0757
 3675TIP3    H132516   2.170   0.993  16.087  1.4953  1.6898 -0.0198
 3675TIP3    H232517   2.078   0.946  15.977  1.8314 -1.7814  1.0538
 3676TIP3   OH232518   0.067   3.575  11.033  0.1380  0.2864 -0.2181
 3676TIP3    H132519   0.032   3.612  11.115 -0.4361 -3.3222  1.3737
 3676TIP3    H232520   0.013   3.614  10.965 -0.1262  2.5708  1.1788
 3677TIP3   OH232521   0.042   0.212   6.157  0.2734 -0.5488  0.2006
 3677TIP3    H132522   0.009   0.188   6.243 -0.0621 -0.0357  0.2166
 3677TIP3    H232523   0.057   0.129   6.112  0.0274 -0.8022  0.5927
 3678TIP3   OH232524   5.637   1.689   3.977 -0.5369 -0.3418  0.6233
 3678TIP3    H132525   5.654   1.680   3.883  0.6730 -2.3418  0.9661
 3678TIP3    H232526   5.629   1.783   3.991 -1.9462 -0.0253 -1.6481
 3679TIP3   OH232527   0.019   3.055  15.390  0.3783 -0.0918 -0.6914
 3679TIP3    H132528   0.075   3.119  15.346  0.5478 -0.8982 -1.6896
 3679TIP3    H232529  -0.066   3.099  15.396  1.4104  1.8702  2.4628
 3680TIP3   OH232530   6.370   4.524   2.155  0.8295  0.2734 -0.0092
 3680TIP3    H132531   6.407   4.562   2.235 -2.1148 -0.2434  1.7450
 3680TIP3    H232532   6.395   4.431   2.159  0.7761  0.2697  0.2454
 3681TIP3   OH232533   0.712   3.218   4.233 -0.0292  0.0993  0.4214
 3681TIP3    H132534   0.783   3.273   4.200 -0.0868  1.0740  1.8327
 3681TIP3    H232535   0.755   3.158   4.293 -0.2926  0.1490  0.6585
 3682TIP3   OH232536   0.188   5.134   5.183  0.4984  0.4528 -0.1756
 3682TIP3    H132537   0.196   5.229   5.195 -0.5279  0.3405  1.7185
 3682TIP3    H232538   0.233   5.096   5.258  1.8871 -0.6365 -1.4969
 3683TIP3   OH232539   0.391   3.888   6.301  0.2051  0.1074 -0.2195
 3683TIP3    H132540   0.315   3.941   6.278 -0.3176 -0.4866  0.1100
 3683TIP3    H232541   0.386   3.878   6.396  0.2092 -0.6436 -0.2916
 3684TIP3   OH232542   5.393   3.607  17.138  0.5315  0.0972 -0.5180
 3684TIP3    H132543   5.407   3.691  17.182 -1.6934  0.4737 -0.4009
 3684TIP3    H232544   5.365   3.630  17.050  1.0371 -0.5630 -0.8606
 3685TIP3   OH232545   3.905   6.494  16.285  0.3953 -0.2853 -0.2187
 3685TIP3    H132546   3.987   6.535  16.313 -0.3942 -0.3570  2.4031
 3685TIP3    H232547   3.927   6.453  16.201  1.8849  3.2475 -1.7686
 3686TIP3   OH232548   5.244   3.658   4.846  0.2044 -0.1789 -0.1006
 3686TIP3    H132549   5.247   3.653   4.750 -0.1398  2.0996 -0.2901
 3686TIP3    H232550   5.169   3.715   4.864 -0.0649 -1.0067  1.5661
 3687TIP3   OH232551   4.758   6.428  13.198  0.2743 -0.2354 -0.1444
 3687TIP3    H132552   4.761   6.335  13.223  1.6871  0.5659  3.3497
 3687TIP3    H232553   4.666   6.444  13.178 -0.1627 -2.2182  0.0268
 3688TIP3   OH232554   6.419   1.427  16.347 -0.2610  0.8592 -0.2682
 3688TIP3    H132555   6.418   1.360  16.279  0.9625  1.3771 -0.8444
 3688TIP3    H232556   6.366   1.391  16.418  2.9859 -2.2721  0.8966
 3689TIP3   OH232557   6.234   3.534   0.984 -0.2899  0.6061  0.1521
 3689TIP3    H132558   6.252   3.448   0.945 -0.5324 -0.4462  2.2242
 3689TIP3    H232559   6.140   3.533   1.002 -0.7462  2.2235 -1.7401
 3690TIP3   OH232560   3.761   3.426   3.555 -0.1401 -0.1190  0.5021
 3690TIP3    H132561   3.835   3.455   3.609 -1.3292 -1.8541  3.3249
 3690TIP3    H232562   3.700   3.499   3.558 -0.0846 -0.0965  1.3641
 3691TIP3   OH232563   4.314   3.470   2.600 -0.4454 -0.0945 -0.0977
 3691TIP3    H132564   4.261   3.393   2.620 -2.5489  1.0560 -0.9217
 3691TIP3    H232565   4.253   3.543   2.607  1.5424  1.5818  0.9685
 3692TIP3   OH232566   2.765   2.284  14.775  0.3456  0.0734 -0.2158
 3692TIP3    H132567   2.698   2.329  14.723 -0.5304 -0.5332  0.3687
 3692TIP3    H232568   2.827   2.250  14.710 -1.7242 -2.3133 -1.0844
 3693TIP3   OH232569   6.361   1.858  15.901 -0.6617 -0.6819  0.5029
 3693TIP3    H132570   6.432   1.809  15.943 -1.6418 -0.4349  2.6087
 3693TIP3    H232571   6.389   1.950  15.908 -1.1384 -0.5854  1.3223
 3694TIP3   OH232572   1.861   6.095  11.577  0.6365  0.5584  0.0468
 3694TIP3    H132573   1.935   6.035  11.564  0.4674  0.9062 -3.6705
 3694TIP3    H232574   1.784   6.040  11.568  0.4838  0.9582 -1.2448
 3695TIP3   OH232575   5.026   0.169   5.522 -0.7578  0.1753  0.7344
 3695TIP3    H132576   4.946   0.178   5.471 -0.9558 -1.0469  0.7842
 3695TIP3    H232577   5.024   0.078   5.553  0.3563  0.3017  1.2249
 3696TIP3   OH232578   3.467   6.351  13.213 -0.1852  0.2583 -0.4272
 3696TIP3    H132579   3.452   6.441  13.184 -1.0308 -0.1623 -1.3446
 3696TIP3    H232580   3.406   6.298  13.161  0.1821 -0.8291  0.2141
 3697TIP3   OH232581   6.551   2.184   2.961  0.0760 -0.0825 -0.3818
 3697TIP3    H132582   6.533   2.106   2.908 -0.4429  0.4334 -0.9850
 3697TIP3    H232583   6.482   2.246   2.936 -0.4228  0.0394  1.1997
 3698TIP3   OH232584   4.153   4.904   0.905 -0.4002 -0.5281  0.0209
 3698TIP3    H132585   4.246   4.916   0.885 -0.8158  1.3357 -1.0360
 3698TIP3    H232586   4.110   4.903   0.820 -1.5325  0.5998  0.5457
 3699TIP3   OH232587   2.477   1.218   1.203  0.4002 -0.0037 -0.2943
 3699TIP3    H132588   2.429   1.187   1.127  0.2861 -0.9413  0.1520
 3699TIP3    H232589   2.409   1.253   1.262  0.4574  0.4188 -0.4740
 3700TIP3   OH232590   2.349   6.268  12.557  0.0716  0.3653 -0.2973
 3700TIP3    H132591   2.287   6.197  12.543  0.1608  0.2645 -0.1863
 3700TIP3    H232592   2.394   6.278  12.474  1.8686 -1.4377  0.3768
 3701TIP3   OH232593   5.958   4.085   5.698 -0.1361  0.0658  0.0007
 3701TIP3    H132594   5.953   4.012   5.760  1.0328  0.9549  1.1966
 3701TIP3    H232595   5.947   4.163   5.753  0.6105  0.8628 -0.9667
 3702TIP3   OH232596   1.983   3.951   0.511  0.1753 -0.3524  0.2719
 3702TIP3    H132597   2.048   3.934   0.579  1.0149 -1.6806 -0.8103
 3702TIP3    H232598   1.926   3.874   0.512 -0.2874 -0.0221  0.0065
 3703TIP3   OH232599   0.582   4.150  14.880  0.3861  0.4216  0.4820
 3703TIP3    H132600   0.659   4.171  14.826  0.7584 -0.9601  0.4227
 3703TIP3    H232601   0.618   4.126  14.965  0.0599 -0.5529  0.3556
 3704TIP3   OH232602   2.760   0.447  12.394  0.0050  0.0538  0.2571
 3704TIP3    H132603   2.784   0.482  12.480  0.9588 -2.8360  1.2804
 3704TIP3    H232604   2.730   0.358  12.412 -1.0252 -0.1894 -2.2972
 3705TIP3   OH232605   4.794   1.353  14.758  0.0202 -0.0338  0.5347
 3705TIP3    H132606   4.778   1.374  14.850 -0.0553 -2.3863  1.1298
 3705TIP3    H232607   4.788   1.257  14.754  1.0422 -0.0693 -1.7369
 3706TIP3   OH232608   2.522   3.402  14.707 -0.7111 -0.7055  0.1913
 3706TIP3    H132609   2.552   3.387  14.797 -0.7109  0.8056  0.4781
 3706TIP3    H232610   2.436   3.443  14.718  0.6421  2.6407 -0.2923
 3707TIP3   OH232611   1.292   1.922   5.149  0.6057 -0.7147 -0.0952
 3707TIP3    H132612   1.294   1.842   5.095 -1.0802 -0.8116 -0.0643
 3707TIP3    H232613   1.246   1.986   5.095  2.0164  0.2978 -0.1474
 3708TIP3   OH232614   6.465   0.131   5.365  0.3425 -0.1718 -0.2017
 3708TIP3    H132615   6.389   0.172   5.406  0.5890  0.7558 -0.6555
 3708TIP3    H232616   6.540   0.175   5.405  0.6175 -0.2742 -0.6001
 3709TIP3   OH232617   2.341   0.255   4.016 -0.4822  0.1303 -0.0838
 3709TIP3    H132618   2.312   0.309   4.090 -2.1005 -0.2383 -0.3926
 3709TIP3    H232619   2.268   0.260   3.954  0.0832 -1.0128 -0.8662
 3710TIP3   OH232620   2.905   3.984   3.068 -0.4749  0.3166 -0.2005
 3710TIP3    H132621   2.959   4.062   3.083  0.0156 -0.0371 -0.1030
 3710TIP3    H232622   2.818   4.019   3.045 -0.0037  0.9109 -1.1756
 3711TIP3   OH232623   5.418   3.666  13.437 -0.5251  0.1059  0.2954
 3711TIP3    H132624   5.365   3.746  13.446  0.7992  0.8860  1.6344
 3711TIP3    H232625   5.421   3.629  13.525  1.6755  0.4860  0.4437
 3712TIP3   OH232626   5.582   5.976   2.795 -0.1387 -0.1572 -0.0525
 3712TIP3    H132627   5.645   6.048   2.803 -0.5965  0.3667 -1.0060
 3712TIP3    H232628   5.504   6.017   2.758 -0.0319 -1.3481 -1.6959
 3713TIP3   OH232629   5.965   6.518  11.112 -0.0702 -0.3536 -0.1280
 3713TIP3    H132630   5.887   6.477  11.149  0.4487 -0.4049  0.9689
 3713TIP3    H232631   5.932   6.582  11.050 -1.0043 -0.1780  0.5308
 3714TIP3   OH232632   3.328   0.435   5.775  0.0197 -0.1264 -0.4833
 3714TIP3    H132633   3.383   0.448   5.852  0.4545 -1.2857 -0.5800
 3714TIP3    H232634   3.348   0.509   5.718  0.2928  0.3091  0.1739
 3715TIP3   OH232635   6.568   5.588   2.973  0.2362 -0.0662  0.0926
 3715TIP3    H132636   6.561   5.637   3.055  0.6420 -0.1883  0.2049
 3715TIP3    H232637   6.501   5.520   2.980 -0.0501  0.2130  0.1138
 3716TIP3   OH232638   0.184   3.891  12.245 -0.3584  0.4034  0.3935
 3716TIP3    H132639   0.152   3.850  12.164  1.2513  0.9239 -0.5487
 3716TIP3    H232640   0.267   3.847  12.263 -0.9609 -0.1011  2.1156
 3717TIP3   OH232641   3.795   2.467   5.644 -0.0293 -0.8555  0.2624
 3717TIP3    H132642   3.753   2.531   5.586  1.4127 -0.4483 -0.3703
 3717TIP3    H232643   3.723   2.412   5.674 -1.6900  2.2101  2.4283
 3718TIP3   OH232644   0.496   4.306   2.912  0.0829 -0.4569 -0.6569
 3718TIP3    H132645   0.464   4.359   2.984 -0.3502  0.7945 -1.7252
 3718TIP3    H232646   0.511   4.219   2.950 -0.4215  0.0914  0.8412
 3719TIP3   OH232647   6.260   0.152   5.989  0.1522 -0.1823  0.5307
 3719TIP3    H132648   6.183   0.208   6.005  0.3700  0.3240 -0.1594
 3719TIP3    H232649   6.327   0.212   5.958  0.4317 -0.8075 -0.1059
 3720TIP3   OH232650   4.647   2.060   1.969 -0.0419 -0.0916 -0.1669
 3720TIP3    H132651   4.733   2.035   1.934  0.8654  1.1784  1.0240
 3720TIP3    H232652   4.592   2.072   1.892  1.4080  0.9892 -1.0865
 3721TIP3   OH232653   4.817   0.307   4.240 -0.4123  0.8254 -0.1520
 3721TIP3    H132654   4.828   0.221   4.281 -0.2148  0.4296 -1.0210
 3721TIP3    H232655   4.743   0.346   4.287 -2.0004 -0.7494 -1.2428
 3722TIP3   OH232656   5.510   5.166  13.371 -0.4470  0.6306 -0.0989
 3722TIP3    H132657   5.417   5.151  13.389  0.1590 -2.6323  1.0238
 3722TIP3    H232658   5.541   5.220  13.443 -1.3046  1.0419 -0.0300
 3723TIP3   OH232659   0.079   4.389   1.903  0.0492 -0.3645  0.5349
 3723TIP3    H132660   0.079   4.318   1.840 -0.7392 -2.0290  2.2986
 3723TIP3    H232661   0.007   4.446   1.875  1.7726  0.7904 -1.8978
 3724TIP3   OH232662   1.938   1.597   5.919 -0.2583 -0.2105  0.2630
 3724TIP3    H132663   1.868   1.656   5.947 -0.3288 -0.6344  1.0228
 3724TIP3    H232664   1.912   1.512   5.955  0.8254 -0.3053  0.8656
 3725TIP3   OH232665   0.967   1.779   0.310  0.4685 -0.3978 -0.1139
 3725TIP3    H132666   0.889   1.723   0.302  1.2447 -1.6460  0.6080
 3725TIP3    H232667   1.037   1.728   0.271  0.8754  0.8996 -1.1471
 3726TIP3   OH232668   1.191   1.590  13.047 -0.2769 -0.0223  0.5443
 3726TIP3    H132669   1.112   1.586  12.993 -0.7333  0.4879  1.1589
 3726TIP3    H232670   1.253   1.642  12.995 -0.6619  0.3442  0.4544
 3727TIP3   OH232671   4.868   3.123  10.629  0.1407 -0.5660 -0.0981
 3727TIP3    H132672   4.900   3.066  10.700  0.5883 -1.2417 -0.8197
 3727TIP3    H232673   4.936   3.189  10.619  0.2079 -0.6333 -0.0858
 3728TIP3   OH232674   0.633   1.806  12.379 -0.1311  0.4989 -0.0187
 3728TIP3    H132675   0.544   1.778  12.402 -0.0384 -0.5650 -0.9009
 3728TIP3    H232676   0.689   1.769  12.446  0.1291 -2.5100 -1.7465
 3729TIP3   OH232677   5.733   3.137  13.070  0.3929  0.0653 -0.2930
 3729TIP3    H132678   5.818   3.153  13.030  0.2960 -3.3170 -2.2935
 3729TIP3    H232679   5.670   3.152  12.999 -0.4145 -0.1175  0.3615
 3730TIP3   OH232680   4.815   1.128   3.989  0.0017  0.1045 -0.2741
 3730TIP3    H132681   4.836   1.213   4.028  1.5621  0.0123 -0.8587
 3730TIP3    H232682   4.899   1.082   3.983 -0.9847 -2.0710  1.3365
 3731TIP3   OH232683   4.042   5.810  16.007 -0.3607 -0.3529  0.2435
 3731TIP3    H132684   4.027   5.829  15.915 -0.1213  1.6966  0.5783
 3731TIP3    H232685   4.011   5.720  16.018  0.5356 -1.0111 -2.0196
 3732TIP3   OH232686   4.708   5.996  16.335 -0.1618 -0.4206 -0.4305
 3732TIP3    H132687   4.729   6.009  16.243  1.0204 -0.0628 -0.1253
 3732TIP3    H232688   4.651   6.069  16.358  0.7711  0.3477 -0.5015
 3733TIP3   OH232689   0.792   0.462   5.346 -0.0894  0.3040 -0.2925
 3733TIP3    H132690   0.873   0.457   5.295 -0.2211  0.1650 -0.4902
 3733TIP3    H232691   0.729   0.501   5.286 -0.1816  0.3632 -0.1555
 3734TIP3   OH232692   3.339   4.878   0.553 -0.6298  0.3101  0.0844
 3734TIP3    H132693   3.374   4.898   0.467  1.6098 -1.1368  0.5880
 3734TIP3    H232694   3.277   4.807   0.538  1.2722 -1.3904 -0.1809
 3735TIP3   OH232695   5.709   3.015  14.212 -0.1384  0.2262 -0.2383
 3735TIP3    H132696   5.706   3.070  14.133 -1.3068 -0.6566 -0.8468
 3735TIP3    H232697   5.790   2.964  14.202  0.5190  1.2332 -0.0852
 3736TIP3   OH232698   6.679   1.189   2.688  0.5240 -0.3135  0.4778
 3736TIP3    H132699   6.704   1.258   2.627 -0.9027 -0.8977 -0.8397
 3736TIP3    H232700   6.604   1.146   2.647  2.2867 -3.7038  0.4292
 3737TIP3   OH232701   3.096   2.385  16.891  0.3144  0.5957  0.5471
 3737TIP3    H132702   3.183   2.386  16.852 -0.7766 -0.3589 -2.1985
 3737TIP3    H232703   3.052   2.462  16.855 -1.0042 -0.7850 -1.0209
 3738TIP3   OH232704   6.394   5.033  16.968  0.1245  0.6187 -0.2837
 3738TIP3    H132705   6.360   4.996  16.886 -0.1245  0.9976 -0.3529
 3738TIP3    H232706   6.427   4.957  17.016  1.5707  0.5236 -1.3388
 3739TIP3   OH232707   0.448   4.569   2.463 -0.1123 -0.2065 -0.8642
 3739TIP3    H132708   0.504   4.643   2.438  0.0753 -0.3581 -0.8958
 3739TIP3    H232709   0.388   4.559   2.389 -0.7144  0.4692 -0.4832
 3740TIP3   OH232710   2.475   6.331   1.027  0.2542 -0.2837  0.0632
 3740TIP3    H132711   2.561   6.355   1.061 -0.5137  1.8458  0.7026
 3740TIP3    H232712   2.450   6.253   1.077  0.3408  1.1377  2.5032
 3741TIP3   OH232713   3.117   5.082  12.332 -0.7108  0.0977  0.0432
 3741TIP3    H132714   3.094   5.065  12.240  1.3505  0.9983 -0.6948
 3741TIP3    H232715   3.090   5.173  12.346 -0.2579  0.2358  0.0452
 3742TIP3   OH232716   0.474   6.090   5.389  0.6392 -0.1971 -0.0065
 3742TIP3    H132717   0.521   6.162   5.431 -0.0091 -0.9840  2.1767
 3742TIP3    H232718   0.524   6.073   5.309  1.4418  1.9147 -0.0398
 3743TIP3   OH232719   3.559   3.989   4.022 -0.2406 -0.1572  0.3742
 3743TIP3    H132720   3.476   4.030   4.044 -0.3283  0.2997 -0.6960
 3743TIP3    H232721   3.604   4.055   3.968  1.1318 -0.0980  1.5245
 3744TIP3   OH232722   4.334   1.357  12.465 -0.3181  0.9163  0.0227
 3744TIP3    H132723   4.384   1.348  12.546 -0.5555  3.0751  0.4765
 3744TIP3    H232724   4.375   1.295  12.404 -0.8708 -1.6563  2.0692
 3745TIP3   OH232725   4.401   5.465   0.427  0.1933  0.2394  0.0635
 3745TIP3    H132726   4.419   5.437   0.516 -1.9861 -2.0628 -0.0977
 3745TIP3    H232727   4.333   5.532   0.435 -0.7657 -0.7128  0.1463
 3746TIP3   OH232728   5.883   4.209  15.404 -0.0486 -0.0650  0.2303
 3746TIP3    H132729   5.903   4.183  15.494 -0.2462  0.7564  0.5184
 3746TIP3    H232730   5.929   4.145  15.350  0.5392 -0.2293  0.9134
 3747TIP3   OH232731   4.572   2.036   4.941 -0.1036 -0.1130  0.3065
 3747TIP3    H132732   4.541   1.955   4.900 -2.2127  0.4365  0.6842
 3747TIP3    H232733   4.495   2.094   4.941  0.4796  0.7744  2.8484
 3748TIP3   OH232734   1.488   5.995   0.762  0.4680 -0.2377 -0.6520
 3748TIP3    H132735   1.411   6.046   0.786  1.9562  2.2950 -0.8969
 3748TIP3    H232736   1.475   5.910   0.804 -2.0678  0.3624 -0.0835
 3749TIP3   OH232737   2.631   4.737  10.634  0.1130  0.3708  0.0079
 3749TIP3    H132738   2.726   4.721  10.633  0.0544 -0.2109  1.4062
 3749TIP3    H232739   2.622   4.820  10.681 -0.0218  0.9784 -1.0662
 3750TIP3   OH232740   0.373   2.375  15.242 -0.4243  0.2606 -0.0017
 3750TIP3    H132741   0.309   2.409  15.304  0.6630 -1.7205  2.3702
 3750TIP3    H232742   0.364   2.280  15.249 -0.1891 -0.0684 -2.9054
 3751TIP3   OH232743   5.159   1.317  11.880 -0.8266  0.2453 -0.3647
 3751TIP3    H132744   5.105   1.318  11.959  1.6349 -2.4109  1.6226
 3751TIP3    H232745   5.165   1.408  11.853 -3.3120  1.0272  1.3920
 3752TIP3   OH232746   4.017   2.064   1.299  0.6823  0.2334 -0.2241
 3752TIP3    H132747   4.069   2.078   1.220  0.2912 -1.6162 -0.8584
 3752TIP3    H232748   4.026   1.971   1.317 -1.7463  0.0145  0.1184
 3753TIP3   OH232749   2.085   5.204  11.471  0.1198 -0.1777 -0.0434
 3753TIP3    H132750   1.992   5.194  11.495 -0.3263 -1.3101 -2.0395
 3753TIP3    H232751   2.132   5.186  11.553 -1.4049  0.7753  1.1027
 3754TIP3   OH232752   3.203   6.454   4.516 -0.2597  0.2121  0.1953
 3754TIP3    H132753   3.215   6.388   4.584 -1.1334  0.5259  0.6726
 3754TIP3    H232754   3.274   6.517   4.530  0.6072 -0.6286 -0.2891
 3755TIP3   OH232755   4.587   3.149  12.137  0.4814 -0.3182 -0.0407
 3755TIP3    H132756   4.491   3.158  12.139  0.5674  0.8068 -0.4520
 3755TIP3    H232757   4.606   3.088  12.208 -0.5535 -0.7224 -0.0778
 3756TIP3   OH232758   6.007   0.244  14.081  0.6730 -0.4069  0.3331
 3756TIP3    H132759   6.087   0.197  14.103  1.2628 -0.6667 -2.1514
 3756TIP3    H232760   6.037   0.331  14.055  0.0685 -0.2380  0.1865
 3757TIP3   OH232761   3.674   3.135  16.327 -0.0762 -0.5137 -0.0624
 3757TIP3    H132762   3.655   3.223  16.363 -0.9807 -0.5557 -0.3992
 3757TIP3    H232763   3.649   3.142  16.235  0.8171 -0.8407 -0.3295
 3758TIP3   OH232764   0.466   6.208  16.692 -0.2510 -0.1141  0.3760
 3758TIP3    H132765   0.496   6.128  16.736 -0.2627 -0.4059 -0.1381
 3758TIP3    H232766   0.486   6.193  16.600 -0.5985  0.3240  0.2267
 3759TIP3   OH232767   5.128   6.235   0.393  0.0924  0.0308  0.2161
 3759TIP3    H132768   5.182   6.303   0.434 -1.9223  0.8725  1.6812
 3759TIP3    H232769   5.176   6.210   0.314  1.9385  1.6330  0.7456
 3760TIP3   OH232770   0.878   5.408   2.978  0.4816  0.1519  0.0127
 3760TIP3    H132771   0.940   5.467   2.934 -2.4679  2.4307 -1.4145
 3760TIP3    H232772   0.836   5.463   3.044  0.3412 -1.5079  1.3630
 3761TIP3   OH232773   3.698   6.184   1.088  0.0370 -0.2200  0.4274
 3761TIP3    H132774   3.778   6.165   1.040  0.5090  2.0589  0.1877
 3761TIP3    H232775   3.638   6.114   1.063  1.5715 -1.3361 -0.2829
 3762TIP3   OH232776   5.006   0.814   2.930 -0.1821  0.1723  0.0232
 3762TIP3    H132777   4.997   0.726   2.967 -0.3741 -0.0726 -0.5942
 3762TIP3    H232778   5.007   0.800   2.836 -0.4775  0.8645 -0.0837
 3763TIP3   OH232779   4.253   4.153   0.760  0.1398 -0.2724 -0.2116
 3763TIP3    H132780   4.177   4.123   0.810 -0.7406  1.2286 -0.5621
 3763TIP3    H232781   4.310   4.193   0.825  1.2833 -2.4778  0.2450
 3764TIP3   OH232782   4.889   6.304   5.832  0.7899  0.0511 -0.2848
 3764TIP3    H132783   4.850   6.388   5.807 -1.9716 -0.8015  0.8041
 3764TIP3    H232784   4.934   6.322   5.914  0.5515  0.5397 -0.2591
 3765TIP3   OH232785   4.016   3.929  11.700  0.3033  0.0492  0.2900
 3765TIP3    H132786   3.956   3.949  11.772  0.3025 -1.3146  0.6883
 3765TIP3    H232787   3.999   3.998  11.635 -1.0565  0.1921  0.7648
 3766TIP3   OH232788   5.120   4.738   0.031  0.6989  0.1348  0.3114
 3766TIP3    H132789   5.160   4.714   0.115  1.4659  1.8700  0.4833
 3766TIP3    H232790   5.116   4.655  -0.017  1.3597 -0.6903  1.5926
 3767TIP3   OH232791   1.227   3.507  12.254 -0.2515  0.1391  0.1896
 3767TIP3    H132792   1.214   3.419  12.219 -1.2391  0.6504 -0.7659
 3767TIP3    H232793   1.139   3.537  12.277  0.2117  0.3686  1.8279
 3768TIP3   OH232794   1.797   1.230   2.877 -0.1245  0.4304  0.0081
 3768TIP3    H132795   1.835   1.223   2.790  1.4884 -1.5185  0.7943
 3768TIP3    H232796   1.857   1.287   2.925  0.3238 -0.4197  0.4822
 3769TIP3   OH232797   0.360   4.199  11.565  0.0244  0.3718  0.2328
 3769TIP3    H132798   0.341   4.261  11.495  0.9620 -0.3218 -0.6762
 3769TIP3    H232799   0.353   4.113  11.524  2.7082 -0.0113  0.3639
 3770TIP3   OH232800   0.472   3.812  15.025  0.4880  0.1232  0.1188
 3770TIP3    H132801   0.564   3.832  15.008 -0.4621  4.7070 -0.7723
 3770TIP3    H232802   0.436   3.790  14.940  0.5726 -1.1167  0.3821
 3771TIP3   OH232803   1.540   3.204  13.335 -0.1313 -0.1442  0.0126
 3771TIP3    H132804   1.621   3.250  13.312  1.2787 -1.9333  1.0839
 3771TIP3    H232805   1.533   3.134  13.269  0.0101 -0.8687  0.7484
 3772TIP3   OH232806   3.159   0.924  16.088 -0.2175 -0.1339  0.1794
 3772TIP3    H132807   3.111   0.981  16.148  0.5687  0.4230  0.2860
 3772TIP3    H232808   3.175   0.978  16.011  2.4366  0.5633  1.1254
 3773TIP3   OH232809   5.463   4.965   0.820 -0.1580 -0.8927  0.1593
 3773TIP3    H132810   5.501   4.878   0.806  1.2161 -0.1349 -1.1773
 3773TIP3    H232811   5.508   5.021   0.756 -0.8736  0.8447  1.1132
 3774TIP3   OH232812   6.263   3.897  12.432  0.3085 -0.4772  0.4450
 3774TIP3    H132813   6.345   3.885  12.480 -0.7730 -1.5825  2.1292
 3774TIP3    H232814   6.243   3.990  12.442  2.7288  0.5523 -2.4858
 3775TIP3   OH232815   2.961   0.402   5.973 -0.0321 -0.2281  0.2326
 3775TIP3    H132816   3.042   0.396   6.024  0.2606  0.6599 -0.1017
 3775TIP3    H232817   2.892   0.414   6.038  0.2588  0.2074  0.4675
 3776TIP3   OH232818   1.711   0.338   5.097  0.0559  0.1135 -0.0486
 3776TIP3    H132819   1.803   0.314   5.083  0.1857  0.6531 -0.1416
 3776TIP3    H232820   1.713   0.400   5.170 -0.1102  0.9504 -0.7296
 3777TIP3   OH232821   4.191   2.814  13.587  0.5472 -0.0954 -0.2070
 3777TIP3    H132822   4.169   2.887  13.646 -0.0019 -1.5838  1.5040
 3777TIP3    H232823   4.107   2.781  13.557  0.5843 -1.9703  1.5432
 3778TIP3   OH232824   5.750   5.421   2.972  0.5546 -0.7450  0.3718
 3778TIP3    H132825   5.726   5.508   2.940  1.6065 -0.9705 -1.1573
 3778TIP3    H232826   5.825   5.436   3.029  0.7851 -0.6491  0.0459
 3779TIP3   OH232827   1.089   6.688  11.641  0.1129 -0.1848  0.4180
 3779TIP3    H132828   1.181   6.689  11.616 -0.0093 -0.0573 -0.0346
 3779TIP3    H232829   1.086   6.633  11.719  0.1838 -2.4483 -1.1046
 3780TIP3   OH232830   3.751   3.533   5.255  0.3344  0.2884  0.1304
 3780TIP3    H132831   3.817   3.599   5.234  2.4311 -1.1649  1.7778
 3780TIP3    H232832   3.796   3.470   5.311 -2.4482 -0.8275  1.3254
 3781TIP3   OH232833   2.192   2.583   2.290 -0.3088  0.0907  0.8049
 3781TIP3    H132834   2.247   2.505   2.277 -2.3710 -1.3226 -0.0099
 3781TIP3    H232835   2.253   2.651   2.318  2.3429 -0.5303 -2.7681
 3782TIP3   OH232836   5.124   5.380  16.831 -0.0737  0.2204  0.0370
 3782TIP3    H132837   5.184   5.386  16.905 -0.6142 -0.7317  0.5753
 3782TIP3    H232838   5.038   5.396  16.870 -0.1770  1.6969 -0.7444
 3783TIP3   OH232839   5.530   3.920  14.571  0.0070  0.0562  0.7564
 3783TIP3    H132840   5.512   3.864  14.496  0.2638  0.1218  0.6454
 3783TIP3    H232841   5.599   3.875  14.620  1.1979  0.9054 -0.0562
 3784TIP3   OH232842   4.920   1.499   2.667 -0.0276 -0.1598 -0.5897
 3784TIP3    H132843   4.956   1.539   2.588  0.8162 -1.0394 -0.6657
 3784TIP3    H232844   4.942   1.407   2.660 -1.1440 -0.4944  0.0319
 3785TIP3   OH232845   3.464   4.984   5.948  0.2861 -0.7330 -0.2340
 3785TIP3    H132846   3.421   4.941   5.874  2.1788  0.6300 -2.2343
 3785TIP3    H232847   3.415   5.066   5.959  2.0200  0.7160 -2.3712
 3786TIP3   OH232848   3.177   0.324   6.131  0.2673 -0.4463 -0.2945
 3786TIP3    H132849   3.253   0.383   6.133  0.3616 -0.5882  1.0144
 3786TIP3    H232850   3.139   0.331   6.218 -1.3774 -0.2101 -0.9804
 3787TIP3   OH232851   4.630   1.906   4.072  0.2959 -0.3076 -0.5197
 3787TIP3    H132852   4.558   1.848   4.098 -0.7214  1.3101  0.4537
 3787TIP3    H232853   4.650   1.881   3.982 -1.0474 -1.2490 -0.5856
 3788TIP3   OH232854   0.322   5.421  14.411 -0.4374 -0.4515  0.2580
 3788TIP3    H132855   0.289   5.337  14.380  1.2744 -1.1171  0.1547
 3788TIP3    H232856   0.304   5.421  14.505 -0.8990 -0.7002  0.1703
 3789TIP3   OH232857   6.725   0.366   6.847 -0.0033 -0.4640 -0.2719
 3789TIP3    H132858   6.735   0.410   6.763 -1.2383  3.2062  1.3015
 3789TIP3    H232859   6.758   0.278   6.832  0.7131  0.3088 -4.3037
 3790TIP3   OH232860   3.860   0.224  13.557 -0.4554 -0.5052  0.1002
 3790TIP3    H132861   3.871   0.313  13.591  0.3829 -1.0824  1.4423
 3790TIP3    H232862   3.772   0.198  13.585  0.6758 -1.4675  3.2632
 3791TIP3   OH232863   6.380   6.592   3.616 -0.5658  0.0219 -0.5142
 3791TIP3    H132864   6.321   6.616   3.687 -1.9243  0.7814 -1.8356
 3791TIP3    H232865   6.456   6.553   3.659 -0.6426  1.8839  1.4501
 3792TIP3   OH232866   5.065   6.454  12.980  0.0737 -0.4532  0.0499
 3792TIP3    H132867   4.982   6.501  12.975  0.9312  1.0340 -1.0067
 3792TIP3    H232868   5.048   6.372  12.933 -0.1184  1.0073 -2.6511
 3793TIP3   OH232869   4.964   3.710   1.143  0.7651  0.2277  0.1235
 3793TIP3    H132870   4.896   3.776   1.136  1.9414  1.4788 -0.0178
 3793TIP3    H232871   4.989   3.711   1.235  0.4426 -0.3911  0.2214
 3794TIP3   OH232872   1.798   2.953  11.453  0.4614 -0.6627 -0.3639
 3794TIP3    H132873   1.746   3.003  11.390 -0.3922  0.3488  1.0885
 3794TIP3    H232874   1.764   2.864  11.446 -0.5243 -0.2928 -0.4158
 3795TIP3   OH232875   0.770   3.802   0.152  0.0854  0.9719  0.2225
 3795TIP3    H132876   0.847   3.852   0.176  0.8054  0.8005 -1.5991
 3795TIP3    H232877   0.802   3.734   0.093 -1.1936 -0.3045  0.9154
 3796TIP3   OH232878   4.994   0.316   1.229 -0.5132 -0.0445  0.1530
 3796TIP3    H132879   4.920   0.376   1.237  0.2538  0.7896  1.3782
 3796TIP3    H232880   5.013   0.289   1.319  0.0029 -1.0900 -0.2527
 3797TIP3   OH232881   4.446   3.973  13.719 -0.1388  0.3102  0.1506
 3797TIP3    H132882   4.505   3.918  13.772  0.2108 -0.4548 -0.9893
 3797TIP3    H232883   4.377   3.999  13.779  0.5526 -0.0513  1.1302
 3798TIP3   OH232884   5.263   3.941  17.002 -0.4972 -0.5851  0.0606
 3798TIP3    H132885   5.319   3.965  17.076 -1.0011 -0.2994  0.3593
 3798TIP3    H232886   5.310   3.973  16.925 -0.4458  0.0313  0.3390
 3799TIP3   OH232887   0.488   0.729  13.020 -0.0116 -0.2566 -0.1873
 3799TIP3    H132888   0.545   0.792  13.065  0.0573 -0.3933 -0.0814
 3799TIP3    H232889   0.420   0.709  13.083 -1.5990  1.7494 -1.1391
 3800TIP3   OH232890   5.381   1.679  17.033  0.6463 -0.4885 -0.0254
 3800TIP3    H132891   5.463   1.650  17.074  1.5422  0.9203 -0.7501
 3800TIP3    H232892   5.389   1.774  17.028 -0.6753 -0.4050 -0.8784
 3801TIP3   OH232893   6.449   3.145   1.709 -0.3473 -0.3503 -0.3159
 3801TIP3    H132894   6.520   3.171   1.650  0.5660 -3.7569 -0.9082
 3801TIP3    H232895   6.481   3.169   1.797  1.0115 -0.7126 -0.6818
 3802TIP3   OH232896   3.276   1.333   1.183 -0.1232  0.1199 -0.2473
 3802TIP3    H132897   3.265   1.240   1.204  1.2975  0.0401  0.2237
 3802TIP3    H232898   3.234   1.343   1.098 -0.6631 -0.8567 -0.1173
 3803TIP3   OH232899   4.325   3.745  11.275  0.1608  0.4877  0.6563
 3803TIP3    H132900   4.247   3.776  11.320  0.3450  1.1764  0.5003
 3803TIP3    H232901   4.361   3.822  11.231  0.2746 -0.0574 -0.2480
 3804TIP3   OH232902   4.802   1.167   1.080  0.1849  0.0419  0.2384
 3804TIP3    H132903   4.855   1.210   1.147  3.6196 -0.5807 -1.8535
 3804TIP3    H232904   4.733   1.231   1.059  2.0479  2.3692  0.8456
 3805TIP3   OH232905   2.249   0.792  12.812 -0.0072 -0.3287  0.0926
 3805TIP3    H132906   2.271   0.862  12.750 -0.3605 -0.3735 -0.0869
 3805TIP3    H232907   2.247   0.712  12.759 -1.0860 -0.2567 -0.0047
 3806TIP3   OH232908   3.044   3.254   5.223 -0.2347 -0.3909 -0.1954
 3806TIP3    H132909   3.046   3.301   5.139  1.8793  0.0905  0.0635
 3806TIP3    H232910   3.037   3.323   5.289 -0.4605 -0.6643  0.0667
 3807TIP3   OH232911   0.600   1.043   5.827 -0.2540  0.1347 -0.6250
 3807TIP3    H132912   0.505   1.058   5.823  0.1216  2.8572 -2.9545
 3807TIP3    H232913   0.635   1.124   5.866  1.1476 -0.6906 -0.1121
 3808TIP3   OH232914   2.449   5.669   3.416  0.1870  0.0004  0.6509
 3808TIP3    H132915   2.431   5.691   3.507  0.5419 -0.1401  0.7584
 3808TIP3    H232916   2.544   5.662   3.412  0.3195  1.6460 -0.1002
 3809TIP3   OH232917   6.770   5.294   3.915  0.3891 -0.3331 -0.3713
 3809TIP3    H132918   6.706   5.303   3.845  0.3960 -1.6601 -0.5728
 3809TIP3    H232919   6.774   5.381   3.955 -1.5270 -0.2019 -0.3559
 3810TIP3   OH232920   0.831   1.722  12.582  0.3921  0.1098  0.3188
 3810TIP3    H132921   0.868   1.660  12.519  1.4530 -0.6043  1.6124
 3810TIP3    H232922   0.904   1.780  12.605  0.3777 -0.4272  1.8322
 3811TIP3   OH232923   5.244   3.721  15.526 -0.2663  0.6149 -0.1411
 3811TIP3    H132924   5.331   3.761  15.528 -1.0116  2.3062  0.2922
 3811TIP3    H232925   5.183   3.794  15.535 -1.6968 -0.7411  2.8984
 3812TIP3   OH232926   0.352   1.435   4.813 -0.0137  0.4635  0.4742
 3812TIP3    H132927   0.257   1.430   4.827 -0.1640  0.8591 -0.3567
 3812TIP3    H232928   0.364   1.409   4.722  0.9275 -2.0340  1.2262
 3813TIP3   OH232929   2.116   4.087   2.543  0.5235  0.7541 -0.9316
 3813TIP3    H132930   2.158   4.127   2.467 -0.5068  1.8658 -0.9605
 3813TIP3    H232931   2.028   4.125   2.543  0.3023  0.2819  0.4538
 3814TIP3   OH232932   3.007   0.827  16.813  0.4488 -0.7263  0.6763
 3814TIP3    H132933   2.948   0.790  16.879 -0.7259 -1.3040 -0.6513
 3814TIP3    H232934   2.968   0.802  16.729  2.3114 -0.6666 -0.2559
 3815TIP3   OH232935   0.973   2.941  16.743 -0.3487  0.2432  0.1584
 3815TIP3    H132936   1.058   2.904  16.718 -0.8823 -0.6793 -0.3650
 3815TIP3    H232937   0.926   2.867  16.782 -0.8757  0.7647  0.5157
 3816TIP3   OH232938   0.316   6.709  16.398  0.0077 -0.2826  0.1227
 3816TIP3    H132939   0.266   6.751  16.468  1.1959  1.5673 -0.0696
 3816TIP3    H232940   0.259   6.714  16.321  0.5470  2.0962 -0.1734
 3817TIP3   OH232941   5.670   0.214   0.803 -0.6973  0.1422  0.2789
 3817TIP3    H132942   5.743   0.201   0.864 -0.3218 -0.3696 -0.2757
 3817TIP3    H232943   5.632   0.297   0.830 -0.6132 -0.1354  1.2975
 3818TIP3   OH232944   2.970   2.320   6.462  0.5049 -0.4737  0.2463
 3818TIP3    H132945   3.055   2.287   6.493  1.2562  0.9104 -0.2444
 3818TIP3    H232946   2.951   2.268   6.384  0.0947 -1.8839  1.2506
 3819TIP3   OH232947   3.860   0.783  12.042  0.8693 -0.1288 -1.0421
 3819TIP3    H132948   3.850   0.853  11.977 -0.4280  0.9570  0.2641
 3819TIP3    H232949   3.777   0.734  12.037  1.0806 -0.5185 -0.7549
 3820TIP3   OH232950   5.219   1.405   3.760 -0.3904 -0.2675  0.1934
 3820TIP3    H132951   5.149   1.379   3.701 -0.2599  0.2517 -0.1991
 3820TIP3    H232952   5.202   1.357   3.841 -2.1044  1.0315  0.6649
 3821TIP3   OH232953   6.510   2.566  16.966  0.3864 -0.2962  0.0724
 3821TIP3    H132954   6.590   2.557  16.915 -0.9082 -0.2952 -2.0470
 3821TIP3    H232955   6.439   2.560  16.903 -1.3194 -0.0031  1.8368
 3822TIP3   OH232956   2.743   6.318  13.063 -0.3604 -0.8647  0.5388
 3822TIP3    H132957   2.718   6.228  13.042 -1.3834 -0.3855 -0.3556
 3822TIP3    H232958   2.689   6.340  13.139  1.1532 -1.5680  1.8760
 3823TIP3   OH232959   2.070   1.221   1.004 -0.8097 -0.4508  0.0619
 3823TIP3    H132960   2.006   1.274   0.956 -0.3262 -0.8058 -1.0041
 3823TIP3    H232961   2.125   1.183   0.936  0.7579  0.1200  0.9653
 3824TIP3   OH232962   1.334   3.537  10.338 -0.5899  0.4536  0.0005
 3824TIP3    H132963   1.426   3.529  10.313 -0.8998 -0.4650 -0.9100
 3824TIP3    H232964   1.334   3.526  10.433  0.2259  0.3086 -0.0103
 3825TIP3   OH232965   4.131   3.676  13.832  0.1991  0.1724 -0.4271
 3825TIP3    H132966   4.156   3.669  13.925 -0.1061  0.3145 -0.3337
 3825TIP3    H232967   4.147   3.589  13.796  1.1137  0.3266 -0.4405
 3826TIP3   OH232968   1.486   5.236   6.922  0.3476  0.3379 -0.1373
 3826TIP3    H132969   1.528   5.310   6.879 -0.7128  0.5819 -0.7886
 3826TIP3    H232970   1.482   5.168   6.855 -0.0513  0.2256 -0.0012
 3827TIP3   OH232971   6.252   2.049  14.463 -0.4467  0.2558 -0.0840
 3827TIP3    H132972   6.204   2.108  14.405  0.2389  0.1359 -0.7903
 3827TIP3    H232973   6.210   1.963  14.448  0.7344 -0.0945 -1.6196
 3828TIP3   OH232974   6.569   2.464  15.561  0.0224  0.6756 -0.5922
 3828TIP3    H132975   6.507   2.419  15.503  0.8473 -1.4537  0.0708
 3828TIP3    H232976   6.513   2.508  15.626 -0.8256 -0.1685 -0.7240
 3829TIP3   OH232977   3.552   5.115  16.850  0.1044  0.1770 -0.0723
 3829TIP3    H132978   3.484   5.048  16.839  0.9376 -0.6983 -0.1058
 3829TIP3    H232979   3.574   5.111  16.943  2.6744 -2.2442 -0.6114
 3830TIP3   OH232980   6.450   2.680   5.583 -0.0049  0.3104 -0.5623
 3830TIP3    H132981   6.430   2.588   5.597  0.4434  0.3965  0.8313
 3830TIP3    H232982   6.500   2.706   5.661  3.1343  0.7943 -2.5632
 3831TIP3   OH232983   6.269   6.744  12.215  0.1233  0.5069 -0.2043
 3831TIP3    H132984   6.314   6.783  12.140  2.1148  0.9570  1.1500
 3831TIP3    H232985   6.259   6.652  12.192  0.9582  0.5857 -0.9376
 3832TIP3   OH232986   4.470   0.986   1.325 -0.0096 -0.1742  0.4939
 3832TIP3    H132987   4.469   0.904   1.275 -0.3776 -0.6151  1.2203
 3832TIP3    H232988   4.423   1.048   1.270 -2.2838 -1.1911  1.1822
 3833TIP3   OH232989   3.257   2.259  16.003  0.1849 -0.0026 -0.5231
 3833TIP3    H132990   3.319   2.320  15.963  1.1899 -0.8282 -0.2908
 3833TIP3    H232991   3.308   2.216  16.073 -0.6876 -0.6230 -0.2511
 3834TIP3   OH232992   4.846   3.092  16.781  0.5223 -0.0299 -0.2733
 3834TIP3    H132993   4.885   3.087  16.694 -0.2092 -0.8294 -0.5694
 3834TIP3    H232994   4.865   3.181  16.811  3.8768 -0.7770  0.2239
 3835TIP3   OH232995   5.466   2.517   5.263 -0.6823  0.3371 -0.3139
 3835TIP3    H132996   5.505   2.586   5.316 -1.4812  1.6510 -1.3739
 3835TIP3    H232997   5.409   2.470   5.324  1.8646 -1.1850  1.0854
 3836TIP3   OH232998   1.331   5.148  14.874 -0.2323  0.0607  0.2936
 3836TIP3    H132999   1.409   5.133  14.927 -0.5107  0.6055  0.8712
 3836TIP3    H233000   1.361   5.138  14.784  0.5535  0.4557  0.4969
 3837TIP3   OH233001   0.071   1.933   3.646  0.4118 -0.0138  0.0861
 3837TIP3    H133002   0.143   1.900   3.700  0.4917 -0.5730 -0.3505
 3837TIP3    H233003   0.036   1.855   3.602 -1.0642  0.1014  0.9766
 3838TIP3   OH233004   2.413   1.132   5.464 -0.0473  0.0063  0.0131
 3838TIP3    H133005   2.321   1.105   5.465 -0.6579  1.9813  0.2642
 3838TIP3    H233006   2.457   1.070   5.522 -1.3351 -0.5777  0.3932
 3839TIP3   OH233007   1.814   0.832   4.787 -0.4105  0.2516  0.1710
 3839TIP3    H133008   1.753   0.906   4.782 -1.3463 -0.5997 -3.1590
 3839TIP3    H233009   1.760   0.760   4.820 -0.4872  0.1685 -0.1328
 3840TIP3   OH233010   3.926   5.566  12.205 -0.4091  0.1661  0.1998
 3840TIP3    H133011   3.867   5.490  12.207  1.0261 -0.9828  0.6533
 3840TIP3    H233012   3.927   5.593  12.113 -2.2313  0.7175  0.3073
 3841TIP3   OH233013   1.172   1.398   1.437  0.8015 -0.3689 -0.5214
 3841TIP3    H133014   1.230   1.326   1.461  0.8455  0.4052  1.9994
 3841TIP3    H233015   1.218   1.477   1.465 -0.3278  0.4665 -0.9132
 3842TIP3   OH233016   5.002   0.963   5.389  0.2856 -0.4014 -0.2399
 3842TIP3    H133017   4.916   1.006   5.388  0.1943 -0.5562  0.4996
 3842TIP3    H233018   5.059   1.026   5.434  0.4843 -0.4339 -0.4481
 3843TIP3   OH233019   4.865   4.761   5.430 -0.1255 -0.0008 -0.9452
 3843TIP3    H133020   4.880   4.817   5.354 -1.8340  2.2391  0.2560
 3843TIP3    H233021   4.922   4.796   5.498 -1.9543  1.0627  0.1257
 3844TIP3   OH233022   1.724   5.419   4.064 -0.2870  0.2187 -0.3851
 3844TIP3    H133023   1.779   5.445   3.991  0.0204 -0.7293 -0.5077
 3844TIP3    H233024   1.638   5.402   4.025 -0.3084  0.3937 -0.4130
 3845TIP3   OH233025   4.519   5.813   3.955 -0.1589  0.3544  0.3964
 3845TIP3    H133026   4.488   5.858   3.876  1.3315 -0.2366 -0.5664
 3845TIP3    H233027   4.485   5.866   4.027 -1.1777  1.1708 -0.6311
 3846TIP3   OH233028   0.675   0.419  16.214  0.4642 -0.3896 -0.5799
 3846TIP3    H133029   0.749   0.429  16.155 -0.2556  2.2205 -1.2005
 3846TIP3    H233030   0.611   0.368  16.164  1.0243 -0.8148 -0.8664
 3847TIP3   OH233031   0.757   6.634   2.174  0.2701 -0.3762 -0.2208
 3847TIP3    H133032   0.775   6.702   2.239 -0.7217 -0.2831 -0.0399
 3847TIP3    H233033   0.836   6.632   2.120  0.4220  0.7237 -0.0621
 3848TIP3   OH233034   6.066   6.490  16.326  0.1477 -0.0778  0.9077
 3848TIP3    H133035   6.063   6.552  16.398 -1.5064  0.4043  0.4663
 3848TIP3    H233036   5.976   6.459  16.317  0.2825 -0.0329 -1.0080
 3849TIP3   OH233037   3.489   1.446   6.087  0.3751 -0.1345  0.2156
 3849TIP3    H133038   3.403   1.408   6.105  0.1060 -0.8937 -2.2593
 3849TIP3    H233039   3.546   1.370   6.070  0.0652  0.3054 -3.8562
 3850TIP3   OH233040   3.980   5.166   5.500  0.5782  0.2433 -0.5413
 3850TIP3    H133041   3.904   5.168   5.441  1.1888 -0.1768 -1.3465
 3850TIP3    H233042   4.050   5.126   5.449  0.9061 -0.8792  0.7302
 3851TIP3   OH233043   2.873   1.631  15.345 -0.6323  0.0930  0.3433
 3851TIP3    H133044   2.818   1.553  15.350 -0.4163 -0.1240 -0.5438
 3851TIP3    H233045   2.817   1.702  15.377 -1.2548 -0.2165 -0.0383
 3852TIP3   OH233046   0.642   2.895   2.677 -0.3102 -0.2977 -0.0687
 3852TIP3    H133047   0.694   2.929   2.750 -0.2005 -0.4872 -0.0588
 3852TIP3    H233048   0.699   2.904   2.601 -0.7947  0.8804 -0.3268
 3853TIP3   OH233049   2.306   4.344   0.278 -0.1049 -0.3293  0.4487
 3853TIP3    H133050   2.212   4.343   0.293 -0.2294  0.2948 -0.1980
 3853TIP3    H233051   2.344   4.366   0.362 -0.4169 -2.2482  1.1411
 3854TIP3   OH233052   2.408   1.220  17.163  0.2353  0.3634 -0.3396
 3854TIP3    H133053   2.482   1.170  17.128  0.7954  0.9873 -0.0742
 3854TIP3    H233054   2.337   1.157  17.171  1.5088 -0.8719  1.9234
 3855TIP3   OH233055   4.388   4.689  12.656 -0.2064  0.2088  0.1735
 3855TIP3    H133056   4.396   4.757  12.589  0.2309  0.0922  0.1042
 3855TIP3    H233057   4.477   4.656  12.667 -0.5585 -1.0245 -0.4976
 3856TIP3   OH233058   2.815   4.023  15.035 -0.4743 -0.7342 -0.3454
 3856TIP3    H133059   2.759   4.050  15.108 -0.0381  0.1501 -0.3214
 3856TIP3    H233060   2.860   3.945  15.067  2.4888  1.5957  1.8391
 3857TIP3   OH233061   1.331   4.284  17.071 -0.6007 -0.1013  0.3091
 3857TIP3    H133062   1.397   4.218  17.049 -3.2576 -2.0310 -2.6836
 3857TIP3    H233063   1.255   4.233  17.101 -2.6864  1.4759 -1.9253
 3858TIP3   OH233064   0.715   3.581   2.149 -0.2427 -0.2605 -0.4724
 3858TIP3    H133065   0.654   3.570   2.222  0.2413 -2.0090 -0.2841
 3858TIP3    H233066   0.780   3.643   2.182  0.8962 -2.2406  1.2760
 3859TIP3   OH233067   5.184   4.636   2.485  0.7630 -0.2303 -0.1888
 3859TIP3    H133068   5.091   4.657   2.476  1.1311  1.7747  0.1188
 3859TIP3    H233069   5.202   4.575   2.414 -0.8390 -0.8600 -0.0816
 3860TIP3   OH233070   3.310   3.779   0.572 -0.1343 -0.2066 -0.0680
 3860TIP3    H133071   3.269   3.699   0.539  0.5844 -0.7901  0.4149
 3860TIP3    H233072   3.310   3.769   0.667  0.6735  0.0017 -0.0377
 3861TIP3   OH233073   0.936   3.225  12.772 -0.0845 -0.2242  0.2379
 3861TIP3    H133074   0.929   3.161  12.701 -2.1723 -1.1701  1.1881
 3861TIP3    H233075   0.894   3.304  12.738  0.1776 -0.2131 -0.0582
 3862TIP3   OH233076   3.888   3.854   2.621 -1.0434 -0.0021  0.0784
 3862TIP3    H133077   3.883   3.759   2.630 -0.1481 -0.0833 -0.1812
 3862TIP3    H233078   3.842   3.872   2.539  0.3424 -0.4110 -0.8123
 3863TIP3   OH233079   2.351   3.204  17.117 -0.1041  0.0301  0.3921
 3863TIP3    H133080   2.335   3.227  17.208 -1.3966  0.5470  0.0621
 3863TIP3    H233081   2.271   3.231  17.071  0.7000  0.2177 -0.9658
 3864TIP3   OH233082   5.073   5.589   4.807  0.3071  0.0176 -0.0928
 3864TIP3    H133083   5.095   5.673   4.765  1.0790 -0.7623 -1.3167
 3864TIP3    H233084   5.119   5.592   4.891  0.4869  0.7389 -0.2047
 3865TIP3   OH233085   4.271   2.991  16.462  0.4840 -0.2419  0.2230
 3865TIP3    H133086   4.264   2.922  16.528 -0.3285 -1.0727 -0.7044
 3865TIP3    H233087   4.366   3.006  16.453  0.6934 -1.5001  0.1705
 3866TIP3   OH233088   5.119   6.513   3.553  0.0193  0.3052 -0.1467
 3866TIP3    H133089   5.029   6.479   3.550 -0.0536  0.4675  0.1317
 3866TIP3    H233090   5.158   6.485   3.471 -0.1060 -0.2633 -0.0155
 3867TIP3   OH233091   0.990   1.631  12.852 -0.3068  0.3361 -0.0730
 3867TIP3    H133092   1.027   1.662  12.770  0.1776 -0.1492 -0.0471
 3867TIP3    H233093   0.925   1.565  12.826 -1.5426  1.5264 -0.1401
 3868TIP3   OH233094   3.497   3.714  11.292  0.1867 -0.1716  0.4977
 3868TIP3    H133095   3.488   3.638  11.234 -0.0756 -0.5824  1.0659
 3868TIP3    H233096   3.447   3.783  11.249  0.3566 -0.3415  0.0181
 3869TIP3   OH233097   0.722   1.937   5.097  0.8135  0.2077  0.6698
 3869TIP3    H133098   0.705   1.846   5.074  0.9478  0.1356  0.8466
 3869TIP3    H233099   0.758   1.976   5.017  0.4241  0.1983  0.4888
 3870TIP3   OH233100   0.896   3.080  14.675 -0.0438  0.0496  0.0677
 3870TIP3    H133101   0.910   2.998  14.722  0.7244 -0.7547 -1.4676
 3870TIP3    H233102   0.984   3.114  14.659 -0.3222  0.7497 -0.0352
 3871TIP3   OH233103   6.351   1.625   5.372  0.7666 -0.2111  0.0463
 3871TIP3    H133104   6.278   1.586   5.419 -0.1684  1.9771  0.5667
 3871TIP3    H233105   6.429   1.599   5.421  0.0035  0.2857  1.5784
 3872TIP3   OH233106   4.551   3.774  12.961  0.3088 -0.0997  0.0756
 3872TIP3    H133107   4.462   3.794  12.932 -0.1462 -0.4524  1.1542
 3872TIP3    H233108   4.539   3.729  13.045  1.4746 -0.9702 -0.2007
 3873TIP3   OH233109   5.473   0.628   4.442 -0.0232 -0.0040 -0.1381
 3873TIP3    H133110   5.518   0.558   4.489 -0.5052  0.0375  0.3889
 3873TIP3    H233111   5.394   0.587   4.406 -0.4672  0.3405  0.4362
 3874TIP3   OH233112   3.730   6.400  13.280  0.0800  0.8765  0.6260
 3874TIP3    H133113   3.763   6.402  13.190 -0.4160 -1.6383  0.3209
 3874TIP3    H233114   3.636   6.388  13.270  0.1032 -0.0860  1.4580
 3875TIP3   OH233115   0.871   4.357  12.398  0.5514 -0.1368  0.1119
 3875TIP3    H133116   0.867   4.429  12.460 -0.8528 -0.0537 -0.0539
 3875TIP3    H233117   0.814   4.383  12.326  0.5161 -1.1436 -0.2439
 3876TIP3   OH233118   0.361   3.711  11.108 -0.2651 -0.0487  0.0642
 3876TIP3    H133119   0.393   3.800  11.093  1.2523 -0.5300  0.2688
 3876TIP3    H233120   0.307   3.692  11.032 -0.6774  1.0682  0.0570
 3877TIP3   OH233121   1.875   2.958   2.027  0.1418  0.3512  0.1337
 3877TIP3    H133122   1.946   2.990   1.971  1.8568 -0.1099  1.9064
 3877TIP3    H233123   1.918   2.940   2.111 -2.0640 -0.1638  1.2207
 3878TIP3   OH233124   2.817   1.430   0.525  0.5261  0.7143 -0.2230
 3878TIP3    H133125   2.850   1.482   0.451  0.6148  1.0626  0.0587
 3878TIP3    H233126   2.735   1.392   0.493  0.8969  0.3174 -0.7309
 3879TIP3   OH233127   2.510   1.666   4.979  0.3446  0.2854  0.2832
 3879TIP3    H133128   2.560   1.676   4.898 -0.6394 -1.0898 -0.5506
 3879TIP3    H233129   2.464   1.749   4.989 -0.5305  0.0343 -1.3229
 3880TIP3   OH233130   2.144   1.502  12.997  0.4295  0.3450 -0.3153
 3880TIP3    H133131   2.173   1.557  12.924 -0.7586  1.2127 -0.1678
 3880TIP3    H233132   2.217   1.442  13.012  1.7980  1.8879 -0.4726
 3881TIP3   OH233133   2.797   3.735  15.903  0.1092  0.1810  0.0708
 3881TIP3    H133134   2.763   3.711  15.817  1.0827 -1.5367  0.1291
 3881TIP3    H233135   2.839   3.820  15.889 -2.5644  1.5129 -0.3732
 3882TIP3   OH233136   0.571   5.589  14.782 -0.5773 -0.2384 -0.3602
 3882TIP3    H133137   0.562   5.495  14.795  0.3689 -0.2241  0.4955
 3882TIP3    H233138   0.551   5.628  14.867 -2.3625  0.4578 -1.0463
 3883TIP3   OH233139   5.639   2.503  13.106  0.2381  0.2471 -0.4376
 3883TIP3    H133140   5.608   2.416  13.082 -2.3971  0.7279  0.8481
 3883TIP3    H233141   5.589   2.563  13.051  1.9189  1.0123 -1.2087
 3884TIP3   OH233142   5.939   1.749  17.135  0.9834  0.2224  0.0670
 3884TIP3    H133143   5.998   1.789  17.071  0.2138 -1.2034 -1.6088
 3884TIP3    H233144   5.906   1.822  17.186  0.4950  1.6314 -2.1204
 3885TIP3   OH233145   3.511   6.302   5.927  0.3593 -0.3671 -0.4534
 3885TIP3    H133146   3.438   6.363   5.919  0.8933  0.0460 -2.7629
 3885TIP3    H233147   3.470   6.219   5.949 -0.5756  0.3119  0.4927
 3886TIP3   OH233148   6.072   6.438  14.368  0.3518 -0.7562 -0.1805
 3886TIP3    H133149   6.018   6.368  14.405  0.5446 -0.5631  0.4653
 3886TIP3    H233150   6.140   6.392  14.318 -0.9952 -1.0090 -1.9157
 3887TIP3   OH233151   2.109   6.487   5.409 -0.6950 -0.2655 -0.0819
 3887TIP3    H133152   2.192   6.473   5.362  0.1263 -0.6075  1.3913
 3887TIP3    H233153   2.136   6.520   5.495 -2.2010  1.6811 -0.2716
 3888TIP3   OH233154   3.714   4.898  12.320  0.1315  0.1683  0.4479
 3888TIP3    H133155   3.626   4.919  12.351  0.3716 -0.8049  1.9152
 3888TIP3    H233156   3.721   4.803  12.332  1.8885  0.4336  1.8085
 3889TIP3   OH233157   1.954   1.503  14.385 -0.5674 -0.0018 -0.9529
 3889TIP3    H133158   1.877   1.546  14.421  0.4608  1.6451 -0.6182
 3889TIP3    H233159   2.020   1.509  14.454  0.4391  0.3352 -1.9169
 3890TIP3   OH233160   0.323   0.990   0.766  0.3242  0.0746 -0.0513
 3890TIP3    H133161   0.384   1.057   0.795  0.4769 -0.2071  0.2852
 3890TIP3    H233162   0.236   1.027   0.784  0.4008  0.3367 -0.2205
 3891TIP3   OH233163   5.233   0.100   6.028 -0.2482 -0.6416 -0.2580
 3891TIP3    H133164   5.150   0.124   6.069 -0.4278  0.3441 -1.1587
 3891TIP3    H233165   5.227   0.005   6.016 -1.2502 -0.5816 -0.3307
 3892TIP3   OH233166   4.930   1.489  17.109 -0.6399  0.9493 -0.3211
 3892TIP3    H133167   4.860   1.452  17.163  0.1009 -0.2463 -0.1257
 3892TIP3    H233168   4.994   1.418  17.103  0.1430  1.7166 -1.2282
 3893TIP3   OH233169   2.132   3.180   1.625 -0.3270  0.4742  0.1407
 3893TIP3    H133170   2.070   3.106   1.628  0.3269 -0.2234 -1.7394
 3893TIP3    H233171   2.085   3.252   1.666 -1.8755 -0.3943 -0.0228
 3894TIP3   OH233172   2.643   3.615  14.283 -0.0285  0.1217  0.2095
 3894TIP3    H133173   2.677   3.665  14.357  0.7795  0.5474 -0.4449
 3894TIP3    H233174   2.605   3.681  14.225 -0.9067 -0.2369  0.3549
 3895TIP3   OH233175   3.511   4.835  11.212 -0.2524  0.3212 -0.2758
 3895TIP3    H133176   3.546   4.761  11.261 -0.7632 -0.9199 -1.7294
 3895TIP3    H233177   3.479   4.797  11.130 -0.6137  2.1355 -1.0185
 3896TIP3   OH233178   1.827   5.929   1.346  0.1038 -0.5053 -0.1472
 3896TIP3    H133179   1.782   5.880   1.415 -1.1850  0.2970 -0.3784
 3896TIP3    H233180   1.765   5.931   1.273  1.2133 -0.8407 -1.1331
 3897TIP3   OH233181   3.292   3.573  12.377  0.5932 -0.3899 -0.0205
 3897TIP3    H133182   3.227   3.636  12.346  0.2553 -0.5397  0.3859
 3897TIP3    H233183   3.338   3.546  12.297 -1.2397 -1.8742 -0.6303
 3898TIP3   OH233184   4.183   0.110  14.823  0.2842 -0.4710  0.2274
 3898TIP3    H133185   4.152   0.039  14.767  1.3027 -0.4529 -0.3833
 3898TIP3    H233186   4.104   0.145  14.864 -0.6709  0.4023 -2.2193
 3899TIP3   OH233187   2.939   0.350  16.118  0.4918 -0.7275  0.1088
 3899TIP3    H133188   3.030   0.376  16.134  0.3169 -0.3683  0.5541
 3899TIP3    H233189   2.895   0.365  16.202  0.1108 -1.2975  0.0173
 3900TIP3   OH233190   0.883   4.369   3.519  0.1324  0.0415  0.0722
 3900TIP3    H133191   0.954   4.423   3.556  1.1974  0.2490 -2.1029
 3900TIP3    H233192   0.865   4.304   3.587  2.1021  0.2666  0.8927
 3901TIP3   OH233193   2.995   4.396   1.513  0.4828 -0.1640  0.0673
 3901TIP3    H133194   3.023   4.308   1.488 -2.4764 -1.9238  2.1661
 3901TIP3    H233195   2.920   4.414   1.456 -1.0623 -0.5957  1.8566
 3902TIP3   OH233196   0.751   3.100   2.131 -0.3871  0.0978  0.3982
 3902TIP3    H133197   0.770   3.127   2.221  0.4234 -1.6169  0.7705
 3902TIP3    H233198   0.667   3.054   2.137 -0.0587 -0.5075  0.3823
 3903TIP3   OH233199   2.259   5.581   6.139 -0.0862 -0.0037 -0.2736
 3903TIP3    H133200   2.338   5.597   6.190  1.1626 -0.1142 -2.0885
 3903TIP3    H233201   2.281   5.507   6.082 -0.8466  1.0632 -2.0586
 3904TIP3   OH233202   0.048   0.460  13.687 -0.0071  0.3357 -0.3991
 3904TIP3    H133203   0.075   0.418  13.769 -0.1593  1.9636  0.5437
 3904TIP3    H233204  -0.048   0.462  13.692  0.0296  2.0461  0.2851
 3905TIP3   OH233205   1.938   5.949  16.808  0.3482  0.1552  0.2182
 3905TIP3    H133206   2.011   6.002  16.842  0.6092 -0.0572 -0.0059
 3905TIP3    H233207   1.961   5.933  16.717 -1.0206  1.9103 -0.5051
 3906TIP3   OH233208   3.175   1.621   5.410 -0.2399 -0.0210  0.4618
 3906TIP3    H133209   3.167   1.686   5.480 -0.1884  0.8540 -0.3216
 3906TIP3    H233210   3.139   1.665   5.333  0.1039 -0.8152 -0.1637
 3907TIP3   OH233211   4.766   4.616   1.758 -0.0518 -0.3110 -0.0070
 3907TIP3    H133212   4.825   4.685   1.728  0.3290 -1.1100 -1.1535
 3907TIP3    H233213   4.821   4.557   1.810 -0.3153  0.0835  0.7317
 3908TIP3   OH233214   6.619   0.470   4.807  0.2672  0.5766  0.3872
 3908TIP3    H133215   6.580   0.529   4.743  0.1240  1.0460  0.9012
 3908TIP3    H233216   6.587   0.383   4.781  1.0487  0.6259 -0.7860
 3909TIP3   OH233217   2.550   1.835   4.514  0.0058 -0.0881 -0.4167
 3909TIP3    H133218   2.603   1.782   4.574  0.8736 -1.7379 -2.5266
 3909TIP3    H233219   2.576   1.925   4.533 -0.4268 -0.4420  2.2570
 3910TIP3   OH233220   2.789   0.437   3.574  0.0439  0.2630 -0.2304
 3910TIP3    H133221   2.718   0.500   3.562 -1.2976 -1.6241 -3.3923
 3910TIP3    H233222   2.856   0.466   3.512  1.4159  1.0898  1.5736
 3911TIP3   OH233223   6.556   4.197   2.631 -0.4651 -0.1432  0.7231
 3911TIP3    H133224   6.463   4.177   2.644 -0.3343  0.1375  2.2823
 3911TIP3    H233225   6.600   4.151   2.702  0.3974  1.1706  1.0654
 3912TIP3   OH233226   2.069   5.583  16.833 -0.4683 -0.4834  0.1576
 3912TIP3    H133227   2.126   5.653  16.867 -0.7941 -0.0456 -0.1947
 3912TIP3    H233228   2.058   5.523  16.908  0.7481 -0.7721  0.1294
 3913TIP3   OH233229   2.765   0.949   0.470 -0.2492  0.2112 -0.3497
 3913TIP3    H133230   2.774   0.967   0.564 -1.1709 -0.7081 -0.0671
 3913TIP3    H233231   2.824   1.012   0.428  0.0058  0.7913  0.8274
 3914TIP3   OH233232   3.451   4.941   5.011  0.0394 -0.2816  0.3319
 3914TIP3    H133233   3.389   4.990   4.958  1.5746  1.6535  0.2410
 3914TIP3    H233234   3.404   4.925   5.093 -1.0231 -0.0020 -0.2019
 3915TIP3   OH233235   0.005   4.997   3.018  0.2062  0.0819 -0.3095
 3915TIP3    H133236   0.016   5.084   3.056 -0.5307 -0.4328  1.1631
 3915TIP3    H233237  -0.049   5.011   2.940  1.3147  1.1017 -0.9320
 3916TIP3   OH233238   4.870   4.413   4.092  1.0821  0.6495  0.0935
 3916TIP3    H133239   4.935   4.350   4.059  1.7189 -0.0459  2.5038
 3916TIP3    H233240   4.874   4.404   4.187 -2.7074  0.4281  0.3796
 3917TIP3   OH233241   0.803   5.934  10.582  0.4813  0.2912 -0.9534
 3917TIP3    H133242   0.831   6.015  10.540  1.4001 -0.2636 -1.4666
 3917TIP3    H233243   0.885   5.889  10.603  0.1077  0.9299  2.3073
 3918TIP3   OH233244   3.355   1.506   5.808  0.2928 -0.1615 -0.0066
 3918TIP3    H133245   3.259   1.504   5.812  0.3252 -0.8154  0.5846
 3918TIP3    H233246   3.374   1.491   5.715 -0.1909  1.5732 -0.4273
 3919TIP3   OH233247   2.671   4.480   5.936 -0.2837  0.4338  0.2158
 3919TIP3    H133248   2.715   4.551   5.889  0.0430 -0.8281 -1.5146
 3919TIP3    H233249   2.615   4.439   5.869  0.2461 -1.5073  0.8986
 3920TIP3   OH233250   0.694   5.023   3.623 -0.2909 -0.6373  0.2355
 3920TIP3    H133251   0.734   5.111   3.624 -1.5860 -0.0259  0.4093
 3920TIP3    H233252   0.664   5.011   3.534 -3.0214  0.5201  0.8875
 3921TIP3   OH233253   0.441   1.286   0.562 -0.5967 -0.0194  0.1320
 3921TIP3    H133254   0.399   1.360   0.606 -0.4485 -0.1115  0.4382
 3921TIP3    H233255   0.430   1.213   0.623  1.2307  0.2793  0.9050
 3922TIP3   OH233256   5.384   4.568  13.227  0.4813 -0.1312  0.0511
 3922TIP3    H133257   5.334   4.519  13.162  1.8609 -1.4661 -0.0515
 3922TIP3    H233258   5.443   4.622  13.176  0.2797  0.2190  0.1858
 3923TIP3   OH233259   4.721   6.054  15.995 -0.4802 -0.9947 -0.1888
 3923TIP3    H133260   4.629   6.047  15.969 -0.2997 -0.5630 -0.9901
 3923TIP3    H233261   4.756   5.966  15.986 -1.2164 -1.5377  1.7776
 3924TIP3   OH233262   1.642   2.828   1.970  0.3018  0.3761  0.7418
 3924TIP3    H133263   1.705   2.888   2.010 -0.2842  0.4325  1.6103
 3924TIP3    H233264   1.607   2.876   1.895  0.3068  0.8823  1.0545
 3925TIP3   OH233265   1.434   4.931  15.452  0.4792 -0.2171 -0.6039
 3925TIP3    H133266   1.453   4.868  15.521  0.0144  1.6320  1.3342
 3925TIP3    H233267   1.503   4.997  15.460 -0.6201  0.9759 -0.6577
 3926TIP3   OH233268   3.436   4.020  14.604  0.1732  0.5549 -0.0619
 3926TIP3    H133269   3.489   4.053  14.677 -0.9969  3.1337 -0.2726
 3926TIP3    H233270   3.472   4.064  14.527 -0.4722  0.1182 -0.6258
 3927TIP3   OH233271   5.769   5.717   3.924  0.3458 -0.1866  0.4098
 3927TIP3    H133272   5.758   5.632   3.967 -2.5367  0.5962  1.4913
 3927TIP3    H233273   5.769   5.696   3.831  0.7103 -1.4336  0.6632
 3928TIP3   OH233274   5.774   4.115  17.339  0.0787  0.1448 -0.0029
 3928TIP3    H133275   5.761   4.020  17.340 -1.1586  0.2943  0.1035
 3928TIP3    H233276   5.773   4.138  17.246 -0.6552  0.1731  0.0086
 3929TIP3   OH233277   4.413   2.120   2.349 -0.0980  0.8377  0.0709
 3929TIP3    H133278   4.344   2.057   2.371  1.5561 -0.7902  0.7914
 3929TIP3    H233279   4.403   2.190   2.414 -0.5230  0.1880  0.7165
 3930TIP3   OH233280   1.704   3.574  11.932  0.1642 -0.0868  0.0157
 3930TIP3    H133281   1.644   3.610  11.867  0.1657  0.8585  0.5280
 3930TIP3    H233282   1.648   3.544  12.003  0.2128 -0.4861 -0.1096
 3931TIP3   OH233283   1.267   2.745  15.052 -0.3410 -0.0795  0.4315
 3931TIP3    H133284   1.342   2.722  14.997 -0.3391 -0.2497  0.5033
 3931TIP3    H233285   1.285   2.835  15.081 -1.7284  1.1118 -2.1474
 3932TIP3   OH233286   1.546   3.366   3.317 -0.4485  0.0048 -0.1473
 3932TIP3    H133287   1.507   3.281   3.294  0.2491 -0.3817  0.0824
 3932TIP3    H233288   1.606   3.386   3.245 -0.1956  0.0343  0.0687
 3933TIP3   OH233289   4.756   6.656  16.800  0.4973 -0.0612  0.2346
 3933TIP3    H133290   4.775   6.704  16.719 -1.2648  0.8004  0.2967
 3933TIP3    H233291   4.683   6.599  16.778  0.4100 -0.2842  1.0661
 3934TIP3   OH233292   6.690   4.641  13.653 -0.1774  0.0610  0.3259
 3934TIP3    H133293   6.704   4.706  13.584  1.1762  0.1668  0.6654
 3934TIP3    H233294   6.767   4.584  13.648 -1.1662 -1.3273  0.2633
 3935TIP3   OH233295   1.762   0.401   0.216 -0.0674 -0.3992 -0.1453
 3935TIP3    H133296   1.764   0.317   0.170 -0.0578  0.1752 -1.2481
 3935TIP3    H233297   1.769   0.466   0.146  1.0239  0.5091  0.7559
 3936TIP3   OH233298   4.432   0.850   4.118 -0.7376 -0.2644  0.2546
 3936TIP3    H133299   4.520   0.846   4.079 -0.7183 -1.1876  0.3761
 3936TIP3    H233300   4.396   0.763   4.105 -0.7244 -0.6314  2.3209
 3937TIP3   OH233301   5.525   4.168  16.082 -0.5331 -0.0029  0.1396
 3937TIP3    H133302   5.593   4.172  16.150  0.1659  0.3206 -0.5660
 3937TIP3    H233303   5.542   4.086  16.036 -0.1957  0.3981 -0.4639
 3938TIP3   OH233304   4.832   0.117  16.386 -0.4242  0.2015 -0.0690
 3938TIP3    H133305   4.859   0.042  16.438 -0.9119  1.2790  1.8672
 3938TIP3    H233306   4.787   0.080  16.311 -0.7057 -1.4449  0.8688
 3939TIP3   OH233307   0.485   2.320   3.975 -0.6136  0.0333  0.4925
 3939TIP3    H133308   0.511   2.262   3.903 -0.7660 -0.1382  0.5741
 3939TIP3    H233309   0.440   2.392   3.933 -4.4311 -2.0425  0.6356
 3940TIP3   OH233310   6.183   1.960   3.287  0.0495  0.2193  0.4409
 3940TIP3    H133311   6.128   1.893   3.327 -0.9361  0.5125 -0.3821
 3940TIP3    H233312   6.255   1.972   3.349  0.5544 -1.9702  0.3385
 3941TIP3   OH233313   3.676   6.504   4.508 -0.7759 -0.2912 -0.5083
 3941TIP3    H133314   3.673   6.507   4.412 -1.8549  0.4429 -0.4837
 3941TIP3    H233315   3.629   6.424   4.531  0.9293 -1.3732 -0.5942
 3942TIP3   OH233316   3.359   5.601  13.014  0.1491 -0.7095  0.2507
 3942TIP3    H133317   3.440   5.650  13.002  0.6084 -1.3112  0.7672
 3942TIP3    H233318   3.333   5.574  12.926  0.7552 -0.8745  0.1154
 3943TIP3   OH233319   5.895   0.968   5.098  0.0757 -0.5594 -0.3386
 3943TIP3    H133320   5.908   0.929   5.185 -0.8383 -0.4195 -0.1234
 3943TIP3    H233321   5.983   0.975   5.061  0.4401 -0.9744  0.4252
 3944TIP3   OH233322   6.168   5.580   0.129 -0.3900 -0.0589  0.0756
 3944TIP3    H133323   6.173   5.561   0.223  1.3124 -0.0731  0.0018
 3944TIP3    H233324   6.144   5.673   0.124 -0.2201  0.0071  0.5160
 3945TIP3   OH233325   4.548   6.313  15.463  0.1114 -0.1789  0.2491
 3945TIP3    H133326   4.642   6.297  15.454  0.6947  1.9963  1.6508
 3945TIP3    H233327   4.507   6.228  15.447  2.2876 -1.1528 -0.5232
 3946TIP3   OH233328   5.992   0.890   0.035 -0.0299 -0.1276 -0.0674
 3946TIP3    H133329   6.048   0.908   0.111 -0.8910 -0.5156  0.6768
 3946TIP3    H233330   6.046   0.833  -0.021  0.2007 -0.7876  0.7993
 3947TIP3   OH233331   0.785   5.145  15.039 -0.0249  0.2018 -0.3355
 3947TIP3    H133332   0.757   5.205  15.108 -1.0602 -0.0829 -0.4936
 3947TIP3    H233333   0.830   5.201  14.975  1.5268  0.3851  0.8371
 3948TIP3   OH233334   1.675   0.687   1.508  0.4156 -0.0602  0.1931
 3948TIP3    H133335   1.627   0.604   1.515  0.9933 -0.3600  0.7507
 3948TIP3    H233336   1.738   0.684   1.580  1.6550  0.0779 -0.8661
 3949TIP3   OH233337   5.528   5.754  12.452  0.5105 -0.2541  0.0230
 3949TIP3    H133338   5.473   5.828  12.427  1.2016  0.3303  0.1976
 3949TIP3    H233339   5.486   5.719  12.531  0.3443  0.1390  0.1124
 3950TIP3   OH233340   3.042   4.109   4.707  0.2540  0.6600  0.3659
 3950TIP3    H133341   3.072   4.199   4.720  0.2994  0.7426 -0.2697
 3950TIP3    H233342   3.116   4.066   4.663 -0.1678  0.5969 -0.2933
 3951TIP3   OH233343   2.632   2.242  13.730  0.1624  0.5089 -0.2524
 3951TIP3    H133344   2.656   2.331  13.703  0.3366  0.5471  0.0241
 3951TIP3    H233345   2.591   2.204  13.653  2.5769 -0.1322 -1.3173
 3952TIP3   OH233346   5.413   6.667   0.272  0.0288 -0.6936 -0.0763
 3952TIP3    H133347   5.342   6.655   0.209  1.5396 -1.6842 -1.6921
 3952TIP3    H233348   5.493   6.662   0.219  1.3282 -0.1020  1.7310
 3953TIP3   OH233349   4.840   1.997   2.486  0.2423 -0.7142  0.1503
 3953TIP3    H133350   4.807   2.084   2.463  1.8690 -0.2991 -0.7910
 3953TIP3    H233351   4.893   1.970   2.411 -0.5589 -2.7217  0.2535
 3954TIP3   OH233352   3.580   4.097  13.764  0.4159 -0.0226  0.1969
 3954TIP3    H133353   3.604   4.105  13.856  0.1908  1.1303  0.1668
 3954TIP3    H233354   3.663   4.081  13.719  0.4830 -0.9402  0.6239
 3955TIP3   OH233355   0.683   2.688   3.795 -0.1930  0.5452 -0.0647
 3955TIP3    H133356   0.770   2.673   3.759  0.4179  0.1837  1.4877
 3955TIP3    H233357   0.637   2.605   3.781 -0.3198  0.7602 -0.9517
 3956TIP3   OH233358   6.471   2.943  12.793  0.2293 -0.5322  0.4171
 3956TIP3    H133359   6.508   2.946  12.881  1.4832  1.0686 -0.1126
 3956TIP3    H233360   6.542   2.909  12.739  0.4066  0.9900 -0.3594
 3957TIP3   OH233361   1.930   6.415  12.824  0.1989 -0.1916 -0.0230
 3957TIP3    H133362   1.857   6.390  12.881 -0.7039  1.3784 -0.4331
 3957TIP3    H233363   1.987   6.338  12.823  0.7218 -0.0144  3.6852
 3958TIP3   OH233364   6.155   1.382  12.855  0.1336  0.6040 -0.0856
 3958TIP3    H133365   6.208   1.355  12.930  0.4962  0.3157 -0.4406
 3958TIP3    H233366   6.214   1.436  12.802  0.2749 -0.2487 -0.8116
 3959TIP3   OH233367   0.020   5.853   0.321 -0.2082 -0.1226  0.1276
 3959TIP3    H133368   0.111   5.865   0.346  0.6930 -1.8657 -1.9691
 3959TIP3    H233369   0.023   5.788   0.251 -3.0325  0.1107 -0.3245
 3960TIP3   OH233370   5.171   0.795   3.721 -0.3866 -0.0693 -0.9804
 3960TIP3    H133371   5.161   0.702   3.741  0.2724 -0.1094 -0.8384
 3960TIP3    H233372   5.265   0.808   3.711 -0.4798  0.5691 -1.0773
 3961TIP3   OH233373   4.160   4.566   5.615 -0.4549  0.0457 -0.0829
 3961TIP3    H133374   4.112   4.502   5.562 -0.6097  1.0045 -1.1410
 3961TIP3    H233375   4.156   4.531   5.704  0.5867 -2.0900 -0.7872
 3962TIP3   OH233376   4.026   5.064   6.248 -0.0138 -0.2312 -0.1208
 3962TIP3    H133377   3.958   5.095   6.188 -0.7911  0.8044  1.2630
 3962TIP3    H233378   3.995   5.088   6.335  2.4261  0.9070  0.5153
 3963TIP3   OH233379   1.322   3.094   5.393 -0.5927 -0.0937 -0.7177
 3963TIP3    H133380   1.280   3.016   5.357 -1.0853  0.2019 -0.7978
 3963TIP3    H233381   1.251   3.158   5.399 -0.1787  0.3658 -0.7044
 3964TIP3   OH233382   4.400   4.036   3.267 -0.1847  0.1422  0.9507
 3964TIP3    H133383   4.411   4.122   3.307  0.2731  0.6700 -0.2455
 3964TIP3    H233384   4.355   3.983   3.333 -2.0227  1.7892  1.0994
 3965TIP3   OH233385   0.962   1.749   6.086  0.2196 -0.0426  0.4538
 3965TIP3    H133386   0.971   1.655   6.074 -1.4066 -0.0828 -0.7119
 3965TIP3    H233387   0.888   1.759   6.147 -0.2616  0.4856 -0.2041
 3966TIP3   OH233388   2.481   2.215  13.478  0.2355 -0.4959 -0.4479
 3966TIP3    H133389   2.481   2.297  13.430 -0.0428  0.0098  0.3824
 3966TIP3    H233390   2.511   2.149  13.415  3.3090  0.6865 -0.3668
 3967TIP3   OH233391   6.730   5.382   4.394  0.0554 -0.2533  0.2091
 3967TIP3    H133392   6.679   5.331   4.458 -0.2621 -1.8935 -1.2703
 3967TIP3    H233393   6.821   5.361   4.414 -0.0865 -2.8841 -1.3990
 3968TIP3   OH233394   5.030   3.024  13.719 -0.3251 -0.5656 -0.1783
 3968TIP3    H133395   5.059   2.976  13.797  0.0833 -2.5826 -1.4861
 3968TIP3    H233396   5.080   2.985  13.647  0.2977  2.1242 -1.3290
 3969TIP3   OH233397   1.867   5.997   4.618 -0.1952 -0.3257 -0.0399
 3969TIP3    H133398   1.890   6.087   4.641  0.1145 -0.6385  0.9395
 3969TIP3    H233399   1.801   5.971   4.682  0.9422 -1.3388  0.7950
 3970TIP3   OH233400   1.034   4.995  14.077 -0.1104 -0.8744 -0.1280
 3970TIP3    H133401   0.939   4.990  14.061 -0.0524 -0.4540 -0.6264
 3970TIP3    H233402   1.049   4.935  14.150 -0.9103 -0.2259  0.5874
 3971TIP3   OH233403   5.099   0.401  13.260 -0.1175  0.2633  0.5764
 3971TIP3    H133404   5.034   0.332  13.247  2.2453 -1.7679 -1.6535
 3971TIP3    H233405   5.055   0.481  13.230 -1.3346 -1.1784 -1.8783
 3972TIP3   OH233406   6.388   0.974  17.172  0.0419  0.4109  0.1414
 3972TIP3    H133407   6.303   0.993  17.211 -1.5328  1.5065 -3.4121
 3972TIP3    H233408   6.427   1.061  17.157  1.4150 -0.0476  0.8376
 3973TIP3   OH233409   4.948   3.499  17.035 -0.2892 -0.3293 -0.0105
 3973TIP3    H133410   4.991   3.441  17.098 -1.3842 -0.8629  0.2536
 3973TIP3    H233411   4.988   3.585  17.051  0.5352 -0.7691  0.3592
 3974TIP3   OH233412   2.667   1.617   1.538  0.2387  0.1265 -0.2254
 3974TIP3    H133413   2.744   1.621   1.595  0.6381 -0.9979 -0.6585
 3974TIP3    H233414   2.593   1.610   1.598  0.5619  0.1300  0.1758
 3975TIP3   OH233415   4.200   3.701   0.625  0.0896  0.1089 -0.3113
 3975TIP3    H133416   4.228   3.712   0.716 -1.9480 -0.1908  0.4220
 3975TIP3    H233417   4.160   3.614   0.623  0.4900 -0.0655 -1.6206
 3976TIP3   OH233418   1.577   4.670  11.243  0.4730  0.4249  0.3707
 3976TIP3    H133419   1.482   4.672  11.250  0.5537 -0.7173  2.8711
 3976TIP3    H233420   1.599   4.577  11.238  1.4636  0.6751 -0.1852
 3977TIP3   OH233421   4.713   4.429   3.516  0.0659 -0.1932 -0.0093
 3977TIP3    H133422   4.626   4.466   3.528  0.4956  0.4916  1.2381
 3977TIP3    H233423   4.717   4.357   3.580 -0.2505 -1.5098 -1.4102
 3978TIP3   OH233424   6.340   0.861   1.598  0.1579  0.1011  0.0128
 3978TIP3    H133425   6.387   0.898   1.673  2.0052  0.3696 -1.2165
 3978TIP3    H233426   6.336   0.767   1.617  0.5977  0.1648  0.4567
 3979TIP3   OH233427   1.293   5.921  12.839 -0.0446  0.2669 -0.7046
 3979TIP3    H133428   1.213   5.887  12.879 -0.0963 -0.6457 -1.5625
 3979TIP3    H233429   1.330   5.847  12.791 -1.4067  1.9004 -4.6456
 3980TIP3   OH233430   0.364   4.036  16.930 -0.3021  0.3532  0.6689
 3980TIP3    H133431   0.448   4.073  16.903  1.1067 -0.9911  2.8316
 3980TIP3    H233432   0.298   4.094  16.892  1.6351  2.3724  0.1715
 3981TIP3   OH233433   3.906   0.657   5.678  0.1411  0.2423  0.1034
 3981TIP3    H133434   3.945   0.720   5.617 -0.8618 -0.5233 -1.3755
 3981TIP3    H233435   3.885   0.710   5.755  2.0384  1.0973  0.0778
 3982TIP3   OH233436   3.966   1.623   5.549  0.5792  0.2987  0.4661
 3982TIP3    H133437   3.964   1.693   5.484  0.9301 -0.7068 -0.6477
 3982TIP3    H233438   4.026   1.558   5.513 -0.6092 -1.0996  0.9264
 3983TIP3   OH233439   0.795   5.180   1.196  0.4088  0.0722  0.1748
 3983TIP3    H133440   0.730   5.196   1.264  0.7793  2.1041  0.1093
 3983TIP3    H233441   0.879   5.197   1.239  0.7385 -0.1471 -0.3718
 3984TIP3   OH233442   4.666   4.541  16.896 -0.3451 -0.1184 -0.3285
 3984TIP3    H133443   4.758   4.552  16.871 -0.3384 -1.0989 -0.8046
 3984TIP3    H233444   4.628   4.490  16.825 -1.1540 -0.1043  0.0810
 3985TIP3   OH233445   6.156   5.839  17.515 -0.3991  0.6910  0.0507
 3985TIP3    H133446   6.242   5.859  17.551 -0.1645 -0.0308 -0.0986
 3985TIP3    H233447   6.173   5.775  17.446 -1.3047 -1.7908  1.9947
 3986TIP3   OH233448   0.258   2.649  15.704  0.6746 -0.2388  0.1388
 3986TIP3    H133449   0.233   2.708  15.775 -0.9396 -0.1093 -0.5029
 3986TIP3    H233450   0.192   2.580  15.705  1.2061 -0.7783 -0.6054
 3987TIP3   OH233451   6.544   0.708   6.374  0.2871  0.0727  0.0681
 3987TIP3    H133452   6.487   0.636   6.401 -0.0904  0.0139 -0.8408
 3987TIP3    H233453   6.621   0.699   6.429 -0.3567 -0.1558  0.9679
 3988TIP3   OH233454   5.860   1.923  13.365  0.4043 -0.4592  0.1525
 3988TIP3    H133455   5.819   2.004  13.335 -0.8825 -0.9937  0.4037
 3988TIP3    H233456   5.848   1.862  13.291 -1.4407 -1.3339  1.1159
 3989TIP3   OH233457   3.997   5.830   4.674  0.1090  0.1267  0.3635
 3989TIP3    H133458   3.952   5.780   4.741  2.1840 -1.7188  0.4865
 3989TIP3    H233459   4.072   5.776   4.649  0.4006  1.5331 -2.1958
 3990TIP3   OH233460   2.751   0.325   2.915  0.7737  0.2852  0.0844
 3990TIP3    H133461   2.676   0.383   2.928  1.6828  1.2547  1.2600
 3990TIP3    H233462   2.741   0.291   2.826 -1.0168  0.4318  0.1998
 3991TIP3   OH233463   2.060   5.173  11.760  0.0000 -0.3747 -0.3773
 3991TIP3    H133464   2.064   5.222  11.842  0.5666  0.8055 -1.0864
 3991TIP3    H233465   1.979   5.123  11.766  0.5861 -1.1925  1.3725
 3992TIP3   OH233466   6.539   6.170   5.955  0.2300  0.4224  0.8676
 3992TIP3    H133467   6.585   6.165   6.039  1.1262  0.1883  0.3796
 3992TIP3    H233468   6.500   6.083   5.944 -0.9155  0.8266  1.5922
 3993TIP3   OH233469   2.163   3.664   0.493 -0.2601 -0.1966  0.7568
 3993TIP3    H133470   2.203   3.681   0.579  0.2368  0.2909  0.4348
 3993TIP3    H233471   2.189   3.574   0.473  0.2091 -0.0782  0.8078
 3994TIP3   OH233472   2.621   4.970   2.300 -0.5170 -0.3266  0.5027
 3994TIP3    H133473   2.551   5.019   2.344 -0.7224 -0.5600  0.4375
 3994TIP3    H233474   2.576   4.897   2.257 -0.7187  1.2966 -2.2799
 3995TIP3   OH233475   3.489   2.134   3.616 -0.5243  0.0490 -0.1422
 3995TIP3    H133476   3.399   2.129   3.582 -0.5200  0.4139 -0.2040
 3995TIP3    H233477   3.481   2.104   3.707 -0.8011  0.6141  0.0206
 3996TIP3   OH233478   3.877   2.945  16.375  0.0108 -0.0530  0.1104
 3996TIP3    H133479   3.811   2.875  16.378  0.0445 -0.0639  1.1851
 3996TIP3    H233480   3.829   3.023  16.348 -0.6475  0.1228  1.6871
 3997TIP3   OH233481   1.197   0.587  12.361 -0.0726  0.2827  0.3542
 3997TIP3    H133482   1.120   0.576  12.305 -0.3116 -0.5569  0.8210
 3997TIP3    H233483   1.172   0.655  12.423  0.6570  2.1414 -1.3031
 3998TIP3   OH233484   1.770   3.307  13.241 -0.1112 -0.1082  0.0622
 3998TIP3    H133485   1.757   3.383  13.185  1.0635 -1.2315 -1.8405
 3998TIP3    H233486   1.864   3.288  13.233  0.4157  0.3734  3.4119
 3999TIP3   OH233487   4.969   1.908  13.179 -0.1120 -0.2561 -0.0346
 3999TIP3    H133488   5.058   1.873  13.180  0.4519  1.1051 -0.6682
 3999TIP3    H233489   4.970   1.977  13.113 -0.6702  2.2257  2.3564
 4000TIP3   OH233490   6.639   0.139  14.851  0.4646 -0.2063  0.1535
 4000TIP3    H133491   6.576   0.205  14.824  1.2065  0.5039  0.1215
 4000TIP3    H233492   6.710   0.188  14.893  0.4886 -1.0805  1.1859
 4001TIP3   OH233493   6.709   6.087   0.690 -0.3980 -0.2262 -0.1116
 4001TIP3    H133494   6.705   6.057   0.781  3.0882  1.6103  0.8299
 4001TIP3    H233495   6.802   6.106   0.676 -0.4527 -2.1238 -4.6990
 4002TIP3   OH233496   0.164   1.723  14.001  0.1359  0.2551  0.7133
 4002TIP3    H133497   0.162   1.639  14.046  0.2972  0.0628  0.3522
 4002TIP3    H233498   0.093   1.718  13.937  1.1243 -0.1943 -0.3831
 4003TIP3   OH233499   6.083   2.729  11.626 -0.2995 -0.1846 -0.0231
 4003TIP3    H133500   6.031   2.668  11.573 -1.4792  0.7140  0.0558
 4003TIP3    H233501   6.080   2.692  11.715 -2.8119  1.0128  0.4784
 4004TIP3   OH233502   2.070   2.677  13.309  0.1205 -0.3140 -0.1487
 4004TIP3    H133503   1.980   2.644  13.306  0.7462 -2.2981  0.7999
 4004TIP3    H233504   2.124   2.600  13.290  1.6299  0.8898 -0.9507
 4005TIP3   OH233505   4.644   1.042  11.034  0.0043 -0.0518 -0.5496
 4005TIP3    H133506   4.626   1.131  11.065  2.3400  0.3854 -0.3171
 4005TIP3    H233507   4.676   1.053  10.945  0.3743 -0.6443 -0.4995
 4006TIP3   OH233508   3.325   1.183   0.684  0.1282 -0.0256  0.0418
 4006TIP3    H133509   3.254   1.247   0.676  1.4224  1.1361 -3.7228
 4006TIP3    H233510   3.283   1.099   0.663 -0.9910 -0.1330  2.3621
 4007TIP3   OH233511   0.957   4.699   1.006 -0.2115  0.1434 -0.1442
 4007TIP3    H133512   0.986   4.753   1.080  0.2121 -1.7879  1.1782
 4007TIP3    H233513   1.031   4.696   0.947 -0.8242  2.3846 -1.1466
 4008TIP3   OH233514   3.505   0.254  17.465 -1.3325  0.2640  0.5465
 4008TIP3    H133515   3.459   0.170  17.459 -1.4860  0.4083 -0.4942
 4008TIP3    H233516   3.580   0.244  17.407 -2.5052  1.5618 -1.2758
 4009TIP3   OH233517   1.061   1.394   5.266 -0.4553  0.0918 -0.7792
 4009TIP3    H133518   1.068   1.413   5.360  0.7822 -2.1680 -0.3325
 4009TIP3    H233519   0.998   1.322   5.261  1.7268 -1.9240 -1.2476
 4010TIP3   OH233520   0.592   2.234  15.890 -0.5095  0.4223 -0.0584
 4010TIP3    H133521   0.556   2.146  15.904  0.5681 -0.1428 -0.6627
 4010TIP3    H233522   0.522   2.282  15.847 -0.9788 -0.2725 -0.0885
 4011TIP3   OH233523   0.942   2.361   4.075  0.4373  0.1636  0.0963
 4011TIP3    H133524   0.906   2.295   4.015 -0.4301  1.2043 -0.5707
 4011TIP3    H233525   0.881   2.434   4.068  2.2146  1.6738 -0.3972
 4012TIP3   OH233526   5.180   3.504  11.329 -0.0151 -0.1567  0.5033
 4012TIP3    H133527   5.118   3.558  11.279  0.5929 -0.0024 -0.0973
 4012TIP3    H233528   5.237   3.466  11.263  0.4428 -0.4184  1.0438
 4013TIP3   OH233529   2.176   3.519  14.477 -0.5948 -0.0835 -0.3901
 4013TIP3    H133530   2.228   3.513  14.557 -0.9520  1.7157  0.0254
 4013TIP3    H233531   2.241   3.522  14.407 -0.1341  1.0550  0.0515
 4014TIP3   OH233532   1.106   1.869  15.211 -0.1671  0.4541  0.5553
 4014TIP3    H133533   1.164   1.795  15.196 -0.2313  0.9410 -3.0554
 4014TIP3    H233534   1.164   1.941  15.238  0.3569 -0.0152  0.6831
 4015TIP3   OH233535   4.818   4.770  16.268 -0.6591 -0.4629  0.1774
 4015TIP3    H133536   4.838   4.829  16.341  0.7191 -0.3993 -0.2166
 4015TIP3    H233537   4.867   4.690  16.287  0.0566 -0.2924 -0.8661
 4016TIP3   OH233538   0.713   0.915  15.389 -0.7227  0.2775 -0.5996
 4016TIP3    H133539   0.618   0.919  15.386 -0.7503  0.9648  0.6347
 4016TIP3    H233540   0.742   0.996  15.347 -0.6848  0.1986 -0.7269
 4017TIP3   OH233541   0.460   4.825   2.632 -0.3663 -0.1417 -0.7778
 4017TIP3    H133542   0.540   4.840   2.582 -0.7096 -0.1988 -1.3473
 4017TIP3    H233543   0.392   4.813   2.566 -0.4446 -2.3918 -0.3606
 4018TIP3   OH233544   3.161   2.723  17.410  0.1317  0.9200  0.0781
 4018TIP3    H133545   3.107   2.667  17.355  1.1102  0.3473 -0.3241
 4018TIP3    H233546   3.119   2.809  17.405  0.7070  1.1144 -2.3094
 4019TIP3   OH233547   1.385   4.551  17.342 -0.5945 -0.0384  0.1802
 4019TIP3    H133548   1.445   4.624  17.355  0.2006 -0.6922  0.2420
 4019TIP3    H233549   1.352   4.563  17.253  0.2468 -0.1100 -0.1491
 4020TIP3   OH233550   3.877   3.187   5.244 -0.3961  0.5244  0.4776
 4020TIP3    H133551   3.955   3.221   5.288 -1.5240  1.2931  2.0096
 4020TIP3    H233552   3.903   3.178   5.153  2.1123 -1.2318  1.2372
 4021TIP3   OH233553   2.190   2.565  14.789 -0.8288 -0.2739 -0.0746
 4021TIP3    H133554   2.231   2.481  14.810 -0.1495  0.0412 -0.1041
 4021TIP3    H233555   2.234   2.628  14.846 -2.1346 -0.0938  0.7805
 4022TIP3   OH233556   5.082   5.234  12.466  0.0271 -0.0492  0.9697
 4022TIP3    H133557   5.082   5.209  12.558  2.1918 -1.2779  0.6954
 4022TIP3    H233558   5.169   5.271  12.451 -0.9910  2.1179 -0.1308
 4023TIP3   OH233559   6.467   3.859   4.093  0.3017 -0.0363  0.2843
 4023TIP3    H133560   6.504   3.773   4.073  1.9306  0.6643  0.0642
 4023TIP3    H233561   6.386   3.863   4.043  0.7698 -1.0279 -0.5837
 4024TIP3   OH233562   4.709   2.291  12.418  0.3718 -0.3197  0.0998
 4024TIP3    H133563   4.629   2.240  12.408 -0.4274  1.0009 -0.5096
 4024TIP3    H233564   4.706   2.324  12.508  0.2173 -0.2513  0.0695
 4025TIP3   OH233565   5.632   3.485  15.160 -0.5205 -0.1344  0.0379
 4025TIP3    H133566   5.575   3.410  15.178 -0.2514 -0.1728  0.7661
 4025TIP3    H233567   5.694   3.486  15.233  1.0064 -0.6565 -1.1906
 4026TIP3   OH233568   1.315   2.255   5.048 -0.0494 -0.0870  0.8994
 4026TIP3    H133569   1.261   2.204   5.108 -1.4432  1.0358  0.6485
 4026TIP3    H233570   1.260   2.269   4.971  0.8023  0.6217  0.3868
 4027TIP3   OH233571   1.967   4.614   0.652  0.1117  0.2325 -0.2201
 4027TIP3    H133572   2.024   4.597   0.726 -0.9033  2.3923  1.1602
 4027TIP3    H233573   1.998   4.697   0.615 -1.1046  0.6207 -0.4398
 4028TIP3   OH233574   0.453   0.797   1.876  0.3771  0.1340  0.4242
 4028TIP3    H133575   0.362   0.817   1.897  0.0740 -1.8401  1.1781
 4028TIP3    H233576   0.449   0.713   1.830  1.6126  1.3416 -2.0950
 4029TIP3   OH233577   4.319   6.333   4.841  0.5628  0.2779  0.2012
 4029TIP3    H133578   4.335   6.371   4.755 -0.4402 -0.0824 -0.1576
 4029TIP3    H233579   4.236   6.372   4.870  0.2855 -0.4965  0.4784
 4030TIP3   OH233580   4.845   4.532  15.167  0.4157 -0.5376 -0.6476
 4030TIP3    H133581   4.880   4.461  15.220  0.6140 -0.7347 -1.0401
 4030TIP3    H233582   4.918   4.559  15.111  0.4719  0.2616 -0.2101
 4031TIP3   OH233583   5.264   1.913  15.555  0.5142 -0.3382 -0.6769
 4031TIP3    H133584   5.226   1.855  15.489 -0.5868 -1.4913  0.8879
 4031TIP3    H233585   5.188   1.944  15.605  1.2035  1.5559 -0.7349
 4032TIP3   OH233586   4.148   2.668   0.115  0.5406  0.4471 -0.2674
 4032TIP3    H133587   4.156   2.674   0.210  0.7804 -1.2190 -0.1435
 4032TIP3    H233588   4.101   2.747   0.089 -1.5363 -0.1104  1.5051
 4033TIP3   OH233589   6.224   3.747   2.348  0.0965 -0.2731 -0.3549
 4033TIP3    H133590   6.220   3.654   2.329  2.0687 -0.2965 -0.8487
 4033TIP3    H233591   6.160   3.786   2.289 -0.4775 -1.2626 -0.4074
 4034TIP3   OH233592   4.535   5.376   6.220  0.2760 -0.6270  0.0680
 4034TIP3    H133593   4.618   5.361   6.175  0.5270 -1.8481  0.8797
 4034TIP3    H233594   4.470   5.331   6.165 -0.1186  1.5007 -1.3211
 4035TIP3   OH233595   2.167   0.198  11.503  0.2471  0.0421 -0.2263
 4035TIP3    H133596   2.192   0.111  11.471  0.7707 -0.6057  1.8270
 4035TIP3    H233597   2.113   0.234  11.433  2.1678 -0.8505 -2.3000
 4036TIP3   OH233598   1.232   0.609   2.295  0.4161 -0.3289 -0.3978
 4036TIP3    H133599   1.216   0.537   2.355  0.1140 -0.6857 -0.9061
 4036TIP3    H233600   1.299   0.577   2.235 -1.2609 -1.0050 -1.9937
 4037TIP3   OH233601   5.224   5.919   3.834 -0.2312 -0.3630  0.1876
 4037TIP3    H133602   5.265   5.883   3.913  0.8374  0.9189  0.2609
 4037TIP3    H233603   5.258   6.009   3.829 -1.5423  0.0976 -0.8541
 4038TIP3   OH233604   2.125   6.466   6.896  0.6481 -0.2096 -0.3606
 4038TIP3    H133605   2.066   6.538   6.878 -1.6113 -2.1768 -1.4146
 4038TIP3    H233606   2.198   6.478   6.836  1.1958  2.0411  0.6594
 4039TIP3   OH233607   0.520   4.268  11.928  0.2614 -0.1404 -0.4376
 4039TIP3    H133608   0.479   4.183  11.939 -0.6869  0.3206 -0.2710
 4039TIP3    H233609   0.547   4.294  12.016 -1.4379  0.6792 -0.1228
 4040TIP3   OH233610   2.599   4.454  16.988 -0.1954 -0.0948  0.7123
 4040TIP3    H133611   2.613   4.548  16.995  0.0015 -0.0871  0.2614
 4040TIP3    H233612   2.628   4.432  16.900 -0.7966 -0.4802  0.6040
 4041TIP3   OH233613   2.493   3.938  15.601  0.5229 -0.5426 -0.0741
 4041TIP3    H133614   2.457   4.001  15.540  0.3154  0.6877  1.2798
 4041TIP3    H233615   2.461   3.965  15.687  2.8248 -0.6908  0.9202
 4042TIP3   OH233616   1.504   0.840   0.294  0.5777 -0.0920 -0.1760
 4042TIP3    H133617   1.463   0.911   0.343  1.5900 -0.2570  0.9401
 4042TIP3    H233618   1.450   0.764   0.313  0.4552  0.0285 -0.0396
 4043TIP3   OH233619   3.681   3.161  15.809  0.0827 -0.0464 -0.6339
 4043TIP3    H133620   3.708   3.129  15.723  0.7057 -0.4084 -0.3147
 4043TIP3    H233621   3.625   3.237  15.790 -1.0812 -1.0558 -1.3915
 4044TIP3   OH233622   3.256   1.074   3.363  0.4200  0.2642  0.8530
 4044TIP3    H133623   3.203   1.153   3.362  1.1913  0.8004  1.2776
 4044TIP3    H233624   3.209   1.014   3.421 -1.1199 -0.3059 -0.8660
 4045TIP3   OH233625   5.139   1.188  12.202  0.7775 -0.4190 -0.4825
 4045TIP3    H133626   5.219   1.218  12.245  0.7599  0.2809 -0.9205
 4045TIP3    H233627   5.086   1.266  12.192 -0.8986 -1.1970  1.6663
 4046TIP3   OH233628   6.175   0.031  16.369 -0.2269 -0.0344  0.2544
 4046TIP3    H133629   6.198   0.124  16.372 -0.4500  0.0928 -1.2601
 4046TIP3    H233630   6.103   0.026  16.306  1.5080 -1.5187 -1.7732
 4047TIP3   OH233631   5.859   6.762  13.294  0.2431  0.0337  0.5015
 4047TIP3    H133632   5.932   6.823  13.306 -0.9382  1.5986  0.0164
 4047TIP3    H233633   5.804   6.803  13.227 -0.2428 -1.9268 -0.3590
 4048TIP3   OH233634   2.819   0.071  17.524  0.0541  0.2462 -0.1060
 4048TIP3    H133635   2.889   0.136  17.521  0.4312 -0.1750 -0.7520
 4048TIP3    H233636   2.816   0.035  17.436 -0.3967 -0.3506  0.1435
 4049TIP3   OH233637   1.474   5.315   4.373 -0.4927 -0.5085 -0.2783
 4049TIP3    H133638   1.506   5.399   4.405 -2.4812  1.4411 -2.9517
 4049TIP3    H233639   1.546   5.280   4.321  0.0822 -0.0940  0.2180
 4050TIP3   OH233640   4.185   6.404   3.021 -0.3858  0.3627 -0.0568
 4050TIP3    H133641   4.217   6.435   2.936  1.9235 -0.4554  0.4607
 4050TIP3    H233642   4.238   6.327   3.040 -0.8359  0.5536  2.1751
 4051TIP3   OH233643   0.292   4.744  15.004 -0.2103  0.2315 -0.8162
 4051TIP3    H133644   0.360   4.696  14.956  0.4489 -0.4780  0.7670
 4051TIP3    H233645   0.341   4.799  15.065 -0.9985  2.1614 -1.8429
 4052TIP3   OH233646   6.583   6.448   0.676  0.0834  0.7846 -0.0271
 4052TIP3    H133647   6.535   6.527   0.699 -0.2372  0.0985  1.8304
 4052TIP3    H233648   6.556   6.383   0.741 -0.6566 -1.2810 -2.2580
 4053TIP3   OH233649   0.601   0.077   0.831  0.1359 -0.3082  0.0472
 4053TIP3    H133650   0.581   0.167   0.804  0.4103 -0.3089 -0.1602
 4053TIP3    H233651   0.528   0.053   0.888 -0.0541 -0.0327 -0.0744
 4054TIP3   OH233652   6.385   0.855   5.301  0.3316  0.1331 -0.3345
 4054TIP3    H133653   6.347   0.782   5.251  0.5197  0.3735 -0.8400
 4054TIP3    H233654   6.313   0.916   5.313 -0.1700 -0.7139  1.2393
 4055TIP3   OH233655   6.311   5.970   1.738  0.2606  0.3757 -0.3216
 4055TIP3    H133656   6.359   6.051   1.757  0.4070  0.6769 -1.8573
 4055TIP3    H233657   6.334   5.911   1.810  0.5497  1.5242  0.5521
 4056TIP3   OH233658   0.899   3.945  11.471 -0.0131 -0.2092  0.0891
 4056TIP3    H133659   0.963   3.983  11.410  0.8506  0.5084  1.4089
 4056TIP3    H233660   0.941   3.950  11.556 -0.9916 -1.6905  0.6913
 4057TIP3   OH233661   5.117   6.699  12.444 -0.1699  0.3180  0.0575
 4057TIP3    H133662   5.192   6.760  12.445 -0.2780  0.6254 -2.5838
 4057TIP3    H233663   5.136   6.637  12.514  0.7318  2.4532  1.8358
 4058TIP3   OH233664   0.585   1.755   1.808 -0.8019 -0.0519  0.0160
 4058TIP3    H133665   0.646   1.737   1.880 -1.3215  0.6909  0.6682
 4058TIP3    H233666   0.609   1.843   1.779  0.1828 -0.7869 -1.5510
 4059TIP3   OH233667   1.036   0.738   3.873 -0.1173 -0.6028 -0.4730
 4059TIP3    H133668   0.981   0.676   3.827 -1.9203 -0.9967  1.9979
 4059TIP3    H233669   0.976   0.803   3.908  0.8734 -1.0707  2.3836
 4060TIP3   OH233670   3.813   3.256  12.342  0.3092 -0.4209 -0.0078
 4060TIP3    H133671   3.871   3.209  12.402 -0.2533  0.4051  1.2147
 4060TIP3    H233672   3.781   3.188  12.282  0.3405 -1.4158  1.0688
 4061TIP3   OH233673   2.691   1.806   3.431 -0.6957  0.0057 -0.1553
 4061TIP3    H133674   2.729   1.718   3.426 -1.2146 -0.3391  1.3462
 4061TIP3    H233675   2.622   1.798   3.497 -0.0697  1.7869  0.7697
 4062TIP3   OH233676   4.333   3.848   0.182 -0.1683  0.0100  0.0586
 4062TIP3    H133677   4.347   3.880   0.093  0.0314  2.1577  0.8002
 4062TIP3    H233678   4.239   3.832   0.188 -0.0376 -1.2521 -0.8422
 4063TIP3   OH233679   4.569   0.026  15.201 -0.3885 -0.0472 -0.4972
 4063TIP3    H133680   4.531  -0.054  15.237 -2.2509  1.3479  0.8901
 4063TIP3    H233681   4.660   0.005  15.185 -0.6561 -2.2266  0.4969
 4064TIP3   OH233682   4.689   3.373  12.416 -0.1771  0.0332 -0.4096
 4064TIP3    H133683   4.751   3.304  12.441 -1.4603 -0.6325  1.1555
 4064TIP3    H233684   4.705   3.444  12.478 -2.5136 -1.1157  1.7332
 4065TIP3   OH233685   2.317   4.593  13.328  0.7515  0.0655 -0.1235
 4065TIP3    H133686   2.288   4.524  13.389  0.8123  0.6730  0.6047
 4065TIP3    H233687   2.257   4.665  13.343  0.6811  0.1714 -0.8996
 4066TIP3   OH233688   4.475   5.947   4.433 -0.2196 -0.6379  0.4699
 4066TIP3    H133689   4.384   5.941   4.406 -0.4517  0.6249  0.9155
 4066TIP3    H233690   4.479   5.901   4.517 -0.8742  0.8757  1.3724
 4067TIP3   OH233691   0.086   0.414   4.632 -0.0861  0.3199 -0.3444
 4067TIP3    H133692   0.082   0.510   4.635 -1.1896  0.3779 -2.1678
 4067TIP3    H233693   0.013   0.385   4.687 -0.3432  0.5398 -0.5729
 4068TIP3   OH233694   4.371   5.071   1.134 -0.5032 -0.3894 -0.5282
 4068TIP3    H133695   4.386   5.134   1.204  0.3386  1.0621 -1.9363
 4068TIP3    H233696   4.364   4.986   1.178  2.4362  0.1182  1.1406
 4069TIP3   OH233697   2.369   6.105  11.108 -0.4087 -0.4328 -0.5696
 4069TIP3    H133698   2.444   6.088  11.052 -0.4243 -1.6764 -0.2654
 4069TIP3    H233699   2.407   6.134  11.191 -0.0815 -2.9035  0.2426
 4070TIP3   OH233700   5.879   0.680  17.279 -0.3595  0.2456  0.6496
 4070TIP3    H133701   5.788   0.665  17.303 -0.1096 -2.2218  0.3292
 4070TIP3    H233702   5.930   0.648  17.353  0.2719 -0.1278  0.0656
 4071TIP3   OH233703   2.103   4.682  14.658  0.3544 -0.0865 -0.1599
 4071TIP3    H133704   2.141   4.749  14.715  1.3863 -0.1206 -0.7912
 4071TIP3    H233705   2.018   4.718  14.632  0.2488  0.3072  0.6975
 4072TIP3   OH233706   1.679   4.802   0.313  0.2191 -0.0742 -0.1557
 4072TIP3    H133707   1.762   4.812   0.361  1.2572 -1.8159 -1.4604
 4072TIP3    H233708   1.695   4.844   0.229 -0.6638  0.6152  0.0048
 4073TIP3   OH233709   3.127   3.986  11.885 -0.2579 -0.0685  0.5537
 4073TIP3    H133710   3.124   4.082  11.886 -0.4962 -0.0636 -0.4511
 4073TIP3    H233711   3.184   3.964  11.959  0.6119  0.8752  0.1839
 4074TIP3   OH233712   2.443   4.824   6.206  0.2232 -1.0933 -0.4396
 4074TIP3    H133713   2.388   4.894   6.173  0.1490 -0.5184  0.8384
 4074TIP3    H233714   2.517   4.820   6.146  0.5122  0.4710 -0.2107
 4075TIP3   OH233715   2.271   5.950  16.114 -0.1359  0.2831  0.3331
 4075TIP3    H133716   2.246   5.983  16.200 -0.2967 -0.5902  0.6326
 4075TIP3    H233717   2.195   5.967  16.058 -0.1836  0.4948  0.4634
 4076TIP3   OH233718   1.404   1.043   1.326 -0.3223  0.5185  0.4117
 4076TIP3    H133719   1.416   1.037   1.232  0.9323 -0.3801  0.6040
 4076TIP3    H233720   1.409   1.136   1.346  2.6735  0.5298 -0.0482
 4077TIP3   OH233721   4.678   1.390   4.481 -0.0266  0.0619 -0.1376
 4077TIP3    H133722   4.727   1.317   4.519  0.1372  0.6328  0.7851
 4077TIP3    H233723   4.616   1.416   4.550  0.5238  1.3609 -0.1074
 4078TIP3   OH233724   3.091   0.707   3.233 -0.2935 -0.4787 -0.4652
 4078TIP3    H133725   3.037   0.735   3.160  0.6518 -1.1349 -1.4554
 4078TIP3    H233726   3.181   0.728   3.206  0.0955 -0.9609  0.3978
 4079TIP3   OH233727   6.721   3.693   2.235 -0.2020 -0.2353  0.0485
 4079TIP3    H133728   6.732   3.641   2.156  1.7885  0.3283 -0.1052
 4079TIP3    H233729   6.659   3.761   2.210 -1.0598 -1.1633 -0.4286
 4080TIP3   OH233730   2.311   2.483   2.956 -0.2713 -0.2748  0.4966
 4080TIP3    H133731   2.310   2.478   2.860 -1.8939 -1.4802  0.5441
 4080TIP3    H233732   2.380   2.546   2.976  1.6324 -1.5993 -1.3992
 4081TIP3   OH233733   2.068   3.604  13.176  0.7116  0.3345  0.0513
 4081TIP3    H133734   2.157   3.619  13.143  1.1128  0.4594  1.1484
 4081TIP3    H233735   2.045   3.516  13.146  1.8196 -0.3209  1.0550
 4082TIP3   OH233736   3.713   4.657   5.708  0.0795  0.2886  0.4040
 4082TIP3    H133737   3.620   4.646   5.730  0.0640  0.8384  0.6255
 4082TIP3    H233738   3.715   4.654   5.612 -0.3887  1.8009  0.3176
 4083TIP3   OH233739   0.375   5.903   4.347  0.8825  0.4521  0.7409
 4083TIP3    H133740   0.429   5.833   4.310  0.8185  0.7735  0.0234
 4083TIP3    H233741   0.429   5.981   4.340  0.4582  0.7135  0.3297
 4084TIP3   OH233742   5.997   6.553   2.468 -0.1518  0.0384  0.2457
 4084TIP3    H133743   5.982   6.524   2.378  0.7593 -0.1186  0.1368
 4084TIP3    H233744   6.064   6.494   2.502  1.2485  1.5513  0.2370
 4085TIP3   OH233745   4.121   5.160  14.338  0.0065  0.6647 -0.3767
 4085TIP3    H133746   4.086   5.192  14.421 -3.0267  0.3699 -1.4321
 4085TIP3    H233747   4.046   5.158  14.279  2.0698  1.0078 -3.2247
 4086TIP3   OH233748   3.817   1.019   5.376  0.6694  0.2472  0.0288
 4086TIP3    H133749   3.854   1.014   5.288  2.8873  1.9148  0.7736
 4086TIP3    H233750   3.867   0.957   5.428 -0.1346 -0.1956  0.2952
 4087TIP3   OH233751   4.599   6.207   5.693 -0.6656  0.4783  0.2920
 4087TIP3    H133752   4.667   6.143   5.712 -0.2680  0.6552 -0.4768
 4087TIP3    H233753   4.606   6.272   5.763 -0.3660  0.2441  0.4803
 4088TIP3   OH233754   3.629   6.031  13.544 -0.1925  0.1592  0.0969
 4088TIP3    H133755   3.618   6.036  13.449  0.9425 -0.3409 -0.0703
 4088TIP3    H233756   3.540   6.045  13.578 -0.6483  0.1753 -1.0341
 4089TIP3   OH233757   2.002   3.904   5.816 -0.0683 -0.3024  0.3694
 4089TIP3    H133758   1.984   3.997   5.797  0.1525 -0.4869 -0.8199
 4089TIP3    H233759   1.915   3.866   5.830 -0.4149 -0.4396 -1.7724
 4090TIP3   OH233760   4.188   6.042  16.029 -0.0472  0.0211 -0.6604
 4090TIP3    H133761   4.165   5.951  16.049  1.1731 -0.0308  0.6802
 4090TIP3    H233762   4.104   6.084  16.011 -0.8938 -0.8726  0.9509
 4091TIP3   OH233763   5.437   4.793   1.316 -0.9603  0.0058  0.5386
 4091TIP3    H133764   5.475   4.821   1.233 -1.8639 -0.8519 -0.1786
 4091TIP3    H233765   5.347   4.825   1.314 -2.3160 -3.4302 -0.6856
 4092TIP3   OH233766   3.874   1.604  12.458  0.2705 -0.2318 -0.4459
 4092TIP3    H133767   3.916   1.541  12.517  0.1101 -0.1091 -0.1993
 4092TIP3    H233768   3.873   1.560  12.373  0.5823 -0.3770 -0.3787
 4093TIP3   OH233769   2.723   2.096   4.156  0.1758 -0.4884 -0.2621
 4093TIP3    H133770   2.724   2.017   4.103  0.7996 -2.0242  1.9145
 4093TIP3    H233771   2.779   2.158   4.109  1.1328 -1.9632 -1.1219
 4094TIP3   OH233772   1.956   5.029   3.657  0.3298 -0.2120 -0.1613
 4094TIP3    H133773   1.921   5.117   3.644 -0.7305 -0.5313  0.4045
 4094TIP3    H233774   2.015   5.016   3.583  1.3562  1.3717  0.3337
 4095TIP3   OH233775   4.500   6.663  15.905  0.1170  0.5953 -0.1547
 4095TIP3    H133776   4.541   6.621  15.981 -0.0797 -0.9041 -0.8460
 4095TIP3    H233777   4.507   6.599  15.835 -1.2845  1.2467 -0.9388
 4096TIP3   OH233778   2.191   1.939   3.686 -0.1245  0.6261 -0.3116
 4096TIP3    H133779   2.155   2.013   3.638  0.3390 -1.0844 -3.5581
 4096TIP3    H233780   2.286   1.955   3.686 -0.0410  0.1550 -0.8584
 4097TIP3   OH233781   5.965   1.479   1.414 -0.0620  0.2894  0.3105
 4097TIP3    H133782   5.951   1.449   1.323  0.1327 -0.3757  0.4952
 4097TIP3    H233783   6.036   1.542   1.407 -0.9419  1.2532 -0.1867
 4098TIP3   OH233784   2.283   4.942   5.501 -0.1189  0.5054  0.0839
 4098TIP3    H133785   2.326   4.978   5.423  1.0138 -1.5027 -0.2660
 4098TIP3    H233786   2.264   4.851   5.478 -1.0266  0.2744  1.6654
 4099TIP3   OH233787   2.351   4.991  16.459  0.0406 -0.1000  0.2444
 4099TIP3    H133788   2.395   4.975  16.376 -0.6133  1.9537 -0.5558
 4099TIP3    H233789   2.383   5.077  16.487 -2.4717  0.8936  0.2523
 4100TIP3   OH233790   1.652   1.478   4.346 -0.0922  0.4021 -0.4671
 4100TIP3    H133791   1.656   1.425   4.266 -0.0063  0.5010 -0.5302
 4100TIP3    H233792   1.671   1.417   4.417  0.2482  0.3935 -0.5597
 4101TIP3   OH233793   2.191   0.638   0.267 -0.1316 -0.7974 -0.7826
 4101TIP3    H133794   2.269   0.587   0.243  0.9885  0.9999 -1.1949
 4101TIP3    H233795   2.196   0.715   0.210 -0.7380  0.6527  1.0632
 4102TIP3   OH233796   3.207   1.601   6.082 -0.4492 -0.1096 -0.3092
 4102TIP3    H133797   3.152   1.678   6.069 -0.1090  0.0688 -0.6861
 4102TIP3    H233798   3.147   1.527   6.071 -0.5721  0.0783 -0.9399
 4103TIP3   OH233799   3.597   6.085  11.704  0.0741 -0.5486  0.1922
 4103TIP3    H133800   3.611   6.074  11.798  0.0476  0.0320  0.2675
 4103TIP3    H233801   3.538   6.160  11.697  1.9834  0.9719 -0.3774
 4104TIP3   OH233802   1.532   0.525   5.369  0.4796 -0.8357  0.4891
 4104TIP3    H133803   1.553   0.618   5.358  2.1587 -1.3289 -0.7818
 4104TIP3    H233804   1.444   0.525   5.408  1.0922  1.2876  2.0268
 4105TIP3   OH233805   0.455   4.049   5.347  0.2125 -0.2362  0.3237
 4105TIP3    H133806   0.487   4.045   5.437 -0.2665  1.6776  0.6353
 4105TIP3    H233807   0.408   4.133   5.342 -1.3766 -1.1390 -1.1892
 4106TIP3   OH233808   5.472   2.553  16.818 -0.5199  0.5346  0.0238
 4106TIP3    H133809   5.478   2.571  16.912  0.9059 -0.5754  0.1727
 4106TIP3    H233810   5.454   2.460  16.811  1.1267  0.2248 -0.7833
 4107TIP3   OH233811   2.955   2.555  13.420 -0.0093 -0.5627 -0.0721
 4107TIP3    H133812   2.974   2.494  13.491  1.5906 -1.0168 -0.8336
 4107TIP3    H233813   3.036   2.607  13.411 -0.5216  0.1216 -0.9342
 4108TIP3   OH233814   2.665   5.097  17.468 -0.6718 -0.3040  0.5410
 4108TIP3    H133815   2.696   5.020  17.515 -0.1423  0.2922  1.1786
 4108TIP3    H233816   2.619   5.149  17.533  1.5217  1.3604  0.8719
 4109TIP3   OH233817   4.279   4.803   3.514 -0.4067 -0.9587  0.0025
 4109TIP3    H133818   4.316   4.842   3.434 -0.1505 -1.7725 -0.2891
 4109TIP3    H233819   4.218   4.736   3.482 -0.6900 -0.9418  0.4932
 4110TIP3   OH233820   2.068   2.615  14.444 -0.4822 -1.0306 -0.3929
 4110TIP3    H133821   2.143   2.661  14.482 -1.1331  0.4646 -0.8582
 4110TIP3    H233822   2.020   2.682  14.396 -2.9854 -1.5672  1.1387
 4111TIP3   OH233823   4.214   4.945   2.316  0.2477 -0.4567 -0.1353
 4111TIP3    H133824   4.276   4.914   2.250  0.1578 -1.7530  0.3672
 4111TIP3    H233825   4.267   4.999   2.375  0.7506 -0.9635 -0.1187
 4112TIP3   OH233826   5.073   3.098   4.050 -0.0929 -0.2180 -0.2006
 4112TIP3    H133827   4.987   3.077   4.086 -0.1833  2.2470  1.2644
 4112TIP3    H233828   5.054   3.140   3.967 -0.3142  0.2810  0.0988
 4113TIP3   OH233829   5.748   3.727   0.798 -0.4122 -0.0707 -0.1520
 4113TIP3    H133830   5.750   3.818   0.767 -0.7250  0.0979  0.3037
 4113TIP3    H233831   5.838   3.708   0.823  0.3539 -0.9420 -3.1665
 4114TIP3   OH233832   3.270   0.175  14.287  0.3656 -0.6617 -0.4506
 4114TIP3    H133833   3.211   0.234  14.240  0.2142 -0.3351  0.1328
 4114TIP3    H233834   3.271   0.095  14.235  0.5538 -0.1539 -1.2463
 4115TIP3   OH233835   5.087   2.517  17.135 -0.3699  0.1279 -0.1295
 4115TIP3    H133836   5.114   2.463  17.209 -0.8580  0.5351  0.3509
 4115TIP3    H233837   5.157   2.583  17.127  0.3042 -0.6563 -0.8156
 4116TIP3   OH233838   0.600   5.120  16.410  0.1656  0.0239 -0.5998
 4116TIP3    H133839   0.675   5.179  16.405 -0.1362  0.2978 -2.1267
 4116TIP3    H233840   0.569   5.111  16.320 -0.2048 -1.9548 -0.3254
 4117TIP3   OH233841   6.723   0.400  16.671  0.2517 -0.1650 -0.1827
 4117TIP3    H133842   6.727   0.489  16.707 -2.7429  0.1659 -0.4376
 4117TIP3    H233843   6.763   0.408  16.584 -0.3439  1.0566 -0.3675
 4118TIP3   OH233844   3.307   4.661  16.023 -0.1311 -0.0078  0.1540
 4118TIP3    H133845   3.329   4.693  16.111 -0.1381 -0.8901  0.4935
 4118TIP3    H233846   3.336   4.730  15.964 -0.2015  0.6408  0.8584
 4119TIP3   OH233847   5.636   3.377   3.243  0.0782  0.3957  0.1248
 4119TIP3    H133848   5.597   3.463   3.258  1.4465  0.9796  0.5146
 4119TIP3    H233849   5.716   3.377   3.295  1.0898 -0.3858 -1.3284
 4120TIP3   OH233850   3.959   4.515   4.920  0.9544  0.2919  0.0202
 4120TIP3    H133851   3.967   4.423   4.897  2.1931  0.2251  0.6410
 4120TIP3    H233852   4.041   4.536   4.966  1.8533  2.3196 -2.2528
 4121TIP3   OH233853   4.520   0.207  13.050  0.3442 -0.4445 -0.1477
 4121TIP3    H133854   4.609   0.177  13.069  0.0168 -0.1626  2.0695
 4121TIP3    H233855   4.491   0.249  13.131 -1.5937  0.0151 -1.0298
 4122TIP3   OH233856   0.604   2.082   4.516 -0.4159  0.0626  0.0268
 4122TIP3    H133857   0.557   2.156   4.553  1.3884  0.1512  2.3274
 4122TIP3    H233858   0.687   2.119   4.485 -0.0291 -0.7853  0.0122
 4123TIP3   OH233859   0.363   4.252   2.505 -0.1694 -0.1393  0.4793
 4123TIP3    H133860   0.349   4.343   2.481 -2.1148 -0.4173  0.4013
 4123TIP3    H233861   0.328   4.202   2.432  1.2898 -0.9792  0.3089
 4124TIP3   OH233862   0.620   4.860   4.389 -0.0068 -0.0887  0.0689
 4124TIP3    H133863   0.682   4.809   4.338  1.0946  1.7282 -0.4983
 4124TIP3    H233864   0.562   4.899   4.324 -0.1278  0.2714  0.3897
 4125TIP3   OH233865   4.157   5.715   2.353 -0.2311  0.3811 -0.0524
 4125TIP3    H133866   4.185   5.659   2.281  1.1352 -0.8836  1.3805
 4125TIP3    H233867   4.124   5.655   2.419 -1.9940  1.5581  0.1957
 4126TIP3   OH233868   5.008   5.163   4.651 -0.2169 -0.1619  0.4150
 4126TIP3    H133869   5.053   5.177   4.734  0.5895 -0.3351  0.0175
 4126TIP3    H233870   4.987   5.069   4.650 -1.5234  0.0973  1.0479
 4127TIP3   OH233871   5.433   5.241  13.043 -0.0639 -0.1435 -0.2771
 4127TIP3    H133872   5.455   5.278  13.129  1.2456 -2.5032  0.4768
 4127TIP3    H233873   5.451   5.312  12.982  1.0153  0.9252  1.2089
 4128TIP3   OH233874   0.980   5.410   4.635  0.9799  0.0940  0.1567
 4128TIP3    H133875   1.027   5.471   4.578  1.3661  1.3616  1.7597
 4128TIP3    H233876   0.998   5.442   4.724 -1.4556 -0.4399  0.9054
 4129TIP3   OH233877   0.412   3.842  16.338 -0.0664 -0.8132 -0.3153
 4129TIP3    H133878   0.446   3.752  16.334 -1.3681 -1.3416  0.0107
 4129TIP3    H233879   0.483   3.893  16.376  0.6726 -1.7158 -0.4536
 4130TIP3   OH233880   2.389   2.400   2.127  1.0342  0.0111 -0.0566
 4130TIP3    H133881   2.423   2.311   2.118  0.2152 -0.5532  1.8621
 4130TIP3    H233882   2.303   2.397   2.085  0.1940 -0.6816  1.6040
 4131TIP3   OH233883   3.187   3.743   0.843  0.2826  0.8768 -0.0338
 4131TIP3    H133884   3.200   3.667   0.899 -0.7633  1.2085  0.6978
 4131TIP3    H233885   3.093   3.744   0.826  0.7076  0.0347 -2.9320
 4132TIP3   OH233886   3.649   5.896   4.829 -0.4810  0.0023 -0.4116
 4132TIP3    H133887   3.666   5.801   4.828 -0.6401 -0.0302 -0.2013
 4132TIP3    H233888   3.697   5.930   4.753  0.9941 -0.0126  0.4588
 4133TIP3   OH233889   0.062   1.475   2.823  0.3275  0.1917 -0.1811
 4133TIP3    H133890   0.041   1.382   2.819  2.5556 -0.3240 -1.7777
 4133TIP3    H233891  -0.009   1.518   2.775  1.6455 -1.2592 -3.7573
 4134TIP3   OH233892   3.231   2.275   5.158  0.3837 -0.6866 -0.2375
 4134TIP3    H133893   3.136   2.282   5.154  0.3338 -1.7238 -1.4099
 4134TIP3    H233894   3.254   2.310   5.244 -0.8505  1.4970 -0.7309
 4135TIP3   OH233895   5.239   1.728  15.179  0.4736 -0.1767 -0.0428
 4135TIP3    H133896   5.158   1.754  15.135 -0.5822 -0.4033  1.6728
 4135TIP3    H233897   5.210   1.687  15.260  2.3309 -0.1306  0.6920
 4136TIP3   OH233898   5.233   5.693   5.787 -0.2885 -0.3712  0.0209
 4136TIP3    H133899   5.204   5.688   5.696 -1.6693 -1.4758  0.4853
 4136TIP3    H233900   5.191   5.619   5.830  1.2463 -0.5402  1.3328
 4137TIP3   OH233901   0.099   4.544   1.293  0.3671 -0.0460  0.5986
 4137TIP3    H133902   0.133   4.463   1.331  1.6292  0.6061  0.9161
 4137TIP3    H233903   0.159   4.612   1.325 -0.8558  1.0589  0.6067
 4138TIP3   OH233904   0.466   6.361   0.293  0.3523 -0.4096 -0.0240
 4138TIP3    H133905   0.418   6.391   0.216  0.4825  2.0379  0.7784
 4138TIP3    H233906   0.399   6.353   0.361 -0.0893 -4.2495 -0.6531
 4139TIP3   OH233907   5.394   2.139  12.498 -0.0198  0.3052 -0.2269
 4139TIP3    H133908   5.351   2.068  12.545  2.9564 -1.3791  0.1299
 4139TIP3    H233909   5.405   2.106  12.409 -0.0271  0.9757 -0.4815
 4140TIP3   OH233910   2.997   2.935   1.853 -0.4815 -0.0934  0.4108
 4140TIP3    H133911   2.915   2.937   1.804  0.0638  1.0190 -0.4970
 4140TIP3    H233912   3.045   2.859   1.818 -0.7457 -0.2198  0.3245
 4141TIP3   OH233913   0.422   6.597  10.621 -0.1286  0.8196  0.1356
 4141TIP3    H133914   0.339   6.574  10.580  0.1852  2.6010 -1.6717
 4141TIP3    H233915   0.399   6.622  10.710 -1.4365  0.7182 -0.1543
 4142TIP3   OH233916   1.312   1.608   5.750  0.0114 -0.2249 -0.2753
 4142TIP3    H133917   1.397   1.645   5.773  0.4909 -1.0637 -0.6538
 4142TIP3    H233918   1.291   1.647   5.665  0.2310 -0.3508 -0.3892
 4143TIP3   OH233919   2.005   3.078  12.265 -0.1101 -0.0057 -0.1106
 4143TIP3    H133920   2.059   3.110  12.337  0.7738 -0.6655 -0.4621
 4143TIP3    H233921   1.969   3.157  12.224  0.2131  0.4138  0.4163
 4144TIP3   OH233922   4.101   1.655   5.240 -0.3444 -0.0143 -0.3024
 4144TIP3    H133923   4.194   1.637   5.228  0.1467  0.5210  2.2515
 4144TIP3    H233924   4.059   1.569   5.232  0.5797 -0.5215  0.1584
 4145TIP3   OH233925   6.632   1.574   1.223 -0.0734 -0.1226 -0.3539
 4145TIP3    H133926   6.614   1.526   1.143  1.7744 -0.4257 -0.6293
 4145TIP3    H233927   6.707   1.630   1.202 -0.2727  0.6415  0.8342
 4146TIP3   OH233928   2.168   1.515  14.899 -0.1162 -0.4019  0.0845
 4146TIP3    H133929   2.091   1.531  14.845 -0.7875  0.6116  1.2855
 4146TIP3    H233930   2.238   1.564  14.857 -0.7487  0.7960  0.3784
 4147TIP3   OH233931   4.057   1.035   3.669 -0.4919  0.0814  0.1907
 4147TIP3    H133932   3.995   1.084   3.724 -0.5233  1.3265 -0.8906
 4147TIP3    H233933   4.024   0.945   3.671 -1.4343  0.4130  0.8855
 4148TIP3   OH233934   0.999   2.889  13.190  0.1545 -0.8224  0.2399
 4148TIP3    H133935   0.997   2.812  13.247 -0.2132 -1.5834 -0.7818
 4148TIP3    H233936   0.940   2.867  13.118  0.9681 -0.0631 -0.6786
 4149TIP3   OH233937   2.446   3.887  16.612 -0.2506  0.0123 -0.1141
 4149TIP3    H133938   2.464   3.826  16.683 -3.3549 -0.3633  0.5146
 4149TIP3    H233939   2.439   3.831  16.534  0.2679  0.0436 -0.1872
 4150TIP3   OH233940   2.608   2.788  14.036  0.2093  0.3693 -0.0630
 4150TIP3    H133941   2.579   2.859  13.980  0.2943  0.0041 -0.5761
 4150TIP3    H233942   2.569   2.709  13.998  0.4938  0.0829  0.2257
 4151TIP3   OH233943   3.229   4.662  16.898 -0.3988 -0.0356  0.1774
 4151TIP3    H133944   3.254   4.749  16.929 -0.4821  0.2258 -0.4769
 4151TIP3    H233945   3.309   4.625  16.862 -0.4052 -0.1559  0.2882
 4152TIP3   OH233946   2.970   6.000   2.257  0.6579 -0.3973  0.1753
 4152TIP3    H133947   2.921   6.064   2.310 -0.9840 -0.1884 -1.5054
 4152TIP3    H233948   3.042   5.973   2.314  0.2976  1.5102  1.6630
 4153TIP3   OH233949   5.504   6.246  12.908  0.3232  0.0661 -0.7538
 4153TIP3    H133950   5.461   6.266  12.992  1.0152  2.2075 -0.8493
 4153TIP3    H233951   5.445   6.282  12.842  1.7946  2.4555 -0.9109
 4154TIP3   OH233952   3.366   3.365   2.438  0.2956  0.4179  0.4694
 4154TIP3    H133953   3.454   3.329   2.430  0.9269  2.1555 -0.9787
 4154TIP3    H233954   3.347   3.362   2.532  0.4669 -3.0873  0.5286
 4155TIP3   OH233955   1.076   1.230  15.837  0.3467  0.0384  0.3198
 4155TIP3    H133956   1.039   1.150  15.800  2.1490 -1.4576  1.5909
 4155TIP3    H233957   1.171   1.218  15.831  0.6650  1.9297  0.8862
 4156TIP3   OH233958   5.121   2.353  13.283 -0.1472  0.3480 -0.3710
 4156TIP3    H133959   5.083   2.359  13.371  1.8427  0.8897  0.4983
 4156TIP3    H233960   5.172   2.273  13.283 -1.6893 -0.7152 -1.7485
 4157TIP3   OH233961   2.381   6.659   6.107  0.0281  0.0135 -0.0717
 4157TIP3    H133962   2.337   6.679   6.190 -1.1882  0.5617 -0.8108
 4157TIP3    H233963   2.352   6.729   6.047 -0.8742 -1.5263 -1.5466
 4158TIP3   OH233964   6.010   3.741  11.800  0.3402  0.0162  0.1193
 4158TIP3    H133965   6.081   3.804  11.807 -0.8618  1.2880  1.6340
 4158TIP3    H233966   6.022   3.683  11.875  0.2556 -0.2907 -0.1013
 4159TIP3   OH233967   2.579   5.092   3.087 -0.0690 -0.0366 -0.3721
 4159TIP3    H133968   2.504   5.125   3.039  0.4257  2.3644  0.3843
 4159TIP3    H233969   2.650   5.090   3.022 -0.2237 -0.0646 -0.5391
 4160TIP3   OH233970   1.269   1.668  16.056  0.2124 -0.0556  0.1116
 4160TIP3    H133971   1.306   1.755  16.039  2.4631 -0.9688 -0.0214
 4160TIP3    H233972   1.182   1.671  16.017  0.7286  1.7189 -1.0417
 4161TIP3   OH233973   2.374   6.033  14.546 -1.1710  0.3218  0.3257
 4161TIP3    H133974   2.407   6.034  14.456  0.0699  0.9621  0.7650
 4161TIP3    H233975   2.334   5.946  14.555  1.3569 -0.9770  0.0643
 4162TIP3   OH233976   0.778   0.689   4.719 -0.1040 -0.0419  0.2739
 4162TIP3    H133977   0.752   0.736   4.640 -2.0031 -3.4958 -1.3791
 4162TIP3    H233978   0.842   0.624   4.688 -1.6138 -2.1233  1.2807
 4163TIP3   OH233979   0.478   4.658   2.202  0.1659 -0.2238 -0.1329
 4163TIP3    H133980   0.482   4.564   2.189  1.3829 -0.1273 -0.5712
 4163TIP3    H233981   0.459   4.694   2.115  0.1024 -0.0425 -0.0462
 4164TIP3   OH233982   1.417   5.088  17.051 -0.2481 -0.0095  0.8004
 4164TIP3    H133983   1.469   5.096  17.131 -1.8513  1.5621  1.7845
 4164TIP3    H233984   1.326   5.100  17.081 -0.9335  0.1351 -1.2008
 4165TIP3   OH233985   2.670   5.705  17.355  0.5542 -0.2413 -0.4181
 4165TIP3    H133986   2.578   5.680  17.347  0.1830  0.9704 -0.1891
 4165TIP3    H233987   2.718   5.622  17.352 -0.5697 -0.9250 -0.0973
 4166TIP3   OH233988   2.261   6.014   0.335  0.1109 -0.0522 -0.1803
 4166TIP3    H133989   2.197   5.994   0.404  0.3964 -0.0080  0.1037
 4166TIP3    H233990   2.283   5.928   0.298 -2.0523  0.1278 -2.0832
 4167TIP3   OH233991   0.047   4.298   1.650 -0.4310  0.6280  0.1488
 4167TIP3    H133992   0.081   4.267   1.566 -0.8662  1.7377 -0.4547
 4167TIP3    H233993  -0.047   4.280   1.647 -0.4920  0.9075  0.2846
 4168TIP3   OH233994   6.073   5.607   4.021  0.1169  0.9291  0.5378
 4168TIP3    H133995   6.084   5.658   3.941  0.0340 -0.9881 -0.7811
 4168TIP3    H233996   6.115   5.523   4.001 -3.1769 -1.0282  1.0198
 4169TIP3   OH233997   3.715   6.079  14.973 -0.1005  0.4219 -0.0917
 4169TIP3    H133998   3.710   6.092  14.878  0.0891  2.7570  0.1580
 4169TIP3    H233999   3.795   6.029  14.986 -0.2586 -0.1414 -1.1708
 4170TIP3   OH234000   0.921   6.254   0.227  0.8747 -0.0169  0.1036
 4170TIP3    H134001   0.870   6.326   0.265  1.1495  0.7841 -0.9919
 4170TIP3    H234002   0.864   6.218   0.159 -0.1223 -2.2517  1.9998
 4171TIP3   OH234003   2.092   1.167   0.734 -0.3782 -0.3043 -0.0370
 4171TIP3    H134004   2.067   1.074   0.726 -1.2459  0.0497 -2.1355
 4171TIP3    H234005   2.012   1.215   0.711  0.6499  0.9302 -1.2280
 4172TIP3   OH234006   5.667   3.790   1.834 -0.1079  0.1942  0.3399
 4172TIP3    H134007   5.717   3.852   1.781 -1.7523  1.2581 -0.0717
 4172TIP3    H234008   5.726   3.766   1.906  1.3505  0.4985 -0.7166
 4173TIP3   OH234009   0.638   0.579   2.120  0.0874  0.4036 -0.4208
 4173TIP3    H134010   0.706   0.579   2.052 -0.3606  1.4279 -0.9025
 4173TIP3    H234011   0.686   0.563   2.201  0.9007  0.9301 -0.7730
 4174TIP3   OH234012   3.893   6.668   6.287 -0.0331 -0.2002 -0.0355
 4174TIP3    H134013   3.837   6.644   6.213 -0.4124 -2.1691  0.8444
 4174TIP3    H234014   3.853   6.626   6.363  0.3989  1.6899  1.3294
 4175TIP3   OH234015   4.088   3.736   1.340 -0.2807 -0.4566  0.2833
 4175TIP3    H134016   4.043   3.768   1.419 -1.2021  1.6961 -1.0253
 4175TIP3    H234017   4.081   3.808   1.278  1.8923 -1.4612 -1.2339
 4176TIP3   OH234018   0.449   3.802  12.888  0.3418 -0.3574 -0.6089
 4176TIP3    H134019   0.487   3.831  12.805  2.0330 -0.5692  0.0559
 4176TIP3    H234020   0.522   3.801  12.950 -0.8070 -0.5320  0.8188
 4177TIP3   OH234021   5.828   5.543  14.675 -0.4096  0.1889  0.1693
 4177TIP3    H134022   5.875   5.621  14.647  0.6727  0.4504  2.4891
 4177TIP3    H234023   5.893   5.492  14.724 -1.5152 -1.4063  0.0645
 4178TIP3   OH234024   1.966   4.575   6.927  0.2187 -0.1013  0.0210
 4178TIP3    H134025   1.974   4.491   6.881 -0.6082  0.7700 -1.8095
 4178TIP3    H234026   2.023   4.635   6.879 -0.9185  0.9218 -0.1154
 4179TIP3   OH234027   2.574   5.043  12.842 -0.2452  0.1751  0.3789
 4179TIP3    H134028   2.487   5.044  12.802  0.1945  1.5018 -0.6087
 4179TIP3    H234029   2.631   5.005  12.774 -0.0152 -0.5928  0.9800
 4180TIP3   OH234030   3.641   3.032  15.135  0.2392  0.1772 -0.4790
 4180TIP3    H134031   3.589   3.084  15.073 -0.9659 -2.0955 -1.4939
 4180TIP3    H234032   3.627   2.942  15.107 -1.9401 -1.2309  4.2470
 4181TIP3   OH234033   0.791   2.160   3.430 -0.1561  0.5074 -0.0002
 4181TIP3    H134034   0.828   2.160   3.342 -0.3469  2.6179 -0.1233
 4181TIP3    H234035   0.706   2.203   3.421  1.0297  3.4599  1.6105
 4182TIP3   OH234036   1.926   0.825  11.462 -0.7157  0.1528 -0.3082
 4182TIP3    H134037   2.010   0.857  11.494 -2.2915  2.1983  2.1087
 4182TIP3    H234038   1.895   0.765  11.530 -1.4365 -0.2437 -0.9561
 4183TIP3   OH234039   6.660   2.715  13.387  0.3923 -0.4686 -0.1783
 4183TIP3    H134040   6.653   2.669  13.304  0.9522  0.9292 -1.0448
 4183TIP3    H234041   6.723   2.664  13.438  2.2468  0.1615 -1.7305
 4184TIP3   OH234042   6.693   1.886  12.081 -0.0343  0.2723  0.3928
 4184TIP3    H134043   6.734   1.834  12.151 -1.5044  2.6789  3.2583
 4184TIP3    H234044   6.634   1.825  12.037  2.3812 -1.8257 -0.2016
 4185TIP3   OH234045   3.915   0.244   5.803  0.5266  0.2051 -0.0415
 4185TIP3    H134046   3.855   0.279   5.737  0.8563 -0.3615 -0.6583
 4185TIP3    H234047   3.984   0.202   5.752  1.7636  1.3322  0.6395
 4186TIP3   OH234048   6.588   5.703  14.347  0.4089  0.3387 -0.2396
 4186TIP3    H134049   6.590   5.699  14.443 -0.3615  0.9239 -0.1922
 4186TIP3    H234050   6.653   5.638  14.319 -0.5426 -1.0470  0.6510
 4187TIP3   OH234051   2.011   5.793  12.482 -0.2398 -0.2431  0.0451
 4187TIP3    H134052   2.061   5.798  12.563  0.9082 -0.9566 -0.5997
 4187TIP3    H234053   2.034   5.708  12.444 -0.9898 -0.0538 -0.8887
 4188TIP3   OH234054   4.413   1.156   0.479  0.1271 -0.0267  0.3317
 4188TIP3    H134055   4.442   1.247   0.490  0.5218 -0.0728 -0.2453
 4188TIP3    H234056   4.473   1.120   0.413  0.0289 -0.7333  0.6211
 4189TIP3   OH234057   3.806   2.699   2.845 -0.3325 -0.3054  0.4404
 4189TIP3    H134058   3.720   2.731   2.871 -0.4952  1.1431 -1.6445
 4189TIP3    H234059   3.809   2.713   2.750  1.5076 -2.0331  0.1811
 4190TIP3   OH234060   5.837   1.787  14.856 -0.2284  0.7007 -0.3903
 4190TIP3    H134061   5.793   1.820  14.934 -1.9220  0.1791 -1.0524
 4190TIP3    H234062   5.769   1.734  14.812  0.9045  0.3684 -1.8102
 4191TIP3   OH234063   1.729   3.124  12.582 -0.2111  0.2121 -0.2337
 4191TIP3    H134064   1.784   3.202  12.586  0.5039 -0.1609 -1.7583
 4191TIP3    H234065   1.677   3.126  12.662 -1.3920  3.0990 -0.9701
 4192TIP3   OH234066   2.283   1.005  13.132 -0.0001  0.3891  0.0505
 4192TIP3    H134067   2.285   1.100  13.137 -1.6068  0.4119  0.9717
 4192TIP3    H234068   2.356   0.976  13.187 -0.1880  1.0850  0.6781
 4193TIP3   OH234069   1.781   5.576   0.092  0.1036  0.2130 -0.3138
 4193TIP3    H134070   1.699   5.533   0.117 -0.2889  0.0315 -1.8403
 4193TIP3    H234071   1.762   5.669   0.096  0.2889  0.2167  0.8046
 4194TIP3   OH234072   4.453   6.582   2.271  0.1671 -0.2593  0.2576
 4194TIP3    H134073   4.393   6.656   2.277  0.6357  0.0660  1.0838
 4194TIP3    H234074   4.530   6.618   2.226  0.1419 -0.4152  0.0883
 4195TIP3   OH234075   3.036   5.624   5.349 -0.2249  0.2706 -0.1124
 4195TIP3    H134076   2.993   5.690   5.295 -2.2114  0.3259  1.3936
 4195TIP3    H234077   3.078   5.565   5.287 -0.6109  1.5029 -1.6017
 4196TIP3   OH234078   4.770   5.846   4.215 -0.3806  0.3299  0.7583
 4196TIP3    H134079   4.860   5.871   4.234 -0.5780  0.2846  1.8469
 4196TIP3    H234080   4.735   5.917   4.161  0.6310 -0.1965 -0.6258
 4197TIP3   OH234081   5.367   4.934  16.817 -0.3590 -0.3037 -0.6762
 4197TIP3    H134082   5.326   4.996  16.757 -0.8313 -0.7606 -0.8396
 4197TIP3    H234083   5.301   4.866  16.829 -0.3857 -0.0670  0.6142
 4198TIP3   OH234084   2.766   0.882   5.543 -0.0684 -0.0851 -0.4806
 4198TIP3    H134085   2.848   0.838   5.565 -1.4390 -1.8179  1.6356
 4198TIP3    H234086   2.759   0.875   5.448  1.7400 -0.8094 -0.5878
 4199TIP3   OH234087   2.143   2.136  16.501  0.0950 -0.1524  0.4563
 4199TIP3    H134088   2.108   2.150  16.413 -2.4811 -2.7171  0.9296
 4199TIP3    H234089   2.236   2.157  16.494 -0.4735  1.8914 -2.2706
 4200TIP3   OH234090   3.731   0.165   6.189  0.4316 -0.2355 -0.0839
 4200TIP3    H134091   3.768   0.154   6.277 -0.0034 -0.6762  0.0514
 4200TIP3    H234092   3.795   0.219   6.142  0.0799  1.0872  0.8813
 4201TIP3   OH234093   4.134   3.225   2.646  0.0608  0.2484 -0.4041
 4201TIP3    H134094   4.174   3.149   2.604  1.0600 -1.1527  2.7687
 4201TIP3    H234095   4.071   3.189   2.709 -0.4241  2.0944  0.2551
 4202TIP3   OH234096   2.487   4.546   5.711  0.5047  0.6114 -0.1582
 4202TIP3    H134097   2.503   4.605   5.637 -0.0852 -0.3933 -1.1198
 4202TIP3    H234098   2.427   4.480   5.676  1.1066 -0.5315  0.9032
 4203TIP3   OH234099   6.145   3.240  17.491 -0.2594  0.1196 -0.4268
 4203TIP3    H134100   6.164   3.323  17.535  1.1149  1.0479 -2.6307
 4203TIP3    H234101   6.055   3.220  17.516  0.0319  1.2169  1.7370
 4204TIP3   OH234102   5.160   6.572  16.961 -0.1959 -0.2214  0.3942
 4204TIP3    H134103   5.206   6.581  17.044 -1.9738 -2.2774  1.7090
 4204TIP3    H234104   5.074   6.612  16.976  0.2306  1.4366 -1.2420
 4205TIP3   OH234105   0.092   0.934  13.917  0.3561 -0.2150  0.5320
 4205TIP3    H134106   0.041   0.855  13.931 -0.9681  0.3649 -0.7930
 4205TIP3    H234107   0.163   0.907  13.858 -1.0429 -0.1403 -1.2919
 4206TIP3   OH234108   5.934   0.436   4.829  0.2029  0.1872 -0.1364
 4206TIP3    H134109   5.908   0.523   4.857  0.0227 -0.0029  0.2970
 4206TIP3    H234110   6.015   0.418   4.876  0.3476  0.1979 -0.3783
 4207TIP3   OH234111   5.894   5.464   3.378  0.6658 -0.0179  0.2781
 4207TIP3    H134112   5.953   5.409   3.429  1.7455 -2.2624 -3.0047
 4207TIP3    H234113   5.808   5.423   3.388  0.6052  0.3443  1.2803
 4208TIP3   OH234114   3.926   3.134   1.196 -0.1185  0.2027 -0.5743
 4208TIP3    H134115   3.841   3.163   1.229 -0.3256 -0.1978 -0.7533
 4208TIP3    H234116   3.912   3.043   1.171  0.2728  0.2403 -0.9344
 4209TIP3   OH234117   2.273   3.661   5.464  0.0884  0.0227  0.9010
 4209TIP3    H134118   2.254   3.568   5.449  0.2287  0.0682  0.4295
 4209TIP3    H234119   2.196   3.694   5.510 -0.6893  0.0388 -0.3673
 4210TIP3   OH234120   3.001   1.863  13.615  0.4947  0.2517 -0.1960
 4210TIP3    H134121   3.081   1.838  13.568  0.6559  1.1944 -0.4407
 4210TIP3    H234122   2.930   1.838  13.555  0.6289 -0.0012 -0.2545
 4211TIP3   OH234123   1.179   1.751  17.457  0.2633 -0.4681  0.0397
 4211TIP3    H134124   1.173   1.835  17.503  1.1900 -0.6973  0.6190
 4211TIP3    H234125   1.202   1.774  17.367 -0.8411 -0.0478 -0.1550
 4212TIP3   OH234126   0.545   1.203   2.234 -0.3517 -0.1154 -0.0024
 4212TIP3    H134127   0.544   1.116   2.194  1.2343 -0.1876  0.0382
 4212TIP3    H234128   0.619   1.248   2.192 -0.4790  0.8279  0.7462
 4213TIP3   OH234129   3.005   6.570  14.360  0.1746 -0.0741  0.3276
 4213TIP3    H134130   2.994   6.593  14.453 -0.0323 -0.1619  0.3264
 4213TIP3    H234131   2.917   6.544  14.332  0.6187 -2.0812  0.6592
 4214TIP3   OH234132   0.900   6.681   3.425 -0.4156 -0.3005 -0.2666
 4214TIP3    H134133   0.807   6.662   3.417 -0.8816  1.8439 -0.7218
 4214TIP3    H234134   0.912   6.706   3.517 -0.4111 -0.0312 -0.3396
 4215TIP3   OH234135   5.268   3.445  11.878 -0.3895 -0.3000 -0.2066
 4215TIP3    H134136   5.192   3.495  11.849 -1.2374 -1.5547 -0.2445
 4215TIP3    H234137   5.343   3.495  11.847 -1.1839  1.1341  0.0974
 4216TIP3   OH234138   4.689   0.476  16.458 -0.4324  0.2943 -0.7522
 4216TIP3    H134139   4.647   0.394  16.435  0.0810 -0.1564 -0.1175
 4216TIP3    H234140   4.670   0.535  16.384 -1.5689 -0.1051 -0.7894
 4217TIP3   OH234141   1.110   4.981   0.504 -0.1409 -0.4464 -0.5048
 4217TIP3    H134142   1.034   5.017   0.458  0.3996  0.6616 -0.5450
 4217TIP3    H234143   1.140   4.910   0.448 -1.6413 -1.4733 -0.0797
 4218TIP3   OH234144   2.367   4.971   3.476 -0.2276  0.6130  0.1564
 4218TIP3    H134145   2.411   5.048   3.442  0.5716  0.8354  1.5987
 4218TIP3    H234146   2.402   4.898   3.425  0.1873  1.0286 -0.1622
 4219TIP3   OH234147   1.196   4.157  12.676 -0.3901  0.7451 -0.2591
 4219TIP3    H134148   1.204   4.062  12.684  0.8404  0.6546 -1.9625
 4219TIP3    H234149   1.179   4.188  12.766 -1.9984 -1.1381  0.1544
 4220TIP3   OH234150   6.040   1.109   3.635  0.5149 -0.0662 -0.6892
 4220TIP3    H134151   6.055   1.146   3.722 -2.2470 -1.2898  0.4343
 4220TIP3    H234152   6.061   1.016   3.644  1.4981  0.0257 -1.7548
 4221TIP3   OH234153   0.542   1.185  13.706 -0.5011  0.3233  0.3174
 4221TIP3    H134154   0.589   1.268  13.704 -0.6224  0.4089  0.9106
 4221TIP3    H234155   0.519   1.168  13.614  3.2532 -1.2315 -0.5050
 4222TIP3   OH234156   0.741   3.268  11.732 -0.6337  0.0603  0.3277
 4222TIP3    H134157   0.802   3.290  11.661  0.2582 -1.6217  0.5053
 4222TIP3    H234158   0.750   3.340  11.795  0.6930  0.1869  0.0302
 4223TIP3   OH234159   3.110   1.368   4.204 -0.2016 -0.0349 -0.2374
 4223TIP3    H134160   3.021   1.403   4.209  1.0015  3.1900  0.3475
 4223TIP3    H234161   3.112   1.298   4.269 -1.3229  2.2667  2.4299
 4224TIP3   OH234162   3.985   1.880   0.958  0.4230 -0.0259 -0.6388
 4224TIP3    H134163   3.991   1.790   0.990 -0.4962  0.2722  0.4694
 4224TIP3    H234164   4.039   1.931   1.018  1.0592  0.1578 -1.3496
 4225TIP3   OH234165   3.065   2.962   0.272 -0.3477 -0.0949 -0.6363
 4225TIP3    H134166   3.100   2.876   0.250  0.3170 -0.5236  1.7691
 4225TIP3    H234167   3.006   2.946   0.346  1.2635  1.6622  1.1515
 4226TIP3   OH234168   4.750   2.023  14.391  0.0408 -0.2620  0.5635
 4226TIP3    H134169   4.811   2.075  14.338  1.0459 -0.2847  1.6620
 4226TIP3    H234170   4.802   1.949  14.423 -0.6643 -0.4961  1.1979
 4227TIP3   OH234171   3.436   3.740  11.549  0.2795  0.2633  0.3745
 4227TIP3    H134172   3.476   3.711  11.467 -1.3518 -0.2908 -0.2561
 4227TIP3    H234173   3.344   3.754  11.528  0.1350  1.6606  1.7401
 4228TIP3   OH234174   5.919   4.862  12.099  0.3071 -0.1771  0.0565
 4228TIP3    H134175   5.949   4.772  12.110  0.0812 -0.5390 -1.9670
 4228TIP3    H234176   5.828   4.854  12.070  0.3712  0.6922 -0.4098
 4229TIP3   OH234177   1.316   5.878   2.032 -0.4123  0.4538  0.4096
 4229TIP3    H134178   1.250   5.815   2.002  0.6277 -0.4671  0.0207
 4229TIP3    H234179   1.384   5.824   2.072 -0.0953  1.4333  1.2256
 4230TIP3   OH234180   0.981   3.418   5.815  0.2314  0.0287 -0.1516
 4230TIP3    H134181   0.946   3.358   5.750 -0.5263  1.8109 -1.4574
 4230TIP3    H234182   1.074   3.397   5.819 -0.2197 -2.1076  0.4527
 4231TIP3   OH234183   5.822   5.724  16.393  0.7381 -0.7414  0.2333
 4231TIP3    H134184   5.765   5.700  16.320  0.9691 -1.0745  0.1581
 4231TIP3    H234185   5.867   5.803  16.363  2.2298 -1.9059 -0.7698
 4232TIP3   OH234186   0.272   0.925  16.095 -0.3272 -0.1359 -0.3949
 4232TIP3    H134187   0.209   0.984  16.053 -1.2355 -2.0461 -1.8147
 4232TIP3    H234188   0.239   0.914  16.184 -0.9825  0.2969 -0.5773
 4233TIP3   OH234189   0.004   5.864  17.099 -0.0190  0.4085 -0.0255
 4233TIP3    H134190  -0.066   5.803  17.073 -0.3980  0.7040  0.2937
 4233TIP3    H234191  -0.032   5.911  17.174  0.8749 -0.0792  0.7309
 4234TIP3   OH234192   0.469   5.975  17.083 -0.5863  0.6346 -0.0700
 4234TIP3    H134193   0.465   6.070  17.090  0.4403  0.7981 -1.4283
 4234TIP3    H234194   0.535   5.948  17.147  0.0152  0.9569 -0.5497
 4235TIP3   OH234195   5.214   3.927   2.286  0.4907  0.2279  0.4183
 4235TIP3    H134196   5.173   3.891   2.207  0.0313  1.9220 -0.1604
 4235TIP3    H234197   5.252   3.851   2.330 -1.2993 -1.1029 -0.2050
 4236TIP3   OH234198   4.995   6.238   2.301 -0.3372  0.5252  0.1041
 4236TIP3    H134199   4.987   6.327   2.266 -0.3159  0.9353  1.1305
 4236TIP3    H234200   4.936   6.186   2.246 -0.2435  1.1396 -0.5966
 4237TIP3   OH234201   4.047   4.817  13.707 -0.2545 -0.1693  0.3079
 4237TIP3    H134202   4.108   4.788  13.639 -1.9712 -1.3763 -0.7971
 4237TIP3    H234203   4.041   4.743  13.768  2.3375  1.3890  2.7064
 4238TIP3   OH234204   4.932   3.716  16.447 -0.0250 -0.0843  0.7837
 4238TIP3    H134205   5.000   3.781  16.464  0.5108 -0.2867 -0.4272
 4238TIP3    H234206   4.851   3.767  16.437  0.6609  0.6758 -1.8620
 4239TIP3   OH234207   5.561   1.155   2.314 -0.2319 -0.2716 -0.2170
 4239TIP3    H134208   5.652   1.170   2.288 -0.6187  1.4300 -0.6955
 4239TIP3    H234209   5.567   1.115   2.401  0.9720 -0.9654 -0.6040
 4240TIP3   OH234210   1.214   4.552  16.736 -0.4602 -0.2479  0.2351
 4240TIP3    H134211   1.208   4.522  16.826 -0.4688  1.0662  0.7018
 4240TIP3    H234212   1.305   4.534  16.710 -0.9596 -2.3775 -0.1741
 4241TIP3   OH234213   0.348   5.570  17.132  0.3444 -0.1708 -0.1145
 4241TIP3    H134214   0.310   5.559  17.045 -0.9419 -0.6665  0.4941
 4241TIP3    H234215   0.314   5.654  17.163 -0.5905 -0.7779  0.5723
 4242TIP3   OH234216   5.703   1.117  13.667 -0.4260 -0.1259  0.3512
 4242TIP3    H134217   5.610   1.134  13.650  0.1567  1.8085 -1.2530
 4242TIP3    H234218   5.746   1.201  13.654  1.7235 -1.2310 -0.1525
 4243TIP3   OH234219   5.726   2.841  12.981 -0.7784  0.3139 -0.2996
 4243TIP3    H134220   5.762   2.880  13.060 -1.4061 -0.8042  0.5734
 4243TIP3    H234221   5.632   2.833  12.998 -0.8959 -0.1346 -1.0751
 4244TIP3   OH234222   1.424   1.601   2.551  0.1310 -0.3895  0.4223
 4244TIP3    H134223   1.488   1.672   2.543 -0.5003  0.1561  0.0441
 4244TIP3    H234224   1.422   1.560   2.465 -1.2089  0.6619 -0.0835
 4245TIP3   OH234225   6.554   0.646   3.839  0.1436 -0.6351  0.2197
 4245TIP3    H134226   6.650   0.649   3.842  0.2846 -2.9866  0.0937
 4245TIP3    H234227   6.532   0.682   3.753  0.9849 -0.8111 -0.0831
 4246TIP3   OH234228   0.404   1.716  11.356  0.1248 -1.1386 -0.1918
 4246TIP3    H134229   0.349   1.779  11.308  2.6993  0.1165 -1.7206
 4246TIP3    H234230   0.466   1.771  11.403  0.6623 -2.5243  0.7557
 4247TIP3   OH234231   0.378   4.640  15.769  0.3072  0.2969 -0.4487
 4247TIP3    H134232   0.389   4.650  15.674 -0.0810  1.1198 -0.4099
 4247TIP3    H234233   0.336   4.721  15.797 -0.2026 -0.2241  0.3296
 4248TIP3   OH234234   3.255   3.205   1.042  0.2360 -0.2016  0.1844
 4248TIP3    H134235   3.165   3.236   1.037  0.4275  0.3231 -0.0625
 4248TIP3    H234236   3.302   3.256   0.975  0.9785  0.4241  1.1629
 4249TIP3   OH234237   0.352   2.750   2.657  1.0975 -0.0071 -0.2607
 4249TIP3    H134238   0.439   2.736   2.695  1.0531 -1.0193 -0.4928
 4249TIP3    H234239   0.291   2.722   2.726  0.8589  2.3771  0.5984
 4250TIP3   OH234240   3.558   5.246   2.581  0.1805  0.6251 -0.5400
 4250TIP3    H134241   3.570   5.340   2.588  0.7988  0.4233  2.4379
 4250TIP3    H234242   3.577   5.226   2.490 -0.9535  3.4598 -1.5170
 4251TIP3   OH234243   3.483   2.003   1.620  0.1151  0.1984  0.1137
 4251TIP3    H134244   3.459   2.093   1.643 -0.6469  0.1932 -0.6160
 4251TIP3    H234245   3.400   1.955   1.620  0.1020  0.1329 -2.2872
 4252TIP3   OH234246   5.749   3.336  14.950 -0.0592  0.0517 -0.7247
 4252TIP3    H134247   5.662   3.303  14.928 -0.6687 -0.2127  1.7201
 4252TIP3    H234248   5.738   3.372  15.038  2.2016  0.5009 -0.5842
 4253TIP3   OH234249   5.374   5.294  12.122 -0.0771  0.0253 -0.0513
 4253TIP3    H134250   5.396   5.364  12.185  0.7660 -1.8595  1.8675
 4253TIP3    H234251   5.459   5.263  12.091 -0.4314 -0.4377 -0.5767
 4254TIP3   OH234252   1.722   2.907  16.049 -0.8803 -0.5471  0.6974
 4254TIP3    H134253   1.767   2.932  16.131  1.2353  0.5302 -0.6776
 4254TIP3    H234254   1.688   2.820  16.066  0.3603 -0.7566  2.4275
 4255TIP3   OH234255   3.743   3.350  12.847 -0.3867  0.3276 -0.5785
 4255TIP3    H134256   3.719   3.441  12.828 -0.5298  0.1836 -1.1053
 4255TIP3    H234257   3.835   3.344  12.821 -0.0105  0.6433  0.6123
 4256TIP3   OH234258   3.223   3.238  16.758 -0.1689 -0.5584 -0.3112
 4256TIP3    H134259   3.309   3.277  16.741 -0.1982 -0.5380 -0.4120
 4256TIP3    H234260   3.182   3.296  16.821 -1.5730  1.5161 -2.9147
 4257TIP3   OH234261   6.546   2.070  16.713 -0.5463  0.2717  0.4403
 4257TIP3    H134262   6.485   2.083  16.785 -0.6317  0.2706  0.3676
 4257TIP3    H234263   6.492   2.076  16.634 -0.8483 -1.8633  0.4384
 4258TIP3   OH234264   3.849   1.792   2.675  0.0831 -0.0684  0.6084
 4258TIP3    H134265   3.941   1.818   2.682  0.1572  0.1698 -0.9948
 4258TIP3    H234266   3.803   1.873   2.656 -0.0979 -0.5550 -1.2070
 4259TIP3   OH234267   4.318   4.866   2.732 -0.1084 -0.3857  0.3784
 4259TIP3    H134268   4.395   4.922   2.718  0.6172 -1.3063  0.5615
 4259TIP3    H234269   4.253   4.899   2.671 -0.7487  2.4881  2.3707
 4260TIP3   OH234270   5.377   2.815  15.079  0.1124  0.0461 -0.4315
 4260TIP3    H134271   5.473   2.819  15.074  0.0276  1.4762 -1.6470
 4260TIP3    H234272   5.357   2.836  15.170  0.9637 -0.3204 -0.1511
 4261TIP3   OH234273   3.292   2.415   5.379 -0.5607 -0.9227 -0.0026
 4261TIP3    H134274   3.310   2.418   5.473 -1.4527 -0.6257  0.1747
 4261TIP3    H234275   3.332   2.495   5.344  0.3852 -1.3859 -0.0003
 4262TIP3   OH234276   0.131   4.505   6.039 -0.1111 -0.0157 -0.1533
 4262TIP3    H134277   0.170   4.423   6.069  0.6943 -0.5155 -2.3357
 4262TIP3    H234278   0.191   4.573   6.070  0.7128 -0.5115 -0.5955
 4263TIP3   OH234279   5.782   1.871   3.141 -0.2044 -0.0786  0.3376
 4263TIP3    H134280   5.722   1.839   3.208 -0.6490 -1.1802 -0.5627
 4263TIP3    H234281   5.869   1.852   3.175 -0.3182  1.5496  1.6662
 4264TIP3   OH234282   1.851   3.794   3.958 -0.2991 -0.5836  0.8270
 4264TIP3    H134283   1.843   3.699   3.963 -0.8152 -0.7844 -2.0210
 4264TIP3    H234284   1.931   3.808   3.907 -0.8422  0.4636  0.2373
 4265TIP3   OH234285   5.674   5.932  13.707 -0.2705  0.1139 -0.4360
 4265TIP3    H134286   5.585   5.938  13.741  0.4528  2.6420  1.2404
 4265TIP3    H234287   5.682   5.840  13.680 -2.0989 -1.2839  3.0293
 4266TIP3   OH234288   5.024   4.245   4.536 -0.1456 -0.1862  0.2156
 4266TIP3    H134289   4.951   4.301   4.509  0.7625  0.8840 -0.1162
 4266TIP3    H234290   5.102   4.290   4.503  0.6334 -1.6190  0.0210
 4267TIP3   OH234291   2.471   2.494  11.528 -0.4179  0.1245 -0.5900
 4267TIP3    H134292   2.418   2.487  11.449  0.5613  3.5321 -1.7351
 4267TIP3    H234293   2.560   2.473  11.500 -0.0303  1.5445 -0.5200
 4268TIP3   OH234294   1.428   4.414   5.973  0.3520  0.6800  0.9926
 4268TIP3    H134295   1.405   4.453   6.057  0.4080 -0.3316  1.5033
 4268TIP3    H234296   1.442   4.321   5.993 -1.4971  0.0174 -0.4549
 4269TIP3   OH234297   4.507   0.398  12.187 -0.2094 -0.4468 -0.4388
 4269TIP3    H134298   4.511   0.340  12.111 -1.1733 -0.1991 -0.6956
 4269TIP3    H234299   4.579   0.370  12.243 -0.1098 -1.2890 -0.9791
 4270TIP3   OH234300   5.423   3.364   6.145  0.6080 -0.3947 -0.0295
 4270TIP3    H134301   5.342   3.385   6.098 -0.0606 -1.1422  0.7569
 4270TIP3    H234302   5.445   3.275   6.118  0.6056 -0.5689  0.5223
 4271TIP3   OH234303   5.813   3.244  11.458 -0.4761  0.4604 -0.0565
 4271TIP3    H134304   5.782   3.185  11.527  2.8695 -0.3071  0.9527
 4271TIP3    H234305   5.775   3.209  11.378 -2.1862 -0.3182  1.0417
 4272TIP3   OH234306   0.158   5.302   5.792 -0.1838  0.2720 -0.3174
 4272TIP3    H134307   0.105   5.224   5.803 -1.9186  1.4218 -0.2314
 4272TIP3    H234308   0.106   5.360   5.737  2.9942 -0.3680 -4.5123
 4273TIP3   OH234309   4.319   2.924   0.268  0.4138 -0.0948 -0.3736
 4273TIP3    H134310   4.236   2.941   0.224 -0.1926 -2.0103 -0.0429
 4273TIP3    H234311   4.337   3.006   0.315 -2.5684 -0.3612  1.5494
 4274TIP3   OH234312   4.072   1.810   1.365 -0.2977 -0.1546  0.0683
 4274TIP3    H134313   4.147   1.777   1.412  0.8898  0.3052 -1.4147
 4274TIP3    H234314   4.006   1.741   1.373 -0.1979 -0.0492  2.4049
 4275TIP3   OH234315   0.591   5.864  11.657 -0.2043  0.4233 -0.2287
 4275TIP3    H134316   0.539   5.938  11.627 -0.4637  0.3486  0.0323
 4275TIP3    H234317   0.677   5.878  11.618 -1.2044 -1.1132 -3.2971
 4276TIP3   OH234318   5.097   0.656  12.158 -0.2508  0.2044 -0.1167
 4276TIP3    H134319   5.169   0.593  12.149 -0.6151 -0.1672 -0.4226
 4276TIP3    H234320   5.141   0.737  12.184  0.0332 -0.6855  2.4744
 4277TIP3   OH234321   1.494   0.629   3.224  0.1951 -0.1879  0.3633
 4277TIP3    H134322   1.582   0.622   3.260 -0.0066  0.6031  1.0442
 4277TIP3    H234323   1.442   0.669   3.294 -0.4324  0.4652 -0.4455
 4278TIP3   OH234324   5.212   5.961   0.202  0.1041 -0.2522 -0.2141
 4278TIP3    H134325   5.148   5.932   0.137 -0.1985 -1.0612  0.4238
 4278TIP3    H234326   5.252   6.039   0.164  1.5771 -1.9519 -2.4036
 4279TIP3   OH234327   0.200   5.678   5.481 -0.4747  0.4051  0.4024
 4279TIP3    H134328   0.135   5.620   5.522 -0.2637  1.0907  1.7793
 4279TIP3    H234329   0.204   5.754   5.539  1.1512  0.6281  0.0466
 4280TIP3   OH234330   3.104   2.291   0.037 -0.5917 -0.0465 -0.4533
 4280TIP3    H134331   3.047   2.334  -0.028 -0.3885  0.6076 -0.2086
 4280TIP3    H234332   3.047   2.227   0.079 -0.2043 -1.9654 -2.6666
 4281TIP3   OH234333   5.605   6.682  16.639 -0.0580 -0.4634 -0.0980
 4281TIP3    H134334   5.636   6.725  16.559 -0.0168  0.2715  0.3058
 4281TIP3    H234335   5.561   6.603  16.608  0.7382 -0.6451 -0.7865
 4282TIP3   OH234336   5.516   2.905   2.807  0.5022  0.1576  0.0527
 4282TIP3    H134337   5.458   2.846   2.856 -1.0668  1.6846  0.1369
 4282TIP3    H234338   5.554   2.850   2.739  0.2608 -1.2814  1.0139
 4283TIP3   OH234339   2.604   5.476   4.157 -0.0320  0.0218  0.0828
 4283TIP3    H134340   2.682   5.522   4.124 -0.8067  0.5727 -1.0545
 4283TIP3    H234341   2.567   5.433   4.080 -0.5515 -0.6966  0.7191
 4284TIP3   OH234342   5.748   1.851   2.071 -0.2712  0.2010 -0.6317
 4284TIP3    H134343   5.725   1.793   1.998 -0.8386 -0.7753  0.2910
 4284TIP3    H234344   5.684   1.829   2.139  1.7281 -0.6658  1.0647
 4285TIP3   OH234345   1.705   4.541  14.096 -0.1138  0.3428  0.4649
 4285TIP3    H134346   1.722   4.544  14.191  1.8252 -0.1787  0.1724
 4285TIP3    H234347   1.643   4.612  14.081  0.7524  1.4599  1.9120
 4286TIP3   OH234348   1.415   4.923  11.444 -0.1732  0.6568  0.7268
 4286TIP3    H134349   1.403   4.835  11.409 -2.4367  1.2980 -0.3028
 4286TIP3    H234350   1.492   4.956  11.398 -0.9229  0.1545 -0.9891
 4287TIP3   OH234351   3.288   5.820   5.026 -0.3801 -0.3255  0.1857
 4287TIP3    H134352   3.305   5.886   4.958  0.7113 -1.3894 -0.6166
 4287TIP3    H234353   3.308   5.865   5.108 -1.3687  0.8708 -0.1977
 4288TIP3   OH234354   4.646   5.198   4.775 -0.0215 -0.4050  0.1101
 4288TIP3    H134355   4.589   5.229   4.845  0.1021 -0.9733  0.4732
 4288TIP3    H234356   4.676   5.277   4.730 -0.7097 -0.0810  0.2186
 4289TIP3   OH234357   4.702   1.087  13.625 -0.6090  0.1351 -0.5261
 4289TIP3    H134358   4.627   1.054  13.674 -1.4236  1.5950 -0.7142
 4289TIP3    H234359   4.758   1.128  13.691 -0.2292 -0.5080 -0.4485
 4290TIP3   OH234360   5.834   4.813   3.893 -0.3523 -0.0253  0.2611
 4290TIP3    H134361   5.881   4.730   3.891  0.1099  0.2526 -0.7662
 4290TIP3    H234362   5.873   4.865   3.823 -1.1104  0.8030  0.4329
 4291TIP3   OH234363   2.591   0.717   1.748 -0.1621  0.0960  0.0483
 4291TIP3    H134364   2.508   0.687   1.785 -1.8916  0.3136 -3.3593
 4291TIP3    H234365   2.616   0.792   1.803 -2.5545  0.4501  0.7480
 4292TIP3   OH234366   5.043   4.210   5.304 -0.3006  0.3139 -0.4631
 4292TIP3    H134367   4.954   4.235   5.329  0.6857  0.9378  2.8468
 4292TIP3    H234368   5.070   4.278   5.242 -1.4593  1.2290  0.0002
 4293TIP3   OH234369   1.131   2.986  11.664  0.3005 -0.3957  0.8435
 4293TIP3    H134370   1.058   2.924  11.668  0.8050 -0.9939  0.9178
 4293TIP3    H234371   1.202   2.937  11.623  0.3422  0.5151 -0.2073
 4294TIP3   OH234372   5.215   0.886  16.546  0.1370 -0.2386 -0.1083
 4294TIP3    H134373   5.183   0.819  16.606 -2.6449  1.7112  0.7951
 4294TIP3    H234374   5.304   0.904  16.574 -0.7673 -0.0373  2.9289
 4295TIP3   OH234375   4.329   3.934  14.180  0.2909 -0.4473 -0.2073
 4295TIP3    H134376   4.333   3.954  14.274  0.9268 -1.2820 -0.0447
 4295TIP3    H234377   4.325   4.020  14.138 -1.0626 -0.0652  0.6073
 4296TIP3   OH234378   0.876   2.689   2.131  0.3079  0.6452  0.3791
 4296TIP3    H134379   0.963   2.691   2.170 -0.1707  2.3571  1.4607
 4296TIP3    H234380   0.840   2.604   2.155  1.1959  0.4438  1.0214
 4297TIP3   OH234381   3.597   4.970   6.685 -0.3475  0.5925  0.1589
 4297TIP3    H134382   3.656   5.043   6.704 -0.2989  0.7538 -0.5778
 4297TIP3    H234383   3.654   4.895   6.671 -0.3963  0.4092  0.8911
 4298TIP3   OH234384   2.675   1.071   2.411  0.6677  0.2124 -0.4582
 4298TIP3    H134385   2.590   1.067   2.454  0.5875  0.6284 -0.5734
 4298TIP3    H234386   2.680   1.160   2.375  0.7044 -0.1497 -1.3696
 4299TIP3   OH234387   5.380   6.135   2.189  0.3173  0.0833 -0.0636
 4299TIP3    H134388   5.428   6.189   2.126 -0.9092  1.2780  0.0013
 4299TIP3    H234389   5.296   6.178   2.199 -0.1047 -0.9753  1.2096
 4300TIP3   OH234390   2.709   5.977  11.542 -0.8220 -0.2099  0.2908
 4300TIP3    H134391   2.696   5.985  11.448 -1.5487  1.4795  0.5014
 4300TIP3    H234392   2.797   6.009  11.558 -1.1343  0.6554  0.3100
 4301TIP3   OH234393   1.264   0.002   1.227  1.1129 -0.2926 -0.0316
 4301TIP3    H134394   1.253   0.092   1.258 -1.5287  0.1546 -1.8624
 4301TIP3    H234395   1.194  -0.047   1.271 -0.0822 -0.4909 -2.0092
 4302TIP3   OH234396   1.979   6.762   2.539 -0.6422  0.0803  0.0935
 4302TIP3    H134397   1.929   6.841   2.558 -0.8647 -0.3448  1.3535
 4302TIP3    H234398   2.052   6.792   2.485 -0.4665  1.2196  0.9271
 4303TIP3   OH234399   3.614   2.934   4.229 -0.1647 -0.0849  0.1710
 4303TIP3    H134400   3.543   2.967   4.284  0.0945 -0.9616  1.0534
 4303TIP3    H234401   3.569   2.902   4.150 -0.9503 -1.8831  1.2809
 4304TIP3   OH234402   2.611   3.135  14.683  0.5445 -0.2812 -0.3586
 4304TIP3    H134403   2.573   3.222  14.675  1.0473 -0.1877 -2.0489
 4304TIP3    H234404   2.700   3.143  14.649 -0.3414 -2.0237 -3.5317
 4305TIP3   OH234405   2.092   5.638  16.091 -0.3473 -0.1467  0.1958
 4305TIP3    H134406   2.049   5.554  16.076 -1.4799  0.4837 -0.2727
 4305TIP3    H234407   2.174   5.632  16.043  0.6189 -1.7528  1.9070
 4306TIP3   OH234408   6.254   5.167   0.286  0.1597 -0.2145 -0.5044
 4306TIP3    H134409   6.315   5.095   0.304 -0.6153 -0.9404 -0.7306
 4306TIP3    H234410   6.257   5.178   0.191  0.0659 -0.1349 -0.4978
 4307TIP3   OH234411   4.394   0.099   1.577  0.3221  0.4480 -0.3061
 4307TIP3    H134412   4.440   0.177   1.609  0.8151 -0.4673  1.3194
 4307TIP3    H234413   4.444   0.026   1.613  0.1205 -0.6484 -2.1574
 4308TIP3   OH234414   4.451   5.395  16.889  0.5796 -0.2754  0.0123
 4308TIP3    H134415   4.388   5.341  16.841 -1.5387  2.3643 -0.4057
 4308TIP3    H234416   4.436   5.374  16.981 -0.1111 -0.4829 -0.1460
 4309TIP3   OH234417   5.249   4.996   2.894 -0.3711 -0.1399  0.1854
 4309TIP3    H134418   5.272   4.907   2.870  0.4642  0.0811  0.1386
 4309TIP3    H234419   5.154   5.001   2.883 -0.3689 -0.9081 -0.1690
 4310TIP3   OH234420   3.121   0.199   4.262 -0.2831 -0.1798  0.2766
 4310TIP3    H134421   3.061   0.154   4.203  2.0518 -0.6387 -1.9174
 4310TIP3    H234422   3.187   0.239   4.204  1.5135  0.3291  2.5144
 4311TIP3   OH234423   4.039   4.317  15.681 -0.5342  0.5474  0.2180
 4311TIP3    H134424   4.118   4.368  15.666 -0.0797 -0.1086  0.3791
 4311TIP3    H234425   4.006   4.298  15.593 -0.7945  1.2414  0.1560
 4312TIP3   OH234426   6.308   6.508  13.424 -0.2191 -0.0444 -0.2591
 4312TIP3    H134427   6.321   6.597  13.390 -2.4781  0.5874  0.3432
 4312TIP3    H234428   6.216   6.489  13.407  0.2043 -2.2956 -0.3339
 4313TIP3   OH234429   1.050   1.505  15.891  0.3771  0.7351  0.4438
 4313TIP3    H134430   1.066   1.482  15.982  3.5248  1.2327  0.1428
 4313TIP3    H234431   1.038   1.422  15.846  1.5580  0.2974  0.9127
 4314TIP3   OH234432   5.909   0.619  15.170  0.2075 -0.1623  0.3615
 4314TIP3    H134433   5.815   0.622  15.152  0.0926  1.0207  1.0144
 4314TIP3    H234434   5.925   0.531  15.202 -0.4673 -0.7324 -0.7919
 4315TIP3   OH234435   1.885   0.330  15.005 -0.2550  0.1850 -0.6682
 4315TIP3    H134436   1.876   0.418  15.040  2.0388 -0.1219  1.0236
 4315TIP3    H234437   1.931   0.282  15.075  0.3948 -1.7751 -2.3373
 4316TIP3   OH234438   4.077   1.815  12.389  0.6948  0.4109  0.1385
 4316TIP3    H134439   4.005   1.771  12.344  1.2057  0.3707 -0.6632
 4316TIP3    H234440   4.040   1.900  12.415 -0.2675 -0.4135  1.6267
 4317TIP3   OH234441   5.530   2.271  12.062  0.2457  0.2960  0.5362
 4317TIP3    H134442   5.599   2.328  12.096  0.7338  0.4588 -0.6628
 4317TIP3    H234443   5.498   2.316  11.984 -1.0569  0.0883  0.9205
 4318TIP3   OH234444   2.745   1.446  15.984  0.0932  0.2830  0.2439
 4318TIP3    H134445   2.817   1.464  16.044  1.1026  0.3000 -0.9236
 4318TIP3    H234446   2.751   1.516  15.918 -0.7678  0.0751 -0.0658
 4319TIP3   OH234447   4.959   1.212   5.684  0.3088 -0.0137  0.1474
 4319TIP3    H134448   5.008   1.294   5.676 -0.8837  0.6664 -0.6141
 4319TIP3    H234449   5.023   1.143   5.669  1.3392  0.7797  0.8243
 4320TIP3   OH234450   2.188   5.497   2.295 -0.2024 -0.2563  0.9569
 4320TIP3    H134451   2.171   5.416   2.247 -1.5052  0.8829 -0.6448
 4320TIP3    H234452   2.276   5.487   2.330 -0.1650 -2.1598  0.4107
 4321TIP3   OH234453   1.262   4.517   3.301 -0.0917  0.4580  0.1888
 4321TIP3    H134454   1.207   4.568   3.360  0.7529  0.0191  1.3928
 4321TIP3    H234455   1.200   4.470   3.245 -0.9070  0.8112  0.7815
 4322TIP3   OH234456   1.653   0.702  15.308  0.3459  0.1361  0.0414
 4322TIP3    H134457   1.593   0.640  15.268  0.7059 -0.1602 -0.0438
 4322TIP3    H234458   1.608   0.787  15.302 -0.5984 -0.2670  1.0883
 4323TIP3   OH234459   5.144   6.644  15.587  0.4073  0.1546 -0.1793
 4323TIP3    H134460   5.193   6.598  15.655 -1.1980 -2.3598 -0.5655
 4323TIP3    H234461   5.056   6.605  15.591 -0.7530  2.4712 -1.3394
 4324TIP3   OH234462   2.883   6.141  16.404 -0.6308  0.4399 -0.7203
 4324TIP3    H134463   2.913   6.227  16.435  1.6394 -0.9614  1.3486
 4324TIP3    H234464   2.792   6.156  16.378 -0.4159  3.3998 -0.1646
 4325TIP3   OH234465   0.049   1.397   4.230  0.6859  0.1044 -0.1485
 4325TIP3    H134466   0.115   1.407   4.161 -0.8178 -0.9625 -1.8181
 4325TIP3    H234467  -0.021   1.458   4.205  0.3987  0.1830  0.8064
 4326TIP3   OH234468   1.874   0.530   0.836 -0.4274 -0.3218 -0.0672
 4326TIP3    H134469   1.780   0.514   0.827 -0.8204  0.1897  2.4986
 4326TIP3    H234470   1.902   0.470   0.906  0.7336  0.9213  0.5722
 4327TIP3   OH234471   1.178   3.756  15.343  0.3597 -0.2839  0.4148
 4327TIP3    H134472   1.152   3.717  15.426 -0.4509 -0.7584 -0.0551
 4327TIP3    H234473   1.266   3.723  15.327  0.1481 -0.9441  0.6192
 4328TIP3   OH234474   6.376   4.841   1.375 -0.3552  0.6740 -0.0708
 4328TIP3    H134475   6.287   4.808   1.363 -1.0890  2.5160 -0.0393
 4328TIP3    H234476   6.430   4.763   1.381 -1.7839 -0.4955 -1.4684
 4329TIP3   OH234477   1.679   5.780   0.827 -0.0988  0.5492 -0.2863
 4329TIP3    H134478   1.739   5.801   0.756 -0.8466 -0.1707 -1.1573
 4329TIP3    H234479   1.641   5.696   0.802 -0.4735  0.3503  0.9038
 4330TIP3   OH234480   2.909   3.871  16.196 -0.3641 -0.2221 -0.1467
 4330TIP3    H134481   2.952   3.902  16.277 -1.2807  1.2658 -0.1878
 4330TIP3    H234482   2.963   3.907  16.126 -1.0330  0.7208 -0.1927
 4331TIP3   OH234483   1.125   1.144   5.723 -0.2374  0.2185 -1.0603
 4331TIP3    H134484   1.031   1.136   5.707 -0.1275 -1.4813 -1.0587
 4331TIP3    H234485   1.136   1.119   5.815  0.2182  0.4602 -1.0461
 4332TIP3   OH234486   1.760   4.712   3.952 -0.0968  0.7709 -0.3982
 4332TIP3    H134487   1.725   4.801   3.965 -0.6462  0.5835 -0.5570
 4332TIP3    H234488   1.691   4.654   3.985  0.3936  0.4061 -0.0048
 4333TIP3   OH234489   1.817   5.381   4.325 -0.2640 -0.7822  0.6720
 4333TIP3    H134490   1.812   5.460   4.378  0.3552 -0.8602  0.8505
 4333TIP3    H234491   1.773   5.404   4.243 -0.2711 -0.3207  0.8040
 4334TIP3   OH234492   5.595   3.285  16.771  0.2199  0.3777  0.0330
 4334TIP3    H134493   5.534   3.249  16.707  1.1412  0.7596 -1.0941
 4334TIP3    H234494   5.574   3.239  16.853 -0.5528 -0.5891 -0.6844
 4335TIP3   OH234495   4.119   3.423  13.458 -0.4927  0.6808 -0.2510
 4335TIP3    H134496   4.079   3.426  13.545  0.2156  0.7304  0.0825
 4335TIP3    H234497   4.202   3.470  13.468  0.8289 -1.4802 -0.2734
 4336TIP3   OH234498   1.189   2.661  10.722  0.1210  0.3298  0.8512
 4336TIP3    H134499   1.171   2.571  10.750  0.1397  0.1645  0.3406
 4336TIP3    H234500   1.110   2.689  10.677 -0.0347  0.7128  1.3585
 4337TIP3   OH234501   3.625   3.947  13.329  0.3925  0.1562  0.1277
 4337TIP3    H134502   3.574   3.998  13.391 -0.8374 -2.2616  1.2646
 4337TIP3    H234503   3.562   3.887  13.290  1.7132 -0.4247 -1.2199
 4338TIP3   OH234504   0.295   1.341  17.456  0.0406  0.3890  0.0257
 4338TIP3    H134505   0.311   1.268  17.396 -2.6849 -0.2381 -0.0858
 4338TIP3    H234506   0.358   1.328  17.527  0.2793 -1.5134 -0.4726
 4339TIP3   OH234507   6.371   5.984   1.467 -0.3405 -0.2030 -0.8912
 4339TIP3    H134508   6.384   5.968   1.561 -3.7711 -1.7109 -0.5450
 4339TIP3    H234509   6.367   6.079   1.459 -0.4860 -0.0641  0.5743
 4340TIP3   OH234510   3.383   6.565  17.517 -0.1392 -0.1496 -0.4913
 4340TIP3    H134511   3.417   6.476  17.526 -0.4920 -0.1936  0.5205
 4340TIP3    H234512   3.296   6.553  17.479 -1.4812 -0.5105  2.4732
 4341TIP3   OH234513   3.867   2.008  14.089 -0.2797  0.6797  0.0974
 4341TIP3    H134514   3.868   1.996  13.994  0.9583  0.5736  0.1000
 4341TIP3    H234515   3.889   1.921  14.123 -1.4106  0.5445  0.5205
 4342TIP3   OH234516   3.047   6.093   5.844  0.1309  0.1333 -0.1144
 4342TIP3    H134517   2.986   6.019   5.848  0.0729  0.1211 -0.9797
 4342TIP3    H234518   3.080   6.102   5.933  0.1465 -0.9433 -0.0033
 4343TIP3   OH234519   3.846   3.875   2.366 -0.0707  0.2075 -0.3588
 4343TIP3    H134520   3.892   3.954   2.340 -0.7580  0.4802 -0.7723
 4343TIP3    H234521   3.822   3.833   2.284 -2.3121  1.1041 -0.2150
 4344TIP3   OH234522   0.998   0.110  16.496 -0.1485 -1.0851 -0.2241
 4344TIP3    H134523   0.953   0.193  16.479  1.2710 -0.2893 -0.2056
 4344TIP3    H234524   1.071   0.108  16.435 -0.6110 -2.7149 -0.7718
 4345TIP3   OH234525   4.784   5.046  13.268  0.1239 -0.3956 -0.8460
 4345TIP3    H134526   4.765   5.044  13.174  0.6681 -0.2824 -0.9655
 4345TIP3    H234527   4.872   5.084  13.273 -0.3031  0.5312 -0.2258
 4346TIP3   OH234528   4.944   6.718   3.883 -0.1624  0.2985  0.1924
 4346TIP3    H134529   4.864   6.747   3.840 -0.8617 -1.1269  0.4457
 4346TIP3    H234530   5.013   6.731   3.817 -0.9198 -0.1862 -0.7301
 4347TIP3   OH234531   0.708   0.744   1.245 -0.5482 -0.0928  0.1642
 4347TIP3    H134532   0.656   0.825   1.244  0.0291  0.2968  0.7918
 4347TIP3    H234533   0.674   0.693   1.172 -0.9423  0.7075 -0.2270
 4348TIP3   OH234534   6.243   1.554   3.351  0.5902 -0.1759  0.6582
 4348TIP3    H134535   6.334   1.559   3.378  0.2586  0.7838  1.6749
 4348TIP3    H234536   6.213   1.468   3.380  1.4261 -0.9260 -0.6036
 4349TIP3   OH234537   2.383   3.312  11.903 -0.4463  0.1163 -0.3556
 4349TIP3    H134538   2.386   3.227  11.860 -1.7510  0.0525 -0.3586
 4349TIP3    H234539   2.420   3.297  11.990  0.4486 -0.1746 -0.7741
 4350TIP3   OH234540   1.539   5.711  13.252  0.0803  0.6159 -0.0956
 4350TIP3    H134541   1.485   5.721  13.330  0.4079  1.0602  0.0795
 4350TIP3    H234542   1.610   5.775  13.263  0.6604  0.0219 -0.3018
 4351TIP3   OH234543   4.908   6.399   5.341  0.0069 -0.1024  0.4016
 4351TIP3    H134544   4.957   6.331   5.294  0.6459  0.0404  0.8451
 4351TIP3    H234545   4.975   6.461   5.370 -0.3017 -0.4474  1.9305
 4352TIP3   OH234546   6.265   3.677   3.080  0.2451  0.3815  0.1753
 4352TIP3    H134547   6.289   3.585   3.079 -0.9381  0.0451  0.3687
 4352TIP3    H234548   6.347   3.724   3.065  0.8194 -0.7025 -0.1861
 4353TIP3   OH234549   1.322   4.578  13.377  1.2527 -0.0607 -0.1632
 4353TIP3    H134550   1.314   4.556  13.470 -4.6470  0.3548 -0.1656
 4353TIP3    H234551   1.298   4.671  13.372  0.7687 -0.2416 -2.0975
 4354TIP3   OH234552   0.842   4.244  16.151 -0.3108 -0.1958  0.3483
 4354TIP3    H134553   0.846   4.301  16.075  0.2092  0.5334  0.9050
 4354TIP3    H234554   0.785   4.289  16.213 -0.4407 -0.6072  0.5360
 4355TIP3   OH234555   5.514   0.037   1.030 -0.0044 -0.2448 -0.0326
 4355TIP3    H134556   5.605   0.023   1.058  0.3536  0.4502 -0.7921
 4355TIP3    H234557   5.505   0.132   1.024 -0.9268 -0.2872  0.4498
 4356TIP3   OH234558   4.707   6.292  15.834  0.1790 -0.2243  0.1738
 4356TIP3    H134559   4.788   6.320  15.876  0.6133 -0.1819 -0.6776
 4356TIP3    H234560   4.693   6.203  15.867 -0.1980  0.2731  1.4155
 4357TIP3   OH234561   4.904   0.531   5.668  0.4293  0.3133 -0.1505
 4357TIP3    H134562   4.957   0.499   5.595 -1.0348 -1.1419 -0.6444
 4357TIP3    H234563   4.914   0.626   5.665  0.3249  0.3127 -2.3142
 4358TIP3   OH234564   1.864   3.466   0.045  0.2172 -0.2701 -0.5369
 4358TIP3    H134565   1.881   3.559   0.059 -3.3092  0.3497  0.7629
 4358TIP3    H234566   1.773   3.463   0.015 -0.1414 -3.3509  0.4999
 4359TIP3   OH234567   3.381   3.371   3.586  0.3632 -0.0011  0.5950
 4359TIP3    H134568   3.437   3.373   3.663 -0.4719  0.3907  1.2103
 4359TIP3    H234569   3.334   3.454   3.589 -0.7353 -0.5994  0.4795
 4360TIP3   OH234570   4.361   5.913   5.090 -0.1531 -0.0253  0.2722
 4360TIP3    H134571   4.336   5.932   5.000 -0.3416 -1.1546  0.0802
 4360TIP3    H234572   4.309   5.837   5.115 -0.6315  0.6847  1.5804
 4361TIP3   OH234573   0.545   0.257   5.028 -0.2337  0.0574  0.5107
 4361TIP3    H134574   0.582   0.177   5.065 -1.8322 -0.4034  1.1899
 4361TIP3    H234575   0.612   0.323   5.042  0.7437 -0.9586  0.7516
 4362TIP3   OH234576   4.611   0.275  17.130  0.5379  0.0678 -0.1565
 4362TIP3    H134577   4.626   0.317  17.045 -1.0717 -1.3685 -1.2326
 4362TIP3    H234578   4.630   0.182  17.114 -0.4518 -0.3305  0.8696
 4363TIP3   OH234579   2.498   0.220   2.366  0.3362  0.5799 -0.0813
 4363TIP3    H134580   2.480   0.243   2.457 -4.3513  0.7032 -0.7866
 4363TIP3    H234581   2.548   0.138   2.372  1.8866  1.5850  2.4839
 4364TIP3   OH234582   0.766   6.035   6.833  0.5640  0.4999 -0.1418
 4364TIP3    H134583   0.777   6.095   6.908  0.8989  0.8777 -0.4881
 4364TIP3    H234584   0.739   6.091   6.761  1.6114  0.3614 -0.6670
 4365TIP3   OH234585   1.373   1.898  16.849  0.0837  0.2374 -0.4729
 4365TIP3    H134586   1.438   1.955  16.889  0.2780  0.9918 -1.8078
 4365TIP3    H234587   1.363   1.931  16.760 -0.5631 -1.1908 -0.9643
 4366TIP3   OH234588   2.650   4.280   4.494  0.4715  0.2941  0.9059
 4366TIP3    H134589   2.673   4.188   4.508 -0.7981 -0.3138 -0.6132
 4366TIP3    H234590   2.558   4.278   4.466  0.2283  2.0926  1.4349
 4367TIP3   OH234591   6.593   4.212   6.458 -0.4487  0.2098  0.2624
 4367TIP3    H134592   6.507   4.174   6.440 -1.1899  1.2094  1.5075
 4367TIP3    H234593   6.629   4.156   6.526 -0.1717 -0.1085 -0.1398
 4368TIP3   OH234594   0.588   3.142  14.400  0.4060 -0.6598  0.3645
 4368TIP3    H134595   0.676   3.172  14.377  0.0078 -0.4517 -0.9467
 4368TIP3    H234596   0.602   3.085  14.476  1.5187  0.3882  0.9895
 4369TIP3   OH234597   4.347   2.841  14.548  0.2851  0.0946 -0.9131
 4369TIP3    H134598   4.388   2.782  14.611 -0.3430  0.1274 -0.4669
 4369TIP3    H234599   4.397   2.922  14.555  0.3616  0.0227 -0.6173
 4370TIP3   OH234600   1.655   5.499  11.364 -0.1249 -0.4133 -0.3767
 4370TIP3    H134601   1.623   5.467  11.280  0.9675  1.6540 -1.6369
 4370TIP3    H234602   1.582   5.550  11.400 -0.0476  0.0260 -0.8319
 4371TIP3   OH234603   3.453   1.617  15.484  0.2207  0.3414  0.2962
 4371TIP3    H134604   3.487   1.640  15.397 -0.6769  1.4336  0.2164
 4371TIP3    H234605   3.363   1.649  15.484 -0.4628 -1.4377  0.9326
 4372TIP3   OH234606   3.759   0.766  13.499 -0.5937  0.0778  0.4410
 4372TIP3    H134607   3.830   0.817  13.537  0.6510 -1.2073 -0.0779
 4372TIP3    H234608   3.681   0.821  13.510  0.8614  2.6966 -1.3270
 4373TIP3   OH234609   3.368   5.654  13.283  0.3356  0.2908  0.1894
 4373TIP3    H134610   3.390   5.564  13.308 -1.7912  0.0248  1.2990
 4373TIP3    H234611   3.332   5.645  13.194  1.4365  0.2786 -0.2762
 4374TIP3   OH234612   1.203   6.428  14.882  0.7395  0.1489  0.1785
 4374TIP3    H134613   1.142   6.480  14.933  1.8080  0.7383  0.8763
 4374TIP3    H234614   1.256   6.382  14.947 -0.4801 -2.2419 -0.3936
 4375TIP3   OH234615   6.221   3.220   5.563  0.4033  0.0917  0.8200
 4375TIP3    H134616   6.198   3.307   5.595 -1.1826 -0.3618  0.9706
 4375TIP3    H234617   6.193   3.220   5.471  1.1324 -0.0142  0.5850
 4376TIP3   OH234618   2.909   3.574  12.496 -0.0193 -0.5923  0.3952
 4376TIP3    H134619   2.873   3.550  12.411  0.3957 -1.1063  0.3596
 4376TIP3    H234620   2.876   3.508  12.557  1.3797 -1.4794  0.2401
 4377TIP3   OH234621   1.276   5.947   1.450  0.1813  0.1394  0.0178
 4377TIP3    H134622   1.214   6.004   1.405  1.3642  1.0096 -0.5715
 4377TIP3    H234623   1.361   5.988   1.435  0.7926 -0.4403  1.7020
 4378TIP3   OH234624   4.478   1.830  13.233  0.2718 -0.6766  0.2291
 4378TIP3    H134625   4.419   1.871  13.297  0.3130  0.9431 -0.7284
 4378TIP3    H234626   4.546   1.895  13.218  1.7039 -2.0753  0.4372
 4379TIP3   OH234627   2.028   3.314  14.163 -0.0631 -0.9442 -0.2519
 4379TIP3    H134628   2.064   3.402  14.175  0.2901 -1.0398 -0.6026
 4379TIP3    H234629   2.018   3.280  14.252  1.6504 -1.2865 -0.1628
 4380TIP3   OH234630   0.424   5.624   5.143 -0.2187  0.4424 -0.3430
 4380TIP3    H134631   0.365   5.578   5.084 -1.7899  1.8184  0.0585
 4380TIP3    H234632   0.402   5.717   5.131  0.0455  0.8176  1.7050
 4381TIP3   OH234633   0.416   6.714   5.341 -0.1357  0.0441 -0.0891
 4381TIP3    H134634   0.410   6.719   5.245  1.9036 -1.1084 -0.3243
 4381TIP3    H234635   0.412   6.620   5.360  3.1105 -0.0639  0.5850
 4382TIP3   OH234636   3.175   2.417  16.381  0.3988 -0.1380 -0.5184
 4382TIP3    H134637   3.181   2.382  16.292  2.2161 -0.6110 -0.2612
 4382TIP3    H234638   3.086   2.398  16.409  0.4922 -2.0993 -1.4142
 4383TIP3   OH234639   1.147   2.261   5.343  0.2501 -0.1760 -0.3185
 4383TIP3    H134640   1.214   2.239   5.408  0.4440 -0.1806 -0.5163
 4383TIP3    H234641   1.159   2.355   5.327 -1.3170  0.3669  1.3643
 4384TIP3   OH234642   4.875   2.272   2.180  0.6571 -0.2631 -0.5792
 4384TIP3    H134643   4.780   2.261   2.190  0.7053 -0.3193 -0.1414
 4384TIP3    H234644   4.887   2.294   2.088  0.3046 -1.1764 -0.8545
 4385TIP3   OH234645   0.707   0.315  12.077  0.6125 -0.5761 -0.3801
 4385TIP3    H134646   0.652   0.322  11.998 -0.1319 -0.3844  0.1398
 4385TIP3    H234647   0.666   0.246  12.128 -0.0908  0.6056  0.7270
 4386TIP3   OH234648   3.550   4.387  17.037  0.2636 -0.5031  0.1656
 4386TIP3    H134649   3.581   4.400  17.127  1.0777  0.2769 -0.2125
 4386TIP3    H234650   3.585   4.462  16.989 -1.1008 -0.3181 -0.5796
 4387TIP3   OH234651   4.262   2.866   5.826  0.2881 -0.3281  0.2680
 4387TIP3    H134652   4.353   2.861   5.854 -0.1795 -3.4310  1.7226
 4387TIP3    H234653   4.211   2.860   5.907 -1.2387  0.8921 -0.5358
 4388TIP3   OH234654   6.319   4.460  12.631 -0.1199  0.7410 -0.2368
 4388TIP3    H134655   6.303   4.443  12.538 -2.6454  1.1697  0.0456
 4388TIP3    H234656   6.399   4.512  12.632  1.4256 -1.3886 -1.9321
 4389TIP3   OH234657   2.000   0.013  15.949 -0.5008 -0.6297  0.7072
 4389TIP3    H134658   2.038   0.022  16.037 -0.5537 -0.0011  0.6680
 4389TIP3    H234659   2.076   0.018  15.891 -0.4247 -1.4094  0.7296
 4390TIP3   OH234660   3.787   4.734   1.462  0.3757 -0.6591  0.2327
 4390TIP3    H134661   3.801   4.790   1.385 -0.7131 -1.0518 -0.2732
 4390TIP3    H234662   3.780   4.646   1.427  0.9849 -0.9893  0.9154
 4391TIP3   OH234663   0.017   5.100   4.182  0.0876 -0.0885  0.2227
 4391TIP3    H134664   0.064   5.025   4.147  0.0861 -0.1704  0.3923
 4391TIP3    H234665   0.023   5.167   4.114  1.2772  0.2366  0.6152
 4392TIP3   OH234666   2.217   1.988  15.447  0.3754 -0.3411 -0.5966
 4392TIP3    H134667   2.206   1.923  15.517  1.2583 -0.2440 -0.3509
 4392TIP3    H234668   2.128   2.017  15.426 -0.1156 -2.3004 -1.3666
 4393TIP3   OH234669   5.090   6.027   6.015  0.4573 -0.6622  1.0019
 4393TIP3    H134670   5.063   6.033   6.107 -2.1469  1.2821  0.2332
 4393TIP3    H234671   5.130   6.112   5.996  3.4633 -1.9619  0.9160
 4394TIP3   OH234672   2.059   2.765  11.683 -0.2921 -0.0185  0.5683
 4394TIP3    H134673   2.056   2.858  11.704  0.2096  0.0852  0.1735
 4394TIP3    H234674   2.152   2.743  11.680 -0.3975 -0.4407  0.2553
 4395TIP3   OH234675   0.809   0.510   3.047  0.1706  0.0787 -0.4648
 4395TIP3    H134676   0.728   0.550   3.015 -0.8737 -1.0503  0.6250
 4395TIP3    H234677   0.817   0.428   2.998  0.8859  0.3718 -0.8513
 4396TIP3   OH234678   3.554   6.034   2.829  0.4806 -0.1782  0.0686
 4396TIP3    H134679   3.577   6.008   2.919  1.3025 -0.4965 -0.2221
 4396TIP3    H234680   3.635   6.070   2.793 -0.4564  2.2903  0.2355
 4397TIP3   OH234681   0.822   0.455  13.720  0.1494 -0.2019  0.2349
 4397TIP3    H134682   0.771   0.536  13.724  0.7355  0.1257  1.7781
 4397TIP3    H234683   0.912   0.484  13.703  0.3030 -0.5523  0.4393
 4398TIP3   OH234684   6.241   0.992  16.401  0.1412 -0.2803 -0.6682
 4398TIP3    H134685   6.255   0.939  16.323 -1.5351 -1.4069 -0.2493
 4398TIP3    H234686   6.209   0.929  16.467  2.1424  0.4980  1.1534
 4399TIP3   OH234687   2.564   3.524   5.155 -0.0501  0.1806 -0.0034
 4399TIP3    H134688   2.628   3.595   5.153  1.8397 -1.4048  0.7420
 4399TIP3    H234689   2.555   3.497   5.064  1.1143 -0.1888 -0.0281
 4400TIP3   OH234690   2.689   3.945   1.210  0.0293 -0.1884 -0.0298
 4400TIP3    H134691   2.755   4.012   1.223 -0.6542  0.1592  2.1034
 4400TIP3    H234692   2.738   3.864   1.201  0.7861 -0.0523  2.3271
 4401TIP3   OH234693   0.156   3.269  15.293 -0.1628  0.5240 -0.3150
 4401TIP3    H134694   0.111   3.266  15.208  0.6204  0.4024 -0.7367
 4401TIP3    H234695   0.242   3.306  15.273  0.2124  0.0188  0.3409
 4402TIP3   OH234696   3.342   5.223  14.616 -0.2254 -0.3068  0.4975
 4402TIP3    H134697   3.353   5.315  14.639  0.7778 -0.6051  1.2834
 4402TIP3    H234698   3.348   5.221  14.520  6.8262 -0.2532  0.4405
 4403TIP3   OH234699   6.271   1.241   2.129 -0.2120 -0.0650 -0.5002
 4403TIP3    H134700   6.273   1.324   2.177  1.1371  0.5308 -1.5198
 4403TIP3    H234701   6.216   1.184   2.182  2.3509  0.0648  2.5878
 4404TIP3   OH234702   3.270   1.412  12.674 -0.2216 -0.1024  0.6811
 4404TIP3    H134703   3.358   1.445  12.653 -1.0459  0.8573 -1.7029
 4404TIP3    H234704   3.277   1.317  12.666  0.8375 -0.1158  1.6163
 4405TIP3   OH234705   0.988   6.461   3.669 -0.1034 -0.0322  0.0087
 4405TIP3    H134706   0.929   6.389   3.646 -0.3810 -0.3518  1.5798
 4405TIP3    H234707   0.945   6.539   3.634 -0.0856 -0.5531 -1.2126
 4406TIP3   OH234708   1.375   1.407   1.019 -0.2832 -0.7951 -1.1788
 4406TIP3    H134709   1.459   1.367   0.996  0.2876 -0.8468  0.8171
 4406TIP3    H234710   1.363   1.385   1.112 -1.0721  1.6730 -0.6256
 4407TIP3   OH234711   4.168   5.207  12.896  0.2224  0.5255 -0.3089
 4407TIP3    H134712   4.235   5.259  12.852 -0.1941  0.7742 -0.6560
 4407TIP3    H234713   4.085   5.238  12.859 -0.2075  1.3442  1.2458
 4408TIP3   OH234714   3.461   4.606   3.936 -0.0389  0.0401  0.0536
 4408TIP3    H134715   3.488   4.687   3.980  2.3894 -0.5239 -0.2670
 4408TIP3    H234716   3.379   4.583   3.979 -0.9731  2.7878 -0.0367
 4409TIP3   OH234717   3.788   3.364   4.186 -0.2401  0.4002 -0.4404
 4409TIP3    H134718   3.849   3.350   4.259 -0.1899  2.2825 -0.0674
 4409TIP3    H234719   3.843   3.399   4.116 -0.7897  1.6987 -0.2497
 4410TIP3   OH234720   2.880   4.235  12.159 -0.3747 -0.0887  0.2386
 4410TIP3    H134721   2.891   4.190  12.242 -1.1853 -1.1960 -0.2335
 4410TIP3    H234722   2.846   4.321  12.183 -0.1096 -0.2061  1.0694
 4411TIP3   OH234723   1.092   6.719  14.192  0.5884  0.2274 -0.0469
 4411TIP3    H134724   1.163   6.719  14.127  0.8762 -0.7011  0.2556
 4411TIP3    H234725   1.027   6.660  14.155 -0.0271  1.0362 -0.2963
 4412TIP3   OH234726   6.183   2.490  12.002 -0.7211 -0.0327  0.0301
 4412TIP3    H134727   6.116   2.451  12.060 -0.4045  0.0674  0.4706
 4412TIP3    H234728   6.168   2.449  11.917 -1.7188  0.4143 -0.0269
 4413TIP3   OH234729   1.725   4.817   4.602  0.1206  0.4318 -0.7227
 4413TIP3    H134730   1.768   4.870   4.535 -0.5819  0.9491 -0.7860
 4413TIP3    H234731   1.641   4.793   4.563 -0.0748  0.3026 -0.2289
 4414TIP3   OH234732   3.887   4.619   0.126 -0.4907  0.0067  0.4827
 4414TIP3    H134733   3.945   4.544   0.137  1.6774  1.3589 -0.9185
 4414TIP3    H234734   3.841   4.627   0.210 -0.6945 -2.7470  0.7080
 4415TIP3   OH234735   6.385   0.191   4.902  0.4260 -0.1301  0.6263
 4415TIP3    H134736   6.430   0.135   4.965  0.4361 -1.3106 -0.3911
 4415TIP3    H234737   6.313   0.137   4.869 -0.4000  0.9451  0.5933
 4416TIP3   OH234738   6.314   2.125   0.678  0.2403 -0.1480 -0.2022
 4416TIP3    H134739   6.361   2.042   0.664  0.3234  0.1733 -2.0001
 4416TIP3    H234740   6.318   2.170   0.594 -1.6785  0.7416  0.1226
 4417TIP3   OH234741   2.784   5.067  15.082 -0.6117 -0.4167 -0.3496
 4417TIP3    H134742   2.766   5.149  15.128 -2.5555 -0.7144 -0.5112
 4417TIP3    H234743   2.782   5.001  15.151  1.3434 -0.3413 -0.1556
 4418TIP3   OH234744   1.497   0.074   0.208  0.3267  0.0215  0.4753
 4418TIP3    H134745   1.584   0.080   0.169  0.5415  0.7433  1.0326
 4418TIP3    H234746   1.440   0.046   0.137  1.4979 -3.7635  0.7968
 4419TIP3   OH234747   3.740   4.160   0.205  0.4498  0.5564 -0.2124
 4419TIP3    H134748   3.819   4.192   0.248 -0.5268  3.3931 -0.2987
 4419TIP3    H234749   3.671   4.171   0.271 -0.0399 -1.2011 -0.3739
 4420TIP3   OH234750   3.939   6.729  14.350 -0.6163 -0.6505 -0.0736
 4420TIP3    H134751   4.034   6.738  14.343 -0.3952 -0.3757  2.4089
 4420TIP3    H234752   3.904   6.786  14.282  0.9939  1.4303  0.7236
 4421TIP3   OH234753   3.964   2.138   4.802 -0.4464 -1.3670 -0.2621
 4421TIP3    H134754   4.019   2.079   4.853  2.1545 -0.9461 -2.3597
 4421TIP3    H234755   3.983   2.225   4.836 -1.2460 -1.3600  0.1960
 4422TIP3   OH234756   0.108   0.836  11.300 -0.5748  0.6346  0.2418
 4422TIP3    H134757   0.021   0.871  11.317 -0.9521  1.5379 -2.8985
 4422TIP3    H234758   0.152   0.904  11.248  1.2262 -0.6862 -0.0806
 4423TIP3   OH234759   6.002   2.402   4.804  0.5524 -0.4940 -0.3678
 4423TIP3    H134760   5.985   2.308   4.803 -0.0805 -0.4255  1.4258
 4423TIP3    H234761   5.999   2.427   4.711 -2.0609 -1.7484 -0.7080
 4424TIP3   OH234762   0.679   5.465   6.418  0.7143 -0.8498  0.2848
 4424TIP3    H134763   0.736   5.394   6.447  2.3959  0.0013 -0.7820
 4424TIP3    H234764   0.685   5.531   6.487  3.1133  0.3090 -0.8935
 4425TIP3   OH234765   3.177   5.592   0.131 -0.3463  0.4024 -0.0970
 4425TIP3    H134766   3.256   5.559   0.172  0.5057  0.3447 -1.7188
 4425TIP3    H234767   3.203   5.676   0.092 -1.4697  1.1047  0.5889
 4426TIP3   OH234768   1.865   1.808   1.174 -0.0674 -0.3275  0.0657
 4426TIP3    H134769   1.870   1.867   1.098  1.7147  0.6728  0.9004
 4426TIP3    H234770   1.954   1.806   1.209 -0.7059 -1.2854  1.7562
 4427TIP3   OH234771   5.314   6.199   3.036 -0.3059 -0.6807  0.0300
 4427TIP3    H134772   5.315   6.285   3.076 -3.2714 -1.7593  2.8871
 4427TIP3    H234773   5.384   6.151   3.080  0.0014 -0.3299 -0.0733
 4428TIP3   OH234774   6.700   2.344   4.673  0.0915 -0.2886  0.3086
 4428TIP3    H134775   6.750   2.405   4.619  0.0433  0.7723  1.4260
 4428TIP3    H234776   6.741   2.349   4.759 -1.7893  0.4430  1.1960
 4429TIP3   OH234777   3.132   2.979  13.110 -0.5456  0.0608  0.0264
 4429TIP3    H134778   3.150   3.069  13.086  0.2054 -0.0130  0.2724
 4429TIP3    H234779   3.106   2.983  13.202  2.1805 -0.2191  0.8965
 4430TIP3   OH234780   5.700   3.953   5.230 -0.1973 -0.1832  0.3969
 4430TIP3    H134781   5.753   3.989   5.300  0.2949 -0.0465 -0.0411
 4430TIP3    H234782   5.618   3.928   5.273  0.0117  0.0990  0.9755
 4431TIP3   OH234783   3.552   4.507   3.187  0.3863  0.1730  0.2219
 4431TIP3    H134784   3.547   4.593   3.227 -0.7142  0.0788  0.3272
 4431TIP3    H234785   3.599   4.453   3.250 -0.2020  0.3460  0.8213
 4432TIP3   OH234786   6.487   0.320   0.549  0.0448 -0.2957 -0.2976
 4432TIP3    H134787   6.418   0.374   0.510 -0.4504  0.7498  1.8919
 4432TIP3    H234788   6.564   0.377   0.552  0.0618 -0.3474  0.2951
 4433TIP3   OH234789   3.010   2.975   3.069  0.3234  0.3112  0.3648
 4433TIP3    H134790   3.034   2.895   3.114  2.9519  0.6688 -0.2361
 4433TIP3    H234791   3.040   3.045   3.127 -0.9269  0.8654  0.3745
 4434TIP3   OH234792   1.283   2.096   1.759  0.5960  0.4116 -0.2194
 4434TIP3    H134793   1.198   2.116   1.798  0.1876  1.8830 -1.7365
 4434TIP3    H234794   1.263   2.065   1.671  1.6253  1.4347 -0.8472
 4435TIP3   OH234795   2.342   1.776   0.186  0.2400  0.5134  0.3932
 4435TIP3    H134796   2.370   1.811   0.101  0.7805  1.1829  0.8343
 4435TIP3    H234797   2.247   1.775   0.182  0.2688 -0.0595 -0.4553
 4436TIP3   OH234798   5.304   3.775   2.899 -0.6425  0.4829 -0.0265
 4436TIP3    H134799   5.337   3.686   2.910 -0.3727  0.6371  0.4657
 4436TIP3    H234800   5.309   3.813   2.987 -2.9357  0.2393  0.2656
 4437TIP3   OH234801   5.560   3.718   6.074 -0.0278  0.6597 -0.1746
 4437TIP3    H134802   5.563   3.655   6.003 -0.7054  0.8592 -0.3888
 4437TIP3    H234803   5.553   3.665   6.153  1.7846  0.3993 -0.1536
 4438TIP3   OH234804   2.253   1.284   5.198  0.0103  0.0875 -0.5424
 4438TIP3    H134805   2.198   1.356   5.229  0.4816  0.7389 -1.1768
 4438TIP3    H234806   2.216   1.206   5.238 -0.5545  0.6784  0.1070
 4439TIP3   OH234807   3.162   1.672  15.476  0.1396 -0.0144  0.3168
 4439TIP3    H134808   3.078   1.630  15.462  0.6417 -1.1173  0.5377
 4439TIP3    H234809   3.140   1.762  15.502 -0.9340 -0.0618 -0.3831
 4440TIP3   OH234810   5.934   6.014   3.234  0.0904 -0.0962 -0.1476
 4440TIP3    H134811   5.991   5.938   3.238  1.9497  0.9187 -3.4320
 4440TIP3    H234812   5.992   6.089   3.249 -1.2371  0.8014  0.7642
 4441TIP3   OH234813   0.437   6.608  15.054  0.5361 -0.1831  0.0229
 4441TIP3    H134814   0.349   6.643  15.064 -0.2677 -1.4606 -2.0237
 4441TIP3    H234815   0.492   6.685  15.038 -0.4926  0.4977 -0.3275
 4442TIP3   OH234816   3.739   0.285   2.698 -0.3037  0.6087  0.2473
 4442TIP3    H134817   3.728   0.308   2.605 -1.2124  1.1329  0.4675
 4442TIP3    H234818   3.650   0.263   2.727 -0.0580  0.6731  1.0565
 4443TIP3   OH234819   5.366   5.272  16.325  0.2189  0.1078  0.6615
 4443TIP3    H134820   5.425   5.201  16.352  1.3285  0.2970 -1.1008
 4443TIP3    H234821   5.318   5.236  16.250 -0.6594  0.5581  0.9981
 4444TIP3   OH234822   5.475   6.714  12.281 -0.1168  0.5348  0.0223
 4444TIP3    H134823   5.570   6.727  12.288  0.2343 -0.8618 -1.6782
 4444TIP3    H234824   5.445   6.785  12.225 -0.2301  1.4019  1.1357
 4445TIP3   OH234825   0.334   2.447   3.486  0.2396 -0.5168 -0.2068
 4445TIP3    H134826   0.265   2.498   3.527  1.3466  0.8562  0.0272
 4445TIP3    H234827   0.292   2.406   3.410 -0.8153  0.2990 -0.0831
 4446TIP3   OH234828   2.810   5.965   4.155 -0.5411  0.3765  0.4362
 4446TIP3    H134829   2.808   6.059   4.137  0.6477  0.9787  2.9781
 4446TIP3    H234830   2.797   5.959   4.250 -0.7019 -2.0551  0.3137
 4447TIP3   OH234831   4.007   0.728   2.340 -0.3055 -0.3949  0.8034
 4447TIP3    H134832   4.022   0.719   2.246  0.2726  1.0785  0.7387
 4447TIP3    H234833   3.969   0.815   2.351 -1.6399 -1.0703  1.8149
 4448TIP3   OH234834   3.238   0.742  16.918  0.1223 -0.3452 -0.4989
 4448TIP3    H134835   3.178   0.797  16.867  1.4426  2.1173  0.4102
 4448TIP3    H234836   3.191   0.722  16.999 -1.2014 -2.5483 -1.7190
 4449TIP3   OH234837   4.005   2.206  10.854  0.0791  0.0098 -0.0098
 4449TIP3    H134838   4.098   2.230  10.854  0.3845 -1.0768  0.7671
 4449TIP3    H234839   4.005   2.111  10.857 -1.0825 -0.2679 -3.8708
 4450TIP3   OH234840   5.286   5.577  16.666 -0.2133 -0.0062 -0.0474
 4450TIP3    H134841   5.376   5.565  16.636 -0.0117  0.5901  0.2962
 4450TIP3    H234842   5.294   5.589  16.761 -0.6671 -0.0656  0.0005
 4451TIP3   OH234843   4.952   6.703  17.454  0.0853 -0.6953 -0.1262
 4451TIP3    H134844   4.974   6.635  17.390 -1.2983 -0.4232 -0.9430
 4451TIP3    H234845   4.860   6.724  17.436 -0.5719 -1.0450  2.3703
 4452TIP3   OH234846   5.584   0.890   0.840 -0.1487  0.1352 -0.4218
 4452TIP3    H134847   5.539   0.926   0.763  1.2549  1.3841 -0.6961
 4452TIP3    H234848   5.542   0.933   0.914  1.9693  3.0601 -0.7711
 4453TIP3   OH234849   4.329   3.587  14.739 -0.2155 -0.6921 -0.2605
 4453TIP3    H134850   4.269   3.585  14.813 -0.0890  0.6455 -0.0833
 4453TIP3    H234851   4.278   3.555  14.665 -1.1348  0.3015 -0.0840
 4454TIP3   OH234852   6.552   6.278   0.940 -0.4413  0.7908 -0.1171
 4454TIP3    H134853   6.460   6.254   0.953 -0.5634  0.7262 -0.9923
 4454TIP3    H234854   6.598   6.194   0.935 -0.8236  0.6323 -2.8688
 4455TIP3   OH234855   2.053   3.459   5.764  0.3703 -0.5977 -0.7661
 4455TIP3    H134856   2.121   3.396   5.788  1.3917  0.6659 -0.2023
 4455TIP3    H234857   1.988   3.452   5.833  1.1939 -0.0376  0.0999
 4456TIP3   OH234858   6.402   3.916  12.171 -0.2040 -0.5751 -0.5022
 4456TIP3    H134859   6.480   3.947  12.216  0.4451 -2.4921 -0.2396
 4456TIP3    H234860   6.330   3.966  12.211  0.7783  0.6421 -0.1956
 4457TIP3   OH234861   5.386   6.453   3.139  0.0324  0.3837  0.4639
 4457TIP3    H134862   5.331   6.503   3.078  0.9976 -0.1759 -0.9083
 4457TIP3    H234863   5.475   6.480   3.120  0.5244 -1.2554  0.2213
 4458TIP3   OH234864   4.447   5.455   2.550  0.3865 -0.0410  0.2305
 4458TIP3    H134865   4.517   5.520   2.558  1.9056 -1.5892  0.1930
 4458TIP3    H234866   4.471   5.387   2.612 -1.5581 -0.2699  0.8055
 4459TIP3   OH234867   0.695   4.159  17.276  0.5450 -0.0949  0.3826
 4459TIP3    H134868   0.636   4.198  17.340  0.1396 -2.1189  1.3174
 4459TIP3    H234869   0.735   4.085  17.321  2.4880  0.1586 -0.7974
 4460TIP3   OH234870   2.651   6.200  11.718  0.7991  0.0202 -0.1895
 4460TIP3    H134871   2.610   6.176  11.801  2.4083 -0.4626  0.5082
 4460TIP3    H234872   2.610   6.142  11.653 -1.1722  1.0540  0.0379
 4461TIP3   OH234873   3.874   0.646  16.963 -0.2113 -0.1980 -0.1189
 4461TIP3    H134874   3.849   0.731  16.926  0.8578 -0.0182 -0.4497
 4461TIP3    H234875   3.919   0.601  16.891  1.5378 -0.0147  0.8225
 4462TIP3   OH234876   2.571   3.832  11.579  0.3569  0.2639  0.4374
 4462TIP3    H134877   2.665   3.815  11.577  0.5223  1.1865  0.0338
 4462TIP3    H234878   2.561   3.912  11.630 -0.0869  0.8569 -0.5454
 4463TIP3   OH234879   5.857   0.345  15.250  0.2315 -0.3534  0.3646
 4463TIP3    H134880   5.807   0.348  15.168 -0.2018  0.0749  0.6374
 4463TIP3    H234881   5.791   0.356  15.319  0.9319  3.1871  0.6776
 4464TIP3   OH234882   4.372   3.202  14.399 -0.4106 -0.4457  0.2307
 4464TIP3    H134883   4.459   3.238  14.380  0.2767 -1.5766  1.0645
 4464TIP3    H234884   4.334   3.183  14.314 -1.4367  3.5037 -0.3803
 4465TIP3   OH234885   2.638   2.855  12.459  0.1348 -0.2145 -0.3901
 4465TIP3    H134886   2.633   2.817  12.371  0.2854 -1.1022 -0.0234
 4465TIP3    H234887   2.731   2.871  12.473 -0.0366  1.5829 -1.0643
 4466TIP3   OH234888   4.891   2.567  14.896  0.1060 -0.0092 -1.1397
 4466TIP3    H134889   4.855   2.651  14.866 -0.7339  0.1065  0.1485
 4466TIP3    H234890   4.963   2.550  14.835  0.1826  1.5498 -1.5457
 4467TIP3   OH234891   1.607   4.940   1.061 -0.0029 -0.2247 -0.0709
 4467TIP3    H134892   1.543   4.956   0.992  0.1285 -0.7013 -0.3093
 4467TIP3    H234893   1.608   5.020   1.113 -0.8109 -0.2236 -0.0485
 4468TIP3   OH234894   1.822   6.330  14.762 -0.1584 -0.1952 -0.5462
 4468TIP3    H134895   1.785   6.264  14.703  0.7506  1.1888 -2.7994
 4468TIP3    H234896   1.900   6.362  14.716  0.6637  0.8901  1.5007
 4469TIP3   OH234897   5.345   5.733  16.264 -0.3410  0.6720 -0.1249
 4469TIP3    H134898   5.336   5.683  16.345 -0.9799  0.0975 -0.5379
 4469TIP3    H234899   5.282   5.694  16.205  0.8154  0.4419 -1.2359
 4470TIP3   OH234900   6.079   1.641   5.695  0.3915  0.0266  0.4463
 4470TIP3    H134901   6.018   1.687   5.753  1.7762  2.1497  0.3626
 4470TIP3    H234902   6.050   1.663   5.607 -0.4180 -1.3883  0.3406
 4471TIP3   OH234903   5.800   5.632   0.641 -0.8721 -0.3895  0.5907
 4471TIP3    H134904   5.871   5.574   0.667 -1.0323 -1.0059 -0.2739
 4471TIP3    H234905   5.779   5.604   0.551 -1.0390  0.9256  0.2022
 4472TIP3   OH234906   0.199   5.297  11.261  0.3096 -0.1493 -0.0286
 4472TIP3    H134907   0.194   5.205  11.236 -0.0469  0.1381 -1.0322
 4472TIP3    H234908   0.132   5.307  11.329  0.6566 -0.7219  0.4124
 4473TIP3   OH234909   5.157   0.738  14.696 -0.0978 -0.2085  0.4244
 4473TIP3    H134910   5.242   0.783  14.700 -0.4986  0.8212 -1.3069
 4473TIP3    H234911   5.172   0.664  14.636 -0.2687 -0.4147  0.6330
 4474TIP3   OH234912   6.220   5.752   5.733 -0.5415  0.5396  0.1829
 4474TIP3    H134913   6.180   5.759   5.646  0.3436 -0.0048 -0.2821
 4474TIP3    H234914   6.313   5.769   5.718 -0.5517  1.6743  1.2338
 4475TIP3   OH234915   4.085   4.156   5.416  0.5775 -0.4169  0.5643
 4475TIP3    H134916   4.028   4.126   5.487 -0.9081 -0.7860 -0.7147
 4475TIP3    H234917   4.096   4.079   5.360 -0.6068  0.5341 -1.0610
 4476TIP3   OH234918   3.664   1.892   0.334  0.1682  0.0591 -0.0537
 4476TIP3    H134919   3.597   1.860   0.273  1.0733  0.4387 -1.2854
 4476TIP3    H234920   3.688   1.978   0.300  1.3741 -0.1322  0.2986
 4477TIP3   OH234921   5.666   2.171  14.641 -0.1884 -0.4797 -0.8531
 4477TIP3    H134922   5.640   2.080  14.652 -0.6263 -0.4144 -1.2982
 4477TIP3    H234923   5.717   2.172  14.560 -0.5864 -0.2580 -1.1070
 4478TIP3   OH234924   5.594   0.999   3.113 -0.1106  0.5927  0.4519
 4478TIP3    H134925   5.573   1.025   3.203 -0.6650  1.2644  0.1340
 4478TIP3    H234926   5.646   1.072   3.079  0.3666  0.1963  0.3297
 4479TIP3   OH234927   6.758   0.140   0.420  0.2876 -0.4925 -0.1599
 4479TIP3    H134928   6.838   0.158   0.370  2.0687 -2.1853  1.8634
 4479TIP3    H234929   6.759   0.205   0.490  1.4096 -2.0681  1.3869
 4480TIP3   OH234930   1.954   2.654   0.679 -0.5369  0.2461 -1.0655
 4480TIP3    H134931   1.938   2.741   0.715  0.0987 -0.7199  1.8208
 4480TIP3    H234932   2.042   2.659   0.640 -0.0484  0.6585  0.0474
 4481TIP3   OH234933   5.401   4.123  17.199 -0.2328  0.2631  0.0098
 4481TIP3    H134934   5.479   4.167  17.166  1.1553 -0.4410  2.1218
 4481TIP3    H234935   5.329   4.184  17.180  0.8144  1.0372 -1.7809
 4482TIP3   OH234936   3.626   4.811  11.844 -0.2217 -0.3178  0.2494
 4482TIP3    H134937   3.647   4.812  11.750 -2.1956  0.7394 -0.2272
 4482TIP3    H234938   3.711   4.812  11.887  0.7444 -0.9134 -1.5157
 4483TIP3   OH234939   1.779   0.781   6.118 -0.4368  0.3797 -0.2470
 4483TIP3    H134940   1.755   0.722   6.190 -1.6582  0.8575 -0.2477
 4483TIP3    H234941   1.791   0.866   6.160 -1.8950  0.8265 -0.6908
 4484TIP3   OH234942   6.095   6.076  11.840 -0.5610  0.0974  0.4439
 4484TIP3    H134943   6.168   6.017  11.823 -1.0287 -1.1966  2.6845
 4484TIP3    H234944   6.019   6.019  11.854 -1.4711  1.3119  0.6938
 4485TIP3   OH234945   6.089   2.128   5.658 -0.1694 -0.6390 -0.2569
 4485TIP3    H134946   6.154   2.183   5.702 -1.2467 -0.7094  1.5400
 4485TIP3    H234947   6.090   2.046   5.708 -1.7004 -0.5828 -0.0892
 4486TIP3   OH234948   0.839   3.968  15.625 -0.6727 -0.1353 -0.7050
 4486TIP3    H134949   0.798   3.917  15.695 -0.1861 -1.0596 -1.0752
 4486TIP3    H234950   0.833   4.059  15.655 -1.8518 -0.3613 -0.1795
 4487TIP3   OH234951   6.534   1.357   0.196  0.6536 -0.1891 -0.3942
 4487TIP3    H134952   6.599   1.309   0.146  0.7278  0.6534 -1.1322
 4487TIP3    H234953   6.450   1.318   0.172  0.4565  1.5481 -2.8554
 4488TIP3   OH234954   5.835   6.608   2.670 -0.3682  0.3236  0.3147
 4488TIP3    H134955   5.764   6.545   2.674 -0.3892  0.2416 -0.9361
 4488TIP3    H234956   5.889   6.580   2.596  2.0924 -0.7622  2.3692
 4489TIP3   OH234957   4.018   6.414   2.315 -0.4128 -0.6477  0.1695
 4489TIP3    H134958   4.095   6.357   2.315  0.7156  0.8303  0.4229
 4489TIP3    H234959   4.017   6.452   2.227 -1.0655 -0.9222  0.0532
 4490TIP3   OH234960   5.187   3.422   4.959 -0.6474 -0.1265  0.0961
 4490TIP3    H134961   5.150   3.442   5.045 -2.0922 -2.0575 -0.0287
 4490TIP3    H234962   5.201   3.508   4.919 -2.0863  0.7547  1.3753
 4491TIP3   OH234963   4.187   5.835  14.956  0.0611 -0.1056 -0.2848
 4491TIP3    H134964   4.189   5.746  14.993 -0.3513  0.3750  0.9436
 4491TIP3    H234965   4.240   5.887  15.016  0.5698  0.4299 -1.1774
 4492TIP3   OH234966   2.764   5.060   4.528 -0.1538 -0.6244  0.6946
 4492TIP3    H134967   2.733   5.028   4.613  1.2892 -2.0318  0.7501
 4492TIP3    H234968   2.707   5.016   4.464 -0.4386 -0.5343  0.8817
 4493TIP3   OH234969   0.444   4.818   4.151 -0.3120  0.5796  0.6615
 4493TIP3    H134970   0.443   4.763   4.229  0.0763  0.4108  0.5531
 4493TIP3    H234971   0.495   4.768   4.087 -0.7513  0.6522  0.2513
 4494TIP3   OH234972   5.826   2.948   1.622  0.6981 -0.4923  0.2178
 4494TIP3    H134973   5.855   3.028   1.664 -1.2659  0.8420 -0.7738
 4494TIP3    H234974   5.732   2.961   1.609  0.2923 -3.0177  0.1139
 4495TIP3   OH234975   3.891   6.343   4.818 -0.1250  0.3264 -0.2363
 4495TIP3    H134976   3.960   6.304   4.764  1.5040  2.2804  0.3403
 4495TIP3    H234977   3.844   6.267   4.854  2.8635 -1.1876  0.8146
 4496TIP3   OH234978   5.403   3.068   5.351 -0.3179  0.1964  0.1666
 4496TIP3    H134979   5.309   3.056   5.338 -0.2466 -1.1286  0.6784
 4496TIP3    H234980   5.409   3.139   5.415 -0.9921 -0.0134  0.4762
 4497TIP3   OH234981   5.266   1.080  15.983  0.1088 -0.0572  0.0034
 4497TIP3    H134982   5.260   1.075  16.078  1.1521 -1.7253  0.0180
 4497TIP3    H234983   5.358   1.062  15.963 -0.6221 -2.8473 -1.4061
 4498TIP3   OH234984   4.245   4.711  15.531  0.6186  0.1327  0.1967
 4498TIP3    H134985   4.282   4.699  15.443 -1.0761  2.6266 -0.9966
 4498TIP3    H234986   4.172   4.772  15.517 -0.5560 -0.4496  3.1735
 4499TIP3   OH234987   4.253   1.264  13.162 -0.7053 -0.4654  0.3337
 4499TIP3    H134988   4.331   1.293  13.210 -1.1399  0.1995  0.6514
 4499TIP3    H234989   4.205   1.210  13.225 -0.6820 -0.5756  0.2565
 4500TIP3   OH234990   6.204   4.157   5.958 -0.5782 -1.1271 -0.1980
 4500TIP3    H134991   6.270   4.167   6.027 -0.5966 -0.0037 -0.3228
 4500TIP3    H234992   6.126   4.123   6.004 -0.8401  0.3359  0.5034
 4501TIP3   OH234993   5.645   4.847   6.012 -0.1341 -0.0499  0.0916
 4501TIP3    H134994   5.627   4.761   6.049 -2.4682  0.8217  1.2443
 4501TIP3    H234995   5.599   4.908   6.070  0.8315  1.9143 -1.0858
 4502TIP3   OH234996   3.039   3.039  14.893  0.6313 -0.0401 -0.0263
 4502TIP3    H134997   3.071   2.977  14.827 -1.3016  0.0734 -1.1520
 4502TIP3    H234998   3.019   3.118  14.842  0.6265  0.6100  0.9717
 4503TIP3   OH234999   4.988   1.843  16.597 -0.1037 -0.7535  0.1540
 4503TIP3    H135000   5.006   1.906  16.527  0.8514  0.0613  1.0872
 4503TIP3    H235001   5.004   1.757  16.557 -0.3897 -0.3522 -0.8449
 4504TIP3   OH235002   6.248   2.995  13.527 -0.6285  0.3208 -0.1004
 4504TIP3    H135003   6.258   2.937  13.451  0.3422  0.7238 -0.2955
 4504TIP3    H235004   6.327   3.048  13.527 -1.2474  1.2635  0.4137
 4505TIP3   OH235005   3.301   5.803   1.282 -0.3620 -0.0915 -0.1151
 4505TIP3    H135006   3.266   5.882   1.323 -1.4584 -1.8452  2.6859
 4505TIP3    H235007   3.234   5.775   1.220 -1.3461 -0.3511  1.0341
 4506TIP3   OH235008   5.897   4.064   5.428  0.2084 -0.0639  0.3075
 4506TIP3    H135009   5.947   4.134   5.386  0.5155 -1.3482 -1.5701
 4506TIP3    H235010   5.902   4.084   5.522 -0.7835  3.1016 -0.1823
 4507TIP3   OH235011   3.804   5.289   3.570 -0.3858  0.0438  0.2923
 4507TIP3    H135012   3.792   5.381   3.592  1.7861  1.1066 -2.5053
 4507TIP3    H235013   3.724   5.265   3.523 -0.8907  0.4947  0.8950
 4508TIP3   OH235014   4.420   4.787   0.712 -0.0437 -0.0114  0.0079
 4508TIP3    H135015   4.336   4.832   0.704 -0.4299 -0.7606 -0.3227
 4508TIP3    H235016   4.472   4.841   0.771 -0.7772  0.4351  0.2465
 4509TIP3   OH235017   1.123   5.842  13.046  0.1812  1.0016 -0.8156
 4509TIP3    H135018   1.179   5.768  13.072  0.3391  1.0334 -1.0601
 4509TIP3    H235019   1.175   5.920  13.069  0.8344  1.0365 -2.2797
 4510TIP3   OH235020   0.214   1.089   2.473 -0.4550  0.3976  0.0930
 4510TIP3    H135021   0.205   0.994   2.475  2.3031 -0.0209 -1.6915
 4510TIP3    H235022   0.185   1.115   2.386 -0.1714  1.0621  0.1855
 4511TIP3   OH235023   5.066   3.762   2.110  0.3718  0.2021  0.6851
 4511TIP3    H135024   5.028   3.675   2.125 -2.4740  1.1266 -0.4044
 4511TIP3    H235025   5.001   3.823   2.144  2.8459  1.9804  2.5504
 4512TIP3   OH235026   3.207   3.956   4.545 -0.2092 -0.4548 -0.1290
 4512TIP3    H135027   3.263   3.878   4.550  0.0226 -0.4129 -1.5845
 4512TIP3    H235028   3.125   3.923   4.508 -0.5672 -0.2114  0.4311
 4513TIP3   OH235029   5.151   3.119  16.827 -0.1184  0.1006 -0.2378
 4513TIP3    H135030   5.118   3.184  16.765 -2.3116 -0.0918  0.6671
 4513TIP3    H235031   5.125   3.152  16.913 -3.4813 -2.9963  0.1657
 4514TIP3   OH235032   4.442   5.944   1.488  0.0215 -0.0608 -0.1171
 4514TIP3    H135033   4.352   5.912   1.482  0.4426 -1.1741 -0.7642
 4514TIP3    H235034   4.485   5.882   1.546 -0.2390  1.9846  2.4340
 4515TIP3   OH235035   0.878   6.250   5.610 -0.3303  0.2493 -0.0300
 4515TIP3    H135036   0.958   6.258   5.558 -0.5605  0.3343 -0.3792
 4515TIP3    H235037   0.896   6.298   5.690  0.3415 -0.6021  0.3471
 4516TIP3   OH235038   0.028   2.262  15.532 -0.1199  0.1058 -0.1683
 4516TIP3    H135039   0.083   2.304  15.598  0.9250 -0.8294 -0.3940
 4516TIP3    H235040  -0.062   2.284  15.557  0.2721  0.1452  1.2949
 4517TIP3   OH235041   6.062   2.080   1.326  0.5043 -0.2389 -0.4085
 4517TIP3    H135042   5.985   2.110   1.374  0.6464  0.2187 -0.4606
 4517TIP3    H235043   6.028   2.049   1.242  0.1346 -1.9250  0.3147
 4518TIP3   OH235044   3.599   2.717   5.560 -0.4169 -0.6207  0.1292
 4518TIP3    H135045   3.538   2.686   5.493 -1.2390  0.6873  0.2535
 4518TIP3    H235046   3.618   2.807   5.535 -2.1449  0.5364  2.6064
 4519TIP3   OH235047   1.270   6.429   3.678  0.2638  0.2562 -0.8419
 4519TIP3    H135048   1.178   6.453   3.671  0.6569  2.0396 -0.3375
 4519TIP3    H235049   1.270   6.354   3.739 -0.6749  1.8714  1.2887
 4520TIP3   OH235050   6.545   4.842  10.992 -0.1826  0.8448  0.7810
 4520TIP3    H135051   6.516   4.777  10.929 -0.9603 -0.2155  2.1883
 4520TIP3    H235052   6.507   4.924  10.962  1.3881  0.8605 -1.4168
 4521TIP3   OH235053   0.447   3.798   1.973 -0.4380 -0.0784  0.5702
 4521TIP3    H135054   0.490   3.797   1.888 -0.3268 -1.0855  0.6269
 4521TIP3    H235055   0.424   3.706   1.990 -1.9745  0.3329  0.8593
 4522TIP3   OH235056   0.107   4.192  15.316  0.3559 -0.2323  0.7911
 4522TIP3    H135057   0.162   4.252  15.366  0.2339 -0.1609  0.8397
 4522TIP3    H235058   0.060   4.247  15.254 -0.5934 -0.1199  1.5757
 4523TIP3   OH235059   4.943   6.104  16.430 -0.1309  0.5225  0.5943
 4523TIP3    H135060   4.855   6.087  16.395  0.3794 -0.0101 -0.4764
 4523TIP3    H235061   4.995   6.029  16.402  0.8607  1.2111  0.5337
 4524TIP3   OH235062   5.100   5.633   6.520 -0.2999 -0.2046 -0.1664
 4524TIP3    H135063   5.010   5.652   6.546  0.0064 -0.0607  0.8253
 4524TIP3    H235064   5.117   5.545   6.554 -0.9260 -1.3949 -2.6751
 4525TIP3   OH235065   0.798   5.793  14.766  0.1793 -0.0159 -0.2810
 4525TIP3    H135066   0.747   5.727  14.720  2.1899 -2.5797  0.9094
 4525TIP3    H235067   0.744   5.872  14.763 -1.6518 -1.2222 -3.1590
 4526TIP3   OH235068   4.474   4.908  15.652  0.2553 -0.0594  0.1222
 4526TIP3    H135069   4.493   4.999  15.677  1.5340 -0.5587  1.0694
 4526TIP3    H235070   4.464   4.911  15.557 -3.0100  1.6049  0.3640
 4527TIP3   OH235071   0.660   3.249   1.596  0.4612  0.0068 -0.6906
 4527TIP3    H135072   0.693   3.320   1.651  0.0947  0.1591 -0.6671
 4527TIP3    H235073   0.735   3.223   1.543  1.6132 -1.8649  1.6327
 4528TIP3   OH235074   5.643   4.581   0.163  0.4259  0.3017  0.1479
 4528TIP3    H135075   5.688   4.504   0.128 -0.6467 -0.3602  0.1707
 4528TIP3    H235076   5.572   4.545   0.215 -0.8603  1.3212 -0.8383
 4529TIP3   OH235077   2.838   5.670  15.665  0.1668  0.0542 -0.5886
 4529TIP3    H135078   2.900   5.659  15.737 -1.3495 -2.9598  0.4385
 4529TIP3    H235079   2.874   5.616  15.594 -0.6774 -0.8680 -0.3451
 4530TIP3   OH235080   3.473   0.752  15.217  0.8934 -0.4393 -0.2604
 4530TIP3    H135081   3.452   0.823  15.278  0.5549 -0.7755  0.0200
 4530TIP3    H235082   3.538   0.790  15.158  0.1750  0.3338 -0.5688
 4531TIP3   OH235083   0.457   5.589   5.511  0.5374  0.5756 -1.2267
 4531TIP3    H135084   0.377   5.630   5.478  0.5204 -0.1365 -2.1284
 4531TIP3    H235085   0.520   5.661   5.517 -0.7934  1.6501  1.8454
 4532TIP3   OH235086   0.811   3.517   4.683  0.2165  0.0627 -0.6879
 4532TIP3    H135087   0.883   3.478   4.732 -0.5282  0.8525  1.1337
 4532TIP3    H235088   0.762   3.442   4.649  0.5015 -0.5443  0.1908
 4533TIP3   OH235089   6.141   2.149   2.170  0.0332 -0.4375  0.1353
 4533TIP3    H135090   6.140   2.056   2.146  1.4425 -0.4445  0.0325
 4533TIP3    H235091   6.174   2.194   2.092 -0.4871  0.1466  0.2390
 4534TIP3   OH235092   2.693   3.481   2.169 -0.1478 -0.2065 -0.5277
 4534TIP3    H135093   2.714   3.448   2.257 -2.7016  0.2033  0.3159
 4534TIP3    H235094   2.599   3.468   2.161 -0.1685  0.9519 -2.7315
 4535TIP3   OH235095   3.221   1.772   2.092 -0.0261 -0.0470  0.2957
 4535TIP3    H135096   3.255   1.747   2.005 -0.7270 -0.8265  0.2301
 4535TIP3    H235097   3.149   1.832   2.073  0.7437  0.9407  0.4060
 4536TIP3   OH235098   4.761   6.521  13.840  0.1555 -0.3298  0.0100
 4536TIP3    H135099   4.809   6.445  13.873  1.1207 -0.6745 -2.0572
 4536TIP3    H235100   4.820   6.595  13.855  0.3866 -0.4122 -0.4896
 4537TIP3   OH235101   4.880   5.397   4.707  0.3608 -0.1392 -0.0030
 4537TIP3    H135102   4.943   5.463   4.738 -1.3231  0.7155  1.8672
 4537TIP3    H235103   4.934   5.326   4.674  2.3011  2.2412 -2.4718
 4538TIP3   OH235104   5.437   5.768  15.860 -0.0257  0.6395 -0.2216
 4538TIP3    H135105   5.468   5.700  15.799  0.6745  2.0808 -1.5639
 4538TIP3    H235106   5.423   5.722  15.942  0.6613 -1.0824 -1.0117
 4539TIP3   OH235107   1.781   5.944   6.028  0.0912 -0.1469  0.6293
 4539TIP3    H135108   1.873   5.946   6.000  0.5610 -0.3025  2.0836
 4539TIP3    H235109   1.778   5.876   6.095 -1.3192 -0.8509 -0.1036
 4540TIP3   OH235110   2.465   0.107  16.232 -0.1074 -0.3592  0.0717
 4540TIP3    H135111   2.525   0.142  16.166  1.7091  0.4059  1.9984
 4540TIP3    H235112   2.519   0.099  16.311 -2.0404 -1.7383  1.3303
 4541TIP3   OH235113   1.595   6.047   5.788  0.2732 -0.5670  0.0834
 4541TIP3    H135114   1.649   6.006   5.856  1.6490 -0.3088 -0.8122
 4541TIP3    H235115   1.650   6.115   5.751 -1.6854  1.6301  0.9852
 4542TIP3   OH235116   0.087   0.519  14.822 -0.0508  0.0864 -0.1522
 4542TIP3    H135117   0.077   0.474  14.905 -1.0924 -0.9615 -0.8167
 4542TIP3    H235118   0.181   0.526  14.809  0.1351 -1.7079  0.0776
 4543TIP3   OH235119   4.858   2.479   4.287 -0.2756 -0.2156  0.5674
 4543TIP3    H135120   4.918   2.553   4.296 -2.3580  1.8499 -1.1388
 4543TIP3    H235121   4.859   2.458   4.194 -2.0672 -0.1997  0.5122
 4544TIP3   OH235122   6.316   2.496   5.073 -0.0956 -0.1071  0.4328
 4544TIP3    H135123   6.320   2.561   5.143  1.1668  0.5295 -0.2018
 4544TIP3    H235124   6.408   2.471   5.058 -0.2773  0.1331 -1.3041
 4545TIP3   OH235125   5.370   0.985   0.658 -0.5390  0.1697 -0.4405
 4545TIP3    H135126   5.287   1.027   0.680 -0.8423  0.3916 -1.9081
 4545TIP3    H235127   5.357   0.893   0.682 -0.7452  0.4435  0.5158
 4546TIP3   OH235128   5.053   4.775   3.905  0.7698  0.1959 -0.3099
 4546TIP3    H135129   4.989   4.745   3.970  0.7859 -2.4114 -1.3697
 4546TIP3    H235130   5.004   4.833   3.847 -0.2904 -0.6179 -0.2628
 4547TIP3   OH235131   3.656   2.930   1.292  0.0479 -0.5426 -0.1114
 4547TIP3    H135132   3.668   3.024   1.282  1.6139 -0.6369  0.6844
 4547TIP3    H235133   3.736   2.899   1.333 -0.0963 -2.3582 -1.0778
 4548TIP3   OH235134   4.404   4.037   6.092  0.1337  0.3845  0.0719
 4548TIP3    H135135   4.379   3.988   6.171 -1.0898  0.1702 -0.4190
 4548TIP3    H235136   4.384   4.128   6.113  1.8618  0.6360  0.7739
 4549TIP3   OH235137   0.053   5.260  16.504 -0.0630  0.4803 -0.0403
 4549TIP3    H135138   0.094   5.240  16.420 -2.0151 -0.6463 -0.8083
 4549TIP3    H235139   0.122   5.302  16.555  1.9220 -1.0260 -1.3104
 4550TIP3   OH235140   4.540   4.392  13.142  0.0977 -0.2065  0.3645
 4550TIP3    H135141   4.623   4.426  13.108 -0.9056  1.9281 -0.1256
 4550TIP3    H235142   4.481   4.392  13.067 -1.0678  0.9295  1.2270
 4551TIP3   OH235143   1.809   1.051   1.597  0.3964  0.1496  0.0693
 4551TIP3    H135144   1.732   1.055   1.655  1.0216  0.2362  0.9057
 4551TIP3    H235145   1.830   1.142   1.578 -0.3020  0.1102 -0.9862
 4552TIP3   OH235146   5.789   2.600  12.118 -0.2464 -0.2399 -0.2668
 4552TIP3    H135147   5.711   2.642  12.081  0.3530  1.5190  0.3938
 4552TIP3    H235148   5.769   2.588  12.210  0.1340 -0.1168 -0.1677
 4553TIP3   OH235149   5.586   2.766   4.357  0.2352  0.3106  0.1041
 4553TIP3    H135150   5.504   2.752   4.405  0.0825 -0.9117 -0.4690
 4553TIP3    H235151   5.560   2.761   4.265  0.7302  1.3520 -0.1006
 4554TIP3   OH235152   3.647   0.025  12.947 -0.4127  0.4793  0.7578
 4554TIP3    H135153   3.695  -0.025  12.881 -1.0556  0.0692  0.5912
 4554TIP3    H235154   3.685  -0.003  13.030 -1.5162 -1.1810  0.7618
 4555TIP3   OH235155   1.882   0.789   0.758  0.3926  0.1223 -0.6410
 4555TIP3    H135156   1.861   0.699   0.781 -0.9641  1.0100  2.0584
 4555TIP3    H235157   1.977   0.794   0.764  0.3591 -0.1207  4.2956
 4556TIP3   OH235158   2.996   4.535  14.073 -0.5350  0.0955  0.4848
 4556TIP3    H135159   3.004   4.628  14.097 -1.7430  0.8311 -1.7111
 4556TIP3    H235160   2.926   4.502  14.130 -0.3920  0.6290  0.9861
 4557TIP3   OH235161   4.200   4.073  15.595 -0.1509  0.3398 -0.0419
 4557TIP3    H135162   4.183   4.159  15.633  0.2540  0.1303  0.6455
 4557TIP3    H235163   4.233   4.091  15.507 -1.0712  0.8403 -0.2967
 4558TIP3   OH235164   0.327   4.638  16.178 -0.3907 -0.0495 -0.0758
 4558TIP3    H135165   0.348   4.650  16.270  1.5587 -1.6154 -0.2535
 4558TIP3    H235166   0.270   4.712  16.156  0.0098  0.9606  2.0881
 4559TIP3   OH235167   0.768   6.639   0.343  0.1922  0.3279 -0.0907
 4559TIP3    H135168   0.679   6.646   0.376  0.0375  0.0518 -0.4439
 4559TIP3    H235169   0.804   6.727   0.350 -1.3693  1.4233 -3.5641
 4560TIP3   OH235170   2.807   2.688  14.691 -0.0849 -0.2412 -0.3767
 4560TIP3    H135171   2.860   2.766  14.672 -0.7411  0.9215  2.1177
 4560TIP3    H235172   2.864   2.634  14.747  0.5144 -1.8455 -2.3947
 4561TIP3   OH235173   3.164   2.450   2.174  0.1162 -0.4809 -0.6157
 4561TIP3    H135174   3.201   2.528   2.132  1.4091 -0.7310  0.0037
 4561TIP3    H235175   3.085   2.431   2.124 -1.1290  2.1327  0.1674
 4562TIP3   OH235176   1.993   4.669  11.230  0.1351  0.7021 -0.2574
 4562TIP3    H135177   1.981   4.623  11.147 -0.3508 -0.1761  0.2921
 4562TIP3    H235178   2.080   4.707  11.223  0.0604  0.7313 -1.2153
 4563TIP3   OH235179   1.985   3.016  11.826 -0.3451  0.4999 -0.1083
 4563TIP3    H135180   2.030   3.098  11.848 -0.6695  1.1371 -1.7038
 4563TIP3    H235181   1.893   3.041  11.817 -0.1316  0.5780 -3.1828
 4564TIP3   OH235182   3.342   2.366  15.421  0.7596 -0.3316  0.4763
 4564TIP3    H135183   3.406   2.319  15.369  0.6170 -1.0959  0.9687
 4564TIP3    H235184   3.313   2.303  15.487 -0.2082  0.1193  0.5091
 4565TIP3   OH235185   0.685   2.754   0.965 -0.5626 -0.3918  0.2837
 4565TIP3    H135186   0.730   2.801   1.035 -0.8233  0.1905  0.0694
 4565TIP3    H235187   0.697   2.661   0.986  0.8159 -0.2545  0.1658
 4566TIP3   OH235188   3.188   1.195  17.124  0.0788  0.5949  0.5918
 4566TIP3    H135189   3.199   1.257  17.196  2.0204  2.4056 -1.1078
 4566TIP3    H235190   3.111   1.225  17.077  1.0233  1.8442 -0.2365
 4567TIP3   OH235191   3.619   1.232  14.183  0.2798  0.0300  0.1382
 4567TIP3    H135192   3.592   1.242  14.274  1.0364 -1.4081  0.5554
 4567TIP3    H235193   3.643   1.321  14.155 -0.5831  0.5926  1.1187
 4568TIP3   OH235194   5.640   3.520   6.716  0.5203  0.2028 -0.3020
 4568TIP3    H135195   5.664   3.436   6.757 -1.4796 -0.2283  0.0501
 4568TIP3    H235196   5.670   3.511   6.625  0.2027 -0.9578 -0.3073
 4569TIP3   OH235197   0.994   4.556   6.386 -0.1690  0.0919 -0.3381
 4569TIP3    H135198   1.078   4.516   6.407  0.2401  0.9410 -0.3417
 4569TIP3    H235199   1.002   4.647   6.414 -1.6217 -0.1594  1.0566
 4570TIP3   OH235200   6.014   1.778   0.729  0.1666 -0.1385 -0.1362
 4570TIP3    H135201   6.057   1.731   0.800 -1.0350 -2.4139 -0.8269
 4570TIP3    H235202   5.933   1.812   0.768  0.3447  0.1353  0.0004
 4571TIP3   OH235203   4.142   5.268  17.517 -0.0345 -0.1417 -0.4147
 4571TIP3    H135204   4.183   5.306  17.595 -0.2792  0.3506 -0.5220
 4571TIP3    H235205   4.126   5.176  17.540 -3.9566  0.8798  1.7435
 4572TIP3   OH235206   0.112   1.687   0.469  0.3179  0.5529 -0.1347
 4572TIP3    H135207   0.048   1.758   0.474  1.7056  1.8386  0.0502
 4572TIP3    H235208   0.154   1.687   0.554 -1.6018 -2.4929  0.9790
 4573TIP3   OH235209   4.565   6.182  14.316  0.0256  0.0925  0.9360
 4573TIP3    H135210   4.531   6.249  14.256  0.4611  0.9092  1.5761
 4573TIP3    H235211   4.615   6.123  14.260  0.7726  1.0810  0.5291
 4574TIP3   OH235212   0.043   5.701   0.617 -0.6785 -0.0113  0.6633
 4574TIP3    H135213  -0.035   5.671   0.664 -1.3943  1.0164  0.2012
 4574TIP3    H235214   0.010   5.725   0.530  0.3295 -0.3975  0.1546
 4575TIP3   OH235215   5.799   4.989  14.012 -0.6766  0.3919 -0.3434
 4575TIP3    H135216   5.726   5.048  14.030 -1.3499 -0.6736  0.5612
 4575TIP3    H235217   5.758   4.903  13.997  0.3853 -0.2631  0.3722
 4576TIP3   OH235218   5.582   0.199   1.969 -0.7638  0.3393  0.0000
 4576TIP3    H135219   5.596   0.110   1.937 -1.4051  0.6662 -1.2420
 4576TIP3    H235220   5.488   0.204   1.985 -0.2502 -0.7205  4.8487
 4577TIP3   OH235221   6.156   4.579  15.116 -0.0491 -0.6278  0.0524
 4577TIP3    H135222   6.138   4.594  15.024 -0.4020 -2.2296 -0.1823
 4577TIP3    H235223   6.098   4.640  15.162  1.7723  1.8217 -0.7435
 4578TIP3   OH235224   0.369   2.043  15.646 -0.3449 -0.0144  0.0462
 4578TIP3    H135225   0.289   2.095  15.657 -0.0624  0.6552 -1.0030
 4578TIP3    H235226   0.345   1.974  15.585  0.0228  0.5423 -0.7463
 4579TIP3   OH235227   0.183   4.322   6.302  0.3797 -0.0164  0.2201
 4579TIP3    H135228   0.262   4.376   6.297 -1.1044  2.2213 -0.6812
 4579TIP3    H235229   0.140   4.351   6.383  0.3593 -1.0845  0.6017
 4580TIP3   OH235230   3.471   0.667  13.895 -0.0570  0.0946  0.2764
 4580TIP3    H135231   3.537   0.670  13.964  0.0985  0.5166  0.1182
 4580TIP3    H235232   3.493   0.590  13.843 -1.0513 -1.0811  1.5427
 4581TIP3   OH235233   6.349   2.538   4.701 -0.4195  0.5825  0.4463
 4581TIP3    H135234   6.268   2.587   4.681 -0.5592  0.9336  1.7564
 4581TIP3    H235235   6.319   2.460   4.747 -0.0090  0.6752  0.8706
 4582TIP3   OH235236   2.069   0.498   1.104  0.2232 -0.4395 -0.3662
 4582TIP3    H135237   2.008   0.460   1.167  1.2771  0.5536  1.3222
 4582TIP3    H235238   2.025   0.577   1.073  0.0770 -0.4595 -0.2087
 4583TIP3   OH235239   0.043   6.338  11.481  0.0250  0.3527  0.2575
 4583TIP3    H135240   0.086   6.356  11.398  2.1828 -0.3138  1.1798
 4583TIP3    H235241   0.013   6.247  11.473  0.3384  0.2492  0.2590
 4584TIP3   OH235242   5.484   2.923  13.319 -0.4094  0.6356 -0.0929
 4584TIP3    H135243   5.487   2.867  13.396 -0.6795 -1.2574 -1.3965
 4584TIP3    H235244   5.549   2.886  13.259 -1.0647  1.2876 -1.2540
 4585TIP3   OH235245   2.478   6.146   1.414  0.4655 -0.1928  0.1105
 4585TIP3    H135246   2.565   6.108   1.419 -0.0137 -1.3965 -0.2600
 4585TIP3    H235247   2.436   6.122   1.497 -0.0164 -0.9510 -0.3423
 4586TIP3   OH235248   1.776   1.183   5.780 -0.1790  0.2900 -0.5423
 4586TIP3    H135249   1.806   1.093   5.762  0.5724  0.1832  1.0644
 4586TIP3    H235250   1.691   1.189   5.736 -1.5036 -2.0945  1.4293
 4587TIP3   OH235251   0.509   1.796  12.936 -0.0257 -0.1926  0.4769
 4587TIP3    H135252   0.435   1.739  12.958 -0.4351  0.4333  0.7604
 4587TIP3    H235253   0.556   1.749  12.867 -0.8889 -0.4397  0.0434
 4588TIP3   OH235254   6.206   3.386  12.497  0.4801 -0.0604 -0.4357
 4588TIP3    H135255   6.280   3.343  12.539 -1.0137 -1.0380  1.3235
 4588TIP3    H235256   6.186   3.332  12.421  1.3726  0.0357 -0.7416
 4589TIP3   OH235257   1.698   6.249   4.013 -0.0398  0.3942 -0.3606
 4589TIP3    H135258   1.610   6.267   4.048  1.5166  2.3297  2.9815
 4589TIP3    H235259   1.708   6.155   4.021 -0.3831  0.5104  3.4238
 4590TIP3   OH235260   3.407   3.998   0.195 -0.3065 -0.3194 -0.0045
 4590TIP3    H135261   3.369   4.070   0.245  0.7643  0.6956 -0.6033
 4590TIP3    H235262   3.436   3.935   0.261 -0.4682  0.1947  0.5662
 4591TIP3   OH235263   1.162   3.304  16.040 -0.4777  0.0151 -0.3765
 4591TIP3    H135264   1.090   3.335  15.985 -0.6120 -0.1978 -0.3235
 4591TIP3    H235265   1.136   3.328  16.129 -0.6350 -0.3480 -0.3233
 4592TIP3   OH235266   3.868   3.974   0.393  0.2217 -0.7160  0.5118
 4592TIP3    H135267   3.936   3.918   0.432  3.0829  1.1129 -1.4217
 4592TIP3    H235268   3.857   4.045   0.456 -1.1062 -1.7715  1.5252
 4593TIP3   OH235269   6.381   2.616  12.914  0.6913  0.2290  0.1299
 4593TIP3    H135270   6.452   2.620  12.849 -0.1130  0.3708 -0.7635
 4593TIP3    H235271   6.302   2.636  12.864 -0.2843 -2.0421  0.6464
 4594TIP3   OH235272   1.546   2.827  10.476 -0.0124  0.0390  0.6772
 4594TIP3    H135273   1.626   2.790  10.439  0.9907  2.7940 -0.1725
 4594TIP3    H235274   1.575   2.903  10.527 -2.0576  1.2367  0.1971
 4595TIP3   OH235275   1.793   5.851   0.573  0.2485  0.2994  0.3721
 4595TIP3    H135276   1.763   5.939   0.596  0.5508  0.5459 -0.1648
 4595TIP3    H235277   1.761   5.838   0.483 -0.6903 -0.5470  0.8094
 4596TIP3   OH235278   3.755   3.693  12.194  0.1007 -0.0665 -0.0414
 4596TIP3    H135279   3.711   3.712  12.276 -0.4518 -0.1704 -0.3094
 4596TIP3    H235280   3.743   3.599  12.180  1.5015 -0.3570  0.5083
 4597TIP3   OH235281   6.703   6.603  11.870 -0.3679  0.1725 -0.3398
 4597TIP3    H135282   6.732   6.580  11.782  0.0875 -0.3742 -0.0530
 4597TIP3    H235283   6.763   6.673  11.898  0.1326 -0.3438 -0.0891
 4598TIP3   OH235284   0.049   0.775  16.306  0.6786 -0.4946 -0.4341
 4598TIP3    H135285   0.032   0.797  16.397 -0.8127 -1.4485 -0.4572
 4598TIP3    H235286  -0.015   0.826  16.256  0.1963 -1.4354 -0.7947
 4599TIP3   OH235287   3.053   1.839   0.483 -0.0018  0.3607 -0.0250
 4599TIP3    H135288   3.127   1.865   0.537 -1.3623  1.0184  1.6388
 4599TIP3    H235289   3.039   1.912   0.423 -0.6488  1.2659  1.1771
 4600TIP3   OH235290   4.228   5.653  16.227  0.3399  0.3051 -0.3061
 4600TIP3    H135291   4.143   5.611  16.214 -0.0269  0.8025  0.4576
 4600TIP3    H235292   4.251   5.634  16.318  0.3579  1.4133 -0.0677
 4601TIP3   OH235293   2.298   3.996  11.968 -0.2988 -0.2103 -0.5500
 4601TIP3    H135294   2.272   4.072  11.915  1.0126 -0.7708 -2.0690
 4601TIP3    H235295   2.322   3.929  11.904 -0.8539 -1.7269  0.7618
 4602TIP3   OH235296   5.305   3.370  16.441  0.3868 -0.2327  0.4589
 4602TIP3    H135297   5.268   3.282  16.447  1.7510 -0.7962  0.9735
 4602TIP3    H235298   5.260   3.409  16.365  0.3126 -1.6404 -0.2608
 4603TIP3   OH235299   3.806   2.046   4.381  0.4887  0.2568 -0.0621
 4603TIP3    H135300   3.784   2.020   4.471 -0.2616  0.9048 -0.0501
 4603TIP3    H235301   3.807   2.141   4.383 -1.3651  0.3465 -1.1447
 4604TIP3   OH235302   5.897   2.446  13.230  0.0365 -0.2221 -0.3935
 4604TIP3    H135303   5.952   2.492  13.165 -0.2773  0.1994 -0.3698
 4604TIP3    H235304   5.808   2.476  13.210  0.0245  0.5874  0.7718
 4605TIP3   OH235305   2.873   1.682   2.201  0.0256 -0.0382  0.2526
 4605TIP3    H135306   2.870   1.743   2.128 -0.4276 -0.1082  0.2073
 4605TIP3    H235307   2.824   1.726   2.271  0.4596  0.0315  0.5199
 4606TIP3   OH235308   4.565   3.662  14.623  0.0519  0.4925  0.4634
 4606TIP3    H135309   4.550   3.725  14.553 -0.0098 -2.4474 -2.4027
 4606TIP3    H235310   4.477   3.633  14.649  0.1317 -0.1039  0.0790
 4607TIP3   OH235311   5.808   1.611  12.693 -0.1053 -0.4835 -0.4624
 4607TIP3    H135312   5.886   1.664  12.712 -0.6782  0.2149 -0.0255
 4607TIP3    H235313   5.735   1.664  12.725 -0.7919 -0.9770 -1.1982
 4608TIP3   OH235314   0.776   2.612  11.959  0.4967 -0.0032  0.4929
 4608TIP3    H135315   0.828   2.658  11.893  0.1741 -1.0619 -0.5324
 4608TIP3    H235316   0.828   2.535  11.982  0.8407  0.6014  1.8895
 4609TIP3   OH235317   4.467   5.856   3.614  0.2777  0.4355 -0.2138
 4609TIP3    H135318   4.397   5.902   3.568  1.0138 -1.0787 -3.1126
 4609TIP3    H235319   4.544   5.910   3.602  0.1761  0.7909  0.6542
 4610TIP3   OH235320   2.441   4.788   1.607 -0.0674 -0.0599  0.2466
 4610TIP3    H135321   2.512   4.827   1.658 -0.7760  0.6860  0.6877
 4610TIP3    H235322   2.481   4.765   1.524  0.3422  1.9068 -0.1623
 4611TIP3   OH235323   0.366   3.747   4.853 -0.8283 -0.6106  0.1801
 4611TIP3    H135324   0.461   3.746   4.842 -0.5001 -1.2361  2.4383
 4611TIP3    H235325   0.338   3.834   4.825  0.7076  0.2949  1.3432
 4612TIP3   OH235326   6.759   2.322  13.576 -0.1901 -0.1080  0.2072
 4612TIP3    H135327   6.699   2.344  13.505  0.4978 -1.3866 -0.8177
 4612TIP3    H235328   6.704   2.323  13.655 -1.2839 -0.0732 -0.5329
 4613TIP3   OH235329   3.742   5.152  14.490  0.1992 -0.9920 -0.2834
 4613TIP3    H135330   3.739   5.147  14.586 -0.7056 -0.9721 -0.3030
 4613TIP3    H235331   3.817   5.098  14.466  0.2465 -1.2503  0.4168
 4614TIP3   OH235332   3.937   1.906  16.305  0.3169  0.1857 -0.2350
 4614TIP3    H135333   4.018   1.858  16.288 -0.4261 -0.4951 -2.0969
 4614TIP3    H235334   3.956   1.995  16.276  0.2318 -0.1119 -1.2413
 4615TIP3   OH235335   0.308   5.275  13.146  0.1629  0.4916 -0.1094
 4615TIP3    H135336   0.230   5.239  13.105  0.6260  0.7977 -1.2854
 4615TIP3    H235337   0.368   5.294  13.074  1.4360  0.0325  0.7797
 4616TIP3   OH235338   3.428   5.357  15.325 -0.0797 -0.2951  0.0086
 4616TIP3    H135339   3.411   5.448  15.349  0.1149 -0.1368 -0.4301
 4616TIP3    H235340   3.475   5.364  15.241  2.0367 -0.6936  1.0870
 4617TIP3   OH235341   1.142   5.845  13.401  0.4423  0.8092  0.2336
 4617TIP3    H135342   1.139   5.758  13.359 -1.8684  1.0885 -0.3120
 4617TIP3    H235343   1.185   5.901  13.336 -0.5225  0.6201 -0.6086
 4618TIP3   OH235344   0.849   1.122  14.756 -0.3691 -0.8863  0.6105
 4618TIP3    H135345   0.806   1.112  14.841  0.9388 -0.2106  1.3874
 4618TIP3    H235346   0.913   1.051  14.753  1.4108  0.6135  1.3809
 4619TIP3   OH235347   2.771   5.278  12.353 -0.0434 -0.9150 -0.0414
 4619TIP3    H135348   2.812   5.362  12.374  0.3947 -1.1993  0.2723
 4619TIP3    H235349   2.817   5.248  12.275 -0.7651 -0.4822 -0.6447
 4620TIP3   OH235350   5.782   6.081  17.280 -0.8348 -0.3025  0.5126
 4620TIP3    H135351   5.854   6.091  17.342 -2.1847 -2.0205  2.4565
 4620TIP3    H235352   5.815   6.019  17.215 -1.3733 -3.2612  2.9012
 4621TIP3   OH235353   3.440   0.013  14.615 -0.0469 -0.2519  0.0596
 4621TIP3    H135354   3.456   0.107  14.620  0.4865 -0.2160 -1.7646
 4621TIP3    H235355   3.381  -0.005  14.688  1.2830  1.1581  1.5665
 4622TIP3   OH235356   1.621   1.712  10.649  0.3972 -0.5185 -0.2343
 4622TIP3    H135357   1.543   1.762  10.624 -0.0303  0.0533  2.0072
 4622TIP3    H235358   1.587   1.638  10.698  1.2554  0.7253  2.4043
 4623TIP3   OH235359   2.658   5.775  16.104 -0.6632 -0.7204  0.1810
 4623TIP3    H135360   2.712   5.779  16.183 -0.2354 -1.1340 -0.0928
 4623TIP3    H235361   2.575   5.815  16.131 -0.6338 -1.1440  0.9332
 4624TIP3   OH235362   1.023   2.873   6.308 -0.4700  0.0373 -0.3227
 4624TIP3    H135363   1.104   2.908   6.346 -0.7774 -0.4098  0.7709
 4624TIP3    H235364   1.012   2.787   6.348 -1.9404  0.4371  0.1968
 4625TIP3   OH235365   6.357   3.521   1.514 -0.4861  0.2270 -0.0916
 4625TIP3    H135366   6.283   3.489   1.463 -1.6618  2.0537  0.3931
 4625TIP3    H235367   6.321   3.536   1.602  0.9905 -0.8390  0.7563
 4626TIP3   OH235368   2.871   0.914   5.260  0.0682  0.4968  0.0306
 4626TIP3    H135369   2.865   1.008   5.276  0.0882  0.2054  2.0728
 4626TIP3    H235370   2.942   0.885   5.318 -0.4694 -0.8789  0.0254
 4627TIP3   OH235371   3.319   2.581   0.719 -0.3167 -0.2293 -0.4303
 4627TIP3    H135372   3.336   2.543   0.806  0.2548 -0.9251 -0.8351
 4627TIP3    H235373   3.225   2.566   0.705 -0.0868 -1.6239 -0.6258
 4628TIP3   OH235374   3.750   5.319  14.230  0.8023  0.4195 -0.3326
 4628TIP3    H135375   3.817   5.387  14.225  1.0022  0.1666 -1.3240
 4628TIP3    H235376   3.668   5.367  14.241  0.9408  0.8243 -1.0392
 4629TIP3   OH235377   6.531   1.920   4.924 -0.2368 -0.7564  0.0503
 4629TIP3    H135378   6.546   1.998   4.872 -0.0555 -0.7164  0.1605
 4629TIP3    H235379   6.497   1.952   5.007 -0.8048 -0.8394 -0.1485
 4630TIP3   OH235380   2.942   6.697   4.751  0.1709 -0.0923 -0.0036
 4630TIP3    H135381   3.002   6.770   4.734 -0.8657  0.9336  0.6057
 4630TIP3    H235382   2.943   6.687   4.846 -0.0285 -0.6072 -0.0517
 4631TIP3   OH235383   6.212   5.647   5.987 -0.2233 -0.2675  0.3233
 4631TIP3    H135384   6.296   5.664   6.030  0.2758 -2.6100  0.3725
 4631TIP3    H235385   6.217   5.695   5.904  1.5608 -1.1225 -0.1023
 4632TIP3   OH235386   4.949   4.431  15.649  0.1812 -0.5073  0.0144
 4632TIP3    H135387   5.031   4.470  15.678  0.6288 -0.3035 -1.4422
 4632TIP3    H235388   4.884   4.500  15.659  0.0691 -0.8078  1.5970
 4633TIP3   OH235389   1.320   4.637   4.936  0.1380 -0.5157  0.1908
 4633TIP3    H135390   1.283   4.725   4.925  3.2191  0.7765 -1.0978
 4633TIP3    H235391   1.272   4.599   5.009 -3.5537  0.9219 -1.2694
 4634TIP3   OH235392   6.617   2.306   3.560  0.2127  0.5618 -0.4381
 4634TIP3    H135393   6.557   2.251   3.510  0.5225  1.5663 -2.0200
 4634TIP3    H235394   6.655   2.248   3.626 -2.0153 -0.2464  0.2263
 4635TIP3   OH235395   0.946   4.108  14.191 -0.7582  0.4416  0.2910
 4635TIP3    H135396   0.859   4.072  14.174 -1.9839  2.4364  1.9530
 4635TIP3    H235397   0.974   4.066  14.273  1.0728 -2.1368 -1.5012
 4636TIP3   OH235398   2.760   1.083   2.165 -0.2019 -0.1494  0.0623
 4636TIP3    H135399   2.783   1.074   2.257  0.4445  1.6913  0.1277
 4636TIP3    H235400   2.665   1.073   2.163 -0.0447 -2.3915  0.5700
 4637TIP3   OH235401   1.361   1.296  15.833 -0.1874  0.3582 -0.1547
 4637TIP3    H135402   1.311   1.290  15.914 -0.2701  1.4157 -0.1131
 4637TIP3    H235403   1.452   1.286  15.860 -0.3666 -2.0769 -0.2918
 4638TIP3   OH235404   4.759   5.709   3.333  0.0548 -0.2012  0.0640
 4638TIP3    H135405   4.756   5.715   3.238 -0.9595  3.0799  0.1742
 4638TIP3    H235406   4.852   5.717   3.355  0.1420  1.0277 -0.6431
 4639TIP3   OH235407   4.871   1.339  15.779  0.2291 -0.2975  0.1974
 4639TIP3    H135408   4.823   1.405  15.729  0.6415 -0.7520 -0.8190
 4639TIP3    H235409   4.915   1.285  15.713 -0.4297 -1.8611  0.9786
 4640TIP3   OH235410   0.920   3.647   3.525 -0.1619  0.2064  0.4754
 4640TIP3    H135411   0.829   3.673   3.519 -0.7585 -1.8623 -0.2882
 4640TIP3    H235412   0.963   3.688   3.450 -0.9913 -0.6941 -0.5149
 4641TIP3   OH235413   4.281   2.842  17.125  0.1063  0.6834  0.2872
 4641TIP3    H135414   4.246   2.871  17.209 -2.0173  0.5893 -0.4924
 4641TIP3    H235415   4.252   2.751  17.116 -1.3135  1.2258 -1.2797
 4642TIP3   OH235416   2.713   0.034   5.209  0.0599 -0.2484  0.1884
 4642TIP3    H135417   2.631  -0.013   5.195 -0.5076  1.2197 -1.9917
 4642TIP3    H235418   2.717   0.046   5.304 -2.8887  0.6138  0.3280
 4643TIP3   OH235419   0.750   4.412  12.161  0.0655 -0.5040  0.4417
 4643TIP3    H135420   0.781   4.482  12.104 -1.0968 -1.3707 -1.3406
 4643TIP3    H235421   0.654   4.417  12.156 -0.0434 -1.7934  0.8150
 4644TIP3   OH235422   3.748   2.864  13.430  0.2189 -0.0572 -0.2012
 4644TIP3    H135423   3.727   2.853  13.337  1.0594 -1.2074 -0.2676
 4644TIP3    H235424   3.707   2.947  13.453  0.8956  0.7846 -1.8574
 4645TIP3   OH235425   1.696   1.148   3.506  0.4382  0.7156  0.2674
 4645TIP3    H135426   1.788   1.141   3.480  0.7361  1.2785  1.1151
 4645TIP3    H235427   1.647   1.119   3.429  1.3164  0.5860 -0.2619
 4646TIP3   OH235428   1.307   6.439  15.561  0.8506 -0.5580  0.1866
 4646TIP3    H135429   1.387   6.423  15.613  1.6519  0.8561 -0.5398
 4646TIP3    H235430   1.333   6.421  15.471 -0.4712 -2.7723  0.1989
 4647TIP3   OH235431   0.027   4.360  14.297  0.5596  0.9378  0.2035
 4647TIP3    H135432  -0.027   4.355  14.376 -0.4117  1.1175 -0.4296
 4647TIP3    H235433   0.096   4.423  14.320  2.5630 -1.7353  2.1814
 4648TIP3   OH235434   4.849   5.260  14.432 -0.2032  0.2663  0.1317
 4648TIP3    H135435   4.881   5.280  14.344 -1.9307  1.9913 -0.1725
 4648TIP3    H235436   4.849   5.164  14.435  2.0965  0.1625 -0.8464
 4649TIP3   OH235437   6.518   4.533  14.016  0.4768 -0.2743 -0.5448
 4649TIP3    H135438   6.501   4.549  14.109  2.2819  1.1402 -0.3954
 4649TIP3    H235439   6.604   4.572  14.000  0.5521 -1.1546 -2.6531
 4650TIP3   OH235440   4.253   2.688   3.518  0.6169  0.1312 -0.2843
 4650TIP3    H135441   4.242   2.612   3.575  0.4226 -0.7078 -1.4026
 4650TIP3    H235442   4.305   2.655   3.444  1.6952  1.4236 -0.1497
 4651TIP3   OH235443   2.542   5.288   1.697 -0.0452 -0.3165 -0.0884
 4651TIP3    H135444   2.502   5.253   1.777 -0.3218  0.3740  0.0783
 4651TIP3    H235445   2.636   5.290   1.717 -0.2232  1.0277  0.6927
 4652TIP3   OH235446   2.172   2.624  12.900  0.2127  0.3313 -0.0572
 4652TIP3    H135447   2.110   2.585  12.838 -0.1813  2.0754 -0.8273
 4652TIP3    H235448   2.229   2.679  12.845  0.3063  1.3689  1.0331
 4653TIP3   OH235449   6.500   1.570   3.470  0.3479  0.0001 -0.2728
 4653TIP3    H135450   6.536   1.644   3.422  1.4775  0.2106  0.8648
 4653TIP3    H235451   6.575   1.529   3.512 -0.5777 -0.2991  1.1577
 4654TIP3   OH235452   1.825   0.322   3.630  0.4387  0.3998  0.3657
 4654TIP3    H135453   1.898   0.282   3.582 -0.7138  0.4157 -1.5073
 4654TIP3    H235454   1.840   0.417   3.622  1.5947  0.4068  2.2668
 4655TIP3   OH235455   2.807   1.349  16.908 -0.2067  0.3386 -0.4075
 4655TIP3    H135456   2.898   1.375  16.916 -0.2348  0.1336  0.8726
 4655TIP3    H235457   2.758   1.430  16.918 -0.1846  0.3440 -0.3432
 4656TIP3   OH235458   3.516   4.175  15.391  0.0596  0.4877 -0.5495
 4656TIP3    H135459   3.563   4.119  15.453  1.8900  0.4057 -1.9127
 4656TIP3    H235460   3.425   4.147  15.398  0.7800 -2.1483 -0.6315
 4657TIP3   OH235461   4.399   0.791  11.908 -0.4831 -0.0887 -0.4143
 4657TIP3    H135462   4.341   0.823  11.976  0.5350  2.5068 -0.6249
 4657TIP3    H235463   4.346   0.730  11.857 -1.7671 -0.7981  1.6761
 4658TIP3   OH235464   1.755   0.558  13.668  0.0079  0.7087  0.1512
 4658TIP3    H135465   1.675   0.517  13.634 -0.5509 -0.3995  2.5771
 4658TIP3    H235466   1.727   0.605  13.746  1.6360  0.7894  0.7219
 4659TIP3   OH235467   1.547   1.763   4.111  0.4706  0.5765  0.1600
 4659TIP3    H135468   1.553   1.855   4.084 -2.0042  1.7689  3.1119
 4659TIP3    H235469   1.467   1.731   4.069  1.9374 -0.7019 -1.8121
 4660TIP3   OH235470   1.741   1.617  11.632  0.4086 -0.3323  0.0944
 4660TIP3    H135471   1.784   1.642  11.713 -1.6626  0.1761  1.0934
 4660TIP3    H235472   1.756   1.522  11.625  1.2483 -0.2513  0.6362
 4661TIP3   OH235473   5.385   5.398  14.545 -0.1215 -0.5557 -0.4186
 4661TIP3    H135474   5.472   5.360  14.536  0.0109 -1.1239  2.3395
 4661TIP3    H235475   5.400   5.493  14.545  0.0704 -0.5289 -2.9534
 4662TIP3   OH235476   3.405   6.024  11.280  0.1448 -0.8416 -0.8639
 4662TIP3    H135477   3.350   5.958  11.239 -2.8720 -0.5069  2.1606
 4662TIP3    H235478   3.494   5.987  11.278 -1.0076 -3.8465 -1.4140
 4663TIP3   OH235479   2.652   6.007   4.375 -0.2917  0.3748 -0.0020
 4663TIP3    H135480   2.596   6.019   4.298  1.1469 -0.0243 -1.1520
 4663TIP3    H235481   2.669   6.096   4.407  0.8169  0.7130 -1.4486
 4664TIP3   OH235482   3.137   6.613   4.066 -0.4032  0.0748 -0.3741
 4664TIP3    H135483   3.120   6.531   4.110 -0.4693 -1.0537 -2.3706
 4664TIP3    H235484   3.225   6.604   4.030 -0.7558  0.4902 -1.3873
 4665TIP3   OH235485   2.098   4.377  11.778 -0.1402  0.4162  0.0846
 4665TIP3    H135486   2.084   4.467  11.807 -0.2757  0.6291 -0.6307
 4665TIP3    H235487   2.138   4.386  11.692 -0.8950 -0.2106 -0.3420
 4666TIP3   OH235488   2.529   3.083   0.508 -0.0151  0.4581  0.6175
 4666TIP3    H135489   2.436   3.107   0.504  0.2492  1.5672  0.6547
 4666TIP3    H235490   2.554   3.065   0.417  0.5172  3.4913  0.0341
 4667TIP3   OH235491   6.655   5.237  15.017  0.5087  0.0327 -0.2340
 4667TIP3    H135492   6.647   5.269  15.107  0.6350 -0.2827 -0.1097
 4667TIP3    H235493   6.728   5.288  14.980  1.8245 -1.2743  0.4882
 4668TIP3   OH235494   0.474   6.225   1.272 -0.2000 -0.8243  0.2172
 4668TIP3    H135495   0.449   6.162   1.205 -1.6584 -1.1694  1.0516
 4668TIP3    H235496   0.396   6.235   1.326  0.1953  1.2482  0.4719
 4669TIP3   OH235497   5.936   6.661  14.455 -0.3686 -0.0581  0.8848
 4669TIP3    H135498   5.937   6.752  14.425 -1.2500 -0.1675  0.5120
 4669TIP3    H235499   6.014   6.622  14.416  0.0724  0.5597  1.1292
 4670TIP3   OH235500   3.728   0.657   4.948  0.3955  0.1459 -0.3031
 4670TIP3    H135501   3.683   0.641   5.031 -2.8329 -1.5084 -2.1749
 4670TIP3    H235502   3.799   0.593   4.946 -0.6645 -1.0894  0.4298
 4671TIP3   OH235503   6.582   2.244  10.547  0.0754 -0.6173  0.2836
 4671TIP3    H135504   6.515   2.288  10.495  1.3324  0.1996 -0.6943
 4671TIP3    H235505   6.601   2.163  10.498  0.8106 -0.1525 -0.2136
 4672TIP3   OH235506   0.728   2.202   1.731 -0.5273 -0.0753 -0.5179
 4672TIP3    H135507   0.646   2.241   1.761 -1.1559 -1.2344 -0.6834
 4672TIP3    H235508   0.778   2.188   1.812 -1.2520 -1.0316 -0.2156
 4673TIP3   OH235509   1.500   0.453  13.562 -0.9422  0.4638  0.5650
 4673TIP3    H135510   1.523   0.509  13.488 -1.5432  0.0416  0.0525
 4673TIP3    H235511   1.410   0.426  13.544 -0.9467  0.0240  1.2445
 4674TIP3   OH235512   1.041   0.321   5.761 -0.4027 -0.3863 -0.4152
 4674TIP3    H135513   0.985   0.398   5.758 -0.3832 -0.2475  1.5870
 4674TIP3    H235514   1.101   0.337   5.833 -0.8536 -2.5459  0.5114
 4675TIP3   OH235515   4.740   2.669   3.160 -0.2303  0.2056  0.4257
 4675TIP3    H135516   4.750   2.582   3.197 -0.4242  0.2324  0.5453
 4675TIP3    H235517   4.695   2.655   3.077  1.6707 -0.0118 -0.6028
 4676TIP3   OH235518   1.135   2.425   3.229 -0.2798 -0.2941  0.2257
 4676TIP3    H135519   1.221   2.397   3.261 -0.0912 -2.0994 -1.6895
 4676TIP3    H235520   1.154   2.497   3.169 -0.3160  0.5636  1.2061
 4677TIP3   OH235521   1.186   2.462   1.115  0.3550 -0.4766  0.0329
 4677TIP3    H135522   1.183   2.398   1.043  1.7880  0.4824 -0.9265
 4677TIP3    H235523   1.278   2.465   1.141 -0.0964 -0.5554  1.7041
 4678TIP3   OH235524   4.304   6.127   5.729 -0.1819 -0.3511  0.2028
 4678TIP3    H135525   4.384   6.153   5.683 -1.8197  2.1643 -1.4926
 4678TIP3    H235526   4.250   6.086   5.661 -1.0336 -0.3622  0.8788
 4679TIP3   OH235527   0.928   5.499  16.593  0.9522  0.6784 -0.3222
 4679TIP3    H135528   0.999   5.454  16.638  1.6475  0.2425 -1.7854
 4679TIP3    H235529   0.859   5.508  16.659  1.3384 -1.2866  0.4059
 4680TIP3   OH235530   3.892   5.300   1.428 -0.6922 -0.1269 -0.0194
 4680TIP3    H135531   3.907   5.318   1.520  0.9128 -1.5310  0.0338
 4680TIP3    H235532   3.799   5.278   1.423 -0.4553 -1.6775  1.5844
 4681TIP3   OH235533   2.720   5.338  15.654  0.4031  0.2681 -0.1861
 4681TIP3    H135534   2.637   5.380  15.677  1.0226  1.0471  0.7035
 4681TIP3    H235535   2.779   5.363  15.725  1.0789 -1.2723 -0.1763
 4682TIP3   OH235536   5.093   2.051  14.436 -0.3373 -0.2368  0.1347
 4682TIP3    H135537   5.186   2.074  14.440  0.0409 -1.2986 -1.5614
 4682TIP3    H235538   5.088   1.966  14.480 -0.1802 -0.9700 -1.2107
 4683TIP3   OH235539   5.468   5.963  14.260 -0.2061 -0.3039  0.4179
 4683TIP3    H135540   5.552   5.958  14.215 -1.1376  1.0984 -1.6619
 4683TIP3    H235541   5.490   5.956  14.353  2.1559 -0.2965 -0.0696
 4684TIP3   OH235542   4.377   2.667   4.279  0.1495  0.2905  0.0979
 4684TIP3    H135543   4.345   2.756   4.269 -1.4958 -0.5003 -3.4807
 4684TIP3    H235544   4.472   2.675   4.279  0.0204  2.0632  0.3851
 4685TIP3   OH235545   4.231   5.390  13.997  0.3408  0.2980  0.2637
 4685TIP3    H135546   4.270   5.359  13.915 -1.6580  1.9369 -1.4301
 4685TIP3    H235547   4.137   5.373  13.987  0.0427  0.4623  2.2777
 4686TIP3   OH235548   6.760   5.441  11.391  0.0957  0.8719 -0.7744
 4686TIP3    H135549   6.780   5.394  11.471 -0.4666  0.6032 -0.7869
 4686TIP3    H235550   6.817   5.518  11.393  2.3224 -0.6556 -1.6011
 4687TIP3   OH235551   0.572   5.737  14.559  0.2718 -0.4111  0.7062
 4687TIP3    H135552   0.533   5.688  14.631  0.0578  1.9790  2.3385
 4687TIP3    H235553   0.523   5.819  14.557 -1.2046 -1.1254 -3.6302
 4688TIP3   OH235554   4.633   2.059   0.118 -0.2590  0.1006 -0.4262
 4688TIP3    H135555   4.620   2.073   0.024 -2.4269  0.1421 -0.1697
 4688TIP3    H235556   4.611   1.967   0.132 -0.3346  0.1948  0.0869
 4689TIP3   OH235557   4.878   1.913  12.175 -0.2285 -0.1793  0.3401
 4689TIP3    H135558   4.855   1.930  12.084  1.0360 -1.6090 -0.2943
 4689TIP3    H235559   4.798   1.934  12.224  0.0338  3.9834 -0.5905
 4690TIP3   OH235560   3.663   5.428   5.870  0.2311 -0.0241 -0.3486
 4690TIP3    H135561   3.705   5.343   5.859  0.6052  0.1726 -0.4331
 4690TIP3    H235562   3.576   5.407   5.905  0.2499 -0.4501 -0.5549
 4691TIP3   OH235563   5.400   4.794   2.180  0.3452  0.3637  0.3342
 4691TIP3    H135564   5.490   4.787   2.147 -0.2236 -0.4877 -1.1335
 4691TIP3    H235565   5.405   4.761   2.270  1.5131  0.4113  0.3009
 4692TIP3   OH235566   0.074   4.131  11.169  0.7480 -0.4281 -0.2813
 4692TIP3    H135567   0.151   4.185  11.150  0.3596 -0.1892 -1.2924
 4692TIP3    H235568   0.002   4.179  11.127 -0.0739 -0.2838  1.2278
 4693TIP3   OH235569   1.730   4.748  16.152  0.0176  0.0193  0.4885
 4693TIP3    H135570   1.720   4.843  16.158  1.4421  0.4485 -2.0345
 4693TIP3    H235571   1.665   4.720  16.088  1.4890 -0.1667 -1.0221
 4694TIP3   OH235572   1.820   4.669   0.003  0.4614  0.1690  0.0412
 4694TIP3    H135573   1.841   4.724   0.078 -0.5866  1.1454 -0.3469
 4694TIP3    H235574   1.875   4.702  -0.068 -0.5784  1.1468 -0.3449
 4695TIP3   OH235575   0.643   4.661  12.929 -0.0018  0.3113 -0.3364
 4695TIP3    H135576   0.637   4.574  12.968  1.4783  0.5351  0.4674
 4695TIP3    H235577   0.570   4.664  12.867  0.6929 -2.0015 -1.3910
 4696TIP3   OH235578   1.772   1.281   2.378  0.3555  0.3022  0.0713
 4696TIP3    H135579   1.681   1.282   2.349  0.7043  1.4066 -1.1178
 4696TIP3    H235580   1.770   1.320   2.465 -0.2999  0.3686  0.0332
 4697TIP3   OH235581   2.423   6.383  14.829  0.0837 -0.2920 -0.7277
 4697TIP3    H135582   2.405   6.291  14.812 -1.8561 -0.3862  1.2917
 4697TIP3    H235583   2.366   6.431  14.768  2.6805 -0.2681 -3.3380
 4698TIP3   OH235584   4.629   5.795  16.943 -0.3608  0.4428 -1.1970
 4698TIP3    H135585   4.644   5.864  16.879  1.0124 -1.0343 -2.5864
 4698TIP3    H235586   4.542   5.760  16.920  0.1493 -0.1282 -2.3737
 4699TIP3   OH235587   1.940   0.025  12.667 -0.1486 -0.0519 -0.0648
 4699TIP3    H135588   1.870   0.089  12.681 -0.4889 -0.1599 -1.1962
 4699TIP3    H235589   1.994   0.031  12.747 -1.2325  0.2829  0.6666
 4700TIP3   OH235590   1.003   3.863   2.505 -0.7612 -0.6873  0.0745
 4700TIP3    H135591   0.930   3.885   2.563 -0.0341  0.2312  0.6826
 4700TIP3    H235592   0.964   3.811   2.435 -2.1826  0.6625 -0.1874
 4701TIP3   OH235593   5.024   3.639   2.938  0.0026 -0.5804  0.3805
 4701TIP3    H135594   4.932   3.660   2.918 -0.0550 -0.2609  0.9452
 4701TIP3    H235595   5.067   3.638   2.853 -0.2237  0.7914  0.2192
 4702TIP3   OH235596   3.259   2.452   6.407  0.0898 -0.2111 -0.1357
 4702TIP3    H135597   3.262   2.391   6.480 -1.9093 -0.8363 -0.5035
 4702TIP3    H235598   3.237   2.536   6.447  1.9099  0.1213  0.2623
 4703TIP3   OH235599   0.451   2.391   5.486 -0.3973 -0.5696 -0.7247
 4703TIP3    H135600   0.464   2.428   5.399 -1.1539 -0.8780 -0.9852
 4703TIP3    H235601   0.453   2.466   5.545  1.7750 -0.5226 -0.7831
 4704TIP3   OH235602   1.946   2.160  10.539 -0.0740  0.0425  0.5533
 4704TIP3    H135603   2.034   2.161  10.502 -1.2915 -1.0961 -2.7622
 4704TIP3    H235604   1.904   2.238  10.504 -1.4104 -1.3005 -1.0529
 4705TIP3   OH235605   2.508   3.164   4.771 -0.2287 -0.0318 -0.3632
 4705TIP3    H135606   2.594   3.136   4.739  0.5472 -2.4916  3.2488
 4705TIP3    H235607   2.446   3.126   4.709  1.2200 -1.6434 -0.9198
 4706TIP3   OH235608   2.111   4.053  14.285 -0.0773 -0.7510 -0.2436
 4706TIP3    H135609   2.146   4.084  14.202  1.4589 -0.6238  0.4189
 4706TIP3    H235610   2.049   3.984  14.261  0.2576 -0.6414 -1.4831
 4707TIP3   OH235611   3.781   5.796   4.119  0.1162 -0.1310  0.2263
 4707TIP3    H135612   3.850   5.819   4.181 -0.2784  1.2254  0.1764
 4707TIP3    H235613   3.793   5.702   4.105  1.0313 -0.2049  1.3400
 4708TIP3   OH235614   4.563   6.685  12.861 -0.5532  0.7557  0.1404
 4708TIP3    H135615   4.576   6.777  12.837 -0.9230  0.6797 -0.3697
 4708TIP3    H235616   4.495   6.654  12.801 -0.9353  0.3377  0.7763
 4709TIP3   OH235617   5.575   5.841  16.917  0.0791 -0.7605  0.2471
 4709TIP3    H135618   5.552   5.748  16.920  0.0934 -0.7716  0.0133
 4709TIP3    H235619   5.573   5.869  17.008  1.0874 -1.2380  0.4376
 4710TIP3   OH235620   4.596   1.808  11.943  0.2041  0.2975  0.9081
 4710TIP3    H135621   4.572   1.717  11.961  2.1969 -0.4782 -0.0725
 4710TIP3    H235622   4.691   1.806  11.932  0.2721  2.4867  0.6779
 4711TIP3   OH235623   0.897   1.497   3.997  0.2947 -0.0380 -0.3876
 4711TIP3    H135624   0.919   1.458   4.082 -1.1486 -0.8402 -0.3510
 4711TIP3    H235625   0.867   1.585   4.018 -1.3714 -0.6946  0.1162
 4712TIP3   OH235626   6.196   0.660   4.546 -0.9100 -0.5992  0.1476
 4712TIP3    H135627   6.110   0.668   4.505 -0.7709  0.4411  0.0376
 4712TIP3    H235628   6.214   0.747   4.581 -0.0271 -0.8841  0.4189
 4713TIP3   OH235629   0.981   3.011  10.727 -0.3984 -0.3071  0.9947
 4713TIP3    H135630   0.897   3.034  10.686 -0.0052  0.8577  0.8013
 4713TIP3    H235631   0.977   2.916  10.737 -0.2245 -0.8402 -2.4951
 4714TIP3   OH235632   2.628   4.855   4.000 -0.0989  0.0356  0.4346
 4714TIP3    H135633   2.537   4.848   4.028 -1.0328 -0.7170 -2.4166
 4714TIP3    H235634   2.666   4.770   4.021 -0.8899 -0.6669 -0.8628
 4715TIP3   OH235635   0.653   5.883  16.522 -0.5276  0.0352 -0.3551
 4715TIP3    H135636   0.711   5.809  16.539 -0.6792  0.3531  1.8589
 4715TIP3    H235637   0.690   5.924  16.443  1.4568 -0.5598  0.2004
 4716TIP3   OH235638   1.453   0.437   2.402  0.1083  0.3438  0.1707
 4716TIP3    H135639   1.433   0.360   2.349  0.6445  0.1061  0.3026
 4716TIP3    H235640   1.500   0.496   2.343  1.6854 -0.3818  0.6365
 4717TIP3   OH235641   4.686   0.290   0.419  0.8349  0.5879  0.0989
 4717TIP3    H135642   4.733   0.291   0.336 -0.3795  1.2517 -0.6090
 4717TIP3    H235643   4.654   0.200   0.428 -0.7062  0.9533 -1.1746
 4718TIP3   OH235644   1.891   1.602   2.284  0.0145 -0.1242  0.7455
 4718TIP3    H135645   1.939   1.559   2.213  0.0793  0.1404  0.6279
 4718TIP3    H235646   1.916   1.694   2.279 -0.8691  0.1131  0.3758
 4719TIP3   OH235647   6.071   4.479  11.314  0.2998  0.2253  0.0628
 4719TIP3    H135648   5.989   4.459  11.359 -0.2859 -1.4829 -1.6353
 4719TIP3    H235649   6.107   4.394  11.291  2.3689  0.9678  0.3958
 4720TIP3   OH235650   1.758   0.958   5.426 -0.4354 -0.6911  0.1243
 4720TIP3    H135651   1.796   0.931   5.510  1.9320 -1.5658 -1.1234
 4720TIP3    H235652   1.730   1.049   5.440  2.1540  0.0323  1.2327
 4721TIP3   OH235653   2.084   4.544   1.161  0.2862 -0.8051  0.2118
 4721TIP3    H135654   2.111   4.466   1.209  0.9794 -0.7696 -0.1094
 4721TIP3    H235655   2.069   4.609   1.229 -2.6551 -1.8568  0.6877
 4722TIP3   OH235656   0.009   2.612  16.835 -0.9365  0.0575 -0.1252
 4722TIP3    H135657   0.080   2.664  16.874 -1.0475  0.0377  0.1093
 4722TIP3    H235658   0.052   2.549  16.778 -0.8461  1.0418 -1.1836
 4723TIP3   OH235659   2.406   1.324  14.432  0.0470  0.6251 -0.2346
 4723TIP3    H135660   2.399   1.236  14.395 -2.1667  1.2311 -1.4969
 4723TIP3    H235661   2.436   1.310  14.522  0.5020 -1.3342 -0.6322
 4724TIP3   OH235662   6.159   1.423  14.970  0.0956  0.0940  0.0622
 4724TIP3    H135663   6.119   1.507  14.989  0.3510 -0.4554  3.7955
 4724TIP3    H235664   6.094   1.375  14.919 -1.3230  1.4634  0.5396
 4725TIP3   OH235665   5.163   3.524   3.360  0.2054 -0.6925 -0.3979
 4725TIP3    H135666   5.202   3.589   3.302 -0.2917 -0.3520 -0.3562
 4725TIP3    H235667   5.236   3.492   3.412  0.1172  1.4676  1.1683
 4726TIP3   OH235668   3.936   5.936   4.363  0.2866  0.1048  0.0874
 4726TIP3    H135669   3.900   6.013   4.318  0.7116  0.4486  0.3208
 4726TIP3    H235670   3.873   5.917   4.432  0.4806  0.6217  0.4113
 4727TIP3   OH235671   0.082   0.619   1.011  0.1133  0.1992  0.2008
 4727TIP3    H135672   0.155   0.642   1.069  0.7272  0.5784 -0.7094
 4727TIP3    H235673   0.004   0.642   1.062  0.6583  1.7811  0.3836
 4728TIP3   OH235674   0.032   5.301  13.909 -0.0286 -0.7722 -0.0313
 4728TIP3    H135675   0.113   5.315  13.959  0.2492 -2.5963  0.1003
 4728TIP3    H235676  -0.038   5.312  13.974  0.1979 -0.6467  0.1953
 4729TIP3   OH235677   6.686   3.771   5.706 -0.7705  0.2408  0.2167
 4729TIP3    H135678   6.739   3.846   5.679  0.9386 -1.1553 -0.4977
 4729TIP3    H235679   6.665   3.726   5.624  0.7153 -1.6169  0.7679
 4730TIP3   OH235680   3.887   3.980   1.371  0.3034  0.2986  0.1181
 4730TIP3    H135681   3.879   4.019   1.458 -0.5636 -0.1567  0.2551
 4730TIP3    H235682   3.910   4.054   1.314  0.3751  0.6949  0.6484
 4731TIP3   OH235683   4.099   1.534   2.617 -0.0358  0.1160 -0.0905
 4731TIP3    H135684   4.074   1.484   2.695  1.0020 -2.5920 -1.3352
 4731TIP3    H235685   4.101   1.625   2.646 -0.2083 -0.7144  2.8824
 4732TIP3   OH235686   2.144   2.762   1.462 -0.0837 -0.1743 -0.0414
 4732TIP3    H135687   2.192   2.701   1.517 -0.2086 -1.6164 -1.4689
 4732TIP3    H235688   2.075   2.709   1.422  1.4662  0.1325 -3.4921
 4733TIP3   OH235689   2.250   6.117   5.655 -0.2734  0.1227 -0.1489
 4733TIP3    H135690   2.277   6.083   5.741 -0.6336  0.0402 -0.0640
 4733TIP3    H235691   2.156   6.134   5.665 -0.7041 -1.5075 -1.0249
 4734TIP3   OH235692   6.462   6.326  14.543  0.2176 -1.0696  0.0639
 4734TIP3    H135693   6.430   6.236  14.547  1.4049 -1.6275 -1.7427
 4734TIP3    H235694   6.517   6.328  14.464  0.5363  1.1351  0.2934
 4735TIP3   OH235695   5.957   1.861   3.943 -0.3306 -0.0764 -0.2392
 4735TIP3    H135696   5.989   1.867   4.033  0.0760  1.1231 -0.4435
 4735TIP3    H235697   5.908   1.779   3.940 -1.5425  0.5429  1.4418
 4736TIP3   OH235698   5.597   5.708  16.194  0.0653  0.0949 -0.1604
 4736TIP3    H135699   5.513   5.726  16.236  1.3141  0.9395  2.1586
 4736TIP3    H235700   5.583   5.625  16.147 -1.2598 -1.4557  2.6784
 4737TIP3   OH235701   0.344   6.686   4.611  1.0323 -0.0212 -0.1548
 4737TIP3    H135702   0.436   6.698   4.635  1.5847 -0.5307 -1.8653
 4737TIP3    H235703   0.347   6.638   4.529 -0.7272  1.2594 -1.0319
 4738TIP3   OH235704   1.917   3.267  15.244  0.4522 -0.1556 -0.0530
 4738TIP3    H135705   1.951   3.284  15.332  0.0643  1.2140 -0.1513
 4738TIP3    H235706   1.824   3.247  15.257 -0.0532  1.8391 -0.2691
 4739TIP3   OH235707   4.775   5.648   3.052  0.6992 -0.2697  0.4955
 4739TIP3    H135708   4.849   5.612   3.003  0.5601  1.1099 -0.7670
 4739TIP3    H235709   4.705   5.585   3.040  0.5336  0.2408 -1.4818
 4740TIP3   OH235710   1.390   3.730  14.468 -0.3278  0.2157  0.4883
 4740TIP3    H135711   1.374   3.763  14.557 -0.8048 -2.7987  1.6419
 4740TIP3    H235712   1.484   3.745  14.454 -0.7115  3.0749  0.3648
 4741TIP3   OH235713   5.349   2.121  14.543  0.1322 -0.5356  0.3014
 4741TIP3    H135714   5.436   2.102  14.576 -0.5499 -1.7924  1.4758
 4741TIP3    H235715   5.325   2.204  14.583  1.1358  0.3063 -0.7859
 4742TIP3   OH235716   2.618   4.713  14.484 -0.0332  0.2252  0.1753
 4742TIP3    H135717   2.534   4.757  14.493 -0.3530 -0.2694 -0.2829
 4742TIP3    H235718   2.604   4.625  14.519  0.5160  0.3865  0.8212
 4743TIP3   OH235719   3.566   5.688  12.224  0.2148  0.2948  0.1515
 4743TIP3    H135720   3.577   5.781  12.245 -1.3897  0.4776  0.2955
 4743TIP3    H235721   3.509   5.687  12.147  1.9052 -0.5382 -1.1491
 4744TIP3   OH235722   6.602   4.556  14.696  0.5753  0.4130 -0.1242
 4744TIP3    H135723   6.667   4.626  14.689  0.0549  0.8582 -0.5611
 4744TIP3    H235724   6.608   4.528  14.788  1.4477  0.3768 -0.1842
 4745TIP3   OH235725   1.041   4.579  17.229  0.3164  1.0091  0.1041
 4745TIP3    H135726   0.994   4.523  17.290 -0.0074  0.9494 -0.1956
 4745TIP3    H235727   1.084   4.519  17.168 -0.2843  1.0839 -0.4062
 4746TIP3   OH235728   3.524   0.599   3.375  0.2635 -0.3555  0.4642
 4746TIP3    H135729   3.474   0.582   3.455  0.9232  1.9096  1.4278
 4746TIP3    H235730   3.464   0.573   3.304 -0.8027 -1.2605  1.6539
 4747TIP3   OH235731   2.416   2.131  17.119 -0.7638  0.7057 -0.2095
 4747TIP3    H135732   2.386   2.217  17.093 -1.1717  0.2846 -1.1609
 4747TIP3    H235733   2.336   2.078  17.124 -0.5688  0.4898  0.8072
 4748TIP3   OH235734   2.730   0.025  12.694  0.0385  0.2590 -0.3175
 4748TIP3    H135735   2.723  -0.036  12.620  0.9986  0.2341 -0.3949
 4748TIP3    H235736   2.678  -0.016  12.763 -1.9406  0.8947 -1.3435
 4749TIP3   OH235737   1.892   2.866  15.105  0.1337  0.4939 -0.0905
 4749TIP3    H135738   1.809   2.888  15.147  0.2875  0.5830  0.1685
 4749TIP3    H235739   1.872   2.787  15.054 -0.4989  1.3906 -1.2856
 4750TIP3   OH235740   1.175   6.726   0.466 -0.2768 -0.0514  0.0730
 4750TIP3    H135741   1.132   6.657   0.415  1.5902 -1.3754  0.1915
 4750TIP3    H235742   1.141   6.808   0.429 -0.0141 -0.9798 -2.3858
 4751TIP3   OH235743   5.953   3.546  14.106 -0.2403 -0.4439  0.1074
 4751TIP3    H135744   5.953   3.471  14.046 -3.6406  0.0439 -0.7077
 4751TIP3    H235745   5.960   3.507  14.193 -0.5805 -1.6046 -0.3634
 4752TIP3   OH235746   5.140   0.184   6.475 -0.3913  0.0212  0.2427
 4752TIP3    H135747   5.047   0.170   6.461 -0.2355 -0.8959  0.0423
 4752TIP3    H235748   5.146   0.269   6.518 -1.2604  0.4571 -0.4777
 4753TIP3   OH235749   1.390   2.973  12.099 -0.1489  0.0390  0.2257
 4753TIP3    H135750   1.482   2.999  12.095  0.4632 -2.0777 -1.0932
 4753TIP3    H235751   1.342   3.050  12.068  1.1647  1.1025  0.7329
 4754TIP3   OH235752   5.378   6.248  11.947  0.3589  0.1439  0.0628
 4754TIP3    H135753   5.392   6.332  11.991 -1.9884  1.6100 -1.7394
 4754TIP3    H235754   5.401   6.264  11.856 -1.3522 -0.7274 -0.5747
 4755TIP3   OH235755   0.150   5.398  14.932  0.3064  0.2083  0.3811
 4755TIP3    H135756   0.192   5.465  14.985  0.0206  0.2297  0.5795
 4755TIP3    H235757   0.223   5.355  14.887  0.3989  1.5766 -0.8598
 4756TIP3   OH235758   3.786   5.007   4.612  0.6046  0.2644 -0.7305
 4756TIP3    H135759   3.830   4.999   4.528 -0.5789  2.6902 -1.6713
 4756TIP3    H235760   3.832   5.078   4.657 -0.2561  0.5913 -0.3373
 4757TIP3   OH235761   4.161   1.014  14.840 -0.3429  0.4815  0.0170
 4757TIP3    H135762   4.182   0.992  14.930 -0.2588 -0.1984 -0.1661
 4757TIP3    H235763   4.107   1.093  14.846  0.9666  1.3635  0.5695
 4758TIP3   OH235764   2.808   5.891  11.937  0.2485 -0.0252 -0.6888
 4758TIP3    H135765   2.894   5.929  11.952  0.2568  0.2913 -1.4649
 4758TIP3    H235766   2.747   5.962  11.959 -0.0139 -1.1206  2.7499
 4759TIP3   OH235767   1.986   3.071   4.756 -0.0202  0.4503 -0.3699
 4759TIP3    H135768   2.044   3.142   4.783 -0.4187  1.0657 -1.0852
 4759TIP3    H235769   2.042   2.994   4.749  0.1368  0.2598  2.0726
 4760TIP3   OH235770   6.391   2.806   6.432  0.1303  0.6787 -0.9193
 4760TIP3    H135771   6.473   2.854   6.424  0.3619  0.0778 -2.3546
 4760TIP3    H235772   6.326   2.860   6.388  0.1134  0.3555 -1.3021
 4761TIP3   OH235773   4.194   5.585   3.422 -0.2740  0.1574  0.3844
 4761TIP3    H135774   4.168   5.513   3.479 -0.3744  0.6279  0.9390
 4761TIP3    H235775   4.139   5.574   3.343  0.2922 -0.8359  0.1183
 4762TIP3   OH235776   5.737   1.054   3.662 -0.2053 -0.3182 -0.4081
 4762TIP3    H135777   5.723   0.961   3.642  1.2184 -1.1150  1.9277
 4762TIP3    H235778   5.831   1.062   3.676 -0.6290  0.6995  2.6301
 4763TIP3   OH235779   4.187   3.601   4.363 -0.1994 -0.3253  0.0858
 4763TIP3    H135780   4.278   3.588   4.389  0.3115 -1.0979 -1.9318
 4763TIP3    H235781   4.191   3.624   4.270 -1.8943  2.6693  0.6172
 4764TIP3   OH235782   5.845   5.528  17.260 -0.4533 -0.2731  0.6798
 4764TIP3    H135783   5.810   5.588  17.325  0.9119 -0.5415  1.6908
 4764TIP3    H235784   5.780   5.457  17.257 -0.4425 -0.3517  1.8830
 4765TIP3   OH235785   2.743   2.916   2.950 -0.2319 -0.2530 -0.3668
 4765TIP3    H135786   2.675   2.939   3.014  0.5145  0.3126  0.2413
 4765TIP3    H235787   2.825   2.926   2.998  0.2707 -1.3604 -0.9666
 4766TIP3   OH235788   4.159   0.311  12.218  0.2440  0.5145  0.1949
 4766TIP3    H135789   4.205   0.365  12.282 -2.0778  3.6200 -0.5551
 4766TIP3    H235790   4.145   0.369  12.143 -0.8571 -1.7080 -1.4271
 4767TIP3   OH235791   3.909   2.071  13.789 -0.5045 -0.5043  0.4232
 4767TIP3    H135792   3.916   2.003  13.722 -0.3214 -0.9416  0.8861
 4767TIP3    H235793   3.815   2.089  13.796 -0.4724  0.1606 -0.5567
 4768TIP3   OH235794   1.777   4.258   5.264  0.8297 -0.0947 -0.0618
 4768TIP3    H135795   1.748   4.284   5.352 -0.1105 -1.3326  0.0339
 4768TIP3    H235796   1.871   4.243   5.274  0.6270 -0.8809  0.9313
 4769TIP3   OH235797   2.608   1.500  12.335 -0.5555 -0.1538 -0.0021
 4769TIP3    H135798   2.644   1.412  12.338 -1.0507 -0.4111 -1.3463
 4769TIP3    H235799   2.637   1.536  12.252 -2.3874  0.0483 -0.6080
 4770TIP3   OH235800   6.622   0.060  11.563  0.0917  0.1350 -0.1612
 4770TIP3    H135801   6.685  -0.012  11.573 -1.8018 -1.5180  0.7263
 4770TIP3    H235802   6.546   0.031  11.612 -1.6539  1.7158 -1.7830
 4771TIP3   OH235803   0.344   0.322  16.277  0.1491  0.7050  0.3901
 4771TIP3    H135804   0.380   0.257  16.337 -0.4660 -0.5206 -0.5221
 4771TIP3    H235805   0.337   0.402  16.329 -0.5822 -0.3698  2.0191
 4772TIP3   OH235806   5.819   0.304   1.057 -0.3845  0.1636 -0.4732
 4772TIP3    H135807   5.904   0.271   1.084 -0.1691 -0.1728 -1.5030
 4772TIP3    H235808   5.767   0.305   1.137  0.8102  1.1217  0.3335
 4773TIP3   OH235809   3.252   0.879   1.224 -0.0640  0.0691  0.1558
 4773TIP3    H135810   3.255   0.960   1.273 -1.0655  0.5755 -0.5823
 4773TIP3    H235811   3.306   0.896   1.146  0.5472 -0.3251  0.4842
 4774TIP3   OH235812   2.136   6.328   2.044 -0.5022  0.1599 -0.3172
 4774TIP3    H135813   2.074   6.349   2.114 -1.0208  0.2693 -0.7957
 4774TIP3    H235814   2.156   6.235   2.055  0.9119  0.5944  1.1283
 4775TIP3   OH235815   2.843   6.087   2.833 -0.2022 -0.0985  0.7841
 4775TIP3    H135816   2.876   6.156   2.776  0.0727  0.1638  1.2573
 4775TIP3    H235817   2.757   6.118   2.862  0.0196  0.1596  1.1816
 4776TIP3   OH235818   1.624   3.031  13.580 -0.2811 -0.9141  0.2345
 4776TIP3    H135819   1.554   3.093  13.559 -0.0739 -1.0741 -0.9611
 4776TIP3    H235820   1.581   2.946  13.578  0.0941 -1.0924 -1.3224
 4777TIP3   OH235821   4.967   3.480  17.395  0.1336 -0.4214 -0.4262
 4777TIP3    H135822   4.972   3.400  17.446  1.7470  0.3820  0.7877
 4777TIP3    H235823   4.887   3.523  17.423  1.4813  0.5214  2.3738
 4778TIP3   OH235824   1.543   6.371  12.494  0.3842 -0.1007  0.0477
 4778TIP3    H135825   1.609   6.303  12.487 -1.0591 -1.6620  1.0020
 4778TIP3    H235826   1.579   6.445  12.445  2.2744 -1.3160 -0.4621
 4779TIP3   OH235827   5.533   1.823   2.240  0.0205 -0.0634 -0.1651
 4779TIP3    H135828   5.438   1.823   2.233 -0.1722  1.2640  1.7956
 4779TIP3    H235829   5.558   1.914   2.226  1.1191 -0.5183 -1.4641
 4780TIP3   OH235830   2.288   4.273  16.361  0.1816 -0.0425 -0.2855
 4780TIP3    H135831   2.361   4.333  16.379  0.5134 -0.4964 -0.1267
 4780TIP3    H235832   2.292   4.208  16.430  0.0712 -0.4901 -0.6965
 4781TIP3   OH235833   4.405   1.577  12.734  0.4085  0.5239 -0.1849
 4781TIP3    H135834   4.396   1.481  12.730  1.1158  0.4662 -0.6876
 4781TIP3    H235835   4.373   1.600  12.821 -1.3825  0.0254 -0.6555
 4782TIP3   OH235836   3.759   3.786  10.744  0.1893 -0.4455  0.0838
 4782TIP3    H135837   3.745   3.698  10.710 -0.5518 -0.3567  0.1348
 4782TIP3    H235838   3.729   3.844  10.674 -1.9857 -0.2626  1.0801
 4783TIP3   OH235839   0.143   2.463  11.401 -0.0900 -0.3160 -0.0913
 4783TIP3    H135840   0.139   2.546  11.353 -1.6012  0.2661  0.9680
 4783TIP3    H235841   0.185   2.485  11.484  0.3291 -0.8144 -0.1631
 4784TIP3   OH235842   0.496   1.204   2.511  0.2110  1.2331 -0.0596
 4784TIP3    H135843   0.402   1.185   2.510  0.0118  1.9232 -2.6926
 4784TIP3    H235844   0.526   1.178   2.423  2.5579  0.7772  0.8051
 4785TIP3   OH235845   6.772   1.755   3.986 -0.0244 -0.3965  0.0002
 4785TIP3    H135846   6.864   1.776   3.968 -0.4117 -0.6128 -2.6044
 4785TIP3    H235847   6.734   1.839   4.013  0.9408 -0.3373  1.2566
 4786TIP3   OH235848   3.524   2.221   2.817 -0.5188  0.1762 -0.6108
 4786TIP3    H135849   3.489   2.210   2.905 -2.4933 -0.4546 -1.4329
 4786TIP3    H235850   3.568   2.138   2.799 -0.2922  0.2275 -0.3100
 4787TIP3   OH235851   4.511   5.107   1.994 -0.0183 -0.3179 -0.5192
 4787TIP3    H135852   4.585   5.063   1.952 -0.7369 -0.1950 -1.9879
 4787TIP3    H235853   4.463   5.038   2.038  2.2043 -0.1043  2.5278
 4788TIP3   OH235854   2.802   3.099  12.286  0.3764  0.8165 -0.2480
 4788TIP3    H135855   2.869   3.154  12.326  0.8748 -0.8137  1.2856
 4788TIP3    H235856   2.719   3.139  12.313  0.7283  1.0011  0.5781
 4789TIP3   OH235857   5.227   2.186  16.510  0.1736 -0.2575  0.4024
 4789TIP3    H135858   5.237   2.108  16.565  0.5054 -0.4105  0.1274
 4789TIP3    H235859   5.171   2.244  16.562 -0.9204 -1.0799  0.1783
 4790TIP3   OH235860   4.125   5.674  11.445 -0.9686 -0.3076  0.2939
 4790TIP3    H135861   4.047   5.637  11.405 -1.2529  0.3625  0.2091
 4790TIP3    H235862   4.168   5.723  11.375 -0.9174  0.0101  0.5419
 4791TIP3   OH235863   2.420   0.093   2.887 -0.3477 -0.2226 -0.3171
 4791TIP3    H135864   2.326   0.106   2.894 -0.3701 -0.8188  0.5357
 4791TIP3    H235865   2.446   0.054   2.970  0.5218 -0.8589 -0.8681
 4792TIP3   OH235866   4.776   0.493  12.856  0.3403  0.2567 -0.3344
 4792TIP3    H135867   4.744   0.511  12.945  1.6300  2.1894 -0.1936
 4792TIP3    H235868   4.705   0.443  12.815 -1.4617  1.6006  0.9520
 4793TIP3   OH235869   3.409   1.473  13.528  0.2621  0.2021 -0.2359
 4793TIP3    H135870   3.493   1.518  13.543  0.8571 -0.6360 -0.9705
 4793TIP3    H235871   3.398   1.474  13.433 -1.2401  1.4828 -0.0916
 4794TIP3   OH235872   2.768   0.413  17.271 -0.3101  0.5292 -0.5267
 4794TIP3    H135873   2.740   0.464  17.195  0.4626  0.9342 -0.5414
 4794TIP3    H235874   2.688   0.401  17.322 -0.5619  1.4788 -0.6818
 4795TIP3   OH235875   2.474   4.241   2.833 -0.1927  0.3453  0.1252
 4795TIP3    H135876   2.486   4.297   2.756 -0.8581  0.0667 -0.1916
 4795TIP3    H235877   2.427   4.164   2.800 -0.8370  0.4001  0.8846
 4796TIP3   OH235878   1.923   2.178   0.510 -0.1462  0.6821 -0.6645
 4796TIP3    H135879   1.968   2.104   0.550 -1.2205 -1.2214 -2.7248
 4796TIP3    H235880   1.979   2.203   0.436 -1.8138 -1.0978 -2.6749
 4797TIP3   OH235881   3.835   0.553   0.612 -0.1891  0.6042 -0.1812
 4797TIP3    H135882   3.753   0.579   0.655 -0.4190  0.5388 -0.5745
 4797TIP3    H235883   3.902   0.564   0.679 -0.8451 -1.7298  0.9645
 4798TIP3   OH235884   5.747   0.340  16.847 -0.4463 -0.3769 -0.2043
 4798TIP3    H135885   5.837   0.371  16.836 -0.0455 -1.1346  0.7663
 4798TIP3    H235886   5.692   0.412  16.815  0.4897 -1.0925 -3.8724
 4799TIP3   OH235887   0.395   4.079  17.469  0.0240 -0.0272  0.2260
 4799TIP3    H135888   0.308   4.042  17.485  0.0218  1.0971  3.7242
 4799TIP3    H235889   0.443   4.010  17.425 -1.9104 -1.6014  0.4370
 4800TIP3   OH235890   0.206   1.658   2.350 -0.4516  0.0218  0.2696
 4800TIP3    H135891   0.145   1.651   2.276 -0.0503  0.6754 -0.1385
 4800TIP3    H235892   0.253   1.574   2.350 -0.1478  0.1806 -0.5061
 4801TIP3   OH235893   0.386   1.475  14.135  0.2455 -0.0290 -0.2911
 4801TIP3    H135894   0.456   1.521  14.180 -0.2979  0.0280  0.5296
 4801TIP3    H235895   0.311   1.481  14.195  0.2277 -2.2037 -0.0156
 4802TIP3   OH235896   5.698   3.159  16.527 -0.6586  0.1398  0.1182
 4802TIP3    H135897   5.717   3.190  16.615 -1.4343 -0.8157  0.6432
 4802TIP3    H235898   5.684   3.065  16.536 -0.6712  0.0083 -1.0363
 4803TIP3   OH235899   3.908   2.632   3.908  0.0823  0.2571  0.0797
 4803TIP3    H135900   3.897   2.693   3.981  0.9547 -0.3050  0.6897
 4803TIP3    H235901   3.906   2.545   3.948 -1.9962 -0.2090 -0.8736
 4804TIP3   OH235902   5.162   1.960   5.794 -0.1693 -0.1154 -0.3835
 4804TIP3    H135903   5.213   1.880   5.799 -0.4157 -0.2219  0.7622
 4804TIP3    H235904   5.094   1.950   5.861 -1.2050  0.3601 -1.3097
 4805TIP3   OH235905   3.132   3.031  11.227  0.2158 -0.2072 -0.5614
 4805TIP3    H135906   3.110   3.104  11.170 -1.3985 -1.0126 -1.0367
 4805TIP3    H235907   3.219   3.003  11.199 -0.0106  0.2469 -1.7511
 4806TIP3   OH235908   4.520   1.485   4.254  0.2564 -0.5832 -0.0009
 4806TIP3    H135909   4.591   1.446   4.304  1.9354  0.9270 -1.0695
 4806TIP3    H235910   4.513   1.431   4.176 -0.2346 -1.1153  0.4051
 4807TIP3   OH235911   1.297   3.456  15.427  0.1689  0.0593 -0.4960
 4807TIP3    H135912   1.334   3.442  15.340 -0.0325  0.6060 -0.6678
 4807TIP3    H235913   1.344   3.532  15.462 -2.3305  2.3004 -1.6369
 4808TIP3   OH235914   6.696   6.284  13.072  0.4098 -0.2081 -0.3938
 4808TIP3    H135915   6.670   6.361  13.021  0.8891 -0.0812 -0.4607
 4808TIP3    H235916   6.641   6.287  13.150 -0.0756 -0.2007 -0.7363
 4809TIP3   OH235917   1.380   4.323  11.591 -0.0986  0.2138  0.3002
 4809TIP3    H135918   1.304   4.284  11.634 -0.0481  0.1894  0.3688
 4809TIP3    H235919   1.408   4.392  11.651 -0.6825  0.9022 -0.2141
 4810TIP3   OH235920   5.423   4.075  16.817 -0.2655 -0.3740 -0.0243
 4810TIP3    H135921   5.515   4.100  16.813 -0.4955  0.7017  0.8342
 4810TIP3    H235922   5.375   4.158  16.818 -1.1208 -0.8260  1.7554
 4811TIP3   OH235923   6.277   3.074   6.164 -0.1232  0.1370  0.1715
 4811TIP3    H135924   6.292   3.168   6.153 -0.5743  0.3825  1.4795
 4811TIP3    H235925   6.260   3.063   6.258  0.1881 -1.2917  0.0901
 4812TIP3   OH235926   2.979   6.379   5.922  0.1787 -0.1245 -0.2384
 4812TIP3    H135927   2.891   6.381   5.883 -1.3990  3.6523  2.7392
 4812TIP3    H235928   2.969   6.326   6.001  1.9650 -3.3762 -1.9843
 4813TIP3   OH235929   6.086   1.043   0.272 -0.1719  0.3302  0.2156
 4813TIP3    H135930   6.007   1.090   0.299 -0.7608 -0.0449 -0.7964
 4813TIP3    H235931   6.128   1.017   0.354 -1.4140  0.0280  0.7820
 4814TIP3   OH235932   2.520   0.675  13.991 -0.5061 -0.1038  0.2060
 4814TIP3    H135933   2.581   0.684  13.917 -0.9846  0.3600 -0.1335
 4814TIP3    H235934   2.445   0.628  13.954 -0.0315 -1.3777  0.8157
 4815TIP3   OH235935   1.960   2.194  16.701 -0.0268  0.2167 -0.1075
 4815TIP3    H135936   1.941   2.102  16.721 -1.0161  0.1091 -1.4268
 4815TIP3    H235937   2.027   2.191  16.633  0.9164  0.5248  0.7712
 4816TIP3   OH235938   0.978   2.873   3.534  0.0078 -0.6859 -0.2799
 4816TIP3    H135939   0.950   2.791   3.575  1.1824 -0.9493  0.0282
 4816TIP3    H235940   1.035   2.914   3.599  0.7548 -0.4296 -1.0771
 4817TIP3   OH235941   2.934   0.232  10.384  0.1330  0.3450 -0.0358
 4817TIP3    H135942   2.978   0.193  10.460  0.2564 -0.8035 -0.6807
 4817TIP3    H235943   2.844   0.244  10.412 -0.3044 -1.8878 -0.3019
 4818TIP3   OH235944   4.555   5.559  11.220 -0.5056 -0.3443  0.8492
 4818TIP3    H135945   4.541   5.654  11.217 -1.7097 -0.5102  0.4318
 4818TIP3    H235946   4.607   5.545  11.299 -0.8675  0.6057  1.2794
 4819TIP3   OH235947   2.766   1.844  14.578 -0.0254  0.9324 -0.4101
 4819TIP3    H135948   2.688   1.900  14.574  0.3076  1.4570  0.1052
 4819TIP3    H235949   2.775   1.808  14.490 -0.8579  0.8507 -0.4677
 4820TIP3   OH235950   2.603   4.821  13.751 -0.1578 -0.0077  0.2178
 4820TIP3    H135951   2.630   4.904  13.714 -0.2491  0.3479  0.9210
 4820TIP3    H235952   2.562   4.774  13.679 -0.1225  0.5683 -0.1824
 4821TIP3   OH235953   5.802   0.372  12.199  0.5104 -0.0543  0.4548
 4821TIP3    H135954   5.897   0.365  12.198  0.5811  0.0331 -2.5524
 4821TIP3    H235955   5.772   0.301  12.143 -1.1159  0.7295  0.2584
 4822TIP3   OH235956   4.214   2.966  15.283 -0.6219 -0.6173  0.0698
 4822TIP3    H135957   4.279   3.019  15.237 -0.6206 -0.5123  0.1923
 4822TIP3    H235958   4.184   3.022  15.355 -0.6972 -0.7427  0.1364
 4823TIP3   OH235959   5.710   3.520   5.682  0.3340 -0.7798 -0.6249
 4823TIP3    H135960   5.766   3.491   5.610  0.3484  0.0926 -0.9709
 4823TIP3    H235961   5.622   3.517   5.646  0.2357 -1.2946 -0.3576
 4824TIP3   OH235962   3.841   5.725  12.437 -0.0643 -0.1841  0.4026
 4824TIP3    H135963   3.849   5.820  12.429 -0.4307 -0.1157  0.7907
 4824TIP3    H235964   3.881   5.690  12.357 -0.7501  0.3351 -0.1861
 4825TIP3   OH235965   3.505   3.201  14.982 -0.1439  0.0020  0.1416
 4825TIP3    H135966   3.490   3.222  14.890 -1.6329  1.4200  0.6599
 4825TIP3    H235967   3.418   3.205  15.022  0.6385  0.8888  1.8927
 4826TIP3   OH235968   0.757   2.556   2.500  0.3416  0.1791  0.0697
 4826TIP3    H135969   0.818   2.497   2.455 -2.1855 -1.2016 -1.8197
 4826TIP3    H235970   0.750   2.631   2.441 -0.3716 -0.0446 -0.1359
 4827TIP3   OH235971   2.075   4.858   5.947  1.0396 -0.0918 -0.2204
 4827TIP3    H135972   2.119   4.773   5.940 -1.4390 -1.4271 -0.6445
 4827TIP3    H235973   2.055   4.881   5.856 -0.5508 -0.3556  0.0363
 4828TIP3   OH235974   5.010   3.540  11.906  0.0951 -0.8261 -0.7056
 4828TIP3    H135975   4.937   3.501  11.954 -2.1541  0.2152 -3.0811
 4828TIP3    H235976   5.012   3.631  11.936 -0.8430 -0.3658 -1.9799
 4829TIP3   OH235977   3.545   5.514   2.565 -0.6084 -0.1295 -0.3566
 4829TIP3    H135978   3.489   5.591   2.556  0.5928  1.0810  1.7058
 4829TIP3    H235979   3.634   5.548   2.559 -0.0179 -1.1151  1.7832
 4830TIP3   OH235980   5.676   4.588  12.839  0.0637 -0.0545  0.6225
 4830TIP3    H135981   5.770   4.575  12.840 -0.0640 -1.1861 -0.0236
 4830TIP3    H235982   5.639   4.500  12.832 -1.0333  0.3813  0.6105
 4831TIP3   OH235983   6.201   0.067   0.514 -0.0549  0.0553  0.2453
 4831TIP3    H135984   6.179   0.101   0.427 -2.1079 -0.0182  0.6878
 4831TIP3    H235985   6.169   0.134   0.574 -1.7245 -1.3571  1.0309
 4832TIP3   OH235986   2.936   0.199   5.198  0.3997 -0.2954 -0.5872
 4832TIP3    H135987   3.002   0.131   5.210 -0.5380 -1.1929 -0.3644
 4832TIP3    H235988   2.859   0.153   5.166 -1.2618  0.1435  2.4379
 4833TIP3   OH235989   4.224   1.271  11.838 -0.6981  0.3719  0.5433
 4833TIP3    H135990   4.252   1.360  11.816  0.6293  0.0071  0.6738
 4833TIP3    H235991   4.183   1.238  11.759  1.4496  0.0890 -0.5239
 4834TIP3   OH235992   6.195   0.411  16.642 -0.3255 -0.0917 -0.4010
 4834TIP3    H135993   6.211   0.355  16.566 -2.7222  1.1901 -1.9815
 4834TIP3    H235994   6.280   0.416  16.686  0.8067 -2.0758 -2.1528
 4835TIP3   OH235995   5.848   0.869  12.356  0.2429 -0.4016  0.9580
 4835TIP3    H135996   5.766   0.824  12.377 -0.2259 -0.0000  0.0346
 4835TIP3    H235997   5.907   0.844  12.427 -0.5610 -0.9941  1.4436
 4836TIP3   OH235998   4.962   4.900  11.541 -0.8396 -0.2306  0.6083
 4836TIP3    H135999   5.054   4.914  11.561 -0.1741 -2.9638 -0.1456
 4836TIP3    H236000   4.918   4.901  11.626  0.5397 -2.7481  1.4436
 4837TIP3   OH236001   0.597   1.881  15.012 -0.4678  0.4359  0.2262
 4837TIP3    H136002   0.600   1.945  15.083  0.4188  0.2122  0.4110
 4837TIP3    H236003   0.654   1.810  15.042  0.4112  0.6019 -0.9549
 4838TIP3   OH236004   3.802   0.507   0.154  0.0670 -0.7137 -0.1966
 4838TIP3    H136005   3.719   0.555   0.160  1.0194  1.1040 -0.9138
 4838TIP3    H236006   3.792   0.435   0.216 -2.0039 -0.4832 -0.1862
 4839TIP3   OH236007   2.365   5.420  14.893 -0.7538 -0.2598 -0.2581
 4839TIP3    H136008   2.387   5.422  14.800 -1.5067  0.3380 -0.4269
 4839TIP3    H236009   2.450   5.423  14.937 -0.4058 -0.2641 -0.9176
 4840TIP3   OH236010   4.670   3.944   3.172  0.1028 -0.1971 -0.4265
 4840TIP3    H136011   4.721   3.872   3.211  0.0371 -0.3644 -0.6449
 4840TIP3    H236012   4.619   3.979   3.245 -2.3471 -2.4794 -0.8744
 4841TIP3   OH236013   3.295   6.634  13.926  0.0594  0.6774  0.3628
 4841TIP3    H136014   3.245   6.665  14.000  0.0040 -0.0001  0.6199
 4841TIP3    H236015   3.365   6.580  13.964  1.2833  1.9694  0.0481
 4842TIP3   OH236016   4.318   3.495  12.937  0.1618  0.4499  0.1316
 4842TIP3    H136017   4.362   3.502  13.022  0.9374 -0.2377 -0.2022
 4842TIP3    H236018   4.225   3.500  12.958  0.3645  1.0682  0.9381
 4843TIP3   OH236019   2.307   5.513  15.226 -0.3340  0.2892  0.3572
 4843TIP3    H136020   2.370   5.452  15.188 -1.2674  0.7904 -2.1820
 4843TIP3    H236021   2.292   5.480  15.315  2.0721 -0.8934  0.3933
 4844TIP3   OH236022   0.559   3.831   1.733 -0.6306 -0.2516  0.3813
 4844TIP3    H136023   0.594   3.773   1.666  1.4161  1.5860 -0.2867
 4844TIP3    H236024   0.492   3.882   1.688  0.0212  0.2677 -0.0272
 4845TIP3   OH236025   6.269   1.999  13.268 -0.2038 -0.3987  0.1649
 4845TIP3    H136026   6.183   2.036  13.248 -0.4990 -1.0345  0.2578
 4845TIP3    H236027   6.312   1.993  13.182 -0.7730 -1.3700 -0.0637
 4846TIP3   OH236028   4.992   3.746  13.687 -0.2936 -0.6308 -0.0076
 4846TIP3    H136029   5.062   3.811  13.697 -0.4057 -0.5635  0.3469
 4846TIP3    H236030   4.912   3.798  13.681 -0.8845 -0.7440  4.0621
 4847TIP3   OH236031   4.206   3.439   5.851 -0.2141 -0.2915 -0.2823
 4847TIP3    H136032   4.281   3.384   5.874 -1.0216 -1.0576  0.6375
 4847TIP3    H236033   4.149   3.434   5.928 -0.1238  2.2062  0.0078
 4848TIP3   OH236034   6.655   4.777  13.001 -0.1854  0.0839 -0.2608
 4848TIP3    H136035   6.651   4.784  13.096 -0.7855  1.1190 -0.3479
 4848TIP3    H236036   6.568   4.746  12.976  0.0684 -0.4824 -0.4557
 4849TIP3   OH236037   1.541   0.695  13.432  0.1698 -0.0120 -1.1838
 4849TIP3    H136038   1.532   0.747  13.512 -0.1239 -1.3704 -0.3021
 4849TIP3    H236039   1.628   0.716  13.399 -0.2441  1.6392 -1.3115
 4850TIP3   OH236040   6.045   1.768  14.586 -0.3044 -0.6247  0.3878
 4850TIP3    H136041   5.992   1.824  14.643 -0.8696 -0.1713 -0.5490
 4850TIP3    H236042   6.020   1.679  14.608 -1.4955 -0.4170 -0.0494
 4851TIP3   OH236043   0.932   6.033  16.542  0.1403 -0.0055 -0.3582
 4851TIP3    H136044   0.920   6.119  16.504  0.7809  1.1725  1.9162
 4851TIP3    H236045   0.985   6.048  16.621  1.5746 -2.6713 -0.6709
 4852TIP3   OH236046   4.603   3.309  14.048  0.1354  0.2534 -0.2336
 4852TIP3    H136047   4.643   3.342  13.968 -3.6578  1.6655 -1.8087
 4852TIP3    H236048   4.575   3.387  14.095 -0.9916 -0.6018  0.5913
 4853TIP3   OH236049   0.265   5.619   0.231  0.6943 -0.0054 -0.0426
 4853TIP3    H136050   0.305   5.684   0.288  1.1110 -0.9677  0.7876
 4853TIP3    H236051   0.302   5.637   0.144 -1.0849  2.4332 -0.4014
 4854TIP3   OH236052   2.512   6.165   1.812 -0.2951  0.4639  0.0635
 4854TIP3    H136053   2.603   6.143   1.789  0.0083  0.6313  1.0386
 4854TIP3    H236054   2.468   6.080   1.820 -0.7383  0.4171 -2.2687
 4855TIP3   OH236055   1.533   1.238  17.413  0.1034  0.1263 -0.2622
 4855TIP3    H136056   1.601   1.276  17.357  1.8221  0.0080  1.6173
 4855TIP3    H236057   1.533   1.145  17.390  0.2132  0.2129 -0.6212
 4856TIP3   OH236058   1.701   2.507  12.520 -0.6370  0.6031 -0.2853
 4856TIP3    H136059   1.693   2.540  12.431 -1.3129 -1.6072 -1.1244
 4856TIP3    H236060   1.614   2.471  12.541 -0.3207  0.5282  1.0314
 4857TIP3   OH236061   5.942   6.444  12.110  0.5822  0.1511 -0.3274
 4857TIP3    H136062   5.917   6.374  12.049  1.5063  0.9808 -1.7092
 4857TIP3    H236063   6.036   6.434  12.120  0.4963  0.2903  0.6467
 4858TIP3   OH236064   4.231   6.647  15.573  0.3911 -0.5194 -0.0946
 4858TIP3    H136065   4.200   6.647  15.664 -2.7050  1.3689 -0.9940
 4858TIP3    H236066   4.245   6.740  15.553 -0.4699 -0.7376 -1.9496
 4859TIP3   OH236067   3.465   1.831   6.109 -0.4525 -0.0620  0.2316
 4859TIP3    H136068   3.485   1.809   6.199 -1.5324 -0.3424  0.4184
 4859TIP3    H236069   3.428   1.919   6.113  0.7945  0.5035 -0.1210
 4860TIP3   OH236070   4.998   0.842   2.065  0.0799 -0.1936 -0.5345
 4860TIP3    H136071   4.982   0.903   2.137  0.9026 -1.6052  0.9100
 4860TIP3    H236072   5.069   0.883   2.014  0.7339 -0.0080  0.4955
 4861TIP3   OH236073   5.223   2.735  16.997 -0.0527 -0.0186  0.1050
 4861TIP3    H136074   5.226   2.705  16.906  2.2874 -1.5035  0.5867
 4861TIP3    H236075   5.298   2.794  17.006  1.4893 -2.0629  1.6816
 4862TIP3   OH236076   2.306   3.759   3.662 -0.2430  0.0048  0.0177
 4862TIP3    H136077   2.212   3.776   3.664 -0.5141 -1.1561 -0.9077
 4862TIP3    H236078   2.317   3.681   3.716  0.5277  1.3531  1.8736
 4863TIP3   OH236079   4.790   3.905   4.333 -0.2916  0.3571 -0.4514
 4863TIP3    H136080   4.825   3.912   4.421 -0.4674  0.5704 -0.3971
 4863TIP3    H236081   4.860   3.938   4.277  0.0890 -0.4316 -0.4542
 4864TIP3   OH236082   3.407   5.871  12.720 -0.1195 -0.0946 -0.0158
 4864TIP3    H136083   3.344   5.812  12.679  0.9158 -0.9592 -0.3960
 4864TIP3    H236084   3.425   5.938  12.654 -1.0524  0.5064  0.3048
 4865TIP3   OH236085   5.559   3.053   6.242  0.4534 -0.1478  0.2731
 4865TIP3    H136086   5.568   3.027   6.150  1.8548 -1.7220  0.8033
 4865TIP3    H236087   5.467   3.035   6.262  0.2083 -0.0813 -0.7251
 4866TIP3   OH236088   4.399   0.832  11.505 -0.4005 -0.0171 -0.2357
 4866TIP3    H136089   4.361   0.872  11.427 -0.3213  0.2898 -0.1151
 4866TIP3    H236090   4.463   0.769  11.471  0.3015  0.7726 -0.4066
 4867TIP3   OH236091   0.557   2.130   5.565 -0.0934  0.0393  0.3116
 4867TIP3    H136092   0.533   2.223   5.564  2.6374  0.8375 -0.6275
 4867TIP3    H236093   0.585   2.112   5.476 -0.9131 -1.8281  0.3942
 4868TIP3   OH236094   4.441   2.872   3.209  0.4818  0.3671  0.3321
 4868TIP3    H136095   4.469   2.887   3.119  0.2156 -2.6358 -0.3364
 4868TIP3    H236096   4.505   2.920   3.263  3.9493 -2.0870 -1.2930
 4869TIP3   OH236097   3.498   0.385  13.789  0.4130 -1.0302  0.4167
 4869TIP3    H136098   3.432   0.356  13.853  0.2239 -2.4607 -0.3906
 4869TIP3    H236099   3.506   0.312  13.728  2.0971 -0.5088 -0.0352
 4870TIP3   OH236100   6.688   4.508  11.311  0.1996 -0.0601 -0.4371
 4870TIP3    H136101   6.664   4.572  11.244  0.5834  0.7071  0.1429
 4870TIP3    H236102   6.695   4.425  11.264  1.9385  0.7225 -1.6269
 4871TIP3   OH236103   1.218   4.228  12.964  0.3551 -0.3505 -0.5043
 4871TIP3    H136104   1.308   4.217  12.933  0.3181 -1.0074 -0.3833
 4871TIP3    H236105   1.228   4.253  13.055  0.4194 -0.2625 -0.5348
 4872TIP3   OH236106   4.644   4.535  13.400 -0.0759 -0.1722 -0.0013
 4872TIP3    H136107   4.566   4.490  13.370 -0.6808  1.5973 -1.2721
 4872TIP3    H236108   4.658   4.605  13.335  1.6363  0.5400  1.0540
 4873TIP3   OH236109   4.647   5.309   0.566  0.0095 -0.1046 -0.2273
 4873TIP3    H136110   4.735   5.324   0.533 -0.3399 -0.3589 -1.3567
 4873TIP3    H236111   4.614   5.237   0.513 -0.4229 -0.8917  1.0722
 4874TIP3   OH236112   3.761   1.384   4.709 -0.3827  0.1729 -0.2877
 4874TIP3    H136113   3.679   1.347   4.676 -1.0814  0.3291  1.1955
 4874TIP3    H236114   3.829   1.326   4.675 -1.0769  0.0984 -1.6282
 4875TIP3   OH236115   6.257   4.614   0.032 -0.0751  0.3010  0.1087
 4875TIP3    H136116   6.305   4.550   0.085  0.1876  0.4624  0.0672
 4875TIP3    H236117   6.270   4.586  -0.058 -0.2791  0.1933  0.1131
 4876TIP3   OH236118   5.453   2.767   4.102  0.0879 -0.1179  0.0176
 4876TIP3    H136119   5.431   2.847   4.055 -1.7576  0.6399  1.9811
 4876TIP3    H236120   5.424   2.696   4.045  1.4848  0.5738 -1.6178
 4877TIP3   OH236121   0.683   3.509  16.066 -0.7205  0.2127 -0.3218
 4877TIP3    H136122   0.739   3.507  15.988  2.0019  0.4549  1.4878
 4877TIP3    H236123   0.718   3.439  16.121 -0.6490  1.8769  1.8534
 4878TIP3   OH236124   0.892   2.042  13.345  0.1610  0.0109  0.4377
 4878TIP3    H136125   0.957   2.098  13.303  1.6165 -1.2247  0.9853
 4878TIP3    H236126   0.930   2.020  13.429 -1.1229 -0.4876  0.9074
 4879TIP3   OH236127   4.468   0.904  12.897  0.4250  0.2068  0.1034
 4879TIP3    H136128   4.493   0.905  12.989  0.2224 -0.0111  0.1614
 4879TIP3    H236129   4.458   0.812  12.875  3.4540  0.0191 -0.9587
 4880TIP3   OH236130   4.035   1.247   3.181 -0.1791  0.4388  0.4617
 4880TIP3    H136131   4.021   1.173   3.239  0.8047 -0.5320 -0.5006
 4880TIP3    H236132   4.090   1.213   3.111 -1.2800  1.5772 -1.0313
 4881TIP3   OH236133   1.002   0.002   5.826 -0.2735 -0.3675 -0.1553
 4881TIP3    H136134   1.010   0.094   5.801  0.1654 -0.6641 -1.1532
 4881TIP3    H236135   0.917  -0.004   5.870  0.0382  0.6598  0.6212
 4882TIP3   OH236136   3.118   0.139   4.732 -0.3136 -0.1872 -0.4452
 4882TIP3    H136137   3.186   0.142   4.665 -1.6827  1.8962 -1.8741
 4882TIP3    H236138   3.078   0.226   4.729 -0.4960 -0.0022  3.0862
 4883TIP3   OH236139   0.352   2.510  10.429  0.6780 -0.4748 -0.2864
 4883TIP3    H136140   0.371   2.604  10.432 -2.1532  0.2780 -1.7177
 4883TIP3    H236141   0.266   2.505  10.387  0.4496 -3.7026  0.3220
 4884TIP3   OH236142   0.558   1.464  11.666  0.2678  0.3630 -0.2799
 4884TIP3    H136143   0.628   1.448  11.729  1.3260  2.6848 -0.7316
 4884TIP3    H236144   0.492   1.512  11.717 -0.5306 -0.8777 -0.1178
 4885TIP3   OH236145   3.672   4.348   1.383  0.0297  0.5173 -0.2411
 4885TIP3    H136146   3.652   4.288   1.311  0.9374 -0.4754  0.2953
 4885TIP3    H236147   3.748   4.397   1.353  1.0718 -0.6486  0.4330
 4886TIP3   OH236148   1.251   5.808  17.257  0.2941  0.1477  0.0766
 4886TIP3    H136149   1.312   5.882  17.262 -0.3265  0.6056  0.8634
 4886TIP3    H236150   1.175   5.842  17.210 -0.0821  0.0817  0.6245
 4887TIP3   OH236151   1.584   1.116  12.723  0.6260 -0.2070 -0.0759
 4887TIP3    H136152   1.584   1.115  12.819 -1.8708 -1.5165  0.0079
 4887TIP3    H236153   1.491   1.107  12.699  0.8594  2.6956 -2.6557
 4888TIP3   OH236154   0.134   3.407   1.545 -0.3272  0.0839  0.4044
 4888TIP3    H136155   0.189   3.372   1.614 -0.1673  1.9224  1.2472
 4888TIP3    H236156   0.163   3.362   1.466  0.0484 -1.4350  1.3697
 4889TIP3   OH236157   1.320   1.995  13.333 -0.3303  0.4869  0.0368
 4889TIP3    H136158   1.305   2.046  13.412 -0.1039 -1.0773  1.1248
 4889TIP3    H236159   1.407   1.957  13.344  0.0664  0.9042 -1.3624
 4890TIP3   OH236160   1.134   6.003  17.075 -0.1368  0.1988  0.2739
 4890TIP3    H136161   1.209   6.038  17.026  0.4492 -1.3842 -0.0086
 4890TIP3    H236162   1.102   5.931  17.021 -0.0616 -0.9849  1.7816
 4891TIP3   OH236163   0.327   2.408  16.882  0.0600  0.2825 -0.6185
 4891TIP3    H136164   0.400   2.359  16.919 -0.9715 -0.3261  0.6693
 4891TIP3    H236165   0.251   2.381  16.932 -0.7362  2.4749 -0.5202
 4892TIP3   OH236166   5.141   3.722   4.524 -0.2905 -0.5534  0.2628
 4892TIP3    H136167   5.151   3.687   4.436  1.3216  2.7076 -1.0140
 4892TIP3    H236168   5.123   3.815   4.512  0.8716  0.2233  3.3621
 4893TIP3   OH236169   1.417   5.664   5.850 -1.0017 -0.0515 -0.0027
 4893TIP3    H136170   1.491   5.635   5.798  0.0700  0.1353  1.3484
 4893TIP3    H236171   1.376   5.734   5.799 -1.3101 -1.3302 -1.5485
 4894TIP3   OH236172   0.766   4.882  13.040  0.3140 -0.3907 -0.2015
 4894TIP3    H136173   0.714   4.803  13.028 -1.5619  0.3572  2.3831
 4894TIP3    H236174   0.854   4.849  13.060  0.4645 -1.6901 -2.5980
 4895TIP3   OH236175   2.414   2.672   5.497  0.6814  0.2617  0.3904
 4895TIP3    H136176   2.354   2.745   5.512 -1.7239 -1.2144 -1.2650
 4895TIP3    H236177   2.412   2.623   5.579 -1.5153 -0.4571 -0.0245
 4896TIP3   OH236178   2.249   4.032   1.283  0.1015  0.1229  0.2740
 4896TIP3    H136179   2.183   4.028   1.353 -1.5570  0.2189 -1.2021
 4896TIP3    H236180   2.317   3.971   1.311 -0.4227  0.2802  2.0381
 4897TIP3   OH236181   2.594   1.783  14.980 -0.0570  0.3483 -0.3916
 4897TIP3    H136182   2.577   1.745  14.894 -2.7857 -1.7674  0.9160
 4897TIP3    H236183   2.518   1.839  14.997  0.4670  0.7872  0.6150
 4898TIP3   OH236184   4.919   0.891   4.815 -0.0140 -0.0264 -0.6224
 4898TIP3    H136185   4.990   0.937   4.768 -1.0478 -0.0952 -2.3559
 4898TIP3    H236186   4.910   0.808   4.768 -2.2515  0.6223 -1.5005
 4899TIP3   OH236187   0.540   5.223   5.161  0.2915 -0.2737  0.2926
 4899TIP3    H136188   0.511   5.240   5.071  0.7447  2.3903  0.5766
 4899TIP3    H236189   0.482   5.278   5.215  0.3949 -1.4008  1.5985
 4900TIP3   OH236190   5.559   1.504  12.968  0.1506 -0.5772  0.0527
 4900TIP3    H136191   5.615   1.581  12.958  0.1376 -0.5256  0.3541
 4900TIP3    H236192   5.503   1.504  12.891 -1.3317  0.9490  1.0464
 4901TIP3   OH236193   0.449   2.120  14.719  0.0270 -0.1645  0.3619
 4901TIP3    H136194   0.369   2.086  14.680  0.2693  0.1605 -0.4532
 4901TIP3    H236195   0.506   2.044  14.728  0.5796 -0.0095 -1.4793
 4902TIP3   OH236196   3.991   1.578   4.958 -0.2021 -0.1064  0.6644
 4902TIP3    H136197   4.049   1.648   4.926  0.0621 -0.6077  0.0252
 4902TIP3    H236198   3.903   1.609   4.937 -0.0939  0.0749  0.4709
 4903TIP3   OH236199   3.444   4.759  13.689  0.1522 -0.1485  0.0618
 4903TIP3    H136200   3.448   4.664  13.680  1.4773 -0.2466  1.1982
 4903TIP3    H236201   3.535   4.785  13.705 -0.2865  1.2230  0.4832
 4904TIP3   OH236202   4.246   0.902   2.650  0.0206  0.1490  0.3031
 4904TIP3    H136203   4.306   0.930   2.719 -1.6424  1.1961  1.3836
 4904TIP3    H236204   4.163   0.946   2.670 -1.0015 -0.8792 -1.3957
 4905TIP3   OH236205   6.017   3.022  16.360 -0.2533  0.2267 -0.0498
 4905TIP3    H136206   6.041   2.932  16.378  0.4646  0.6548  1.2447
 4905TIP3    H236207   5.942   3.015  16.301 -0.3087 -1.2119  0.1498
 4906TIP3   OH236208   0.030   2.277  15.253 -0.5860 -0.1116  0.1903
 4906TIP3    H136209   0.047   2.282  15.347 -0.3347 -1.6385  0.2415
 4906TIP3    H236210  -0.016   2.194  15.241  0.5196 -0.5566 -1.1865
 4907TIP3   OH236211   0.803   6.389  17.107  0.1452 -0.1867 -0.2227
 4907TIP3    H136212   0.815   6.465  17.049  0.3251  0.8384  1.1024
 4907TIP3    H236213   0.715   6.399  17.141  0.4205 -0.1682  0.4995
 4908TIP3   OH236214   3.304   3.487  16.360 -0.2848 -0.2326  0.3652
 4908TIP3    H136215   3.232   3.431  16.331 -0.4524  0.1673 -0.0013
 4908TIP3    H236216   3.270   3.532  16.437  0.2612 -1.5166  1.4044
 4909TIP3   OH236217   4.506   1.083  14.369 -0.1749  0.0757 -0.9643
 4909TIP3    H136218   4.539   1.168  14.399 -0.2981  0.2186 -1.2315
 4909TIP3    H236219   4.484   1.036  14.450 -0.7200  0.5405 -0.8351
 4910TIP3   OH236220   5.803   2.565  15.943 -0.2875  0.9300  0.0003
 4910TIP3    H136221   5.885   2.611  15.928  0.3825 -0.1145  0.3081
 4910TIP3    H236222   5.812   2.484  15.893 -0.1103 -0.2994  1.9214
 4911TIP3   OH236223   0.352   0.200  14.751  0.5118  0.3282 -0.3538
 4911TIP3    H136224   0.305   0.205  14.834 -0.2953 -0.4258 -0.7488
 4911TIP3    H236225   0.433   0.154  14.772 -0.6508 -1.8565 -0.3513
 4912TIP3   OH236226   5.347   1.056  14.408  0.3706  0.2688  0.1861
 4912TIP3    H136227   5.300   1.010  14.338 -0.8451 -1.7100  2.1524
 4912TIP3    H236228   5.400   1.121  14.363 -2.0643  0.6468 -2.3952
 4913TIP3   OH236229   2.691   6.445   1.405  0.4408  0.4873  0.0431
 4913TIP3    H136230   2.722   6.414   1.491  0.1325  0.3357  0.0985
 4913TIP3    H236231   2.600   6.470   1.420  0.3958  0.4904 -0.2351
 4914TIP3   OH236232   5.440   2.741  10.926  0.3373 -0.7133 -0.3297
 4914TIP3    H136233   5.373   2.789  10.878  1.2817  0.3283 -0.6319
 4914TIP3    H236234   5.432   2.651  10.895 -2.3370 -1.1236  1.1865
 4915TIP3   OH236235   3.849   0.515   4.335  0.1592  0.5660 -0.2819
 4915TIP3    H136236   3.780   0.551   4.391 -0.1590  1.7206 -1.3756
 4915TIP3    H236237   3.874   0.433   4.379 -1.5493  0.3531  0.4092
 4916TIP3   OH236238   3.853   1.710  15.971  0.0742  0.3514  0.4257
 4916TIP3    H136239   3.908   1.645  16.015 -2.4388 -2.0012  0.4411
 4916TIP3    H236240   3.805   1.753  16.042 -0.6349 -0.1864  0.2972
 4917TIP3   OH236241   4.437   0.091  16.833 -0.5945  0.2881  0.1065
 4917TIP3    H136242   4.351   0.107  16.869 -0.9851 -1.4891  0.0739
 4917TIP3    H236243   4.468   0.177  16.804 -2.1354  1.0221  0.5541
 4918TIP3   OH236244   1.960   1.546   1.265  0.0930  0.1509  0.1798
 4918TIP3    H136245   2.035   1.605   1.269  0.2498  0.0154 -0.6111
 4918TIP3    H236246   1.894   1.594   1.215  0.7040 -0.8360 -1.6518
 4919TIP3   OH236247   3.394   5.072  12.364  0.2964 -0.3379  0.2665
 4919TIP3    H136248   3.404   4.979  12.384  1.2984 -0.4957 -0.8433
 4919TIP3    H236249   3.300   5.089  12.375  0.1912 -1.3144  1.0818
 4920TIP3   OH236250   4.271   4.694   5.976 -0.4433 -0.2375  0.4111
 4920TIP3    H136251   4.196   4.637   5.958 -0.5429  0.2709 -0.8698
 4920TIP3    H236252   4.252   4.732   6.062 -0.4342 -2.0115  1.2385
 4921TIP3   OH236253   0.347   6.735  11.101 -0.6062  0.0207 -0.1482
 4921TIP3    H136254   0.264   6.780  11.086 -1.0793 -0.7267  0.1780
 4921TIP3    H236255   0.373   6.763  11.189 -0.4599  0.3162 -0.2808
 4922TIP3   OH236256   1.471   0.608   0.932 -0.1801  0.0547  0.2812
 4922TIP3    H136257   1.523   0.631   1.009 -0.8552  1.2519  0.4024
 4922TIP3    H236258   1.533   0.613   0.859  0.7109 -2.0784  0.8216
 4923TIP3   OH236259   6.709   5.509   6.025 -0.1872  0.0784  0.4258
 4923TIP3    H136260   6.643   5.446   5.998  1.1330 -1.5542  0.8444
 4923TIP3    H236261   6.766   5.460   6.084  1.2283  1.5126  0.3204
 4924TIP3   OH236262   2.205   5.867  16.926  0.4036  0.1169 -0.4312
 4924TIP3    H136263   2.264   5.926  16.973  2.3596 -2.0875  0.0825
 4924TIP3    H236264   2.154   5.824  16.995 -1.3556  1.4429 -0.8266
 4925TIP3   OH236265   3.553   2.785   4.528 -0.0209 -0.2766  1.1335
 4925TIP3    H136266   3.534   2.701   4.485 -0.9674  0.3230  0.3562
 4925TIP3    H236267   3.475   2.804   4.579 -1.5160  1.9854 -1.7274
 4926TIP3   OH236268   2.605   1.116   1.767 -0.2173 -1.0525 -0.4081
 4926TIP3    H136269   2.521   1.069   1.769 -1.5434  1.2134  0.2906
 4926TIP3    H236270   2.613   1.148   1.677 -1.2063  0.5045  0.0159
 4927TIP3   OH236271   3.120   4.620  13.572  0.2688  0.2648  0.1909
 4927TIP3    H136272   3.145   4.624  13.480  1.2286  0.1638  0.4374
 4927TIP3    H236273   3.197   4.586  13.617 -0.1286  0.4742  1.0601
 4928TIP3   OH236274   0.214   4.420  15.867 -0.2720 -0.1414  0.2591
 4928TIP3    H136275   0.218   4.385  15.956  0.2708 -2.2112 -0.5348
 4928TIP3    H236276   0.282   4.487  15.864  1.0079 -1.3830  0.8718
 4929TIP3   OH236277   6.564   2.815   0.792 -0.1721  0.6345 -0.1037
 4929TIP3    H136278   6.589   2.835   0.883 -0.5392 -0.4113  0.2492
 4929TIP3    H236279   6.613   2.878   0.739  1.1270  0.3775  0.7356
 4930TIP3   OH236280   4.326   4.829   2.996  0.8010 -0.0409  0.3900
 4930TIP3    H136281   4.270   4.761   3.034 -1.3550  1.3929 -0.0566
 4930TIP3    H236282   4.318   4.816   2.901  0.8756  0.4443  0.3147
 4931TIP3   OH236283   1.671   2.473   4.580  0.0832 -0.2116 -0.1388
 4931TIP3    H136284   1.615   2.547   4.557  1.2335  0.6030 -0.3963
 4931TIP3    H236285   1.704   2.441   4.496  0.7547 -0.0746  0.0724
 4932TIP3   OH236286   6.249   6.511   4.270 -0.2991 -0.1701 -0.0166
 4932TIP3    H136287   6.235   6.419   4.252  0.5678  0.0485 -2.0866
 4932TIP3    H236288   6.208   6.557   4.197 -0.4802  1.0795  0.8340
 4933TIP3   OH236289   6.645   2.086   0.125 -0.4011  0.3516 -0.6049
 4933TIP3    H136290   6.652   2.155   0.190  0.1602 -0.2133 -0.0486
 4933TIP3    H236291   6.630   2.006   0.175 -2.5460  0.2419 -1.3124
 4934TIP3   OH236292   0.292   1.462  11.789 -0.4154 -0.2117 -0.2427
 4934TIP3    H136293   0.217   1.519  11.771 -0.8565 -0.9127 -0.6596
 4934TIP3    H236294   0.285   1.392  11.725  1.2030  0.2652 -0.9914
 4935TIP3   OH236295   0.352   2.282   6.061 -0.1155 -0.0539 -0.2583
 4935TIP3    H136296   0.397   2.315   5.983 -1.3643  1.2594 -0.4753
 4935TIP3    H236297   0.279   2.343   6.073 -0.6371 -0.9394  1.2490
 4936TIP3   OH236298   2.662   4.033   2.245  0.6039  0.4567 -0.6302
 4936TIP3    H136299   2.702   3.978   2.177  0.6850 -1.1181  0.6405
 4936TIP3    H236300   2.667   3.980   2.325 -1.5201  1.3109  0.1493
 4937TIP3   OH236301   4.817   5.825  12.405  0.3297  0.2296  0.0192
 4937TIP3    H136302   4.848   5.795  12.490  0.3819  2.0774  0.6831
 4937TIP3    H236303   4.747   5.764  12.382  1.3389 -1.2295  0.6256
 4938TIP3   OH236304   1.896   3.808   3.049  0.2267 -0.0292 -0.0490
 4938TIP3    H136305   1.980   3.833   3.010 -0.0177  1.6239  0.3736
 4938TIP3    H236306   1.918   3.745   3.117  1.3340  1.4890  1.0703
 4939TIP3   OH236307   1.100   5.762   6.492  0.3279 -0.0143 -0.1721
 4939TIP3    H136308   1.051   5.818   6.433 -0.4162  0.2876  0.7131
 4939TIP3    H236309   1.036   5.735   6.559  0.3282 -2.8117 -1.1427
 4940TIP3   OH236310   3.728   4.459   3.854  0.4489  0.1004 -0.9680
 4940TIP3    H136311   3.650   4.514   3.851  0.8914  0.7059 -1.4838
 4940TIP3    H236312   3.742   4.444   3.948 -0.1928  0.1203 -0.8652
 4941TIP3   OH236313   5.650   0.471  13.824 -0.6528  0.5028 -0.0844
 4941TIP3    H136314   5.644   0.459  13.730  0.7616  0.6801 -0.2256
 4941TIP3    H236315   5.638   0.383  13.861 -0.3571  0.2951 -0.4820
 4942TIP3   OH236316   1.662   2.039  16.761  0.2622  0.6401 -0.1927
 4942TIP3    H136317   1.753   2.020  16.783  0.0324  0.2598  0.4576
 4942TIP3    H236318   1.615   2.031  16.844 -0.1823  2.0448 -0.2906
 4943TIP3   OH236319   5.737   2.874   0.890 -0.2725 -0.1722  0.1286
 4943TIP3    H136320   5.735   2.794   0.943 -1.8343  0.5281  1.1896
 4943TIP3    H236321   5.667   2.929   0.926  1.5439  2.2141  0.2823
 4944TIP3   OH236322   1.321   4.198   3.746  0.2488 -0.3508  0.0529
 4944TIP3    H136323   1.348   4.241   3.665 -2.1360 -1.1652 -1.2950
 4944TIP3    H236324   1.358   4.252   3.816  0.8985  1.4058 -1.5743
 4945TIP3   OH236325   0.697   4.698  16.770  0.0034 -0.0666  0.1602
 4945TIP3    H136326   0.733   4.640  16.837  1.1087  0.6724  0.2328
 4945TIP3    H236327   0.772   4.717  16.713 -0.8105 -0.3253 -1.0341
 4946TIP3   OH236328   0.140   4.767   3.031 -0.5285 -0.0971 -0.3789
 4946TIP3    H136329   0.178   4.735   3.113  0.8637  0.1492 -0.8829
 4946TIP3    H236330   0.113   4.857   3.051 -0.5946 -0.1824 -0.0785
 4947TIP3   OH236331   5.620   1.975   5.160  0.2798 -0.1162  0.1989
 4947TIP3    H136332   5.597   1.883   5.146  0.3724  0.1426 -2.0331
 4947TIP3    H236333   5.542   2.014   5.200 -1.0605 -0.5174 -1.8362
 4948TIP3   OH236334   2.657   6.263   4.411  0.3682  0.2439  0.2880
 4948TIP3    H136335   2.675   6.340   4.357  0.0616  0.3709  0.3680
 4948TIP3    H236336   2.624   6.298   4.494  1.5833  0.0819  0.8628
 4949TIP3   OH236337   3.968   0.301   3.948 -0.4328 -0.3155 -0.0488
 4949TIP3    H136338   4.035   0.369   3.941 -2.0642  1.2849 -1.5530
 4949TIP3    H236339   3.986   0.242   3.875  1.0471 -1.6705  1.3185
 4950TIP3   OH236340   5.751   3.978   1.634 -0.0358 -0.0116 -0.0455
 4950TIP3    H136341   5.659   4.002   1.625 -0.2257 -0.7750 -0.1565
 4950TIP3    H236342   5.796   4.062   1.643 -0.4524  0.5306 -2.4233
 4951TIP3   OH236343   5.727   6.320  17.119  0.2328  0.0597 -0.0375
 4951TIP3    H136344   5.798   6.300  17.058 -1.8308 -0.2986 -2.4945
 4951TIP3    H236345   5.707   6.237  17.160 -0.9889 -0.6812 -1.9742
 4952TIP3   OH236346   0.252   1.022  12.951 -0.2680  0.0294  0.1697
 4952TIP3    H136347   0.324   1.025  13.014  0.5953 -0.6345 -0.7584
 4952TIP3    H236348   0.174   1.001  13.004  0.4823 -0.8011  0.9756
 4953TIP3   OH236349   1.980   1.278  16.556  0.3952 -0.0309 -0.0406
 4953TIP3    H136350   1.988   1.189  16.521 -1.1696 -0.9096  1.6412
 4953TIP3    H236351   1.899   1.312  16.519  1.1406  0.8551 -0.9147
 4954TIP3   OH236352   2.729   3.424   4.532 -0.5684  0.5498 -0.1613
 4954TIP3    H136353   2.665   3.492   4.554 -1.1993 -0.0605 -0.0733
 4954TIP3    H236354   2.679   3.342   4.533  0.1367  0.1005 -0.4502
 4955TIP3   OH236355   3.446   3.350   2.946  0.1271  0.5689 -0.3623
 4955TIP3    H136356   3.487   3.437   2.941  1.0259  0.0917 -2.4263
 4955TIP3    H236357   3.354   3.366   2.928  0.0407  1.2397  0.6071
 4956TIP3   OH236358   5.677   2.052  11.365  0.2887 -0.0700  0.0104
 4956TIP3    H136359   5.595   2.101  11.378  0.3525  0.1495 -0.3943
 4956TIP3    H236360   5.724   2.061  11.448 -0.1064 -0.2150  0.2525
 4957TIP3   OH236361   5.893   4.968   3.182  0.2609  0.5951 -0.4790
 4957TIP3    H136362   5.980   4.995   3.151  0.4768  1.3492  0.7334
 4957TIP3    H236363   5.864   4.904   3.117  2.1116 -0.3618 -0.4466
 4958TIP3   OH236364   3.819   4.339   3.304 -0.7829 -0.3653 -0.0994
 4958TIP3    H136365   3.775   4.389   3.372  1.0090  0.7687  0.2936
 4958TIP3    H236366   3.849   4.260   3.348 -0.1175  0.1062  0.3169
 4959TIP3   OH236367   1.980   3.654   1.294 -0.5494 -0.0387 -1.0205
 4959TIP3    H136368   2.072   3.676   1.307 -0.4144 -1.3591  0.5658
 4959TIP3    H236369   1.979   3.598   1.216  0.1717 -0.9444 -0.4021
 4960TIP3   OH236370   2.692   4.130  16.085  0.2204 -0.1828  0.0108
 4960TIP3    H136371   2.641   4.066  16.134 -0.3945 -0.6504 -1.1892
 4960TIP3    H236372   2.759   4.160  16.147 -0.0063 -1.3536  0.8619
 4961TIP3   OH236373   2.976   0.766   3.628  0.1354  0.1980 -0.0916
 4961TIP3    H136374   2.936   0.794   3.545 -0.8473 -1.5984 -0.2721
 4961TIP3    H236375   2.915   0.796   3.695 -0.9044 -1.3751 -0.2824
 4962TIP3   OH236376   3.010   2.533  14.814 -0.3775 -0.1185 -0.1080
 4962TIP3    H136377   3.001   2.450  14.862 -1.5831 -0.5550 -1.0517
 4962TIP3    H236378   3.047   2.593  14.879  0.1570 -1.2809  0.7099
 4963TIP3   OH236379   2.527   6.110  13.688  0.2430  0.7921  0.4516
 4963TIP3    H136380   2.576   6.180  13.644 -0.3448  0.8489 -0.1253
 4963TIP3    H236381   2.524   6.137  13.780 -0.3305  1.7374  0.1679
 4964TIP3   OH236382   1.768   3.076  16.986  0.4887  0.2047 -0.1342
 4964TIP3    H136383   1.779   3.163  17.023  1.6900  1.0204 -2.2391
 4964TIP3    H236384   1.727   3.025  17.056 -1.1164  2.6729  0.8335
 4965TIP3   OH236385   2.569   3.452   0.449  0.2010  0.1970  0.3094
 4965TIP3    H136386   2.480   3.435   0.479  0.4155  1.3627  1.6951
 4965TIP3    H236387   2.567   3.543   0.417  0.4430 -0.3882 -1.5303
 4966TIP3   OH236388   1.123   1.094   3.851  0.0002 -0.6762 -0.3273
 4966TIP3    H136389   1.066   1.129   3.782  1.7500  1.3200 -0.8383
 4966TIP3    H236390   1.087   1.131   3.932 -1.3207 -2.0500 -0.2289
 4967TIP3   OH236391   1.985   0.522   5.000  0.2671 -0.5167  0.2279
 4967TIP3    H136392   2.071   0.522   4.958 -0.1425 -1.2445 -0.6587
 4967TIP3    H236393   1.975   0.433   5.034  0.1022 -0.2640  0.8575
 4968TIP3   OH236394   2.075   4.417   3.105  0.2086 -0.8162  0.2308
 4968TIP3    H136395   2.019   4.392   3.031  0.0687  0.8151 -0.2540
 4968TIP3    H236396   2.014   4.430   3.177 -0.0422  0.4886 -0.1744
 4969TIP3   OH236397   3.270   3.462  14.256  0.4384  0.5174 -0.3961
 4969TIP3    H136398   3.227   3.418  14.329 -0.5991  1.9917 -0.0854
 4969TIP3    H236399   3.204   3.521  14.221  0.9374 -0.0574 -2.4897
 4970TIP3   OH236400   4.824   3.307   0.477 -0.6200  0.0203  0.5595
 4970TIP3    H136401   4.907   3.312   0.431 -0.8556  0.1895  0.1485
 4970TIP3    H236402   4.840   3.246   0.549 -0.2705 -0.3070  0.2086
 4971TIP3   OH236403   0.411   5.754  16.493  0.0138 -0.5736 -0.0465
 4971TIP3    H136404   0.486   5.811  16.473 -0.8797  0.3329 -0.9275
 4971TIP3    H236405   0.447   5.665  16.489  0.7249 -0.2532 -2.1178
 4972TIP3   OH236406   1.043   0.956  14.773 -0.2574 -0.3326 -0.1809
 4972TIP3    H136407   1.137   0.946  14.758 -0.0400  0.3335  0.6288
 4972TIP3    H236408   1.013   0.868  14.796  0.3695 -0.3695  0.5420
 4973TIP3   OH236409   5.345   5.050   3.141 -0.4843 -0.2783 -0.1166
 4973TIP3    H136410   5.267   5.015   3.185 -0.9449  0.8912  0.0334
 4973TIP3    H236411   5.329   5.034   3.048 -0.9764  0.0738 -0.0965
 4974TIP3   OH236412   0.391   2.016   2.111 -0.3035  0.0505 -0.4530
 4974TIP3    H136413   0.466   2.075   2.106 -0.8307  0.7653 -0.0443
 4974TIP3    H236414   0.390   1.984   2.201 -2.4747  2.7595  0.6376
 4975TIP3   OH236415   3.616   3.631   1.851 -0.0818 -0.0427 -0.4514
 4975TIP3    H136416   3.707   3.616   1.877 -0.6812  1.6050  3.1351
 4975TIP3    H236417   3.604   3.726   1.857 -2.5973 -0.3916  1.5771
 4976TIP3   OH236418   0.946   1.949   2.839 -0.4091 -0.2418  0.6134
 4976TIP3    H136419   0.934   1.886   2.769  0.6442 -0.9029  0.9946
 4976TIP3    H236420   1.040   1.945   2.858 -0.0860  2.2356 -0.0918
 4977TIP3   OH236421   3.221   1.089   3.044 -0.4337 -0.1951  0.2169
 4977TIP3    H136422   3.266   1.064   3.124 -0.3976  0.7391  0.5036
 4977TIP3    H236423   3.133   1.053   3.053  0.1061 -1.6649 -0.1582
 4978TIP3   OH236424   2.769   2.440   1.447 -0.2052  0.1476 -0.3030
 4978TIP3    H136425   2.855   2.464   1.413  0.1862  0.9405  1.1575
 4978TIP3    H236426   2.720   2.523   1.450  0.1018  0.3193  1.8539
 4979TIP3   OH236427   0.525   3.813   5.238  0.4946  0.4667  0.0194
 4979TIP3    H136428   0.452   3.751   5.237  0.5826  0.3483  0.5906
 4979TIP3    H236429   0.485   3.896   5.266  0.7655  0.1296  1.5329
 4980TIP3   OH236430   5.229   4.632  14.268 -0.1829 -0.2103 -0.1159
 4980TIP3    H136431   5.295   4.567  14.291 -1.6005 -1.0947  1.7625
 4980TIP3    H236432   5.277   4.699  14.220  2.0377 -0.8581  1.0657
 4981TIP3   OH236433   2.375   5.522   6.668  0.8842 -0.5399  0.0289
 4981TIP3    H136434   2.457   5.567   6.645  1.0347  0.6239  2.5557
 4981TIP3    H236435   2.310   5.592   6.675  0.5692 -0.9732  1.7180
 4982TIP3   OH236436   5.524   0.338  14.862  0.7164  0.1298 -0.2205
 4982TIP3    H136437   5.466   0.411  14.840  1.0867  0.2689 -0.7565
 4982TIP3    H236438   5.466   0.262  14.868  0.6433  0.0110 -2.0996
 4983TIP3   OH236439   5.029   2.086  11.872 -0.2133  0.7046 -0.1219
 4983TIP3    H136440   5.088   2.133  11.930  0.9297  0.4495 -1.0366
 4983TIP3    H236441   5.077   2.079  11.789 -1.6668  0.7966 -1.0129
 4984TIP3   OH236442   3.198   2.960   4.171  0.4640  0.1954  0.8845
 4984TIP3    H136443   3.292   2.974   4.160  0.5174  1.0318  2.2126
 4984TIP3    H236444   3.157   3.029   4.119  0.5123 -1.0259 -0.8763
 4985TIP3   OH236445   3.923   3.034  15.903  0.3698  0.6348 -0.2783
 4985TIP3    H136446   3.962   3.039  15.816  1.6702  1.7613  0.3225
 4985TIP3    H236447   3.835   3.070  15.892 -0.4828 -1.6636 -1.6067
 4986TIP3   OH236448   4.233   3.373   3.015  0.1071 -0.0208  0.0882
 4986TIP3    H136449   4.144   3.409   3.012  0.6697  1.5298  1.1560
 4986TIP3    H236450   4.259   3.369   2.923 -1.7819 -2.5134 -0.4593
 4987TIP3   OH236451   6.331   1.947  13.013 -0.6754 -0.3206  0.3159
 4987TIP3    H136452   6.263   1.914  12.954 -1.1939 -1.1044  1.3125
 4987TIP3    H236453   6.410   1.898  12.989 -0.5283  0.3449 -0.6170
 4988TIP3   OH236454   6.630   3.011   4.363 -0.2578  0.5824 -0.5192
 4988TIP3    H136455   6.583   3.086   4.399 -0.5368  0.1004  0.1498
 4988TIP3    H236456   6.561   2.951   4.334 -0.2051 -0.9773  2.1723
 4989TIP3   OH236457   5.080   2.949  16.128 -0.2321  0.2551  0.7191
 4989TIP3    H136458   5.048   3.005  16.057 -0.4541 -1.4391 -0.5961
 4989TIP3    H236459   5.151   2.898  16.088 -1.9913 -2.5630  0.8825
 4990TIP3   OH236460   4.829   0.906   0.083  0.1928 -0.4441  0.2209
 4990TIP3    H136461   4.881   0.955   0.019 -1.6299  2.6794  0.9188
 4990TIP3    H236462   4.869   0.929   0.168 -0.6622 -0.1497  0.5565
 4991TIP3   OH236463   0.214   5.274   1.486 -0.0892 -0.0824 -0.2494
 4991TIP3    H136464   0.144   5.210   1.500  1.2501 -1.5134  0.2054
 4991TIP3    H236465   0.207   5.334   1.561 -1.5307  0.5180 -0.8260
 4992TIP3   OH236466   2.975   6.702   3.372 -0.0513 -0.2795 -0.0005
 4992TIP3    H136467   2.930   6.674   3.451  0.4513 -0.0305  0.3794
 4992TIP3    H236468   2.922   6.774   3.337 -0.6791 -0.8773 -0.3073
 4993TIP3   OH236469   2.752   2.240   1.631 -0.3077 -0.1315 -0.1078
 4993TIP3    H136470   2.807   2.176   1.587 -0.1979 -0.5014  0.5535
 4993TIP3    H236471   2.770   2.322   1.585  0.1295 -0.4237 -0.4704
 4994TIP3   OH236472   3.295   3.038  15.509 -0.3777 -0.2284 -0.2524
 4994TIP3    H136473   3.308   2.973  15.578  0.4994 -0.6345 -0.7791
 4994TIP3    H236474   3.383   3.057  15.478 -0.4155  2.5994  1.1102
 4995TIP3   OH236475   2.981   1.171   3.800 -0.1391 -0.2946  0.0696
 4995TIP3    H136476   2.916   1.240   3.811  1.3335  1.1365  0.0805
 4995TIP3    H236477   2.981   1.153   3.706 -2.0356 -1.8656  0.2979
 4996TIP3   OH236478   4.261   6.116   0.397 -0.2981 -0.1839 -0.1364
 4996TIP3    H136479   4.343   6.152   0.429  0.7558 -0.6321 -2.1962
 4996TIP3    H236480   4.284   6.027   0.367 -1.5586 -0.3811 -0.5834
 4997TIP3   OH236481   0.364   5.486   3.053 -0.0335 -0.2837  0.5044
 4997TIP3    H136482   0.347   5.395   3.029  0.8242 -0.3961  0.2768
 4997TIP3    H236483   0.369   5.532   2.969 -0.3272 -0.0487  0.6138
 4998TIP3   OH236484   3.646   5.941   5.869  0.2968  0.3370  0.4161
 4998TIP3    H136485   3.589   5.886   5.922  1.6262 -2.3124 -0.7236
 4998TIP3    H236486   3.586   5.985   5.808 -0.6626 -2.4630 -0.8426
 4999TIP3   OH236487   5.463   4.315   5.793 -0.6118  0.2096 -0.2048
 4999TIP3    H136488   5.465   4.410   5.783 -2.3023  0.2917  0.0348
 4999TIP3    H236489   5.372   4.291   5.777 -0.2514 -1.3567 -0.0500
 5000TIP3   OH236490   0.960   2.369   4.354  0.1980  0.4261  0.3098
 5000TIP3    H136491   0.865   2.361   4.358  0.2552  0.3038  1.7980
 5000TIP3    H236492   0.980   2.365   4.260 -1.2276  0.1606 -0.0067
 5001TIP3   OH236493   3.867   6.487  12.563 -0.7535 -0.6275  0.1565
 5001TIP3    H136494   3.950   6.509  12.522 -0.5950  1.3743  1.4191
 5001TIP3    H236495   3.891   6.457  12.651 -1.3276 -0.5642  0.3411
 5002TIP3   OH236496   0.816   3.685  15.759 -0.1602 -0.4030 -0.2718
 5002TIP3    H136497   0.785   3.595  15.766 -0.7778 -0.0935  1.3099
 5002TIP3    H236498   0.740   3.738  15.781  0.1437  0.5388 -1.3657
 5003TIP3   OH236499   0.257   2.858   2.404 -0.3491 -0.4737 -0.2780
 5003TIP3    H136500   0.293   2.820   2.483 -2.2043 -0.8112  0.4483
 5003TIP3    H236501   0.200   2.791   2.368 -1.5655  0.5992 -0.4459
 5004TIP3   OH236502   1.515   5.588  11.814  0.1956  0.2987 -0.1838
 5004TIP3    H136503   1.598   5.626  11.785  0.6267 -0.6250 -0.1933
 5004TIP3    H236504   1.524   5.494  11.796 -0.6229  0.1061  0.3647
 5005TIP3   OH236505   4.120   1.619   1.831  0.2630 -0.8688  0.3810
 5005TIP3    H136506   4.094   1.536   1.871  0.9812 -1.2202  0.1330
 5005TIP3    H236507   4.159   1.669   1.903  0.6073 -1.0860  0.3447
 5006TIP3   OH236508   2.317   4.208  11.017  0.3137  0.1583 -0.0568
 5006TIP3    H136509   2.263   4.141  11.058  0.5372  0.8916  1.4859
 5006TIP3    H236510   2.255   4.269  10.977 -0.0630  1.0746  1.8236
 5007TIP3   OH236511   4.165   3.103  14.542  0.3994 -0.1766  0.5690
 5007TIP3    H136512   4.184   3.010  14.529  0.1737  0.0672 -2.2336
 5007TIP3    H236513   4.245   3.148  14.516 -0.4854  0.4582 -1.3092
 5008TIP3   OH236514   4.334   4.628   2.021  0.5467  0.4768 -0.2407
 5008TIP3    H136515   4.387   4.549   2.033 -0.5428 -0.1924  0.3332
 5008TIP3    H236516   4.277   4.607   1.946 -0.4290  0.3223  0.5288
 5009TIP3   OH236517   2.820   2.861   0.443 -0.0869  0.0625  0.1651
 5009TIP3    H136518   2.731   2.865   0.478 -0.1540  0.3730 -0.0332
 5009TIP3    H236519   2.850   2.773   0.464 -0.1882  0.1810  0.8508
 5010TIP3   OH236520   5.738   4.646   2.274 -0.5362 -0.2304  0.3805
 5010TIP3    H136521   5.764   4.653   2.366  0.7523 -0.5537  0.0643
 5010TIP3    H236522   5.793   4.711   2.230  0.8747 -1.9887 -0.5377
 5011TIP3   OH236523   3.469   0.938   1.974  0.3505  1.1745  0.3504
 5011TIP3    H136524   3.499   0.848   1.964  0.1313  1.1065  0.2781
 5011TIP3    H236525   3.455   0.949   2.068 -0.0576  0.9872  0.3135
 5012TIP3   OH236526   5.416   3.282  17.393  0.0395  0.0178 -0.2471
 5012TIP3    H136527   5.395   3.305  17.302  0.1317 -0.6792 -0.4502
 5012TIP3    H236528   5.470   3.203  17.385 -1.8046 -1.3964  0.4990
 5013TIP3   OH236529   2.161   1.613   4.380 -0.2526  0.0820  0.0826
 5013TIP3    H136530   2.116   1.625   4.296 -0.6180  1.0650  0.4011
 5013TIP3    H236531   2.254   1.626   4.358  0.4002 -4.7576 -1.1360
 5014TIP3   OH236532   1.029   1.184   4.088  1.1169  0.5940 -0.7082
 5014TIP3    H136533   1.095   1.253   4.094 -1.3856  3.2362 -1.5973
 5014TIP3    H236534   0.995   1.176   4.178 -1.0491  3.2681 -1.1630
 5015TIP3   OH236535   5.160   0.056  11.985  0.3999 -0.3241  0.0178
 5015TIP3    H136536   5.250   0.076  12.008 -0.1633  0.5348  1.6653
 5015TIP3    H236537   5.162   0.035  11.892  1.8274  2.7194 -0.7290
 5016TIP3   OH236538   1.203   6.245   1.648 -0.3363  0.3293 -0.0612
 5016TIP3    H136539   1.208   6.252   1.553 -0.7717  0.4304 -0.0765
 5016TIP3    H236540   1.268   6.178   1.670 -0.7975 -0.2690 -0.4949
 5017TIP3   OH236541   3.832   2.616  16.449 -0.1838 -0.3413  0.7084
 5017TIP3    H136542   3.875   2.619  16.364 -0.0058 -0.6811  0.7867
 5017TIP3    H236543   3.825   2.523  16.470 -1.9801 -0.3744  0.1823
 5018TIP3   OH236544   1.903   5.263  14.352  0.4278 -0.2913  0.3646
 5018TIP3    H136545   1.920   5.197  14.420 -2.4967 -1.1124  0.4549
 5018TIP3    H236546   1.926   5.218  14.270 -0.5419 -1.1070  0.5085
 5019TIP3   OH236547   4.447   1.059  14.708 -0.2170  0.2369 -0.3574
 5019TIP3    H136548   4.367   1.028  14.750  0.1196 -1.4166 -0.8665
 5019TIP3    H236549   4.458   1.148  14.741 -1.3571 -0.0848  1.0084
 5020TIP3   OH236550   0.144   3.549   2.758 -0.2329  0.0090  0.4962
 5020TIP3    H136551   0.214   3.486   2.749 -0.0134  0.5123 -1.8410
 5020TIP3    H236552   0.084   3.530   2.686 -1.2575  1.1204  1.0113
 5021TIP3   OH236553   4.002   5.139   2.339 -0.2365 -0.0531 -0.1441
 5021TIP3    H136554   4.015   5.187   2.421 -1.8691  0.9204 -0.4072
 5021TIP3    H236555   4.083   5.089   2.327  0.0104 -0.3002  2.0981
 5022TIP3   OH236556   0.817   0.786  12.285 -0.1476  0.2535  0.2453
 5022TIP3    H136557   0.829   0.737  12.366  2.9357 -1.5926 -1.1343
 5022TIP3    H236558   0.800   0.718  12.219 -0.1769  1.4699 -1.0380
 5023TIP3   OH236559   6.507   2.078  12.177 -0.0644 -0.4076  0.1134
 5023TIP3    H136560   6.575   2.028  12.131 -0.6113 -1.2673  0.1985
 5023TIP3    H236561   6.526   2.169  12.159  0.4425 -0.6923 -0.8118
 5024TIP3   OH236562   3.497   6.055   5.684 -0.0722  0.3780 -0.1030
 5024TIP3    H136563   3.430   6.124   5.683 -0.6376 -0.1540  0.4283
 5024TIP3    H236564   3.487   6.010   5.601 -1.0071 -0.2871  0.3582
 5025TIP3   OH236565   6.651   0.637   5.034 -0.6091 -0.0054  0.6287
 5025TIP3    H136566   6.651   0.549   4.997 -2.2025  0.1924  0.0484
 5025TIP3    H236567   6.631   0.694   4.959 -1.1219  0.6884  1.2786
 5026TIP3   OH236568   2.959   5.838   0.333 -0.2454  0.7755  0.2896
 5026TIP3    H136569   2.979   5.928   0.310 -2.5891  1.1142 -0.7805
 5026TIP3    H236570   2.889   5.845   0.399  1.4355 -0.2804  2.2976
 5027TIP3   OH236571   6.287   4.206  17.190 -0.1657  0.5335 -0.1393
 5027TIP3    H136572   6.216   4.162  17.238  0.3233  0.9463  1.0083
 5027TIP3    H236573   6.242   4.260  17.126 -0.8949  0.6570  0.4545
 5028TIP3   OH236574   3.361   0.765   3.177  0.1880 -0.1654 -0.6931
 5028TIP3    H136575   3.406   0.827   3.236 -0.8276 -0.7175  0.7149
 5028TIP3    H236576   3.432   0.725   3.127  1.2715 -0.5986  1.0606
 5029TIP3   OH236577   3.388   6.742   6.539 -0.0434  0.1095  0.2517
 5029TIP3    H136578   3.452   6.737   6.610  0.5049  1.4334 -0.1258
 5029TIP3    H236579   3.338   6.660   6.547  2.0206 -1.2341  0.1952
 5030TIP3   OH236580   3.275   1.988   5.057  0.4327  0.8465 -0.1605
 5030TIP3    H136581   3.204   1.970   5.117 -1.5116  0.4792 -2.4333
 5030TIP3    H236582   3.318   2.065   5.094  0.6052 -0.4777  2.6651
 5031TIP3   OH236583   6.419   4.773   0.559  0.0298 -0.0164  0.4428
 5031TIP3    H136584   6.380   4.845   0.510  0.2225 -0.7533 -0.8513
 5031TIP3    H236585   6.513   4.780   0.540  0.0478 -0.5971  0.2914
 5032TIP3   OH236586   4.991   2.264   4.778 -0.1118 -0.0121  0.2035
 5032TIP3    H136587   4.902   2.228   4.783  0.2996 -1.0299  0.7244
 5032TIP3    H236588   4.995   2.327   4.849  0.0535 -1.1433  1.2433
 5033TIP3   OH236589   3.360   5.997   4.782 -0.4530 -0.4453 -0.1027
 5033TIP3    H136590   3.452   5.996   4.807 -0.3154  1.3880 -0.4496
 5033TIP3    H236591   3.321   6.065   4.837 -0.9377  0.9922 -2.1227
 5034TIP3   OH236592   3.186   0.434   3.881 -0.2135  0.8121  0.7162
 5034TIP3    H136593   3.151   0.458   3.795  1.6694  0.2833 -0.2348
 5034TIP3    H236594   3.201   0.518   3.925  1.5207  1.2395 -0.6068
 5035TIP3   OH236595   1.629   0.084  15.038  0.4892 -0.2856  0.4804
 5035TIP3    H136596   1.598   0.004  14.994  0.1962 -0.2358  0.5936
 5035TIP3    H236597   1.559   0.105  15.100 -0.4320  1.2324 -0.9992
 5036TIP3   OH236598   6.259   2.287   4.878  0.0007 -0.2653 -0.4413
 5036TIP3    H136599   6.166   2.285   4.854 -0.2340 -1.9126  0.4490
 5036TIP3    H236600   6.263   2.351   4.949 -0.9389 -1.8045  1.1019
 5037TIP3   OH236601   0.851   6.561   1.627  0.0517 -0.4208 -0.4330
 5037TIP3    H136602   0.890   6.496   1.685 -1.5734  0.0477  1.2845
 5037TIP3    H236603   0.793   6.612   1.683 -0.6835  0.8639 -2.2458
 5038TIP3   OH236604   1.806   5.685   4.721 -0.3128  0.3233 -0.0494
 5038TIP3    H136605   1.876   5.634   4.764  0.6612  1.5640 -0.1032
 5038TIP3    H236606   1.791   5.759   4.780 -0.8811  0.6075 -0.5408
 5039TIP3   OH236607   5.099   4.460   3.273  0.3627  0.3071 -0.3080
 5039TIP3    H136608   5.043   4.508   3.334  1.6107  1.7242 -0.2262
 5039TIP3    H236609   5.047   4.384   3.248 -0.8327  0.5656  1.2338
 5040TIP3   OH236610   4.603   1.805  12.871 -0.2464  0.9231 -0.3270
 5040TIP3    H136611   4.610   1.898  12.851 -1.7947  1.3682  1.0409
 5040TIP3    H236612   4.511   1.784  12.858  0.1116 -0.5011 -0.8367
 5041TIP3   OH236613   2.528   1.912  11.990  0.3227 -0.0559 -0.2292
 5041TIP3    H136614   2.466   1.840  12.003  1.0625 -0.7231 -0.3208
 5041TIP3    H236615   2.545   1.912  11.896  0.7523 -0.1297 -0.1526
 5042TIP3   OH236616   2.621   5.958   0.251 -0.0884  0.6191  0.3978
 5042TIP3    H136617   2.599   6.036   0.199 -2.4306 -0.5713 -0.5375
 5042TIP3    H236618   2.561   5.891   0.220  0.4743 -1.0138  2.6065
 5043TIP3   OH236619   3.833   6.407  16.010  0.4673  0.0242  0.5961
 5043TIP3    H136620   3.862   6.436  15.924 -1.2095  2.2172  0.6763
 5043TIP3    H236621   3.770   6.337  15.992  0.2616  0.3447  0.0304
 5044TIP3   OH236622   3.549   4.031   3.209  0.3276  0.0315 -0.4954
 5044TIP3    H136623   3.464   4.066   3.236  0.0655 -0.3938 -0.7493
 5044TIP3    H236624   3.588   4.100   3.156  0.7567  0.7941  0.7725
 5045TIP3   OH236625   6.296   6.417   5.014  0.0331 -0.0407  0.1868
 5045TIP3    H136626   6.370   6.402   4.955 -0.1321 -1.0714  0.2219
 5045TIP3    H236627   6.295   6.340   5.071 -1.8587 -0.7505 -0.6991
 5046TIP3   OH236628   2.597   6.513   2.879  0.7991  0.5569 -0.0758
 5046TIP3    H136629   2.511   6.515   2.836  1.9855  0.3790 -2.6901
 5046TIP3    H236630   2.600   6.428   2.922 -0.4332  0.6792  0.2904
 5047TIP3   OH236631   2.331   5.737   4.251 -0.2059  0.4639  0.2194
 5047TIP3    H136632   2.293   5.655   4.282  2.5611 -1.4682 -1.0650
 5047TIP3    H236633   2.391   5.764   4.320 -1.7775  2.0415  1.0598
 5048TIP3   OH236634   0.611   5.721  12.806 -0.1862 -0.6124 -0.5891
 5048TIP3    H136635   0.615   5.700  12.900 -0.8929 -0.7396 -0.5826
 5048TIP3    H236636   0.592   5.815  12.803  0.8865 -0.3759 -0.6187
 5049TIP3   OH236637   3.093   0.793  12.363 -0.2100 -0.0047  0.0189
 5049TIP3    H136638   3.168   0.852  12.371  1.1981 -1.1044 -3.2657
 5049TIP3    H236639   3.130   0.706  12.380 -1.1392 -0.4187 -0.0183
 5050TIP3   OH236640   5.210   3.321   1.622  0.5138 -0.5279 -0.1858
 5050TIP3    H136641   5.118   3.345   1.626  0.5407 -0.4110 -0.2702
 5050TIP3    H236642   5.212   3.238   1.576  0.5903  0.2261 -1.5820
 5051TIP3   OH236643   6.036   4.967  12.375  0.6865  0.5263  0.5185
 5051TIP3    H136644   5.984   4.932  12.303  0.9309 -2.6084  1.7242
 5051TIP3    H236645   5.973   5.018  12.427 -0.7531 -1.3377  0.7336
 5052TIP3   OH236646   5.043   0.278   3.248 -0.1150 -0.2475  0.3787
 5052TIP3    H136647   5.104   0.344   3.214 -1.2770  0.9113  0.4747
 5052TIP3    H236648   4.981   0.328   3.301 -0.0247 -1.6515  1.8856
 5053TIP3   OH236649   6.701   5.861   4.149 -0.4823  0.0913  0.0227
 5053TIP3    H136650   6.625   5.879   4.204 -0.8554  0.2886 -0.5454
 5053TIP3    H236651   6.722   5.769   4.165 -1.5835 -0.3067 -0.7038
 5054TIP3   OH236652   3.267   6.212   5.734 -0.4080 -0.0616  0.6852
 5054TIP3    H136653   3.237   6.284   5.789  1.0514  0.2999  1.0535
 5054TIP3    H236654   3.194   6.150   5.733 -1.7535  1.4697  0.2329
 5055TIP3   OH236655   5.052   6.191  12.869 -0.2926  0.0314 -0.0315
 5055TIP3    H136656   5.017   6.163  12.784  0.7619 -0.6815 -0.2553
 5055TIP3    H236657   5.035   6.117  12.927 -1.2440  0.6225  0.4629
 5056TIP3   OH236658   3.671   2.175   0.353  0.0222 -0.3940  0.5576
 5056TIP3    H136659   3.655   2.250   0.410 -0.8001 -1.1251  1.3214
 5056TIP3    H236660   3.586   2.133   0.345  0.1475 -0.3709 -1.1414
 5057TIP3   OH236661   2.582   1.460   4.351  0.5684  0.0965  0.2977
 5057TIP3    H136662   2.673   1.432   4.356  0.5692  0.3000  1.5661
 5057TIP3    H236663   2.532   1.387   4.388  0.3674  0.6774  1.2082
 5058TIP3   OH236664   1.641   3.106   4.119 -0.6465 -0.2759 -0.1064
 5058TIP3    H136665   1.678   3.042   4.181  1.3445  0.1689 -0.7569
 5058TIP3    H236666   1.667   3.073   4.033 -0.3741  0.9216 -0.4958
 5059TIP3   OH236667   6.213   3.118   2.469  0.2655 -0.8955  0.1977
 5059TIP3    H136668   6.126   3.111   2.430  0.9499 -1.4292 -1.3167
 5059TIP3    H236669   6.273   3.097   2.398  1.7158  0.8354  0.8265
 5060TIP3   OH236670   2.276   3.900  13.188  1.0741 -0.4289  0.2772
 5060TIP3    H136671   2.193   3.917  13.145  0.6985 -0.4294  0.9962
 5060TIP3    H236672   2.337   3.884  13.116  0.2618 -1.3220 -0.2375
 5061TIP3   OH236673   0.126   1.451   5.085  0.0050 -0.6658  0.1859
 5061TIP3    H136674   0.202   1.508   5.083 -1.4357  1.4350  1.4317
 5061TIP3    H236675   0.085   1.461   4.999  1.5619 -2.5756 -0.8663
 5062TIP3   OH236676   6.216   1.062   6.967 -0.0848 -0.0052  0.7181
 5062TIP3    H136677   6.285   1.008   7.006  0.2086  0.6819  1.1871
 5062TIP3    H236678   6.261   1.143   6.944 -0.7673  0.5156  1.1871
 5063TIP3   OH236679   5.373   0.126   0.787  0.1973  0.1558 -0.1694
 5063TIP3    H136680   5.434   0.091   0.853 -2.6773 -1.1574  2.0254
 5063TIP3    H236681   5.398   0.218   0.779  2.2336 -0.2350  0.8316
 5064TIP3   OH236682   0.294   3.187  12.577  0.0279 -0.2598 -0.0182
 5064TIP3    H136683   0.350   3.123  12.621  0.4126 -0.4716 -0.8080
 5064TIP3    H236684   0.252   3.235  12.649  1.2177 -0.0969  0.5836
 5065TIP3   OH236685   4.585   5.012  12.648 -0.1719  0.5618  0.4694
 5065TIP3    H136686   4.656   5.076  12.646  1.0359 -0.6470  1.8532
 5065TIP3    H236687   4.522   5.048  12.710  0.1289  0.8005  0.6409
 5066TIP3   OH236688   3.063   6.276  14.437 -0.0768  0.3399  0.3934
 5066TIP3    H136689   3.056   6.181  14.449  2.2315  0.2459  1.5435
 5066TIP3    H236690   2.986   6.311  14.480 -0.9025 -1.0061  0.0660
 5067TIP3   OH236691   5.234   4.617  14.809  0.5777  0.2188  0.8260
 5067TIP3    H136692   5.282   4.687  14.852  1.2621  0.2981 -0.0329
 5067TIP3    H236693   5.273   4.611  14.721 -2.6021  2.0008 -0.8767
 5068TIP3   OH236694   0.054   5.208  14.247 -0.3982 -0.4030  1.0762
 5068TIP3    H136695   0.008   5.152  14.185 -2.2219 -0.3026  2.2533
 5068TIP3    H236696   0.026   5.177  14.333 -0.3536  1.3911  1.7842
 5069TIP3   OH236697   5.796   0.196  17.447 -0.9180  0.1035  0.0239
 5069TIP3    H136698   5.722   0.235  17.401 -0.8131  0.2111 -0.0526
 5069TIP3    H236699   5.788   0.102  17.429 -0.0748  0.2842 -1.3958
 5070TIP3   OH236700   4.849   3.773   5.776 -0.1999  0.1763 -0.0772
 5070TIP3    H136701   4.865   3.723   5.856 -0.5567  3.0321  1.9333
 5070TIP3    H236702   4.935   3.787   5.738  0.0294 -0.7519  0.0726
 5071TIP3   OH236703   3.548   1.614  15.195 -0.1307  0.7206 -0.2832
 5071TIP3    H136704   3.567   1.529  15.157  1.7590  0.1226  1.8089
 5071TIP3    H236705   3.576   1.677  15.128  0.0670 -0.2650 -1.1517
 5072TIP3   OH236706   3.174   4.407   3.480  0.0553  0.4580  0.2715
 5072TIP3    H136707   3.198   4.499   3.472  0.2874  0.3538 -0.2719
 5072TIP3    H236708   3.086   4.408   3.517  1.3824  0.8341  3.8157
 5073TIP3   OH236709   4.208   2.025   6.278  0.5149 -0.1635 -0.3024
 5073TIP3    H136710   4.122   2.051   6.247  0.8582  2.2605  0.5654
 5073TIP3    H236711   4.191   1.987   6.365  0.1926 -1.1803 -0.7953
 5074TIP3   OH236712   1.766   1.306  16.372 -0.2605  0.3131 -0.7566
 5074TIP3    H136713   1.805   1.291  16.286  1.4104  0.2083 -0.0238
 5074TIP3    H236714   1.751   1.218  16.407 -2.2911  0.3266 -1.4753
 5075TIP3   OH236715   4.050   6.205   5.844 -0.1382  0.0822 -0.2177
 5075TIP3    H136716   4.086   6.287   5.877 -0.4562  1.4058 -2.9387
 5075TIP3    H236717   4.127   6.157   5.812 -0.2013  0.5313 -1.0745
 5076TIP3   OH236718   0.731   6.069  15.968 -0.0111  0.0253  0.2944
 5076TIP3    H136719   0.664   6.018  15.922 -1.2983  0.9877  1.0310
 5076TIP3    H236720   0.682   6.124  16.028  1.3320  1.8704 -0.2058
 5077TIP3   OH236721   4.900   5.601   4.005  0.0868 -0.1268  0.6943
 5077TIP3    H136722   4.899   5.527   3.945  0.7801 -1.1262  1.8523
 5077TIP3    H236723   4.883   5.562   4.091  1.8229  0.8342  1.5378
 5078TIP3   OH236724   3.145   1.346  15.757  0.4000  0.0740  0.1785
 5078TIP3    H136725   3.130   1.427  15.806  1.9656 -0.2576  1.2531
 5078TIP3    H236726   3.233   1.318  15.782  0.9163 -0.6033 -2.1591
 5079TIP3   OH236727   0.490   6.637   1.615 -0.1534 -0.5216 -0.0663
 5079TIP3    H136728   0.447   6.715   1.580  0.8900  0.1925  0.1973
 5079TIP3    H236729   0.537   6.600   1.540 -0.2516 -0.6234 -0.0782
 5080TIP3   OH236730   0.719   2.533   6.209  0.1992 -0.3407 -0.5060
 5080TIP3    H136731   0.704   2.623   6.181  2.2813 -0.3308 -1.8049
 5080TIP3    H236732   0.631   2.498   6.223 -0.6814  1.6991 -0.5232
 5081TIP3   OH236733   4.410   6.715  16.611  0.6504 -0.0668  0.1177
 5081TIP3    H136734   4.404   6.768  16.690 -3.5663 -0.6966  0.4426
 5081TIP3    H236735   4.452   6.634  16.639  0.9885  0.4836  1.2466
 5082TIP3   OH236736   1.522   0.380   5.873  0.6616 -0.0909  0.8616
 5082TIP3    H136737   1.458   0.403   5.806  1.8127  2.3041  0.4554
 5082TIP3    H236738   1.475   0.394   5.956  0.8917  2.9183  0.6021
 5083TIP3   OH236739   6.369   2.929   6.693 -0.2326 -0.1995 -0.3045
 5083TIP3    H136740   6.311   2.996   6.658 -2.9292 -1.5884  1.1515
 5083TIP3    H236741   6.386   2.871   6.619 -1.0495  0.0279 -0.6886
 5084TIP3   OH236742   3.709   5.645  11.952  0.0596 -0.1324 -0.3345
 5084TIP3    H136743   3.664   5.628  12.034  0.8989  0.8829  0.3548
 5084TIP3    H236744   3.673   5.728  11.921 -0.7583 -0.8419 -1.3745
 5085TIP3   OH236745   1.007   4.644   2.840 -0.4594 -0.4656 -0.3355
 5085TIP3    H136746   1.040   4.622   2.928  1.7816 -0.7094 -1.1687
 5085TIP3    H236747   1.037   4.572   2.785  0.2679  0.8416 -1.7246
 5086TIP3   OH236748   6.695   4.981  17.027  0.3662  0.0138  0.2041
 5086TIP3    H136749   6.649   5.021  16.954  1.5659 -2.0141 -1.7872
 5086TIP3    H236750   6.632   4.921  17.066  0.1787 -0.0141 -0.1438
 5087TIP3   OH236751   1.266   6.587   1.577 -0.3097 -0.6041 -0.0572
 5087TIP3    H136752   1.249   6.500   1.614 -2.0400  0.4643  1.8738
 5087TIP3    H236753   1.199   6.598   1.510 -0.9159 -0.3004  0.5826
 5088TIP3   OH236754   4.040   6.258   3.249 -0.0135 -0.2543 -0.1991
 5088TIP3    H136755   4.132   6.237   3.266  0.6575  0.9666 -2.0236
 5088TIP3    H236756   4.039   6.352   3.234 -1.5612 -0.2584 -0.2350
 5089TIP3   OH236757   4.749   1.832  13.744 -0.1333 -0.1979  0.1992
 5089TIP3    H136758   4.744   1.767  13.814  0.9188  0.0963  0.5796
 5089TIP3    H236759   4.697   1.905  13.776 -0.0559 -0.2581  0.4711
 5090TIP3   OH236760   2.422   4.624   0.565  0.1587 -0.7643  0.6485
 5090TIP3    H136761   2.487   4.567   0.524  0.0385 -1.7322  1.7383
 5090TIP3    H236762   2.390   4.573   0.640 -1.8114 -0.2908  0.1827
 5091TIP3   OH236763   2.497   4.665  13.959  0.1021  0.0624 -0.0071
 5091TIP3    H136764   2.518   4.576  13.929 -0.9234 -0.1891 -0.0470
 5091TIP3    H236765   2.499   4.718  13.880 -0.4514 -0.1724 -0.1881
 5092TIP3   OH236766   5.921   1.475   3.607 -0.1501  0.2366  0.4822
 5092TIP3    H136767   5.850   1.418   3.637 -0.0838 -0.1170 -0.0180
 5092TIP3    H236768   5.903   1.488   3.514  0.4465  0.1329  0.3496
 5093TIP3   OH236769   0.132   6.142  12.556 -0.2158  0.0890 -0.1214
 5093TIP3    H136770   0.087   6.102  12.632 -0.4849  1.2465  0.3470
 5093TIP3    H236771   0.109   6.234  12.561 -0.7889  0.0739 -2.0268
 5094TIP3   OH236772   2.534   0.334   0.528 -0.2430 -0.1915 -0.0861
 5094TIP3    H136773   2.447   0.315   0.493 -0.1557 -2.1478  0.6574
 5094TIP3    H236774   2.594   0.296   0.463 -0.0300 -1.4979  0.8455
 5095TIP3   OH236775   2.165   4.789  16.580  0.1925 -1.0245 -0.7170
 5095TIP3    H136776   2.091   4.791  16.519 -0.6890 -1.2850  0.3128
 5095TIP3    H236777   2.226   4.855  16.546 -1.3835  0.6167 -0.5090
 5096TIP3   OH236778   1.608   0.105  11.453  0.0030 -0.1228 -0.4194
 5096TIP3    H136779   1.596   0.037  11.386  0.1212 -2.2576  1.5971
 5096TIP3    H236780   1.702   0.105  11.470 -0.1392 -0.3241  0.4080
 5097TIP3   OH236781   3.548   5.176   3.489  0.7460  0.1724 -0.0742
 5097TIP3    H136782   3.586   5.099   3.445  1.6045  0.8904 -0.6264
 5097TIP3    H236783   3.457   5.179   3.458  0.9605 -0.1083 -0.7589
 5098TIP3   OH236784   5.115   6.087   3.307  0.1210 -0.0553 -0.6609
 5098TIP3    H136785   5.189   6.059   3.252  0.7583 -0.1607  0.2382
 5098TIP3    H236786   5.039   6.046   3.266  0.4548  0.5919 -1.9895
 5099TIP3   OH236787   5.505   1.307   2.932  0.6003  0.7277 -0.7101
 5099TIP3    H136788   5.596   1.279   2.929  0.2202 -0.5637 -0.8075
 5099TIP3    H236789   5.502   1.371   3.003  1.3983  0.0568 -0.0482
 5100TIP3   OH236790   3.824   0.541   3.833  0.1318 -0.0608 -0.0244
 5100TIP3    H136791   3.844   0.560   3.924  1.7580  0.1143 -0.3875
 5100TIP3    H236792   3.818   0.446   3.829 -0.2074 -0.0565  0.3008
 5101TIP3   OH236793   1.315   6.541  12.279  0.5396  0.1826  0.1604
 5101TIP3    H136794   1.411   6.548  12.283  0.8194 -2.6888  1.4938
 5101TIP3    H236795   1.288   6.528  12.370 -1.1518  1.0654 -0.1850
 5102TIP3   OH236796   6.480   6.743  15.543  0.0789  0.6206  0.1331
 5102TIP3    H136797   6.484   6.743  15.447 -0.7807  0.0799  0.0925
 5102TIP3    H236798   6.449   6.830  15.565 -1.5104  0.1525 -0.1739
 5103TIP3   OH236799   1.499   4.311   1.794  0.1776 -0.1753 -0.4486
 5103TIP3    H136800   1.560   4.241   1.819 -1.4902 -1.1393  1.2334
 5103TIP3    H236801   1.528   4.387   1.844 -1.0470 -1.1557  1.9275
 5104TIP3   OH236802   2.225   1.773   3.926 -0.6935 -0.1521 -1.0778
 5104TIP3    H136803   2.239   1.815   3.841 -1.5325 -0.0408 -1.1620
 5104TIP3    H236804   2.276   1.827   3.987  0.1996 -0.4387 -1.5511
 5105TIP3   OH236805   0.985   4.106  13.917 -0.5231  0.5270 -0.7091
 5105TIP3    H136806   0.995   4.138  14.007 -0.0675 -2.9078  0.6469
 5105TIP3    H236807   0.898   4.135  13.890 -0.7298  1.5290  0.9028
 5106TIP3   OH236808   1.273   6.363   0.470  0.4886 -0.1462 -0.4889
 5106TIP3    H136809   1.219   6.419   0.414 -0.2714  0.7717  1.0735
 5106TIP3    H236810   1.214   6.292   0.496  0.6931 -0.3116 -0.4742
 5107TIP3   OH236811   1.062   3.091  15.310 -0.1002  0.1930 -0.5597
 5107TIP3    H136812   1.052   3.004  15.349 -0.9107  0.2487 -0.6378
 5107TIP3    H236813   1.039   3.152  15.380  0.0451  0.3388 -0.6379
 5108TIP3   OH236814   4.378   3.697  14.418  0.3261  0.0840  0.1822
 5108TIP3    H136815   4.377   3.743  14.334  1.8252  1.0998  0.6920
 5108TIP3    H236816   4.285   3.686  14.440 -0.0833  0.2523 -1.3401
 5109TIP3   OH236817   6.597   0.662   0.108 -0.3856  0.3219  0.4143
 5109TIP3    H136818   6.558   0.596   0.052  0.9081 -0.1490  0.0245
 5109TIP3    H236819   6.610   0.738   0.050  1.7885 -0.4684 -0.2454
 5110TIP3   OH236820   1.515   5.620   6.185  0.0769 -0.6763  0.1710
 5110TIP3    H136821   1.513   5.630   6.090  0.7635  2.8238  0.3623
 5110TIP3    H236822   1.423   5.620   6.212 -0.2193 -3.8770 -0.5295
 5111TIP3   OH236823   5.599   4.441   1.136  0.2255 -0.4600 -0.3410
 5111TIP3    H136824   5.518   4.478   1.103  1.1156  0.8014 -1.1890
 5111TIP3    H236825   5.660   4.515   1.141  1.0078 -1.1590  1.3614
 5112TIP3   OH236826   5.749   6.180  15.192 -0.3980 -0.1227 -0.0107
 5112TIP3    H136827   5.743   6.094  15.236  1.3047 -0.3572 -0.1693
 5112TIP3    H236828   5.759   6.242  15.264  3.1471 -0.5775  0.0731
 5113TIP3   OH236829   6.177   4.433   2.884  0.2449 -0.0332  0.3329
 5113TIP3    H136830   6.139   4.390   2.961  0.7544  0.9431  1.1385
 5113TIP3    H236831   6.238   4.368   2.849  0.6414 -0.1745  1.2517
 5114TIP3   OH236832   2.837   6.288  14.596 -0.4215  0.0774 -0.6725
 5114TIP3    H136833   2.756   6.242  14.574 -0.2127 -1.5017  1.4945
 5114TIP3    H236834   2.837   6.291  14.692  2.0166  0.1134 -0.6105
 5115TIP3   OH236835   5.153   6.699   0.161  0.1687 -0.2033 -0.5745
 5115TIP3    H136836   5.108   6.647   0.094 -1.2656 -0.5509  0.6060
 5115TIP3    H236837   5.165   6.785   0.121 -1.1982 -0.2301 -1.1007
 5116TIP3   OH236838   4.270   2.075  11.769  0.2392  0.0673  0.1867
 5116TIP3    H136839   4.234   2.160  11.744  2.6277  1.1520  0.1315
 5116TIP3    H236840   4.297   2.087  11.860 -1.4225 -1.3967  0.9212
 5117TIP3   OH236841   5.152   4.315   5.617  0.1429 -0.2498  0.9352
 5117TIP3    H136842   5.163   4.221   5.603  0.4569  0.0411 -1.2204
 5117TIP3    H236843   5.058   4.330   5.602  0.4447  0.0326 -0.9843
 5118TIP3   OH236844   3.900   3.805  15.096  0.3993 -0.0464 -0.2474
 5118TIP3    H136845   3.855   3.857  15.030 -0.9450 -0.5136  0.2529
 5118TIP3    H236846   3.829   3.768  15.150  1.2552 -2.5589 -0.6968
 5119TIP3   OH236847   2.824   4.866  17.285  0.0266 -0.2294 -0.1497
 5119TIP3    H136848   2.864   4.788  17.246  0.2411 -0.0620 -0.2641
 5119TIP3    H236849   2.817   4.844  17.378  1.6023  0.2428  0.0991
 5120TIP3   OH236850   0.355   3.767  17.060  0.1504 -0.3328 -0.0783
 5120TIP3    H136851   0.445   3.744  17.039  1.2594  1.2230  2.4549
 5120TIP3    H236852   0.342   3.853  17.021 -0.0669 -0.3419 -0.0292
 5121TIP3   OH236853   4.652   0.708   0.670  0.2669 -0.3329 -0.1701
 5121TIP3    H136854   4.652   0.671   0.758 -1.2788 -1.2409 -0.5110
 5121TIP3    H236855   4.599   0.787   0.676 -1.0568 -1.1505 -0.5263
 5122TIP3   OH236856   0.865   4.200   6.141 -0.1891  0.1096 -0.2159
 5122TIP3    H136857   0.840   4.291   6.160 -0.7570 -0.5037  2.3845
 5122TIP3    H236858   0.960   4.198   6.151 -0.3024  0.1839  0.9473
 5123TIP3   OH236859   4.145   0.400   0.069  0.6834  0.6871 -0.1263
 5123TIP3    H136860   4.087   0.427  -0.002  0.6146 -0.8041 -0.6721
 5123TIP3    H236861   4.085   0.368   0.137  0.7372  2.3262  0.7273
 5124TIP3   OH236862   5.691   4.454   4.579  0.5801 -0.0360  0.5033
 5124TIP3    H136863   5.626   4.517   4.610  1.3962  0.7602  0.6668
 5124TIP3    H236864   5.742   4.432   4.658  0.4492 -0.7334  0.4008
 5125TIP3   OH236865   1.191   4.961   1.404 -0.5518  0.2770 -0.3004
 5125TIP3    H136866   1.215   4.979   1.495 -0.7065 -0.5091 -0.0978
 5125TIP3    H236867   1.273   4.970   1.355 -0.2448 -0.3485  0.0821
 5126TIP3   OH236868   0.595   0.042  13.033  0.1303  0.3421 -0.2661
 5126TIP3    H136869   0.686   0.066  13.018 -0.6383  2.8278 -1.3892
 5126TIP3    H236870   0.575   0.078  13.120 -0.0198  0.5538 -0.3881
 5127TIP3   OH236871   4.729   4.451   3.857  0.2688  0.0875 -0.5778
 5127TIP3    H136872   4.791   4.444   3.930  0.2043  2.7597 -0.1492
 5127TIP3    H236873   4.727   4.545   3.837 -3.2262  0.0670 -0.9271
 5128TIP3   OH236874   1.983   4.571  11.512 -0.7671 -0.0649 -0.3152
 5128TIP3    H136875   2.043   4.621  11.567  0.6728 -1.0237 -0.9527
 5128TIP3    H236876   2.000   4.602  11.423 -0.0499 -1.4641 -0.6871
 5129TIP3   OH236877   2.058   2.958  11.383  0.3357  0.5813 -0.8313
 5129TIP3    H136878   1.971   2.966  11.422  0.1632 -0.9460 -0.8309
 5129TIP3    H236879   2.048   2.887  11.319  2.3497 -2.0180  1.5153
 5130TIP3   OH236880   3.375   4.032  16.286 -0.6402  0.4098  0.5481
 5130TIP3    H136881   3.433   4.097  16.324 -0.8542  1.1653 -0.3752
 5130TIP3    H236882   3.311   4.012  16.354  0.7648 -0.5434  1.6357
 5131TIP3   OH236883   1.675   4.592  11.542 -0.4720  0.2933  0.4125
 5131TIP3    H136884   1.769   4.582  11.527 -0.5150  0.0564  0.3072
 5131TIP3    H236885   1.643   4.636  11.463 -0.4034  0.6414  0.5732
 5132TIP3   OH236886   6.010   1.260   4.414 -0.3562  0.3276 -0.0587
 5132TIP3    H136887   6.023   1.345   4.456 -0.1179  0.7897 -1.0363
 5132TIP3    H236888   5.970   1.281   4.330 -0.0361 -0.5094 -0.4296
 5133TIP3   OH236889   6.514   1.980   2.802  0.2606  0.0015  0.0438
 5133TIP3    H136890   6.426   1.988   2.764  0.8135  1.5084 -1.0016
 5133TIP3    H236891   6.567   1.943   2.732  0.8983  1.0514 -0.0373
 5134TIP3   OH236892   3.209   2.989   1.214  0.1012  0.4490  0.5971
 5134TIP3    H136893   3.240   3.075   1.186  1.9693 -0.2665  0.3126
 5134TIP3    H236894   3.121   2.982   1.177  0.6521  1.4526 -1.0221
 5135TIP3   OH236895   1.536   4.000  16.246 -0.4255 -0.3683 -0.0569
 5135TIP3    H136896   1.572   3.956  16.169  0.0155  0.8707 -0.5849
 5135TIP3    H236897   1.609   4.003  16.309 -0.1696  0.4150 -0.3809
 5136TIP3   OH236898   6.445   2.882   3.567 -0.1546 -0.0809 -0.3138
 5136TIP3    H136899   6.461   2.787   3.566  0.0958 -0.1318 -3.6321
 5136TIP3    H236900   6.356   2.891   3.533 -0.1774  0.8613 -0.0173
 5137TIP3   OH236901   0.093   2.131  15.803 -0.3174  0.8134  0.1075
 5137TIP3    H136902   0.093   2.117  15.898 -0.4802 -1.0496 -0.1195
 5137TIP3    H236903   0.004   2.110  15.776 -0.1670  0.9488 -0.5026
 5138TIP3   OH236904   6.658   3.498  12.791  1.0537  0.3216 -0.0760
 5138TIP3    H136905   6.688   3.421  12.840  0.8972  0.2441 -0.0991
 5138TIP3    H236906   6.730   3.519  12.732  1.4141  0.6727  0.4849
 5139TIP3   OH236907   2.720   4.599  13.356  0.8407  0.5880  0.0944
 5139TIP3    H136908   2.657   4.668  13.338  0.9702  0.9875  1.1153
 5139TIP3    H236909   2.745   4.612  13.448 -0.3738 -1.7882  0.8458
 5140TIP3   OH236910   1.661   3.280   2.515 -0.1610 -0.1358  0.4558
 5140TIP3    H136911   1.610   3.212   2.469 -0.7507  0.5814  0.0294
 5140TIP3    H236912   1.692   3.236   2.595  0.9878 -1.4422 -0.6580
 5141TIP3   OH236913   1.041   5.486   4.915  0.0132  0.0461  1.3039
 5141TIP3    H136914   1.121   5.433   4.921  0.4219  0.5828  0.8050
 5141TIP3    H236915   0.976   5.439   4.967 -0.4557 -2.4325 -1.2817
 5142TIP3   OH236916   5.000   0.704   5.941  0.1493  0.2435  0.1572
 5142TIP3    H136917   5.009   0.657   6.024  0.0607 -1.4857 -0.7639
 5142TIP3    H236918   5.061   0.778   5.949 -0.0365  0.2660  1.8355
 5143TIP3   OH236919   3.663   1.900  10.936 -0.1674 -0.6542 -0.5894
 5143TIP3    H136920   3.709   1.953  10.872  0.9465 -0.1414  0.5984
 5143TIP3    H236921   3.583   1.949  10.955  0.0332 -0.2601 -0.7593
 5144TIP3   OH236922   2.954   4.606   5.142 -0.2291  0.0177  0.1123
 5144TIP3    H136923   3.033   4.642   5.184 -1.3243  1.1928  1.2567
 5144TIP3    H236924   2.966   4.511   5.147  0.8968  0.1735  0.7227
 5145TIP3   OH236925   0.700   2.311   2.970 -0.3670  0.1808 -0.0855
 5145TIP3    H136926   0.658   2.357   2.897  0.5400  1.0976 -0.0354
 5145TIP3    H236927   0.787   2.288   2.938 -1.2975 -2.9947 -0.7096
 5146TIP3   OH236928   1.104   3.613  15.584  0.0847 -0.2753 -0.1668
 5146TIP3    H136929   1.151   3.533  15.561 -0.3328 -0.7760  0.6970
 5146TIP3    H236930   1.083   3.604  15.677 -1.8467 -0.1583 -0.5294
 5147TIP3   OH236931   6.102   4.966  11.019 -0.0166 -0.6756 -0.1238
 5147TIP3    H136932   6.064   5.021  11.088 -1.1494 -0.6438 -0.7354
 5147TIP3    H236933   6.030   4.955  10.956  0.8083 -1.2017 -0.9958
 5148TIP3   OH236934   6.725   3.655  15.513 -0.0270  1.0440 -0.3426
 5148TIP3    H136935   6.679   3.688  15.591  2.4217  0.0050  1.6940
 5148TIP3    H236936   6.724   3.729  15.452 -1.1348  2.2662  1.0586
 5149TIP3   OH236937   0.060   1.795  12.305  0.4397  0.1610  0.5547
 5149TIP3    H136938  -0.002   1.780  12.376  0.2268  0.3839  0.4167
 5149TIP3    H236939   0.129   1.730  12.319 -0.4924 -1.0023 -0.0598
 5150TIP3   OH236940   5.872   2.836  17.385 -0.3301 -0.6376 -0.2522
 5150TIP3    H136941   5.857   2.931  17.384  2.0648 -0.1770 -1.6836
 5150TIP3    H236942   5.825   2.805  17.462  0.0417  1.9429  1.1531
 5151TIP3   OH236943   0.790   2.843  16.432 -0.2968 -0.0446 -0.1395
 5151TIP3    H136944   0.736   2.854  16.353 -0.2406 -1.2689 -0.3687
 5151TIP3    H236945   0.872   2.806  16.400 -0.2578 -0.5198  0.4835
 5152TIP3   OH236946   2.841   1.609  13.035  0.1971  0.4745 -0.4603
 5152TIP3    H136947   2.798   1.591  12.952 -0.2987 -0.8308  0.0536
 5152TIP3    H236948   2.830   1.703  13.049  0.7225  0.8025 -2.0850
 5153TIP3   OH236949   4.256   5.959   6.073 -0.8876 -0.0143 -0.0801
 5153TIP3    H136950   4.200   5.931   6.001 -0.9225  1.1569 -0.5356
 5153TIP3    H236951   4.327   6.008   6.031 -1.0475  0.9160  0.6933
 5154TIP3   OH236952   5.860   2.075   5.293  0.3503  0.0119 -0.6379
 5154TIP3    H136953   5.784   2.035   5.252 -0.6737  0.5134  0.6689
 5154TIP3    H236954   5.931   2.061   5.231 -0.4534 -1.8104 -1.2247
 5155TIP3   OH236955   5.275   1.164  12.786  0.0612  0.7522  0.6796
 5155TIP3    H136956   5.188   1.191  12.759  0.2395 -0.1354 -0.9121
 5155TIP3    H236957   5.275   1.174  12.881 -2.5234 -1.2098  1.0070
 5156TIP3   OH236958   2.599   3.224  13.746 -0.7175  0.0453 -0.0792
 5156TIP3    H136959   2.685   3.265  13.753 -0.8255  0.0375  2.0300
 5156TIP3    H236960   2.556   3.269  13.673  0.7893  0.5700 -0.6703
 5157TIP3   OH236961   6.476   5.928  16.565 -0.6881  0.0039  1.0300
 5157TIP3    H136962   6.478   5.894  16.475  0.2495 -2.6633  1.9934
 5157TIP3    H236963   6.389   5.905  16.597 -0.8339  0.4994  1.0056
 5158TIP3   OH236964   4.897   3.482  15.207  0.1760  0.0745  0.3923
 5158TIP3    H136965   4.885   3.557  15.149 -0.3056 -1.0614 -1.0353
 5158TIP3    H236966   4.970   3.507  15.263 -0.0447  1.6491  0.0393
 5159TIP3   OH236967   2.673   2.873  11.504 -0.0041  0.0650 -0.4207
 5159TIP3    H136968   2.719   2.899  11.424  1.0696 -1.8870 -0.5036
 5159TIP3    H236969   2.588   2.917  11.498  0.7178  1.3776 -1.7395
 5160TIP3   OH236970   3.131   2.204  15.558 -0.7955 -0.3850  0.2282
 5160TIP3    H136971   3.179   2.170  15.634  0.0883  0.0218 -0.1308
 5160TIP3    H236972   3.091   2.127  15.519 -1.5626 -0.5557  1.3105
 5161TIP3   OH236973   5.749   5.079  11.817  0.3323  0.3572 -0.4782
 5161TIP3    H136974   5.762   4.993  11.856  0.2505 -0.1407 -1.5175
 5161TIP3    H236975   5.725   5.061  11.726  3.2061  1.5101 -1.5962
 5162TIP3   OH236976   5.241   5.328   0.363 -0.0781 -0.1820 -0.1271
 5162TIP3    H136977   5.281   5.359   0.444  0.4193  1.1235 -0.8413
 5162TIP3    H236978   5.220   5.408   0.315  0.0374 -0.9366 -1.4814
 5163TIP3   OH236979   6.698   5.631  15.695 -0.3671  0.5482  0.0404
 5163TIP3    H136980   6.686   5.544  15.656 -0.1340  0.7369 -0.4592
 5163TIP3    H236981   6.609   5.661  15.715 -0.4177 -0.0024  0.6552
 5164TIP3   OH236982   6.766   4.396   2.458  0.3808 -0.0525 -1.0015
 5164TIP3    H136983   6.768   4.321   2.399  1.0633  0.3237 -1.4802
 5164TIP3    H236984   6.779   4.359   2.545 -0.7696 -0.6286 -1.0550
 5165TIP3   OH236985   1.799   1.958  14.564  0.0096 -0.4954 -0.0214
 5165TIP3    H136986   1.713   1.919  14.547  0.6132 -1.5557 -0.8429
 5165TIP3    H236987   1.795   2.044  14.523 -0.9997 -0.1067  0.8620
 5166TIP3   OH236988   2.627   1.897   6.060 -0.3600  0.4271  0.0976
 5166TIP3    H136989   2.686   1.822   6.064 -1.0531 -0.1340 -0.0235
 5166TIP3    H236990   2.593   1.906   6.149 -1.9484 -0.7862 -0.3449
 5167TIP3   OH236991   3.388   6.184  11.860 -0.4052  0.0859  0.4649
 5167TIP3    H136992   3.397   6.253  11.925 -1.1858  0.5102  0.1325
 5167TIP3    H236993   3.354   6.109  11.909 -0.2058  0.1529  0.7023
 5168TIP3   OH236994   4.186   1.758   2.047 -0.3929 -0.4162 -0.4990
 5168TIP3    H136995   4.236   1.746   2.128 -1.2897 -0.7344  0.0265
 5168TIP3    H236996   4.231   1.829   2.002  0.7264 -0.9100 -0.2090
 5169TIP3   OH236997   5.056   0.806  15.936 -0.3045  0.2368 -0.0333
 5169TIP3    H136998   5.032   0.899  15.944 -1.2227  0.0412 -0.3679
 5169TIP3    H236999   4.991   0.770  15.876  1.9873  0.0772 -2.6644
 5170TIP3   OH237000   4.438   1.057   3.753  0.7111  0.2251 -0.2078
 5170TIP3    H137001   4.432   1.058   3.657  1.4638 -0.6275 -0.2766
 5170TIP3    H237002   4.532   1.062   3.771  0.5557  0.7456  0.5045
 5171TIP3   OH237003   6.725   3.208   3.822 -0.7445  0.4167 -0.3657
 5171TIP3    H137004   6.693   3.217   3.911  0.0372 -0.2717 -0.0066
 5171TIP3    H237005   6.647   3.185   3.771 -0.8694 -1.1052  0.4667
 5172TIP3   OH237006   4.357   4.650  15.298  0.4957  0.5717 -0.3621
 5172TIP3    H137007   4.346   4.703  15.219  0.1814  1.9048  0.5405
 5172TIP3    H237008   4.370   4.561  15.265  0.4339  1.0966 -1.9115
 5173TIP3   OH237009   2.119   1.203  14.597 -0.1086 -0.2469  0.7399
 5173TIP3    H137010   2.095   1.221  14.688  3.1630  0.0900  1.6771
 5173TIP3    H237011   2.130   1.290  14.557 -0.0349 -0.3641  0.5020
 5174TIP3   OH237012   5.786   0.997  11.925 -0.0893 -0.0575  0.5574
 5174TIP3    H137013   5.805   0.921  11.871 -1.5874  1.7599 -2.8316
 5174TIP3    H237014   5.696   0.983  11.955 -0.0686 -0.0026  0.6464
 5175TIP3   OH237015   4.234   2.889   0.905  0.0443  0.2182  0.4590
 5175TIP3    H137016   4.212   2.897   0.812  0.9122  0.5150  0.2680
 5175TIP3    H237017   4.274   2.802   0.912  0.3781  0.3729  0.4697
 5176TIP3   OH237018   4.153   0.945  13.986  0.2470 -0.3996  0.0818
 5176TIP3    H137019   4.151   0.957  13.891 -1.3159  1.9053  0.3302
 5176TIP3    H237020   4.074   0.895  14.005 -0.1730  0.3200  0.2697
 5177TIP3   OH237021   1.489   3.787   1.290 -0.1633 -0.3173 -0.1333
 5177TIP3    H137022   1.565   3.781   1.347  0.7310  0.9234 -1.1268
 5177TIP3    H237023   1.523   3.822   1.208 -2.1070  2.6338  0.1461
 5178TIP3   OH237024   6.166   0.433  14.317  0.0079  0.4951 -0.3663
 5178TIP3    H137025   6.122   0.516  14.299 -1.0077 -0.3924 -2.3193
 5178TIP3    H237026   6.226   0.421  14.244 -0.3005 -0.7465 -0.4428
 5179TIP3   OH237027   6.208   4.974   1.544  0.1640 -0.0340 -0.4254
 5179TIP3    H137028   6.283   4.944   1.492  0.4658  1.8087 -1.0987
 5179TIP3    H237029   6.242   4.984   1.633  0.2753 -0.7534 -0.3759
 5180TIP3   OH237030   5.235   2.873   4.276 -0.5735  0.1397 -0.3078
 5180TIP3    H137031   5.311   2.844   4.225  2.2662  3.6337  1.5352
 5180TIP3    H237032   5.207   2.954   4.234 -0.9717  0.7609  1.0903
 5181TIP3   OH237033   2.299   0.562  14.377  0.3486 -0.0111  0.0077
 5181TIP3    H137034   2.348   0.644  14.368  0.1563  0.0462 -0.5566
 5181TIP3    H237035   2.333   0.523  14.458  0.7015  0.4470  0.0869
 5182TIP3   OH237036   2.219   4.926  14.746  0.5145 -0.0617 -0.1378
 5182TIP3    H137037   2.312   4.905  14.751  0.7472  1.0867  1.1679
 5182TIP3    H237038   2.208   4.999  14.808 -1.3511 -0.5343  0.1452
 5183TIP3   OH237039   3.009   4.962   0.911  0.2876 -0.3401  0.0240
 5183TIP3    H137040   2.952   4.952   0.986 -0.9043  0.9119 -0.6718
 5183TIP3    H237041   3.024   4.873   0.879 -1.8176 -0.6595 -0.1623
 5184TIP3   OH237042   0.709   0.188   4.495 -0.2072  0.4592 -0.7494
 5184TIP3    H137043   0.704   0.284   4.491  0.0586  0.4606 -1.0688
 5184TIP3    H237044   0.666   0.159   4.415 -4.1064  0.1671  1.2321
 5185TIP3   OH237045   5.504   4.574  17.284 -0.1000  0.7247  0.6701
 5185TIP3    H137046   5.521   4.501  17.343  0.3731  1.1910  1.1281
 5185TIP3    H237047   5.556   4.647  17.320  0.1430  1.0434 -0.2739
 5186TIP3   OH237048   2.888   2.814  16.311 -0.2601 -0.5411  0.8018
 5186TIP3    H137049   2.870   2.908  16.313 -2.6307 -0.9151 -0.2569
 5186TIP3    H237050   2.931   2.799  16.227 -1.0259 -0.5658  0.4084
 5187TIP3   OH237051   0.469   4.172  15.529  0.2057 -0.5065 -0.0039
 5187TIP3    H137052   0.494   4.087  15.492  2.3865 -0.3530  0.9581
 5187TIP3    H237053   0.423   4.217  15.458  1.4353 -1.4491 -1.4530
 5188TIP3   OH237054   0.056   0.848  13.084  0.0278 -0.3499 -0.2774
 5188TIP3    H137055   0.129   0.786  13.089 -0.9128 -1.4879 -0.2667
 5188TIP3    H237056   0.022   0.839  12.996 -0.0907  0.1977 -0.2907
 5189TIP3   OH237057   1.911   2.922   2.769  0.2252 -0.5579  0.2224
 5189TIP3    H137058   1.996   2.959   2.795  1.2046 -1.5952 -1.3505
 5189TIP3    H237059   1.931   2.833   2.740 -1.6016 -1.2509  0.9330
 5190TIP3   OH237060   4.847   4.576   4.695 -0.1783 -0.0830  0.7384
 5190TIP3    H137061   4.940   4.557   4.684 -0.2712  0.3591 -1.3713
 5190TIP3    H237062   4.821   4.616   4.612 -1.6739  2.2706  2.2140
 5191TIP3   OH237063   3.398   5.386  12.566 -0.5987 -0.0275  0.3842
 5191TIP3    H137064   3.350   5.335  12.500 -0.2090 -0.8983  0.7532
 5191TIP3    H237065   3.429   5.463  12.519 -1.1165 -0.1809 -0.2185
 5192TIP3   OH237066   3.579   6.710   0.135  0.1087 -0.1645 -0.5403
 5192TIP3    H137067   3.535   6.785   0.176 -0.8501 -1.8364  1.6868
 5192TIP3    H237068   3.512   6.669   0.081  0.6060  0.4468 -1.6727
 5193TIP3   OH237069   2.223   0.291   5.234  0.4650 -0.4807  0.1356
 5193TIP3    H137070   2.164   0.335   5.295  2.1158  2.4345 -0.1735
 5193TIP3    H237071   2.281   0.239   5.290 -0.1461 -0.5161  0.7445
 5194TIP3   OH237072   0.921   4.312   1.499  0.1380 -0.4256  0.6850
 5194TIP3    H137073   0.916   4.219   1.477  0.2106 -0.1093 -0.7619
 5194TIP3    H237074   0.839   4.349   1.465  0.8945  0.3403 -0.3946
 5195TIP3   OH237075   1.920   2.541   5.476 -0.3286  0.0926  0.3476
 5195TIP3    H137076   1.866   2.575   5.547 -3.4955 -0.6119 -1.4968
 5195TIP3    H237077   1.947   2.619   5.427 -1.7691  0.3848 -0.0325
 5196TIP3   OH237078   2.276   0.584   3.949 -0.8254  0.1460  0.0256
 5196TIP3    H137079   2.275   0.521   4.021 -1.8292 -3.7111 -3.0028
 5196TIP3    H237080   2.189   0.625   3.951 -0.1015  1.7157  2.1342
 5197TIP3   OH237081   6.345   5.810   4.039  0.0481 -0.2209 -0.6666
 5197TIP3    H137082   6.341   5.826   3.945 -1.1233  0.5396 -0.5131
 5197TIP3    H237083   6.383   5.722   4.048  1.7105  0.3313 -1.7679
 5198TIP3   OH237084   3.713   2.934   5.840  0.3259 -0.0844  0.0696
 5198TIP3    H137085   3.668   2.926   5.756 -1.8661 -2.1125  1.3145
 5198TIP3    H237086   3.776   2.862   5.841  1.3258  0.7539 -0.3213
 5199TIP3   OH237087   6.159   2.530  15.704 -0.2921  0.2393 -0.3723
 5199TIP3    H137088   6.101   2.596  15.743 -0.1425  0.1819 -0.0468
 5199TIP3    H237089   6.131   2.524  15.613 -0.9534  0.0438 -0.1628
 5200TIP3   OH237090   2.624   3.146   2.745  0.4490 -0.2658  0.4948
 5200TIP3    H137091   2.690   3.183   2.804  2.0543 -0.6181 -0.9866
 5200TIP3    H237092   2.553   3.119   2.803  2.3302 -1.4650  2.4383
 5201TIP3   OH237093   5.976   4.609  15.347 -0.4570 -0.3795  1.0205
 5201TIP3    H137094   5.960   4.544  15.279 -0.7554 -0.5711  1.2711
 5201TIP3    H237095   5.895   4.660  15.352  0.6989  1.8797 -1.1309
 5202TIP3   OH237096   2.207   6.453  12.062 -0.1473 -0.6714  0.3232
 5202TIP3    H137097   2.166   6.459  12.148  0.6383  1.3795  0.6176
 5202TIP3    H237098   2.154   6.389  12.014 -1.2322 -1.0677  1.9750
 5203TIP3   OH237099   1.223   0.105   1.637  1.0217 -0.7558 -0.1418
 5203TIP3    H137100   1.250   0.124   1.727 -0.3240  0.1964  0.0780
 5203TIP3    H237101   1.261   0.019   1.619  0.8196 -1.2253  1.5384
 5204TIP3   OH237102   0.069   0.000   3.671 -0.5497 -0.0184  0.1298
 5204TIP3    H137103   0.141   0.042   3.719 -1.2944  1.7919 -0.2366
 5204TIP3    H237104   0.110  -0.043   3.597  0.2263  0.3271  0.3547
 5205TIP3   OH237105   3.941   3.016  14.702 -0.3568  1.0671 -0.2253
 5205TIP3    H137106   3.988   3.043  14.781 -0.1728  1.9143 -0.6119
 5205TIP3    H237107   3.959   3.086  14.639 -0.9744  0.6863 -0.8309
 5206TIP3   OH237108   1.166   5.510   4.098  0.7475  0.6680 -0.0207
 5206TIP3    H137109   1.151   5.554   4.014  0.2618 -0.9848 -0.8449
 5206TIP3    H237110   1.119   5.563   4.162 -2.2945 -0.1781 -1.3989
 5207TIP3   OH237111   0.086   0.273  12.974  0.0615  0.1811  1.0034
 5207TIP3    H137112   0.113   0.185  13.001 -1.6934 -0.8892 -0.4661
 5207TIP3    H237113   0.167   0.317  12.949  0.7283 -2.3877 -1.9533
 5208TIP3   OH237114   2.328   4.754  17.198 -0.0874  0.6547 -0.1497
 5208TIP3    H137115   2.316   4.849  17.195 -0.1387  0.7459  1.7590
 5208TIP3    H237116   2.389   4.735  17.126  0.6553  2.2537  0.0209
 5209TIP3   OH237117   3.972   1.106  15.692  0.0133 -0.0720  0.6762
 5209TIP3    H137118   3.912   1.170  15.730 -0.4519 -0.0659 -0.0399
 5209TIP3    H237119   3.945   1.023  15.730 -1.3115 -0.2641 -0.5944
 5210TIP3   OH237120   5.602   5.179   4.142 -0.6939  0.2810 -0.1792
 5210TIP3    H137121   5.515   5.211   4.166 -1.2000 -0.4569 -0.9464
 5210TIP3    H237122   5.605   5.089   4.176 -0.5997 -0.0174 -0.9462
 5211TIP3   OH237123   2.882   2.909   5.613  0.1691 -0.2934  0.6152
 5211TIP3    H137124   2.801   2.930   5.567  1.3314  1.0847 -0.9496
 5211TIP3    H237125   2.876   2.815   5.629 -1.5111 -0.3135  0.0928
 5212TIP3   OH237126   4.075   6.729  16.985 -0.1386  0.5128 -0.0080
 5212TIP3    H137127   4.046   6.658  16.928  0.9255 -1.5578  1.8658
 5212TIP3    H237128   3.996   6.756  17.032 -0.2971 -0.4452  0.2864
 5213TIP3   OH237129   6.142   2.514   3.783  0.4497 -0.3188  0.4419
 5213TIP3    H137130   6.201   2.441   3.766  0.3132 -1.0527  2.7893
 5213TIP3    H237131   6.153   2.533   3.876 -1.5987  0.7903  0.5282
 5214TIP3   OH237132   5.263   0.505  13.777  0.4536  0.8366 -0.1563
 5214TIP3    H137133   5.250   0.439  13.845 -0.5728  1.4738  0.2947
 5214TIP3    H237134   5.174   0.530  13.751  0.7896  2.6713  0.3148
 5215TIP3   OH237135   0.230   4.546   5.174  0.2104  0.6910 -0.2782
 5215TIP3    H137136   0.322   4.564   5.154  0.3499  1.1048  0.6623
 5215TIP3    H237137   0.181   4.605   5.116  0.4656 -0.5931 -1.8665
 5216TIP3   OH237138   1.476   2.825   1.484  0.0484  0.4348  0.2202
 5216TIP3    H137139   1.419   2.760   1.523  1.4022 -0.1329  1.3658
 5216TIP3    H237140   1.429   2.856   1.407 -1.9933  0.3774  1.3743
 5217TIP3   OH237141   0.005   4.933   0.942 -0.0612  0.0897 -0.3802
 5217TIP3    H137142  -0.035   4.879   1.011  0.4067  0.1684 -0.0461
 5217TIP3    H237143  -0.001   5.023   0.976 -1.1889  0.3130 -1.1029
 5218TIP3   OH237144   1.793   4.877  15.594  0.0246  0.0051  0.1543
 5218TIP3    H137145   1.791   4.882  15.690 -2.7611  1.5851  0.0994
 5218TIP3    H237146   1.865   4.935  15.569 -0.9350  1.7833  1.2664
 5219TIP3   OH237147   2.134   1.967  12.559  0.0700 -0.1694 -0.1825
 5219TIP3    H137148   2.060   1.963  12.619 -0.1373 -0.1887 -0.4384
 5219TIP3    H237149   2.099   1.936  12.475  0.0436  1.0285 -0.6279
 5220TIP3   OH237150   5.446   4.482  16.068 -0.5116  0.0629  0.3077
 5220TIP3    H137151   5.429   4.453  16.158 -2.3524  0.1844  0.0354
 5220TIP3    H237152   5.460   4.401  16.019  0.4309 -0.0068  0.6826
 5221TIP3   OH237153   5.189   4.825   3.447 -0.0196 -0.5085 -0.3802
 5221TIP3    H137154   5.199   4.907   3.495  1.5568  0.2631 -1.8928
 5221TIP3    H237155   5.169   4.760   3.514 -1.2506  1.0625  0.8724
 5222TIP3   OH237156   1.455   6.068   1.298  0.2973  0.6546  0.3356
 5222TIP3    H137157   1.465   6.060   1.204  0.9093 -2.4958  0.5680
 5222TIP3    H237158   1.520   6.133   1.324  0.0367  1.6551 -1.3845
 5223TIP3   OH237159   1.019   0.133  15.012 -0.0511  0.2394  0.0606
 5223TIP3    H137160   1.005   0.110  15.104 -1.2527  0.9274  0.0647
 5223TIP3    H237161   1.019   0.229  15.011  0.3507  0.2364 -0.6036
 5224TIP3   OH237162   5.115   4.598   4.608  0.3932  0.1767 -0.2842
 5224TIP3    H137163   5.199   4.594   4.563  1.0757 -0.7399  1.0282
 5224TIP3    H237164   5.118   4.680   4.657 -0.1564  0.9361 -1.4672
 5225TIP3   OH237165   0.482   6.198  16.002 -0.0396  0.0664  0.3250
 5225TIP3    H137166   0.451   6.256  15.933 -0.7676 -0.8676 -0.1687
 5225TIP3    H237167   0.403   6.152  16.031  0.1621  0.7584  2.1114
 5226TIP3   OH237168   3.579   5.900  14.227  0.2933  0.5474  0.4001
 5226TIP3    H137169   3.532   5.827  14.188  0.6001  0.2893  0.5142
 5226TIP3    H237170   3.601   5.957  14.153 -0.5660  0.8805  0.3963
 5227TIP3   OH237171   4.406   5.254  15.510 -0.3386 -0.4613 -0.0205
 5227TIP3    H137172   4.469   5.237  15.439  1.1529  0.6827  0.9462
 5227TIP3    H237173   4.400   5.350  15.513 -2.8768 -0.5329 -0.6522
 5228TIP3   OH237174   1.049   3.247   3.749 -0.2589 -0.0607  0.1947
 5228TIP3    H137175   1.092   3.250   3.663  0.6133  1.5028  0.6468
 5228TIP3    H237176   1.009   3.333   3.758 -0.0967 -0.1087  1.4735
 5229TIP3   OH237177   5.515   2.479   4.122 -0.4139 -0.1140  0.1234
 5229TIP3    H137178   5.583   2.428   4.078  0.5408  0.9366  0.3081
 5229TIP3    H237179   5.434   2.432   4.105 -0.0968  0.1839 -2.7218
 5230TIP3   OH237180   5.367   0.864   4.710 -0.4719  0.5185  0.2754
 5230TIP3    H137181   5.390   0.790   4.766  0.0303  1.2652  1.0840
 5230TIP3    H237182   5.407   0.844   4.625 -2.6660 -1.4456 -0.4067
 5231TIP3   OH237183   4.526   3.584   3.255 -0.4274 -0.4986 -0.1325
 5231TIP3    H137184   4.505   3.520   3.186  0.7172 -2.0402  0.8810
 5231TIP3    H237185   4.614   3.613   3.234 -0.8914  0.7140 -0.5102
 5232TIP3   OH237186   1.076   6.097  15.653  0.0511 -0.0166 -0.4207
 5232TIP3    H137187   1.074   6.038  15.729  0.0189 -1.0991 -1.2350
 5232TIP3    H237188   1.006   6.065  15.596  0.6484  0.2131 -1.3053
 5233TIP3   OH237189   4.543   6.485   3.644  0.0388 -0.2333  0.0291
 5233TIP3    H137190   4.618   6.431   3.618 -0.9420 -1.2955 -0.6902
 5233TIP3    H237191   4.479   6.471   3.575 -0.6537  1.0351  0.3937
 5234TIP3   OH237192   1.908   6.530   0.235 -0.2653 -0.5845 -0.4792
 5234TIP3    H137193   1.916   6.600   0.171 -0.0299 -1.2842 -1.2222
 5234TIP3    H237194   1.998   6.510   0.261 -0.4073  1.0472  1.6070
 5235TIP3   OH237195   0.553   6.450   1.083 -0.2159  0.0613 -0.4341
 5235TIP3    H137196   0.473   6.502   1.071  0.4583  1.2300 -0.0958
 5235TIP3    H237197   0.540   6.405   1.166 -0.7616 -0.2227 -0.6652
 5236TIP3   OH237198   1.548   3.370  16.178 -0.9078  0.6544  0.5267
 5236TIP3    H137199   1.605   3.441  16.208 -2.2742  2.1786 -0.3053
 5236TIP3    H237200   1.515   3.330  16.258  0.5711  0.3310  1.0162
 5237TIP3   OH237201   4.286   5.678   6.147  0.2725 -0.2278  0.2943
 5237TIP3    H137202   4.367   5.659   6.099 -0.9144 -0.8330 -1.6045
 5237TIP3    H237203   4.285   5.773   6.155  1.9349 -0.2823  1.8490
 5238TIP3   OH237204   4.767   2.302  15.945  0.4583 -0.2358 -0.1716
 5238TIP3    H137205   4.806   2.347  16.020  2.3295 -1.9309 -0.0435
 5238TIP3    H237206   4.676   2.290  15.970  0.8219  0.0515  1.4345
 5239TIP3   OH237207   0.929   2.512   4.859  0.4367  0.1975  0.2480
 5239TIP3    H137208   0.851   2.537   4.909 -0.2343  1.7458 -1.4603
 5239TIP3    H237209   0.994   2.489   4.925 -0.7436  1.1166  1.7815
 5240TIP3   OH237210   3.144   2.191  16.563  0.0880  0.2464  0.1740
 5240TIP3    H137211   3.059   2.154  16.539 -0.0145  0.5588  0.0505
 5240TIP3    H237212   3.161   2.257  16.496  0.4508  0.1522  0.1718
 5241TIP3   OH237213   5.096   1.416   2.854 -0.3342  0.2071 -0.2439
 5241TIP3    H137214   5.114   1.460   2.937  0.8582  2.2398 -1.5195
 5241TIP3    H237215   5.026   1.467   2.815 -0.9973 -0.8384 -0.4620
 5242TIP3   OH237216   6.663   2.710   5.398 -0.6139  0.3864 -0.7216
 5242TIP3    H137217   6.692   2.793   5.359  2.2314  0.1507  0.6613
 5242TIP3    H237218   6.589   2.734   5.453  0.6600  2.2223  0.3045
 5243TIP3   OH237219   2.006   5.051  13.672 -0.3122  0.1492  0.0115
 5243TIP3    H137220   2.045   5.129  13.634  0.3918 -0.1573  0.0820
 5243TIP3    H237221   2.081   4.996  13.697 -0.7989 -0.8048 -0.5656
 5244TIP3   OH237222   5.058   6.732   5.671  0.1427 -0.3562  0.2169
 5244TIP3    H137223   5.003   6.738   5.750 -1.5043  1.7076 -0.9783
 5244TIP3    H237224   5.143   6.764   5.699 -1.0345  2.6403  0.7288
 5245TIP3   OH237225   5.764   2.882  16.171  0.3249  0.1762  0.4047
 5245TIP3    H137226   5.686   2.935  16.189 -0.6756 -0.8277 -0.7804
 5245TIP3    H237227   5.809   2.929  16.102 -1.2703 -1.0743 -1.6159
 5246TIP3   OH237228   3.606   3.648   2.165  0.0045  0.4665 -0.1919
 5246TIP3    H137229   3.640   3.737   2.174  1.2858  0.1045 -1.0806
 5246TIP3    H237230   3.657   3.596   2.227  0.5258  0.0575 -0.9460
 5247TIP3   OH237231   4.028   4.106  11.497  0.4369  0.5709 -0.1331
 5247TIP3    H137232   4.118   4.086  11.471  0.1855  0.1966 -0.7272
 5247TIP3    H237233   3.976   4.089  11.419 -0.5566 -2.1568  0.9722
 5248TIP3   OH237234   1.492   6.102  14.050  0.1175  0.0601  0.2229
 5248TIP3    H137235   1.403   6.136  14.047  0.3569  0.7259 -3.0469
 5248TIP3    H237236   1.482   6.009  14.032  0.0946  0.5300 -2.7765
 5249TIP3   OH237237   4.715   0.781   5.489  0.5883  0.3961 -0.0612
 5249TIP3    H137238   4.790   0.827   5.525  0.5832 -1.1481  2.0541
 5249TIP3    H237239   4.748   0.742   5.408  1.8837  0.2900  0.4942
 5250TIP3   OH237240   1.312   4.746  10.773 -0.0976  0.2801  0.5366
 5250TIP3    H137241   1.352   4.662  10.754 -1.3518 -0.7197  2.0497
 5250TIP3    H237242   1.223   4.724  10.801 -1.1462  2.2653 -0.9540
 5251TIP3   OH237243   6.249   0.106   5.713  0.2583 -0.4222  0.0044
 5251TIP3    H137244   6.243   0.136   5.804 -0.1083 -0.2893 -0.0630
 5251TIP3    H237245   6.283   0.182   5.665 -1.8188  0.3392 -0.3785
 5252TIP3   OH237246   2.584   3.062   3.141 -0.0062  0.0359  0.1767
 5252TIP3    H137247   2.516   3.072   3.073 -1.2008 -3.0429  0.7657
 5252TIP3    H237248   2.541   3.090   3.222  0.4232  0.8356  0.1367
 5253TIP3   OH237249   1.547   1.381  11.506  0.3691  0.0145 -0.0566
 5253TIP3    H137250   1.611   1.350  11.570  0.7954  1.0673  0.0405
 5253TIP3    H237251   1.469   1.402  11.558  0.4922  0.2513  0.0321
 5254TIP3   OH237252   4.519   5.113  11.950  0.4817  0.2974 -0.0205
 5254TIP3    H137253   4.446   5.126  11.889  1.0696  0.9397 -0.6055
 5254TIP3    H237254   4.529   5.018  11.956  1.1123  0.2086 -1.7936
 5255TIP3   OH237255   0.820   6.308   3.043 -0.3823 -0.1692 -0.0631
 5255TIP3    H137256   0.795   6.400   3.053 -0.8688 -0.2079 -0.8261
 5255TIP3    H237257   0.907   6.302   3.083 -0.0869  0.7608 -0.5425
 5256TIP3   OH237258   0.177   3.272   0.401 -0.3004 -0.0240  0.3847
 5256TIP3    H137259   0.233   3.198   0.379 -0.0419  0.0755  0.6972
 5256TIP3    H237260   0.110   3.274   0.332 -0.6898 -0.9359  0.7227
 5257TIP3   OH237261   2.440   0.908  16.439  0.3999 -0.6087 -0.1684
 5257TIP3    H137262   2.418   0.905  16.532  2.3429 -0.4607  0.3311
 5257TIP3    H237263   2.422   0.820  16.407 -2.0196 -0.1918 -0.1210
 5258TIP3   OH237264   4.259   4.909   1.833 -0.3644 -0.6074  0.0138
 5258TIP3    H137265   4.193   4.840   1.838  1.7316 -2.6906  0.8845
 5258TIP3    H237266   4.326   4.882   1.895  0.7358  2.0824  0.1119
 5259TIP3   OH237267   5.137   1.649   5.530 -0.2102 -0.0133  0.0406
 5259TIP3    H137268   5.151   1.650   5.435  1.8031 -0.3743  0.2753
 5259TIP3    H237269   5.199   1.714   5.564 -0.6840 -0.1118  1.1280
 5260TIP3   OH237270   3.067   6.352  16.206  0.3765  0.5384  0.0823
 5260TIP3    H137271   2.992   6.312  16.162  1.2482  0.0946 -1.0355
 5260TIP3    H237272   3.032   6.384  16.289 -1.6223  2.5113 -1.4050
 5261TIP3   OH237273   4.717   1.972  15.644 -1.0105 -0.3472 -0.0753
 5261TIP3    H137274   4.683   2.039  15.585 -3.6659 -0.9763  0.5979
 5261TIP3    H237275   4.668   1.893  15.620  0.1962 -1.4135  0.8522
 5262TIP3   OH237276   1.786   5.689   2.632 -0.2606 -0.2631  0.0974
 5262TIP3    H137277   1.877   5.666   2.649 -0.3247 -1.0202 -0.5417
 5262TIP3    H237278   1.759   5.738   2.710  0.9227  0.6902 -0.0632
 5263TIP3   OH237279   1.410   0.926   0.740  0.6080  0.0025  0.1423
 5263TIP3    H137280   1.367   0.841   0.747 -1.0037  0.7285 -0.4986
 5263TIP3    H237281   1.496   0.913   0.781 -0.8910 -1.0216  3.2503
 5264TIP3   OH237282   4.570   0.867  14.605 -0.3659  0.4405 -0.2400
 5264TIP3    H137283   4.525   0.938  14.651 -0.2612 -0.6284  1.5743
 5264TIP3    H237284   4.529   0.787  14.638  0.5946 -0.4238 -1.0678
 5265TIP3   OH237285   1.911   4.303   4.957 -0.5354  0.0159 -0.0784
 5265TIP3    H137286   1.894   4.316   5.050  2.3858  0.7183  0.4587
 5265TIP3    H237287   1.955   4.218   4.952 -1.0467 -0.2154 -0.8903
 5266TIP3   OH237288   1.521   0.703  14.613 -0.7502 -0.3322  0.7309
 5266TIP3    H137289   1.546   0.770  14.677  0.5816 -0.1127  0.0322
 5266TIP3    H237290   1.426   0.706  14.612 -0.7495  0.9946  1.3170
 5267TIP3   OH237291   0.394   1.658   1.617  0.2134 -0.5759 -0.2983
 5267TIP3    H137292   0.465   1.690   1.673  0.1599  0.7056 -0.9353
 5267TIP3    H237293   0.314   1.684   1.663  0.1674  0.0878 -0.7554
 5268TIP3   OH237294   3.274   2.212  12.299  0.0129 -0.2237 -0.0913
 5268TIP3    H137295   3.247   2.189  12.210  0.6709 -1.7701  0.0616
 5268TIP3    H237296   3.230   2.147  12.354 -0.8993  1.1124  0.8045
 5269TIP3   OH237297   1.045   2.098  16.601 -0.1454 -0.5344  0.4834
 5269TIP3    H137298   1.015   2.089  16.510 -0.3429  0.5053  0.4351
 5269TIP3    H237299   0.968   2.075  16.654 -0.5403  0.4640  0.3670
 5270TIP3   OH237300   4.245   2.810  16.677 -0.3548  0.7608  0.3932
 5270TIP3    H137301   4.158   2.770  16.678  0.1778 -0.6987 -2.1496
 5270TIP3    H237302   4.302   2.745  16.717 -0.2436  1.1888  0.9324
 5271TIP3   OH237303   1.771   2.566  15.268  0.1593 -0.0395 -0.0220
 5271TIP3    H137304   1.690   2.515  15.270  0.6535 -0.8153  1.0763
 5271TIP3    H237305   1.838   2.503  15.241  0.7386  0.0623  1.1191
 5272TIP3   OH237306   1.320   5.382  15.265 -0.7195  0.1802  0.1258
 5272TIP3    H137307   1.296   5.291  15.283  2.1432 -0.5141  0.8818
 5272TIP3    H237308   1.366   5.378  15.181  0.3182  0.7369  0.6550
 5273TIP3   OH237309   5.271   2.249  16.261 -0.3339  0.3211 -0.0778
 5273TIP3    H137310   5.277   2.247  16.356 -0.1370 -0.2261 -0.0958
 5273TIP3    H237311   5.180   2.228  16.242 -0.1438 -0.5852 -0.0301
 5274TIP3   OH237312   1.971   3.090  15.866 -0.7918 -0.1992 -0.2318
 5274TIP3    H137313   1.947   3.166  15.919  1.3098 -0.7983  1.7721
 5274TIP3    H237314   1.930   3.016  15.912  0.3872 -0.6428  0.1512
 5275TIP3   OH237315   1.157   6.703   5.113  0.3695 -0.0664  0.5346
 5275TIP3    H137316   1.105   6.726   5.190  0.5752 -0.5773  0.8349
 5275TIP3    H237317   1.243   6.679   5.149  0.5985  0.1103  0.1068
 5276TIP3   OH237318   5.245   3.824  12.392 -0.6621  0.3684 -0.2929
 5276TIP3    H137319   5.268   3.821  12.299 -1.2378  3.0299 -0.6173
 5276TIP3    H237320   5.154   3.795  12.396 -0.2147 -1.1270 -0.3122
 5277TIP3   OH237321   1.703   0.634   1.090  0.4666 -0.5133 -0.1806
 5277TIP3    H137322   1.703   0.601   1.180  0.2911  1.6404  0.6800
 5277TIP3    H237323   1.784   0.685   1.084  0.7843 -1.1331 -1.4642
 5278TIP3   OH237324   1.418   6.287   5.394 -0.2083  0.0490  0.0642
 5278TIP3    H137325   1.449   6.251   5.311  1.2267 -0.2535  0.7074
 5278TIP3    H237326   1.381   6.212   5.441  0.7977 -0.1797  0.5071
 5279TIP3   OH237327   4.020   2.619   0.675  0.1578  0.7171  0.0528
 5279TIP3    H137328   4.077   2.659   0.741  1.5656  0.2438 -0.8274
 5279TIP3    H237329   3.937   2.668   0.682  0.4251  0.9732  1.8233
 5280TIP3   OH237330   2.095   5.258  13.228 -0.2801  0.0335  0.0195
 5280TIP3    H137331   2.002   5.241  13.214 -1.0214  2.4270  1.4102
 5280TIP3    H237332   2.119   5.319  13.158  0.6739 -1.6798 -1.2008
 5281TIP3   OH237333   0.594   2.409   1.346  0.2177  0.5031 -0.2672
 5281TIP3    H137334   0.643   2.486   1.375  0.8858  0.1780 -0.5144
 5281TIP3    H237335   0.646   2.335   1.376 -0.8962  0.1128  0.7951
 5282TIP3   OH237336   3.328   6.186  11.531 -0.2012  0.5997 -0.1902
 5282TIP3    H137337   3.376   6.267  11.549 -0.0747  0.5451 -0.2814
 5282TIP3    H237338   3.372   6.148  11.455  2.0193 -1.3568  1.9133
 5283TIP3   OH237339   1.779   1.438   3.687  0.2088 -0.4302  0.4267
 5283TIP3    H137340   1.830   1.471   3.761  1.4847 -2.3922  0.4674
 5283TIP3    H237341   1.837   1.446   3.612 -0.3171 -0.4105  0.0150
 5284TIP3   OH237342   0.041   0.247  14.362  0.2825  0.5540 -0.2291
 5284TIP3    H137343   0.057   0.180  14.429 -1.4506 -0.2884 -0.5883
 5284TIP3    H237344  -0.037   0.293  14.392  1.9493  3.1047  0.4625
 5285TIP3   OH237345   3.566   6.633  14.411 -1.1550 -0.0275  0.1881
 5285TIP3    H137346   3.572   6.692  14.486 -0.3143 -0.6929  0.6750
 5285TIP3    H237347   3.499   6.569  14.437 -0.8941 -0.2336  0.3634
 5286TIP3   OH237348   0.398   2.725   3.198  0.0105 -0.5104  0.0864
 5286TIP3    H137349   0.467   2.687   3.253  2.2754  0.0215 -2.2066
 5286TIP3    H237350   0.389   2.815   3.230 -0.5654 -0.9646  1.2312
 5287TIP3   OH237351   3.785   6.561  11.764 -0.1482 -0.3200  0.1901
 5287TIP3    H137352   3.841   6.623  11.716 -1.7965  0.3673 -0.9541
 5287TIP3    H237353   3.731   6.521  11.696 -0.6173 -1.4361  1.1882
 5288TIP3   OH237354   0.851   0.025   6.803  0.0779  0.2850  0.4646
 5288TIP3    H137355   0.797   0.061   6.873 -1.0715 -2.7645  1.2998
 5288TIP3    H237356   0.938   0.017   6.841 -0.3078 -0.3790  1.2545
 5289TIP3   OH237357   5.371   0.525   5.084 -0.3416 -0.4315  0.4947
 5289TIP3    H137358   5.347   0.493   4.997  3.2066  0.2171 -0.9105
 5289TIP3    H237359   5.409   0.449   5.128 -0.8292 -0.4251  0.9300
 5290TIP3   OH237360   2.445   4.688  13.104 -0.1120 -0.2327  0.5372
 5290TIP3    H137361   2.402   4.634  13.170 -0.4867  2.1398  2.3649
 5290TIP3    H237362   2.378   4.752  13.078  1.1151  1.1206  0.5806
 5291TIP3   OH237363   3.014   3.568  15.991  0.2123 -0.1804 -0.2381
 5291TIP3    H137364   3.028   3.624  16.068 -0.7531 -2.7983  2.0006
 5291TIP3    H237365   2.922   3.581  15.969  0.3132  0.0467 -0.5323
 5292TIP3   OH237366   2.676   4.172   5.672  0.1229 -0.0980  0.4615
 5292TIP3    H137367   2.698   4.083   5.645  1.2575  0.1020  0.6861
 5292TIP3    H237368   2.717   4.228   5.606 -0.5855  0.2631  0.3209
 5293TIP3   OH237369   4.473   3.183  11.101 -0.0517  0.5326 -0.4334
 5293TIP3    H137370   4.461   3.115  11.167  1.6657  1.3739  0.8142
 5293TIP3    H237371   4.526   3.141  11.033  0.1632  0.3533 -0.1549
 5294TIP3   OH237372   3.953   4.218  14.884  0.5455  0.2319 -0.1681
 5294TIP3    H137373   4.045   4.232  14.859  0.8210  1.9167  1.5732
 5294TIP3    H237374   3.903   4.270  14.821  0.6537 -1.4620 -1.7353
 5295TIP3   OH237375   2.450   4.642  15.711 -0.9062  0.0824 -0.0606
 5295TIP3    H137376   2.401   4.654  15.793 -1.7161  2.7871 -0.8166
 5295TIP3    H237377   2.382   4.638  15.644 -0.2154 -1.0754 -0.7132
 5296TIP3   OH237378   2.849   1.532  17.198 -0.1196  0.1974  0.7510
 5296TIP3    H137379   2.864   1.625  17.177 -2.3346  0.2528 -0.9153
 5296TIP3    H237380   2.812   1.534  17.287 -3.3642  1.3328 -0.4844
 5297TIP3   OH237381   5.638   4.445  14.129  0.0921 -0.0802  0.0519
 5297TIP3    H137382   5.722   4.406  14.103 -0.6378 -2.2995  0.7937
 5297TIP3    H237383   5.662   4.518  14.186  1.5342 -1.1787  0.9314
 5298TIP3   OH237384   0.550   1.750   4.086  0.2199  0.6472  0.6203
 5298TIP3    H137385   0.532   1.666   4.128  2.4900 -0.2792 -0.1221
 5298TIP3    H237386   0.526   1.815   4.153  1.3304 -0.6870  2.4200
 5299TIP3   OH237387   4.743   4.167  16.871 -0.3519 -0.1397  0.4910
 5299TIP3    H137388   4.654   4.135  16.887  0.3743 -1.3079  2.5726
 5299TIP3    H237389   4.731   4.248  16.823 -2.4351 -1.5222 -1.5021
 5300TIP3   OH237390   1.199   5.634  15.263 -0.9980 -0.3690 -0.5776
 5300TIP3    H137391   1.246   5.556  15.233  0.4206 -0.7179  2.1676
 5300TIP3    H237392   1.261   5.677  15.322 -2.8087  1.2450  0.2331
 5301TIP3   OH237393   0.948   5.348  12.243 -0.1646 -0.8172 -0.4907
 5301TIP3    H137394   0.945   5.442  12.262 -1.6304 -0.0887 -3.6255
 5301TIP3    H237395   1.018   5.314  12.299 -0.4593  1.8545  1.7012
 5302TIP3   OH237396   5.510   6.238  14.016  0.6590 -0.2487 -0.0750
 5302TIP3    H137397   5.592   6.205  14.055  1.4905  1.5776 -0.2038
 5302TIP3    H237398   5.466   6.283  14.088  1.0443  1.0500 -0.6400
 5303TIP3   OH237399   4.686   0.835   3.988  0.5288 -0.0541 -0.3856
 5303TIP3    H137400   4.753   0.846   4.056  0.3186 -0.7928 -0.0452
 5303TIP3    H237401   4.735   0.810   3.910  0.6630 -0.5622 -0.1457
 5304TIP3   OH237402   4.287   5.221   6.179 -0.5639 -0.1776  0.5886
 5304TIP3    H137403   4.214   5.159   6.188 -0.3354 -0.4631  0.4751
 5304TIP3    H237404   4.245   5.307   6.182 -0.9055 -0.3391  0.5442
 5305TIP3   OH237405   2.159   3.787   0.230  0.1020  0.0453  0.3576
 5305TIP3    H137406   2.224   3.717   0.224 -1.1738 -1.1164 -0.7431
 5305TIP3    H237407   2.120   3.775   0.317  0.3466 -0.1907  0.4401
 5306TIP3   OH237408   0.511   2.091  16.615 -0.4122 -0.1167 -0.3902
 5306TIP3    H137409   0.518   2.052  16.528  0.2814 -0.9509  0.0264
 5306TIP3    H237410   0.506   2.185  16.599 -1.0235 -0.3022 -1.3626
 5307TIP3   OH237411   0.180   5.412  16.168  0.0220 -0.5440  0.3837
 5307TIP3    H137412   0.188   5.459  16.251  0.4822 -2.4661  1.4928
 5307TIP3    H237413   0.086   5.400  16.155 -0.0229 -0.9136  1.0410
 5308TIP3   OH237414   4.693   1.120   5.600 -1.0440  0.3726  0.3274
 5308TIP3    H137415   4.658   1.203   5.567 -1.6186 -0.0042 -0.0471
 5308TIP3    H237416   4.753   1.145   5.670 -0.9585  1.1190 -0.0017
 5309TIP3   OH237417   4.110   2.490  15.607  0.7220  0.5643 -0.4270
 5309TIP3    H137418   4.166   2.479  15.684 -0.6299  1.7666  0.7959
 5309TIP3    H237419   4.153   2.557  15.555 -0.5840  3.2533  1.6605
 5310TIP3   OH237420   3.693   3.392  15.078 -0.2397  0.4121  0.0315
 5310TIP3    H137421   3.638   3.470  15.072 -3.1542 -1.4186  0.8908
 5310TIP3    H237422   3.645   3.326  15.028  3.0396 -0.4655 -2.2401
 5311TIP3   OH237423   1.337   1.622   1.547 -0.0819  0.0696  0.3192
 5311TIP3    H137424   1.291   1.651   1.625  1.0621  0.6150  0.8085
 5311TIP3    H237425   1.366   1.702   1.504  1.6685 -0.2478  0.8125
 5312TIP3   OH237426   1.735   1.099  16.566  0.0474  0.4168  0.0614
 5312TIP3    H137427   1.709   1.097  16.658  1.5270  1.2635  0.5382
 5312TIP3    H237428   1.808   1.037  16.560 -0.3479  0.0148 -0.6505
 5313TIP3   OH237429   3.014   6.338  12.495  0.0446  0.2221 -0.3715
 5313TIP3    H137430   2.991   6.296  12.579 -0.5811  2.4876  0.6760
 5313TIP3    H237431   2.980   6.278  12.429 -0.9557 -0.8477  1.0288
 5314TIP3   OH237432   1.568   4.472   0.505  0.2636  0.3720 -0.2810
 5314TIP3    H137433   1.608   4.496   0.588 -1.2042  3.0284 -0.2565
 5314TIP3    H237434   1.586   4.378   0.496  0.5513  0.0284  2.9334
 5315TIP3   OH237435   2.166   4.987   3.883 -0.0392 -0.1548 -0.4341
 5315TIP3    H137436   2.100   5.029   3.828 -0.1638  1.0019  0.5658
 5315TIP3    H237437   2.237   5.050   3.887  0.4514 -0.7118 -0.1669
 5316TIP3   OH237438   0.276   4.257  17.127 -0.0313  0.0014  0.0796
 5316TIP3    H137439   0.256   4.270  17.034 -1.4405  1.1712  0.5042
 5316TIP3    H237440   0.346   4.192  17.127  0.1187  0.0862 -1.8029
 5317TIP3   OH237441   3.541   3.833   5.732 -0.1558 -0.0944 -0.0320
 5317TIP3    H137442   3.516   3.892   5.660 -0.0818  1.1455  0.9175
 5317TIP3    H237443   3.599   3.769   5.691 -1.5967 -0.5750 -1.4565
 5318TIP3   OH237444   5.797   6.728   0.794 -0.3594  0.3580 -0.0974
 5318TIP3    H137445   5.754   6.670   0.856  0.9979  1.0214  1.5627
 5318TIP3    H237446   5.762   6.815   0.815  2.2151  1.0566  1.8949
 5319TIP3   OH237447   5.638   1.299  15.901  0.1241 -0.0736  0.0891
 5319TIP3    H137448   5.560   1.309  15.955 -1.2365 -0.8181 -1.6239
 5319TIP3    H237449   5.606   1.259  15.820  2.3187 -0.5283 -0.6279
 5320TIP3   OH237450   0.996   1.271   2.962  0.2855 -0.5295  0.2588
 5320TIP3    H137451   1.067   1.252   3.022  2.2200  1.7582 -1.1268
 5320TIP3    H237452   0.945   1.190   2.958  2.1366 -1.8780  2.1857
 5321TIP3   OH237453   3.510   5.063   3.979  0.4026 -0.2125  0.1464
 5321TIP3    H137454   3.533   5.132   4.042  0.2847  1.9714 -2.0403
 5321TIP3    H237455   3.436   5.017   4.019 -0.2720  1.6886  1.2169
 5322TIP3   OH237456   4.847   0.716  15.793  0.6120 -0.5526 -0.0401
 5322TIP3    H137457   4.751   0.716  15.795  0.5881  0.8237 -0.0601
 5322TIP3    H237458   4.871   0.626  15.813 -0.6580 -0.4393  2.4646
 5323TIP3   OH237459   5.893   0.829  15.972 -0.1110  0.3280  0.1554
 5323TIP3    H137460   5.824   0.763  15.975  1.5340 -1.4838  2.7263
 5323TIP3    H237461   5.917   0.834  15.879 -1.9730 -0.8439 -0.4504
 5324TIP3   OH237462   0.430   5.269   3.287 -0.0481 -0.5440  0.0181
 5324TIP3    H137463   0.413   5.263   3.193 -0.4941 -0.3703  0.0817
 5324TIP3    H237464   0.432   5.363   3.304 -0.4998 -0.5778  0.2693
 5325TIP3   OH237465   1.257   6.481   0.056  0.1277 -0.1152 -0.2145
 5325TIP3    H137466   1.178   6.432   0.032 -0.3655 -1.1607  3.0779
 5325TIP3    H237467   1.327   6.416   0.054  0.3418  0.1142 -0.2054
 5326TIP3   OH237468   5.526   0.553  11.324  0.4905  0.1890  0.2274
 5326TIP3    H137469   5.621   0.566  11.328  0.4029  0.5692  1.1805
 5326TIP3    H237470   5.504   0.570  11.232  1.0627  2.0629  0.3941
 5327TIP3   OH237471   1.284   4.822  15.238 -0.5087 -0.9379  0.4620
 5327TIP3    H137472   1.355   4.815  15.173 -0.0900  1.2059  0.6248
 5327TIP3    H237473   1.329   4.846  15.319 -1.3300 -0.4651  0.7804
 5328TIP3   OH237474   2.394   1.348   1.562  0.3786 -0.3664 -0.4200
 5328TIP3    H137475   2.362   1.376   1.476  0.3819  0.2577 -0.2220
 5328TIP3    H237476   2.454   1.417   1.589  1.2573 -1.1185 -0.4083
 5329TIP3   OH237477   5.349   2.376  14.657 -0.5824  0.2015 -0.0094
 5329TIP3    H137478   5.426   2.391  14.602 -1.1122 -0.7896 -1.0718
 5329TIP3    H237479   5.384   2.369  14.746  0.7467 -1.4895 -0.6046
 5330TIP3   OH237480   2.104   1.681   2.691 -1.1693  0.4234  0.0998
 5330TIP3    H137481   2.191   1.721   2.687 -1.1145  0.3368  0.3728
 5330TIP3    H237482   2.044   1.752   2.667 -0.9204  0.0524 -1.7695
 5331TIP3   OH237483   6.076   2.137  11.621 -0.3265 -0.2584 -0.0100
 5331TIP3    H137484   6.022   2.120  11.544 -1.1333  0.2563  0.4180
 5331TIP3    H237485   6.017   2.121  11.695  0.8380 -2.1593  0.5772
 5332TIP3   OH237486   5.875   2.011   5.884 -0.3841 -0.1952 -0.1100
 5332TIP3    H137487   5.831   2.003   5.799 -0.0463  0.0257 -0.3054
 5332TIP3    H237488   5.901   2.102   5.890  0.5285 -0.4401 -0.2338
 5333TIP3   OH237489   0.165   2.682  12.113 -0.2602 -0.0139  0.1522
 5333TIP3    H137490   0.185   2.590  12.098 -0.2086  0.1901 -1.1201
 5333TIP3    H237491   0.132   2.685  12.203 -1.3905 -1.4476 -0.1828
 5334TIP3   OH237492   1.562   6.115   4.449 -0.3914 -0.0221  0.4944
 5334TIP3    H137493   1.473   6.143   4.469 -0.5335 -1.2280  1.7357
 5334TIP3    H237494   1.608   6.195   4.425 -1.9740  0.5333 -0.8697
 5335TIP3   OH237495   5.848   3.131   3.466  0.2355 -0.0203 -0.3443
 5335TIP3    H137496   5.938   3.139   3.435  0.4555 -1.3508 -0.1320
 5335TIP3    H237497   5.849   3.055   3.524 -1.3440 -1.1505 -1.6723
 5336TIP3   OH237498   3.140   3.598  14.819 -0.5302 -0.3335 -0.0195
 5336TIP3    H137499   3.206   3.529  14.803 -1.2345 -0.8033 -1.0412
 5336TIP3    H237500   3.123   3.634  14.732  1.1424  2.4423  0.6630
 5337TIP3   OH237501   0.090   4.506  15.615 -0.1536 -0.0361 -0.5718
 5337TIP3    H137502   0.130   4.467  15.693  1.6304  1.5445 -0.6234
 5337TIP3    H237503   0.143   4.473  15.542 -0.4733  0.1755 -0.9037
 5338TIP3   OH237504   6.151   6.387  10.495 -0.1270  0.6291 -0.5373
 5338TIP3    H137505   6.137   6.473  10.533  2.4694  0.8250  0.1485
 5338TIP3    H237506   6.075   6.336  10.523 -0.0897  1.7734  1.8724
 5339TIP3   OH237507   3.805   1.769  15.573 -0.2207  0.1648  0.2207
 5339TIP3    H137508   3.750   1.835  15.531 -2.1855 -1.0237  0.7765
 5339TIP3    H237509   3.849   1.724  15.501 -0.4989  0.7136 -0.2967
 5340TIP3   OH237510   3.310   1.557   4.238  0.3112  0.3268 -0.3144
 5340TIP3    H137511   3.241   1.493   4.220  0.2922  0.4843 -0.8017
 5340TIP3    H237512   3.386   1.524   4.189 -0.4211  2.0775 -2.7939
 5341TIP3   OH237513   5.936   2.232   4.115  0.5040 -0.4102  0.4199
 5341TIP3    H137514   5.941   2.212   4.209  1.7626  1.8173  0.8765
 5341TIP3    H237515   5.914   2.325   4.111 -0.8100 -0.7355 -1.5478
 5342TIP3   OH237516   0.644   6.505  16.471  0.1242  0.1851  0.8554
 5342TIP3    H137517   0.658   6.411  16.459 -0.0953  0.0753  1.4285
 5342TIP3    H237518   0.723   6.534  16.517  0.5043  0.4150  0.0734
 5343TIP3   OH237519   1.142   5.247   1.103  0.1297  0.1197 -0.4911
 5343TIP3    H137520   1.131   5.228   1.010  1.4220 -0.1941 -0.5899
 5343TIP3    H237521   1.202   5.321   1.106  0.6222 -0.2922  0.1053
 5344TIP3   OH237522   3.425   2.491   1.008 -0.2353  0.4145 -0.2042
 5344TIP3    H137523   3.475   2.570   1.030  1.0901  0.0391 -1.7238
 5344TIP3    H237524   3.454   2.426   1.071  0.4243  0.4908 -0.4274
 5345TIP3   OH237525   1.482   5.419   7.126 -0.3637  0.2260  0.0477
 5345TIP3    H137526   1.502   5.362   7.052  0.1812 -0.7834  0.9332
 5345TIP3    H237527   1.500   5.364   7.203  2.5638  2.2836  1.0166
 5346TIP3   OH237528   0.785   6.211   2.471  0.1158  0.0555 -0.2506
 5346TIP3    H137529   0.871   6.250   2.453 -0.1765  0.7154 -0.2720
 5346TIP3    H237530   0.757   6.174   2.387 -0.0685  0.7665 -0.5181
 5347TIP3   OH237531   0.532   3.649   3.934 -0.6468  0.0134  0.0946
 5347TIP3    H137532   0.494   3.568   3.968 -2.3174 -0.1208 -1.8812
 5347TIP3    H237533   0.480   3.669   3.856 -0.4470  3.1335  0.6360
 5348TIP3   OH237534   1.538   2.583   2.763 -0.0758 -0.8247 -0.0946
 5348TIP3    H137535   1.556   2.587   2.669 -0.1014  1.0101 -0.0637
 5348TIP3    H237536   1.599   2.646   2.802  0.2372 -1.8740  1.1930
 5349TIP3   OH237537   4.628   2.632  11.295 -0.0475 -0.0635 -0.7917
 5349TIP3    H137538   4.593   2.720  11.305 -3.4812 -1.0722 -2.3009
 5349TIP3    H237539   4.574   2.578  11.353  1.5316 -1.2887 -0.3986
 5350TIP3   OH237540   6.183   4.616  12.806  0.1055  0.6347  0.2760
 5350TIP3    H137541   6.106   4.653  12.761  0.0751 -0.6366 -0.7853
 5350TIP3    H237542   6.231   4.571  12.737  0.8503 -0.1244  1.2692
 5351TIP3   OH237543   6.754   3.798   4.457  0.0022 -0.4441  0.0543
 5351TIP3    H137544   6.812   3.797   4.380 -0.8612  0.7321 -0.6652
 5351TIP3    H237545   6.757   3.889   4.487 -0.3451 -0.7024  0.8894
 5352TIP3   OH237546   3.602   0.643  14.320  0.5742 -0.4418  0.5411
 5352TIP3    H137547   3.582   0.581  14.249 -1.9322  2.8755 -1.9517
 5352TIP3    H237548   3.540   0.621  14.389  1.0195 -1.8306  0.5382
 5353TIP3   OH237549   5.247   1.074  10.783 -0.3197  0.0933 -0.0611
 5353TIP3    H137550   5.233   1.013  10.710  1.8709 -0.6894  0.0922
 5353TIP3    H237551   5.267   1.157  10.740 -0.6130  0.0256 -0.3309
 5354TIP3   OH237552   0.420   6.667   2.979 -0.0577 -0.3667  0.0267
 5354TIP3    H137553   0.473   6.598   3.020 -0.3925 -0.5491  0.1520
 5354TIP3    H237554   0.485   6.731   2.948  0.2354 -0.5629  0.2256
 5355TIP3   OH237555   2.179   6.526   1.331 -0.0597 -0.5863  0.1648
 5355TIP3    H137556   2.223   6.538   1.416 -0.5508 -1.8894  0.6214
 5355TIP3    H237557   2.200   6.436   1.306  1.0904  0.1431 -1.7159
 5356TIP3   OH237558   6.419   5.243  11.900  0.5354  0.0146 -0.2210
 5356TIP3    H137559   6.357   5.188  11.853  2.7897 -0.4463 -2.9401
 5356TIP3    H237560   6.453   5.303  11.833  2.8434  0.3715  1.1541
 5357TIP3   OH237561   6.051   5.093   4.389  0.5328  0.0826 -0.0123
 5357TIP3    H137562   6.039   5.178   4.346  1.5340 -0.3739 -1.2788
 5357TIP3    H237563   6.056   5.030   4.316  2.0377 -0.7568  0.7708
 5358TIP3   OH237564   4.269   5.682   3.775 -0.4079  0.0587  0.1869
 5358TIP3    H137565   4.342   5.740   3.752  1.3304 -2.3198 -0.6988
 5358TIP3    H237566   4.282   5.664   3.868  0.6945 -1.0229 -0.1535
 5359TIP3   OH237567   6.391   3.531  15.634  0.7047  0.1709 -0.2084
 5359TIP3    H137568   6.373   3.603  15.694  0.2754 -1.3140  1.5378
 5359TIP3    H237569   6.311   3.522  15.582 -0.7784 -1.3461  2.1317
 5360TIP3   OH237570   0.108   5.752  15.856  0.0617  0.1608  0.2539
 5360TIP3    H137571   0.058   5.799  15.923  1.6559  1.1982  0.7709
 5360TIP3    H237572   0.042   5.719  15.795 -1.1561  3.6246 -0.5278
 5361TIP3   OH237573   0.505   6.128   4.241 -0.7245  0.9496 -0.0769
 5361TIP3    H137574   0.428   6.186   4.240 -0.1283  1.7720  0.6061
 5361TIP3    H237575   0.580   6.187   4.248 -0.0054  0.1666 -0.9385
 5362TIP3   OH237576   0.890   4.770  13.412  0.3743  0.4830 -0.0637
 5362TIP3    H137577   0.889   4.865  13.403 -2.8080  0.3960 -2.4694
 5362TIP3    H237578   0.888   4.738  13.321 -1.8896 -1.7362  0.6580
 5363TIP3   OH237579   2.191   6.548   3.173 -0.0699 -0.3080 -0.6802
 5363TIP3    H137580   2.169   6.515   3.086 -2.3193 -1.4875  0.2574
 5363TIP3    H237581   2.241   6.478   3.214 -0.7306 -0.5988 -0.3533
 5364TIP3   OH237582   4.639   3.411  11.438 -0.4736 -0.5476  0.3486
 5364TIP3    H137583   4.648   3.480  11.503  0.8036 -1.2215  0.9269
 5364TIP3    H237584   4.670   3.450  11.356  0.2025 -0.4237  0.6633
 5365TIP3   OH237585   5.992   5.899  14.709  0.2183 -1.2225 -0.1320
 5365TIP3    H137586   5.951   5.885  14.624 -1.4032  1.7088  0.0330
 5365TIP3    H237587   5.922   5.884  14.772  0.8335 -1.2656  0.5570
 5366TIP3   OH237588   0.369   3.816  12.614  0.5118 -0.2905  0.0592
 5366TIP3    H137589   0.403   3.874  12.545  1.3354  1.2434  1.6889
 5366TIP3    H237590   0.282   3.790  12.582  1.3542 -0.6796 -2.1257
 5367TIP3   OH237591   2.062   4.956   2.900  0.1820 -0.1770 -0.8041
 5367TIP3    H137592   2.055   4.870   2.941  0.2045  0.1931 -0.0115
 5367TIP3    H237593   2.147   4.953   2.854 -1.0351 -1.5531 -3.1594
 5368TIP3   OH237594   5.467   2.142  11.751  0.6061  0.3202 -0.6045
 5368TIP3    H137595   5.463   2.086  11.828  0.9480  0.9751 -0.0986
 5368TIP3    H237596   5.379   2.179  11.744  0.1340 -0.8777 -1.4216
 5369TIP3   OH237597   1.821   2.345   4.971 -0.1509 -0.0038 -0.3145
 5369TIP3    H137598   1.841   2.393   4.891  2.2803  0.6561  0.6246
 5369TIP3    H237599   1.794   2.412   5.033 -2.3726 -0.5493 -0.5959
 5370TIP3   OH237600   3.440   0.597   5.068  0.2493  0.4862  0.2935
 5370TIP3    H137601   3.351   0.584   5.100  0.2758 -1.4171 -0.2845
 5370TIP3    H237602   3.430   0.644   4.985 -0.1791  0.6800  0.4535
 5371TIP3   OH237603   6.184   5.755   5.095 -0.0094 -0.2315 -0.3587
 5371TIP3    H137604   6.137   5.833   5.125  0.7900  0.6148 -1.2278
 5371TIP3    H237605   6.120   5.709   5.040 -0.3772 -0.0124 -0.1214
 5372TIP3   OH237606   2.098   0.289  15.453  0.0599  1.0159 -0.0363
 5372TIP3    H137607   2.099   0.196  15.429 -0.5253  1.2182 -0.8979
 5372TIP3    H237608   2.170   0.328  15.403  0.5565  0.9613  0.6281
 5373TIP3   OH237609   4.262   2.596   4.903 -0.2694  0.0916 -0.5523
 5373TIP3    H137610   4.206   2.654   4.853  1.8376  1.8381 -1.0076
 5373TIP3    H237611   4.274   2.641   4.987  1.0045  0.0954 -0.7309
 5374TIP3   OH237612   5.831   4.177  14.141 -0.4294  0.4815  0.3301
 5374TIP3    H137613   5.773   4.115  14.095  0.2955  0.8678 -1.1796
 5374TIP3    H237614   5.869   4.230  14.071  2.2692 -0.1841  1.1932
 5375TIP3   OH237615   5.149   2.200  17.503 -0.0937  0.7611  0.1913
 5375TIP3    H137616   5.107   2.129  17.456  2.5229 -0.3833 -0.6338
 5375TIP3    H237617   5.095   2.277  17.485 -1.5852 -0.5120 -1.0055
 5376TIP3   OH237618   6.758   1.711   2.206  0.6442  0.0852 -0.5258
 5376TIP3    H137619   6.761   1.705   2.110  3.3152 -0.7018 -0.4755
 5376TIP3    H237620   6.735   1.802   2.223 -2.4373 -0.3070 -1.8064
 5377TIP3   OH237621   2.960   4.322   5.115  0.0453  0.1635 -0.4586
 5377TIP3    H137622   2.917   4.244   5.151 -0.3007  0.8637  0.6938
 5377TIP3    H237623   2.982   4.298   5.026  0.0593 -1.3072 -0.0843
 5378TIP3   OH237624   1.638   4.437   7.245  0.0581 -0.3548 -0.1397
 5378TIP3    H137625   1.650   4.513   7.188 -0.1530 -2.2000 -2.8339
 5378TIP3    H237626   1.726   4.418   7.279  0.3195  0.3928 -0.3885
 5379TIP3   OH237627   5.254   2.960   3.026 -0.1497  0.2105 -0.1375
 5379TIP3    H137628   5.168   2.991   3.055  0.4268  1.1988  0.5999
 5379TIP3    H237629   5.285   3.029   2.968  0.2664  0.0040 -0.1598
 5380TIP3   OH237630   5.119   3.788  14.323 -0.2803 -0.0723  0.2926
 5380TIP3    H137631   5.194   3.743  14.285 -0.2979 -0.0144  0.1906
 5380TIP3    H237632   5.043   3.749  14.281 -0.3412 -0.5768  0.8560
 5381TIP3   OH237633   5.471   3.225   4.614 -0.6246 -0.1299 -0.6617
 5381TIP3    H137634   5.402   3.217   4.680 -1.3887  0.0266 -1.4197
 5381TIP3    H237635   5.485   3.136   4.583  0.9553 -0.4665  0.8927
 5382TIP3   OH237636   3.604   4.636  12.438  0.0191 -0.0077 -0.1222
 5382TIP3    H137637   3.572   4.555  12.479  0.4854 -1.3469 -2.2867
 5382TIP3    H237638   3.544   4.652  12.365  1.7428 -0.1990 -1.6526
 5383TIP3   OH237639   1.988   2.446  13.877 -0.0205 -0.5469 -0.1123
 5383TIP3    H137640   2.032   2.464  13.794 -2.6109  2.5198 -1.0092
 5383TIP3    H237641   2.055   2.463  13.943  1.3877 -0.5282 -1.4740
 5384TIP3   OH237642   4.711   6.152   2.579 -0.0977 -0.2642  0.3748
 5384TIP3    H137643   4.770   6.087   2.543 -1.4113 -1.4022  0.1954
 5384TIP3    H237644   4.726   6.150   2.673  0.0468 -0.6606  0.3432
 5385TIP3   OH237645   4.036   5.106   0.478  0.0092  0.2586 -0.0584
 5385TIP3    H137646   4.005   5.102   0.387 -0.0549  2.4661 -0.1915
 5385TIP3    H237647   4.100   5.177   0.478  2.7203 -1.9927  0.9311
 5386TIP3   OH237648   4.641   4.496  15.363  0.5891 -0.1973  0.0789
 5386TIP3    H137649   4.631   4.559  15.292 -1.0314  1.2770  1.5411
 5386TIP3    H237650   4.736   4.489  15.374  1.0426  4.8864  2.1796
 5387TIP3   OH237651   1.235   0.295   3.526  0.2288 -0.0153  0.3850
 5387TIP3    H137652   1.188   0.330   3.450 -1.0322 -0.3768  0.9762
 5387TIP3    H237653   1.279   0.372   3.564 -0.8832  0.5717  0.5181
 5388TIP3   OH237654   1.918   2.772   6.005 -0.5695 -0.1698  0.4855
 5388TIP3    H137655   1.954   2.735   6.086 -1.5431  0.3594  1.1781
 5388TIP3    H237656   1.921   2.866   6.018 -3.8063 -0.0813  1.3509
 5389TIP3   OH237657   6.581   0.599  12.913  0.3106  0.2831  0.1906
 5389TIP3    H137658   6.663   0.642  12.889 -0.0095  0.5390 -0.4680
 5389TIP3    H237659   6.513   0.662  12.889 -0.0659  0.2745  1.1771
 5390TIP3   OH237660   4.200   3.987  13.842  0.9424  0.3596 -0.1363
 5390TIP3    H137661   4.170   4.056  13.902  0.2042  0.5718 -0.7391
 5390TIP3    H237662   4.150   3.910  13.868  1.2527  0.2215  0.0698
 5391TIP3   OH237663   4.702   2.712   5.117 -0.2900  0.3098  0.5480
 5391TIP3    H137664   4.729   2.676   5.032 -1.9073 -0.9797  0.5369
 5391TIP3    H237665   4.780   2.704   5.172  0.4650  0.1722 -0.5100
 5392TIP3   OH237666   5.869   6.630   1.600  0.2941  0.1706  0.5459
 5392TIP3    H137667   5.851   6.553   1.654 -0.5566  0.4818  0.7275
 5392TIP3    H237668   5.796   6.634   1.538  0.0572  1.1032  0.8574
 5393TIP3   OH237669   3.945   6.233   5.604  0.0992 -0.4167  0.1499
 5393TIP3    H137670   4.018   6.207   5.547 -1.1658 -1.6761 -0.9746
 5393TIP3    H237671   3.975   6.213   5.692  1.1872 -0.7230 -0.2691
 5394TIP3   OH237672   5.274   4.527   1.245 -0.0880 -0.1462 -0.1634
 5394TIP3    H137673   5.305   4.441   1.275 -0.3951 -0.3219 -0.3454
 5394TIP3    H237674   5.324   4.544   1.166  2.7514  1.5532  1.8212
 5395TIP3   OH237675   2.795   0.980   2.999  0.0857  0.4044 -0.4060
 5395TIP3    H137676   2.711   1.026   2.998  0.1704  0.5990  0.4025
 5395TIP3    H237677   2.859   1.049   3.017  0.3462  0.1499 -0.3628
 5396TIP3   OH237678   5.060   1.382   5.319 -0.8993 -0.3115 -0.2528
 5396TIP3    H137679   5.079   1.392   5.412 -0.7437  0.3378 -0.3456
 5396TIP3    H237680   5.065   1.288   5.303 -0.9821 -0.4333  0.4043
 5397TIP3   OH237681   6.448   5.263  13.827 -0.0038  0.0493 -0.3411
 5397TIP3    H137682   6.534   5.304  13.818 -0.3169  0.3778 -2.0809
 5397TIP3    H237683   6.389   5.336  13.843  0.1670 -0.2892  2.3042
 5398TIP3   OH237684   0.436   3.545   0.556  0.1528 -0.1370  0.3029
 5398TIP3    H137685   0.401   3.487   0.622 -0.3091  1.0999  1.1751
 5398TIP3    H237686   0.361   3.568   0.501  0.1632  0.2636  0.4518
 5399TIP3   OH237687   6.306   5.161  11.212  0.8101 -0.0254  0.8541
 5399TIP3    H137688   6.323   5.106  11.136  2.0332  1.1478  0.2517
 5399TIP3    H237689   6.381   5.220  11.217 -0.0846  1.0728  1.9439
 5400TIP3   OH237690   6.643   4.022  13.311  0.1983  0.4545  0.2470
 5400TIP3    H137691   6.576   4.063  13.255  1.0126  0.2154 -0.9427
 5400TIP3    H237692   6.693   4.095  13.345  2.0213  0.5396 -2.3424
 5401TIP3   OH237693   2.436   0.175  11.892  0.4850 -0.6239  0.5390
 5401TIP3    H137694   2.488   0.212  11.821 -0.1489  0.1991  0.4794
 5401TIP3    H237695   2.345   0.187  11.864  0.2357 -0.5934  1.3341
 5402TIP3   OH237696   0.071   1.461   4.803  0.2881 -0.2356  0.0451
 5402TIP3    H137697   0.045   1.467   4.711  2.2913  0.8341 -0.5104
 5402TIP3    H237698  -0.001   1.415   4.846 -1.2986  0.4124 -1.8024
 5403TIP3   OH237699   4.568   0.742  16.930 -0.4968  0.3697 -0.3289
 5403TIP3    H137700   4.507   0.718  16.860 -0.2891 -0.9596 -0.0746
 5403TIP3    H237701   4.550   0.679  17.000 -1.0032  1.9316  1.0155
 5404TIP3   OH237702   3.472   0.906   1.027  0.1045 -0.6368  0.2268
 5404TIP3    H137703   3.408   0.974   1.009 -0.3668 -1.9023 -3.9480
 5404TIP3    H237704   3.557   0.948   1.016 -0.0853 -0.0500  0.9282
 5405TIP3   OH237705   0.450   5.020  11.344 -0.3198  0.2357 -0.0017
 5405TIP3    H137706   0.369   4.980  11.313 -0.0350 -1.7027  1.5832
 5405TIP3    H237707   0.421   5.104  11.382 -1.7211 -0.6852  1.1009
 5406TIP3   OH237708   3.085   3.524   0.474  0.1558  0.5669 -0.1945
 5406TIP3    H137709   3.066   3.613   0.446 -2.0647  0.6765  1.3992
 5406TIP3    H237710   3.009   3.473   0.446  1.0567 -0.6865 -0.4408
 5407TIP3   OH237711   3.044   3.134   4.037 -0.0693 -0.1373  0.1991
 5407TIP3    H137712   2.995   3.213   4.061  0.3824 -0.0877  1.0267
 5407TIP3    H237713   2.982   3.080   3.990 -1.1702 -0.4328  1.9264
 5408TIP3   OH237714   1.452   5.189  13.360 -0.4129  0.0498  0.3515
 5408TIP3    H137715   1.439   5.152  13.273 -2.0323 -0.2316  0.6902
 5408TIP3    H237716   1.431   5.281  13.351 -0.7048 -0.0052  0.4745
 5409TIP3   OH237717   2.629   5.228  15.370  0.0773  0.1320 -0.2680
 5409TIP3    H137718   2.633   5.263  15.459 -0.9958 -0.4217  0.0134
 5409TIP3    H237719   2.683   5.148  15.373 -0.0539  0.0495 -0.0799
 5410TIP3   OH237720   3.262   5.157  13.838 -0.3890  0.2602 -0.0366
 5410TIP3    H137721   3.357   5.149  13.844 -0.4997 -0.5691  1.1558
 5410TIP3    H237722   3.236   5.093  13.772 -0.0629  1.0562 -0.9492
 5411TIP3   OH237723   1.184   3.818  17.245 -0.8404  0.2146 -0.0432
 5411TIP3    H137724   1.176   3.828  17.340 -1.0062 -0.5382  0.0261
 5411TIP3    H237725   1.236   3.739  17.233 -0.3001  0.6451 -0.5794
 5412TIP3   OH237726   3.835   5.128   0.650 -0.3211  0.2288  0.1159
 5412TIP3    H137727   3.792   5.044   0.639  0.9723 -0.7316  1.9254
 5412TIP3    H237728   3.915   5.121   0.598 -0.6768  0.7531 -0.5305
 5413TIP3   OH237729   1.119   5.485  12.785 -0.0915  0.1756 -0.1098
 5413TIP3    H137730   1.161   5.400  12.800  0.5856  0.3651 -0.8356
 5413TIP3    H237731   1.027   5.470  12.808  0.1370 -0.5765  0.3778
 5414TIP3   OH237732   6.735   6.623   2.947 -0.6780 -0.3199 -0.0318
 5414TIP3    H137733   6.739   6.693   3.012  0.4268 -2.5342  2.4584
 5414TIP3    H237734   6.822   6.620   2.908 -0.2966 -1.0803  0.8264
 5415TIP3   OH237735   0.257   2.731  17.395  0.4056 -0.2892  0.1551
 5415TIP3    H137736   0.187   2.698  17.339  1.4900 -3.6356  0.5350
 5415TIP3    H237737   0.211   2.772  17.469 -1.2253 -2.4227  0.4196
 5416TIP3   OH237738   5.880   0.494   5.610  0.1358 -0.5262  0.2503
 5416TIP3    H137739   5.918   0.491   5.698 -0.3632  2.5022  0.7107
 5416TIP3    H237740   5.785   0.488   5.625  0.0112  0.5992  0.0389
 5417TIP3   OH237741   3.622   5.477   0.071 -0.2429 -0.0867 -0.2933
 5417TIP3    H137742   3.602   5.431   0.153 -0.0036  0.7260  0.2347
 5417TIP3    H237743   3.645   5.566   0.098  0.6448 -0.0228 -1.1716
 5418TIP3   OH237744   6.612   5.674  13.046 -0.0762 -0.0749 -0.0006
 5418TIP3    H137745   6.585   5.644  12.959 -0.2683 -1.1587  0.4155
 5418TIP3    H237746   6.700   5.709  13.034 -0.4230  0.5717 -0.7816
 5419TIP3   OH237747   4.607   0.888   2.649 -0.4097  0.2468 -0.0491
 5419TIP3    H137748   4.668   0.961   2.643 -0.0324 -0.1127 -0.9018
 5419TIP3    H237749   4.583   0.870   2.558 -0.3668 -0.7799  0.1271
 5420TIP3   OH237750   1.321   6.443  16.374  0.0716 -0.5199  0.4393
 5420TIP3    H137751   1.413   6.458  16.397  0.0207 -0.6870  0.7663
 5420TIP3    H237752   1.285   6.530  16.357  0.3099 -0.4614  0.2352
 5421TIP3   OH237753   2.329   3.127  13.603  0.2164 -0.4481 -0.3609
 5421TIP3    H137754   2.421   3.154  13.592  0.4219 -1.4642 -1.2574
 5421TIP3    H237755   2.310   3.074  13.526 -0.5749 -1.7382  0.6785
 5422TIP3   OH237756   2.034   4.580  12.882  0.0769 -0.1930 -0.2217
 5422TIP3    H137757   2.054   4.521  12.955 -2.5044  0.7304  1.4129
 5422TIP3    H237758   1.970   4.642  12.919 -2.2616 -0.3397 -3.5741
 5423TIP3   OH237759   2.041   5.562   1.717 -0.0680  0.0076  0.1824
 5423TIP3    H137760   2.018   5.545   1.626  1.6502 -0.3776 -0.2192
 5423TIP3    H237761   2.122   5.513   1.731  1.3136  2.3650  1.0488
 5424TIP3   OH237762   2.381   3.683  13.309 -0.5549 -0.6144  0.1595
 5424TIP3    H137763   2.303   3.646  13.349 -1.2135  1.3320  0.7644
 5424TIP3    H237764   2.348   3.756  13.256  0.5108 -1.8245 -2.3150
 5425TIP3   OH237765   1.493   2.482  15.364  0.7012 -0.9710  0.2196
 5425TIP3    H137766   1.416   2.525  15.326  1.1265 -0.6907 -0.3347
 5425TIP3    H237767   1.470   2.389  15.364  1.0730 -1.1104 -1.6864
 5426TIP3   OH237768   5.619   0.453   1.278 -0.1531 -0.1573  0.1709
 5426TIP3    H137769   5.526   0.440   1.293 -0.0033 -0.6909  0.6289
 5426TIP3    H237770   5.624   0.534   1.227 -1.0874 -1.7544 -2.6693
 5427TIP3   OH237771   6.515   4.887  13.726 -0.2125  0.1219 -0.5560
 5427TIP3    H137772   6.540   4.909  13.815 -1.5983  1.7658 -0.5209
 5427TIP3    H237773   6.524   4.792  13.721  1.0900  0.1366  0.9265
 5428TIP3   OH237774   1.819   6.320  11.744  0.2101  0.6266 -0.2888
 5428TIP3    H137775   1.837   6.390  11.682 -3.7982  1.1420 -1.1641
 5428TIP3    H237776   1.812   6.241  11.690 -0.6406  0.5884 -0.1419
 5429TIP3   OH237777   5.537   2.806   1.919 -0.4815  0.1259 -0.2883
 5429TIP3    H137778   5.492   2.803   2.003  1.5958  0.4206  0.8920
 5429TIP3    H237779   5.600   2.733   1.922 -0.3892  0.1118 -1.6144
 5430TIP3   OH237780   3.571   3.728   4.330  0.0609 -0.4335  0.1959
 5430TIP3    H137781   3.561   3.815   4.369 -0.8269  0.0542 -1.0515
 5430TIP3    H237782   3.509   3.728   4.256  2.2377 -1.0025 -1.7321
 5431TIP3   OH237783   4.665   5.136   0.237  0.1861  0.7138  0.5492
 5431TIP3    H137784   4.607   5.127   0.162  1.8047 -2.6047 -0.5114
 5431TIP3    H237785   4.614   5.104   0.311  0.6548 -2.9113 -0.5014
 5432TIP3   OH237786   5.426   0.387  15.664 -0.3778 -0.0959  0.1334
 5432TIP3    H137787   5.414   0.294  15.641  0.4575  0.0526 -0.9641
 5432TIP3    H237788   5.452   0.385  15.756 -1.2566 -0.8817  0.3879
 5433TIP3   OH237789   3.174   0.900   6.447  0.1331 -0.1784 -0.7814
 5433TIP3    H137790   3.092   0.865   6.414 -0.5199  1.4049 -0.9156
 5433TIP3    H237791   3.191   0.851   6.527 -1.1001 -0.3189 -0.5890
 5434TIP3   OH237792   5.994   2.764  15.690  0.7046  0.4220 -0.0658
 5434TIP3    H137793   5.902   2.738  15.688  1.0960 -1.3811  1.7413
 5434TIP3    H237794   6.011   2.783  15.782  1.9241  1.6885 -0.5189
 5435TIP3   OH237795   3.886   1.506  16.429 -0.3448  0.1406 -0.2646
 5435TIP3    H137796   3.969   1.549  16.448 -1.3013  2.1999 -0.5570
 5435TIP3    H237797   3.880   1.437  16.495  1.6093 -0.1195 -0.2897
 5436TIP3   OH237798   1.009   1.047   0.425 -0.3721  0.2797  0.5028
 5436TIP3    H137799   1.031   1.008   0.510 -2.1895 -1.6462  0.1650
 5436TIP3    H237800   0.914   1.055   0.426 -0.2276  3.3361 -0.1335
 5437TIP3   OH237801   5.729   3.681  15.851 -0.1173  0.1520  0.4040
 5437TIP3    H137802   5.677   3.655  15.775  0.2112 -0.1048  0.2636
 5437TIP3    H237803   5.774   3.760  15.824 -1.3993  1.1109  0.9551
 5438TIP3   OH237804   5.647   6.535  13.146  0.0448  0.1838  0.3854
 5438TIP3    H137805   5.680   6.543  13.057 -0.6825  0.8927  0.1631
 5438TIP3    H237806   5.713   6.483  13.192 -0.0611 -1.0498 -0.8064
 5439TIP3   OH237807   6.726   1.910   5.289 -0.0356  0.6260  0.3062
 5439TIP3    H137808   6.714   1.961   5.369 -1.5990  2.1022 -0.7988
 5439TIP3    H237809   6.637   1.894   5.257  0.4920 -1.3433 -0.3151
 5440TIP3   OH237810   1.685   6.370   3.416 -0.3350  0.1562 -0.1560
 5440TIP3    H137811   1.606   6.359   3.363 -0.4123 -0.5060  0.0946
 5440TIP3    H237812   1.680   6.460   3.448 -0.9684  0.1298 -0.1676
 5441TIP3   OH237813   5.618   3.574  14.035  0.0534  0.1592 -0.2328
 5441TIP3    H137814   5.598   3.486  14.065  0.6305 -0.2386 -0.9833
 5441TIP3    H237815   5.705   3.567  13.996 -0.2293  0.8761 -1.0269
 5442TIP3   OH237816   1.717   6.266  16.038 -0.0074 -0.1096  0.5989
 5442TIP3    H137817   1.627   6.254  16.070 -0.2121  0.5919  0.3179
 5442TIP3    H237818   1.721   6.217  15.956 -0.5031  0.8170  0.0045
 5443TIP3   OH237819   4.469   0.100   4.114  0.4130  0.4782  0.2567
 5443TIP3    H137820   4.471   0.026   4.174 -0.5665  1.6751  1.8181
 5443TIP3    H237821   4.562   0.117   4.094  0.6218 -1.7888 -1.0039
 5444TIP3   OH237822   6.559   3.914   0.059  0.1032  0.1482 -0.0190
 5444TIP3    H137823   6.588   3.825   0.038 -1.7736 -0.5356  0.1119
 5444TIP3    H237824   6.530   3.950  -0.025 -0.7287 -0.0043  0.1895
 5445TIP3   OH237825   0.730   2.084   2.232 -0.3605 -0.7327  0.3416
 5445TIP3    H137826   0.703   1.994   2.248 -0.6053 -1.0347 -1.5035
 5445TIP3    H237827   0.751   2.119   2.318  0.3171 -2.7262  1.0284
 5446TIP3   OH237828   6.011   3.375  14.825 -0.2122 -0.1656  0.1526
 5446TIP3    H137829   6.068   3.365  14.901  0.8395  0.2172 -0.5722
 5446TIP3    H237830   5.922   3.366  14.861  0.2293  0.7233  1.5342
 5447TIP3   OH237831   0.602   6.691  14.305 -0.4734  0.3885 -0.3156
 5447TIP3    H137832   0.663   6.729  14.368 -0.2216  0.0721 -0.3638
 5447TIP3    H237833   0.545   6.634  14.358 -3.3820  3.6429  0.4336
 5448TIP3   OH237834   4.277   2.817  12.770  0.1268 -0.4025  0.3570
 5448TIP3    H137835   4.204   2.845  12.825  0.1304 -0.3958  0.3585
 5448TIP3    H237836   4.353   2.822  12.828  0.0036 -1.2522  0.6120
 5449TIP3   OH237837   1.493   5.631   5.140 -0.3535 -0.6879 -0.1493
 5449TIP3    H137838   1.426   5.619   5.072  0.2903 -0.0145 -0.9097
 5449TIP3    H237839   1.465   5.710   5.187 -1.5718 -1.9218  1.3171
 5450TIP3   OH237840   6.727   6.355   5.549 -0.4280  0.2176 -0.7810
 5450TIP3    H137841   6.795   6.411   5.587 -0.3806 -0.0246 -0.5059
 5450TIP3    H237842   6.668   6.336   5.622  0.2656 -1.1586 -0.5565
 5451TIP3   OH237843   3.112   1.114   4.863  0.0283  0.4754 -0.2505
 5451TIP3    H137844   3.154   1.076   4.940  0.7182 -1.5363 -1.5594
 5451TIP3    H237845   3.166   1.086   4.789 -1.5907  0.8876 -1.6567
 5452TIP3   OH237846   6.161   1.803   0.494  0.4189  1.0140 -0.5084
 5452TIP3    H137847   6.114   1.795   0.577  2.8166 -0.3058  0.8186
 5452TIP3    H237848   6.175   1.713   0.465  1.7277  1.3881 -1.0905
 5453TIP3   OH237849   0.566   6.738   0.496  0.1113  0.5421 -0.2295
 5453TIP3    H137850   0.541   6.830   0.505 -1.2780  0.1019  0.7871
 5453TIP3    H237851   0.483   6.691   0.497  0.8538 -0.7950  0.1312
 5454TIP3   OH237852   1.214   1.591  15.223  0.1787 -0.1084 -0.6141
 5454TIP3    H137853   1.290   1.533  15.219 -1.1129 -1.7908 -1.8973
 5454TIP3    H237854   1.212   1.622  15.314  1.0745 -1.8749  0.0459
 5455TIP3   OH237855   0.453   4.479  13.056  0.2837  0.7567  0.6965
 5455TIP3    H137856   0.360   4.486  13.034  0.8029  0.7599 -1.6619
 5455TIP3    H237857   0.486   4.410  13.000  1.0089 -2.0393  4.2073
 5456TIP3   OH237858   1.872   5.528   0.355 -0.2648 -0.2872  0.5171
 5456TIP3    H137859   1.792   5.533   0.409 -0.9746 -1.3426 -0.4038
 5456TIP3    H237860   1.840   5.537   0.265  0.7833  0.3081  0.1928
 5457TIP3   OH237861   3.809   1.937  16.762  0.0098 -0.4538  0.0933
 5457TIP3    H137862   3.726   1.984  16.777  0.7749  0.9026  0.2406
 5457TIP3    H237863   3.846   1.979  16.684  0.0937 -1.7583 -0.6021
 5458TIP3   OH237864   4.010   0.833   5.502  0.0911  0.2696 -0.1948
 5458TIP3    H137865   4.072   0.868   5.566  0.3735 -1.4338  0.5191
 5458TIP3    H237866   4.064   0.782   5.441 -0.4872 -0.3966 -0.1625
 5459TIP3   OH237867   5.722   2.413  15.145 -0.2122  0.0029 -0.1474
 5459TIP3    H137868   5.647   2.376  15.191 -1.1376  0.2815 -1.3959
 5459TIP3    H237869   5.707   2.391  15.053  1.7291 -0.7629 -0.3230
 5460TIP3   OH237870   0.662   1.207  14.939  0.0590  0.6428  0.3333
 5460TIP3    H137871   0.618   1.205  14.854 -0.1697 -3.1420  0.3533
 5460TIP3    H237872   0.591   1.224  15.002 -1.0209 -2.3276  0.1037
 5461TIP3   OH237873   5.805   0.789  13.300 -0.5915 -0.0676  0.2995
 5461TIP3    H137874   5.718   0.830  13.303 -0.9392 -0.8373  1.1758
 5461TIP3    H237875   5.838   0.796  13.389 -1.2783 -2.8974  0.8698
 5462TIP3   OH237876   2.107   1.811   1.571 -0.3334  0.0529 -0.3225
 5462TIP3    H137877   2.141   1.853   1.651  0.1698  0.0208 -0.5149
 5462TIP3    H237878   2.112   1.880   1.505  1.2797 -0.5172 -0.8467
 5463TIP3   OH237879   2.852   1.589  15.696 -0.7004 -0.6828  0.3042
 5463TIP3    H137880   2.918   1.606  15.763 -1.6053  1.6645  0.6973
 5463TIP3    H237881   2.769   1.612  15.738 -1.2792  1.0846 -1.6210
 5464TIP3   OH237882   4.146   2.786   1.528  0.3331  0.1196 -0.0080
 5464TIP3    H137883   4.185   2.846   1.591  1.4113 -1.7358  1.1937
 5464TIP3    H237884   4.216   2.770   1.464 -0.4854  1.3493 -1.2724
 5465TIP3   OH237885   1.385   6.663   2.376 -0.1027 -0.3644 -0.3569
 5465TIP3    H137886   1.335   6.627   2.303 -0.4916 -0.0431 -0.2483
 5465TIP3    H237887   1.324   6.662   2.450  0.0950 -0.1066 -0.1879
 5466TIP3   OH237888   6.523   1.742   4.375  0.1608 -0.3936 -0.5178
 5466TIP3    H137889   6.615   1.757   4.397 -0.4240  1.0824  1.1805
 5466TIP3    H237890   6.483   1.828   4.380 -1.6247 -1.2326  0.3910
 5467TIP3   OH237891   4.441   6.094  15.906  0.0907  0.4967 -0.3462
 5467TIP3    H137892   4.347   6.077  15.911  0.4447 -1.2389  1.5312
 5467TIP3    H237893   4.451   6.182  15.943 -0.6298 -0.1266  1.4399
 5468TIP3   OH237894   2.838   2.940  17.083 -0.8133  0.4676 -1.1310
 5468TIP3    H137895   2.915   2.910  17.035 -0.7776 -0.5463 -0.4626
 5468TIP3    H237896   2.860   3.030  17.110  0.8365 -0.3530  0.4603
 5469TIP3   OH237897   4.701   2.757   6.171  0.0632 -0.0390  0.2136
 5469TIP3    H137898   4.646   2.802   6.234 -0.3801 -0.0009 -0.1959
 5469TIP3    H237899   4.658   2.673   6.156  0.0270  0.0568 -0.2284
 5470TIP3   OH237900   5.655   0.699   6.333 -0.0996  0.0418  0.0716
 5470TIP3    H137901   5.610   0.768   6.382 -0.9674 -1.0268  0.8297
 5470TIP3    H237902   5.746   0.728   6.330 -0.2086  0.6260  1.4829
 5471TIP3   OH237903   1.545   1.346  12.092  0.2517  0.4970  0.1533
 5471TIP3    H137904   1.532   1.428  12.045 -0.7487 -0.0514 -0.5721
 5471TIP3    H237905   1.542   1.370  12.185 -1.1052  1.1501 -0.0319
 5472TIP3   OH237906   4.147   5.621   4.634 -0.1944  0.1521  0.1200
 5472TIP3    H137907   4.103   5.538   4.652 -0.9525  0.5293  0.0036
 5472TIP3    H237908   4.222   5.621   4.693 -0.9944  0.0392  1.1617
 5473TIP3   OH237909   5.248   2.380   2.494 -0.3532  0.1689 -0.2893
 5473TIP3    H137910   5.204   2.335   2.566 -0.2838 -0.4101 -0.6044
 5473TIP3    H237911   5.283   2.310   2.439  1.8002  0.5945  0.4421
 5474TIP3   OH237912   4.945   2.528  14.219  0.1636 -0.3149  0.1216
 5474TIP3    H137913   4.958   2.623  14.218 -2.1349  0.0843 -1.8833
 5474TIP3    H237914   5.026   2.492  14.182  0.3636  1.0056 -0.7700
 5475TIP3   OH237915   6.414   0.990   3.211 -0.3534  0.4000  0.2040
 5475TIP3    H137916   6.377   0.933   3.144  0.6577 -0.5674  0.4376
 5475TIP3    H237917   6.366   1.072   3.202 -2.0231 -0.5481  0.0159
 5476TIP3   OH237918   6.029   2.017   4.464  0.4081  0.1035 -0.0823
 5476TIP3    H137919   6.110   2.015   4.516  0.7825 -0.5147 -0.6698
 5476TIP3    H237920   5.959   2.004   4.528  0.7739  0.5018  0.4152
 5477TIP3   OH237921   2.963   2.621  16.812  0.3157 -0.0738 -0.4918
 5477TIP3    H137922   2.963   2.663  16.897 -0.8856 -0.7708 -0.1196
 5477TIP3    H237923   2.879   2.643  16.774  0.4192 -0.6212 -1.0613
 5478TIP3   OH237924   5.202   6.549  13.191 -0.4341 -0.0604  0.0183
 5478TIP3    H137925   5.284   6.595  13.174 -0.0869 -0.7562 -0.2166
 5478TIP3    H237926   5.162   6.539  13.104  0.9164 -2.8251 -0.4016
 5479TIP3   OH237927   3.530   6.001  13.856 -0.3848  0.1544  0.3078
 5479TIP3    H137928   3.476   5.932  13.894 -1.1227 -1.7518 -3.6610
 5479TIP3    H237929   3.470   6.076  13.847 -0.0345  0.8802  3.0949
 5480TIP3   OH237930   5.153   5.152  15.813  0.2996 -0.7645 -0.0731
 5480TIP3    H137931   5.063   5.178  15.833  0.3251 -1.0294  0.3907
 5480TIP3    H237932   5.168   5.185  15.724 -0.3676 -1.0088 -0.2813
 5481TIP3   OH237933   1.700   5.473  15.325 -0.9488 -0.5224 -0.5652
 5481TIP3    H137934   1.750   5.427  15.258  0.1321 -0.9168  0.4723
 5481TIP3    H237935   1.761   5.481  15.399 -1.9489  0.3224  0.1978
 5482TIP3   OH237936   5.574   0.851   4.313  0.2903  0.3331 -0.8228
 5482TIP3    H137937   5.543   0.762   4.334 -0.6150  0.3450 -2.0049
 5482TIP3    H237938   5.647   0.865   4.373  0.2974 -1.1215 -0.4390
 5483TIP3   OH237939   3.498   2.894   2.637 -0.2131  0.6306  0.0880
 5483TIP3    H137940   3.448   2.836   2.695  0.0545  1.5600  1.2838
 5483TIP3    H237941   3.432   2.929   2.577 -0.1773 -1.9548 -1.6449
 5484TIP3   OH237942   1.955   5.353  17.426 -0.3505  0.0482  0.4026
 5484TIP3    H137943   1.986   5.430  17.378 -0.0073  0.0351  0.5948
 5484TIP3    H237944   1.889   5.387  17.486 -0.4587  0.1353  0.2357
 5485TIP3   OH237945   2.666   3.020   5.462  0.3871  0.5749 -0.1799
 5485TIP3    H137946   2.598   3.070   5.417  0.4109  1.0980  0.3486
 5485TIP3    H237947   2.653   2.930   5.434 -0.4055  0.7022 -0.2379
 5486TIP3   OH237948   1.171   1.225  14.783 -0.2837  0.4539 -0.1176
 5486TIP3    H137949   1.202   1.216  14.874  0.5405  1.3190 -0.2857
 5486TIP3    H237950   1.109   1.154  14.771  0.9390 -0.7732  0.5652
 5487TIP3   OH237951   6.040   5.247   5.058 -0.5617 -0.0759  0.1466
 5487TIP3    H137952   5.988   5.223   5.135  0.9440 -1.3064  0.8258
 5487TIP3    H237953   6.089   5.168   5.036  1.2165  1.0785 -0.2837
 5488TIP3   OH237954   4.919   3.142  14.433  0.1330 -0.0089  0.2074
 5488TIP3    H137955   4.923   3.046  14.440  0.9917 -0.1337 -1.4798
 5488TIP3    H237956   4.830   3.164  14.463 -0.6816 -1.5094 -0.9317
 5489TIP3   OH237957   1.821   1.447  15.856 -0.9843 -0.2407 -0.2463
 5489TIP3    H137958   1.821   1.378  15.789  1.8929 -0.7294  0.1278
 5489TIP3    H237959   1.792   1.403  15.936 -2.4902 -0.1285 -0.6952
 5490TIP3   OH237960   5.864   4.999  14.438 -0.0543  0.4826 -0.4837
 5490TIP3    H137961   5.891   4.939  14.507 -1.6933 -1.1482 -1.1667
 5490TIP3    H237962   5.916   5.078  14.452  1.4667 -0.7304  1.0559
 5491TIP3   OH237963   3.371   4.901  15.489 -0.1987 -0.7565 -0.4439
 5491TIP3    H137964   3.298   4.895  15.551 -0.9837 -2.1363 -1.4361
 5491TIP3    H237965   3.338   4.959  15.420  0.2660 -0.0841 -0.1055
 5492TIP3   OH237966   4.204   4.086   1.892 -0.2711 -0.5039  0.1335
 5492TIP3    H137967   4.179   4.178   1.892 -0.3792 -0.5295 -0.1487
 5492TIP3    H237968   4.286   4.083   1.844 -0.5827 -0.6293 -0.4060
 5493TIP3   OH237969   4.360   2.258   6.614  0.0124 -0.6223 -0.2243
 5493TIP3    H137970   4.318   2.341   6.634  3.1247  1.0736 -0.1589
 5493TIP3    H237971   4.335   2.200   6.686 -1.4002  0.5010  0.2393
 5494TIP3   OH237972   1.894   6.772   3.477  0.1131 -0.0981 -0.7021
 5494TIP3    H137973   1.868   6.709   3.410 -0.8275 -0.7425  0.2420
 5494TIP3    H237974   1.858   6.737   3.559  0.7602  0.9521  0.0611
 5495TIP3   OH237975   4.876   2.768   3.365 -0.0956  0.0306 -0.3675
 5495TIP3    H137976   4.842   2.718   3.291  1.0536  2.2923 -2.5861
 5495TIP3    H237977   4.971   2.761   3.357  0.0495  0.7331  0.6030
 5496TIP3   OH237978   1.764   0.388   4.818  0.4698 -0.2858  0.0818
 5496TIP3    H137979   1.858   0.405   4.828  0.1695  1.9723 -0.2282
 5496TIP3    H237980   1.725   0.419   4.901 -0.0409 -0.8406  0.0556
 5497TIP3   OH237981   6.083   4.371  16.010  0.3492 -0.1478  0.5487
 5497TIP3    H137982   6.047   4.299  16.061  0.3016 -0.7947 -0.3599
 5497TIP3    H237983   6.048   4.450  16.050 -2.7208 -0.7318 -0.6856
 5498TIP3   OH237984   0.528   4.120   3.167  0.3300  0.3009  0.0856
 5498TIP3    H137985   0.539   4.066   3.088 -0.5160 -1.8510  1.3434
 5498TIP3    H237986   0.584   4.078   3.232 -2.6841 -1.0641  1.9905
 5499TIP3   OH237987   4.347   2.964   4.673  0.4748 -0.1040  0.2398
 5499TIP3    H137988   4.366   2.870   4.668  1.5536  0.1011  0.3377
 5499TIP3    H237989   4.415   3.006   4.620 -0.8268  0.5427 -0.9849
 5500TIP3   OH237990   2.270   5.560   3.754  0.3571  0.1598 -0.0414
 5500TIP3    H137991   2.184   5.597   3.775  0.3057  0.5298 -0.8606
 5500TIP3    H237992   2.331   5.606   3.812 -0.0362 -0.3267  0.7604
 5501TIP3   OH237993   3.304   2.803  11.465  0.7041 -0.0276 -0.1524
 5501TIP3    H137994   3.239   2.871  11.486 -0.9281 -1.0084 -1.7017
 5501TIP3    H237995   3.387   2.850  11.461 -0.0496  1.4855  0.8954
 5502TIP3   OH237996   2.437   6.055   1.153 -0.0917 -0.0555  0.1205
 5502TIP3    H137997   2.522   6.014   1.137 -0.4501 -0.1151 -1.9210
 5502TIP3    H237998   2.411   6.024   1.239  1.7781 -0.3272  0.6250
 5503TIP3   OH237999   3.736   2.242  11.557  0.2245  0.4981 -0.1326
 5503TIP3    H138000   3.795   2.168  11.553 -0.0934  0.1683  1.0002
 5503TIP3    H238001   3.764   2.292  11.634 -0.4670  0.7573 -0.0351
 5504TIP3   OH238002   3.769   0.249   4.948 -0.3538  0.1854 -0.0776
 5504TIP3    H138003   3.826   0.197   4.891 -0.2731  1.2696 -1.0180
 5504TIP3    H238004   3.685   0.250   4.903 -0.5040  0.4067  0.2088
 5505TIP3   OH238005   1.821   0.508   2.553 -0.5194 -0.1501 -0.4028
 5505TIP3    H138006   1.895   0.554   2.593  0.4343 -0.0672 -2.1379
 5505TIP3    H238007   1.744   0.557   2.581  0.2821  1.1700 -0.4192
 5506TIP3   OH238008   2.231   6.040   0.951  0.3175 -0.4446 -0.3063
 5506TIP3    H138009   2.284   6.002   0.881  0.5994  1.2187 -1.0496
 5506TIP3    H238010   2.291   6.045   1.026  0.7151 -0.1442 -0.6362
 5507TIP3   OH238011   5.486   6.477   3.428  0.3274 -0.3860 -0.7011
 5507TIP3    H138012   5.473   6.402   3.370 -0.5446 -0.7515 -0.0735
 5507TIP3    H238013   5.561   6.524   3.392  0.5239 -1.2436 -1.4399
 5508TIP3   OH238014   2.961   0.351  14.717 -0.0187 -0.1948  0.2707
 5508TIP3    H138015   2.929   0.417  14.656  0.4163  0.2707  0.5389
 5508TIP3    H238016   3.011   0.290  14.662  0.2314  0.1304  0.1367
 5509TIP3   OH238017   3.837   1.138  13.866 -0.1924  0.6489  0.3165
 5509TIP3    H138018   3.843   1.043  13.868  0.4315  0.6830  0.2804
 5509TIP3    H238019   3.743   1.157  13.869 -0.3175  0.0338  0.2806
 5510TIP3   OH238020   4.062   0.099   0.533 -0.6161 -0.3599  0.0130
 5510TIP3    H138021   4.129   0.135   0.592  0.7048  0.2251 -1.7374
 5510TIP3    H238022   4.073   0.149   0.452 -2.5386 -0.9479 -0.6605
 5511TIP3   OH238023   1.321   1.946  14.313 -0.2383  0.0271 -0.4955
 5511TIP3    H138024   1.244   1.936  14.369  0.1969  1.9816  0.5313
 5511TIP3    H238025   1.392   1.905  14.363 -0.1883  0.1808 -0.4415
 5512TIP3   OH238026   1.171   4.812   2.428  0.2165  0.0026  0.3106
 5512TIP3    H138027   1.242   4.826   2.365 -0.3996  0.6072 -0.2734
 5512TIP3    H238028   1.099   4.864   2.394 -0.5912 -0.7943  0.7608
 5513TIP3   OH238029   4.967   6.122  17.276 -0.3661  0.0365  0.2115
 5513TIP3    H138030   4.937   6.075  17.198  0.0887 -1.0882  0.6874
 5513TIP3    H238031   4.894   6.117  17.336 -0.0149 -0.8370  0.5807
 5514TIP3   OH238032   6.455   1.477  10.523  0.5935  0.6813 -0.0204
 5514TIP3    H138033   6.508   1.406  10.561  2.0492  1.6208 -0.2022
 5514TIP3    H238034   6.365   1.444  10.525  1.2054 -1.0695  0.0991
 5515TIP3   OH238035   0.879   3.146  17.010  0.1047  0.3597 -0.1629
 5515TIP3    H138036   0.803   3.175  17.059  0.6319  0.3916  0.6585
 5515TIP3    H238037   0.846   3.127  16.922 -0.5349  1.9155 -0.2812
 5516TIP3   OH238038   4.130   0.565   2.880  0.7500  0.2864 -0.0698
 5516TIP3    H138039   4.124   0.479   2.922 -1.7651  0.1852 -0.4775
 5516TIP3    H238040   4.093   0.552   2.792 -0.2617  1.8630  0.0639
 5517TIP3   OH238041   1.652   1.084  11.858 -0.4768  0.2011 -0.0196
 5517TIP3    H138042   1.654   0.994  11.890  0.3639 -0.3658 -1.5822
 5517TIP3    H238043   1.559   1.105  11.852 -0.6923  0.1646  2.2052
 5518TIP3   OH238044   3.582   0.301  16.386 -0.0646  0.0310 -0.1715
 5518TIP3    H138045   3.538   0.236  16.332  0.2564 -0.3319  0.0056
 5518TIP3    H238046   3.578   0.265  16.475 -0.7426  0.7009  0.0839
 5519TIP3   OH238047   0.222   4.833   1.886 -0.3084  0.4401 -0.1783
 5519TIP3    H138048   0.174   4.891   1.828  1.1223  0.1859 -1.7048
 5519TIP3    H238049   0.156   4.770   1.918 -1.1548  0.6619 -1.4405
 5520TIP3   OH238050   2.353   5.156   2.424 -0.3347  0.5082  0.4633
 5520TIP3    H138051   2.330   5.198   2.341 -0.4695  0.8770  0.6814
 5520TIP3    H238052   2.427   5.207   2.458 -1.7025  1.8118  1.6540
 5521TIP3   OH238053   3.535   4.789   5.245 -0.0325  0.0263  0.2219
 5521TIP3    H138054   3.602   4.744   5.195 -0.2696  2.5615 -2.6187
 5521TIP3    H238055   3.469   4.721   5.264  0.7579 -1.3544 -1.6901
 5522TIP3   OH238056   5.502   1.997  15.338  0.3861  0.4004  0.6944
 5522TIP3    H138057   5.597   2.006  15.332  0.2990  2.9741  1.9660
 5522TIP3    H238058   5.473   2.078  15.379 -2.4412 -0.0399 -0.2475
 5523TIP3   OH238059   0.124   3.160  11.645  0.2611  0.1386  0.1788
 5523TIP3    H138060   0.099   3.090  11.585 -1.6126 -1.0470  2.1792
 5523TIP3    H238061   0.105   3.240  11.597  2.9424 -0.5915 -2.3747
 5524TIP3   OH238062   5.388   5.650  14.345 -0.7720 -0.5880  0.3182
 5524TIP3    H138063   5.304   5.663  14.389  0.4659 -1.0414  2.9950
 5524TIP3    H238064   5.449   5.706  14.392  0.6935 -1.2180 -0.7480
 5525TIP3   OH238065   3.466   4.345  16.102  0.0943  0.1348 -0.0053
 5525TIP3    H138066   3.483   4.253  16.082  0.2351  0.2559 -0.4525
 5525TIP3    H238067   3.404   4.373  16.034  0.2166  0.4255  0.0029
 5526TIP3   OH238068   3.259   4.370  16.563  0.3100 -0.0878  0.2885
 5526TIP3    H138069   3.315   4.363  16.640  1.8079  2.3865 -0.4358
 5526TIP3    H238070   3.299   4.440  16.511 -1.1254 -1.0669 -2.3353
 5527TIP3   OH238071   6.314   5.319  14.688  0.1415 -0.0540  0.4939
 5527TIP3    H138072   6.279   5.347  14.773  1.1368  1.1298  0.5406
 5527TIP3    H238073   6.280   5.383  14.626 -0.3242 -0.7346  0.0243
 5528TIP3   OH238074   0.161   0.565  11.334 -0.1211  0.3715  0.3521
 5528TIP3    H138075   0.244   0.558  11.381  0.7912  1.5377 -0.9984
 5528TIP3    H238076   0.151   0.659  11.318  0.6596 -0.0040 -3.4277
 5529TIP3   OH238077   5.582   6.427  14.953  0.0054 -0.3318 -0.0615
 5529TIP3    H138078   5.522   6.425  15.028  0.3239 -0.7546  0.1918
 5529TIP3    H238079   5.669   6.426  14.993  0.2710  2.6637 -0.3296
 5530TIP3   OH238080   1.352   6.669  11.620 -0.3513 -0.2440  0.3520
 5530TIP3    H138081   1.373   6.665  11.526 -2.7535  1.1078 -0.3280
 5530TIP3    H238082   1.394   6.749  11.651 -1.4596  0.5598 -0.1594
 5531TIP3   OH238083   6.015   4.551  14.275 -0.1674  0.2114  0.3691
 5531TIP3    H138084   6.026   4.483  14.341 -0.4077 -2.6691 -2.3124
 5531TIP3    H238085   6.092   4.607  14.285  0.7651 -1.2479  1.8324
 5532TIP3   OH238086   6.022   4.486   0.106 -0.4012  0.5546 -0.6270
 5532TIP3    H138087   6.108   4.507   0.068  0.5432 -0.4447  0.8430
 5532TIP3    H238088   5.967   4.560   0.082  0.6208  0.8181 -2.3556
 5533TIP3   OH238089   1.528   0.907   4.172 -0.1592 -0.2427  0.1661
 5533TIP3    H138090   1.575   0.835   4.130 -1.9660 -0.9219 -0.7510
 5533TIP3    H238091   1.475   0.946   4.103  0.9853  2.2371  0.5472
 5534TIP3   OH238092   1.707   5.016  12.437  0.1739 -0.1460  0.4134
 5534TIP3    H138093   1.715   4.940  12.379  0.2431  0.4356 -0.3491
 5534TIP3    H238094   1.735   4.983  12.522  1.7993 -0.5673 -0.2398
 5535TIP3   OH238095   3.776   0.475  11.323  0.0544  0.1303  0.0688
 5535TIP3    H138096   3.685   0.495  11.299  0.3030 -0.0367 -1.1063
 5535TIP3    H238097   3.807   0.553  11.367 -1.8605 -1.2212  4.3231
 5536TIP3   OH238098   4.388   3.594  17.385 -0.4769  0.2433  0.6882
 5536TIP3    H138099   4.401   3.585  17.479 -0.4301 -1.2474  0.5623
 5536TIP3    H238100   4.373   3.505  17.354 -0.0379  0.6513 -0.7797
 5537TIP3   OH238101   4.010   4.524  14.910 -0.4234  0.4476 -0.5359
 5537TIP3    H138102   3.944   4.528  14.979 -2.0787  1.4395 -2.0720
 5537TIP3    H238103   4.075   4.589  14.936 -0.1193 -0.3950  0.9113
 5538TIP3   OH238104   5.897   3.099   6.013 -0.2425  0.1951 -0.0066
 5538TIP3    H138105   5.812   3.090   5.970 -0.3691  1.3849 -0.0225
 5538TIP3    H238106   5.912   3.193   6.019  1.7721  0.0481 -1.4066
 5539TIP3   OH238107   4.415   1.467  16.599  0.1122 -0.2894 -1.1036
 5539TIP3    H138108   4.438   1.412  16.524  2.1205 -1.9656  0.6084
 5539TIP3    H238109   4.485   1.532  16.603 -0.3469  0.2094 -1.0665
 5540TIP3   OH238110   6.130   0.017   3.474 -0.1254  0.1966  0.0293
 5540TIP3    H138111   6.159  -0.065   3.434 -0.3782 -0.6511  1.4831
 5540TIP3    H238112   6.052   0.042   3.424  1.8573  1.4393 -2.6288
 5541TIP3   OH238113   3.863   4.521   1.274  0.0599  0.3064 -0.1547
 5541TIP3    H138114   3.819   4.515   1.189  2.0120  0.7074 -1.2595
 5541TIP3    H238115   3.936   4.582   1.260  0.4166  0.4308  1.8373
 5542TIP3   OH238116   4.400   0.414  12.606  0.5586 -0.1014 -0.3310
 5542TIP3    H138117   4.494   0.394  12.604  0.3570 -1.9598  2.4105
 5542TIP3    H238118   4.369   0.371  12.686 -2.3656  1.7480 -0.3383
 5543TIP3   OH238119   4.083   3.143   1.533 -0.6645 -0.1732  0.1142
 5543TIP3    H138120   4.083   3.143   1.629  0.5281 -1.2833  0.1387
 5543TIP3    H238121   4.175   3.154   1.509 -0.9484  0.0159 -0.9109
 5544TIP3   OH238122   4.476   3.071  13.103 -0.1979 -0.6482  0.5399
 5544TIP3    H138123   4.546   3.134  13.084 -0.7801 -0.4862 -1.2315
 5544TIP3    H238124   4.395   3.123  13.097 -0.5174 -0.8886  2.3111
 5545TIP3   OH238125   2.934   4.658   3.455 -0.2451 -0.0011  0.0805
 5545TIP3    H138126   2.934   4.752   3.474  0.9566 -0.0066  0.1852
 5545TIP3    H238127   3.007   4.646   3.395  0.1080 -0.9835  0.6830
 5546TIP3   OH238128   6.178   3.211  17.224  0.4148  0.0569 -0.0486
 5546TIP3    H138129   6.164   3.224  17.318  0.4437 -0.2417 -0.0026
 5546TIP3    H238130   6.091   3.210  17.186  0.4445  2.1944 -0.3025
 5547TIP3   OH238131   3.193   1.335  11.657  0.0441 -0.5161  0.4777
 5547TIP3    H138132   3.157   1.261  11.609 -0.0423 -0.4035  0.3672
 5547TIP3    H238133   3.284   1.311  11.676  0.2798 -0.2824 -0.3222
 5548TIP3   OH238134   5.449   2.283   1.464  0.1172  0.3634  0.4681
 5548TIP3    H138135   5.426   2.308   1.553  0.1520 -0.1983  0.6399
 5548TIP3    H238136   5.409   2.350   1.408 -0.8282  0.1124  0.8366
 5549TIP3   OH238137   0.079   1.934  16.648 -0.3975  0.7041  0.3333
 5549TIP3    H138138  -0.016   1.926  16.645 -0.3645  0.6552 -1.4421
 5549TIP3    H238139   0.111   1.854  16.606  0.3439  1.7270 -1.1400
 5550TIP3   OH238140   2.502   1.615   6.181 -0.3827 -0.2053 -0.4892
 5550TIP3    H138141   2.596   1.633   6.188 -0.4862 -0.0890  0.9323
 5550TIP3    H238142   2.480   1.637   6.091  0.9477 -0.2020 -0.8376
 5551TIP3   OH238143   0.530   5.212  14.446  0.3818 -0.1230  0.3758
 5551TIP3    H138144   0.461   5.180  14.504  0.3415 -1.5147 -0.3939
 5551TIP3    H238145   0.505   5.181  14.360  0.9686  1.0501 -0.2426
 5552TIP3   OH238146   5.777   5.316   1.136 -0.0135 -0.1280 -1.0333
 5552TIP3    H138147   5.730   5.280   1.212  0.5573 -1.0888 -1.1248
 5552TIP3    H238148   5.720   5.295   1.062  0.1789 -0.6009 -1.0519
 5553TIP3   OH238149   0.210   3.872   1.004 -0.0470 -0.0923 -0.4922
 5553TIP3    H138150   0.156   3.952   0.997  0.5699  0.3982  0.1833
 5553TIP3    H238151   0.166   3.820   1.072 -0.3828 -0.2693 -0.8465
 5554TIP3   OH238152   1.039   5.054   3.955 -0.4838  0.1775  0.5143
 5554TIP3    H138153   1.116   5.000   3.937 -1.0573 -0.4830 -0.0219
 5554TIP3    H238154   1.004   5.020   4.037 -0.3320  0.3196  0.6360
 5555TIP3   OH238155   2.985   5.767   4.570  0.3113 -0.1676  0.1527
 5555TIP3    H138156   3.040   5.752   4.493  0.8212  0.6459  0.3371
 5555TIP3    H238157   2.938   5.685   4.583  1.6320 -0.9507  0.1055
 5556TIP3   OH238158   5.936   4.579  14.660 -0.7043 -0.0909  0.3098
 5556TIP3    H138159   5.845   4.549  14.658 -0.2266 -1.5653 -0.9615
 5556TIP3    H238160   5.987   4.505  14.629  0.8402  1.0704 -0.0566
 5557TIP3   OH238161   2.777   3.579  16.394 -0.0138 -0.1442  0.1157
 5557TIP3    H138162   2.705   3.612  16.341 -0.7599 -0.0344  1.1784
 5557TIP3    H238163   2.772   3.628  16.476 -0.5809 -2.1781  1.3705
 5558TIP3   OH238164   3.361   5.660   3.701  0.1273 -0.5550 -0.2233
 5558TIP3    H138165   3.439   5.677   3.649 -0.5548 -0.5230 -1.2702
 5558TIP3    H238166   3.369   5.568   3.727  0.7713 -0.3988  0.1490
 5559TIP3   OH238167   0.505   2.977   4.066 -0.4127  0.0232  0.2402
 5559TIP3    H138168   0.575   3.041   4.069 -1.4594  1.2721 -0.8281
 5559TIP3    H238169   0.484   2.967   3.973 -1.8084 -0.1260  0.5467
 5560TIP3   OH238170   3.654   0.854   3.533 -0.1716  0.2751 -0.2830
 5560TIP3    H138171   3.661   0.759   3.547  1.1218  0.4096  0.1210
 5560TIP3    H238172   3.672   0.892   3.618 -1.7877  0.8800 -0.1867
 5561TIP3   OH238173   5.489   5.334   1.673  0.0463 -0.1875 -0.0571
 5561TIP3    H138174   5.421   5.271   1.651 -1.4029  1.4692 -0.5953
 5561TIP3    H238175   5.475   5.406   1.611  1.6265  0.6592  0.5192
 5562TIP3   OH238176   6.689   6.396  12.058 -0.0882 -0.0228  0.0640
 5562TIP3    H138177   6.670   6.451  11.983  1.4829  1.2362  0.5272
 5562TIP3    H238178   6.768   6.347  12.033 -1.1912 -1.7948 -0.1638
 5563TIP3   OH238179   0.232   3.051   2.204 -0.4736  0.4461  0.1728
 5563TIP3    H138180   0.230   2.983   2.272 -2.3758  0.8911  0.6238
 5563TIP3    H238181   0.144   3.089   2.207  0.4401  2.7030 -0.3050
 5564TIP3   OH238182   1.390   6.638  11.348  0.2947  0.1772  0.0681
 5564TIP3    H138183   1.481   6.642  11.318 -0.2013  0.0617 -1.5795
 5564TIP3    H238184   1.357   6.555  11.314 -0.3485  0.0847  0.9019
 5565TIP3   OH238185   6.264   2.142   2.929  0.2406  0.2058  0.3160
 5565TIP3    H138186   6.257   2.102   2.843 -0.4513 -1.0030  0.9065
 5565TIP3    H238187   6.243   2.071   2.990  2.9013  0.3762  1.6012
 5566TIP3   OH238188   5.508   5.916   0.876  0.0930 -0.0741 -0.3226
 5566TIP3    H138189   5.459   5.891   0.799 -1.0090 -3.2641  1.2687
 5566TIP3    H238190   5.447   5.969   0.928 -0.1683 -0.3833 -0.3147
 5567TIP3   OH238191   2.698   5.088   3.512  0.4820 -0.2168  0.3849
 5567TIP3    H138192   2.687   5.039   3.594 -0.1335 -0.6640  0.0421
 5567TIP3    H238193   2.677   5.178   3.535 -0.4852 -0.4696  0.5513
 5568TIP3   OH238194   6.467   5.161  11.557  0.3444 -0.1677 -0.2162
 5568TIP3    H138195   6.497   5.110  11.481  0.6693 -1.3677  0.6770
 5568TIP3    H238196   6.373   5.145  11.560  0.6859 -2.2347  1.0860
 5569TIP3   OH238197   3.249   4.488   2.796 -0.3723  0.2011  0.6044
 5569TIP3    H138198   3.262   4.473   2.890  1.2225 -1.5600  0.1742
 5569TIP3    H238199   3.205   4.409   2.765 -0.7813  0.7175 -0.1654
 5570TIP3   OH238200   2.493   5.487  13.543  0.0576 -0.4104 -0.2347
 5570TIP3    H138201   2.550   5.438  13.601  0.4645 -1.2589 -1.3212
 5570TIP3    H238202   2.551   5.543  13.493 -0.2668  0.1556  0.0094
 5571TIP3   OH238203   3.561   1.186  13.922  0.1143 -0.6261  0.1266
 5571TIP3    H138204   3.547   1.186  14.017  0.0434 -0.1840  0.1175
 5571TIP3    H238205   3.510   1.111  13.890 -1.4288  0.3450  0.2181
 5572TIP3   OH238206   0.853   1.406  12.777 -0.2031  0.0073  0.2747
 5572TIP3    H138207   0.892   1.338  12.722 -1.4286 -0.2264 -0.3445
 5572TIP3    H238208   0.762   1.410  12.749 -0.3732  1.2854  0.9312
 5573TIP3   OH238209   5.064   5.780   4.372  0.3632 -0.1225 -0.4545
 5573TIP3    H138210   5.113   5.789   4.290  2.3694 -2.2208  0.3894
 5573TIP3    H238211   5.098   5.849   4.429 -0.4109  0.7936 -1.0890
 5574TIP3   OH238212   1.258   6.006   3.628 -0.4528  0.3664 -0.1279
 5574TIP3    H138213   1.347   5.984   3.657 -0.2688  0.3911 -0.6761
 5574TIP3    H238214   1.214   5.922   3.618 -1.0817  0.3803  1.9308
 5575TIP3   OH238215   3.216   0.945  11.985 -0.0283 -0.4865 -0.4640
 5575TIP3    H138216   3.233   0.908  11.898  2.3650 -1.1236  0.2016
 5575TIP3    H238217   3.257   1.031  11.984 -1.7220  0.3643 -0.5549
 5576TIP3   OH238218   4.242   4.366   5.349 -0.1919  0.2708 -0.2709
 5576TIP3    H138219   4.289   4.297   5.397 -1.2328 -1.0771 -1.1088
 5576TIP3    H238220   4.152   4.334   5.343 -0.9360  2.1582  0.0982
 5577TIP3   OH238221   0.133   5.867  15.453 -0.4023  0.3935 -0.0611
 5577TIP3    H138222   0.163   5.901  15.538  1.4657  1.3896 -1.0637
 5577TIP3    H238223   0.143   5.772  15.461 -3.3107  0.0856  1.8885
 5578TIP3   OH238224   1.772   4.657   7.093  0.2823  0.0102 -0.0592
 5578TIP3    H138225   1.779   4.753   7.093 -0.1157  0.0496 -0.9369
 5578TIP3    H238226   1.834   4.628   7.027  0.4705 -0.3546  0.2702
 5579TIP3   OH238227   6.088   5.206  16.432 -0.2360  0.4445  0.1158
 5579TIP3    H138228   6.131   5.138  16.381 -0.2825 -0.3601  1.1372
 5579TIP3    H238229   6.039   5.257  16.367  1.5323  0.8498 -0.9459
 5580TIP3   OH238230   4.901   0.272  14.376  0.1685 -0.6007 -0.0073
 5580TIP3    H138231   4.945   0.196  14.340 -0.8334 -0.1972 -2.2077
 5580TIP3    H238232   4.957   0.346  14.352 -0.2997 -0.3601 -0.3588
 5581TIP3   OH238233   1.993   5.664  15.297  0.1224 -0.0353  0.7943
 5581TIP3    H138234   2.043   5.726  15.245 -1.8477 -0.8661 -2.3845
 5581TIP3    H238235   2.038   5.580  15.285  0.6480  0.0664  1.9475
 5582TIP3   OH238236   5.454   3.735   5.014 -0.3466  0.6099  0.0307
 5582TIP3    H138237   5.370   3.732   4.969 -0.1585  2.4567 -0.5298
 5582TIP3    H238238   5.519   3.743   4.944  0.3481 -0.8336  0.4513
 5583TIP3   OH238239   2.916   3.587   1.456 -0.4010 -0.3956 -0.1006
 5583TIP3    H138240   2.992   3.583   1.398 -0.2771  1.6728 -0.1787
 5583TIP3    H238241   2.919   3.676   1.493 -0.5304 -1.5759  3.0437
 5584TIP3   OH238242   5.543   2.252  14.289 -0.3375 -0.0629 -0.7079
 5584TIP3    H138243   5.548   2.305  14.369 -0.5102 -1.0217 -0.0458
 5584TIP3    H238244   5.572   2.311  14.219 -0.2049  0.7971  0.0555
 5585TIP3   OH238245   2.526   4.518   1.455  0.7641  0.0173  0.2507
 5585TIP3    H138246   2.505   4.428   1.480  1.4644  0.0057  0.8358
 5585TIP3    H238247   2.493   4.526   1.365 -0.7474 -0.3042  0.7464
 5586TIP3   OH238248   0.360   4.854   2.374 -0.3049  0.2104  0.0188
 5586TIP3    H138249   0.298   4.892   2.311 -0.6485  1.4485  1.0472
 5586TIP3    H238250   0.414   4.794   2.322 -1.8620 -0.3274 -1.0588
 5587TIP3   OH238251   0.833   6.551  14.716 -0.5657 -0.4312  0.7338
 5587TIP3    H138252   0.867   6.632  14.754  0.0560  0.2819 -1.1741
 5587TIP3    H238253   0.872   6.549  14.628 -0.4541 -2.8918  0.7837
 5588TIP3   OH238254   1.400   1.950   0.895  0.1059  0.0096  0.2107
 5588TIP3    H138255   1.332   1.907   0.947 -0.0695 -0.4544 -0.4015
 5588TIP3    H238256   1.482   1.917   0.932  0.0440  1.3436  1.6223
 5589TIP3   OH238257   4.298   0.703   3.745 -0.0074  0.0978  0.1643
 5589TIP3    H138258   4.306   0.628   3.805  0.1982  0.0827  0.1181
 5589TIP3    H238259   4.381   0.705   3.698 -0.5953 -0.6101 -0.9677
 5590TIP3   OH238260   6.572   6.023   4.372 -0.1566  0.1178  0.4286
 5590TIP3    H138261   6.546   6.114   4.383  1.6974  0.7884 -0.3182
 5590TIP3    H238262   6.578   5.989   4.461 -0.7376  0.7504  0.7202
 5591TIP3   OH238263   0.767   1.385   1.354  0.2610  0.5933 -0.0792
 5591TIP3    H138264   0.679   1.420   1.371 -0.2846 -0.4212 -0.7368
 5591TIP3    H238265   0.761   1.293   1.377  0.7447  0.1890 -1.4820
 5592TIP3   OH238266   0.088   5.246  11.571  0.0160  0.4172  0.3826
 5592TIP3    H138267   0.008   5.204  11.541 -0.3480  1.1450  0.2925
 5592TIP3    H238268   0.131   5.181  11.626  0.0821 -0.4981 -0.7345
 5593TIP3   OH238269   0.459   3.114  15.286  0.1297 -0.9429  0.5127
 5593TIP3    H138270   0.513   3.123  15.365  1.8783 -0.2856 -0.6871
 5593TIP3    H238271   0.449   3.204  15.254  0.2098 -1.2710 -0.4807
 5594TIP3   OH238272   1.291   0.208   6.293 -0.3818  0.3613 -0.1510
 5594TIP3    H138273   1.262   0.127   6.249 -0.7794 -0.1089  0.9384
 5594TIP3    H238274   1.372   0.184   6.337 -0.7479  0.4086  0.5708
 5595TIP3   OH238275   1.576   0.951  17.473 -0.5154 -0.0542 -0.5878
 5595TIP3    H138276   1.631   0.969  17.549 -1.5486 -0.4465  0.2611
 5595TIP3    H238277   1.516   0.882  17.502 -1.8822  0.8101 -1.2956
 5596TIP3   OH238278   1.857   0.843  14.895 -0.7897 -0.1519  0.5329
 5596TIP3    H138279   1.918   0.781  14.933 -1.1314 -0.4353  0.6242
 5596TIP3    H238280   1.909   0.894  14.833 -0.1986  0.4043  1.4646
 5597TIP3   OH238281   5.292   1.576   2.525  0.1367  0.6623  0.3175
 5597TIP3    H138282   5.298   1.660   2.572  0.8830  0.5638  0.4132
 5597TIP3    H238283   5.299   1.510   2.593  0.6191  0.5212  0.1344
 5598TIP3   OH238284   4.779   3.581  11.652  0.8111 -0.0733 -0.0240
 5598TIP3    H138285   4.851   3.624  11.605  2.5802 -1.9055  0.8693
 5598TIP3    H238286   4.745   3.649  11.710 -0.1127  1.6474 -2.3819
 5599TIP3   OH238287   4.676   1.465   2.504  0.3141  0.0095  0.0908
 5599TIP3    H138288   4.630   1.543   2.475  1.1733  0.3051 -0.5296
 5599TIP3    H238289   4.739   1.497   2.569 -0.6646 -0.4560  1.2912
 5600TIP3   OH238290   1.153   2.553  12.620 -0.3017  0.1284  0.0483
 5600TIP3    H138291   1.146   2.648  12.622 -1.6590  0.0451  1.4124
 5600TIP3    H238292   1.066   2.522  12.595  0.0556 -0.7596 -0.1511
 5601TIP3   OH238293   3.919   5.925   3.915 -0.4299 -0.5872 -0.0894
 5601TIP3    H138294   3.966   5.861   3.862 -0.6552 -1.5452  0.8262
 5601TIP3    H238295   3.850   5.875   3.958  0.5106 -0.1388  2.0900
 5602TIP3   OH238296   3.904   6.728   0.738 -0.4128  0.3681  0.3147
 5602TIP3    H138297   3.945   6.779   0.668 -0.7803 -1.5227 -1.3976
 5602TIP3    H238298   3.818   6.703   0.703 -1.3951  0.8832  2.2112
 5603TIP3   OH238299   4.720   3.703  15.489 -0.1839 -0.0443  0.0017
 5603TIP3    H138300   4.696   3.769  15.424 -1.2776 -0.4151  0.0179
 5603TIP3    H238301   4.694   3.620  15.449  0.5321 -0.4153  0.2826
 5604TIP3   OH238302   6.497   3.016  16.421 -0.2492  0.3404 -0.7586
 5604TIP3    H138303   6.449   2.995  16.501 -1.1091 -2.6561 -1.9277
 5604TIP3    H238304   6.481   3.110  16.408 -0.9663  0.6844  1.9428
 5605TIP3   OH238305   3.943   1.364  13.344  0.2372 -0.2061 -0.0990
 5605TIP3    H138306   3.961   1.457  13.334  0.9104 -0.2529  0.5995
 5605TIP3    H238307   3.936   1.350  13.438 -0.4903 -0.7562 -0.2200
 5606TIP3   OH238308   5.200   2.487  14.140  0.0884  0.3020 -0.0682
 5606TIP3    H138309   5.205   2.514  14.232  0.4469 -0.0389  0.0135
 5606TIP3    H238310   5.232   2.397  14.140  0.1421  0.3205 -0.5375
 5607TIP3   OH238311   3.758   1.979  11.286  0.1309  0.1471 -0.5610
 5607TIP3    H138312   3.774   2.068  11.256  2.1027  0.3497  0.8537
 5607TIP3    H238313   3.698   1.942  11.222 -1.2519  2.6683 -0.8413
 5608TIP3   OH238314   3.794   6.323   3.343  0.9353 -0.0188 -0.0944
 5608TIP3    H138315   3.879   6.300   3.306  0.3713  0.1569 -1.5751
 5608TIP3    H238316   3.752   6.239   3.362  0.7387 -0.1632 -1.0833
 5609TIP3   OH238317   6.218   2.043   4.652 -0.7021  0.3529  0.2769
 5609TIP3    H138318   6.259   2.114   4.701 -2.2493  1.4817  0.0102
 5609TIP3    H238319   6.291   1.985   4.627  0.6782  2.1319 -0.0049
 5610TIP3   OH238320   6.415   0.867   5.019 -0.1990 -0.6804 -0.7060
 5610TIP3    H138321   6.441   0.882   4.927 -0.3508 -1.0739 -0.8132
 5610TIP3    H238322   6.497   0.878   5.068 -0.4286  1.3095 -0.6717
 5611TIP3   OH238323   0.235   5.906   5.637  0.6199  0.5097 -0.1912
 5611TIP3    H138324   0.152   5.937   5.675  0.8670  0.5795  0.2957
 5611TIP3    H238325   0.265   5.979   5.583 -0.3883 -0.0681 -1.5969
 5612TIP3   OH238326   2.398   0.422  14.143  0.2666 -0.6461  0.1104
 5612TIP3    H138327   2.331   0.457  14.084  1.2273 -0.1968 -0.7509
 5612TIP3    H238328   2.377   0.460  14.228 -0.3988 -0.2777 -0.2041
 5613TIP3   OH238329   2.915   0.129  12.178  0.4488  0.0404  0.1509
 5613TIP3    H138330   2.938   0.176  12.258 -0.2290  0.6210  0.0183
 5613TIP3    H238331   2.909   0.198  12.112 -1.1357 -0.1512  0.0761
 5614TIP3   OH238332   2.321   5.556  17.067  0.0329 -0.5175  0.3033
 5614TIP3    H138333   2.369   5.537  17.147  0.7482  0.8051  0.2129
 5614TIP3    H238334   2.385   5.543  16.997 -0.2140 -0.3626  0.0441
 5615TIP3   OH238335   3.234   6.214   6.921 -0.3700  0.4149  0.0727
 5615TIP3    H138336   3.254   6.131   6.965  0.2761 -0.3073 -1.4690
 5615TIP3    H238337   3.175   6.189   6.850  1.3018  0.9291 -1.5810
 5616TIP3   OH238338   4.078   4.989  12.706 -0.1543 -0.5466 -0.3455
 5616TIP3    H138339   4.169   5.012  12.687 -0.4570  2.1789  1.0681
 5616TIP3    H238340   4.032   5.000  12.623  0.7333 -1.9997 -1.0847
 5617TIP3   OH238341   5.230   1.097   4.260 -0.3737 -0.0989  0.0418
 5617TIP3    H138342   5.282   1.116   4.338 -0.4187  0.7468 -0.1238
 5617TIP3    H238343   5.278   1.029   4.215 -0.7593 -1.1820  1.2121
 5618TIP3   OH238344   2.974   6.261   4.796 -0.2014  0.0843 -0.3901
 5618TIP3    H138345   2.880   6.247   4.781 -0.1333 -0.1763 -0.5693
 5618TIP3    H238346   3.016   6.230   4.716  0.0806 -0.3325 -0.0839
 5619TIP3   OH238347   6.406   4.433   2.642 -0.7394  0.2822  0.4477
 5619TIP3    H138348   6.488   4.416   2.690 -1.3322 -0.9505  1.0565
 5619TIP3    H238349   6.407   4.370   2.570 -0.9227  0.6108  0.1551
 5620TIP3   OH238350   3.408   4.527  14.026 -0.2363  0.4439  0.2263
 5620TIP3    H138351   3.418   4.528  14.122 -0.5933  0.7058  0.2641
 5620TIP3    H238352   3.488   4.486  13.994 -0.1975  0.1789  0.6501
 5621TIP3   OH238353   3.567   5.331   6.833 -0.4050 -0.4690  0.0001
 5621TIP3    H138354   3.476   5.305   6.849 -0.6187  0.5528  0.5864
 5621TIP3    H238355   3.588   5.388   6.907  0.5130 -0.2021 -0.4542
 5622TIP3   OH238356   0.109   1.319   5.523 -0.3229 -0.7824 -0.1543
 5622TIP3    H138357   0.153   1.402   5.541  2.2643 -1.4550 -2.6183
 5622TIP3    H238358   0.111   1.272   5.606 -0.7385  1.1064  0.9793
 5623TIP3   OH238359   1.720   6.046  14.628  0.5122 -0.0581 -0.1248
 5623TIP3    H138360   1.662   5.976  14.655  1.0621 -0.7520 -0.7167
 5623TIP3    H238361   1.768   6.011  14.553  1.0483  0.8164 -0.2087
 5624TIP3   OH238362   3.016   2.522   2.437  0.0144 -0.4953 -0.2771
 5624TIP3    H138363   2.953   2.578   2.392 -0.3851  0.7548  1.7147
 5624TIP3    H238364   3.079   2.498   2.369  0.3935  2.6636 -1.2427
 5625TIP3   OH238365   5.260   3.910  15.870  0.3254  0.0748  0.4251
 5625TIP3    H138366   5.339   3.930  15.919  0.0776 -0.4009  1.0350
 5625TIP3    H238367   5.268   3.961  15.790  1.1582  0.1729  0.5616
 5626TIP3   OH238368   0.946   5.532   0.234  0.3848 -0.3728  0.1404
 5626TIP3    H138369   0.987   5.445   0.236  1.1245 -0.0070  1.3872
 5626TIP3    H238370   0.967   5.565   0.147  1.1924 -0.9323  0.1077
 5627TIP3   OH238371   4.437   3.423  12.296 -0.5148  0.1982 -0.0417
 5627TIP3    H138372   4.511   3.405  12.354 -0.8097  0.3150  0.3724
 5627TIP3    H238373   4.392   3.339  12.287 -0.8973  0.3384  0.5030
 5628TIP3   OH238374   5.971   4.739  13.291  0.0370 -0.7733 -0.4268
 5628TIP3    H138375   5.971   4.811  13.354 -1.9979 -0.0142 -1.2198
 5628TIP3    H238376   6.056   4.744  13.249  0.2985  0.5603  0.2120
 5629TIP3   OH238377   2.242   2.020  11.253 -0.3033 -0.3806 -0.0550
 5629TIP3    H138378   2.330   2.036  11.288 -0.7489  2.0169  0.1374
 5629TIP3    H238379   2.254   2.021  11.158 -0.2308  0.8769 -0.0477
 5630TIP3   OH238380   2.867   0.852   5.955  0.2718 -0.2848 -0.3565
 5630TIP3    H138381   2.792   0.815   6.002  1.6953 -0.0031  2.3064
 5630TIP3    H238382   2.876   0.941   5.989  2.2368 -0.5625 -0.0295
 5631TIP3   OH238383   5.288   4.931  17.152 -1.0469  0.0664 -0.2045
 5631TIP3    H138384   5.313   4.916  17.243 -2.8433 -0.9354  0.1837
 5631TIP3    H238385   5.230   5.007  17.155 -0.4434  0.5506 -0.6449
 5632TIP3   OH238386   5.491   6.362   1.972 -0.4150  0.5548  0.4714
 5632TIP3    H138387   5.571   6.312   1.989 -1.3862 -0.4987  2.2420
 5632TIP3    H238388   5.446   6.315   1.903  0.5941  1.3097 -0.7340
 5633TIP3   OH238389   6.129   1.602  16.522  0.3610  0.3359 -0.2076
 5633TIP3    H138390   6.047   1.554  16.533  1.1728 -0.8965  0.7056
 5633TIP3    H238391   6.154   1.587  16.431 -0.0814  0.1758 -0.3043
 5634TIP3   OH238392   4.857   2.593  13.371  0.0439  0.1652  0.3263
 5634TIP3    H138393   4.945   2.628  13.356 -0.3240  1.0870  0.2347
 5634TIP3    H238394   4.865   2.541  13.451  0.3031  1.6961  1.3428
 5635TIP3   OH238395   4.994   0.874  13.785 -0.0390  0.3303 -0.3518
 5635TIP3    H138396   5.036   0.883  13.699 -0.2846 -1.0725 -0.6397
 5635TIP3    H238397   4.957   0.960  13.802 -0.1970  0.5747 -1.7645
 5636TIP3   OH238398   5.902   2.653  16.233  0.7986  0.0939 -0.3565
 5636TIP3    H138399   5.841   2.726  16.220 -0.6054 -1.1423 -0.9694
 5636TIP3    H238400   5.873   2.586  16.171  3.5558 -0.1060 -1.6012
 5637TIP3   OH238401   5.388   1.808  13.784 -0.5689  0.5259 -0.4119
 5637TIP3    H138402   5.393   1.722  13.825 -0.8689  0.7354  0.0828
 5637TIP3    H238403   5.402   1.792  13.691  0.9358  0.1187 -0.1477
 5638TIP3   OH238404   0.202   6.428  11.279  0.3929  0.6400  0.0364
 5638TIP3    H138405   0.171   6.517  11.262 -1.3971 -0.1595 -1.1661
 5638TIP3    H238406   0.233   6.397  11.194  0.8529  0.0552  0.4109
 5639TIP3   OH238407   4.303   2.324   1.058  0.9831  0.3665  0.4094
 5639TIP3    H138408   4.282   2.365   0.975  0.6281  0.4920  0.5576
 5639TIP3    H238409   4.373   2.378   1.095  0.4151  0.9292  0.6720
 5640TIP3   OH238410   0.377   0.529  14.801 -0.1457 -0.5605 -0.0811
 5640TIP3    H138411   0.448   0.587  14.772  1.0751 -1.8363  0.2150
 5640TIP3    H238412   0.379   0.534  14.896 -2.6790  1.8986 -0.0377
 5641TIP3   OH238413   6.177   3.214   1.725 -0.4416 -0.3304 -0.1585
 5641TIP3    H138414   6.267   3.236   1.701 -0.4633  1.6177  1.3070
 5641TIP3    H238415   6.172   3.119   1.714  2.1565 -0.6791  0.8616
 5642TIP3   OH238416   2.725   1.013  13.760 -0.3627 -0.6143 -0.1803
 5642TIP3    H138417   2.796   0.957  13.791 -0.2269  0.1213  0.8830
 5642TIP3    H238418   2.741   1.097  13.803 -0.3443  0.3732 -2.0292
 5643TIP3   OH238419   2.681   6.445   1.137  0.2255 -0.3296 -0.1749
 5643TIP3    H138420   2.656   6.537   1.129  0.0839 -0.1940  1.5404
 5643TIP3    H238421   2.669   6.425   1.230 -1.0626 -2.4633 -0.7443
 5644TIP3   OH238422   5.945   2.724   5.265  0.2342 -0.2183  0.6034
 5644TIP3    H138423   5.859   2.731   5.222  0.2302  1.0502  0.7956
 5644TIP3    H238424   5.981   2.812   5.261  1.6628 -0.7976  0.2957
 5645TIP3   OH238425   5.159   0.171  12.237  0.0816 -0.1753 -0.2691
 5645TIP3    H138426   5.094   0.159  12.306 -0.4131 -0.0948 -0.7145
 5645TIP3    H238427   5.141   0.101  12.174  0.9962 -0.6982  0.0254
 5646TIP3   OH238428   5.273   5.068   0.578 -0.3076  0.1317  0.1100
 5646TIP3    H138429   5.287   5.013   0.656 -0.8886  0.1855  0.2615
 5646TIP3    H238430   5.293   5.157   0.607 -0.8981  0.2039  0.3152
 5647TIP3   OH238431   6.015   0.584   3.106  0.3019 -0.3991  0.3144
 5647TIP3    H138432   5.990   0.576   3.013  1.9157 -0.7527 -0.1177
 5647TIP3    H238433   6.038   0.495   3.132 -0.4888 -0.3627  1.1851
 5648TIP3   OH238434   5.681   6.722   1.373  0.3198  0.4891 -0.3655
 5648TIP3    H138435   5.765   6.761   1.347  0.1081  0.1809 -1.5382
 5648TIP3    H238436   5.672   6.645   1.317 -0.0386 -0.3544  0.8110
 5649TIP3   OH238437   1.134   1.445  13.746  0.0213 -0.4891  0.5898
 5649TIP3    H138438   1.088   1.491  13.676 -1.1651 -3.4596 -0.7458
 5649TIP3    H238439   1.076   1.451  13.821  1.0286  2.2148  1.2355
 5650TIP3   OH238440   1.627   1.401  13.383  0.1884 -0.1737  0.2267
 5650TIP3    H138441   1.700   1.341  13.366  0.1561  0.1468 -1.1536
 5650TIP3    H238442   1.646   1.478  13.330 -0.9038  0.1202  0.2375
 5651TIP3   OH238443   4.995   0.497  15.842 -0.2781 -0.1115  0.0350
 5651TIP3    H138444   4.989   0.423  15.781  0.1670 -0.8114  0.8149
 5651TIP3    H238445   5.045   0.563  15.794  0.4864 -0.8328 -0.2013
 5652TIP3   OH238446   3.677   3.436  12.185  0.0780 -0.1616  0.1126
 5652TIP3    H138447   3.706   3.374  12.251 -0.3954 -0.8203 -0.2852
 5652TIP3    H238448   3.700   3.395  12.102 -0.1884  0.2229 -0.1556
 5653TIP3   OH238449   4.233   4.033  15.285  0.3076  0.0965 -0.2682
 5653TIP3    H138450   4.310   4.089  15.276  0.8474 -0.6309 -0.2699
 5653TIP3    H238451   4.232   3.980  15.205 -0.6982  0.6941 -0.6745
 5654TIP3   OH238452   0.081   6.761   1.282  0.2725  0.0467 -0.3077
 5654TIP3    H138453   0.127   6.678   1.275  1.3670  0.7257 -1.8830
 5654TIP3    H238454   0.082   6.782   1.376  2.3415 -0.4469 -0.1785
 5655TIP3   OH238455   4.752   3.332   4.170 -0.2217  0.2621  0.2733
 5655TIP3    H138456   4.764   3.241   4.196 -1.0384  0.3315  0.9215
 5655TIP3    H238457   4.799   3.339   4.087 -2.1728 -1.3910 -1.0752
 5656TIP3   OH238458   0.229   0.096   5.708  0.3176 -0.3159 -0.3211
 5656TIP3    H138459   0.219   0.055   5.622  0.7330  1.3233 -1.1969
 5656TIP3    H238460   0.169   0.171   5.706 -0.1542 -0.6164  1.0914
 5657TIP3   OH238461   3.090   2.970  11.507 -0.5117 -0.2747  0.1133
 5657TIP3    H138462   3.008   2.923  11.516 -0.7522  0.2848  1.0170
 5657TIP3    H238463   3.090   3.003  11.417 -1.1340 -0.5398  0.0163
 5658TIP3   OH238464   5.280   3.103   0.952 -0.7351  0.3079 -0.5868
 5658TIP3    H138465   5.284   3.032   0.887  1.3387  1.8565 -2.2915
 5658TIP3    H238466   5.212   3.161   0.918 -1.3215 -0.0448 -0.0414
 5659TIP3   OH238467   1.881   5.586   5.028  0.5501  0.3055  0.6779
 5659TIP3    H138468   1.855   5.519   4.965  1.2125  0.4187  0.2833
 5659TIP3    H238469   1.827   5.567   5.105  0.1519 -0.1845  0.2882
 5660TIP3   OH238470   2.871   3.148  12.919 -0.4043 -0.0142 -0.2784
 5660TIP3    H138471   2.957   3.158  12.877 -0.0096  1.4624  0.8256
 5660TIP3    H238472   2.841   3.237  12.936 -2.7015 -0.4420 -1.6235
 5661TIP3   OH238473   3.489   3.475  14.900 -0.0637 -0.3998  0.3660
 5661TIP3    H138474   3.438   3.530  14.840 -1.0867  0.1661  1.7054
 5661TIP3    H238475   3.514   3.400  14.847  0.9855  1.1040 -1.3969
 5662TIP3   OH238476   0.571   1.380   2.945  0.6902  0.6441  0.1128
 5662TIP3    H138477   0.509   1.449   2.922  1.4476  1.4137  0.3558
 5662TIP3    H238478   0.515   1.303   2.960 -0.1916  1.2635  0.1239
 5663TIP3   OH238479   0.918   3.934  13.244  0.4742 -0.4918 -0.7420
 5663TIP3    H138480   0.978   4.008  13.255  0.0980  0.0802 -2.2677
 5663TIP3    H238481   0.954   3.866  13.300  0.1293  1.2163  1.7583
 5664TIP3   OH238482   2.852   4.577  12.239  0.2641  0.1269 -0.1198
 5664TIP3    H138483   2.774   4.528  12.264  0.1260  0.5949  0.3722
 5664TIP3    H238484   2.922   4.542  12.295  0.1135  0.6504  0.4085
 5665TIP3   OH238485   0.020   3.666   5.037  0.1969  0.0483 -0.6622
 5665TIP3    H138486  -0.030   3.602   4.986 -0.0148  0.3421 -0.8198
 5665TIP3    H238487   0.028   3.625   5.124  2.2292 -1.3445 -1.4313
 5666TIP3   OH238488   2.712   0.299  10.534 -0.1823  0.0210 -0.0582
 5666TIP3    H138489   2.663   0.375  10.566  0.4757  1.5938 -2.4730
 5666TIP3    H238490   2.680   0.226  10.586  0.2960  2.1547  3.5266
 5667TIP3   OH238491   6.645   1.422   0.943 -0.7681  0.4036  0.2222
 5667TIP3    H138492   6.668   1.512   0.920 -0.0695 -0.0916 -1.0842
 5667TIP3    H238493   6.550   1.423   0.952 -0.8029  1.1884 -0.1475
 5668TIP3   OH238494   0.009   6.391  14.690  0.6546  0.4934 -0.3884
 5668TIP3    H138495   0.020   6.367  14.598  0.8052  1.6666 -0.6945
 5668TIP3    H238496  -0.003   6.486  14.688  0.3462  0.4884  0.7813
 5669TIP3   OH238497   2.970   3.717   3.807  0.2345 -0.3928  0.2447
 5669TIP3    H138498   2.960   3.650   3.739 -1.1284 -0.1597  0.1953
 5669TIP3    H238499   2.882   3.727   3.844  0.1692  2.0599 -0.4073
 5670TIP3   OH238500   1.526   5.992   5.505 -0.3309  0.2337  0.2133
 5670TIP3    H138501   1.595   6.032   5.452 -1.4373  2.7060  0.5069
 5670TIP3    H238502   1.567   5.975   5.590  0.8669 -1.8236 -0.6907
 5671TIP3   OH238503   0.478   2.507  15.468 -0.2372  0.0599  0.5296
 5671TIP3    H138504   0.391   2.545  15.475 -0.0554  1.6858 -3.4411
 5671TIP3    H238505   0.472   2.447  15.394  2.1919  0.8967 -0.4345
 5672TIP3   OH238506   0.861   1.118   2.465  0.2046 -0.2573  0.1226
 5672TIP3    H138507   0.918   1.064   2.519 -1.8394 -0.8845  1.7882
 5672TIP3    H238508   0.846   1.197   2.516  0.4482  0.4077 -0.8007
 5673TIP3   OH238509   4.605   2.972   1.105 -0.1836 -0.4735 -0.6860
 5673TIP3    H138510   4.643   3.023   1.033 -0.7135  0.8198 -0.0799
 5673TIP3    H238511   4.678   2.957   1.165  0.2038 -1.3439 -1.3444
 5674TIP3   OH238512   0.515   3.802   5.553  0.7233 -0.2602  0.0930
 5674TIP3    H138513   0.441   3.745   5.530  1.2304 -0.3776 -1.4107
 5674TIP3    H238514   0.478   3.868   5.611 -0.4924 -0.5134 -0.3615
 5675TIP3   OH238515   0.249   5.678  12.860 -0.5602 -0.3829  0.6314
 5675TIP3    H138516   0.322   5.621  12.837 -1.2948 -1.9345  1.9235
 5675TIP3    H238517   0.205   5.695  12.777  0.8258 -0.0187 -0.0609
 5676TIP3   OH238518   1.249   0.744   2.655  0.1546 -0.3755 -0.3256
 5676TIP3    H138519   1.184   0.745   2.726 -0.7631 -0.7515 -1.1271
 5676TIP3    H238520   1.260   0.651   2.635  2.2608 -0.4517  0.9307
 5677TIP3   OH238521   3.255   6.764  16.963 -0.0396  0.1851  0.1018
 5677TIP3    H138522   3.297   6.721  17.037 -0.9205  2.7743  2.2701
 5677TIP3    H238523   3.314   6.836  16.941 -0.6800  0.5225 -0.5389
 5678TIP3   OH238524   3.763   3.532  14.252  0.1508  0.6211 -1.1613
 5678TIP3    H138525   3.675   3.558  14.224 -0.8717 -0.9391  0.4678
 5678TIP3    H238526   3.782   3.453  14.200 -1.1572 -1.4258  1.2556
 5679TIP3   OH238527   3.090   2.311   2.725 -0.1346  0.0261  0.0164
 5679TIP3    H138528   3.184   2.318   2.739 -0.0993  0.6902 -0.4790
 5679TIP3    H238529   3.057   2.400   2.741 -0.9680 -0.6129  2.1649
 5680TIP3   OH238530   2.997   3.793   5.588 -0.1916 -0.8211 -0.3898
 5680TIP3    H138531   3.030   3.871   5.632 -0.7610 -1.7762  1.8965
 5680TIP3    H238532   3.033   3.798   5.499 -0.4369  2.1405 -0.4185
 5681TIP3   OH238533   4.755   6.058  14.139  0.2243  0.0329 -0.1706
 5681TIP3    H138534   4.822   6.067  14.071  1.5141 -0.3537  0.9964
 5681TIP3    H238535   4.738   5.964  14.144 -0.7369  0.1636 -0.7452
 5682TIP3   OH238536   5.157   1.807  10.760  0.4972  0.0575 -0.5048
 5682TIP3    H138537   5.094   1.875  10.784  0.4929  0.6491 -2.0616
 5682TIP3    H238538   5.114   1.725  10.784 -1.5299  0.3555 -2.7270
 5683TIP3   OH238539   0.674   6.384   1.433  0.4496  0.0754  0.1941
 5683TIP3    H138540   0.704   6.320   1.369 -0.3198  2.6244 -2.9795
 5683TIP3    H238541   0.583   6.361   1.450  0.1303  0.3530 -1.0492
 5684TIP3   OH238542   4.371   5.144  12.331 -0.2370 -0.7148  0.4936
 5684TIP3    H138543   4.416   5.151  12.247  2.8304 -0.1437  2.0275
 5684TIP3    H238544   4.305   5.213  12.329 -0.4837 -0.9520 -1.5377
 5685TIP3   OH238545   5.715   6.449   1.221  0.0792 -0.1528  0.5392
 5685TIP3    H138546   5.667   6.400   1.154  1.2522 -0.2484 -0.2651
 5685TIP3    H238547   5.718   6.390   1.296 -0.5948 -0.3510  0.4122
 5686TIP3   OH238548   0.369   3.895  11.570 -0.2164  0.1170 -0.2520
 5686TIP3    H138549   0.314   3.852  11.505 -2.7277  0.2431  1.6778
 5686TIP3    H238550   0.459   3.876  11.541 -1.2233 -1.7579 -2.4404
 5687TIP3   OH238551   4.235   2.373   2.180 -0.2716 -0.2417  0.0801
 5687TIP3    H138552   4.228   2.423   2.099  0.6319 -0.4417 -0.1308
 5687TIP3    H238553   4.244   2.282   2.151 -1.3878 -0.4896  0.4488
 5688TIP3   OH238554   5.550   5.209   3.266  0.3677  0.2374  0.4981
 5688TIP3    H138555   5.468   5.163   3.248  1.0267 -0.4564 -0.8626
 5688TIP3    H238556   5.582   5.169   3.347  0.0833 -0.5330  0.2467
 5689TIP3   OH238557   4.980   3.477   5.157  0.6248 -0.2118 -0.3260
 5689TIP3    H138558   4.966   3.556   5.210 -1.7506 -1.2718  0.7732
 5689TIP3    H238559   4.943   3.498   5.072  2.0871  0.5889 -0.8099
 5690TIP3   OH238560   6.030   5.285   3.524 -0.3983  0.5598  0.9673
 5690TIP3    H138561   5.976   5.206   3.537  0.1363 -0.4524 -2.0621
 5690TIP3    H238562   6.108   5.253   3.478  0.1895  2.7755  0.3158
 5691TIP3   OH238563   5.012   4.850  14.128 -0.2687  0.3015  0.4267
 5691TIP3    H138564   5.048   4.780  14.183 -0.0067 -0.5497 -0.7768
 5691TIP3    H238565   4.923   4.820  14.107 -0.0681  0.1860 -0.2950
 5692TIP3   OH238566   2.677   5.727   4.848 -0.3922  0.4781  0.2267
 5692TIP3    H138567   2.584   5.715   4.828 -0.5162  0.0150  1.0484
 5692TIP3    H238568   2.707   5.790   4.783 -0.8503 -0.7011 -1.1815
 5693TIP3   OH238569   2.644   3.047   1.530 -0.5554 -0.5103 -0.3316
 5693TIP3    H138570   2.595   2.979   1.576 -0.4496  0.2164  0.8937
 5693TIP3    H238571   2.597   3.060   1.448 -0.5570 -2.0652 -0.5971
 5694TIP3   OH238572   5.725   3.749  13.048  0.1002  0.0011 -0.3957
 5694TIP3    H138573   5.814   3.781  13.059  0.1318  0.0007 -0.6394
 5694TIP3    H238574   5.670   3.824  13.071  0.1823  0.4697 -1.6408
 5695TIP3   OH238575   3.535   0.964   1.376  0.4966  0.3141 -0.1098
 5695TIP3    H138576   3.562   0.879   1.410 -1.4522  0.0461  0.9440
 5695TIP3    H238577   3.493   0.944   1.293 -0.9751  0.0513  0.6616
 5696TIP3   OH238578   0.262   0.304   3.391  0.4413  0.0982 -0.2785
 5696TIP3    H138579   0.178   0.259   3.401  1.2865 -1.7865 -1.2319
 5696TIP3    H238580   0.273   0.315   3.297  1.6294 -0.4019 -0.2108
 5697TIP3   OH238581   4.382   5.698   4.235  0.4310  0.0482 -0.1676
 5697TIP3    H138582   4.405   5.791   4.237  0.0751  0.1851 -1.5371
 5697TIP3    H238583   4.318   5.688   4.305 -0.0078  0.9723 -0.4163
 5698TIP3   OH238584   0.883   0.524   0.652  0.0441  0.2896 -0.4368
 5698TIP3    H138585   0.959   0.482   0.693  0.7224  2.3653  0.5377
 5698TIP3    H238586   0.841   0.572   0.723 -2.3311 -0.9215 -0.9216
 5699TIP3   OH238587   5.963   5.054  11.605 -0.2826 -0.1537 -0.2383
 5699TIP3    H138588   6.003   5.044  11.518  1.4428  1.1717  0.3606
 5699TIP3    H238589   5.887   5.110  11.590 -0.4297 -0.5265 -0.9781
 5700TIP3   OH238590   4.227   1.390  17.025  0.1099 -0.8732 -0.3885
 5700TIP3    H138591   4.188   1.475  17.046  1.2275  0.1188 -2.0907
 5700TIP3    H238592   4.231   1.388  16.929  1.1467 -2.3778 -0.3527
 5701TIP3   OH238593   4.321   5.751  17.286 -0.1392 -0.4034  0.0355
 5701TIP3    H138594   4.335   5.657  17.294  0.3037 -0.5372 -1.8151
 5701TIP3    H238595   4.317   5.767  17.191  0.6083  1.5514  0.2829
 5702TIP3   OH238596   3.850   3.537  11.712  0.7954  0.3389  0.3177
 5702TIP3    H138597   3.850   3.575  11.800  0.5587 -0.3098  0.6008
 5702TIP3    H238598   3.775   3.478  11.711 -0.4984  1.9195 -1.0200
 5703TIP3   OH238599   2.133   2.696  14.125 -0.2566  0.4796 -0.6633
 5703TIP3    H138600   2.204   2.722  14.067 -1.5538  1.3979 -1.8969
 5703TIP3    H238601   2.152   2.605  14.147  0.9316  0.5056 -1.5104
 5704TIP3   OH238602   4.816   1.185  12.348 -0.8311 -0.0237 -0.1026
 5704TIP3    H138603   4.782   1.168  12.436  1.5113  0.4687  0.9984
 5704TIP3    H238604   4.884   1.252  12.362  0.7803 -1.1561 -2.0360
 5705TIP3   OH238605   2.812   1.947  15.082  0.0429 -0.3427  0.6266
 5705TIP3    H138606   2.759   2.024  15.061  1.3434  0.2015 -0.9026
 5705TIP3    H238607   2.760   1.873  15.051 -0.4995  0.0545  0.5825
 5706TIP3   OH238608   0.042   2.066   5.728 -0.5532 -0.0026  0.7586
 5706TIP3    H138609   0.064   2.030   5.814  1.8480  0.8929  0.5902
 5706TIP3    H238610   0.018   2.157   5.745 -0.1487  0.1551  0.5036
 5707TIP3   OH238611   2.090   4.364  11.076 -0.2701 -0.4135 -0.3736
 5707TIP3    H138612   2.019   4.301  11.085 -0.9615  0.4030 -0.0321
 5707TIP3    H238613   2.058   4.429  11.013 -0.5425  0.9088  1.0663
 5708TIP3   OH238614   1.343   2.293   1.481  0.2183  0.7449  0.0031
 5708TIP3    H138615   1.288   2.321   1.554 -0.1353 -0.0276  0.0484
 5708TIP3    H238616   1.416   2.354   1.480  1.3752 -0.4768  2.3726
 5709TIP3   OH238617   0.454   2.086  11.865 -0.2413 -0.2236  0.2266
 5709TIP3    H138618   0.360   2.098  11.876 -0.0989  1.5851 -0.2804
 5709TIP3    H238619   0.487   2.070  11.954 -1.0762 -1.5974  0.3251
 5710TIP3   OH238620   5.523   1.518   3.124 -0.1602 -0.3304  0.2625
 5710TIP3    H138621   5.490   1.489   3.208 -1.1772  0.2411  0.0789
 5710TIP3    H238622   5.488   1.607   3.114 -2.0036 -1.1860 -1.7496
 5711TIP3   OH238623   4.410   6.397  12.838 -0.0497  0.0651  0.4648
 5711TIP3    H138624   4.360   6.471  12.803 -0.1880  0.3321  1.2073
 5711TIP3    H238625   4.382   6.322  12.785  0.7043  0.6724 -0.8544
 5712TIP3   OH238626   3.858   6.505  10.506  0.2275 -0.5211  1.2654
 5712TIP3    H138627   3.897   6.565  10.570  2.0593 -1.0768  0.7080
 5712TIP3    H238628   3.915   6.429  10.505  0.2953 -0.5155 -1.0736
 5713TIP3   OH238629   2.045   0.863  11.757 -0.6506  0.6233 -0.0506
 5713TIP3    H138630   2.114   0.903  11.811  0.4354 -1.7178  0.4443
 5713TIP3    H238631   2.074   0.876  11.667 -0.5107  1.2418  0.0793
 5714TIP3   OH238632   6.592   0.790   4.779  0.5323  0.1223  0.1376
 5714TIP3    H138633   6.673   0.773   4.730  0.6688  1.7682 -0.2506
 5714TIP3    H238634   6.524   0.793   4.712  0.1413 -1.1044  0.4490
 5715TIP3   OH238635   6.244   4.186   1.654  0.8513 -0.0905 -0.4413
 5715TIP3    H138636   6.207   4.228   1.576  1.0603  0.3349 -0.3138
 5715TIP3    H238637   6.222   4.247   1.726  1.2676 -0.1374 -0.2748
 5716TIP3   OH238638   5.607   5.195   5.005 -0.4356  0.3574  0.0605
 5716TIP3    H138639   5.535   5.134   4.988  1.2249 -2.0298  1.0582
 5716TIP3    H238640   5.590   5.268   4.947 -3.3024 -0.3884 -0.2047
 5717TIP3   OH238641   1.391   0.818   1.574  0.2085 -0.1929 -0.3305
 5717TIP3    H138642   1.475   0.845   1.535  0.7174 -0.8908  0.2585
 5717TIP3    H238643   1.396   0.723   1.577 -0.9801 -0.3060 -1.0854
 5718TIP3   OH238644   4.290   2.767  16.106 -0.2609 -0.2168  0.6623
 5718TIP3    H138645   4.241   2.690  16.079 -0.0336 -0.1312 -0.0127
 5718TIP3    H238646   4.238   2.805  16.177 -1.3214  0.0341 -0.2239
 5719TIP3   OH238647   2.071   1.085  12.081  0.1702  0.4226 -0.8818
 5719TIP3    H138648   2.001   1.142  12.049 -1.7419 -2.8817 -3.2664
 5719TIP3    H238649   2.114   1.053  12.002  0.6595 -1.8850  0.2136
 5720TIP3   OH238650   2.625   3.250   5.249 -0.2780 -0.0888 -0.1044
 5720TIP3    H138651   2.583   3.281   5.169 -0.0331  0.6322  0.0319
 5720TIP3    H238652   2.692   3.317   5.268 -1.6897  0.8718  1.8275
 5721TIP3   OH238653   1.911   4.196  15.006 -0.2623  0.7480 -0.2419
 5721TIP3    H138654   1.890   4.115  14.959 -0.1892  0.4246  0.2736
 5721TIP3    H238655   2.006   4.207  14.993  0.0097 -0.0418  0.8826
 5722TIP3   OH238656   0.053   1.741   6.616 -0.1513 -0.0344  0.4820
 5722TIP3    H138657   0.103   1.679   6.670  2.7314  1.7379  0.0474
 5722TIP3    H238658   0.039   1.694   6.534  4.0619  0.4221 -0.7542
 5723TIP3   OH238659   6.160   4.217  16.339 -0.1115 -0.3951  0.3252
 5723TIP3    H138660   6.105   4.186  16.267  0.7541 -0.4810 -0.3124
 5723TIP3    H238661   6.190   4.303  16.310  0.7363 -0.6884  0.2987
 5724TIP3   OH238662   1.262   3.314  11.072  0.0727  0.4124  0.4597
 5724TIP3    H138663   1.264   3.375  10.999 -0.3744 -3.1292 -2.8492
 5724TIP3    H238664   1.353   3.303  11.098  0.5676 -0.0775 -1.3486
 5725TIP3   OH238665   3.335   6.467   5.085 -0.0595  0.0214 -0.4906
 5725TIP3    H138666   3.414   6.492   5.133 -0.4388 -1.3198  0.9370
 5725TIP3    H238667   3.347   6.504   4.998  2.1100 -0.0779 -0.2960
 5726TIP3   OH238668   3.608   4.797  15.638 -0.0025 -0.0935 -0.0591
 5726TIP3    H138669   3.680   4.811  15.576  1.4551 -1.0569  1.3568
 5726TIP3    H238670   3.529   4.809  15.585  1.1815 -0.0174 -1.9021
 5727TIP3   OH238671   2.179   0.898  11.521 -0.3481 -0.6959 -0.1983
 5727TIP3    H138672   2.175   0.928  11.430 -1.3607  0.8098  0.3033
 5727TIP3    H238673   2.241   0.958  11.563  0.2468 -1.4876  0.0925
 5728TIP3   OH238674   3.452   0.776   2.677  0.4805  0.7742 -0.0338
 5728TIP3    H138675   3.536   0.736   2.700 -0.3881 -0.2199  1.6212
 5728TIP3    H238676   3.464   0.869   2.698  1.3376  0.7417 -0.3353
 5729TIP3   OH238677   3.861   4.988  11.342 -0.5591  0.1120  0.4282
 5729TIP3    H138678   3.908   5.016  11.421 -1.1411  2.0111  0.1683
 5729TIP3    H238679   3.929   4.972  11.277 -0.1253  3.3445 -0.1066
 5730TIP3   OH238680   0.237   2.767  16.993  0.5555 -0.1201  0.2813
 5730TIP3    H138681   0.191   2.767  17.077 -2.1025  1.3695 -1.0494
 5730TIP3    H238682   0.276   2.854  16.987  2.4988 -0.9076  0.7865
 5731TIP3   OH238683   2.085   5.956  15.509 -0.0344 -0.3464 -0.4927
 5731TIP3    H138684   2.066   6.036  15.558  0.0013 -0.3514 -0.4705
 5731TIP3    H238685   2.001   5.910  15.507  0.2919 -1.0558  0.8606
 5732TIP3   OH238686   5.447   1.140  13.572 -0.1307 -0.2306 -0.2510
 5732TIP3    H138687   5.383   1.209  13.582  0.7894  0.6431 -0.2200
 5732TIP3    H238688   5.411   1.066  13.621 -0.6268  0.5730  0.6256
 5733TIP3   OH238689   1.042   1.482   5.533 -0.4345 -0.1405 -0.1514
 5733TIP3    H138690   1.109   1.549   5.547 -0.6616 -0.0305  0.4028
 5733TIP3    H238691   1.029   1.442   5.619 -1.9203  0.6226  0.0039
 5734TIP3   OH238692   3.465   1.469  14.054  0.0705 -0.5658  0.0872
 5734TIP3    H138693   3.414   1.492  13.977  0.6241 -2.0106 -0.7575
 5734TIP3    H238694   3.556   1.479  14.025  0.2851 -1.6243  0.3775
 5735TIP3   OH238695   0.770   0.760  13.663  0.4237 -0.6071 -0.7375
 5735TIP3    H138696   0.728   0.810  13.594  0.3207 -0.3823 -0.5139
 5735TIP3    H238697   0.864   0.778  13.652  0.2582  1.5185  0.7584
 5736TIP3   OH238698   4.769   0.693  16.706  0.4918  0.0838  0.5429
 5736TIP3    H138699   4.758   0.663  16.616 -0.2317 -1.5432  1.1352
 5736TIP3    H238700   4.704   0.763  16.716  0.9915  0.6881 -0.3654
 5737TIP3   OH238701   0.472   5.911  13.519 -0.6230 -0.3780 -0.3349
 5737TIP3    H138702   0.401   5.862  13.479 -0.3272 -0.7797 -0.3716
 5737TIP3    H238703   0.550   5.857  13.505 -0.4058 -0.2136  0.2069
 5738TIP3   OH238704   5.807   1.746  17.508 -0.2218 -0.5213  0.0974
 5738TIP3    H138705   5.712   1.740  17.496 -0.4847 -0.6122  1.9138
 5738TIP3    H238706   5.824   1.700  17.590  1.3281 -0.0656  0.0699
 5739TIP3   OH238707   5.808   3.151   6.321  0.1868 -0.2606  0.1168
 5739TIP3    H138708   5.873   3.083   6.337  0.8900 -0.0591 -1.6234
 5739TIP3    H238709   5.727   3.104   6.306  0.4204 -0.6550  0.0819
 5740TIP3   OH238710   3.089   3.931  16.394  0.3602 -0.0792 -0.5638
 5740TIP3    H138711   3.140   3.918  16.473  0.9295 -1.2692 -1.1001
 5740TIP3    H238712   3.077   4.026  16.388  0.9807  0.0808  0.5128
 5741TIP3   OH238713   0.240   0.410   6.095  0.6551  0.0304 -0.0005
 5741TIP3    H138714   0.294   0.384   6.170 -1.4198 -1.0376  1.2426
 5741TIP3    H238715   0.167   0.347   6.095  0.0217  0.6598 -2.2963
 5742TIP3   OH238716   0.616   1.357  12.710 -0.2318  0.1545  0.4563
 5742TIP3    H138717   0.567   1.366  12.628 -1.8302  0.4549  1.4063
 5742TIP3    H238718   0.570   1.289  12.758  2.3286 -2.0440  0.0123
 5743TIP3   OH238719   5.646   0.110  16.403 -0.1405  0.4376 -0.1017
 5743TIP3    H138720   5.628   0.203  16.415 -0.2680  0.6386 -1.6538
 5743TIP3    H238721   5.614   0.090  16.315  1.6361 -0.6060 -0.5760
 5744TIP3   OH238722   5.618   3.460  17.458 -0.3928  0.0333  0.0907
 5744TIP3    H138723   5.568   3.381  17.438  0.3624 -0.1567 -1.1121
 5744TIP3    H238724   5.551   3.523  17.488 -1.5203  0.0691 -2.3022
 5745TIP3   OH238725   2.481   1.775  14.134  0.1164  0.3573  0.1394
 5745TIP3    H138726   2.423   1.849  14.150  1.2962  1.1745  0.7723
 5745TIP3    H238727   2.476   1.722  14.213  0.6599  0.7288  0.4249
 5746TIP3   OH238728   3.880   3.376   3.297  0.4903  0.4824 -0.6535
 5746TIP3    H138729   3.862   3.362   3.390 -1.6226  2.4515 -0.6747
 5746TIP3    H238730   3.877   3.288   3.258 -1.6208 -0.1186  0.6899
 5747TIP3   OH238731   1.923   0.853   1.422  0.3712  0.2485 -0.3665
 5747TIP3    H138732   1.905   0.923   1.484 -1.6545  0.2134 -0.8282
 5747TIP3    H238733   1.837   0.817   1.400  1.2706 -1.7937 -0.8426
 5748TIP3   OH238734   6.117   3.107   2.098 -0.2081 -0.3700  0.4393
 5748TIP3    H138735   6.199   3.065   2.122  0.1031 -0.2726 -0.3952
 5748TIP3    H238736   6.143   3.174   2.033 -0.9309 -0.2867  0.2261
 5749TIP3   OH238737   3.457   3.604  16.632 -0.1835 -0.6498  0.0819
 5749TIP3    H138738   3.524   3.637  16.572  1.0217 -1.6974  0.8070
 5749TIP3    H238739   3.380   3.658  16.613  0.4970 -0.1987 -1.6002
 5750TIP3   OH238740   5.933   0.994  16.612  0.5662 -0.2298  0.0387
 5750TIP3    H138741   5.952   1.007  16.705 -0.6358  3.1372 -0.0476
 5750TIP3    H238742   5.905   0.902  16.606  2.4863 -1.1088  2.5897
 5751TIP3   OH238743   6.674   2.351   6.224 -0.1403 -0.2709 -1.1041
 5751TIP3    H138744   6.670   2.446   6.222  0.0789 -0.2527 -0.7731
 5751TIP3    H238745   6.583   2.323   6.227 -0.2390 -0.0988 -2.2048
 5752TIP3   OH238746   4.387   1.808   0.887 -0.1943  0.0577  0.3046
 5752TIP3    H138747   4.464   1.865   0.883  0.6135 -1.0030  0.5174
 5752TIP3    H238748   4.319   1.858   0.842  0.6455  0.9467 -0.0287
 5753TIP3   OH238749   3.691   1.611  10.994  0.0750 -0.2782  0.0556
 5753TIP3    H138750   3.702   1.704  10.972 -3.9120  0.2028 -0.7016
 5753TIP3    H238751   3.694   1.566  10.910 -0.3489 -0.4981  0.1557
 5754TIP3   OH238752   5.467   1.480   2.100  0.2396 -0.8813  0.2299
 5754TIP3    H138753   5.482   1.482   2.006 -0.7217 -0.2107  0.0730
 5754TIP3    H238754   5.534   1.538   2.136 -0.4547  0.2364 -0.2219
 5755TIP3   OH238755   5.126   6.577   1.177 -0.3462  0.3831 -0.3499
 5755TIP3    H138756   5.211   6.582   1.221 -1.4154  2.6722  1.7557
 5755TIP3    H238757   5.139   6.516   1.105  2.5009 -0.9570  1.1406
 5756TIP3   OH238758   4.538   0.374   0.850 -0.6859 -0.4859  0.3582
 5756TIP3    H138759   4.451   0.372   0.809 -1.1799 -0.9052  1.3845
 5756TIP3    H238760   4.598   0.391   0.778 -1.6508  0.1548 -0.3231
 5757TIP3   OH238761   3.381   2.745  13.104  0.4865 -0.1033  0.0699
 5757TIP3    H138762   3.303   2.796  13.080 -0.9713 -2.3830 -0.3846
 5757TIP3    H238763   3.423   2.725  13.021 -0.6526 -2.0898 -0.0964
 5758TIP3   OH238764   6.372   1.869   5.268  0.3441  0.6247 -0.3521
 5758TIP3    H138765   6.408   1.784   5.291  1.1655  1.0984  0.1467
 5758TIP3    H238766   6.299   1.882   5.328  2.0187  1.5331  1.5966
 5759TIP3   OH238767   5.950   5.121  15.663 -0.2849  0.0436  0.4911
 5759TIP3    H138768   5.960   5.213  15.688 -0.9329  0.6715 -1.3609
 5759TIP3    H238769   5.856   5.110  15.649 -0.0514 -0.4654 -0.7789
 5760TIP3   OH238770   4.080   3.856  14.841  0.1532  0.2732  0.7217
 5760TIP3    H138771   4.145   3.850  14.911  2.5798  1.0373 -1.2879
 5760TIP3    H238772   4.033   3.773  14.843  2.2163 -0.9479  1.4001
 5761TIP3   OH238773   0.766   0.659   0.899  0.1330 -0.3558 -0.6731
 5761TIP3    H138774   0.700   0.662   0.968 -0.7877  0.5455 -1.5541
 5761TIP3    H238775   0.823   0.734   0.916 -0.6795  0.4504 -1.4326
 5762TIP3   OH238776   0.419   6.744  15.527  0.0506  0.5918 -0.1879
 5762TIP3    H138777   0.343   6.687  15.528 -0.1098  0.8022 -0.3540
 5762TIP3    H238778   0.490   6.691  15.564 -0.1232  0.3231 -0.2431
 5763TIP3   OH238779   1.092   4.505  14.697 -0.1725  0.1766 -0.1349
 5763TIP3    H138780   1.185   4.493  14.678 -0.0937  0.7737 -0.1444
 5763TIP3    H238781   1.076   4.451  14.775 -0.4739 -2.2073 -1.7403
 5764TIP3   OH238782   4.536   2.411   0.794 -0.2606 -0.0974 -0.1258
 5764TIP3    H138783   4.529   2.324   0.754  2.5837 -0.7750  0.6043
 5764TIP3    H238784   4.561   2.469   0.722 -2.6683  0.2901 -0.7174
 5765TIP3   OH238785   0.002   0.203  17.009 -0.3326 -0.1882  0.3150
 5765TIP3    H138786   0.008   0.270  17.077  0.0235 -0.1660  0.2612
 5765TIP3    H238787  -0.033   0.126  17.054 -0.9520  0.0942  0.3319
 5766TIP3   OH238788   4.881   6.223   0.534 -0.6987  0.2669  0.1972
 5766TIP3    H138789   4.797   6.202   0.493 -0.5682  0.3193 -0.0983
 5766TIP3    H238790   4.944   6.219   0.462 -0.3658 -0.2926  0.5093
 5767TIP3   OH238791   6.184   2.882   5.030 -0.2779 -0.0025  0.0540
 5767TIP3    H138792   6.117   2.837   4.978  1.4311 -0.9489 -1.4929
 5767TIP3    H238793   6.224   2.944   4.969  0.6290  0.1148  0.7458
 5768TIP3   OH238794   1.079   2.106   5.094 -0.5561 -0.0129  0.6804
 5768TIP3    H138795   1.011   2.141   5.036 -1.0760 -0.0594  1.2557
 5768TIP3    H238796   1.046   2.122   5.182  1.1030  1.8883  1.0539
 5769TIP3   OH238797   1.503   3.488  13.092  0.0052 -0.2524  0.3342
 5769TIP3    H138798   1.416   3.523  13.108 -0.0766 -0.0196 -0.5932
 5769TIP3    H238799   1.489   3.400  13.057  0.1340 -0.1307 -0.0275
 5770TIP3   OH238800   4.109   4.234  17.521 -0.4780 -0.3635  0.0693
 5770TIP3    H138801   4.199   4.232  17.487 -1.0488 -1.8395 -1.5065
 5770TIP3    H238802   4.107   4.166  17.588  0.1553  1.3103  1.9036
 5771TIP3   OH238803   2.364   5.279  11.662  0.2579  0.1231  0.4366
 5771TIP3    H138804   2.333   5.327  11.585 -1.3469 -1.9153 -0.2668
 5771TIP3    H238805   2.352   5.341  11.734  1.0149  1.7818 -0.7820
 5772TIP3   OH238806   3.091   0.431  11.673 -0.0507  0.6653  0.0947
 5772TIP3    H138807   3.168   0.391  11.713 -0.4018 -0.6863 -0.5209
 5772TIP3    H238808   3.020   0.368  11.690 -0.8593  1.5225 -0.0145
 5773TIP3   OH238809   5.055   1.369  13.804 -0.2355  0.3152 -0.2663
 5773TIP3    H138810   5.080   1.400  13.891  1.4621 -1.9759  0.1755
 5773TIP3    H238811   5.112   1.293  13.788 -3.3277 -1.9853 -1.5827
 5774TIP3   OH238812   6.357   4.294  12.066  0.2972  0.6097  0.3141
 5774TIP3    H138813   6.310   4.237  12.006  0.2781  0.3524  0.5709
 5774TIP3    H238814   6.340   4.382  12.034 -0.2671  0.5107  0.3403
 5775TIP3   OH238815   0.259   0.005   0.694  0.3684 -0.2884 -0.0199
 5775TIP3    H138816   0.236   0.097   0.698  2.3448  0.2238  0.7454
 5775TIP3    H238817   0.300  -0.013   0.779 -0.3810 -2.0037  0.0225
 5776TIP3   OH238818   1.449   2.123  17.483  0.2346  0.1277  0.0876
 5776TIP3    H138819   1.381   2.179  17.520  0.0289  0.2162 -0.4127
 5776TIP3    H238820   1.510   2.184  17.441  0.5114  0.0354  0.3537
 5777TIP3   OH238821   4.704   1.083   3.766  0.1809  0.3816 -0.3945
 5777TIP3    H138822   4.751   1.100   3.848 -0.0733 -1.2711  0.1385
 5777TIP3    H238823   4.764   1.029   3.715 -0.6641 -0.8156 -0.1659
 5778TIP3   OH238824   3.718   3.287  14.114 -0.3725  0.3205  0.0383
 5778TIP3    H138825   3.759   3.205  14.143 -1.5109 -0.0842  0.5616
 5778TIP3    H238826   3.626   3.264  14.100 -0.2204  0.8680 -2.4482
 5779TIP3   OH238827   3.778   1.493  16.889  0.4145  0.0707 -0.3747
 5779TIP3    H138828   3.850   1.492  16.825  0.4692  0.6684 -0.3306
 5779TIP3    H238829   3.728   1.414  16.869  0.6827  0.0150 -0.8682
 5780TIP3   OH238830   1.904   0.290   3.008  0.1028 -0.7898 -0.2622
 5780TIP3    H138831   1.891   0.294   3.102 -0.0204 -1.8542 -0.2149
 5780TIP3    H238832   1.830   0.338   2.971 -1.2192 -2.4180  0.1418
 5781TIP3   OH238833   1.598   4.864  11.019  0.1585  0.2783  0.3599
 5781TIP3    H138834   1.596   4.820  11.104  0.8732  0.8524  0.6796
 5781TIP3    H238835   1.581   4.956  11.038  2.0613  0.7155  0.1070
 5782TIP3   OH238836   4.597   0.906  16.210 -0.4111 -0.2938 -0.0856
 5782TIP3    H138837   4.535   0.978  16.217 -0.4485 -0.3338 -0.0061
 5782TIP3    H238838   4.610   0.894  16.115 -0.1887  0.0032 -0.0954
 5783TIP3   OH238839   1.730   0.768  14.208  0.1822 -0.0343 -0.7324
 5783TIP3    H138840   1.736   0.820  14.128 -0.2340 -0.4456 -1.0343
 5783TIP3    H238841   1.636   0.751  14.219  0.0008  1.8109  1.0074
 5784TIP3   OH238842   1.491   2.556   1.581  0.0697  0.0353 -0.2935
 5784TIP3    H138843   1.540   2.482   1.616  3.1551  1.8245 -0.5012
 5784TIP3    H238844   1.485   2.618   1.654  0.8616  1.0947 -1.0920
 5785TIP3   OH238845   5.326   1.754   2.744  0.3704 -0.1364  0.2986
 5785TIP3    H138846   5.345   1.844   2.720 -2.5907  0.4474 -0.2688
 5785TIP3    H238847   5.343   1.750   2.838  3.2523  0.1064 -0.1062
 5786TIP3   OH238848   6.283   1.677  11.911 -0.1650 -0.0161  0.2700
 5786TIP3    H138849   6.262   1.679  12.005 -1.5945  1.2740 -0.0264
 5786TIP3    H238850   6.198   1.687  11.868  0.4876 -0.4771 -1.1672
 5787TIP3   OH238851   6.067   1.280   0.598  0.3731  0.3596  0.1574
 5787TIP3    H138852   5.989   1.256   0.547  0.0942  3.3880 -1.1044
 5787TIP3    H238853   6.135   1.219   0.569 -0.8846 -0.7537 -0.5774
 5788TIP3   OH238854   6.308   0.529  11.418  0.4518  0.1909  0.0738
 5788TIP3    H138855   6.221   0.488  11.420  0.5549 -0.0053  1.1419
 5788TIP3    H238856   6.301   0.595  11.349 -0.3215 -0.3067 -0.3440
 5789TIP3   OH238857   1.486   0.725  11.894 -0.0277 -0.9384  0.1585
 5789TIP3    H138858   1.527   0.720  11.807 -1.4726  0.3598 -0.6472
 5789TIP3    H238859   1.559   0.745  11.953  0.8346 -0.8284 -0.8971
 5790TIP3   OH238860   3.531   1.564   1.599 -0.5050  0.0187  0.1923
 5790TIP3    H138861   3.522   1.538   1.508  0.5025 -1.5242  0.4984
 5790TIP3    H238862   3.625   1.576   1.611 -0.6158  0.0868  1.0713
 5791TIP3   OH238863   1.001   4.355  15.159  0.2870 -0.0391 -0.2210
 5791TIP3    H138864   1.025   4.269  15.192  0.0396 -0.0331 -0.0193
 5791TIP3    H238865   1.066   4.414  15.198  1.2519 -0.2915 -1.3937
 5792TIP3   OH238866   1.786   1.305  17.329 -0.1071  0.5136 -0.2276
 5792TIP3    H138867   1.875   1.340  17.322  0.9943 -1.8404  0.6567
 5792TIP3    H238868   1.793   1.216  17.294 -2.4306  0.6766 -1.2670
 5793TIP3   OH238869   3.675   5.809  10.473  0.1467  0.9526 -0.9165
 5793TIP3    H138870   3.666   5.819  10.568  0.4478  0.6963 -0.8611
 5793TIP3    H238871   3.674   5.899  10.440  0.7942  1.0801 -0.6006
 5794TIP3   OH238872   3.707   4.586   1.039  0.0632  0.8192  0.3455
 5794TIP3    H138873   3.688   4.678   1.059 -0.6818  0.9506 -0.8832
 5794TIP3    H238874   3.748   4.589   0.952 -0.6513 -0.0662 -0.0335
 5795TIP3   OH238875   5.921   2.001  16.945  0.3306 -0.1628  0.0522
 5795TIP3    H138876   5.854   1.956  16.893  0.3066 -0.0380 -0.0265
 5795TIP3    H238877   5.879   2.017  17.030 -0.4236  1.5975 -0.5892
 5796TIP3   OH238878   3.231   1.268  15.068 -0.3444  0.2399  0.0494
 5796TIP3    H138879   3.177   1.190  15.055 -0.2718  0.0914  0.6307
 5796TIP3    H238880   3.208   1.325  14.994 -0.6432 -0.1898 -0.1943
 5797TIP3   OH238881   1.392   3.710  13.567 -0.0493 -0.3230  0.5986
 5797TIP3    H138882   1.438   3.627  13.579  0.1906 -0.0539  1.7211
 5797TIP3    H238883   1.462   3.775  13.561 -0.2450 -0.1491  0.1786
 5798TIP3   OH238884   4.477   4.612   1.678 -0.1566 -0.4531 -1.1911
 5798TIP3    H138885   4.559   4.619   1.728 -0.4590  0.2315 -0.7777
 5798TIP3    H238886   4.448   4.522   1.693 -0.7569  0.0140  0.7030
 5799TIP3   OH238887   2.512   2.989  13.874  0.0240  0.4757  0.1193
 5799TIP3    H138888   2.538   3.072  13.835 -0.6348 -0.4883 -2.5541
 5799TIP3    H238889   2.419   3.000  13.894 -0.0875  0.3731 -0.3262
 5800TIP3   OH238890   6.749   1.298   5.260 -0.1737  0.0075  0.3008
 5800TIP3    H138891   6.730   1.330   5.349  0.7455  1.5781 -0.0360
 5800TIP3    H238892   6.783   1.374   5.214 -2.4570 -0.2518 -2.0130
 5801TIP3   OH238893   2.991   1.390  10.497  0.4391 -0.5359 -0.1498
 5801TIP3    H138894   2.916   1.418  10.550 -0.7429  1.0213 -2.4819
 5801TIP3    H238895   3.030   1.318  10.547 -2.7890 -1.6521  1.0300
 5802TIP3   OH238896   3.536   0.484   1.327  0.2370  0.7085  0.3374
 5802TIP3    H138897   3.581   0.430   1.262  0.2638  0.8842  0.2106
 5802TIP3    H238898   3.522   0.425   1.401  1.6359  0.9405  0.8142
 5803TIP3   OH238899   4.171   1.823  16.175  0.0503 -0.2676  0.3474
 5803TIP3    H138900   4.216   1.757  16.123  0.2987  0.2434 -0.0979
 5803TIP3    H238901   4.210   1.906  16.147 -0.7453  0.1293  0.3944
 5804TIP3   OH238902   0.070   0.963  17.270 -0.5431  0.3561  0.0451
 5804TIP3    H138903   0.135   0.911  17.316 -1.0406 -0.3391 -0.0097
 5804TIP3    H238904   0.009   0.992  17.338 -1.6280 -1.1895 -0.1993
 5805TIP3   OH238905   4.513   3.365   2.899 -0.5502  0.0606  0.6167
 5805TIP3    H138906   4.505   3.343   2.992  0.8991  0.6237  0.8986
 5805TIP3    H238907   4.461   3.298   2.854 -1.7287  0.1207  1.8553
 5806TIP3   OH238908   4.717   3.355   4.654  0.4514 -0.2643 -0.1373
 5806TIP3    H138909   4.798   3.405   4.667 -0.1018  0.9879 -1.3363
 5806TIP3    H238910   4.647   3.415   4.678 -0.2190 -0.4815 -1.4772
 5807TIP3   OH238911   4.826   4.163  12.588  0.4570 -0.0933 -0.1794
 5807TIP3    H138912   4.836   4.232  12.523  1.1898 -0.2531 -0.2527
 5807TIP3    H238913   4.767   4.099  12.547 -0.5564  0.6685  0.0537
 5808TIP3   OH238914   4.077   5.407   0.612  0.5151 -0.1119 -0.4117
 5808TIP3    H138915   4.005   5.397   0.674  0.6206 -0.8488 -0.4052
 5808TIP3    H238916   4.048   5.476   0.552  0.3514  0.5091  0.3605
 5809TIP3   OH238917   4.952   0.398  12.615  1.0432  0.2466 -0.4433
 5809TIP3    H138918   4.953   0.453  12.694  1.8430  0.1151 -0.3450
 5809TIP3    H238919   5.000   0.319  12.640  0.2245 -0.3458 -0.6951
 5810TIP3   OH238920   1.557   4.776  17.319  0.3520 -0.2757 -0.3765
 5810TIP3    H138921   1.578   4.831  17.395 -0.1418  0.2262 -0.5986
 5810TIP3    H238922   1.629   4.792  17.258  0.2135  0.1305 -0.4389
 5811TIP3   OH238923   4.782   2.099  16.817  0.6412  0.6243 -0.0644
 5811TIP3    H138924   4.703   2.075  16.769  0.7036  1.3484 -0.5481
 5811TIP3    H238925   4.762   2.184  16.856  1.1476  0.7707 -0.1171
 5812TIP3   OH238926   1.743   6.103   3.143  0.0183 -0.5231 -0.4262
 5812TIP3    H138927   1.831   6.078   3.116 -0.7545 -2.1046 -1.7559
 5812TIP3    H238928   1.744   6.198   3.145  1.2045 -0.4344 -2.5267
 5813TIP3   OH238929   4.805   3.906  14.893 -0.4471 -0.1601  0.4102
 5813TIP3    H138930   4.870   3.939  14.831  0.4434  0.1969  1.4965
 5813TIP3    H238931   4.784   3.982  14.947 -1.5430 -0.3590  0.2855
 5814TIP3   OH238932   0.484   1.506   2.508 -0.0429 -0.1077 -0.3143
 5814TIP3    H138933   0.455   1.439   2.446  1.1095 -0.5813 -0.3504
 5814TIP3    H238934   0.406   1.525   2.561 -0.4649 -1.2225 -0.5246
 5815TIP3   OH238935   5.418   3.917   6.198 -0.2776 -0.2414 -0.0745
 5815TIP3    H138936   5.481   3.850   6.172 -1.3609 -0.8508 -1.2862
 5815TIP3    H238937   5.389   3.956   6.116  0.1719  1.5911  0.6055
 5816TIP3   OH238938   1.203   1.922  10.965  0.5239  0.3815  0.0057
 5816TIP3    H138939   1.131   1.884  11.015 -0.6064  3.1863  0.6963
 5816TIP3    H238940   1.255   1.847  10.936 -1.4439 -1.6039  1.3455
 5817TIP3   OH238941   1.424   4.104  16.026  0.1778  0.1749  0.1565
 5817TIP3    H138942   1.489   4.104  15.956  0.0073  0.6107 -0.0090
 5817TIP3    H238943   1.475   4.106  16.107  0.3767  1.1173  0.0223
 5818TIP3   OH238944   4.463   5.204   5.413 -0.0449  0.0700  0.2882
 5818TIP3    H138945   4.492   5.295   5.410 -3.1894  1.2210 -3.2559
 5818TIP3    H238946   4.390   5.203   5.474 -0.1683 -0.0042  0.1402
 5819TIP3   OH238947   6.421   6.716  17.228  0.2145 -0.1356  0.3141
 5819TIP3    H138948   6.516   6.704  17.218  0.0848 -0.7616 -0.2321
 5819TIP3    H238949   6.392   6.752  17.144 -0.2333 -1.2829 -0.0428
 5820TIP3   OH238950   2.630   3.337  14.039  0.1693  0.0015 -0.1861
 5820TIP3    H138951   2.557   3.319  14.099 -0.1023 -1.1715 -0.8503
 5820TIP3    H238952   2.612   3.425  14.005 -0.2148  0.2629  0.6476
 5821TIP3   OH238953   0.789   2.928   5.310  0.0807 -0.0171  0.0914
 5821TIP3    H138954   0.713   2.885   5.271  1.5353 -2.4925 -0.2383
 5821TIP3    H238955   0.768   2.935   5.403 -0.1647 -1.7238  0.1997
 5822TIP3   OH238956   6.461   3.778  16.150  0.2486  0.0090 -0.2420
 5822TIP3    H138957   6.512   3.798  16.072  0.3796 -0.5705 -0.3037
 5822TIP3    H238958   6.446   3.864  16.191  3.4698  0.0451  1.1604
 5823TIP3   OH238959   6.734   5.763   2.805 -0.5939 -0.1078  0.6729
 5823TIP3    H138960   6.695   5.848   2.786 -2.1622 -1.1324 -0.9632
 5823TIP3    H238961   6.661   5.709   2.836  0.2286 -1.0800  0.9637
 5824TIP3   OH238962   5.412   1.992  16.429 -0.4218  0.4768 -0.4940
 5824TIP3    H138963   5.493   2.006  16.379  0.6345 -0.0826  1.0088
 5824TIP3    H238964   5.371   2.079  16.432  1.0205  1.1722  0.1995
 5825TIP3   OH238965   5.363   0.805  16.949 -0.6210 -0.0039  0.1564
 5825TIP3    H138966   5.323   0.891  16.959  0.2504  0.3888  0.4269
 5825TIP3    H238967   5.359   0.766  17.036 -0.3509  0.0766  0.2079
 5826TIP3   OH238968   0.833   0.132   0.369  0.3899 -0.3609 -0.4239
 5826TIP3    H138969   0.825   0.180   0.451 -0.6974 -0.9612 -0.1669
 5826TIP3    H238970   0.909   0.171   0.326 -0.1887  1.2647 -0.0151
 5827TIP3   OH238971   2.572   4.273  12.768  0.0551 -0.2110  0.1732
 5827TIP3    H138972   2.524   4.295  12.689  0.5572 -0.3828 -0.1888
 5827TIP3    H238973   2.618   4.192  12.747  1.1915  0.3997  0.1994
 5828TIP3   OH238974   4.874   1.517   3.285 -0.1059 -0.5633  0.4455
 5828TIP3    H138975   4.888   1.446   3.348  0.7180 -1.1262 -0.3439
 5828TIP3    H238976   4.780   1.513   3.266 -0.1780 -1.0576  0.8720
 5829TIP3   OH238977   0.998   3.139   5.278 -0.4528  0.0815 -0.4253
 5829TIP3    H138978   0.928   3.075   5.269 -1.3042  0.5926  1.8070
 5829TIP3    H238979   0.983   3.179   5.364  1.8679  1.0793 -0.4029
 5830TIP3   OH238980   5.615   4.508   2.982  0.9091  0.2850  0.1027
 5830TIP3    H138981   5.550   4.439   2.974 -0.0654  1.0953  0.8323
 5830TIP3    H238982   5.693   4.464   3.017 -0.0873 -0.2582  1.7357
 5831TIP3   OH238983   2.157   6.148   3.391 -0.5016 -0.1275  0.0328
 5831TIP3    H138984   2.077   6.188   3.424  0.7070  2.5608 -0.0121
 5831TIP3    H238985   2.218   6.221   3.383  1.3904 -1.7841 -1.6587
 5832TIP3   OH238986   5.627   5.784  14.898  0.1690 -0.3533 -0.0370
 5832TIP3    H138987   5.712   5.817  14.927  0.5219 -1.7167  0.5770
 5832TIP3    H238988   5.563   5.846  14.935  0.8937  0.8273 -0.7239
 5833TIP3   OH238989   1.139   0.752  16.901  0.1922  0.2515  0.4576
 5833TIP3    H138990   1.084   0.674  16.897 -1.2026  1.2189  0.1410
 5833TIP3    H238991   1.224   0.722  16.869 -0.9821 -0.6045 -2.1575
 5834TIP3   OH238992   2.728   4.776  16.209 -0.0130 -0.5411 -0.3063
 5834TIP3    H138993   2.734   4.827  16.128 -0.0710 -1.6494 -1.0343
 5834TIP3    H238994   2.819   4.768  16.238 -0.0342  0.2613  0.0138
 5835TIP3   OH238995   6.451   0.698  17.089  0.2812 -0.6218  0.6913
 5835TIP3    H138996   6.373   0.661  17.048  1.0807 -2.0532  0.4256
 5835TIP3    H238997   6.426   0.788  17.109 -0.6906 -0.3633 -1.4187
 5836TIP3   OH238998   1.269   5.932   4.617  0.4671  0.7742 -0.8434
 5836TIP3    H138999   1.260   5.878   4.696  0.8833 -1.0142 -1.9570
 5836TIP3    H239000   1.189   5.984   4.614 -0.8550 -1.1464 -0.6739
 5837TIP3   OH239001   1.880   1.925  13.669  0.6365  0.2549 -0.0709
 5837TIP3    H139002   1.825   1.920  13.748  2.0677  0.6643  1.0038
 5837TIP3    H239003   1.839   1.865  13.607  0.5468 -1.5862  1.6834
 5838TIP3   OH239004   1.877   1.180  16.110 -0.2118  0.7280  0.1353
 5838TIP3    H139005   1.954   1.123  16.107 -0.2310  0.7002  0.1673
 5838TIP3    H239006   1.806   1.125  16.078 -0.5324  0.2458  1.6076
 5839TIP3   OH239007   2.162   0.017  15.471 -0.4510  0.3122 -0.4944
 5839TIP3    H139008   2.080  -0.016  15.435 -0.8444  1.5977 -0.8440
 5839TIP3    H239009   2.229  -0.044  15.440 -1.4616 -1.9529  1.4754
 5840TIP3   OH239010   0.418   1.502   0.746  0.1318 -0.0530  0.0314
 5840TIP3    H139011   0.373   1.476   0.826 -0.6004  0.1420 -0.3053
 5840TIP3    H239012   0.503   1.534   0.775  0.0497 -0.4173  0.6836
 5841TIP3   OH239013   2.298   3.958   1.619 -0.2015 -0.9096  0.0085
 5841TIP3    H139014   2.338   3.954   1.531 -1.3346  1.6936 -0.7153
 5841TIP3    H239015   2.304   3.868   1.651  2.3759 -1.5044 -1.7527
 5842TIP3   OH239016   5.797   0.920  13.931  0.0371  0.3519 -0.2536
 5842TIP3    H139017   5.852   0.858  13.883  1.2153 -0.1398  1.6501
 5842TIP3    H239018   5.847   0.941  14.010 -2.0570  0.6840  1.0548
 5843TIP3   OH239019   5.233   2.761  12.880 -0.0539 -0.1829 -0.2375
 5843TIP3    H139020   5.139   2.766  12.897 -0.3850 -4.6483  0.4514
 5843TIP3    H239021   5.245   2.813  12.800 -3.0774  0.4843 -0.3880
 5844TIP3   OH239022   5.759   3.781   4.419 -0.2597 -0.4163 -0.3947
 5844TIP3    H139023   5.680   3.755   4.466 -0.7668  1.0772 -0.3507
 5844TIP3    H239024   5.817   3.705   4.424 -1.5956 -1.4484 -0.2208
 5845TIP3   OH239025   6.366   4.218  13.522  0.1576  0.2531 -0.0931
 5845TIP3    H139026   6.417   4.299  13.521 -0.3125  0.5942 -2.2638
 5845TIP3    H239027   6.311   4.226  13.600  2.0050  0.7511  1.2154
 5846TIP3   OH239028   3.270   2.049  15.064  0.3599 -0.2948 -0.3145
 5846TIP3    H139029   3.219   2.090  15.135  1.0731 -0.4884  0.3205
 5846TIP3    H239030   3.217   1.973  15.039 -0.8841  0.8619 -1.3817
 5847TIP3   OH239031   1.584   2.534   1.300  0.8210 -0.0083 -0.5742
 5847TIP3    H139032   1.545   2.562   1.382  1.4042  1.2609 -0.7154
 5847TIP3    H239033   1.662   2.484   1.326 -1.2060 -3.3219 -0.2549
 5848TIP3   OH239034   0.226   4.942   0.356  0.2457  0.0893 -0.4230
 5848TIP3    H139035   0.196   4.899   0.436  0.3517  1.2118  0.2518
 5848TIP3    H239036   0.146   4.962   0.308  0.1188  0.1839 -0.1756
 5849TIP3   OH239037   4.369   4.962   3.244 -0.8832  0.3880  0.3325
 5849TIP3    H139038   4.288   5.011   3.260 -0.1132  2.3745 -1.3648
 5849TIP3    H239039   4.357   4.923   3.158  0.0318  0.9328 -0.0610
 5850TIP3   OH239040   0.416   1.101   0.338  0.2073  0.1532 -0.0152
 5850TIP3    H139041   0.373   1.184   0.357  0.5155 -0.1554  2.2477
 5850TIP3    H239042   0.508   1.116   0.355  0.1159 -0.9445  1.7274
 5851TIP3   OH239043   5.480   2.986  11.316  0.0859  0.2348 -0.1042
 5851TIP3    H139044   5.420   3.059  11.305 -0.0217 -0.1346 -2.5789
 5851TIP3    H239045   5.424   2.911  11.338  0.0201  0.5087  0.7054
 5852TIP3   OH239046   2.814   5.008   4.171 -0.3405  0.1179 -0.2370
 5852TIP3    H139047   2.766   4.951   4.111  0.0644 -0.9101  0.3944
 5852TIP3    H239048   2.905   4.979   4.165  0.1610  1.7625 -1.0990
 5853TIP3   OH239049   5.615   2.102  10.630 -0.2904 -0.3966  0.3280
 5853TIP3    H139050   5.626   2.142  10.716 -3.1518  0.6663  0.3099
 5853TIP3    H239051   5.629   2.008  10.645  1.8551  0.0370  1.3524
 5854TIP3   OH239052   0.808   3.317  16.204  0.2757 -0.4141 -0.3550
 5854TIP3    H139053   0.777   3.253  16.141 -0.4529 -0.9169  0.4863
 5854TIP3    H239054   0.811   3.270  16.287 -2.9842  1.2268  0.9014
 5855TIP3   OH239055   6.479   4.781   3.280 -0.3757 -0.6614  0.7350
 5855TIP3    H139056   6.384   4.794   3.286 -0.5645 -0.4883 -1.7657
 5855TIP3    H239057   6.495   4.762   3.188  2.0524 -0.6284  1.0893
 5856TIP3   OH239058   5.859   5.364   1.907  0.4842  0.0399 -0.3230
 5856TIP3    H139059   5.819   5.392   1.990  2.5674  0.4448  0.6276
 5856TIP3    H239060   5.873   5.270   1.918  0.6276  0.0681 -0.2548
 5857TIP3   OH239061   1.050   5.706   5.479  0.8551  0.3839  0.2356
 5857TIP3    H139062   1.065   5.662   5.562  0.3294  0.8299  0.5677
 5857TIP3    H239063   1.032   5.636   5.417 -1.1545  0.1696  1.0017
 5858TIP3   OH239064   4.870   1.825   4.201  0.0901  0.0757 -0.1139
 5858TIP3    H139065   4.914   1.909   4.215  0.7981  0.2091 -2.5185
 5858TIP3    H239066   4.786   1.848   4.162  0.1151 -0.3077 -0.4026
 5859TIP3   OH239067   2.739   4.303   0.920 -0.5668 -0.6051  0.1974
 5859TIP3    H139068   2.703   4.239   0.858  1.6858 -1.5488 -0.2103
 5859TIP3    H239069   2.679   4.378   0.914 -2.0319 -1.8134 -0.9387
 5860TIP3   OH239070   6.591   0.958  13.232  0.4184 -0.8442  0.5255
 5860TIP3    H139071   6.512   0.923  13.191 -0.2132 -0.8066  1.6704
 5860TIP3    H239072   6.655   0.887  13.225  0.6003 -0.5331 -1.2411
 5861TIP3   OH239073   6.002   2.338   0.772 -0.3596  0.2991  0.2247
 5861TIP3    H139074   6.053   2.392   0.713 -1.1413 -0.6365 -1.3671
 5861TIP3    H239075   6.008   2.250   0.736 -0.9355 -0.3004  1.4994
 5862TIP3   OH239076   0.739   0.977   0.464  0.3446 -0.3398 -0.8781
 5862TIP3    H139077   0.692   0.991   0.546  2.1984  1.2641  0.0085
 5862TIP3    H239078   0.751   0.882   0.459 -0.6794 -0.5456  0.1877
 5863TIP3   OH239079   5.269   4.044   5.543 -0.4910  0.0086  0.0943
 5863TIP3    H139080   5.323   4.014   5.616 -2.0091 -2.2975  0.3999
 5863TIP3    H239081   5.260   3.967   5.487 -1.6721  0.9390 -1.0654
 5864TIP3   OH239082   4.697   4.471   1.400  0.3685  0.5050 -0.6383
 5864TIP3    H139083   4.759   4.405   1.368  0.8107  1.5045 -1.9544
 5864TIP3    H239084   4.708   4.544   1.339 -3.3895  0.0629 -2.0990
 5865TIP3   OH239085   6.050   4.852   2.365 -0.3864 -0.1669  0.4777
 5865TIP3    H139086   6.037   4.837   2.271  1.2218  0.7166  0.0805
 5865TIP3    H239087   6.004   4.779   2.407 -1.5205 -0.3424 -0.9619
 5866TIP3   OH239088   4.363   5.835  16.507 -0.5304  0.4854 -0.3940
 5866TIP3    H139089   4.449   5.861  16.540 -0.1741 -0.0313 -0.8983
 5866TIP3    H239090   4.331   5.912  16.461 -0.2901  0.6452 -0.2992
 5867TIP3   OH239091   1.791   1.782   4.208  0.3544  0.5069  0.1049
 5867TIP3    H139092   1.700   1.756   4.200 -0.4365  2.6828  1.0475
 5867TIP3    H239093   1.806   1.839   4.133  1.4786 -1.0873 -0.9362
 5868TIP3   OH239094   0.346   5.003  14.547 -0.2446  0.4187 -0.3558
 5868TIP3    H139095   0.386   4.932  14.598 -0.3046  1.3575  1.0753
 5868TIP3    H239096   0.362   4.979  14.456  3.6643  0.7385  0.0938
 5869TIP3   OH239097   2.996   2.652   5.561  0.3351 -0.6001  0.1969
 5869TIP3    H139098   2.975   2.622   5.650 -0.4188 -1.0206 -0.1178
 5869TIP3    H239099   3.052   2.728   5.575 -0.4216 -0.1815  1.0488
 5870TIP3   OH239100   2.693   0.349  14.364 -0.0053 -0.0542 -0.0346
 5870TIP3    H139101   2.645   0.429  14.340 -0.4786 -0.4699 -0.4951
 5870TIP3    H239102   2.733   0.321  14.282 -0.8477 -0.9618 -0.1549
 5871TIP3   OH239103   3.673   5.669  15.338  0.7868 -0.2494 -0.5600
 5871TIP3    H139104   3.631   5.660  15.423  0.7767  1.9073 -0.2704
 5871TIP3    H239105   3.642   5.754  15.305  4.6372  1.4349 -0.3914
 5872TIP3   OH239106   2.268   1.828  14.969 -0.2773  0.1841 -0.5302
 5872TIP3    H139107   2.251   1.874  15.051  0.3652 -0.1695 -0.1871
 5872TIP3    H239108   2.275   1.736  14.994  0.8856  0.1741 -0.8132
 5873TIP3   OH239109   2.435   5.228   3.386 -0.1517 -0.6512  0.0256
 5873TIP3    H139110   2.379   5.299   3.419 -1.6212 -1.6889 -0.1412
 5873TIP3    H239111   2.468   5.262   3.303  1.0795  0.7462  1.0293
 5874TIP3   OH239112   5.591   1.853   3.352 -0.9450 -0.4150  0.1853
 5874TIP3    H139113   5.504   1.837   3.390 -1.7434 -1.5559 -1.9459
 5874TIP3    H239114   5.619   1.937   3.390 -2.9199 -0.0741  1.0094
 5875TIP3   OH239115   3.072   4.505  15.469 -0.3026 -0.3167 -0.8899
 5875TIP3    H139116   3.053   4.599  15.461  1.9475  0.1228 -1.7185
 5875TIP3    H239117   3.158   4.501  15.511 -0.5076 -2.0366 -0.5671
 5876TIP3   OH239118   4.448   0.622  14.099  0.3485 -0.1491 -0.4268
 5876TIP3    H139119   4.471   0.699  14.151  1.2394 -1.3599  1.0740
 5876TIP3    H239120   4.502   0.630  14.020  2.7408 -0.6589  1.0311
 5877TIP3   OH239121   4.208   2.474   6.619  0.1075 -0.1832 -0.0284
 5877TIP3    H139122   4.118   2.448   6.640  0.6888 -0.9534  1.7415
 5877TIP3    H239123   4.204   2.569   6.613 -0.6897 -0.1344  0.8867
 5878TIP3   OH239124   1.904   5.295   2.586  0.0753  0.1946 -0.2821
 5878TIP3    H139125   1.895   5.390   2.575 -1.6968 -0.0036 -0.9185
 5878TIP3    H239126   1.826   5.259   2.543  0.4369 -1.5209  0.4368
 5879TIP3   OH239127   5.889   1.589   3.970 -0.4512  0.2510 -0.4532
 5879TIP3    H139128   5.797   1.600   3.994 -1.0850 -0.7230 -2.2652
 5879TIP3    H239129   5.921   1.521   4.029 -1.5079 -0.9148 -1.1738
 5880TIP3   OH239130   6.207   1.588  10.732  0.3952  0.1559 -0.3036
 5880TIP3    H139131   6.129   1.644  10.735  0.6171  0.5163 -1.1658
 5880TIP3    H239132   6.198   1.538  10.651  2.0239  1.6120 -1.4357
 5881TIP3   OH239133   1.862   2.556  11.607  0.3285  0.5925 -0.2134
 5881TIP3    H139134   1.904   2.529  11.688 -0.4737 -0.9965 -0.2892
 5881TIP3    H239135   1.911   2.633  11.579  0.3914  1.4045  1.9465
 5882TIP3   OH239136   0.317   3.730  11.789 -0.5019  0.1601  0.2611
 5882TIP3    H139137   0.393   3.672  11.798 -0.6385 -0.0967 -0.2262
 5882TIP3    H239138   0.338   3.785  11.713 -1.4534 -0.9279 -0.8346
 5883TIP3   OH239139   5.970   2.574   3.174 -0.6677  0.2512 -0.5063
 5883TIP3    H139140   6.058   2.609   3.162 -0.9704  0.2769 -3.3105
 5883TIP3    H239141   5.971   2.534   3.261  1.5587  1.7343  0.2319
 5884TIP3   OH239142   4.521   6.385   5.222 -0.0437 -0.0271 -0.4338
 5884TIP3    H139143   4.503   6.348   5.308  0.2443  1.8663  0.4853
 5884TIP3    H239144   4.568   6.466   5.240 -1.8716  1.5428 -2.2587
 5885TIP3   OH239145   6.664   0.965  16.149 -0.3243  0.3677 -0.3087
 5885TIP3    H139146   6.638   0.919  16.069  0.2768  0.2851 -0.4582
 5885TIP3    H239147   6.582   1.001  16.183 -0.6570 -0.0068 -0.7000
 5886TIP3   OH239148   0.545   2.255   5.064 -0.2522 -0.4141  0.2564
 5886TIP3    H139149   0.518   2.339   5.102 -1.3009 -1.1562  1.2020
 5886TIP3    H239150   0.490   2.190   5.107  1.0253 -1.6844  0.0512
 5887TIP3   OH239151   6.707   5.089   5.800 -0.1449  0.0782 -0.3925
 5887TIP3    H139152   6.696   5.076   5.894 -0.6991  0.9008 -0.3347
 5887TIP3    H239153   6.725   5.001   5.766  4.1508  0.2321  0.9517
 5888TIP3   OH239154   4.634   3.188   0.908  0.0165 -0.1198 -0.1222
 5888TIP3    H139155   4.638   3.174   0.813 -1.3351 -2.5514  0.0799
 5888TIP3    H239156   4.565   3.252   0.921 -0.5539 -0.6002 -0.7434
 5889TIP3   OH239157   5.726   2.222   5.059 -0.3217  0.3609 -0.1916
 5889TIP3    H139158   5.727   2.257   5.148  1.0951 -0.2220  0.0478
 5889TIP3    H239159   5.713   2.128   5.071 -2.8395  0.5630 -0.7639
 5890TIP3   OH239160   3.739   2.124   3.819  0.0206  0.5671 -0.2423
 5890TIP3    H139161   3.689   2.203   3.799 -1.5871 -0.3307  0.0119
 5890TIP3    H239162   3.684   2.052   3.786 -0.2553 -0.6609  2.5276
 5891TIP3   OH239163   3.127   1.666  17.388 -0.3807  0.0794  0.2423
 5891TIP3    H139164   3.149   1.727  17.318 -1.3738 -0.7929 -0.8743
 5891TIP3    H239165   3.041   1.695  17.420 -0.0795  0.2798  0.8916
 5892TIP3   OH239166   0.480   2.992   6.161 -0.0621 -0.5447  0.2292
 5892TIP3    H139167   0.433   3.034   6.089  0.6622 -0.0610  0.0248
 5892TIP3    H239168   0.571   3.022   6.151  0.0633 -0.5150  1.3038
 5893TIP3   OH239169   3.615   2.866  16.942  0.1446  0.5045 -0.2683
 5893TIP3    H139170   3.570   2.869  16.858 -1.2556 -1.0879  0.3701
 5893TIP3    H239171   3.556   2.911  17.002  0.3257  0.1230  0.1992
 5894TIP3   OH239172   1.640   5.931  13.506  0.8057  0.3270 -0.0597
 5894TIP3    H139173   1.590   6.004  13.468  0.8658 -0.2132 -1.2159
 5894TIP3    H239174   1.588   5.903  13.582  0.7632  1.5304  0.3778
 5895TIP3   OH239175   2.190   3.709   0.874  0.2236 -0.1501 -0.0174
 5895TIP3    H139176   2.154   3.624   0.845  1.2705 -1.5099  2.3982
 5895TIP3    H239177   2.159   3.719   0.964  1.7416  1.0686  0.4079
 5896TIP3   OH239178   1.252   4.137   2.400 -0.0674 -0.1710  0.1764
 5896TIP3    H139179   1.291   4.058   2.362  0.7049 -0.5343  1.6645
 5896TIP3    H239180   1.159   4.118   2.405  0.0280 -0.7374 -0.0755
 5897TIP3   OH239181   4.624   0.932   5.989  0.3304 -0.0734 -0.9113
 5897TIP3    H139182   4.679   0.853   5.985  0.3663 -0.2165  1.0903
 5897TIP3    H239183   4.679   1.001   5.953  1.3685 -0.4743 -0.1616
 5898TIP3   OH239184   0.670   0.979   0.047  0.9065 -0.6128 -0.1986
 5898TIP3    H139185   0.622   0.931   0.115  0.2236 -0.7368 -0.7502
 5898TIP3    H239186   0.762   0.957   0.062  0.7044 -1.1464  0.2895
 5899TIP3   OH239187   4.014   6.274  12.170  0.1196 -0.0553  0.1873
 5899TIP3    H139188   3.942   6.282  12.233 -1.2670  0.6803 -1.4106
 5899TIP3    H239189   3.981   6.316  12.091  1.9065 -0.7128 -0.9571
 5900TIP3   OH239190   3.018   5.655  11.629 -0.2082  0.0279 -0.0212
 5900TIP3    H139191   3.022   5.568  11.668 -0.3670 -0.4122 -0.9717
 5900TIP3    H239192   2.926   5.681  11.636 -0.2911 -0.1737 -0.3691
 5901TIP3   OH239193   2.811   2.354   4.724 -0.0512 -0.2000 -0.0923
 5901TIP3    H139194   2.746   2.294   4.761  0.3474  0.0922  1.1229
 5901TIP3    H239195   2.781   2.370   4.634 -1.3365 -0.5098  0.2658
 5902TIP3   OH239196   3.010   3.640  13.486  0.2688 -0.4322  0.5289
 5902TIP3    H139197   3.055   3.724  13.484 -0.4726  0.0444  2.0431
 5902TIP3    H239198   2.970   3.631  13.399 -0.2319  1.1294  0.5650
 5903TIP3   OH239199   0.158   3.985   0.027 -0.4717  0.5220 -0.0439
 5903TIP3    H139200   0.156   4.053   0.095 -1.1475 -2.6305  3.4217
 5903TIP3    H239201   0.068   3.984  -0.007 -0.8277  0.5459  0.8487
 5904TIP3   OH239202   6.331   5.629  16.875 -0.1781  1.1026  0.3076
 5904TIP3    H139203   6.345   5.536  16.855 -0.5525  0.6505  1.9768
 5904TIP3    H239204   6.255   5.630  16.933 -1.4626  2.6709 -1.3131
 5905TIP3   OH239205   5.483   1.155   5.337 -0.0333  0.0628  0.4061
 5905TIP3    H139206   5.490   1.236   5.388  3.3661  0.2274 -0.0846
 5905TIP3    H239207   5.532   1.174   5.257 -0.1154 -2.1422 -0.2067
 5906TIP3   OH239208   6.564   6.379  16.469 -0.1661  0.6104 -0.1068
 5906TIP3    H139209   6.606   6.308  16.517 -1.5211 -0.4471 -0.4259
 5906TIP3    H239210   6.472   6.356  16.467 -0.3664  1.3813 -1.9099
 5907TIP3   OH239211   4.896   5.002  15.643  1.0877  0.0393 -0.0691
 5907TIP3    H139212   4.855   5.049  15.715 -0.5111  1.3296 -1.7078
 5907TIP3    H239213   4.852   5.035  15.565  0.3616 -3.6437 -1.4539
 5908TIP3   OH239214   0.291   0.764  17.370  0.4883  0.6641  0.5181
 5908TIP3    H139215   0.371   0.817  17.363  0.3505  1.2809  2.8845
 5908TIP3    H239216   0.276   0.755  17.464 -2.1910  0.4902  0.1530
 5909TIP3   OH239217   5.642   5.413   4.837 -0.8899 -0.2252 -0.4073
 5909TIP3    H139218   5.675   5.429   4.749 -0.6846 -1.0617 -0.4891
 5909TIP3    H239219   5.550   5.441   4.834 -0.6301  0.6138 -0.6188
 5910TIP3   OH239220   0.987   6.581  14.466 -0.1690 -0.3136  0.0370
 5910TIP3    H139221   0.932   6.657  14.448  0.4318  0.3937  1.0592
 5910TIP3    H239222   1.056   6.584  14.400 -0.4743 -0.3110 -0.2813
 5911TIP3   OH239223   4.271   4.503   0.438  0.1514  0.3505 -0.2076
 5911TIP3    H139224   4.279   4.432   0.374  0.4073  1.0762 -1.0142
 5911TIP3    H239225   4.346   4.492   0.496 -0.7569 -1.0520  0.7541
 5912TIP3   OH239226   5.323   5.595  14.081  0.0206  0.3569 -0.1263
 5912TIP3    H139227   5.340   5.503  14.061 -0.0472  0.5678 -1.2499
 5912TIP3    H239228   5.337   5.603  14.175  1.6009 -0.4568 -0.2637
 5913TIP3   OH239229   3.451   2.007   4.797  0.2724 -0.7241  0.0449
 5913TIP3    H139230   3.428   2.049   4.714  1.4629 -0.3674 -0.1297
 5913TIP3    H239231   3.368   1.996   4.843 -0.3849 -0.8048 -1.1363
 5914TIP3   OH239232   4.134   2.395   0.796 -0.4240  0.0603  0.0322
 5914TIP3    H139233   4.099   2.480   0.822  1.1549  1.2533 -1.5084
 5914TIP3    H239234   4.058   2.337   0.795 -1.8144  1.8074 -0.3045
 5915TIP3   OH239235   5.777   3.012   0.644 -0.2386  0.4397 -0.1890
 5915TIP3    H139236   5.792   2.997   0.737  2.5397  0.4302 -0.5574
 5915TIP3    H239237   5.686   3.042   0.639  0.0494  2.1460  2.6933
 5916TIP3   OH239238   1.907   4.910   1.548  0.0175  0.2486 -0.4717
 5916TIP3    H139239   1.846   4.912   1.474  1.2639 -0.0909 -1.5320
 5916TIP3    H239240   1.856   4.946   1.621 -0.7790  2.0981 -1.8388
 5917TIP3   OH239241   5.217   0.294  15.424 -0.1869 -0.2977 -0.2511
 5917TIP3    H139242   5.293   0.254  15.382 -1.4734 -4.1662  0.6331
 5917TIP3    H239243   5.251   0.332  15.504  1.0193 -0.7224 -0.5427
 5918TIP3   OH239244   6.627   6.017   1.310 -0.3910 -0.3406  0.0682
 5918TIP3    H139245   6.557   5.981   1.365 -1.0652 -0.7871 -1.0497
 5918TIP3    H239246   6.694   6.046   1.372 -0.6401 -1.8260  1.0744
 5919TIP3   OH239247   1.954   4.507   6.221  0.3354 -0.3226  0.0208
 5919TIP3    H139248   1.971   4.489   6.313  0.3338 -0.2874  0.0283
 5919TIP3    H239249   1.929   4.600   6.220  1.3344 -0.0428 -0.1500
 5920TIP3   OH239250   5.394   0.085  14.107 -0.2429  0.7279 -0.1836
 5920TIP3    H139251   5.352   0.016  14.158  0.9365  1.8557  2.5102
 5920TIP3    H239252   5.322   0.129  14.062 -1.0950 -1.7203 -1.3831
 5921TIP3   OH239253   4.969   2.425   5.018  0.1787 -0.3580 -0.1969
 5921TIP3    H139254   4.955   2.446   5.110  0.3639 -0.6168 -0.1074
 5921TIP3    H239255   5.050   2.471   4.995 -0.9406  1.3885 -0.7998
 5922TIP3   OH239256   5.918   6.299  10.602  0.2293  0.4715  0.3913
 5922TIP3    H139257   5.895   6.206  10.601  1.2720  0.1104  2.8059
 5922TIP3    H239258   5.864   6.336  10.672  1.4903  1.1573  1.0362
 5923TIP3   OH239259   6.574   1.373  12.110  0.0746 -0.3903  0.5459
 5923TIP3    H139260   6.642   1.425  12.067  0.8519 -1.2008  0.7625
 5923TIP3    H239261   6.619   1.292  12.136 -0.6672 -0.4093  1.8262
 5924TIP3   OH239262   2.443   4.453   1.741 -0.1455  0.3403  0.5280
 5924TIP3    H139263   2.482   4.528   1.697  0.4113  0.5099  1.2910
 5924TIP3    H239264   2.468   4.463   1.833 -0.0283 -0.8007  0.6347
 5925TIP3   OH239265   2.327   4.719  12.811 -0.5380 -0.3051  0.1090
 5925TIP3    H139266   2.356   4.808  12.793 -2.7851  0.3924 -0.4118
 5925TIP3    H239267   2.260   4.729  12.879 -0.3913 -1.6755  0.4840
 5926TIP3   OH239268   4.177   2.757  12.517 -0.0648  0.2945 -0.4164
 5926TIP3    H139269   4.109   2.697  12.550 -1.0208  1.4905 -0.1363
 5926TIP3    H239270   4.221   2.789  12.596  1.0488 -0.6851 -0.6088
 5927TIP3   OH239271   0.537   1.674   2.746  0.4227 -0.0296 -0.0035
 5927TIP3    H139272   0.593   1.608   2.705  0.4223  1.1761 -2.1059
 5927TIP3    H239273   0.580   1.695   2.829  1.5275 -1.1709 -0.2579
 5928TIP3   OH239274   6.384   5.748  14.768 -0.2776 -0.2871  0.0338
 5928TIP3    H139275   6.425   5.767  14.852 -0.1904  0.3171 -0.1411
 5928TIP3    H239276   6.457   5.734  14.708 -0.3246  0.3267 -0.1723
 5929TIP3   OH239277   6.527   3.119   4.896  0.3878  0.0008  0.3396
 5929TIP3    H139278   6.529   3.030   4.931 -1.4465 -0.3890 -0.4917
 5929TIP3    H239279   6.491   3.171   4.968  3.1401  0.4886  1.5216
 5930TIP3   OH239280   3.629   3.420   3.246 -0.1693 -0.0905 -0.0644
 5930TIP3    H139281   3.614   3.325   3.242  0.5341 -0.2075  0.0184
 5930TIP3    H239282   3.722   3.429   3.266 -0.0434  0.6203 -0.9045
 5931TIP3   OH239283   3.381   2.423   1.362  0.0982  0.0345  0.4999
 5931TIP3    H139284   3.430   2.365   1.303 -1.4636 -0.0242 -0.7997
 5931TIP3    H239285   3.434   2.503   1.366  1.3819 -0.7917  0.9052
 5932TIP3   OH239286   4.596   2.943   4.420  0.7458 -0.2060  0.0708
 5932TIP3    H139287   4.677   2.892   4.420  0.5944 -0.5039  1.7605
 5932TIP3    H239288   4.527   2.879   4.440  0.1854  0.1903 -0.5428
 5933TIP3   OH239289   4.578   5.882  17.379  0.6043  0.5289 -0.8045
 5933TIP3    H139290   4.535   5.827  17.314 -0.1688 -0.1270  0.2356
 5933TIP3    H239291   4.539   5.969  17.367 -0.3002  0.1667 -0.5209
 5934TIP3   OH239292   4.520   3.511  11.808  1.0150  0.0999  0.0514
 5934TIP3    H139293   4.519   3.594  11.759  0.6478 -1.0349 -1.9702
 5934TIP3    H239294   4.553   3.535  11.895  1.7928  2.2072 -0.7535
 5935TIP3   OH239295   5.772   5.908  15.273  0.2968 -0.2639 -0.0896
 5935TIP3    H139296   5.791   5.854  15.349 -0.0836 -1.3441 -0.7316
 5935TIP3    H239297   5.855   5.911  15.225 -0.2356 -2.3428 -1.2775
 5936TIP3   OH239298   0.936   6.598   0.040  0.0808 -0.6059 -0.7940
 5936TIP3    H139299   0.973   6.575  -0.045  0.5487 -0.5431 -0.6129
 5936TIP3    H239300   0.939   6.693   0.044  2.6250 -0.6403  0.3637
 5937TIP3   OH239301   6.445   1.220  16.155  0.0963 -0.1505  0.1723
 5937TIP3    H139302   6.507   1.205  16.084 -0.4415  0.7130 -0.5076
 5937TIP3    H239303   6.360   1.198  16.117  0.0009 -1.6523  1.1959
 5938TIP3   OH239304   4.437   3.191  13.512  0.2287 -0.5083 -0.5460
 5938TIP3    H139305   4.459   3.118  13.454 -0.2117 -0.7259 -0.4456
 5938TIP3    H239306   4.351   3.220  13.481  0.4821  0.0885 -0.7015
 5939TIP3   OH239307   0.348   0.553   2.034  0.2259  0.4280  0.5232
 5939TIP3    H139308   0.433   0.590   2.055  0.3142 -0.1264  1.1632
 5939TIP3    H239309   0.336   0.571   1.941  1.1181  0.3621  0.3907
 5940TIP3   OH239310   4.419   1.953  10.968 -0.2308  0.0782 -0.4416
 5940TIP3    H139311   4.401   1.956  11.062  0.2459  2.5744 -0.3593
 5940TIP3    H239312   4.363   1.883  10.935 -1.0681 -0.2712  1.5712
 5941TIP3   OH239313   5.666   2.869  15.490  0.2896  0.0985  0.0962
 5941TIP3    H139314   5.747   2.920  15.486 -0.1707  0.7873 -1.1549
 5941TIP3    H239315   5.676   2.813  15.567  1.9602  0.1517 -0.0481
 5942TIP3   OH239316   6.134   3.432   0.190 -0.5118 -0.1763  0.7320
 5942TIP3    H139317   6.136   3.399   0.280 -1.1475  1.2394  1.3067
 5942TIP3    H239318   6.065   3.499   0.191  0.5768  1.0219 -0.3862
 5943TIP3   OH239319   2.341   1.663   5.916 -0.2879  0.3223 -0.3182
 5943TIP3    H139320   2.390   1.656   5.834  2.2365  0.2523  1.0890
 5943TIP3    H239321   2.339   1.757   5.935  0.4412  0.2453  0.2177
 5944TIP3   OH239322   1.704   6.243   2.134  0.0656 -0.1290 -0.3158
 5944TIP3    H139323   1.755   6.318   2.165 -2.4281  1.7295 -0.3668
 5944TIP3    H239324   1.769   6.175   2.116  2.2325  0.9745  2.5128
 5945TIP3   OH239325   0.132   5.433   2.510  0.2692  0.3855 -0.8983
 5945TIP3    H139326   0.152   5.495   2.580  2.7425  0.5151 -1.6258
 5945TIP3    H239327   0.169   5.350   2.540  0.2300  0.1430 -1.5040
 5946TIP3   OH239328   2.483   1.179  15.266 -0.4875 -0.4309 -0.6462
 5946TIP3    H139329   2.509   1.206  15.178  1.3042  0.4023  0.0837
 5946TIP3    H239330   2.460   1.260  15.311 -0.8197 -0.7853 -0.1625
 5947TIP3   OH239331   1.606   3.774  11.458  0.2367 -0.7939  0.4635
 5947TIP3    H139332   1.697   3.761  11.483  0.2401  0.1319  0.9950
 5947TIP3    H239333   1.556   3.742  11.533  0.1238 -1.2292  0.2051
 5948TIP3   OH239334   3.950   2.565  11.901  0.5493 -0.3976 -0.6117
 5948TIP3    H139335   3.899   2.490  11.872  0.8506 -1.2439  0.9472
 5948TIP3    H239336   4.002   2.532  11.974  0.8807  1.2647 -0.0552
 5949TIP3   OH239337   4.333   0.810   0.953 -0.4262 -0.0568  0.5072
 5949TIP3    H139338   4.396   0.881   0.942  1.7225 -1.8088  0.8147
 5949TIP3    H239339   4.289   0.803   0.868  0.6843  0.4232 -0.1295
 5950TIP3   OH239340   6.492   0.274  14.425  0.1958  0.0250  0.1516
 5950TIP3    H139341   6.520   0.193  14.383  1.4003  0.7757 -0.5828
 5950TIP3    H239342   6.440   0.247  14.499 -2.3685 -1.4048 -2.0137
 5951TIP3   OH239343   6.062   0.773   2.575 -0.2319 -0.1944 -0.0764
 5951TIP3    H139344   6.088   0.757   2.666 -4.7827  0.6238  1.6240
 5951TIP3    H239345   6.096   0.861   2.557 -0.0853  0.0515  1.2419
 5952TIP3   OH239346   6.645   1.684   0.104 -0.4876  0.0674  0.5621
 5952TIP3    H139347   6.609   1.740   0.035 -1.2047 -0.1138  0.7849
 5952TIP3    H239348   6.715   1.635   0.061  0.1063  1.0803  0.3458
 5953TIP3   OH239349   5.507   1.278  14.859 -0.2073  0.2695  0.1223
 5953TIP3    H139350   5.504   1.184  14.874  0.5100  0.0522 -1.0052
 5953TIP3    H239351   5.585   1.291  14.805  1.4681  1.8469  2.6685
 5954TIP3   OH239352   1.753   3.267  12.094  0.4963  0.5377  0.0678
 5954TIP3    H139353   1.678   3.308  12.050  0.2883 -0.2718 -0.3510
 5954TIP3    H239354   1.829   3.314  12.061  0.5754 -1.4170 -2.9403
 5955TIP3   OH239355   0.654   5.840   3.436 -0.0647  0.3347 -0.2656
 5955TIP3    H139356   0.708   5.865   3.362  0.3456  0.8038  0.1852
 5955TIP3    H239357   0.716   5.803   3.500 -0.4187 -0.1259 -0.1771
 5956TIP3   OH239358   0.747   3.005  12.665 -0.3171 -0.2539 -0.7574
 5956TIP3    H139359   0.808   3.034  12.598  1.7721  0.6563  1.3767
 5956TIP3    H239360   0.791   2.931  12.707 -0.3670  0.7137  1.1325
 5957TIP3   OH239361   2.050   0.459  12.189 -0.5595 -0.6710  0.3651
 5957TIP3    H139362   2.055   0.513  12.268 -0.3736  0.1812 -0.2098
 5957TIP3    H239363   2.003   0.513  12.126  1.2303 -0.3910 -0.8253
 5958TIP3   OH239364   1.521   3.903   2.229  0.6464 -0.9570 -0.5528
 5958TIP3    H139365   1.500   3.914   2.322  2.6922 -0.8786 -0.0544
 5958TIP3    H239366   1.481   3.979   2.187 -1.6740 -1.8056 -0.0243
 5959TIP3   OH239367   2.708   1.487  11.737 -0.0189 -0.1006  0.0730
 5959TIP3    H139368   2.621   1.458  11.709 -1.0185  2.0286  0.7157
 5959TIP3    H239369   2.725   1.437  11.817 -1.1972  0.2787  0.5803
 5960TIP3   OH239370   5.552   4.565   5.815 -0.4710 -0.1759  0.0418
 5960TIP3    H139371   5.568   4.608   5.730  0.8929  0.5309  0.6256
 5960TIP3    H239372   5.492   4.624   5.860 -1.3055 -0.6188 -0.4646
 5961TIP3   OH239373   3.110   4.140  15.213 -0.3486 -0.0533  0.0685
 5961TIP3    H139374   3.018   4.126  15.236 -0.4399  1.8767  1.1670
 5961TIP3    H239375   3.106   4.189  15.131 -0.1628 -2.2652 -1.3492
 5962TIP3   OH239376   5.001   6.614   6.303  0.4535 -0.4479 -0.4098
 5962TIP3    H139377   5.076   6.638   6.358  0.9667 -0.4243 -1.0987
 5962TIP3    H239378   4.981   6.524   6.327 -0.3014  0.0401  0.8842
 5963TIP3   OH239379   0.777   2.853   6.150 -0.6686 -0.2715 -0.0626
 5963TIP3    H139380   0.868   2.851   6.177 -0.9233 -0.6749  0.8181
 5963TIP3    H239381   0.769   2.930   6.094 -0.0626  0.4616  0.8452
 5964TIP3   OH239382   0.254   2.172   0.216  0.0479  0.7571 -0.1401
 5964TIP3    H139383   0.178   2.230   0.215  0.6657  1.5993 -0.0241
 5964TIP3    H239384   0.328   2.230   0.235  0.8243  0.0902 -0.9934
 5965TIP3   OH239385   0.871   0.221   5.535  0.5629 -0.0461  0.0474
 5965TIP3    H139386   0.963   0.232   5.557  0.0145  3.6169  1.0647
 5965TIP3    H239387   0.856   0.277   5.459 -0.8877 -0.3723  0.0459
 5966TIP3   OH239388   3.179   2.688   4.248 -0.3959  0.7246  0.4924
 5966TIP3    H139389   3.195   2.677   4.342  0.2666 -0.7412  0.2522
 5966TIP3    H239390   3.196   2.780   4.231 -0.7336  1.0582  1.8475
 5967TIP3   OH239391   3.020   2.193   3.251 -0.0854  0.1225  0.5441
 5967TIP3    H139392   2.936   2.167   3.289  0.3074 -1.3650  0.4368
 5967TIP3    H239393   3.054   2.114   3.210  0.5975  1.1085 -0.8941
 5968TIP3   OH239394   0.181   0.494  12.182 -0.2434  0.2184  0.0220
 5968TIP3    H139395   0.227   0.462  12.259  0.3675 -0.9799 -0.8090
 5968TIP3    H239396   0.112   0.550  12.216 -0.7648 -1.2533  1.4899
 5969TIP3   OH239397   3.353   3.219  16.364  0.5742  0.5375 -0.1511
 5969TIP3    H139398   3.273   3.217  16.311  0.2967 -0.8700  0.2590
 5969TIP3    H239399   3.370   3.312  16.379 -0.2954  0.8965 -1.2733
 5970TIP3   OH239400   6.382   6.443  14.837  0.9768 -0.5827 -0.0591
 5970TIP3    H139401   6.388   6.503  14.762  0.7833 -0.4483  0.0344
 5970TIP3    H239402   6.402   6.357  14.800 -0.0718 -0.6686 -0.4599
 5971TIP3   OH239403   5.586   2.259   2.649  0.3543 -0.9495  0.1336
 5971TIP3    H139404   5.544   2.340   2.676  0.1943 -1.5903  1.9956
 5971TIP3    H239405   5.671   2.286   2.615 -0.8760  0.2216 -2.2101
 5972TIP3   OH239406   0.182   2.370   5.487  0.1193  0.3934  0.0736
 5972TIP3    H139407   0.275   2.392   5.493  0.5671 -1.4132  0.4094
 5972TIP3    H239408   0.181   2.277   5.466 -1.6262  0.2408  0.6909
 5973TIP3   OH239409   1.020   3.939  11.722 -0.1391  0.4884 -0.1653
 5973TIP3    H139410   1.091   3.911  11.780 -1.5666 -0.8923  1.0179
 5973TIP3    H239411   0.948   3.962  11.782 -1.9847 -1.8529 -1.3212
 5974TIP3   OH239412   3.809   6.252   6.408  0.5353 -0.1233  0.4180
 5974TIP3    H139413   3.757   6.253   6.328  0.3433  0.3910  0.5475
 5974TIP3    H239414   3.833   6.160   6.420 -0.7259 -0.4404  0.6078
 5975TIP3   OH239415   5.263   4.505  12.532 -0.2639  0.2868  0.1985
 5975TIP3    H139416   5.313   4.444  12.587 -2.4281 -4.3915 -2.4271
 5975TIP3    H239417   5.184   4.523  12.583  0.0465  0.3029  0.6883
 5976TIP3   OH239418   5.553   4.042   4.649  0.2540  0.5897 -0.3916
 5976TIP3    H139419   5.541   3.987   4.572 -2.1519  0.5245 -0.0522
 5976TIP3    H239420   5.473   4.093   4.655  0.1855  0.3484  2.2255
 5977TIP3   OH239421   1.405   4.951  16.571  0.4778  0.4219  0.6385
 5977TIP3    H139422   1.482   4.996  16.535 -0.6004  1.7623 -0.0667
 5977TIP3    H239423   1.379   4.890  16.503 -0.3419  1.4991 -0.0323
 5978TIP3   OH239424   6.743   3.427  14.662 -0.3280 -0.7474  0.0922
 5978TIP3    H139425   6.686   3.473  14.724  1.5055 -2.2557  3.1141
 5978TIP3    H239426   6.794   3.367  14.716  3.8002  0.1116 -2.4307
 5979TIP3   OH239427   0.508   2.359   1.869 -0.1652 -0.2184  0.9585
 5979TIP3    H139428   0.480   2.446   1.840 -1.7260 -0.0608  2.7300
 5979TIP3    H239429   0.427   2.311   1.886  0.5705 -0.7452  3.5436
 5980TIP3   OH239430   4.842   0.402   2.688  0.4401 -0.2009  0.0564
 5980TIP3    H139431   4.866   0.370   2.776 -2.0342  0.3435  0.9938
 5980TIP3    H239432   4.850   0.497   2.695  0.6682 -0.1820 -0.4580
 5981TIP3   OH239433   2.393   4.516   4.393  0.1647  0.2329  0.6304
 5981TIP3    H139434   2.437   4.563   4.464  0.6059 -0.9742  1.1896
 5981TIP3    H239435   2.349   4.584   4.343  0.3800  1.1827  1.6847
 5982TIP3   OH239436   1.402   2.225   2.953  0.2626 -0.1706 -1.1507
 5982TIP3    H139437   1.458   2.292   2.993 -2.1489  0.7258  1.0574
 5982TIP3    H239438   1.415   2.236   2.859  3.1912  0.4096 -0.7640
 5983TIP3   OH239439   5.625   0.602   0.880  0.4682 -0.7415  0.1033
 5983TIP3    H139440   5.595   0.595   0.970 -1.6627 -0.1383 -0.5211
 5983TIP3    H239441   5.662   0.690   0.874 -0.6177 -0.2817  0.0527
 5984TIP3   OH239442   1.260   6.403   4.176 -0.5232  0.1872 -0.8187
 5984TIP3    H139443   1.290   6.366   4.259  2.2330  0.5201 -1.5807
 5984TIP3    H239444   1.196   6.469   4.200 -0.2572 -0.1756  0.9904
 5985TIP3   OH239445   1.166   6.210  10.521 -0.0295  0.2564  0.0917
 5985TIP3    H139446   1.256   6.181  10.507 -0.2069 -0.2266 -0.0593
 5985TIP3    H239447   1.169   6.257  10.605 -0.2553 -2.6649  1.8863
 5986TIP3   OH239448   4.326   3.150   2.856  0.2318  0.3456  0.0219
 5986TIP3    H139449   4.317   3.091   2.781 -2.2807 -1.0740  1.2772
 5986TIP3    H239450   4.394   3.110   2.910  0.2451 -0.0631 -0.2918
 5987TIP3   OH239451   4.062   3.042   3.914  0.1217  0.1019  0.9103
 5987TIP3    H139452   4.077   2.965   3.860 -0.4952 -0.6147  1.7357
 5987TIP3    H239453   4.053   3.114   3.852  0.2732 -0.5623  0.1084
 5988TIP3   OH239454   0.833   2.240   5.028  0.2157  0.4766  0.1246
 5988TIP3    H139455   0.740   2.262   5.020  0.0950  0.5011  1.3756
 5988TIP3    H239456   0.875   2.323   5.052  0.4444  0.2995  0.3340
 5989TIP3   OH239457   3.835   0.283  16.943 -0.1995  0.0709 -0.1671
 5989TIP3    H139458   3.880   0.285  17.028  1.8878  1.4405 -1.2166
 5989TIP3    H239459   3.776   0.208  16.949  1.0315 -0.8148  1.9249
 5990TIP3   OH239460   4.083   0.452   1.307 -0.2398 -0.6041  0.6228
 5990TIP3    H139461   4.172   0.469   1.336 -0.1694  1.3955 -0.5632
 5990TIP3    H239462   4.084   0.362   1.275  1.5450 -0.3883 -0.0053
 5991TIP3   OH239463   5.483   0.211  16.598 -0.4145 -0.2316  0.3117
 5991TIP3    H139464   5.566   0.162  16.591 -0.9219 -1.1143  0.2443
 5991TIP3    H239465   5.420   0.156  16.552 -0.8290  0.9606 -0.5856
 5992TIP3   OH239466   4.265   3.803  16.790 -0.5688 -0.0775  0.4233
 5992TIP3    H139467   4.192   3.864  16.781  0.4114  1.1016  0.1944
 5992TIP3    H239468   4.342   3.853  16.763  0.6271 -0.6248  2.5070
 5993TIP3   OH239469   4.679   0.338   2.064  0.0556 -0.3706  0.1003
 5993TIP3    H139470   4.722   0.395   2.000  0.0955 -0.3815  0.1168
 5993TIP3    H239471   4.743   0.332   2.135 -1.6467  3.2097  2.2110
 5994TIP3   OH239472   5.351   0.656  13.304 -0.0389 -0.3528 -0.0759
 5994TIP3    H139473   5.400   0.575  13.288  0.7599  0.0097  0.5196
 5994TIP3    H239474   5.417   0.724  13.307 -0.5627  0.1241  0.9088
 5995TIP3   OH239475   6.644   1.346  17.444  0.2799  0.2164 -0.6101
 5995TIP3    H139476   6.633   1.310  17.356 -1.9456 -0.5778 -0.0765
 5995TIP3    H239477   6.580   1.416  17.449 -0.7366 -0.7588  0.8374
 5996TIP3   OH239478   2.072   6.276  11.832  0.5869 -0.2220  0.1930
 5996TIP3    H139479   2.056   6.183  11.844  2.5064 -0.5295  0.7335
 5996TIP3    H239480   1.986   6.313  11.810 -0.1587 -2.1347 -0.3036
 5997TIP3   OH239481   6.626   5.129   5.124  0.1506 -0.3359 -0.2551
 5997TIP3    H139482   6.690   5.146   5.054  0.9061  0.0650  0.5174
 5997TIP3    H239483   6.679   5.110   5.201 -0.6626  0.2514  0.4659
 5998TIP3   OH239484   6.380   2.916   4.193  0.8433 -0.0056  0.0616
 5998TIP3    H139485   6.288   2.942   4.199  1.2394  2.2185 -2.0428
 5998TIP3    H239486   6.379   2.821   4.201 -1.6273 -0.0332  0.0643
 5999TIP3   OH239487   3.282   3.321  11.242 -0.2329  0.2998 -0.1662
 5999TIP3    H139488   3.209   3.312  11.180  0.6181 -1.0059 -1.0374
 5999TIP3    H239489   3.328   3.238  11.236  1.3281  1.0925  0.3755
 6000TIP3   OH239490   0.732   5.814  15.295 -0.4337  0.0459 -0.6918
 6000TIP3    H139491   0.705   5.891  15.244  1.7273  0.2965 -1.5662
 6000TIP3    H239492   0.650   5.779  15.331 -1.9460  0.5996 -3.3195
 6001TIP3   OH239493   5.058   3.984  12.968 -0.4386 -0.1540  0.1917
 6001TIP3    H139494   5.129   4.007  12.908  0.3466 -2.4955  0.1237
 6001TIP3    H239495   4.995   3.935  12.915  0.1399 -2.0316  1.1274
 6002TIP3   OH239496   5.313   4.173  11.190 -0.0796 -0.0566 -0.0274
 6002TIP3    H139497   5.354   4.245  11.143  1.6931 -0.6237  0.6008
 6002TIP3    H239498   5.243   4.143  11.131  0.2821  1.0480 -1.0479
 6003TIP3   OH239499   5.271   3.257  11.656 -0.2383  0.0719 -0.7980
 6003TIP3    H139500   5.260   3.326  11.722 -1.1830  0.4365 -1.3106
 6003TIP3    H239501   5.339   3.290  11.597 -0.3800  0.3794 -0.7929
 6004TIP3   OH239502   3.268   1.326  16.789  0.2038  0.0258 -0.5245
 6004TIP3    H139503   3.292   1.233  16.789 -1.2203 -0.3618  0.0314
 6004TIP3    H239504   3.349   1.371  16.766  1.4236 -1.2328  1.0548
 6005TIP3   OH239505   3.696   1.704  14.868  0.4601  0.3518 -0.1126
 6005TIP3    H139506   3.725   1.747  14.787 -0.5077 -0.1130 -0.7215
 6005TIP3    H239507   3.665   1.618  14.840 -1.1139  0.6671  0.5476
 6006TIP3   OH239508   3.132   5.006  16.918 -0.0313  0.0387 -0.2897
 6006TIP3    H139509   3.123   5.030  17.010 -0.0912 -0.3116 -0.2026
 6006TIP3    H239510   3.043   5.013  16.883 -0.1606 -0.6780 -0.1099
 6007TIP3   OH239511   5.375   5.064  13.940  0.2327 -0.3395 -0.0971
 6007TIP3    H139512   5.347   4.975  13.918 -3.9453  1.1572 -1.7665
 6007TIP3    H239513   5.318   5.090  14.012 -0.0502  1.6468 -0.9833
 6008TIP3   OH239514   1.204   1.677  11.288  0.0253  0.1352 -0.0050
 6008TIP3    H139515   1.130   1.724  11.250  1.3045  1.1641 -1.3259
 6008TIP3    H239516   1.203   1.592  11.246  1.2607  1.1615 -2.2614
 6009TIP3   OH239517   3.475   0.057  14.965  0.1724  0.3179 -0.0882
 6009TIP3    H139518   3.467   0.120  14.894  0.7340  0.5611  0.0615
 6009TIP3    H239519   3.502   0.109  15.040  2.3019 -0.3124 -0.3540
 6010TIP3   OH239520   0.263   5.910   1.516  0.3658 -0.3823 -0.0674
 6010TIP3    H139521   0.344   5.916   1.466 -1.3142  2.6831 -2.8623
 6010TIP3    H239522   0.212   5.843   1.470  0.0034  0.2156 -0.5494
 6011TIP3   OH239523   6.765   0.211   5.097  0.1538  0.4189 -0.3428
 6011TIP3    H139524   6.798   0.301   5.097 -2.0402  1.4724  3.0901
 6011TIP3    H239525   6.669   0.221   5.097 -0.1847 -1.7441  1.9029
 6012TIP3   OH239526   2.666   0.427  10.906 -0.2402 -0.4713 -0.2710
 6012TIP3    H139527   2.707   0.350  10.867  1.0776 -0.9468  1.8974
 6012TIP3    H239528   2.735   0.493  10.908 -0.3394 -0.3844  0.9836
 6013TIP3   OH239529   1.349   5.354  16.520  0.2226 -0.0496  0.3074
 6013TIP3    H139530   1.362   5.370  16.427  0.8940  0.6301  0.5000
 6013TIP3    H239531   1.410   5.284  16.541  0.2484 -0.0348  0.2828
 6014TIP3   OH239532   5.104   4.370   4.808  0.3363  0.0143  0.2717
 6014TIP3    H139533   5.132   4.436   4.744 -1.5781 -0.2090 -0.8693
 6014TIP3    H239534   5.092   4.290   4.756 -3.7013  0.4096  0.2503
 6015TIP3   OH239535   3.412   2.452  15.839 -0.0763  0.8119 -0.1764
 6015TIP3    H139536   3.489   2.504  15.816 -0.1761  1.2762  0.5159
 6015TIP3    H239537   3.339   2.499  15.797  0.1301 -0.3524 -1.9684
 6016TIP3   OH239538   1.239   5.467  15.552 -0.1768 -0.5722  0.0094
 6016TIP3    H139539   1.310   5.531  15.553  1.3627 -2.1516 -1.4951
 6016TIP3    H239540   1.228   5.444  15.460 -1.1263 -1.9902  0.4449
 6017TIP3   OH239541   3.102   1.543   3.992 -0.6872 -0.8546 -0.2958
 6017TIP3    H139542   3.193   1.557   3.965 -1.0486  1.0296 -0.7494
 6017TIP3    H239543   3.107   1.481   4.064  1.0908  0.1337  0.5029
 6018TIP3   OH239544   4.970   3.374   4.742  0.2258  0.4485  0.1197
 6018TIP3    H139545   4.995   3.318   4.669 -1.1873  0.7394 -0.6134
 6018TIP3    H239546   5.027   3.346   4.814  0.0070 -1.4639 -0.4064
 6019TIP3   OH239547   5.833   4.207  13.449  0.3583 -0.5924  0.1413
 6019TIP3    H139548   5.845   4.283  13.507  0.0520 -0.3844 -0.0694
 6019TIP3    H239549   5.742   4.181  13.462 -0.1524  0.3527 -1.3244
 6020TIP3   OH239550   0.874   3.107   4.424  0.5997 -0.0590  0.1637
 6020TIP3    H139551   0.876   3.012   4.434  0.2795 -0.1193 -0.3131
 6020TIP3    H239552   0.917   3.141   4.502 -2.7448 -0.4644  2.4004
 6021TIP3   OH239553   4.657   3.869   5.015  0.3371 -0.1158 -0.9742
 6021TIP3    H139554   4.700   3.904   5.094 -1.2546  0.2428 -0.2365
 6021TIP3    H239555   4.625   3.946   4.968  0.7391 -0.3644 -1.6774
 6022TIP3   OH239556   3.283   0.421   2.946  0.1168  0.0522 -0.4345
 6022TIP3    H139557   3.270   0.509   2.912  1.2020  0.8444  1.0924
 6022TIP3    H239558   3.195   0.385   2.954 -0.2619  0.4504 -2.3853
 6023TIP3   OH239559   0.976   4.872   4.988  0.4316 -0.3968 -0.0508
 6023TIP3    H139560   0.972   4.940   5.055  0.0111  1.4311 -1.8065
 6023TIP3    H239561   0.963   4.790   5.035 -0.2379  0.8294  2.0190
 6024TIP3   OH239562   2.316   0.659  11.404  0.1372 -0.1099  0.6972
 6024TIP3    H139563   2.275   0.744  11.420 -0.6625 -0.4999  0.7309
 6024TIP3    H239564   2.316   0.650  11.309  1.0663  0.3215  0.6330
 6025TIP3   OH239565   2.483   4.307   3.115 -0.4990  0.3127  0.0100
 6025TIP3    H139566   2.478   4.281   3.023  1.1827  0.7984 -0.2558
 6025TIP3    H239567   2.458   4.400   3.115 -0.4413  0.3278  0.0417
 6026TIP3   OH239568   1.351   2.235   5.521 -0.3501  0.1419  0.2154
 6026TIP3    H139569   1.421   2.172   5.503  0.2419  0.9610 -0.5072
 6026TIP3    H239570   1.344   2.237   5.616 -0.5891 -1.2108  0.2454
 6027TIP3   OH239571   0.207   6.152  12.921 -0.0690 -0.0146  0.0977
 6027TIP3    H139572   0.233   6.242  12.900 -0.4782 -0.1560 -1.0804
 6027TIP3    H239573   0.271   6.123  12.985 -0.6463  1.5303  1.4645
 6028TIP3   OH239574   0.309   1.405  12.468  0.1390  0.4402 -0.0564
 6028TIP3    H139575   0.383   1.345  12.456 -0.1244 -0.4805  2.2968
 6028TIP3    H239576   0.241   1.371  12.411  0.9643  0.2866 -0.9766
 6029TIP3   OH239577   2.884   2.824  14.132 -0.3602  0.2943  0.2989
 6029TIP3    H139578   2.793   2.848  14.114  0.1248  1.5237 -0.6210
 6029TIP3    H239579   2.936   2.875  14.069  0.8286 -2.1900 -0.8912
 6030TIP3   OH239580   6.608   1.287   1.380  0.0802 -0.1022  0.0237
 6030TIP3    H139581   6.588   1.193   1.379  3.2834 -0.9161 -1.4457
 6030TIP3    H239582   6.592   1.315   1.290 -2.2681  1.2258  0.7739
 6031TIP3   OH239583   4.638   6.196   6.329 -0.4210  0.2277 -0.2024
 6031TIP3    H139584   4.648   6.104   6.353 -0.6033  0.5735  1.2979
 6031TIP3    H239585   4.547   6.216   6.349 -0.0498  1.0639  0.7483
 6032TIP3   OH239586   4.136   5.087   5.073 -0.1038  0.5315 -0.0233
 6032TIP3    H139587   4.214   5.041   5.042  2.1680  3.4208  0.8439
 6032TIP3    H239588   4.129   5.063   5.165 -0.2176  0.2843 -0.0969
 6033TIP3   OH239589   4.005   4.142   4.333  0.0584 -0.3422  0.0578
 6033TIP3    H139590   4.063   4.172   4.403  0.7459 -2.3261  0.4249
 6033TIP3    H239591   4.030   4.050   4.320 -1.1377 -0.4650 -1.7111
 6034TIP3   OH239592   4.992   0.856   3.374 -0.2720 -0.1636  0.1068
 6034TIP3    H139593   5.009   0.907   3.295 -0.2150 -1.4251 -0.7221
 6034TIP3    H239594   5.063   0.792   3.377  0.0988  0.2816  1.5504
 6035TIP3   OH239595   6.749   3.550   1.985 -0.4516  0.4350  0.5278
 6035TIP3    H139596   6.732   3.638   1.953  0.6403 -0.4085 -2.6904
 6035TIP3    H239597   6.675   3.498   1.953  1.1580 -0.6244 -1.7028
 6036TIP3   OH239598   3.011   1.402   1.550 -0.3369  0.0113  0.3463
 6036TIP3    H139599   2.963   1.430   1.628  0.3629  0.4194  0.6449
 6036TIP3    H239600   3.035   1.311   1.568 -0.6361 -0.0628  0.3750
 6037TIP3   OH239601   4.392   3.044  13.779 -0.5048 -0.0296  0.5427
 6037TIP3    H139602   4.299   3.042  13.753 -0.3630  1.1776 -0.1058
 6037TIP3    H239603   4.436   3.088  13.706  0.7257 -1.3306  0.4524
 6038TIP3   OH239604   6.485   5.439   6.374  0.0068 -0.4540  0.3349
 6038TIP3    H139605   6.398   5.407   6.396 -0.7795  1.5061  0.3046
 6038TIP3    H239606   6.516   5.382   6.304 -2.3302  0.2960 -1.4303
 6039TIP3   OH239607   3.267   5.756  16.182  0.2252 -0.3540  0.2425
 6039TIP3    H139608   3.198   5.796  16.235 -0.7186 -0.7299 -0.6647
 6039TIP3    H239609   3.300   5.684  16.236  0.0293 -0.0704  0.7523
 6040TIP3   OH239610   3.230   1.051   1.890  0.1984 -0.0460  0.6577
 6040TIP3    H139611   3.143   1.042   1.928 -0.3643 -0.2274 -0.6036
 6040TIP3    H239612   3.290   1.032   1.962 -0.8270 -1.3941  1.1950
 6041TIP3   OH239613   3.518   6.685  12.325 -0.0492  0.2073  0.3664
 6041TIP3    H139614   3.582   6.736  12.374 -1.0092  2.2285 -0.3930
 6041TIP3    H239615   3.562   6.665  12.242  0.3377 -0.2376  0.6740
 6042TIP3   OH239616   0.638   4.888   5.699 -0.0164 -0.4987  0.0094
 6042TIP3    H139617   0.634   4.982   5.715  0.0494 -0.6511  0.9654
 6042TIP3    H239618   0.594   4.849   5.774  3.2615 -1.4291  1.6148
 6043TIP3   OH239619   2.032   1.256   1.877  0.4337 -0.1255  0.2987
 6043TIP3    H139620   2.080   1.240   1.795 -0.5843  0.2007 -0.3778
 6043TIP3    H239621   2.006   1.169   1.907  2.8223 -0.4932  1.5784
 6044TIP3   OH239622   2.828   0.104   0.943 -0.1561 -0.9223  0.0500
 6044TIP3    H139623   2.888   0.127   0.872 -0.6996  2.5885  0.5023
 6044TIP3    H239624   2.741   0.110   0.903 -0.4841  1.4134  0.9500
 6045TIP3   OH239625   3.393   5.415   6.175 -0.0892 -0.0564 -0.0014
 6045TIP3    H139626   3.343   5.496   6.172  0.0583  0.1653  2.0689
 6045TIP3    H239627   3.331   5.347   6.148 -0.5348  0.6075 -0.6632
 6046TIP3   OH239628   5.352   1.311   0.346  0.3870  0.0430 -0.0019
 6046TIP3    H139629   5.280   1.250   0.361 -0.1544  0.8946  0.9926
 6046TIP3    H239630   5.430   1.264   0.375 -0.1741  0.2402  2.0273
 6047TIP3   OH239631   5.478   1.302   1.896 -0.3518 -0.0802 -0.4393
 6047TIP3    H139632   5.383   1.311   1.899 -0.3288  0.0404  0.8761
 6047TIP3    H239633   5.496   1.223   1.948  0.2611 -0.0439 -0.5940
 6048TIP3   OH239634   5.078   4.322   6.663 -0.0167  0.0135 -0.1846
 6048TIP3    H139635   5.042   4.390   6.606 -1.4197 -0.8253 -0.3643
 6048TIP3    H239636   5.158   4.293   6.619 -0.6067 -0.0004 -1.2728
 6049TIP3   OH239637   2.176   2.184   2.975 -0.3176 -0.2063  0.2000
 6049TIP3    H139638   2.261   2.178   2.931 -0.7504  0.1630 -0.7011
 6049TIP3    H239639   2.153   2.277   2.970 -1.7057 -0.5835 -1.3822
 6050TIP3   OH239640   5.630   1.835   4.610  0.3094 -0.3144 -0.0569
 6050TIP3    H139641   5.577   1.821   4.689 -0.0095  1.2082  0.0237
 6050TIP3    H239642   5.570   1.818   4.538 -0.3809  1.5731  0.0338
 6051TIP3   OH239643   3.229   3.103  11.992 -0.5032 -0.1655  0.0516
 6051TIP3    H139644   3.256   3.042  11.924 -0.2125  0.6543 -0.5827
 6051TIP3    H239645   3.135   3.087  12.002 -0.4435 -0.6700 -0.1420
 6052TIP3   OH239646   1.279   2.902  11.117  0.0330 -0.7784  0.0225
 6052TIP3    H139647   1.241   2.900  11.204 -1.5670 -1.5744 -0.6608
 6052TIP3    H239648   1.206   2.883  11.058  1.3806 -1.8284 -1.3835
 6053TIP3   OH239649   5.411   3.369  12.632  0.3941 -0.5852  0.1702
 6053TIP3    H139650   5.422   3.305  12.701  0.1119 -0.9629 -0.1327
 6053TIP3    H239651   5.322   3.355  12.599  0.8309 -1.0048 -0.8661
 6054TIP3   OH239652   4.222   0.885  12.089 -0.2330 -0.5001 -0.6281
 6054TIP3    H139653   4.228   0.979  12.105  1.1537 -0.5666 -0.6470
 6054TIP3    H239654   4.162   0.853  12.156 -0.5109  0.3526 -0.4539
 6055TIP3   OH239655   1.284   3.425  14.933  0.0559  0.0768 -0.4337
 6055TIP3    H139656   1.243   3.511  14.942  1.3597  0.7389 -0.5702
 6055TIP3    H239657   1.230   3.367  14.987  0.3915  1.4148  1.4467
 6056TIP3   OH239658   2.040   5.905   0.538 -0.1390 -0.5431 -0.2836
 6056TIP3    H139659   2.069   5.846   0.468  1.4955 -2.3743  1.8026
 6056TIP3    H239660   1.952   5.874   0.560 -0.3674 -0.4258 -0.9880
 6057TIP3   OH239661   1.365   4.189   2.952  0.6229  0.7637 -0.6600
 6057TIP3    H139662   1.402   4.196   2.864  3.3165 -0.6355  0.2588
 6057TIP3    H239663   1.436   4.218   3.010 -0.8273  0.9374  1.1093
 6058TIP3   OH239664   0.908   1.080  14.334  0.5125 -0.2169  0.6530
 6058TIP3    H139665   0.940   1.083  14.244  0.4420  1.3307  0.6537
 6058TIP3    H239666   0.943   1.159  14.375  0.2601 -0.7240  1.8936
 6059TIP3   OH239667   3.771   5.542   3.658  0.4417 -0.2201 -0.0492
 6059TIP3    H139668   3.713   5.603   3.612  1.5314  0.3238 -0.7289
 6059TIP3    H239669   3.834   5.598   3.704  1.3768 -0.8227 -0.5741
 6060TIP3   OH239670   3.631   6.079   1.877 -0.1261  0.2908  0.1833
 6060TIP3    H139671   3.685   6.095   1.800  0.0550 -1.3060 -0.0552
 6060TIP3    H239672   3.551   6.130   1.862  0.6240  1.3877 -0.2177
 6061TIP3   OH239673   3.417   4.570  11.865  0.2286 -0.4798 -0.4597
 6061TIP3    H139674   3.490   4.564  11.803  1.2160  1.2092  0.4640
 6061TIP3    H239675   3.371   4.650  11.840  0.6002  0.1873  0.8906
 6062TIP3   OH239676   1.530   2.081  16.379  0.1874  0.1559  0.6079
 6062TIP3    H139677   1.518   2.176  16.373 -0.3833  0.2438  2.4935
 6062TIP3    H239678   1.442   2.045  16.367  0.4077 -0.1490 -0.1302
 6063TIP3   OH239679   4.627   1.254   0.035 -0.3859 -0.0491  0.1785
 6063TIP3    H139680   4.714   1.292   0.023  0.0694 -1.4976 -1.4268
 6063TIP3    H239681   4.600   1.285   0.122  1.0115  1.7556  0.0455
 6064TIP3   OH239682   4.845   3.390   6.001 -0.0299  0.0759 -0.1275
 6064TIP3    H139683   4.836   3.402   5.906  0.9834 -1.1648 -0.4053
 6064TIP3    H239684   4.848   3.479   6.036  1.3955  0.6169 -1.4678
 6065TIP3   OH239685   4.082   1.758  14.637 -0.3714  0.0211 -0.2768
 6065TIP3    H139686   4.121   1.770  14.723 -1.8662 -2.0592  0.7726
 6065TIP3    H239687   4.043   1.843  14.616  2.3998  1.3963 -0.2574
 6066TIP3   OH239688   0.117   3.162  16.883 -0.3975 -0.5287 -0.2315
 6066TIP3    H139689   0.030   3.123  16.884 -0.7592  0.2616 -0.4130
 6066TIP3    H239690   0.117   3.221  16.958  0.2815 -1.1517  0.2756
 6067TIP3   OH239691   2.945   3.497   3.158 -0.2225 -0.5533  0.1618
 6067TIP3    H139692   3.035   3.465   3.166 -0.5887 -2.0348 -1.2447
 6067TIP3    H239693   2.892   3.428   3.198 -0.7327  0.6244  1.6214
 6068TIP3   OH239694   5.034   4.711   3.128  0.5686 -0.5620  0.0831
 6068TIP3    H139695   5.112   4.741   3.175 -0.0864  0.9458  0.2251
 6068TIP3    H239696   5.022   4.620   3.158  0.9371 -0.0798  1.8119
 6069TIP3   OH239697   3.395   2.261   1.618 -0.1297 -0.4395 -0.2262
 6069TIP3    H139698   3.329   2.307   1.566 -0.0707  0.8019  0.7356
 6069TIP3    H239699   3.367   2.275   1.709  2.7799  2.4187  0.4265
 6070TIP3   OH239700   3.219   0.887   4.690 -0.2069 -0.4192  0.0242
 6070TIP3    H139701   3.274   0.906   4.614  0.4834 -2.4699 -0.0611
 6070TIP3    H239702   3.156   0.822   4.658 -1.0594  0.0365  0.7619
 6071TIP3   OH239703   2.511   5.018   1.275  0.1482 -0.6881  0.6905
 6071TIP3    H139704   2.447   5.005   1.205  1.5594 -1.0265 -0.5939
 6071TIP3    H239705   2.516   5.113   1.286 -1.4150 -0.6853  1.6531
 6072TIP3   OH239706   3.246   4.109   4.032  0.0913 -0.2426  0.2497
 6072TIP3    H139707   3.162   4.155   4.029 -0.1182 -0.6474 -0.8198
 6072TIP3    H239708   3.230   4.028   3.984  1.2293 -0.0959 -0.4233
 6073TIP3   OH239709   2.178   2.152  16.192 -0.0997 -0.7141 -0.4197
 6073TIP3    H139710   2.186   2.060  16.167 -1.3690 -0.6098 -1.2918
 6073TIP3    H239711   2.090   2.177  16.164  0.1139  0.6932  0.0802
 6074TIP3   OH239712   3.760   1.051  10.994 -0.1617 -0.4655 -0.1084
 6074TIP3    H139713   3.754   0.983  11.061 -0.3745 -0.7016 -0.3664
 6074TIP3    H239714   3.670   1.059  10.961 -0.5557  1.2460  1.2158
 6075TIP3   OH239715   3.993   5.637  14.458  0.0138 -0.3102 -0.1404
 6075TIP3    H139716   4.057   5.602  14.397  0.8818 -0.8100  1.0025
 6075TIP3    H239717   3.935   5.563  14.476  0.9730 -0.8007  1.1473
 6076TIP3   OH239718   5.298   4.867  15.025 -0.1768  0.1538 -0.6566
 6076TIP3    H139719   5.370   4.820  15.067  0.2234  3.2256  2.6054
 6076TIP3    H239720   5.338   4.912  14.951  1.3937  1.8987  1.1712
 6077TIP3   OH239721   4.391   5.034  12.875 -0.3267 -0.3506  0.3463
 6077TIP3    H139722   4.303   5.072  12.869 -0.7376 -1.2337  0.5757
 6077TIP3    H239723   4.376   4.944  12.904  0.6609 -0.5019  0.4190
 6078TIP3   OH239724   6.604   1.292  14.459 -0.0162 -0.0176 -0.1006
 6078TIP3    H139725   6.572   1.271  14.371 -1.5658 -1.3420  0.7334
 6078TIP3    H239726   6.526   1.322  14.506  1.0641  2.1124  0.4462
 6079TIP3   OH239727   6.231   4.037   1.353 -0.8109 -0.1928  0.0380
 6079TIP3    H139728   6.155   3.988   1.323 -0.3023 -1.3326  0.5704
 6079TIP3    H239729   6.306   3.991   1.315 -0.3776  1.0226 -0.6344
 6080TIP3   OH239730   5.883   6.315  12.607  0.0652 -0.1443 -0.0523
 6080TIP3    H139731   5.866   6.310  12.513 -1.5075 -1.9569  0.2464
 6080TIP3    H239732   5.960   6.371  12.615  0.3187 -0.0475 -2.4175
 6081TIP3   OH239733   0.171   6.627  16.173  0.1611 -0.1334  0.3252
 6081TIP3    H139734   0.098   6.683  16.145  0.6349  1.1409  1.4971
 6081TIP3    H239735   0.133   6.540  16.181 -1.4998  0.6711  1.8193
 6082TIP3   OH239736   1.161   4.733  11.020  0.5033  0.4035  0.0167
 6082TIP3    H139737   1.122   4.645  11.017  0.9599  0.2088 -0.5457
 6082TIP3    H239738   1.097   4.789  10.977  0.6781  0.1487 -0.5894
 6083TIP3   OH239739   2.969   1.341   0.216  0.1487 -0.0600  0.2402
 6083TIP3    H139740   3.044   1.338   0.157 -1.5425 -0.9783 -2.0324
 6083TIP3    H239741   2.972   1.428   0.256  1.0140  0.8729 -1.7390
 6084TIP3   OH239742   5.984   5.766   1.183  0.2026 -0.1158  0.0399
 6084TIP3    H139743   5.987   5.806   1.096  0.6319  1.7286  0.8420
 6084TIP3    H239744   6.059   5.804   1.229 -0.8042  0.0409  1.6408
 6085TIP3   OH239745   0.918   0.844  14.511  0.5948  0.0890  0.2738
 6085TIP3    H139746   0.828   0.875  14.520 -0.2646 -2.1554 -0.2075
 6085TIP3    H239747   0.968   0.924  14.491 -1.2323  1.3959  0.6314
 6086TIP3   OH239748   6.654   4.709  15.072 -0.3645 -1.3438  0.3945
 6086TIP3    H139749   6.689   4.798  15.070 -1.0000 -1.0723  0.9339
 6086TIP3    H239750   6.691   4.667  14.995 -0.8394 -0.3104 -0.4173
 6087TIP3   OH239751   1.180   0.050  17.333  0.1372 -0.1365  0.2854
 6087TIP3    H139752   1.111   0.018  17.275 -1.9144  0.3756  2.2891
 6087TIP3    H239753   1.213   0.129  17.290  0.2991 -1.0038 -1.2404
 6088TIP3   OH239754   1.229   3.318  15.763 -0.2525  0.5326  0.1958
 6088TIP3    H139755   1.271   3.244  15.807 -2.2558 -0.4698  0.5191
 6088TIP3    H239756   1.302   3.368  15.727  1.2092 -1.2881  0.4402
 6089TIP3   OH239757   3.963   0.837   1.780  0.4004  0.4828 -0.0972
 6089TIP3    H139758   4.043   0.877   1.745 -0.1111  0.6848 -1.0608
 6089TIP3    H239759   3.901   0.910   1.787 -0.3242 -0.0140 -1.2357
 6090TIP3   OH239760   0.097   3.483   5.327 -1.1913 -0.2362  0.0606
 6090TIP3    H139761   0.065   3.393   5.338 -1.6971 -0.3167 -1.7633
 6090TIP3    H239762   0.188   3.472   5.299 -0.9170 -0.1420  0.9086
 6091TIP3   OH239763   0.812   3.411  14.601 -0.4501 -0.3752  0.1992
 6091TIP3    H139764   0.832   3.336  14.545  1.6472 -2.2644  3.1539
 6091TIP3    H239765   0.898   3.443  14.629 -1.3620  1.9797  0.5027
 6092TIP3   OH239766   5.212   1.095  12.483  0.2382 -0.4446  0.0918
 6092TIP3    H139767   5.236   1.186  12.464  0.3066 -0.3917  0.4197
 6092TIP3    H239768   5.220   1.088  12.578 -2.7833  0.0867  0.4851
 6093TIP3   OH239769   5.215   4.446   0.563 -0.6551 -0.0657 -0.8159
 6093TIP3    H139770   5.192   4.439   0.471  0.0735 -1.4431 -0.9153
 6093TIP3    H239771   5.131   4.462   0.608 -1.3553 -1.7082 -1.4840
 6094TIP3   OH239772   3.384   0.029   1.963 -0.2995 -0.4838 -0.1410
 6094TIP3    H139773   3.478   0.044   1.971 -0.2104 -1.1276  0.1508
 6094TIP3    H239774   3.350   0.046   2.051 -0.1240 -2.3233  0.3371
 6095TIP3   OH239775   4.328   6.733   1.872  0.6389 -0.5404 -0.1689
 6095TIP3    H139776   4.389   6.805   1.856  0.5865  0.0396  1.9083
 6095TIP3    H239777   4.370   6.657   1.832  1.1111  0.4400 -1.6526
 6096TIP3   OH239778   0.896   1.894   1.754  0.3792  0.1303  0.4063
 6096TIP3    H139779   0.911   1.988   1.750 -1.1303  0.3961  0.2857
 6096TIP3    H239780   0.842   1.876   1.677 -0.4569 -0.6004  1.1512
 6097TIP3   OH239781   1.118   1.199  14.004  0.1723 -0.2394 -0.7905
 6097TIP3    H139782   1.169   1.192  13.923  1.6843  0.0946  0.0914
 6097TIP3    H239783   1.175   1.163  14.071 -0.4073  0.9636  0.3925
 6098TIP3   OH239784   2.068   5.922  13.148  0.3937  0.5499  0.0104
 6098TIP3    H139785   1.993   5.898  13.202  1.2974 -1.2894  0.5589
 6098TIP3    H239786   2.081   6.015  13.165  0.3851  0.1428  2.7321
 6099TIP3   OH239787   4.468   4.599  13.885 -0.2455 -0.2125  0.3844
 6099TIP3    H139788   4.433   4.687  13.868 -1.5334 -0.5352  1.2231
 6099TIP3    H239789   4.485   4.598  13.979 -0.7354 -1.0277  0.4679
 6100TIP3   OH239790   2.648   2.427   4.499  0.2646 -0.3550 -0.0918
 6100TIP3    H139791   2.638   2.348   4.447  2.5311 -0.0857 -1.0260
 6100TIP3    H239792   2.643   2.499   4.436 -0.8893  0.2427  0.6264
 6101TIP3   OH239793   0.273   1.216  11.641 -0.1468 -0.9693 -0.4599
 6101TIP3    H139794   0.327   1.162  11.698  0.2054 -2.6959 -2.3346
 6101TIP3    H239795   0.183   1.190  11.661 -0.2211  0.3106  1.0814
 6102TIP3   OH239796   0.445   5.121  15.173  0.0414 -0.7433  0.4077
 6102TIP3    H139797   0.492   5.198  15.205 -0.4522 -0.6246  0.8610
 6102TIP3    H239798   0.364   5.120  15.223 -0.9985 -0.2797 -1.1889
 6103TIP3   OH239799   0.819   4.741   0.339 -0.4700 -0.4069  0.3332
 6103TIP3    H139800   0.743   4.798   0.332  0.6091  1.0360 -0.0798
 6103TIP3    H239801   0.875   4.784   0.404  2.3809  1.5183 -3.0365
 6104TIP3   OH239802   1.872   4.859  13.937 -0.2883  0.1289  0.3500
 6104TIP3    H139803   1.929   4.789  13.905 -1.0746 -0.3402 -0.0479
 6104TIP3    H239804   1.784   4.831  13.914 -0.7460  0.5471  1.5218
 6105TIP3   OH239805   5.415   6.674  12.783  0.8180  0.2677 -0.4747
 6105TIP3    H139806   5.372   6.592  12.762  1.9205 -0.5842  0.4608
 6105TIP3    H239807   5.480   6.685  12.714  0.0186  0.8771 -1.1479
 6106TIP3   OH239808   3.148   2.483  12.305 -0.3532 -0.0553  0.6491
 6106TIP3    H139809   3.237   2.446  12.298 -0.0852  0.6994 -0.0351
 6106TIP3    H239810   3.161   2.577  12.306 -1.1904  0.0759 -0.0555
 6107TIP3   OH239811   4.314   2.040   2.928  0.0649  0.0427 -0.5282
 6107TIP3    H139812   4.304   2.031   2.834  1.5369 -1.1000 -0.5983
 6107TIP3    H239813   4.314   2.135   2.943  2.3751  0.3560 -2.0090
 6108TIP3   OH239814   5.034   1.613   3.053 -0.1968  0.2519 -0.4579
 6108TIP3    H139815   4.999   1.693   3.015 -1.2158  0.7455  1.4234
 6108TIP3    H239816   4.974   1.591   3.125  1.5527 -0.6679  0.8126
 6109TIP3   OH239817   2.863   2.907   4.859 -0.1349  0.3638  0.1008
 6109TIP3    H139818   2.806   2.944   4.791 -2.7963 -0.6679  1.6053
 6109TIP3    H239819   2.910   2.983   4.894  0.1728  1.1335 -1.8293
 6110TIP3   OH239820   4.621   0.134   4.756  0.4176 -0.2206 -0.0598
 6110TIP3    H139821   4.635   0.101   4.667  0.9281  1.1839 -0.5215
 6110TIP3    H239822   4.617   0.055   4.810 -3.8323 -1.4432 -1.7566
 6111TIP3   OH239823   3.672   5.014  16.272 -0.3753  0.2043  0.2293
 6111TIP3    H139824   3.703   5.101  16.250  0.8345  0.2754  1.9869
 6111TIP3    H239825   3.708   4.957  16.204 -1.7677  1.1149 -1.3463
 6112TIP3   OH239826   1.083   2.740  14.488 -0.1173  0.5974  0.8095
 6112TIP3    H139827   1.028   2.724  14.564  1.6652 -2.2115  1.6604
 6112TIP3    H239828   1.140   2.813  14.515 -0.0910  0.2075  1.8503
 6113TIP3   OH239829   2.382   5.728  15.986 -0.5837 -0.0946  0.4984
 6113TIP3    H139830   2.421   5.745  15.901 -0.8952  1.2669  0.6057
 6113TIP3    H239831   2.336   5.809  16.008  1.9360  0.7687  3.3075
 6114TIP3   OH239832   5.777   5.213  16.040  0.3400 -0.0452 -0.6267
 6114TIP3    H139833   5.736   5.191  15.956 -0.5362  3.0957 -1.1388
 6114TIP3    H239834   5.726   5.164  16.105 -2.2334  1.2628 -1.5289
 6115TIP3   OH239835   6.694   3.373  11.680  0.4498 -0.2644 -0.0094
 6115TIP3    H139836   6.764   3.388  11.745  0.7092  0.0462 -0.3557
 6115TIP3    H239837   6.633   3.445  11.694  1.3220  0.7300 -1.1778
 6116TIP3   OH239838   0.263   1.375   6.300  0.1325 -0.5420  0.3268
 6116TIP3    H139839   0.241   1.415   6.215 -0.1195 -0.1218  0.5832
 6116TIP3    H239840   0.191   1.313   6.316  0.9426 -1.7249 -0.4542
 6117TIP3   OH239841   5.214   6.197  13.119 -0.1602  0.1652 -0.5144
 6117TIP3    H139842   5.287   6.242  13.162 -0.9901  0.9532  0.1161
 6117TIP3    H239843   5.185   6.258  13.051 -0.6562  0.1547 -0.3147
 6118TIP3   OH239844   4.061   6.068  14.494 -0.4616  0.0194  0.4603
 6118TIP3    H139845   4.002   5.999  14.463 -0.8912  0.5563  0.0607
 6118TIP3    H239846   4.043   6.075  14.587  1.8519 -2.6087  1.2405
 6119TIP3   OH239847   4.123   3.139   1.841 -0.0262 -0.6014  0.1607
 6119TIP3    H139848   4.154   3.049   1.836  1.1774 -0.2260  0.4978
 6119TIP3    H239849   4.202   3.191   1.854 -0.2381  0.8616 -3.2550
 6120TIP3   OH239850   3.523   1.637   2.986  0.2490  0.2873  0.0098
 6120TIP3    H139851   3.598   1.592   2.946 -0.1368 -1.8721  1.5424
 6120TIP3    H239852   3.461   1.647   2.914  0.4349 -1.5644 -0.4732
 6121TIP3   OH239853   5.163   3.178  17.402 -0.1190 -0.1505 -0.3929
 6121TIP3    H139854   5.185   3.086  17.409  1.6014  0.2861  0.4981
 6121TIP3    H239855   5.239   3.224  17.438 -0.8043  1.6234 -1.0782
 6122TIP3   OH239856   4.731   1.390   2.850 -1.2297  0.2447  0.1527
 6122TIP3    H139857   4.717   1.485   2.853  0.5971  0.5615 -0.2370
 6122TIP3    H239858   4.766   1.374   2.763 -0.4661 -0.6226  0.6066
 6123TIP3   OH239859   0.058   4.517  16.344 -0.0822  0.0436  0.3919
 6123TIP3    H139860   0.151   4.531  16.361 -0.2928  1.6871  0.4270
 6123TIP3    H239861   0.015   4.532  16.428 -0.4426  0.2597  0.1767
 6124TIP3   OH239862   1.459   5.201   2.767  0.3291 -0.4005  0.1221
 6124TIP3    H139863   1.539   5.199   2.819  0.3332 -1.3841  0.0865
 6124TIP3    H239864   1.403   5.135   2.807 -0.5609  0.4330  0.2855
 6125TIP3   OH239865   3.325   4.748   3.389  0.0490  0.2649 -0.4380
 6125TIP3    H139866   3.264   4.769   3.459 -0.1818 -1.0943 -0.1996
 6125TIP3    H239867   3.272   4.703   3.323  0.8515 -1.4630  0.0353
 6126TIP3   OH239868   6.034   2.404   1.033  0.5955  0.2988  0.0139
 6126TIP3    H139869   6.013   2.364   0.949 -0.6959  0.0664  0.4143
 6126TIP3    H239870   6.096   2.344   1.074  0.3956 -0.1452 -0.3295
 6127TIP3   OH239871   3.659   1.636  15.754 -0.0926 -0.5538  0.7912
 6127TIP3    H139872   3.702   1.685  15.684 -1.4389 -2.6411 -1.6948
 6127TIP3    H239873   3.718   1.645  15.829  1.5010  1.7324 -0.5879
 6128TIP3   OH239874   0.767   4.515   1.342  0.5594 -0.3358 -0.0348
 6128TIP3    H139875   0.803   4.514   1.253  0.2156 -0.0726 -0.1801
 6128TIP3    H239876   0.673   4.504   1.329  0.7859 -4.0743  0.4777
 6129TIP3   OH239877   0.105   6.678  13.961  0.0448 -0.1888 -0.3930
 6129TIP3    H139878   0.071   6.612  13.900  0.4551  0.4552 -1.3532
 6129TIP3    H239879   0.186   6.640  13.994  2.1198  1.0893 -3.5037
 6130TIP3   OH239880   4.153   0.672  15.025  0.3915 -0.6736 -0.4090
 6130TIP3    H139881   4.133   0.591  14.977 -0.9866 -0.9451  0.5797
 6130TIP3    H239882   4.075   0.726  15.015 -0.3300 -1.0854  2.1705
 6131TIP3   OH239883   4.255   0.939   3.906 -0.0959  0.2709  0.6072
 6131TIP3    H139884   4.319   0.958   3.838 -0.8784 -2.9372 -1.1961
 6131TIP3    H239885   4.308   0.914   3.982  0.7676  1.1017  0.3042
 6132TIP3   OH239886   0.343   1.067  17.050 -0.4172 -0.0365 -0.2792
 6132TIP3    H139887   0.250   1.042  17.043 -0.1448 -1.4694  0.7496
 6132TIP3    H239888   0.352   1.100  17.139  0.4384 -1.7977  0.3381
 6133TIP3   OH239889   5.681   6.384  13.610 -0.6114  0.1869  0.7351
 6133TIP3    H139890   5.773   6.403  13.596 -0.1153 -2.5347 -0.2310
 6133TIP3    H239891   5.637   6.468  13.594  1.6058  1.4234  0.7294
 6134TIP3   OH239892   1.896   4.253   2.947  0.3174  0.2307 -0.2206
 6134TIP3    H139893   1.936   4.213   2.870  1.6790  0.0067  0.5694
 6134TIP3    H239894   1.827   4.192   2.973  1.3052 -0.8296  0.0082
 6135TIP3   OH239895   3.346   1.132   5.505  0.1878  0.3136 -0.2881
 6135TIP3    H139896   3.424   1.186   5.492  1.3009 -1.4126 -1.1767
 6135TIP3    H239897   3.291   1.150   5.428  0.9793 -0.4549 -1.0593
 6136TIP3   OH239898   2.827   1.229  17.239 -0.7829 -0.4004 -0.0702
 6136TIP3    H139899   2.759   1.205  17.176 -0.1682  0.9366 -1.3170
 6136TIP3    H239900   2.838   1.323  17.227  1.0900 -0.5281  0.2717
 6137TIP3   OH239901   2.414   1.765   3.029 -0.2699 -0.2159 -0.0397
 6137TIP3    H139902   2.439   1.795   3.117 -1.0876 -0.5366  0.3128
 6137TIP3    H239903   2.359   1.836   2.995 -0.8036 -0.5471  0.1208
 6138TIP3   OH239904   0.925   4.748   2.598  0.2838  0.2720  0.4400
 6138TIP3    H139905   0.993   4.683   2.578 -0.2635 -0.2211  0.1613
 6138TIP3    H239906   0.924   4.753   2.694  1.6086  1.2496  0.4267
 6139TIP3   OH239907   3.943   0.432   2.134 -0.3177 -0.5087 -0.3205
 6139TIP3    H139908   3.946   0.362   2.068 -1.6068 -0.1751 -0.7685
 6139TIP3    H239909   3.871   0.488   2.105  0.4133  0.7703  0.2679
 6140TIP3   OH239910   0.280   1.350   5.794 -0.3808  0.3453 -0.3916
 6140TIP3    H139911   0.270   1.397   5.877  1.3095  1.6972 -0.8900
 6140TIP3    H239912   0.256   1.414   5.727  1.0384  0.2362 -1.0385
 6141TIP3   OH239913   0.776   5.246   5.332 -0.5395  0.4548  0.0092
 6141TIP3    H139914   0.698   5.221   5.282 -1.2983  0.2210  1.2717
 6141TIP3    H239915   0.750   5.238   5.424 -0.2974  4.1665  0.5511
 6142TIP3   OH239916   3.869   2.530  14.677  0.9641  0.2531  0.3585
 6142TIP3    H139917   3.963   2.547  14.675  0.9580  0.1906 -1.1562
 6142TIP3    H239918   3.830   2.614  14.703  1.3444  0.7278 -0.5768
 6143TIP3   OH239919   0.976   5.171   3.285 -0.2459  0.0815  0.1071
 6143TIP3    H139920   0.887   5.204   3.286  0.3578  1.8345 -0.6266
 6143TIP3    H239921   1.031   5.249   3.281  1.2629 -0.9847 -1.7442
 6144TIP3   OH239922   0.396   1.684  12.487  0.2606  0.4402 -0.2321
 6144TIP3    H139923   0.373   1.597  12.454  0.6052 -0.4827  1.8245
 6144TIP3    H239924   0.458   1.668  12.558  1.2067  2.4482 -0.5135
 6145TIP3   OH239925   2.715   6.715   4.003 -0.1733 -0.2268 -0.3808
 6145TIP3    H139926   2.721   6.628   3.965  1.2703  0.4754 -1.9161
 6145TIP3    H239927   2.682   6.771   3.932  1.1506  0.8602 -0.1900
 6146TIP3   OH239928   5.743   3.462  13.099  0.0030  0.3271  0.0949
 6146TIP3    H139929   5.649   3.448  13.115  0.1816 -1.8666 -0.4015
 6146TIP3    H239930   5.746   3.544  13.050 -1.5208  1.1141  1.2102
 6147TIP3   OH239931   4.066   6.128   4.077 -0.1032 -0.2681 -0.2819
 6147TIP3    H139932   4.005   6.086   4.016  0.5604 -3.0016  0.7915
 6147TIP3    H239933   4.118   6.187   4.022 -0.8045 -1.1873 -2.0009
 6148TIP3   OH239934   2.194   4.441  16.000 -0.6470 -0.5625  0.0029
 6148TIP3    H139935   2.230   4.522  16.035 -1.4209  0.2678 -1.0484
 6148TIP3    H239936   2.126   4.416  16.062 -1.4878  0.4783 -0.4723
 6149TIP3   OH239937   0.662   4.425  13.667  1.0513 -0.0528  0.0487
 6149TIP3    H139938   0.740   4.480  13.665 -0.4655  2.3019  1.3411
 6149TIP3    H239939   0.602   4.465  13.604 -0.5544  0.5940  1.8963
 6150TIP3   OH239940   6.346   5.893   2.187 -0.6072 -1.1044 -0.1030
 6150TIP3    H139941   6.441   5.906   2.191 -0.1379 -3.6231 -1.2501
 6150TIP3    H239942   6.320   5.883   2.278  0.3302 -0.9655  0.1939
 6151TIP3   OH239943   0.576   3.564   2.396 -0.9076  0.4829  0.1476
 6151TIP3    H139944   0.578   3.659   2.409 -0.3571  0.6414 -0.9545
 6151TIP3    H239945   0.490   3.537   2.427 -0.3955  1.0639  2.2051
 6152TIP3   OH239946   0.686   2.206  14.124 -0.5171  0.1089  0.1658
 6152TIP3    H139947   0.591   2.218  14.123 -0.8297 -1.7621 -2.0633
 6152TIP3    H239948   0.711   2.207  14.031  1.6643  0.6444  0.7039
 6153TIP3   OH239949   3.130   5.037  17.191 -0.1213 -0.2747  0.5052
 6153TIP3    H139950   3.193   5.061  17.260 -1.3608  0.3166  1.4615
 6153TIP3    H239951   3.046   5.035  17.235 -0.9020 -0.2585 -0.9348
 6154TIP3   OH239952   6.591   5.256   2.591 -0.2445 -0.6345 -0.4416
 6154TIP3    H139953   6.501   5.234   2.569 -0.2371  0.0927 -1.2470
 6154TIP3    H239954   6.617   5.320   2.525  0.0149  1.1710  1.3029
 6155TIP3   OH239955   3.383   5.273   0.657 -0.0686  1.0465 -0.5167
 6155TIP3    H139956   3.467   5.246   0.620 -0.2673 -0.5078  0.1262
 6155TIP3    H239957   3.318   5.244   0.593 -0.2313  0.7387 -0.2125
 6156TIP3   OH239958   2.686   2.314  17.375 -0.6431  0.2069 -0.4870
 6156TIP3    H139959   2.762   2.328  17.319 -0.1301 -0.9177 -0.0881
 6156TIP3    H239960   2.715   2.340  17.462 -0.9053  0.2995 -0.4233
 6157TIP3   OH239961   1.389   5.967   2.317  0.8905 -0.4399 -0.2242
 6157TIP3    H139962   1.467   5.959   2.372  0.3291 -2.3076  0.3790
 6157TIP3    H239963   1.404   5.907   2.244  0.6782  0.3591 -0.9409
 6158TIP3   OH239964   5.096   3.276  17.102  0.2484  0.1663 -0.5884
 6158TIP3    H139965   5.110   3.234  17.187 -0.3198 -0.6772 -0.8952
 6158TIP3    H239966   5.184   3.301  17.073  0.5723 -0.5128 -0.2331
 6159TIP3   OH239967   6.051   1.479   2.088  0.1907  0.0436  0.3780
 6159TIP3    H139968   6.075   1.495   2.179  1.0997  0.2076  0.1245
 6159TIP3    H239969   6.015   1.562   2.057 -1.2023 -0.3443  0.9008
 6160TIP3   OH239970   4.539   2.170   3.428  0.4133  0.4753  0.2790
 6160TIP3    H139971   4.481   2.180   3.504  0.2787 -2.2292  0.6223
 6160TIP3    H239972   4.480   2.146   3.356  0.8353  0.2967 -0.0118
 6161TIP3   OH239973   3.583   4.330  12.944  0.2721  0.2614  0.5684
 6161TIP3    H139974   3.495   4.318  12.980  0.3624  0.5353  0.8795
 6161TIP3    H239975   3.642   4.324  13.019  0.6807 -1.6166  0.1485
 6162TIP3   OH239976   4.157   4.351  15.401 -0.2350  0.0837  0.1518
 6162TIP3    H139977   4.158   4.306  15.317 -1.1167  0.5467 -0.1258
 6162TIP3    H239978   4.250   4.364  15.423  0.0886 -2.7537  0.7758
 6163TIP3   OH239979   0.939   5.385  17.456  0.0153  0.0878  0.0315
 6163TIP3    H139980   0.966   5.470  17.491 -0.8122 -0.5105  2.3569
 6163TIP3    H239981   0.963   5.323  17.525 -1.4798 -1.2505 -0.5844
 6164TIP3   OH239982   6.521   1.336   6.122  0.2008 -0.2892 -0.2144
 6164TIP3    H139983   6.450   1.341   6.186  1.6219 -0.5784  1.4640
 6164TIP3    H239984   6.595   1.378   6.164  1.2824 -0.7494 -1.5661
 6165TIP3   OH239985   4.820   5.018   3.443 -0.1061  0.1595 -0.1755
 6165TIP3    H139986   4.772   4.956   3.388  0.1090 -0.8203  0.6855
 6165TIP3    H239987   4.785   5.104   3.420 -2.4529 -0.5115  0.5421
 6166TIP3   OH239988   5.261   4.926  14.701  0.2857  0.5458  0.6678
 6166TIP3    H139989   5.228   4.896  14.616  0.7606 -0.1013  0.7040
 6166TIP3    H239990   5.196   4.989  14.731  1.6493  3.3463 -1.6762
 6167TIP3   OH239991   3.157   1.562   2.250  1.2354  0.0575 -0.0307
 6167TIP3    H139992   3.181   1.622   2.179  2.0484  0.7496  0.7976
 6167TIP3    H239993   3.062   1.550   2.241  1.0418  1.5183 -0.1943
 6168TIP3   OH239994   0.469   1.932  16.392  0.3471  0.1151 -0.0488
 6168TIP3    H139995   0.518   1.902  16.315  0.1286 -0.7096  0.1266
 6168TIP3    H239996   0.414   1.858  16.416  0.5325  0.2987  1.0081
 6169TIP3   OH239997   0.957   3.973   0.255  0.0968  0.0010 -0.4473
 6169TIP3    H139998   0.978   3.909   0.323 -0.0345  1.1412  0.7123
 6169TIP3    H239999   0.897   4.034   0.297 -2.0443 -0.6533 -2.3756
 6170TIP3   OH240000   0.123   5.440   0.650 -0.5936  0.6427  0.2094
 6170TIP3    H140001   0.095   5.526   0.619 -1.9919  0.5225  1.0837
 6170TIP3    H240002   0.211   5.455   0.685 -0.5311  1.5586 -0.3105
 6171TIP3   OH240003   2.982   2.652  13.108 -0.1499 -0.6450  0.3709
 6171TIP3    H140004   2.888   2.670  13.108  0.1494  1.1598 -0.1755
 6171TIP3    H240005   3.021   2.731  13.147  1.3764  0.4394 -2.9365
 6172TIP3   OH240006   4.456   4.226   1.851  0.5698  0.0059 -0.1637
 6172TIP3    H140007   4.430   4.304   1.900 -1.8432  0.1298 -1.4895
 6172TIP3    H240008   4.506   4.260   1.777  0.8165  0.1642  0.0754
 6173TIP3   OH240009   1.292   0.227  13.964 -0.0938 -0.1104  0.9444
 6173TIP3    H140010   1.323   0.246  14.052 -0.8147 -1.8934  1.6247
 6173TIP3    H240011   1.200   0.205  13.975  0.3083 -2.5345  0.1183
 6174TIP3   OH240012   3.299   0.279   4.070  0.5434  0.2911  0.0735
 6174TIP3    H140013   3.254   0.284   3.986  1.7179  1.2739 -0.5372
 6174TIP3    H240014   3.381   0.327   4.056  0.7272  0.5559  1.8004
 6175TIP3   OH240015   4.293   4.596   2.728 -0.9476 -0.3221  0.1189
 6175TIP3    H140016   4.248   4.680   2.742  0.8525  0.6659  0.2773
 6175TIP3    H240017   4.263   4.568   2.641 -1.6290  0.4376  0.0873
 6176TIP3   OH240018   1.890   3.989   3.452  0.1159  0.1953 -0.1742
 6176TIP3    H140019   1.965   3.945   3.413 -1.3666 -1.7550 -0.9588
 6176TIP3    H240020   1.851   3.924   3.511  0.7141  2.1644  2.6277
 6177TIP3   OH240021   2.294   0.961  10.658  0.0348 -0.6492 -0.2375
 6177TIP3    H140022   2.242   0.927  10.730 -0.4528  0.5403 -0.0105
 6177TIP3    H240023   2.353   0.889  10.635  0.6041 -0.8617  1.7216
 6178TIP3   OH240024   1.630   2.119  12.924 -0.3352  0.3525 -0.2382
 6178TIP3    H140025   1.640   2.195  12.866 -2.2314  1.4647  0.7953
 6178TIP3    H240026   1.668   2.148  13.007  0.0979 -0.3246 -0.1934
 6179TIP3   OH240027   2.654   6.539   3.304 -0.3378  0.1108 -0.4514
 6179TIP3    H140028   2.610   6.584   3.377  0.1570  0.2569 -0.2405
 6179TIP3    H240029   2.615   6.577   3.225 -1.9552 -1.0911 -0.2793
 6180TIP3   OH240030   4.675   1.382   3.629  0.0779 -0.1273 -0.4571
 6180TIP3    H140031   4.587   1.377   3.667 -0.0844  1.1511 -0.6370
 6180TIP3    H240032   4.683   1.301   3.578 -0.5214 -0.8338  0.5153
 6181TIP3   OH240033   2.536   6.152  12.996 -0.6458 -0.5218 -1.0587
 6181TIP3    H140034   2.461   6.202  13.029 -1.5804 -0.3809 -3.2161
 6181TIP3    H240035   2.505   6.062  12.992  0.7357 -1.2774  1.9230
 6182TIP3   OH240036   5.979   4.680   5.461 -0.5350 -0.3546  0.2727
 6182TIP3    H140037   5.918   4.650   5.394 -0.4252 -0.6044  0.2838
 6182TIP3    H240038   5.935   4.659   5.544 -0.7844  0.1876  0.2803
 6183TIP3   OH240039   1.933   6.367   4.356 -0.3311  0.1032  0.0418
 6183TIP3    H140040   2.009   6.309   4.361  0.6946  1.0385 -2.9579
 6183TIP3    H240041   1.970   6.455   4.366 -0.8694  0.5958 -1.8926
 6184TIP3   OH240042   1.134   0.263   4.618 -0.5181  0.3970  0.2929
 6184TIP3    H140043   1.167   0.334   4.673  0.0892 -2.5570  4.2790
 6184TIP3    H240044   1.211   0.231   4.571 -0.4357  1.2550 -0.1684
 6185TIP3   OH240045   2.303   5.797  15.605  0.5208  0.0754 -0.0201
 6185TIP3    H140046   2.380   5.847  15.579  0.2872 -0.1260 -1.1684
 6185TIP3    H240047   2.230   5.860  15.596  0.4508  0.0460  0.3194
 6186TIP3   OH240048   0.144   4.995  17.280 -0.4075 -0.3615 -0.3243
 6186TIP3    H140049   0.131   4.923  17.342  1.1121 -1.4249 -1.1564
 6186TIP3    H240050   0.164   5.070  17.335  3.3545 -1.7941  0.5852
 6187TIP3   OH240051   5.330   3.623   5.826  0.2574  0.1422 -0.2351
 6187TIP3    H140052   5.398   3.560   5.804 -0.0390 -0.3982  0.3802
 6187TIP3    H240053   5.254   3.595   5.775 -0.0603 -0.3775  0.5076
 6188TIP3   OH240054   2.490   6.319   5.726  0.2212  0.7316 -0.4355
 6188TIP3    H140055   2.409   6.301   5.774  0.9874  1.5257  1.2030
 6188TIP3    H240056   2.516   6.234   5.690  0.0578 -0.0701  1.2602
 6189TIP3   OH240057   3.256   6.417  12.385  0.1932  0.0563  0.4532
 6189TIP3    H140058   3.190   6.393  12.451 -0.6102 -0.5508 -0.5493
 6189TIP3    H240059   3.206   6.456  12.314  0.6654 -2.0123 -1.1080
 6190TIP3   OH240060   2.329   0.805  15.866  0.0956 -0.2167 -0.7773
 6190TIP3    H140061   2.301   0.725  15.821  0.4799  0.5433 -2.4458
 6190TIP3    H240062   2.248   0.855  15.879 -0.0988 -0.7038 -0.0288
 6191TIP3   OH240063   5.823   4.576   0.785 -0.4331  0.5496  0.0707
 6191TIP3    H140064   5.910   4.616   0.783 -1.1909  2.2986 -0.5649
 6191TIP3    H240065   5.818   4.526   0.703  0.3677 -0.5636  0.6670
 6192TIP3   OH240066   5.923   1.309  15.904 -0.1665  0.0210  0.0067
 6192TIP3    H140067   5.831   1.296  15.881 -0.9174  2.2085  1.4151
 6192TIP3    H240068   5.939   1.247  15.975 -0.1743 -1.2031 -1.0393
 6193TIP3   OH240069   1.354   0.240  14.222 -0.1368 -0.2649  0.5027
 6193TIP3    H140070   1.431   0.189  14.197  0.8613  0.7244  1.4672
 6193TIP3    H240071   1.326   0.201  14.305 -1.5560 -1.5066 -0.4847
 6194TIP3   OH240072   4.271   4.501  12.057 -0.5954 -0.4196 -0.1142
 6194TIP3    H140073   4.352   4.459  12.085 -0.6090  0.1969  0.8928
 6194TIP3    H240074   4.202   4.448  12.096 -0.7132 -1.1997 -1.3256
 6195TIP3   OH240075   5.911   5.985  10.643 -0.8736 -0.4263  0.5914
 6195TIP3    H140076   5.989   5.949  10.684 -1.0930 -1.5302  0.1094
 6195TIP3    H240077   5.842   5.920  10.663 -1.1971 -0.4886 -0.6471
 6196TIP3   OH240078   2.552   1.713  11.581 -0.0679 -0.1208 -0.6404
 6196TIP3    H140079   2.504   1.666  11.514  1.7357 -0.8641 -1.4602
 6196TIP3    H240080   2.608   1.647  11.623 -0.5344  0.4862  1.0363
 6197TIP3   OH240081   6.163   2.898  14.743  0.3679 -0.2167  0.0005
 6197TIP3    H140082   6.245   2.882  14.790 -0.5689 -2.4861  0.9951
 6197TIP3    H240083   6.135   2.984  14.774  1.2912 -0.3467  1.3007
 6198TIP3   OH240084   0.932   4.434  14.478 -0.1831 -0.3129 -0.5875
 6198TIP3    H140085   0.886   4.353  14.457 -0.6376 -0.2378  0.0857
 6198TIP3    H240086   0.953   4.426  14.571 -0.0424  0.2456 -0.5678
 6199TIP3   OH240087   4.654   4.911   1.847  0.5065 -0.1365 -0.5810
 6199TIP3    H140088   4.638   4.869   1.762 -2.7023 -0.5169  0.0877
 6199TIP3    H240089   4.624   4.847   1.911 -0.8062  1.5748  0.6156
 6200TIP3   OH240090   0.132   1.537   0.017 -0.6705 -0.0977  0.0025
 6200TIP3    H140091   0.175   1.453   0.005  1.3690  0.9065 -0.2029
 6200TIP3    H240092   0.129   1.575  -0.071  0.1921  0.8182  0.3485
 6201TIP3   OH240093   4.358   4.764  12.937 -0.7005 -0.1877  0.1771
 6201TIP3    H140094   4.369   4.777  12.843 -4.0037 -1.0994 -0.4511
 6201TIP3    H240095   4.378   4.672  12.951 -1.6533 -0.4108  0.0899
 6202TIP3   OH240096   3.467   0.792   3.858 -0.4051 -0.2150  0.1942
 6202TIP3    H140097   3.384   0.799   3.812 -1.3257 -1.9062  1.4856
 6202TIP3    H240098   3.451   0.833   3.943 -0.2520 -1.4442  0.8315
 6203TIP3   OH240099   3.102   3.624  11.708  0.0963 -0.3023  0.0979
 6203TIP3    H140100   3.032   3.562  11.730 -0.5402  0.7235  1.0846
 6203TIP3    H240101   3.149   3.638  11.790  1.1443 -0.5819 -0.4445
 6204TIP3   OH240102   6.098   4.475   3.648 -0.4914 -0.1550  0.2359
 6204TIP3    H140103   6.183   4.432   3.639  0.0880  1.3457 -2.7674
 6204TIP3    H240104   6.035   4.403   3.653  0.7499 -1.3217 -0.2549
 6205TIP3   OH240105   5.438   6.015  13.796  0.0119 -0.3239  0.0481
 6205TIP3    H140106   5.477   6.103  13.792 -1.5835  0.3967 -0.2374
 6205TIP3    H240107   5.446   5.990  13.888 -2.0892  1.3640  0.7683
 6206TIP3   OH240108   4.682   5.076  16.184 -0.0576 -1.0447  0.8931
 6206TIP3    H140109   4.664   4.987  16.154 -1.0180 -0.1747 -1.3836
 6206TIP3    H240110   4.602   5.102  16.230 -0.4517 -0.8298  0.1126
 6207TIP3   OH240111   6.688   3.429  14.211  0.2116 -0.0850 -0.3408
 6207TIP3    H140112   6.679   3.411  14.305  2.4489  2.4503  0.4841
 6207TIP3    H240113   6.772   3.389  14.187  0.2802  0.3989 -0.9295
 6208TIP3   OH240114   0.006   3.009  14.907 -0.1079 -0.4631 -0.8292
 6208TIP3    H140115   0.095   3.002  14.871 -0.6587 -0.5191 -2.2357
 6208TIP3    H240116  -0.024   2.918  14.913  1.2159 -0.8360  3.2096
 6209TIP3   OH240117   4.313   0.482  12.351  0.1169 -0.6513  0.2062
 6209TIP3    H140118   4.386   0.439  12.308 -0.7879 -1.1176 -0.9217
 6209TIP3    H240119   4.321   0.458  12.443  0.5503 -1.9123 -0.1487
 6210TIP3   OH240120   4.717   1.458   0.275  0.1062  0.3022 -0.3134
 6210TIP3    H140121   4.747   1.415   0.355  0.1400 -0.4439 -0.7205
 6210TIP3    H240122   4.796   1.471   0.223 -0.0538 -0.1797 -0.6819
 6211TIP3   OH240123   0.254   1.233   2.969  0.1624  0.2715 -0.1099
 6211TIP3    H140124   0.165   1.219   3.000  0.7071  1.1650  2.0325
 6211TIP3    H240125   0.246   1.232   2.873 -1.8129 -1.4677  0.0022
 6212TIP3   OH240126   3.359   3.776  17.517 -0.0160 -0.4224  0.0201
 6212TIP3    H140127   3.412   3.853  17.494  1.9082 -2.0194 -1.2084
 6212TIP3    H240128   3.343   3.732  17.434 -2.4708 -0.5496  0.5012
 6213TIP3   OH240129   3.970   3.975   1.751  0.4497  0.4195  0.4883
 6213TIP3    H140130   3.959   4.068   1.732  0.6141  0.6749  1.5790
 6213TIP3    H240131   4.057   3.969   1.789 -0.2151  0.1070  2.0404
 6214TIP3   OH240132   6.564   5.928   3.031 -0.5807 -0.4845 -0.5480
 6214TIP3    H140133   6.562   5.995   3.100  0.7060 -1.4816  0.5302
 6214TIP3    H240134   6.521   5.852   3.070  0.1323 -1.0502 -0.8309
 6215TIP3   OH240135   1.869   5.094  12.103 -0.5620  0.1051 -0.3560
 6215TIP3    H140136   1.927   5.155  12.059  1.0359 -2.1768 -1.6432
 6215TIP3    H240137   1.821   5.147  12.167  0.7061  2.6313 -1.3844
 6216TIP3   OH240138   4.212   0.187  17.471 -0.5582  0.5968  0.0985
 6216TIP3    H140139   4.192   0.263  17.526  0.3220 -0.0765  1.4144
 6216TIP3    H240140   4.256   0.223  17.394 -2.6072  1.6514 -0.6665
 6217TIP3   OH240141   2.139   1.157  13.834 -0.2659  0.9581  0.3253
 6217TIP3    H140142   2.231   1.166  13.856  0.4182 -1.3339 -1.2192
 6217TIP3    H240143   2.093   1.169  13.917  1.6059 -0.3203  1.6302
 6218TIP3   OH240144   6.080   6.534   5.942 -0.1161 -0.4168 -0.1857
 6218TIP3    H140145   6.074   6.502   5.852 -0.3003  0.4265 -0.4798
 6218TIP3    H240146   6.072   6.455   5.996  2.5179 -1.2859 -0.9300
 6219TIP3   OH240147   1.996   4.839  16.919 -1.1217  0.4277 -0.1212
 6219TIP3    H140148   1.938   4.780  16.871  0.4582 -0.5762 -0.8896
 6219TIP3    H240149   2.039   4.782  16.984  0.8621  0.5394 -1.2591
 6220TIP3   OH240150   0.052   2.661  17.219  0.0678 -0.0747  0.5144
 6220TIP3    H140151   0.037   2.567  17.213 -0.3347 -0.0591  1.1736
 6220TIP3    H240152  -0.008   2.691  17.287 -0.5380  0.8352 -0.4048
 6221TIP3   OH240153   4.492   1.084  17.040 -0.1926  0.6547  0.0551
 6221TIP3    H140154   4.407   1.090  17.082  1.0391 -1.6247  3.3328
 6221TIP3    H240155   4.513   1.174  17.014 -2.3607  1.7666  1.8254
 6222TIP3   OH240156   4.624   4.434  13.663  0.1563 -0.2723  0.3820
 6222TIP3    H140157   4.621   4.506  13.726  0.3662  0.2687 -0.2063
 6222TIP3    H240158   4.604   4.476  13.579  0.3284 -0.8950  0.0266
 6223TIP3   OH240159   5.460   6.761  13.247  0.1158 -0.2765 -0.4994
 6223TIP3    H140160   5.447   6.705  13.323  1.6374  0.2325  0.1786
 6223TIP3    H240161   5.457   6.850  13.282 -2.6155  0.1719 -1.6102
 6224TIP3   OH240162   2.276   4.521  17.011  0.1237 -0.4781  0.4110
 6224TIP3    H140163   2.287   4.592  17.074  0.9879  0.6834 -0.9894
 6224TIP3    H240164   2.188   4.487  17.030  0.0094  0.4057  1.6474
 6225TIP3   OH240165   2.447   0.960  13.357 -0.5489  0.1559 -0.1273
 6225TIP3    H140166   2.474   0.868  13.366  1.4791  0.7445  0.3430
 6225TIP3    H240167   2.465   0.999  13.443  0.1746  1.3563 -0.8001
 6226TIP3   OH240168   6.347   2.109  15.514  0.2722 -0.6434  0.6833
 6226TIP3    H140169   6.342   2.188  15.460 -2.4797 -1.3826 -0.3649
 6226TIP3    H240170   6.409   2.052  15.468 -0.1899 -0.3149 -0.3786
 6227TIP3   OH240171   4.080   1.269   5.565  0.5241 -0.0750  0.2114
 6227TIP3    H140172   4.097   1.344   5.622 -1.7766 -0.2700  1.3005
 6227TIP3    H240173   3.985   1.272   5.550  0.6904 -1.5408 -1.5132
 6228TIP3   OH240174   4.421   3.120  14.128 -0.1929 -0.0791 -0.4636
 6228TIP3    H140175   4.493   3.058  14.115  0.9408  1.1682 -0.4002
 6228TIP3    H240176   4.456   3.203  14.098 -0.6420  1.1113  2.0451
 6229TIP3   OH240177   4.918   4.552  16.762  0.2593 -0.6423  0.2208
 6229TIP3    H140178   4.932   4.538  16.669  1.8795  0.0172  0.3473
 6229TIP3    H240179   4.906   4.646  16.771  0.1060 -0.7030  0.6906
 6230TIP3   OH240180   0.869   3.113   2.616 -0.2189 -0.1808 -0.3803
 6230TIP3    H140181   0.922   3.184   2.652  0.1895 -1.2968  1.3507
 6230TIP3    H240182   0.847   3.059   2.692 -0.5198 -1.8998 -1.6236
 6231TIP3   OH240183   2.690   3.426  11.706 -0.2555  0.0007 -0.3183
 6231TIP3    H140184   2.703   3.350  11.649  3.6437  0.5450 -0.4002
 6231TIP3    H240185   2.773   3.438  11.751 -1.6081  2.5980  1.8319
 6232TIP3   OH240186   5.889   0.088   3.361  0.2999  0.2956 -0.6214
 6232TIP3    H140187   5.839   0.073   3.441 -0.4209  1.2173 -0.8864
 6232TIP3    H240188   5.857   0.172   3.327  1.0034  0.2042 -1.5717
 6233TIP3   OH240189   5.610   5.454  11.604  0.0642 -0.3627  0.4822
 6233TIP3    H140190   5.649   5.541  11.595  0.0821 -0.3650  0.5383
 6233TIP3    H240191   5.520   5.471  11.630 -0.2853 -0.3313 -0.7339
 6234TIP3   OH240192   4.791   3.021   4.791  0.7538 -0.5550 -0.2346
 6234TIP3    H140193   4.737   3.013   4.870  1.6013  0.0304  0.4119
 6234TIP3    H240194   4.728   3.041   4.722  0.2043  0.9639  0.6602
 6235TIP3   OH240195   0.696   5.466  13.978 -0.3593  0.1739  0.1743
 6235TIP3    H140196   0.767   5.405  13.997 -1.3357 -0.7334  1.0684
 6235TIP3    H240197   0.710   5.539  14.039  0.7898  0.8638 -0.8695
 6236TIP3   OH240198   0.402   0.389  13.723 -0.4165  0.5373 -0.5642
 6236TIP3    H140199   0.364   0.447  13.658 -0.3011  0.9108 -0.2996
 6236TIP3    H240200   0.487   0.363  13.685 -0.3728  0.7109 -0.5841
 6237TIP3   OH240201   5.402   1.773   4.412 -0.1456 -0.3597  0.0017
 6237TIP3    H140202   5.404   1.850   4.356 -2.6456 -0.5127 -0.4323
 6237TIP3    H240203   5.336   1.716   4.371 -0.3770 -1.4750  1.8371
 6238TIP3   OH240204   2.052   1.430   3.744  0.3258 -0.1539  0.3872
 6238TIP3    H140205   2.048   1.346   3.790 -1.0185 -0.1623  0.3086
 6238TIP3    H240206   2.060   1.406   3.652 -2.4145 -0.3273  0.1045
 6239TIP3   OH240207   3.551   2.522  14.483  0.1651 -0.1456 -0.1120
 6239TIP3    H140208   3.463   2.559  14.486 -0.5739 -1.7738 -0.4527
 6239TIP3    H240209   3.604   2.589  14.441 -1.8198 -0.7384 -4.0388
 6240TIP3   OH240210   3.398   2.793   0.324 -1.0758 -0.2095 -0.0934
 6240TIP3    H140211   3.408   2.698   0.337  0.1195  0.0867  1.3913
 6240TIP3    H240212   3.476   2.831   0.364 -2.7111  1.5646  1.6211
 6241TIP3   OH240213   5.180   4.731  12.178  0.1257 -0.1663  0.1318
 6241TIP3    H140214   5.206   4.652  12.132 -0.2973 -0.1282 -0.1781
 6241TIP3    H240215   5.222   4.724  12.264 -0.6695 -1.1748  0.4489
 6242TIP3   OH240216   3.216   0.477  12.906  0.3621 -0.0125 -0.2188
 6242TIP3    H140217   3.186   0.488  12.996  0.9353  1.8813 -0.2325
 6242TIP3    H240218   3.251   0.388  12.904  0.3619 -0.0857  1.4268
 6243TIP3   OH240219   6.207   5.196  14.101  0.1992  0.8154  0.0194
 6243TIP3    H140220   6.140   5.139  14.139 -1.2155  1.6161 -1.1404
 6243TIP3    H240221   6.254   5.233  14.176  0.5236 -1.0997  0.8072
 6244TIP3   OH240222   0.724   0.291   0.575  0.0755 -0.5367 -0.1340
 6244TIP3    H140223   0.760   0.374   0.607  2.7854 -1.3905 -0.6910
 6244TIP3    H240224   0.645   0.277   0.627  0.7280  1.3494  1.4628
 6245TIP3   OH240225   3.722   3.860   0.200  0.0737  0.3626 -0.2624
 6245TIP3    H140226   3.714   3.909   0.119  1.2401  2.4524  0.8145
 6245TIP3    H240227   3.781   3.912   0.254  0.3190 -1.5885  1.4698
 6246TIP3   OH240228   5.464   1.184  16.648 -0.0618 -0.5697 -0.0759
 6246TIP3    H140229   5.522   1.109  16.659  1.1038  0.6507  2.9384
 6246TIP3    H240230   5.376   1.148  16.661  0.3885 -1.6143  0.1576
 6247TIP3   OH240231   2.038   6.193   0.823 -0.5399 -0.1418  0.3219
 6247TIP3    H140232   2.009   6.132   0.755  1.9118 -0.4343 -0.5369
 6247TIP3    H240233   2.100   6.144   0.876 -0.4797  0.8617  1.2325
 6248TIP3   OH240234   0.493   5.233  11.580  0.2252  0.0007  0.1505
 6248TIP3    H140235   0.488   5.319  11.540  0.6072  0.8338  1.7712
 6248TIP3    H240236   0.565   5.241  11.644 -0.5154 -1.1261  1.1750
 6249TIP3   OH240237   1.590   0.756  11.293  0.2209 -0.0532 -0.0305
 6249TIP3    H140238   1.555   0.698  11.225  1.5022  0.9110 -1.5462
 6249TIP3    H240239   1.540   0.837  11.284 -0.1226 -0.1770  0.6966
 6250TIP3   OH240240   0.113   3.615  17.216 -0.1372  0.0763 -0.0184
 6250TIP3    H140241   0.143   3.697  17.177  2.0149 -0.1998  0.9183
 6250TIP3    H240242   0.019   3.627  17.225 -0.1421  1.7105 -1.5674
 6251TIP3   OH240243   2.660   1.681   1.044  0.0355  0.1195 -0.1374
 6251TIP3    H140244   2.585   1.628   1.016 -0.6671  0.5298  0.9200
 6251TIP3    H240245   2.661   1.673   1.139 -0.0797  1.9832  0.0464
 6252TIP3   OH240246   2.400   4.200   5.170  0.1209  0.4245  0.5953
 6252TIP3    H140247   2.414   4.110   5.201 -0.2873 -0.7267 -2.2594
 6252TIP3    H240248   2.463   4.252   5.219  2.8577 -1.9846 -0.0884
 6253TIP3   OH240249   1.363   4.465  14.681  0.2172  0.0828  0.1521
 6253TIP3    H140250   1.415   4.514  14.745 -2.1147  3.0150  0.0263
 6253TIP3    H240251   1.414   4.386  14.664  4.0224  2.1581  0.8229
 6254TIP3   OH240252   1.530   1.640  13.738  0.6648  0.3067  0.5116
 6254TIP3    H140253   1.468   1.609  13.804 -0.8242  1.0883 -0.4752
 6254TIP3    H240254   1.597   1.572  13.735 -0.1641 -0.5945  1.5758
 6255TIP3   OH240255   2.775   6.121  15.565 -0.1134  0.1472 -0.0772
 6255TIP3    H140256   2.732   6.037  15.553 -1.8686  0.8431  1.0189
 6255TIP3    H240257   2.795   6.151  15.476  1.1121 -1.6491 -0.4654
 6256TIP3   OH240258   3.060   6.017  14.412 -0.1057 -0.1614 -0.4551
 6256TIP3    H140259   3.013   5.968  14.479  1.5702  0.0174  0.9156
 6256TIP3    H240260   3.108   5.951  14.363  1.5365 -0.0212  0.8943
 6257TIP3   OH240261   6.099   4.000   5.209 -0.1152 -0.4328 -0.0636
 6257TIP3    H140262   6.142   4.071   5.255  0.5426 -1.1947  0.5219
 6257TIP3    H240263   6.016   4.037   5.179  0.5047  0.7583 -0.3398
 6258TIP3   OH240264   1.261   1.801  14.668 -0.4387  0.1121 -0.4143
 6258TIP3    H140265   1.243   1.728  14.607 -0.6947  1.4270 -1.9819
 6258TIP3    H240266   1.352   1.825  14.649 -0.9266  1.3921 -1.2825
 6259TIP3   OH240267   3.530   4.838   1.690 -0.6033  0.6971  0.2368
 6259TIP3    H140268   3.592   4.891   1.639 -0.9008  0.2859 -0.5758
 6259TIP3    H240269   3.560   4.846   1.780  1.5915 -0.7810 -0.2921
 6260TIP3   OH240270   2.173   1.196   1.643 -0.2190 -0.1221  0.4307
 6260TIP3    H140271   2.159   1.152   1.559  0.5308 -1.5727  1.0323
 6260TIP3    H240272   2.230   1.270   1.621 -2.4464  1.3523 -0.7883
 6261TIP3   OH240273   6.604   3.209  11.265  0.0429 -0.1185 -0.3001
 6261TIP3    H140274   6.685   3.257  11.282  2.0492 -3.6878  1.1201
 6261TIP3    H240275   6.597   3.208  11.169  2.0705 -0.2655 -0.4893
 6262TIP3   OH240276   3.380   1.619  17.481  0.3586 -0.4018 -0.2110
 6262TIP3    H140277   3.307   1.603  17.420  0.2426  1.4688 -0.6244
 6262TIP3    H240278   3.449   1.657  17.426  0.7343  0.1005  0.5978
 6263TIP3   OH240279   5.163   0.900   6.014 -0.0778  0.2281 -0.3299
 6263TIP3    H140280   5.165   0.935   5.925  1.1797  1.0356 -0.0086
 6263TIP3    H240281   5.246   0.852   6.023 -1.0273 -1.4440 -0.1982
 6264TIP3   OH240282   4.649   1.198   2.599 -0.4638 -0.2913 -0.5223
 6264TIP3    H140283   4.649   1.272   2.538  0.6257  3.0058  3.0309
 6264TIP3    H240284   4.557   1.172   2.605 -0.9271  0.9437 -1.6968
 6265TIP3   OH240285   1.003   0.339  14.824  0.2863 -0.7333 -0.1504
 6265TIP3    H140286   0.915   0.336  14.786  0.4804  0.3278 -0.7407
 6265TIP3    H240287   1.022   0.433  14.831  1.3012 -0.9546  0.1373
 6266TIP3   OH240288   3.144   4.827  13.762 -0.1452 -0.3088 -0.6085
 6266TIP3    H140289   3.116   4.767  13.693  3.3066 -0.7531 -1.8237
 6266TIP3    H240290   3.183   4.901  13.715  0.0019  0.6042  0.8873
 6267TIP3   OH240291   6.012   0.408  11.853  0.4752  0.2489 -0.1751
 6267TIP3    H140292   6.017   0.387  11.946  0.6660  4.0217  0.8389
 6267TIP3    H240293   6.064   0.488  11.843  0.7451 -0.1800 -3.6349
 6268TIP3   OH240294   5.680   5.165  12.937 -0.2884  0.4166 -0.1344
 6268TIP3    H140295   5.674   5.096  12.871  0.6398  1.4108 -1.3113
 6268TIP3    H240296   5.589   5.181  12.964 -0.5400 -1.0286 -0.0592
 6269TIP3   OH240297   3.606   5.838   3.042  0.1481 -0.2186  0.4703
 6269TIP3    H140298   3.627   5.790   2.962 -1.3769 -1.7076  0.8934
 6269TIP3    H240299   3.691   5.855   3.083  0.9759  0.9009 -1.5892
 6270TIP3   OH240300   2.064   3.932   5.461 -0.0410 -0.2361 -0.2013
 6270TIP3    H140301   2.079   3.998   5.528 -1.0923  0.2980 -0.4743
 6270TIP3    H240302   2.004   3.870   5.501  1.7653 -1.6789  0.4455
 6271TIP3   OH240303   1.477   4.168  12.878 -0.2666 -0.0450  0.2886
 6271TIP3    H140304   1.567   4.149  12.902 -0.1638 -0.3769 -0.3445
 6271TIP3    H240305   1.432   4.084  12.884 -0.4337  0.0356  0.1883
 6272TIP3   OH240306   1.496   4.513  16.727  0.4477 -0.2712 -0.5011
 6272TIP3    H140307   1.543   4.549  16.653  0.1037  1.0350 -0.1206
 6272TIP3    H240308   1.542   4.547  16.804  0.2153 -0.8043 -0.1175
 6273TIP3   OH240309   2.274   6.225   4.107 -0.7708 -0.1803 -0.4536
 6273TIP3    H140310   2.346   6.165   4.125 -0.7361  0.4792  1.9398
 6273TIP3    H240311   2.195   6.176   4.132 -0.8835  0.1390 -0.1697
 6274TIP3   OH240312   4.809   6.616   1.704  0.5666  0.0339  0.0871
 6274TIP3    H140313   4.790   6.524   1.720 -0.1268  0.0971 -0.3490
 6274TIP3    H240314   4.830   6.621   1.611  1.2861  0.2101  0.2522
 6275TIP3   OH240315   1.775   1.284   1.079 -0.6943  0.2279  0.5963
 6275TIP3    H140316   1.792   1.192   1.061  0.4540  0.5955 -0.2841
 6275TIP3    H240317   1.758   1.287   1.173  1.2637 -0.6144  1.0220
 6276TIP3   OH240318   6.181   6.195  15.018  0.2933 -0.1527  0.2268
 6276TIP3    H140319   6.131   6.231  14.945  1.0494 -2.9935 -1.8869
 6276TIP3    H240320   6.265   6.241  15.015 -0.5636  1.5241  0.9818
 6277TIP3   OH240321   4.922   3.167   2.500  0.4527  0.2581 -0.1762
 6277TIP3    H140322   4.982   3.098   2.470  0.0060 -0.1740 -0.0777
 6277TIP3    H240323   4.876   3.194   2.420  0.7352  0.5586 -0.2433
 6278TIP3   OH240324   2.259   2.238  15.090  0.1015  0.1882  0.2208
 6278TIP3    H140325   2.279   2.302  15.158  0.2905  0.7335 -0.3403
 6278TIP3    H240326   2.322   2.257  15.020 -0.2454 -0.2050 -0.2054
 6279TIP3   OH240327   1.891   3.289   5.915 -0.3009 -0.0468  0.0406
 6279TIP3    H140328   1.870   3.236   5.838  1.9516  1.0294 -1.4420
 6279TIP3    H240329   1.902   3.226   5.986 -2.1934 -1.0895 -0.5363
 6280TIP3   OH240330   6.749   3.251   5.443 -0.2069  0.0241  0.1101
 6280TIP3    H140331   6.728   3.189   5.513  0.1755  2.5579  2.6358
 6280TIP3    H240332   6.664   3.283   5.413 -0.3429  0.2340  0.7029
 6281TIP3   OH240333   5.501   5.200  15.938  0.2562 -0.5531 -0.0500
 6281TIP3    H140334   5.517   5.116  15.895 -1.5634 -1.2894  0.6071
 6281TIP3    H240335   5.541   5.265  15.879  0.5920 -1.7576 -1.2123
 6282TIP3   OH240336   1.831   3.316  15.744  0.2124  0.4544 -0.2321
 6282TIP3    H140337   1.902   3.354  15.794  0.8212 -0.9518  0.0169
 6282TIP3    H240338   1.794   3.249  15.801  1.7797 -2.1272 -2.0229
 6283TIP3   OH240339   6.076   5.396  17.297  0.6399  0.1351 -0.5172
 6283TIP3    H140340   6.150   5.451  17.269  0.6826 -0.5244 -1.7816
 6283TIP3    H240341   6.005   5.458  17.313  1.5078  0.8052  0.9538
 6284TIP3   OH240342   1.762   2.015  15.761  0.0867  0.0861 -0.0325
 6284TIP3    H140343   1.780   2.109  15.759 -1.1098  0.3728  1.4369
 6284TIP3    H240344   1.801   1.984  15.842 -1.9927 -0.1127  0.9445
 6285TIP3   OH240345   0.829   1.793  16.468 -0.1808 -0.5574  0.1682
 6285TIP3    H140346   0.904   1.784  16.526 -0.0517  0.5109  0.1734
 6285TIP3    H240347   0.828   1.885  16.443 -0.4265 -0.9277 -1.2753
 6286TIP3   OH240348   0.337   1.143  12.338 -0.1712  0.1474 -0.7766
 6286TIP3    H140349   0.270   1.198  12.298 -0.3953 -0.3721 -1.1307
 6286TIP3    H240350   0.355   1.076  12.273  0.4913  0.1177 -0.5659
 6287TIP3   OH240351   3.094   5.551   1.943 -0.0956 -0.3348  0.1429
 6287TIP3    H140352   3.132   5.582   1.861  1.4784 -0.3134  0.8384
 6287TIP3    H240353   3.144   5.472   1.964 -1.6292 -1.3163  0.2369
 6288TIP3   OH240354   3.845   3.260  15.585  0.6071  0.6823  0.5547
 6288TIP3    H140355   3.885   3.341  15.616 -0.9305  1.4696  0.5432
 6288TIP3    H240356   3.840   3.270  15.490 -0.1529  0.8530  0.6074
 6289TIP3   OH240357   3.549   4.332   3.519 -0.4030  0.6114  0.2689
 6289TIP3    H140358   3.484   4.354   3.586 -0.1970  0.4181  0.5330
 6289TIP3    H240359   3.507   4.264   3.467 -0.9047  1.3547 -0.3337
 6290TIP3   OH240360   5.184   0.598  11.693  0.4169  0.2233 -0.3338
 6290TIP3    H140361   5.173   0.530  11.760  0.0585  0.8243  0.2357
 6290TIP3    H240362   5.232   0.668  11.738  1.1696  0.1777 -1.0358
 6291TIP3   OH240363   4.546   3.993  14.596  0.1045 -1.0865  0.5815
 6291TIP3    H140364   4.598   4.059  14.642 -0.3189 -0.3775  0.0785
 6291TIP3    H240365   4.493   3.952  14.664 -0.9164  0.3274  0.6963
 6292TIP3   OH240366   0.119   5.904   1.025  0.2482 -0.2430 -0.7622
 6292TIP3    H140367   0.069   5.835   1.067  2.4237 -1.4229  0.0481
 6292TIP3    H240368   0.141   5.869   0.938  0.1210  0.0480 -0.9143
 6293TIP3   OH240369   6.272   3.422   4.744 -0.2300 -0.0909 -0.2136
 6293TIP3    H140370   6.199   3.407   4.804  1.7746 -0.2440  2.3368
 6293TIP3    H240371   6.250   3.504   4.700 -1.5680  0.2863  1.0703
 6294TIP3   OH240372   5.634   3.831   6.676 -0.4278  0.8439 -0.0215
 6294TIP3    H140373   5.560   3.770   6.676 -0.1437  0.4154 -2.2083
 6294TIP3    H240374   5.609   3.899   6.614  0.9012  0.8397 -0.5860
 6295TIP3   OH240375   0.318   6.622   0.175  0.1851 -0.0053 -0.4611
 6295TIP3    H140376   0.377   6.696   0.163 -0.5465  0.3320 -2.3157
 6295TIP3    H240377   0.282   6.633   0.263 -1.2307  2.8851 -1.2812
 6296TIP3   OH240378   2.910   0.461  14.167 -0.3230 -0.6338 -0.2224
 6296TIP3    H140379   2.876   0.539  14.124 -0.9507 -0.3091  0.8272
 6296TIP3    H240380   2.990   0.490  14.210  0.8047 -1.1666 -1.8592
 6297TIP3   OH240381   3.325   6.755  11.460  0.0790 -0.0124  0.5947
 6297TIP3    H140382   3.405   6.711  11.490  1.3450  2.1831  0.6699
 6297TIP3    H240383   3.254   6.701  11.494  1.3436 -4.4168 -2.8769
 6298TIP3   OH240384   2.122   3.519   3.081  0.4938 -0.9155 -0.3658
 6298TIP3    H140385   2.057   3.574   3.125  0.8189 -1.6014  1.0124
 6298TIP3    H240386   2.128   3.555   2.992 -1.2571 -0.4119 -0.3137
 6299TIP3   OH240387   5.852   3.795  12.278 -0.5779 -0.3123  0.3991
 6299TIP3    H140388   5.828   3.795  12.370  0.3833 -1.2853  0.6654
 6299TIP3    H240389   5.816   3.877  12.244 -0.9690  0.0426  1.6194
 6300TIP3   OH240390   5.881   3.881  15.761 -0.4381 -0.0341  0.1624
 6300TIP3    H140391   5.961   3.863  15.810 -0.7913 -0.5139  0.5697
 6300TIP3    H240392   5.901   3.853  15.672  0.2243  0.8867 -0.0047
 6301TIP3   OH240393   2.747   4.839   0.063 -0.3626 -1.0869  0.5153
 6301TIP3    H140394   2.761   4.862   0.155 -0.3568 -1.8871  0.7218
 6301TIP3    H240395   2.670   4.782   0.063 -0.4127 -1.0275  0.0114
 6302TIP3   OH240396   3.852   1.053  14.197  0.0484 -0.6136  0.8223
 6302TIP3    H140397   3.838   0.965  14.161  1.5067 -0.4703 -0.2073
 6302TIP3    H240398   3.768   1.097  14.188  0.0174 -0.9933 -1.3527
 6303TIP3   OH240399   5.240   5.467   2.777  0.1012 -0.5525  0.0977
 6303TIP3    H140400   5.177   5.403   2.743 -0.9670  0.3621  0.2853
 6303TIP3    H240401   5.251   5.442   2.869  0.7337 -1.2634 -0.1587
 6304TIP3   OH240402   3.377   2.718  11.128 -0.6556  0.1743  0.6860
 6304TIP3    H140403   3.415   2.681  11.207 -0.2111  1.9363  1.3620
 6304TIP3    H240404   3.359   2.643  11.072 -1.0348 -1.1305  2.4693
 6305TIP3   OH240405   3.260   0.483  14.188 -0.2018 -0.0016  0.2216
 6305TIP3    H140406   3.262   0.554  14.251 -0.1676 -0.5574  0.8583
 6305TIP3    H240407   3.343   0.438  14.199 -0.1945 -0.1077 -0.2217
 6306TIP3   OH240408   1.673   3.891  15.234 -0.0177 -0.0959 -0.1110
 6306TIP3    H140409   1.668   3.987  15.231 -1.9794 -0.1799 -2.6510
 6306TIP3    H240410   1.582   3.863  15.235  0.5253 -1.9619  0.0400
 6307TIP3   OH240411   5.310   3.212   4.831 -0.0158  0.3648 -0.0815
 6307TIP3    H140412   5.359   3.161   4.895 -0.9814 -1.2364 -0.5285
 6307TIP3    H240413   5.271   3.283   4.881 -1.1376 -1.1118  1.2667
 6308TIP3   OH240414   4.385   0.051   5.857  0.0376 -0.3335  0.5122
 6308TIP3    H140415   4.344   0.129   5.895 -0.1812  0.7552 -1.8186
 6308TIP3    H240416   4.353   0.047   5.768  2.0260 -1.6630 -0.2298
 6309TIP3   OH240417   0.095   1.998  15.473 -0.3516  0.4698 -0.3891
 6309TIP3    H140418   0.056   2.081  15.501  1.8152  1.4476 -0.1107
 6309TIP3    H240419   0.040   1.932  15.515 -1.5707  1.7542  0.1508
 6310TIP3   OH240420   0.908   1.536  12.404  0.0297 -0.5027  0.1183
 6310TIP3    H140421   0.859   1.459  12.375  1.8687 -1.7469  0.1247
 6310TIP3    H240422   0.948   1.570  12.325  0.7233 -0.6841  0.3835
 6311TIP3   OH240423   4.338   0.477   1.387 -0.3294 -0.6120 -0.4375
 6311TIP3    H140424   4.362   0.541   1.319 -1.3486  0.4440  0.1662
 6311TIP3    H240425   4.410   0.414   1.386  0.8488  0.6687 -0.9066
 6312TIP3   OH240426   3.148   0.725   4.483  0.1729  0.0249 -0.3516
 6312TIP3    H140427   3.106   0.804   4.451  0.8354 -0.1826 -1.7787
 6312TIP3    H240428   3.076   0.664   4.498 -0.2213  0.4521 -0.4881
 6313TIP3   OH240429   3.264   3.862   4.920  0.1402 -0.2090  0.0237
 6313TIP3    H140430   3.273   3.954   4.945  2.6709 -0.6817  1.2119
 6313TIP3    H240431   3.354   3.834   4.901 -0.5561 -2.4615 -0.2351
 6314TIP3   OH240432   3.745   1.868   3.721  0.1236 -0.3724 -0.0431
 6314TIP3    H140433   3.702   1.825   3.646  0.1593 -1.4216  0.5269
 6314TIP3    H240434   3.687   1.851   3.795  0.5010 -0.0326  0.3360
 6315TIP3   OH240435   3.149   2.146   5.832  0.0820  0.1493  0.6572
 6315TIP3    H140436   3.091   2.074   5.809  0.0892  0.2594  0.2929
 6315TIP3    H240437   3.116   2.177   5.917  0.2938 -0.5035  0.9812
 6316TIP3   OH240438   3.448   0.977   4.061 -0.0771 -0.3680  0.9416
 6316TIP3    H140439   3.354   0.977   4.078  0.0025 -0.1465  1.4171
 6316TIP3    H240440   3.477   1.064   4.088  0.3107 -0.5399  1.0886
 6317TIP3   OH240441   3.763   0.834  16.147 -0.4615  0.0741 -0.4544
 6317TIP3    H140442   3.714   0.870  16.222 -1.3407 -0.4129 -0.7783
 6317TIP3    H240443   3.855   0.852  16.168 -0.8282  2.0339 -0.3695
 6318TIP3   OH240444   1.436   6.304   2.100  0.1816  0.3266 -0.3445
 6318TIP3    H140445   1.525   6.272   2.107  0.6554  1.0861 -2.2266
 6318TIP3    H240446   1.445   6.395   2.071 -1.1233  1.8857  3.4477
 6319TIP3   OH240447   5.798   0.007  15.877  0.2021 -0.3781 -0.1245
 6319TIP3    H140448   5.822   0.079  15.936  0.6588  1.1081 -2.0401
 6319TIP3    H240449   5.869  -0.056  15.887  0.5034  0.0514  0.5730
 6320TIP3   OH240450   4.513   0.354  14.098  0.3998 -0.2152  0.4478
 6320TIP3    H140451   4.501   0.325  14.189 -1.1009 -2.0562 -0.2609
 6320TIP3    H240452   4.502   0.449  14.102  1.9191 -0.0484  2.3909
 6321TIP3   OH240453   1.427   4.211   4.363  0.2151  0.3732  0.3473
 6321TIP3    H140454   1.505   4.206   4.417  0.0000  0.5772  0.6826
 6321TIP3    H240455   1.355   4.214   4.425 -0.0807 -0.1118  0.0348
 6322TIP3   OH240456   1.162   3.832   4.304  0.0132  0.5193  0.3787
 6322TIP3    H140457   1.187   3.750   4.346  0.2854 -0.1868 -1.1091
 6322TIP3    H240458   1.091   3.867   4.359 -1.8836 -1.9678 -0.3289
 6323TIP3   OH240459   6.360   6.618   5.622 -0.2454 -0.1868  0.0908
 6323TIP3    H140460   6.340   6.545   5.680  0.3099 -0.0045  0.5206
 6323TIP3    H240461   6.341   6.696   5.673  3.3644  0.0753  1.3381
 6324TIP3   OH240462   5.667   1.779   2.484  0.2192 -0.6495  0.1227
 6324TIP3    H140463   5.677   1.859   2.433 -2.4534  0.6163  1.3464
 6324TIP3    H240464   5.583   1.742   2.454 -0.9276 -0.4029  2.7262
 6325TIP3   OH240465   1.852   6.553   6.588 -0.2088 -0.3859 -0.1807
 6325TIP3    H140466   1.810   6.631   6.553  1.5509  0.8216  0.2244
 6325TIP3    H240467   1.899   6.584   6.666  2.0725 -1.3917 -1.0436
 6326TIP3   OH240468   5.454   2.081   4.060 -0.2463  0.0089  0.4435
 6326TIP3    H140469   5.432   2.163   4.106  0.7986  1.2749 -1.1840
 6326TIP3    H240470   5.373   2.030   4.061 -0.6764  0.6316  2.3146
 6327TIP3   OH240471   3.968   2.921   1.385  0.0701  0.2191  0.2577
 6327TIP3    H140472   4.016   2.866   1.447  1.8911  1.0790 -0.3027
 6327TIP3    H240473   4.019   3.003   1.383 -0.5369  0.5801 -1.5814
 6328TIP3   OH240474   6.348   0.054  15.297 -0.2127  0.7876  0.2801
 6328TIP3    H140475   6.383   0.109  15.227  0.0577  1.7481  1.1558
 6328TIP3    H240476   6.285   0.110  15.342 -2.2493 -0.5935 -0.6741
 6329TIP3   OH240477   5.882   3.276   0.134  0.7244  0.0136  0.2879
 6329TIP3    H140478   5.824   3.299   0.206  0.2121 -0.2512 -0.0317
 6329TIP3    H240479   5.917   3.359   0.104 -1.3852  0.4882 -1.0905
 6330TIP3   OH240480   1.634   5.149   3.557  0.0332  0.1673 -0.3287
 6330TIP3    H140481   1.597   5.075   3.604 -0.0683  0.1935 -0.3665
 6330TIP3    H240482   1.566   5.174   3.494  0.1284  0.1932 -0.4230
 6331TIP3   OH240483   2.539   2.993   5.154  0.1183 -0.3227 -0.7459
 6331TIP3    H140484   2.624   2.949   5.163  0.5043  0.3961 -0.7748
 6331TIP3    H240485   2.555   3.082   5.185 -1.0337 -0.6207  0.7854
 6332TIP3   OH240486   2.511   4.699  11.676  0.8757 -0.5922 -0.1391
 6332TIP3    H140487   2.483   4.658  11.595  1.0372 -1.1885  0.1002
 6332TIP3    H240488   2.434   4.744  11.708  1.0323  0.3573 -1.0478
 6333TIP3   OH240489   5.272   5.142  16.057 -0.3006 -0.0370  0.2228
 6333TIP3    H140490   5.216   5.142  15.980  0.9728  0.3965 -0.7330
 6333TIP3    H240491   5.360   5.159  16.023  0.4882 -1.0776  1.6269
 6334TIP3   OH240492   2.004   4.410   1.845 -0.1338 -0.0589 -0.4373
 6334TIP3    H140493   1.953   4.459   1.909  2.4505  0.0643  1.6858
 6334TIP3    H240494   1.975   4.319   1.854  0.6614 -0.1616  1.4989
 6335TIP3   OH240495   6.648   6.445  14.021  0.0118 -0.0753 -0.0225
 6335TIP3    H140496   6.585   6.376  14.004  1.0648 -1.1247  0.2206
 6335TIP3    H240497   6.663   6.486  13.936 -0.7331 -0.0269 -0.1397
 6336TIP3   OH240498   0.934   2.505   5.138  0.0193  0.7170  0.1060
 6336TIP3    H140499   0.901   2.594   5.150  1.2288  1.0782  0.9115
 6336TIP3    H240500   0.994   2.491   5.211 -0.0151 -0.7097 -0.1012
 6337TIP3   OH240501   3.957   3.104   2.817  0.0831  0.5961  0.1109
 6337TIP3    H140502   3.906   3.059   2.750 -0.6584  1.0440  0.3709
 6337TIP3    H240503   3.962   3.042   2.890 -1.8490  1.2953  0.8950
 6338TIP3   OH240504   2.672   2.699  17.114 -0.4378 -0.0301 -0.3526
 6338TIP3    H140505   2.591   2.690  17.165  1.2045 -2.6175  2.0901
 6338TIP3    H240506   2.684   2.793  17.104 -2.1725  0.5271  1.9252
 6339TIP3   OH240507   5.408   3.749   2.144 -0.7374  0.3569 -0.2145
 6339TIP3    H140508   5.393   3.704   2.061  1.0396 -0.8285  0.0585
 6339TIP3    H240509   5.459   3.826   2.120 -1.0583  0.5363 -0.3256
 6340TIP3   OH240510   6.627   0.340  12.804 -0.1786  0.4595 -0.6454
 6340TIP3    H140511   6.596   0.417  12.852 -1.1465 -0.5155  0.3413
 6340TIP3    H240512   6.710   0.319  12.846  0.2048  1.0722 -1.0669
 6341TIP3   OH240513   0.068   6.044   5.948 -0.3285 -0.1861 -0.2587
 6341TIP3    H140514   0.137   6.108   5.933  0.7575 -1.4604 -0.9322
 6341TIP3    H240515   0.016   6.046   5.868 -0.4254 -0.0022 -0.1919
 6342TIP3   OH240516   1.654   3.373   5.372 -0.0237  0.4370 -0.0714
 6342TIP3    H140517   1.573   3.409   5.334 -0.6124  0.3145  1.0312
 6342TIP3    H240518   1.631   3.353   5.462  0.5029 -1.9842 -0.4030
 6343TIP3   OH240519   2.978   6.239  12.771  0.5513  0.0335 -0.2364
 6343TIP3    H140520   3.034   6.165  12.794  0.1302  0.0500  0.9311
 6343TIP3    H240521   2.889   6.206  12.783  0.3473  0.4942 -0.4594
 6344TIP3   OH240522   2.801   3.562   5.518 -0.0639  0.1140 -0.3738
 6344TIP3    H140523   2.708   3.562   5.492  0.2482  0.3690 -1.5240
 6344TIP3    H240524   2.806   3.628   5.587 -0.6390  0.5513 -0.7349
 6345TIP3   OH240525   3.804   5.478  15.196  0.3933 -0.4198  0.2491
 6345TIP3    H140526   3.792   5.427  15.276 -1.3164 -0.5090 -0.0193
 6345TIP3    H240527   3.769   5.564  15.217 -3.2669 -1.3283 -1.2745
 6346TIP3   OH240528   5.693   1.554  14.210 -0.0776  0.0342  0.1624
 6346TIP3    H140529   5.698   1.648  14.192  1.3679  0.6626  3.1763
 6346TIP3    H240530   5.782   1.522  14.196 -0.1154 -0.4777  1.0456
 6347TIP3   OH240531   4.898   0.987   3.591 -0.5823  0.6978  0.1225
 6347TIP3    H140532   4.838   1.049   3.550 -1.5612  0.2965  0.9042
 6347TIP3    H240533   4.938   0.940   3.518  0.3609  2.3863 -0.5008
 6348TIP3   OH240534   1.965   0.251   5.069 -0.5887 -0.3507  0.5531
 6348TIP3    H140535   1.993   0.226   5.158  0.5190  1.6163  0.8198
 6348TIP3    H240536   2.014   0.192   5.012  2.0687  1.1119  1.1491
 6349TIP3   OH240537   3.883   4.539  12.708  0.2177  0.2419  0.4142
 6349TIP3    H140538   3.878   4.540  12.612  0.0881 -1.8201  0.3609
 6349TIP3    H240539   3.934   4.617  12.730  1.8687 -0.2295 -1.4740
 6350TIP3   OH240540   4.961   6.644   1.395  0.0380  0.3375  0.3322
 6350TIP3    H140541   5.001   6.729   1.414  0.3182 -0.1459  2.0512
 6350TIP3    H240542   5.003   6.616   1.314 -1.0354  2.4127 -1.0574
 6351TIP3   OH240543   1.585   4.287  13.970  0.4502 -0.5827  0.3786
 6351TIP3    H140544   1.507   4.288  14.025 -1.2128  2.8607 -1.7028
 6351TIP3    H240545   1.636   4.361  14.000  0.1651  0.5298 -1.7193
 6352TIP3   OH240546   4.644   3.936  17.235 -0.2331 -0.0888  0.5901
 6352TIP3    H140547   4.621   4.005  17.297  0.2887  0.7791 -0.1498
 6352TIP3    H240548   4.695   3.874  17.286  1.9870  1.6360  0.6439
 6353TIP3   OH240549   5.020   3.899   3.084  0.0110  0.2525  0.1118
 6353TIP3    H140550   4.933   3.914   3.049  1.3436  2.1811 -2.7269
 6353TIP3    H240551   5.049   3.817   3.043  0.3401  0.8151 -0.8213
 6354TIP3   OH240552   5.331   0.406   6.143  0.8725 -0.1210  0.2866
 6354TIP3    H140553   5.393   0.476   6.123  0.7652 -0.3818 -1.1196
 6354TIP3    H240554   5.281   0.396   6.062  0.5135 -1.4382  0.6551
 6355TIP3   OH240555   6.511   1.000  16.407 -0.5205  0.3356 -0.8608
 6355TIP3    H140556   6.468   0.929  16.359 -4.8435  0.3208  2.3862
 6355TIP3    H240557   6.451   1.075  16.399  0.8398  1.6880  0.7032
 6356TIP3   OH240558   6.069   4.000   3.848 -0.2347 -0.2485 -0.1861
 6356TIP3    H140559   6.092   3.933   3.912 -0.0223  0.9384  1.0265
 6356TIP3    H240560   5.991   4.042   3.884 -0.3813  0.1435 -0.9378
 6357TIP3   OH240561   6.432   1.988   1.193 -0.0974 -0.6388 -0.3258
 6357TIP3    H140562   6.528   1.986   1.192 -0.0605  0.1841 -1.8987
 6357TIP3    H240563   6.407   1.906   1.235  1.2851  0.0354  2.0182
 6358TIP3   OH240564   3.420   0.761   5.869 -0.6723  0.2797 -0.5763
 6358TIP3    H140565   3.452   0.675   5.839 -1.5226  0.0876 -0.9660
 6358TIP3    H240566   3.464   0.775   5.952  0.1588 -0.1337 -0.9316
 6359TIP3   OH240567   6.094   0.746   2.836  0.0944 -0.1267  0.4635
 6359TIP3    H140568   6.063   0.836   2.846  0.2231  0.0958 -0.9125
 6359TIP3    H240569   6.016   0.692   2.850 -0.2522  0.2691  0.0936
 6360TIP3   OH240570   6.099   4.853   1.850 -0.1045  0.4600 -0.1086
 6360TIP3    H140571   6.060   4.772   1.882 -4.0069  2.5196  1.0160
 6360TIP3    H240572   6.063   4.864   1.762 -0.4991  1.4798  0.1717
 6361TIP3   OH240573   4.197   1.777  10.708 -0.5965 -0.1319  0.5438
 6361TIP3    H140574   4.171   1.697  10.753 -1.8404 -1.6042 -2.5081
 6361TIP3    H240575   4.273   1.751  10.656  1.0350  1.6091  1.9115
 6362TIP3   OH240576   2.431   5.600   6.336 -0.4965  0.0285 -0.0062
 6362TIP3    H140577   2.481   5.635   6.410  0.8253 -1.7525  0.0074
 6362TIP3    H240578   2.496   5.585   6.268 -1.1307 -1.4318 -0.3455
 6363TIP3   OH240579   1.385   4.302  11.186 -0.5090 -0.3062  0.3935
 6363TIP3    H140580   1.360   4.233  11.248 -3.3054 -0.8265 -1.1804
 6363TIP3    H240581   1.310   4.311  11.127  0.9870  1.9786 -1.3520
 6364TIP3   OH240582   5.177   4.445   1.927  0.1575  1.0235 -0.1576
 6364TIP3    H140583   5.098   4.393   1.917  0.4941  0.4539  0.0795
 6364TIP3    H240584   5.146   4.531   1.955 -0.3035  0.3921  1.3847
 6365TIP3   OH240585   3.969   4.308  15.146  0.0307  1.0187  0.8374
 6365TIP3    H140586   3.917   4.384  15.118  0.1305  1.2217  1.2011
 6365TIP3    H240587   3.971   4.251  15.069 -0.7991  0.9677  0.8493
 6366TIP3   OH240588   1.884   6.208   2.704 -0.2880  0.0030 -0.4121
 6366TIP3    H140589   1.848   6.140   2.647  0.4884 -1.7980  1.1494
 6366TIP3    H240590   1.812   6.231   2.762  0.2107 -1.5381  0.8602
 6367TIP3   OH240591   4.487   4.800  16.699  0.4063 -0.3556 -0.0473
 6367TIP3    H140592   4.511   4.892  16.692  1.2576 -0.2564  2.6963
 6367TIP3    H240593   4.553   4.753  16.647  1.0163  0.4945 -0.0558
 6368TIP3   OH240594   4.942   6.632  14.018 -0.0306  0.1800  0.1450
 6368TIP3    H140595   4.854   6.666  14.035 -0.5325 -1.0544  0.0821
 6368TIP3    H240596   4.956   6.565  14.085  0.6085 -0.0922 -0.2482
 6369TIP3   OH240597   4.357   0.750   1.896  0.1192 -0.2187 -0.0789
 6369TIP3    H140598   4.397   0.837   1.902  1.6894 -0.8271 -0.9746
 6369TIP3    H240599   4.395   0.701   1.969 -0.6997 -0.1898  0.3753
 6370TIP3   OH240600   3.622   0.668   5.517 -0.2505 -0.1802 -0.1394
 6370TIP3    H140601   3.703   0.638   5.476  0.1794 -1.0217  1.2534
 6370TIP3    H240602   3.567   0.589   5.523 -1.0947  0.3372 -0.8702
 6371TIP3   OH240603   0.276   1.018   6.518 -0.8103  0.2746  0.1811
 6371TIP3    H140604   0.207   1.038   6.581 -2.6630 -1.8113 -1.0604
 6371TIP3    H240605   0.292   0.924   6.528  1.8235  0.6522  0.3282
 6372TIP3   OH240606   4.501   4.434  12.399 -0.4628 -0.0317 -0.1106
 6372TIP3    H140607   4.560   4.484  12.456 -0.6373 -0.3509  0.3493
 6372TIP3    H240608   4.464   4.500  12.340 -0.3614  0.3188  0.2120
 6373TIP3   OH240609   6.748   1.188  13.140 -0.3484  0.2195  0.2310
 6373TIP3    H140610   6.763   1.190  13.046 -0.0690 -2.5871  0.1391
 6373TIP3    H240611   6.674   1.129  13.152  1.7180 -2.2792  1.8728
 6374TIP3   OH240612   6.627   6.082   3.294 -0.1981 -0.5736  0.9918
 6374TIP3    H140613   6.584   6.142   3.356 -0.4976  0.5907 -0.2980
 6374TIP3    H240614   6.713   6.065   3.333 -0.3523  0.1853  1.6993
 6375TIP3   OH240615   3.485   4.511   4.610  0.3183  0.8128  0.4444
 6375TIP3    H140616   3.416   4.447   4.627  0.3697  0.9190  1.0645
 6375TIP3    H240617   3.451   4.593   4.646  0.6343  0.9357  0.4640
 6376TIP3   OH240618   2.382   1.585  14.701 -0.0336 -0.5137  0.2345
 6376TIP3    H140619   2.475   1.588  14.680  0.0074  0.6313  0.5193
 6376TIP3    H240620   2.351   1.675  14.687 -0.6783 -0.4320  2.0102
 6377TIP3   OH240621   3.078   5.491   5.128  0.0371  0.4210 -0.1286
 6377TIP3    H140622   3.059   5.548   5.053  0.9039  1.4821  0.4364
 6377TIP3    H240623   3.164   5.454   5.109 -1.3570 -2.4330 -1.4983
 6378TIP3   OH240624   6.158   2.766   4.563 -0.0725 -0.2777 -0.1068
 6378TIP3    H140625   6.118   2.713   4.494  1.4756 -3.4721  1.2106
 6378TIP3    H240626   6.094   2.767   4.633  0.6383 -2.3085  0.6389
 6379TIP3   OH240627   3.136   3.467  16.896 -0.4403  0.0924 -0.0247
 6379TIP3    H140628   3.056   3.491  16.943 -0.7724 -0.3830 -0.3381
 6379TIP3    H240629   3.201   3.453  16.965 -0.6004  0.5750  0.2260
 6380TIP3   OH240630   4.861   0.684  15.429  0.2800  0.1682 -0.0335
 6380TIP3    H140631   4.794   0.729  15.378  1.5369 -0.4341 -2.3841
 6380TIP3    H240632   4.909   0.755  15.473 -0.7409  0.7270  0.2100
 6381TIP3   OH240633   0.444   2.676   0.816  0.4481  0.1496  0.0270
 6381TIP3    H140634   0.360   2.709   0.847 -1.3610 -1.1018 -3.0374
 6381TIP3    H240635   0.509   2.717   0.873 -2.2020  1.0850  2.6073
 6382TIP3   OH240636   3.448   1.721  12.588 -0.0061 -0.3554 -0.5547
 6382TIP3    H140637   3.461   1.659  12.659  2.4902  0.4839 -0.1850
 6382TIP3    H240638   3.414   1.800  12.632  1.1699  0.0332 -0.3039
 6383TIP3   OH240639   5.571   5.331  11.832  0.2208  0.4526  0.1883
 6383TIP3    H140640   5.605   5.384  11.760  0.4963  0.8811  0.6257
 6383TIP3    H240641   5.641   5.269  11.851 -0.8074 -1.3469 -1.5544
 6384TIP3   OH240642   2.929   5.610   3.007  0.0517 -0.3917 -0.0491
 6384TIP3    H140643   2.853   5.640   3.056 -0.0933 -0.0207 -0.4848
 6384TIP3    H240644   2.957   5.688   2.958 -1.1608 -1.2627 -2.2716
 6385TIP3   OH240645   5.827   1.400  13.307  0.1672 -0.0795 -0.1371
 6385TIP3    H140646   5.734   1.376  13.302  0.1466 -0.4095  1.3634
 6385TIP3    H240647   5.870   1.339  13.246 -0.3559 -1.4214  0.7840
 6386TIP3   OH240648   6.382   4.533   3.789 -0.3271  0.2464  0.3860
 6386TIP3    H140649   6.340   4.473   3.728 -0.3878 -0.3564  1.0088
 6386TIP3    H240650   6.406   4.609   3.736 -0.6545 -0.1373 -0.3181
 6387TIP3   OH240651   2.134   0.927   5.771 -0.1997 -0.6765 -0.4574
 6387TIP3    H140652   2.111   0.949   5.861 -1.2835 -1.6838 -0.4653
 6387TIP3    H240653   2.206   0.865   5.779  0.6539  0.3190 -0.3360
 6388TIP3   OH240654   4.604   0.697  15.685  0.4195  0.4617 -0.0103
 6388TIP3    H140655   4.624   0.630  15.619 -0.6763  0.9770 -0.9051
 6388TIP3    H240656   4.530   0.661  15.733  0.5018  0.5790  0.2018
 6389TIP3   OH240657   3.407   4.757  14.792  0.6017  0.1483  0.9188
 6389TIP3    H140658   3.436   4.841  14.755 -0.9651 -0.2236 -1.3176
 6389TIP3    H240659   3.453   4.691  14.740  1.7270 -0.4430  2.5846
 6390TIP3   OH240660   3.415   3.994   1.578  0.2560 -0.7147  0.3051
 6390TIP3    H140661   3.370   3.912   1.601  2.8254 -2.1798  0.4838
 6390TIP3    H240662   3.473   4.011   1.652  1.6057 -0.1431 -0.8388
 6391TIP3   OH240663   2.023   0.224  13.683 -0.3714  0.4985 -0.1306
 6391TIP3    H140664   1.981   0.177  13.611 -0.3243  0.4952 -0.1562
 6391TIP3    H240665   2.044   0.310  13.646  3.4839 -0.8220 -1.5158
 6392TIP3   OH240666   1.511   5.170   3.320  0.2377  0.2888  0.1454
 6392TIP3    H140667   1.441   5.171   3.385 -0.5397 -0.9576 -0.6356
 6392TIP3    H240668   1.488   5.241   3.259  0.3906  0.7572  0.6294
 6393TIP3   OH240669   0.037   4.381  11.808 -0.2809 -0.1134  0.3961
 6393TIP3    H140670   0.123   4.342  11.790 -0.0309  0.3048  0.6831
 6393TIP3    H240671  -0.009   4.314  11.858 -0.4015 -0.6438 -0.3962
 6394TIP3   OH240672   1.544   2.161  13.878 -0.4795 -0.1418  0.4470
 6394TIP3    H140673   1.556   2.148  13.784 -2.4417  0.8100  0.0085
 6394TIP3    H240674   1.588   2.243  13.898 -3.0113  1.5612 -0.4482
 6395TIP3   OH240675   6.271   4.771   4.872  0.3092  0.6808 -0.7755
 6395TIP3    H140676   6.204   4.703   4.877 -0.0552  1.0912  0.3440
 6395TIP3    H240677   6.249   4.821   4.794  0.8479 -0.7330 -1.8759
 6396TIP3   OH240678   6.101   4.030  12.236  0.0593  0.4165 -0.1004
 6396TIP3    H140679   6.070   4.046  12.147  1.0202  1.2019 -0.3051
 6396TIP3    H240680   6.103   4.117  12.276 -2.0536 -0.0963  1.2825
 6397TIP3   OH240681   3.608   5.595   6.961  0.4754 -0.1484  0.3620
 6397TIP3    H140682   3.540   5.655   6.932  0.0438  0.0368  1.6588
 6397TIP3    H240683   3.676   5.652   6.996 -0.7612 -0.3369  3.3962
 6398TIP3   OH240684   4.561   4.489  15.632 -0.5854 -0.1078 -0.2564
 6398TIP3    H140685   4.623   4.531  15.691 -1.9385  0.5189  0.7950
 6398TIP3    H240686   4.573   4.533  15.548  1.6028 -1.2365 -0.6045
 6399TIP3   OH240687   1.584   3.112  15.046  0.0745 -0.3039  0.4604
 6399TIP3    H140688   1.621   3.142  15.129  2.2837  0.1503 -0.6332
 6399TIP3    H240689   1.609   3.180  14.983 -0.5711 -1.2086 -0.8015
 6400TIP3   OH240690   2.006   2.308  15.540  0.0649  0.0947 -0.0574
 6400TIP3    H140691   1.946   2.289  15.612 -0.6453  1.2078 -0.3394
 6400TIP3    H240692   1.992   2.401  15.521 -0.2775 -0.3300 -2.0909
 6401TIP3   OH240693   3.296   4.808  13.972  0.4165 -0.2900  0.0674
 6401TIP3    H140694   3.345   4.726  13.967 -2.8731 -2.4362 -1.1890
 6401TIP3    H240695   3.232   4.801  13.900 -1.0555  2.6604  0.9309
 6402TIP3   OH240696   6.057   2.776  15.110 -0.2326  0.1008  0.0101
 6402TIP3    H140697   6.100   2.859  15.090 -2.1462  1.2856  0.5150
 6402TIP3    H240698   6.027   2.786  15.201 -1.5115 -0.6548 -0.3043
 6403TIP3   OH240699   5.325   5.546  17.477  0.1912 -0.2140  0.4958
 6403TIP3    H140700   5.266   5.513  17.545 -0.2351  0.7696  0.6181
 6403TIP3    H240701   5.365   5.467  17.439 -0.3479 -0.8253  1.1803
 6404TIP3   OH240702   2.389   0.151  13.105  0.5714 -0.3991  0.6213
 6404TIP3    H140703   2.403   0.123  13.015  0.8751 -0.0562  0.5616
 6404TIP3    H240704   2.470   0.193  13.131 -0.5013  2.2202  0.0330
 6405TIP3   OH240705   0.949   3.457   4.200 -0.1992  0.9857 -0.1912
 6405TIP3    H140706   1.043   3.466   4.185  0.1774 -0.5140  0.9764
 6405TIP3    H240707   0.915   3.417   4.120  1.0184 -2.8778  1.0383
 6406TIP3   OH240708   6.326   1.758  12.658  0.1129  0.2249 -0.1803
 6406TIP3    H140709   6.316   1.672  12.699 -4.0425  1.0206  0.9708
 6406TIP3    H240710   6.331   1.740  12.565  1.9671 -1.3218  0.1665
 6407TIP3   OH240711   1.526   5.438   3.813  0.2024 -0.3000  0.2515
 6407TIP3    H140712   1.480   5.457   3.731  0.3523 -0.1469  0.2025
 6407TIP3    H240713   1.500   5.349   3.835 -0.4675 -0.0638  0.4494
 6408TIP3   OH240714   5.734   3.352   0.362  0.3254  0.2959  0.2624
 6408TIP3    H140715   5.738   3.410   0.438 -0.5320  0.3036  0.3100
 6408TIP3    H240716   5.680   3.279   0.390  1.7937 -0.7933  0.3602
 6409TIP3   OH240717   4.256   4.151  12.452  0.4950 -0.2875 -0.3742
 6409TIP3    H140718   4.249   4.155  12.357 -1.0538  2.9689 -0.2689
 6409TIP3    H240719   4.166   4.161  12.484  1.2519  2.3298  1.3247
 6410TIP3   OH240720   1.536   3.804   5.379 -0.3347  0.9173  0.3004
 6410TIP3    H140721   1.554   3.860   5.304 -1.0554  1.2503  0.3640
 6410TIP3    H240722   1.474   3.738   5.346  0.3383  0.2788  0.2800
 6411TIP3   OH240723   1.589   1.906   4.811  0.2174 -0.4926 -0.4451
 6411TIP3    H140724   1.539   1.900   4.892 -0.1773  3.0526 -0.2800
 6411TIP3    H240725   1.667   1.957   4.834  0.5272 -0.1647 -2.0837
 6412TIP3   OH240726   4.713   4.470  11.587 -0.9168 -0.0044  0.0733
 6412TIP3    H140727   4.679   4.425  11.509 -1.4387 -0.4553  0.5573
 6412TIP3    H240728   4.808   4.464  11.577 -0.9732 -0.8696 -0.0774
 6413TIP3   OH240729   0.710   5.149  16.065 -0.8691  0.0205  0.1788
 6413TIP3    H140730   0.709   5.245  16.067 -1.1337  0.0392 -0.7230
 6413TIP3    H240731   0.667   5.126  15.983  0.0393 -0.8557 -0.0720
 6414TIP3   OH240732   0.420   4.002  12.398 -0.2881 -0.0058 -0.4640
 6414TIP3    H140733   0.433   3.951  12.319  1.2213  0.4847 -0.5551
 6414TIP3    H240734   0.476   4.079  12.387 -0.6831  0.4793  0.7215
 6415TIP3   OH240735   3.972   2.713  12.691  0.4869 -0.1407 -0.1908
 6415TIP3    H140736   3.879   2.709  12.713  0.7447 -0.7566  0.8452
 6415TIP3    H240737   4.013   2.752  12.769  1.0047  0.8558 -0.9410
 6416TIP3   OH240738   2.595   6.701  13.986 -0.0604  0.2779 -0.5159
 6416TIP3    H140739   2.592   6.795  13.970 -2.4830  0.4090  0.1998
 6416TIP3    H240740   2.545   6.663  13.914 -0.6692 -0.2632  0.1718
 6417TIP3   OH240741   2.994   1.938   5.780  0.1538 -0.1860 -0.0522
 6417TIP3    H140742   2.906   1.913   5.753  1.1487 -3.5915 -0.5313
 6417TIP3    H240743   3.005   1.900   5.867  1.6254 -1.1112 -0.6023
 6418TIP3   OH240744   3.467   5.465  15.777 -0.2256 -0.2041 -0.0365
 6418TIP3    H140745   3.510   5.408  15.714  1.6076 -0.6748  1.5429
 6418TIP3    H240746   3.521   5.544  15.779 -0.8016  0.1869  0.2514
 6419TIP3   OH240747   6.643   6.169  16.621 -0.3515  0.1351 -0.5769
 6419TIP3    H140748   6.734   6.169  16.650 -0.9181 -0.7541  1.3217
 6419TIP3    H240749   6.613   6.079  16.635 -1.2085  0.0888 -2.3425
 6420TIP3   OH240750   3.259   3.510  12.842  0.3135  0.0571  0.4657
 6420TIP3    H140751   3.333   3.474  12.794 -0.6314 -0.1840 -0.8527
 6420TIP3    H240752   3.234   3.589  12.793 -0.3247  0.1213  0.8779
 6421TIP3   OH240753   3.907   5.934  16.603  0.6214 -0.8339 -0.1155
 6421TIP3    H140754   3.838   5.871  16.582 -0.0544  0.5164 -2.1827
 6421TIP3    H240755   3.979   5.912  16.543 -1.1055  2.6784 -3.9265
 6422TIP3   OH240756   0.090   5.885  16.334 -0.2300  0.9539 -0.4449
 6422TIP3    H140757   0.045   5.969  16.340 -1.6615  0.1115  1.3824
 6422TIP3    H240758   0.045   5.838  16.263 -0.7947  0.9495 -0.0874
 6423TIP3   OH240759   3.042   5.443  14.943  0.3553  0.3270  0.5603
 6423TIP3    H140760   3.104   5.516  14.941  0.2133  0.4778  1.2725
 6423TIP3    H240761   3.094   5.367  14.969 -0.1314  0.9095  3.6542
 6424TIP3   OH240762   2.446   5.890   0.835  0.5040 -0.1531 -0.2915
 6424TIP3    H140763   2.389   5.842   0.775 -0.8618  1.3648 -0.2827
 6424TIP3    H240764   2.533   5.884   0.796  0.6882 -3.6083  0.3267
 6425TIP3   OH240765   0.820   2.465   0.209 -0.0869 -0.4142  0.3252
 6425TIP3    H140766   0.733   2.461   0.249 -0.1866 -2.0815 -0.0178
 6425TIP3    H240767   0.873   2.406   0.262  0.6102 -0.1202 -0.0330
 6426TIP3   OH240768   5.878   1.290   2.422  0.6706  0.0449 -0.3693
 6426TIP3    H140769   5.866   1.375   2.379  0.9819  0.2323 -0.0922
 6426TIP3    H240770   5.878   1.310   2.515  0.9386 -0.2339 -0.3055
 6427TIP3   OH240771   3.383   2.701   4.736 -0.2991 -0.3444  0.4525
 6427TIP3    H140772   3.376   2.702   4.832 -1.1175 -2.1184  0.4442
 6427TIP3    H240773   3.449   2.635   4.717  1.2893  1.3254 -0.2074
 6428TIP3   OH240774   3.974   1.075   0.818  0.0902  0.4533  0.3635
 6428TIP3    H140775   4.069   1.074   0.830  0.1501 -0.4410 -0.1189
 6428TIP3    H240776   3.957   1.155   0.768  0.8876 -0.5747 -1.6730
 6429TIP3   OH240777   4.969   0.057   2.844 -0.6202 -0.6217  0.0097
 6429TIP3    H140778   4.879   0.054   2.875 -1.3240 -0.8373 -1.9372
 6429TIP3    H240779   4.994  -0.034   2.831 -0.1687 -0.5579  0.3893
 6430TIP3   OH240780   4.576   2.113  13.498 -0.3227  0.1113  1.1765
 6430TIP3    H140781   4.488   2.133  13.465  0.2245 -0.1742 -0.5085
 6430TIP3    H240782   4.621   2.198  13.499  1.6690 -0.3718 -5.0127
 6431TIP3   OH240783   3.394   0.457   6.360  0.9187 -0.2920 -0.2068
 6431TIP3    H140784   3.319   0.507   6.392  0.2193 -1.5869  0.2337
 6431TIP3    H240785   3.371   0.366   6.377  2.6356 -0.7085  0.0029
 6432TIP3   OH240786   4.389   4.667  12.304 -0.1690 -0.2925  0.1862
 6432TIP3    H140787   4.397   4.753  12.345  0.5400 -0.0175 -0.4942
 6432TIP3    H240788   4.302   4.668  12.263 -0.8333 -0.5247  1.5436
 6433TIP3   OH240789   5.309   0.641   5.720  0.6982  0.8687  0.5481
 6433TIP3    H140790   5.379   0.682   5.771 -0.1029 -0.0307  2.4398
 6433TIP3    H240791   5.287   0.562   5.769 -0.8393  0.5133 -0.6540
 6434TIP3   OH240792   4.709   4.006   6.311  0.5476  0.1308  0.0884
 6434TIP3    H140793   4.793   3.967   6.336 -0.2897 -1.7361  0.2198
 6434TIP3    H240794   4.687   3.962   6.229 -1.8733 -2.0647  1.7663
 6435TIP3   OH240795   5.367   1.050  15.388 -0.3550  0.3710  0.1465
 6435TIP3    H140796   5.343   1.121  15.329  1.2245  0.5765 -0.2954
 6435TIP3    H240797   5.308   1.059  15.463 -2.3714  0.1421 -1.3329
 6436TIP3   OH240798   1.892   5.813  13.630 -0.0947  0.0378 -0.0640
 6436TIP3    H140799   1.921   5.734  13.674 -1.1313  0.4886  1.5135
 6436TIP3    H240800   1.811   5.787  13.586  0.9976 -0.4420 -1.8863
 6437TIP3   OH240801   2.107   6.365  14.941  0.0739 -0.1271  0.5200
 6437TIP3    H140802   2.096   6.294  14.878  0.6095 -0.5989  0.9469
 6437TIP3    H240803   2.133   6.321  15.022 -0.8147  0.4444  1.1364
 6438TIP3   OH240804   0.591   6.123   2.664 -0.0735  0.4941 -0.2541
 6438TIP3    H140805   0.636   6.154   2.585 -0.2489 -0.4341 -0.7244
 6438TIP3    H240806   0.653   6.138   2.735  0.2687  0.8988 -0.6365
 6439TIP3   OH240807   1.515   3.870   2.575 -0.4034 -0.4365  1.2974
 6439TIP3    H140808   1.487   3.778   2.570  0.6050 -0.7588  1.4106
 6439TIP3    H240809   1.603   3.867   2.612 -0.2648  0.5639  1.0868
 6440TIP3   OH240810   6.664   3.823   0.863 -0.1776  0.5185 -0.1868
 6440TIP3    H140811   6.577   3.789   0.844 -0.5919  1.3784  0.1185
 6440TIP3    H240812   6.723   3.768   0.812 -1.0469  1.1606 -1.9624
 6441TIP3   OH240813   3.610   2.561  12.105 -0.0880  0.1909  0.0587
 6441TIP3    H140814   3.659   2.555  12.023  0.5170 -0.4339  0.4582
 6441TIP3    H240815   3.675   2.547  12.173 -0.8613 -0.9433  0.5959
 6442TIP3   OH240816   6.048   4.292   5.338  0.1985  0.5707 -0.7958
 6442TIP3    H140817   5.970   4.344   5.316 -1.6586  0.3735  3.9691
 6442TIP3    H240818   6.105   4.354   5.384  0.9331 -0.2096 -0.6474
 6443TIP3   OH240819   4.200   4.135  16.404  0.2119  0.2490  0.0482
 6443TIP3    H140820   4.155   4.106  16.484  1.6916 -0.3103  0.7203
 6443TIP3    H240821   4.173   4.073  16.337  1.8366 -1.5950  1.0151
 6444TIP3   OH240822   0.321   2.325   4.841  0.4535  0.7348 -0.3440
 6444TIP3    H140823   0.309   2.316   4.936  0.4706  1.0546 -0.3112
 6444TIP3    H240824   0.250   2.382   4.813 -2.2471 -2.7013 -1.2225
 6445TIP3   OH240825   2.798   2.518  15.985 -0.3080 -0.3542  0.0225
 6445TIP3    H140826   2.825   2.610  15.980  0.1659 -0.4963 -0.0293
 6445TIP3    H240827   2.748   2.504  15.904  2.1716 -0.9543 -1.5254
 6446TIP3   OH240828   4.164   1.136   5.896  0.1100 -0.1076 -0.6994
 6446TIP3    H140829   4.255   1.163   5.890  0.2273  0.4080  2.1098
 6446TIP3    H240830   4.167   1.040   5.895  0.7903 -0.1038  0.4380
 6447TIP3   OH240831   5.047   4.121   0.792  0.0958  0.4606 -0.1709
 6447TIP3    H140832   5.122   4.178   0.804 -0.1685  0.6823  0.4867
 6447TIP3    H240833   5.071   4.039   0.836 -0.5186  0.9598  1.1424
 6448TIP3   OH240834   4.210   0.246   0.767  0.0373  0.1580 -0.3779
 6448TIP3    H140835   4.140   0.217   0.827 -1.2043  0.5787 -1.5770
 6448TIP3    H240836   4.202   0.342   0.766  1.3453  0.2908  0.2841
 6449TIP3   OH240837   4.517   5.552  14.958  0.5506 -0.0750 -0.2249
 6449TIP3    H140838   4.512   5.573  15.051 -1.0781 -1.1893 -0.0328
 6449TIP3    H240839   4.511   5.637  14.914 -1.2000  0.2874  0.6395
 6450TIP3   OH240840   2.706   2.067   5.818 -0.2076  0.5779 -0.1800
 6450TIP3    H140841   2.709   2.045   5.911  0.7927 -0.5749 -0.4551
 6450TIP3    H240842   2.702   1.982   5.773  0.0877  1.0860 -1.2143
 6451TIP3   OH240843   0.822   6.065   1.809 -0.1588  0.0191  0.0267
 6451TIP3    H140844   0.794   6.156   1.816 -0.1070  0.1415 -1.1752
 6451TIP3    H240845   0.742   6.018   1.785  0.2660  0.1181 -1.7169
 6452TIP3   OH240846   6.082   2.960  14.478 -0.6874 -0.0261 -0.5095
 6452TIP3    H140847   6.099   2.911  14.558 -0.8994  0.9069  0.1247
 6452TIP3    H240848   6.072   3.050  14.507  0.7445  0.5837 -1.7744
 6453TIP3   OH240849   0.516   0.727   1.008  0.3871  0.1431 -0.2546
 6453TIP3    H140850   0.482   0.813   0.983  0.3015  0.6075  1.3903
 6453TIP3    H240851   0.449   0.690   1.064  1.3222 -0.1354  0.7019
 6454TIP3   OH240852   0.170   5.463   3.605  0.5442 -0.2321  0.0100
 6454TIP3    H140853   0.264   5.475   3.617  0.4931  0.4942 -0.2817
 6454TIP3    H240854   0.130   5.524   3.666  0.2622 -0.3029 -0.1020
 6455TIP3   OH240855   0.606   5.115  12.352  0.2084 -0.0701 -0.4853
 6455TIP3    H140856   0.646   5.117  12.265 -1.4276 -1.6007 -1.3426
 6455TIP3    H240857   0.512   5.129  12.335 -0.0700  0.1492  1.1057
 6456TIP3   OH240858   3.734   1.700  13.814  0.3350  0.0203 -0.0628
 6456TIP3    H140859   3.828   1.712  13.804  0.4371 -0.1913  0.5872
 6456TIP3    H240860   3.721   1.688  13.909 -0.4348  0.8306 -0.0529
 6457TIP3   OH240861   5.758   4.067  12.209 -0.1396  0.1281  0.8964
 6457TIP3    H140862   5.678   4.099  12.168 -0.1462 -0.1089  0.7215
 6457TIP3    H240863   5.815   4.144  12.213  0.2742 -0.0669 -0.5461
 6458TIP3   OH240864   6.223   3.470  15.925 -0.0601  0.4572 -0.2515
 6458TIP3    H140865   6.179   3.398  15.969  0.6354  0.2806  0.1758
 6458TIP3    H240866   6.156   3.510  15.869 -0.1523 -1.2796 -1.4499
 6459TIP3   OH240867   3.059   3.784   2.922  0.1750 -0.3697 -0.0736
 6459TIP3    H140868   3.130   3.781   2.987 -0.7240 -2.9579  0.9145
 6459TIP3    H240869   3.022   3.872   2.932  1.4667  0.0604  1.3872
 6460TIP3   OH240870   0.321   4.729   3.243  0.3272 -0.0213  0.2920
 6460TIP3    H140871   0.349   4.698   3.329  0.1266  0.3376  0.4910
 6460TIP3    H240872   0.301   4.822   3.257 -0.9164 -0.2431  0.1539
 6461TIP3   OH240873   2.690   2.948  12.789  0.5640  0.3020 -0.2602
 6461TIP3    H140874   2.740   3.022  12.823 -0.0280  0.1777  0.9573
 6461TIP3    H240875   2.598   2.974  12.798  0.3549 -0.4817  0.0036
 6462TIP3   OH240876   5.026   2.061  15.672  0.0423 -0.4590 -0.3717
 6462TIP3    H140877   5.029   2.061  15.768  2.5530 -0.2363 -0.3993
 6462TIP3    H240878   4.941   2.022  15.651 -0.5435 -0.5628  1.9294
 6463TIP3   OH240879   1.991   2.185   5.224  0.6000  0.3039  0.3822
 6463TIP3    H140880   1.960   2.187   5.314  0.7104 -0.1157  0.4288
 6463TIP3    H240881   1.914   2.205   5.171  0.7420  1.5577  0.6147
 6464TIP3   OH240882   2.320   2.134  12.257 -0.9498 -0.5346  0.0143
 6464TIP3    H140883   2.266   2.179  12.322 -1.0171  0.3836 -0.6489
 6464TIP3    H240884   2.258   2.089  12.201 -1.0075  0.0659 -0.4157
 6465TIP3   OH240885   2.241   2.327  15.787  0.1090  0.1299  1.0976
 6465TIP3    H140886   2.222   2.421  15.784  1.8190  0.4773 -0.7007
 6465TIP3    H240887   2.331   2.321  15.818 -0.1144 -0.9776  1.5914
 6466TIP3   OH240888   6.232   2.322   5.819  1.0069  0.3599  0.0037
 6466TIP3    H140889   6.149   2.367   5.808  1.4929  1.3071  0.0582
 6466TIP3    H240890   6.263   2.350   5.905  1.9533  1.0112 -0.5300
 6467TIP3   OH240891   0.918   2.341   1.157 -0.0826 -0.4934 -0.1628
 6467TIP3    H140892   0.984   2.405   1.132 -1.1440  0.3296 -0.9265
 6467TIP3    H240893   0.938   2.263   1.105 -0.5475  0.2300 -1.4500
 6468TIP3   OH240894   5.738   0.461  16.058 -0.4500  0.6230 -0.3259
 6468TIP3    H140895   5.771   0.523  16.123  0.7030  1.3651 -1.5738
 6468TIP3    H240896   5.731   0.511  15.977 -0.0905 -0.7101 -1.2208
 6469TIP3   OH240897   3.825   3.553   0.236  0.4567 -0.1190 -0.5262
 6469TIP3    H140898   3.822   3.641   0.275 -0.1801 -0.7072  0.8251
 6469TIP3    H240899   3.910   3.518   0.263 -0.4398 -0.9561  1.4275
 6470TIP3   OH240900   4.885   5.503   5.357  0.2194  0.9362  0.1018
 6470TIP3    H140901   4.921   5.564   5.292  0.2402  1.5488  0.6684
 6470TIP3    H240902   4.803   5.543   5.384 -0.1727  0.2860 -0.1122
 6471TIP3   OH240903   6.263   2.316   0.088 -0.0181  0.2619  0.2944
 6471TIP3    H140904   6.260   2.404   0.050  2.1169 -0.6599 -2.3580
 6471TIP3    H240905   6.259   2.331   0.182 -1.5972  3.0423 -0.0923
 6472TIP3   OH240906   1.333   6.632  15.186 -0.1163 -0.2140  0.2031
 6472TIP3    H140907   1.340   6.645  15.092  2.7290  2.1916  0.5805
 6472TIP3    H240908   1.254   6.680  15.211 -1.0176 -1.0642 -0.9550
 6473TIP3   OH240909   1.401   4.301   1.003  0.3466 -0.5906 -0.8653
 6473TIP3    H140910   1.414   4.314   1.097  0.6055  1.9947 -1.1868
 6473TIP3    H240911   1.336   4.232   0.997  1.1745 -1.6370  1.1689
 6474TIP3   OH240912   3.644   2.089   2.466  0.1606 -0.9490  0.1302
 6474TIP3    H140913   3.594   2.021   2.510 -1.1259  0.3661  0.7728
 6474TIP3    H240914   3.580   2.159   2.449  1.6764  0.6243  0.6195
 6475TIP3   OH240915   0.683   5.498  11.963 -0.5093  0.5643 -0.0873
 6475TIP3    H140916   0.686   5.547  11.881  2.6035  2.1291  0.8191
 6475TIP3    H240917   0.770   5.458  11.971 -1.2953 -0.9905  1.6533
 6476TIP3   OH240918   5.547   3.626   3.255  0.0949 -0.5036 -0.1180
 6476TIP3    H140919   5.512   3.677   3.328  2.7836  0.7922  0.3728
 6476TIP3    H240920   5.469   3.592   3.211 -1.7273  1.3412  1.4441
 6477TIP3   OH240921   5.431   4.341   4.841 -0.1069 -0.2666 -0.1673
 6477TIP3    H140922   5.376   4.265   4.823  1.2774 -1.3677  0.0379
 6477TIP3    H240923   5.440   4.341   4.936 -1.7759  1.4332  0.0535
 6478TIP3   OH240924   3.034   4.741   2.809  0.2645  0.3701 -0.1901
 6478TIP3    H140925   3.007   4.725   2.899 -0.7757 -0.9865 -0.7163
 6478TIP3    H240926   3.121   4.701   2.802  1.2792  2.2627  0.7252
 6479TIP3   OH240927   0.069   4.665  14.861 -0.1972 -0.1580 -0.5294
 6479TIP3    H140928   0.139   4.718  14.899 -0.0256  0.3369 -1.4964
 6479TIP3    H240929   0.110   4.580  14.844 -0.8707 -1.1966  2.4404
 6480TIP3   OH240930   0.644   4.442   0.130  0.4331 -0.3889  0.0138
 6480TIP3    H140931   0.734   4.411   0.116 -0.3084 -2.6317 -0.1255
 6480TIP3    H240932   0.606   4.379   0.192 -1.2412  0.1270 -0.4451
 6481TIP3   OH240933   2.838   5.406   5.260  0.6033  0.3445 -0.2347
 6481TIP3    H140934   2.931   5.416   5.240  0.9370  1.5473  1.6471
 6481TIP3    H240935   2.793   5.445   5.185  1.6451  0.8576 -0.6160
 6482TIP3   OH240936   2.429   3.830   0.929 -0.1685 -0.6194  0.2901
 6482TIP3    H140937   2.382   3.904   0.966  0.5992  0.1391 -0.2197
 6482TIP3    H240938   2.362   3.761   0.919 -0.3973 -0.9229  3.1449
 6483TIP3   OH240939   0.846   4.452   6.647 -0.1418 -1.0215  0.4525
 6483TIP3    H140940   0.769   4.414   6.606 -0.7472  0.4355  0.1923
 6483TIP3    H240941   0.883   4.509   6.580  1.5061 -2.0995  0.3741
 6484TIP3   OH240942   4.996   6.024   4.962 -0.1235 -0.0834 -0.0609
 6484TIP3    H140943   5.012   6.115   4.987  0.3718  0.0252 -0.7464
 6484TIP3    H240944   5.055   6.009   4.888  0.5313 -1.2798  0.6861
 6485TIP3   OH240945   1.519   0.536   4.068 -0.4459 -0.2068  0.3054
 6485TIP3    H140946   1.553   0.453   4.101 -0.0385 -0.0994  0.1556
 6485TIP3    H240947   1.595   0.595   4.067 -0.5604 -0.0623 -0.3376
 6486TIP3   OH240948   5.414   0.573  16.015 -0.2896  0.9293  0.4342
 6486TIP3    H140949   5.325   0.594  16.045 -0.4848 -0.2204  0.6903
 6486TIP3    H240950   5.460   0.657  16.019 -1.1409  1.3924  1.0696
 6487TIP3   OH240951   5.895   5.482   5.940 -0.3346  0.1254 -0.1491
 6487TIP3    H140952   5.815   5.534   5.949  0.2806  0.8834  1.2711
 6487TIP3    H240953   5.951   5.533   5.882 -0.6518 -0.1205 -0.6740
 6488TIP3   OH240954   0.983   3.709   4.603  0.6178 -0.4445 -0.2126
 6488TIP3    H140955   0.913   3.655   4.641  0.8959 -0.1003  0.8137
 6488TIP3    H240956   1.040   3.645   4.559  0.9004 -1.0011  0.9221
 6489TIP3   OH240957   5.955   6.553   0.610 -0.3693  0.3122  0.0037
 6489TIP3    H140958   5.892   6.609   0.657  0.2242  0.6361  0.4271
 6489TIP3    H240959   5.936   6.569   0.518 -1.0536  0.2404  0.1226
 6490TIP3   OH240960   4.368   1.753   1.220 -0.5712  0.2084  0.3930
 6490TIP3    H140961   4.400   1.777   1.133 -1.0641  1.2370  0.4851
 6490TIP3    H240962   4.360   1.836   1.267  0.7457 -0.4038  1.8164
 6491TIP3   OH240963   3.716   3.898   3.385 -0.0295 -0.0490  0.3507
 6491TIP3    H140964   3.650   3.936   3.328 -1.2072  0.7440  2.1611
 6491TIP3    H240965   3.761   3.833   3.330 -2.5355 -0.8872 -0.8565
 6492TIP3   OH240966   5.585   1.060  14.189  0.0182 -1.0435 -0.2733
 6492TIP3    H140967   5.612   0.968  14.190 -0.9126 -1.4193 -2.6950
 6492TIP3    H240968   5.653   1.104  14.137 -1.2790 -1.0639 -2.0739
 6493TIP3   OH240969   3.966   3.935  12.714  0.6119 -0.4501  0.4540
 6493TIP3    H140970   3.903   3.910  12.781 -0.0755  0.1261  0.0446
 6493TIP3    H240971   3.912   3.960  12.639  1.3690 -1.1948 -0.3590
 6494TIP3   OH240972   6.226   5.705   2.938 -0.1915 -0.0857 -0.4784
 6494TIP3    H140973   6.181   5.741   3.015 -2.0998  0.5205 -1.7856
 6494TIP3    H240974   6.281   5.777   2.907 -0.1101 -0.0258 -0.2016
 6495TIP3   OH240975   2.360   4.950   5.009  0.5156  0.2415  0.5756
 6495TIP3    H140976   2.389   4.997   5.088  0.8675  0.4552  0.3214
 6495TIP3    H240977   2.440   4.913   4.972  0.0455 -2.1538  1.7720
 6496TIP3   OH240978   0.337   5.678  13.369  0.2548 -0.1419  0.0874
 6496TIP3    H140979   0.300   5.656  13.283  0.0861 -0.2800  0.1963
 6496TIP3    H240980   0.283   5.630  13.432 -1.5158  2.1957  0.5005
 6497TIP3   OH240981   3.856   3.333  17.066  0.0941  0.6947 -0.2928
 6497TIP3    H140982   3.783   3.280  17.032  0.3995  0.3846 -0.4793
 6497TIP3    H240983   3.921   3.330  16.996  1.4339 -1.3248  0.9202
 6498TIP3   OH240984   4.734   4.323  14.013 -0.3940 -0.2114 -0.2203
 6498TIP3    H140985   4.771   4.335  14.101  0.1612 -0.0216 -0.4820
 6498TIP3    H240986   4.687   4.239  14.019  2.0535 -1.6898 -0.5443
 6499TIP3   OH240987   1.471   0.368  16.884  0.4175 -0.4894  0.2352
 6499TIP3    H140988   1.471   0.295  16.822  1.8079 -1.0328  0.8318
 6499TIP3    H240989   1.564   0.385  16.900  0.2410  2.8021 -1.4879
 6500TIP3   OH240990   0.683   6.269  16.160 -0.0382  0.2314  0.9430
 6500TIP3    H140991   0.682   6.245  16.253  0.2825  0.3219  0.9715
 6500TIP3    H240992   0.592   6.289  16.139 -0.5299 -1.9494  0.6841
 6501TIP3   OH240993   0.475   6.463   2.772 -0.0310  0.2985 -0.6454
 6501TIP3    H140994   0.386   6.436   2.795 -0.6266  0.6529 -2.3853
 6501TIP3    H240995   0.523   6.458   2.854 -1.1564 -1.8539 -0.0289
 6502TIP3   OH240996   6.037   2.636  14.215 -0.5515  0.1920 -0.2802
 6502TIP3    H140997   5.977   2.708  14.235 -1.1679 -0.3713 -0.0557
 6502TIP3    H240998   6.046   2.637  14.120 -3.4925 -1.6625 -0.7252
 6503TIP3   OH240999   1.429   4.509   3.794 -0.1418 -0.0938 -0.0527
 6503TIP3    H141000   1.394   4.537   3.879 -1.0398  0.7044 -0.6622
 6503TIP3    H241001   1.499   4.571   3.775  1.0370 -1.1131  0.7161
 6504TIP3   OH241002   1.924   2.745   5.280 -0.4922 -0.1900  0.1639
 6504TIP3    H141003   1.847   2.796   5.306 -0.3246  0.3139 -0.3100
 6504TIP3    H241004   1.996   2.809   5.279 -0.3595 -0.3464 -0.8168
 6505TIP3   OH241005   0.287   4.116   4.825 -0.2891  0.4173 -0.0338
 6505TIP3    H141006   0.300   4.211   4.822  0.1450  0.3434 -1.7581
 6505TIP3    H241007   0.361   4.080   4.777  0.0386 -0.8802  1.3634
 6506TIP3   OH241008   5.255   2.893   5.024 -0.3394  0.2605  0.1157
 6506TIP3    H141009   5.244   2.842   5.104 -0.1322 -0.0017 -0.0219
 6506TIP3    H241010   5.177   2.948   5.020 -0.0134  0.8136  0.8908
 6507TIP3   OH241011   2.097   2.029  11.509 -0.1726  0.0930 -0.2452
 6507TIP3    H141012   2.105   1.944  11.552 -0.1778  0.5844  0.7739
 6507TIP3    H241013   2.153   2.023  11.433  2.0055  0.0677  1.2737
 6508TIP3   OH241014   6.727   2.032  15.100 -0.0588  0.0842  0.2057
 6508TIP3    H141015   6.775   2.099  15.053 -0.1044  0.2394  0.3754
 6508TIP3    H241016   6.788   1.959  15.108  0.4802  0.6169  1.2204
 6509TIP3   OH241017   3.886   4.572   0.809 -0.2919  0.3748 -0.0678
 6509TIP3    H141018   3.841   4.584   0.726 -0.7458  0.5595  0.2033
 6509TIP3    H241019   3.972   4.612   0.796 -0.4054  0.5091 -0.4064
 6510TIP3   OH241020   1.942   2.430  11.844 -0.0077  0.1952 -0.0192
 6510TIP3    H141021   2.016   2.436  11.905 -1.8826  0.5267  2.3894
 6510TIP3    H241022   1.952   2.344  11.803  2.1916  0.6180 -0.4828
 6511TIP3   OH241023   1.517   2.657  14.981 -0.6703 -0.6007  0.4472
 6511TIP3    H141024   1.552   2.633  15.067 -0.9126 -0.5495  0.5599
 6511TIP3    H241025   1.552   2.744  14.964 -1.9252  0.0748  1.2206
 6512TIP3   OH241026   5.154   3.741  14.785  0.0512  0.4548 -0.8568
 6512TIP3    H141027   5.145   3.699  14.700  1.6555  0.7875 -1.2336
 6512TIP3    H241028   5.141   3.835  14.767  1.3793  0.6377 -0.9414
 6513TIP3   OH241029   4.991   2.860   3.637 -0.6047 -0.1128 -0.4100
 6513TIP3    H141030   4.977   2.829   3.547 -1.7832 -0.6830 -0.0620
 6513TIP3    H241031   4.930   2.933   3.647  1.2113  1.5325 -0.7932
 6514TIP3   OH241032   5.934   6.446  11.496  0.1104  0.2711  0.1114
 6514TIP3    H141033   5.868   6.480  11.436  0.5900  2.4540  0.7431
 6514TIP3    H241034   5.935   6.508  11.569  1.1686 -1.0408  1.2693
 6515TIP3   OH241035   3.743   0.049  16.078 -0.1407  0.6756  0.0256
 6515TIP3    H141036   3.772   0.036  16.168  3.9251  0.8030 -1.0883
 6515TIP3    H241037   3.737   0.144  16.068  1.0769  0.7472 -0.2174
 6516TIP3   OH241038   1.550   6.537   5.628  0.5007 -0.5988  0.3539
 6516TIP3    H141039   1.513   6.614   5.586  0.1723 -0.5797  0.6750
 6516TIP3    H241040   1.636   6.565   5.660  0.1558 -0.2063  0.9549
 6517TIP3   OH241041   0.993   0.200  13.673  0.3908  0.3462  0.2561
 6517TIP3    H141042   0.928   0.263  13.703 -0.6100 -0.9405  0.9039
 6517TIP3    H241043   0.979   0.193  13.579  0.3774  0.9318  0.2143
 6518TIP3   OH241044   2.046   6.003  15.986  0.5714 -0.6514 -0.3713
 6518TIP3    H141045   2.039   5.930  15.925  0.7113  0.2360 -1.4684
 6518TIP3    H241046   2.059   6.080  15.931 -0.9640  0.4262  0.6826
 6519TIP3   OH241047   1.752   1.205   1.341 -0.2729  0.0108  0.1453
 6519TIP3    H141048   1.786   1.274   1.399 -2.1102  0.0237  1.3197
 6519TIP3    H241049   1.657   1.211   1.351 -0.5143 -2.3562 -0.1248
 6520TIP3   OH241050   3.373   6.659  15.893  0.2612 -0.1871 -0.0272
 6520TIP3    H141051   3.408   6.593  15.953  1.4994  0.3207 -0.1631
 6520TIP3    H241052   3.436   6.731  15.895 -0.5498  0.5846 -0.6379
 6521TIP3   OH241053   5.953   4.769  16.298 -0.2924  0.1402  0.1018
 6521TIP3    H141054   6.029   4.733  16.343  0.2299  1.9361  0.7358
 6521TIP3    H241055   5.887   4.779  16.366 -0.2761  0.7474  0.0390
 6522TIP3   OH241056   5.737   1.575  14.520  0.1110 -0.2513 -0.4356
 6522TIP3    H141057   5.769   1.493  14.484 -1.1013 -1.4038  0.9730
 6522TIP3    H241058   5.749   1.639  14.450 -0.9654 -2.0970 -2.4136
 6523TIP3   OH241059   5.707   4.225   4.766  0.3615 -0.2211  0.4083
 6523TIP3    H141060   5.678   4.186   4.684 -0.2273 -0.0752  0.5398
 6523TIP3    H241061   5.635   4.208   4.828 -0.8840  2.7546 -0.0255
 6524TIP3   OH241062   1.934   4.462  15.049  0.4987 -0.2536 -0.5433
 6524TIP3    H141063   1.917   4.368  15.052 -1.1343  0.0130 -0.6068
 6524TIP3    H241064   1.993   4.478  15.122 -0.2754 -1.1445  0.3124
 6525TIP3   OH241065   2.362   5.849   5.563  0.0011  0.0759  0.0329
 6525TIP3    H141066   2.442   5.801   5.541 -0.4333  0.0627 -1.6468
 6525TIP3    H241067   2.382   5.940   5.542 -0.2031  0.1706  0.2466
 6526TIP3   OH241068   5.031   2.693   4.243 -0.4139 -0.4196  0.2295
 6526TIP3    H141069   5.070   2.637   4.176 -0.9688 -1.0869  0.4618
 6526TIP3    H241070   5.091   2.768   4.249  0.2310 -0.8926 -0.2102
 6527TIP3   OH241071   1.624   2.852   4.219 -0.0667  0.4273  0.0837
 6527TIP3    H141072   1.630   2.824   4.310 -0.2798  0.8777  0.2426
 6527TIP3    H241073   1.530   2.857   4.202 -0.0398 -0.8070 -0.5344
 6528TIP3   OH241074   6.625   0.883   0.896  0.3805 -0.0355 -0.2046
 6528TIP3    H141075   6.618   0.798   0.941 -0.2793 -0.2014 -0.6020
 6528TIP3    H241076   6.632   0.860   0.803 -0.4295  0.3497 -0.3707
 6529TIP3   OH241077   1.681   5.871  16.592 -0.1103 -0.8562  0.2199
 6529TIP3    H141078   1.594   5.836  16.574 -0.7792 -0.6033  2.6334
 6529TIP3    H241079   1.718   5.811  16.658 -0.1585  1.2421  2.2987
 6530TIP3   OH241080   0.777   4.320  10.866  0.5780 -0.0538 -0.3627
 6530TIP3    H141081   0.777   4.391  10.802 -3.1881 -0.7363 -1.3358
 6530TIP3    H241082   0.805   4.243  10.817 -0.2693 -0.1754 -0.6676
 6531TIP3   OH241083   6.643   3.263  17.404  0.4813 -0.1721 -0.3432
 6531TIP3    H141084   6.659   3.245  17.312  1.0698 -0.2838 -0.2179
 6531TIP3    H241085   6.629   3.177  17.444 -0.5455 -0.0756 -0.4642
 6532TIP3   OH241086   1.620   0.269   5.389  0.2658  0.3385 -0.4159
 6532TIP3    H141087   1.616   0.362   5.368  1.3517  0.8660  1.4896
 6532TIP3    H241088   1.632   0.266   5.484  2.7022 -1.6394 -0.6818
 6533TIP3   OH241089   1.728   1.904  15.171 -0.1097 -0.3215 -0.1877
 6533TIP3    H141090   1.786   1.978  15.158 -2.5627  1.6514 -0.7639
 6533TIP3    H241091   1.716   1.899  15.265  1.5688 -1.3082  0.0141
 6534TIP3   OH241092   6.346   6.327   2.896 -0.1370 -0.0335  0.2242
 6534TIP3    H141093   6.396   6.314   2.815 -0.8621 -1.4068 -0.0357
 6534TIP3    H241094   6.412   6.349   2.961  0.7776 -1.3255 -0.2219
 6535TIP3   OH241095   5.141   3.224   3.809 -0.3992  0.1903 -0.0798
 6535TIP3    H141096   5.133   3.235   3.714 -1.4640 -1.3830 -0.2072
 6535TIP3    H241097   5.225   3.179   3.821  0.2139  1.2833 -0.1760
 6536TIP3   OH241098   6.683   3.830  13.088 -0.5895 -0.2203  0.3349
 6536TIP3    H141099   6.737   3.751  13.096  1.8113  1.4098  1.4168
 6536TIP3    H241100   6.678   3.865  13.177 -2.7271  0.2158  0.0995
 6537TIP3   OH241101   4.879   5.384  15.472  0.0038 -0.0007  0.3828
 6537TIP3    H141102   4.821   5.423  15.407 -0.7222 -1.0361  0.3794
 6537TIP3    H241103   4.958   5.437  15.468 -0.0357  0.0063 -1.3227
 6538TIP3   OH241104   0.500   4.013   2.915 -0.1975 -0.1136  0.1148
 6538TIP3    H141105   0.484   3.919   2.927 -0.6107 -0.3266 -1.8016
 6538TIP3    H241106   0.477   4.029   2.824 -0.2811  1.9025  0.4636
 6539TIP3   OH241107   4.763   0.909   4.418 -0.6116 -0.2097 -0.2116
 6539TIP3    H141108   4.708   0.831   4.405 -1.0691  0.1694 -0.5577
 6539TIP3    H241109   4.755   0.959   4.337  1.7485 -1.0477 -1.0430
 6540TIP3   OH241110   4.714   3.161  12.748 -0.9322 -0.1882 -0.0167
 6540TIP3    H141111   4.635   3.207  12.777 -0.1665 -0.0232  2.0317
 6540TIP3    H241112   4.774   3.231  12.722  0.1937  0.1349  2.9980
 6541TIP3   OH241113   0.269   0.425   2.708  0.2229 -0.6376 -0.5351
 6541TIP3    H141114   0.185   0.384   2.731  0.3451  0.1812  1.6022
 6541TIP3    H241115   0.290   0.389   2.622 -3.2731  0.5621 -2.0864
 6542TIP3   OH241116   1.849   1.938   5.160 -0.4182  0.0112  0.4415
 6542TIP3    H141117   1.879   1.928   5.250 -2.0340 -1.3513  0.8807
 6542TIP3    H241118   1.918   1.989   5.117  0.2765  0.8896  2.4846
 6543TIP3   OH241119   0.139   2.883   0.932 -0.0647  0.0026  0.4628
 6543TIP3    H141120   0.194   2.959   0.946 -0.1359  0.3822 -1.0658
 6543TIP3    H241121   0.050   2.918   0.929  0.0429  0.3104 -2.5082
 6544TIP3   OH241122   2.083   4.693  14.136 -0.0875 -0.4388  0.1745
 6544TIP3    H141123   2.010   4.707  14.196  0.7773 -1.0030  1.3948
 6544TIP3    H241124   2.051   4.627  14.074 -0.4775 -1.0332  0.9838
 6545TIP3   OH241125   6.259   2.013  12.310  0.2655  0.4163  0.4929
 6545TIP3    H141126   6.214   1.955  12.248  1.1979 -0.4591  0.6181
 6545TIP3    H241127   6.352   2.005  12.289  0.6369 -0.0970  2.1559
 6546TIP3   OH241128   4.148   0.372   3.061 -0.1708  0.3353  0.1929
 6546TIP3    H141129   4.094   0.412   3.128 -1.2983 -0.0771 -0.4508
 6546TIP3    H241130   4.166   0.284   3.092 -2.3045 -0.5320 -0.8783
 6547TIP3   OH241131   3.009   6.272   3.758  0.1798 -0.1927  0.3717
 6547TIP3    H141132   3.084   6.223   3.724  1.0015  0.1410  1.6371
 6547TIP3    H241133   3.030   6.363   3.738  0.2822 -0.0673  1.0518
 6548TIP3   OH241134   2.662   1.315  16.292  0.3020 -0.3838  0.0820
 6548TIP3    H141135   2.642   1.253  16.362  1.3892 -1.2610 -0.3679
 6548TIP3    H241136   2.671   1.261  16.213  0.4374  0.4398 -0.4794
 6549TIP3   OH241137   5.119   5.707   0.852 -0.3720 -0.4608 -0.3510
 6549TIP3    H141138   5.097   5.636   0.913 -0.5344  0.7460  1.0588
 6549TIP3    H241139   5.213   5.719   0.863 -0.9050  2.2366  2.6033
 6550TIP3   OH241140   6.145   5.458   5.676 -0.4226 -0.2083 -0.2054
 6550TIP3    H141141   6.233   5.497   5.670 -0.1036 -0.9145 -0.2112
 6550TIP3    H241142   6.086   5.533   5.683  0.1240  0.2953 -0.9070
 6551TIP3   OH241143   2.538   3.558   6.085  0.4245  0.5373 -0.0935
 6551TIP3    H141144   2.444   3.570   6.072  0.6058  0.1783 -2.0621
 6551TIP3    H241145   2.544   3.492   6.154 -0.7157  1.5785  1.0769
 6552TIP3   OH241146   4.254   3.839   4.585  0.1293 -0.1170  0.3249
 6552TIP3    H141147   4.203   3.892   4.523  0.5533 -3.3992 -3.1828
 6552TIP3    H241148   4.189   3.802   4.644 -0.9271 -0.2481 -0.8783
 6553TIP3   OH241149   4.172   6.418  11.659  0.7142  0.5699 -0.2826
 6553TIP3    H141150   4.080   6.404  11.678  0.8622 -0.7239 -0.4626
 6553TIP3    H241151   4.210   6.448  11.742  0.3851 -0.1640  0.1357
 6554TIP3   OH241152   0.433   0.231   5.359  0.1623  0.2200 -0.1763
 6554TIP3    H141153   0.397   0.243   5.271  0.1326  0.3230 -0.1508
 6554TIP3    H241154   0.422   0.138   5.377 -0.5549  0.3353  0.0265
 6555TIP3   OH241155   1.220   3.625   3.759  0.8821  0.0110  0.5090
 6555TIP3    H141156   1.240   3.717   3.774 -1.0476  0.6524 -0.4756
 6555TIP3    H241157   1.130   3.614   3.791  0.6876 -1.2417 -0.3757
 6556TIP3   OH241158   2.305   5.887  16.658 -0.2488 -0.3172  0.3261
 6556TIP3    H141159   2.219   5.895  16.616 -0.0419  0.7264  0.0868
 6556TIP3    H241160   2.285   5.878  16.751 -0.6076  0.4390  0.3309
 6557TIP3   OH241161   2.581   6.251  13.915 -0.5489  0.5074 -0.2714
 6557TIP3    H141162   2.516   6.298  13.966  0.0637 -0.3665  1.4005
 6557TIP3    H241163   2.607   6.312  13.847 -2.7687  1.0251 -0.7287
 6558TIP3   OH241164   4.069   5.177   5.925  0.1725  0.0240  0.1631
 6558TIP3    H141165   4.121   5.107   5.965 -0.6267 -0.5076  0.3138
 6558TIP3    H241166   4.126   5.253   5.924  1.5268 -0.9534 -1.1576
 6559TIP3   OH241167   1.776   5.913  17.024 -0.6439 -0.1775  0.3750
 6559TIP3    H141168   1.846   5.953  16.971  0.4678 -0.3622  1.6647
 6559TIP3    H241169   1.773   5.822  16.994  0.7356 -0.5718  1.3319
 6560TIP3   OH241170   5.962   4.462   1.212 -0.3584 -0.2096 -0.2217
 6560TIP3    H141171   5.907   4.383   1.212 -1.1496  0.2883  1.2540
 6560TIP3    H241172   5.914   4.525   1.158 -0.5010 -0.2614 -0.1570
 6561TIP3   OH241173   3.958   2.473  14.370 -0.0064 -0.5291  0.3264
 6561TIP3    H141174   3.888   2.532  14.400  0.5257 -0.3437  1.2627
 6561TIP3    H241175   3.954   2.476  14.275 -0.9572 -0.1408  0.3723
 6562TIP3   OH241176   4.767   2.118   3.746  0.7535  0.6225 -0.0014
 6562TIP3    H141177   4.710   2.153   3.678  0.0197 -0.1613  0.1859
 6562TIP3    H241178   4.761   2.181   3.818  2.0233  1.7778 -0.8699
 6563TIP3   OH241179   5.359   2.914  10.622 -0.1537 -0.4365  0.0237
 6563TIP3    H141180   5.285   2.873  10.577 -0.2438 -1.1589  0.8050
 6563TIP3    H241181   5.349   2.887  10.714  1.1170 -0.5897  0.1271
 6564TIP3   OH241182   3.543   0.409   3.985 -0.0138 -0.0394  0.8269
 6564TIP3    H141183   3.625   0.449   4.013 -0.8531  0.0479  3.4657
 6564TIP3    H241184   3.518   0.455   3.905  1.8906  0.7257  0.6441
 6565TIP3   OH241185   3.069   1.404  16.963 -0.1043 -0.2572  0.5567
 6565TIP3    H141186   3.142   1.389  16.902 -0.3712  1.1317 -0.1521
 6565TIP3    H241187   3.093   1.483  17.011 -1.0475  0.1286  0.4274
 6566TIP3   OH241188   3.156   1.859   2.729 -0.2942  0.0463 -0.1880
 6566TIP3    H141189   3.091   1.929   2.716 -2.2703 -1.9735 -2.1568
 6566TIP3    H241190   3.152   1.808   2.648 -1.7301 -4.5380  2.4491
 6567TIP3   OH241191   4.563   0.026   2.579  0.6309 -0.1117  0.2487
 6567TIP3    H141192   4.579   0.120   2.572  0.9317 -0.2343 -0.9749
 6567TIP3    H241193   4.471   0.015   2.559  0.9262 -0.2069 -1.1510
 6568TIP3   OH241194   4.294   0.726  14.604  0.2332 -0.9584  0.1659
 6568TIP3    H141195   4.306   0.762  14.517  3.8900  2.0003  1.6145
 6568TIP3    H241196   4.212   0.763  14.635  1.1952  1.8890 -0.4350
 6569TIP3   OH241197   3.708   5.374   1.828 -0.1762 -0.0996 -0.2295
 6569TIP3    H141198   3.661   5.455   1.847 -0.4637 -0.8530  2.9279
 6569TIP3    H241199   3.644   5.317   1.786 -1.2477 -0.0230  1.1993
 6570TIP3   OH241200   3.850   1.973   6.163 -0.0054 -0.2836 -0.1977
 6570TIP3    H141201   3.908   2.049   6.150  0.7741 -0.6963  0.6914
 6570TIP3    H241202   3.774   2.009   6.208 -0.0282  0.1118 -0.5446
 6571TIP3   OH241203   0.500   2.571  14.784 -0.1724  0.2558 -0.0717
 6571TIP3    H141204   0.527   2.663  14.783 -1.7174  0.7677  0.9471
 6571TIP3    H241205   0.444   2.564  14.861 -1.0822 -1.2539 -0.8286
 6572TIP3   OH241206   0.577   3.249  11.309  0.3644  0.2522 -0.0217
 6572TIP3    H141207   0.558   3.325  11.255  1.3544  1.5557  1.3950
 6572TIP3    H241208   0.672   3.240  11.305  0.2671 -0.9202 -0.1479
 6573TIP3   OH241209   2.771   4.018  14.681  0.4019  0.5094 -0.0603
 6573TIP3    H141210   2.752   4.028  14.588 -4.1122  0.2124  0.6052
 6573TIP3    H241211   2.775   4.108  14.715 -0.4381  0.6130 -0.2094
 6574TIP3   OH241212   0.786   1.398  14.798 -0.3641 -0.2747 -0.3023
 6574TIP3    H141213   0.747   1.364  14.878 -0.6455  0.4683 -0.1206
 6574TIP3    H241214   0.795   1.321  14.742  0.5700 -0.9412  0.7280
 6575TIP3   OH241215   5.169   5.022   3.658  0.0380 -0.1508  0.0078
 6575TIP3    H141216   5.240   4.996   3.716  1.4956  0.7398 -1.3058
 6575TIP3    H241217   5.170   5.118   3.659 -1.1500 -0.1158 -0.0474
 6576TIP3   OH241218   2.882   6.211   3.990 -0.3370  0.4711 -0.1135
 6576TIP3    H141219   2.820   6.264   3.940 -1.6876 -1.2306 -0.3152
 6576TIP3    H241220   2.946   6.182   3.925 -1.1354 -0.3408 -0.5688
 6577TIP3   OH241221   5.870   2.667  12.823 -0.0381  0.2270 -0.2045
 6577TIP3    H141222   5.899   2.734  12.761 -1.4833  0.2229 -0.9295
 6577TIP3    H241223   5.837   2.715  12.898  0.7620  0.2630  0.1284
 6578TIP3   OH241224   2.130   5.965  15.166 -0.3594  0.0607 -0.3843
 6578TIP3    H141225   2.210   5.912  15.168 -0.8012 -0.6012  1.8253
 6578TIP3    H241226   2.103   5.971  15.257 -2.7442  0.4415 -1.0606
 6579TIP3   OH241227   0.960   2.852  17.234  0.3847  0.5720 -0.1249
 6579TIP3    H141228   0.956   2.759  17.257  2.4006  0.2048 -1.0583
 6579TIP3    H241229   1.005   2.893  17.308  0.4314  0.6458 -0.1951
 6580TIP3   OH241230   5.609   3.633  15.616 -0.0417 -0.3285  0.2464
 6580TIP3    H141231   5.599   3.560  15.555 -0.1574  1.3929 -1.9282
 6580TIP3    H241232   5.567   3.707  15.572 -1.1585  0.8045  2.9413
 6581TIP3   OH241233   4.688   0.375  13.407 -0.3135  0.6348 -0.2517
 6581TIP3    H141234   4.774   0.400  13.441 -0.1402 -0.3100  0.0222
 6581TIP3    H241235   4.677   0.429  13.329  1.4538 -0.7055 -1.5105
 6582TIP3   OH241236   3.241   0.575  15.256 -0.0317 -0.1010 -0.0041
 6582TIP3    H141237   3.323   0.623  15.243  0.0225  0.1686  1.2115
 6582TIP3    H241238   3.266   0.495  15.303 -0.5177  0.2774  0.9407
 6583TIP3   OH241239   0.444   6.634   1.322 -0.1249 -0.4421 -0.1626
 6583TIP3    H141240   0.436   6.718   1.366  0.3242 -1.7430  2.6125
 6583TIP3    H241241   0.537   6.626   1.302 -0.3555  0.2354 -1.6870
 6584TIP3   OH241242   6.075   0.403   4.156 -0.0182 -0.3467 -0.4303
 6584TIP3    H141243   6.057   0.313   4.183 -1.2108  0.0423  0.1526
 6584TIP3    H241244   6.057   0.455   4.234  0.4414  0.4230 -0.8267
 6585TIP3   OH241245   0.745   1.764  11.635 -0.0370  0.0367 -0.1115
 6585TIP3    H141246   0.708   1.852  11.643 -0.6557 -0.3507  1.8782
 6585TIP3    H241247   0.764   1.755  11.542 -0.6277  1.9970 -0.4837
 6586TIP3   OH241248   3.226   5.896  14.202 -0.1859 -0.2853  0.1328
 6586TIP3    H141249   3.157   5.894  14.136 -0.9438  1.1964  0.8471
 6586TIP3    H241250   3.258   5.986  14.201  3.1712 -1.3190 -1.5657
 6587TIP3   OH241251   1.813   3.741   3.568 -0.0740 -0.4527 -0.9252
 6587TIP3    H141252   1.753   3.707   3.502 -0.5621 -1.3279 -0.0500
 6587TIP3    H241253   1.787   3.698   3.650  1.9474 -1.1047 -0.5634
 6588TIP3   OH241254   2.532   0.418   6.077 -0.1499  0.2843 -0.0039
 6588TIP3    H141255   2.486   0.415   5.993  1.4299  0.6218 -0.9307
 6588TIP3    H241256   2.474   0.374   6.138 -1.7697  0.8593 -1.0648
 6589TIP3   OH241257   3.058   3.494   4.571  0.0581  0.0818 -0.6378
 6589TIP3    H141258   2.982   3.489   4.629 -0.3600  2.5011 -0.8722
 6589TIP3    H241259   3.121   3.547   4.620  1.0947 -0.7776 -1.0077
 6590TIP3   OH241260   4.396   5.074   1.594 -0.3172  0.0424 -0.8786
 6590TIP3    H141261   4.323   5.057   1.653 -0.9361  2.3412 -0.8883
 6590TIP3    H241262   4.463   5.115   1.649  0.4900 -0.8964 -1.1245
 6591TIP3   OH241263   5.648   6.548  15.391 -0.1543  0.0589  0.1610
 6591TIP3    H141264   5.630   6.478  15.455 -0.0525 -0.1562 -0.0464
 6591TIP3    H241265   5.571   6.549  15.335 -1.0313  1.3819  1.2948
 6592TIP3   OH241266   3.606   4.189   6.171 -0.1017 -0.3457 -0.4153
 6592TIP3    H141267   3.521   4.149   6.153 -0.5245  0.2544  0.1792
 6592TIP3    H241268   3.663   4.115   6.193 -0.6927 -0.6870  0.0057
 6593TIP3   OH241269   2.283   4.435   5.072  0.1789 -0.9305 -0.1540
 6593TIP3    H141270   2.333   4.355   5.089  1.2637 -0.8587 -2.6384
 6593TIP3    H241271   2.210   4.406   5.017 -0.4412 -0.4690  0.4139
 6594TIP3   OH241272   3.896   3.639   1.939  0.3351 -0.6620 -0.3331
 6594TIP3    H141273   3.947   3.645   2.020  0.8260 -3.4419 -0.3219
 6594TIP3    H241274   3.959   3.606   1.874 -0.8041 -1.7063 -0.9510
 6595TIP3   OH241275   3.033   2.947  10.728 -0.0941 -0.0735 -0.2823
 6595TIP3    H141276   3.022   2.902  10.644 -0.2589 -0.2036 -0.1925
 6595TIP3    H241277   3.060   2.878  10.789  0.4853  0.1094 -0.3344
 6596TIP3   OH241278   0.373   6.349   1.929 -0.0087 -0.6858 -0.4329
 6596TIP3    H141279   0.332   6.265   1.906  1.9552 -1.3226 -1.8566
 6596TIP3    H241280   0.453   6.325   1.975  1.6801  0.2356 -2.6686
 6597TIP3   OH241281   4.561   0.194  16.467  0.2181  0.2996 -0.1295
 6597TIP3    H141282   4.505   0.121  16.440 -0.3439  1.2957 -1.8390
 6597TIP3    H241283   4.648   0.155  16.475 -0.5862 -1.2374  2.3630
 6598TIP3   OH241284   6.073   1.184   3.902 -0.7925  0.3448  0.5757
 6598TIP3    H141285   5.999   1.164   3.960  0.3767 -2.8508  1.1611
 6598TIP3    H241286   6.143   1.211   3.961 -1.1794  2.6956  0.0708
 6599TIP3   OH241287   4.200   0.509   5.667  0.2872 -0.0160 -0.3464
 6599TIP3    H141288   4.231   0.432   5.619  0.1165  0.9882 -2.1560
 6599TIP3    H241289   4.106   0.494   5.679  0.6911 -1.3023  1.7676
 6600TIP3   OH241290   1.098   4.139   4.260 -0.7406  0.1211  0.2970
 6600TIP3    H141291   1.058   4.104   4.340  0.6610 -1.0588  0.4998
 6600TIP3    H241292   1.158   4.071   4.230 -0.2552  1.0906 -1.0472
 6601TIP3   OH241293   3.895   2.476   4.969 -0.2031 -0.2056  0.0158
 6601TIP3    H141294   3.832   2.481   5.040 -0.5146  1.4871 -0.3464
 6601TIP3    H241295   3.857   2.529   4.899  0.6781 -0.8181 -0.9513
 6602TIP3   OH241296   3.082   3.670  16.738  0.1046 -0.3511 -0.0055
 6602TIP3    H141297   3.088   3.737  16.806  0.9768 -1.3653  0.9465
 6602TIP3    H241298   3.105   3.588  16.782  1.8790 -0.8857 -1.7520
 6603TIP3   OH241299   4.905   5.390  13.873  0.0240  0.1078  0.4124
 6603TIP3    H141300   4.993   5.383  13.836  0.5516 -0.4781  1.6900
 6603TIP3    H241301   4.852   5.329  13.821  0.0154  1.4804 -1.2636
 6604TIP3   OH241302   3.580   2.397   5.149 -0.3130  0.1996 -0.0924
 6604TIP3    H141303   3.624   2.331   5.096 -0.5520  0.5461 -0.7298
 6604TIP3    H241304   3.540   2.347   5.221 -0.3131 -0.3186 -0.4515
 6605TIP3   OH241305   2.766   6.060  14.369  0.6944  0.2923  0.5297
 6605TIP3    H141306   2.761   5.987  14.307 -0.6281  1.0064 -0.2391
 6605TIP3    H241307   2.858   6.088  14.365  0.7594 -0.0336 -0.7008
 6606TIP3   OH241308   5.346   3.610   3.539 -0.0639  0.2871  0.3675
 6606TIP3    H141309   5.362   3.705   3.537 -0.0553  0.2768  0.0039
 6606TIP3    H241310   5.334   3.591   3.632 -1.3424  0.8556  0.3468
 6607TIP3   OH241311   6.067   0.480  14.756  0.2533  0.0620 -0.0488
 6607TIP3    H141312   6.113   0.428  14.822 -0.2138  0.2360  0.4201
 6607TIP3    H241313   6.035   0.556  14.805  0.9705  0.8249 -0.7261
 6608TIP3   OH241314   2.107   5.453  13.890  0.1647 -0.3353 -0.2036
 6608TIP3    H141315   2.110   5.512  13.965  0.1649  1.4146 -1.5141
 6608TIP3    H241316   2.141   5.370  13.923 -2.2538 -0.4310  2.3958
 6609TIP3   OH241317   5.809   3.384  13.707 -0.4896 -0.2597 -0.0487
 6609TIP3    H141318   5.831   3.314  13.646 -1.0345 -2.2470  1.9049
 6609TIP3    H241319   5.859   3.364  13.786 -1.2590  1.1064  0.8329
 6610TIP3   OH241320   2.233   3.268   0.846 -0.6363 -0.4176  0.5985
 6610TIP3    H141321   2.215   3.301   0.934  0.6136 -1.4568  1.2809
 6610TIP3    H241322   2.183   3.187   0.839  0.4302 -1.1281  0.9464
 6611TIP3   OH241323   0.692   5.469  14.488 -0.0126  0.4953  0.0860
 6611TIP3    H141324   0.646   5.552  14.499 -0.7758  0.0072  0.7120
 6611TIP3    H241325   0.623   5.405  14.471  0.4834 -0.1596  0.4657
 6612TIP3   OH241326   3.848   1.899  13.148  0.0231 -0.1777  0.1460
 6612TIP3    H141327   3.853   1.943  13.233  1.9865  2.0960 -1.0253
 6612TIP3    H241328   3.914   1.829  13.153  0.9738  0.7023  0.1292
 6613TIP3   OH241329   4.929   1.282  17.449 -0.3647 -0.0771  0.3817
 6613TIP3    H141330   5.015   1.260  17.413 -1.1418 -0.5632 -1.2845
 6613TIP3    H241331   4.870   1.279  17.373 -1.8014  0.5414  1.4327
 6614TIP3   OH241332   3.344   3.866  14.889  0.0040  0.1340  0.8587
 6614TIP3    H141333   3.259   3.895  14.856 -0.6249 -0.0213  2.3082
 6614TIP3    H241334   3.371   3.935  14.950  1.8070  1.1130 -0.9060
 6615TIP3   OH241335   5.744   5.381  14.250  0.7051 -0.5438 -0.1605
 6615TIP3    H141336   5.692   5.317  14.200  1.2492 -0.8427 -0.3585
 6615TIP3    H241337   5.736   5.462  14.200 -1.1202 -0.0590  0.8177
 6616TIP3   OH241338   3.156   3.186   1.987  0.0674  0.8297  0.7804
 6616TIP3    H141339   3.182   3.262   2.039 -0.2622  1.5030 -0.0205
 6616TIP3    H241340   3.215   3.185   1.913 -0.3020  0.6437  0.4832
 6617TIP3   OH241341   3.042   1.524  11.254 -0.3920  0.3736 -0.1471
 6617TIP3    H141342   3.021   1.431  11.265  3.6945 -0.8404 -0.9642
 6617TIP3    H241343   3.053   1.535  11.159  3.8934  0.2775  0.1636
 6618TIP3   OH241344   0.845   5.370  12.769 -0.0503  0.6769  0.1272
 6618TIP3    H141345   0.781   5.346  12.836 -0.5208  2.9539  0.5753
 6618TIP3    H241346   0.801   5.435  12.715  1.5713  1.6849 -0.0655
 6619TIP3   OH241347   4.549   1.003  12.025  0.3523 -0.7359  0.2783
 6619TIP3    H141348   4.584   0.946  12.094  1.5631 -1.1954 -0.6764
 6619TIP3    H241349   4.502   0.944  11.967  1.4206 -0.7561 -0.5943
 6620TIP3   OH241350   6.167   5.881  14.050  0.0483 -0.1866  0.1804
 6620TIP3    H141351   6.192   5.929  13.971 -0.6537 -0.3917 -0.1746
 6620TIP3    H241352   6.250   5.847  14.084  0.2624 -0.9723 -1.0384
 6621TIP3   OH241353   2.423   2.800   1.094 -0.0312  0.9590  0.1024
 6621TIP3    H141354   2.508   2.798   1.137 -1.0764  0.9124  2.3130
 6621TIP3    H241355   2.362   2.829   1.162 -1.5963  2.4588 -1.7939
 6622TIP3   OH241356   2.190   1.483  14.524  0.0624  0.1678 -0.3829
 6622TIP3    H141357   2.248   1.527  14.586 -0.2291  1.9260 -1.3039
 6622TIP3    H241358   2.249   1.429  14.472  0.3452 -1.0948  1.1708
 6623TIP3   OH241359   0.408   5.615   2.798  0.5653 -0.4407 -0.3230
 6623TIP3    H141360   0.357   5.695   2.786 -1.2023 -1.6564 -1.5212
 6623TIP3    H241361   0.420   5.581   2.709 -1.0588 -2.8400  0.2662
 6624TIP3   OH241362   2.073   0.839   3.718 -0.8211  0.0628  0.5439
 6624TIP3    H141363   2.005   0.903   3.697  0.4731  0.9421 -1.1712
 6624TIP3    H241364   2.131   0.884   3.779  0.4303  0.8419 -1.1297
 6625TIP3   OH241365   4.445   1.584  13.476 -0.0854 -0.1550 -0.3341
 6625TIP3    H141366   4.397   1.509  13.511 -0.3535 -0.0437 -0.4600
 6625TIP3    H241367   4.430   1.654  13.539  1.3809 -0.6085  0.5632
 6626TIP3   OH241368   1.758   4.668   1.718 -0.5851  0.3983 -0.1490
 6626TIP3    H141369   1.796   4.756   1.720 -0.3975  0.3149 -0.0220
 6626TIP3    H241370   1.667   4.680   1.744  0.1538  0.1754  2.8156
 6627TIP3   OH241371   1.869   5.947  13.348 -0.3802  0.5315 -0.3733
 6627TIP3    H141372   1.800   5.929  13.412 -1.2338  0.9953 -1.1538
 6627TIP3    H241373   1.823   5.968  13.267  0.6445  2.0814 -0.5983
 6628TIP3   OH241374   3.113   6.110   5.017 -0.7536  0.1470  0.4413
 6628TIP3    H141375   3.049   6.165   5.062 -0.3821  0.1789  0.9329
 6628TIP3    H241376   3.086   6.113   4.925 -0.9644  0.8414  0.5198
 6629TIP3   OH241377   4.729   6.560   5.509 -0.0785 -0.2135 -0.4988
 6629TIP3    H141378   4.731   6.531   5.600  0.5712  3.3533  0.8036
 6629TIP3    H241379   4.773   6.491   5.461 -1.0731 -2.5754  1.7114
 6630TIP3   OH241380   4.259   6.760   2.219 -0.2839  0.4236 -0.3983
 6630TIP3    H141381   4.245   6.854   2.205  0.3333  0.1693 -3.3681
 6630TIP3    H241382   4.274   6.725   2.131  0.8759 -2.2475  0.7628
 6631TIP3   OH241383   2.070   0.090   6.062  0.8961 -0.2054 -0.3455
 6631TIP3    H141384   2.069   0.183   6.082 -0.0763  0.0679 -1.5683
 6631TIP3    H241385   2.044   0.048   6.145  1.1258  0.6066  0.1494
 6632TIP3   OH241386   3.660   5.945  12.615 -0.5506 -0.7912  0.4161
 6632TIP3    H141387   3.626   5.913  12.532  0.0794 -2.3385  0.7209
 6632TIP3    H241388   3.750   5.912  12.619  0.8655  2.6127 -0.0594
 6633TIP3   OH241389   0.397   3.296   1.675 -0.1551  0.3650 -0.0984
 6633TIP3    H141390   0.485   3.274   1.645 -0.5914 -2.5007  0.4682
 6633TIP3    H241391   0.390   3.253   1.760 -1.9901  0.8271  0.0117
 6634TIP3   OH241392   0.652   3.058  11.540 -0.4473  0.2910  0.2019
 6634TIP3    H141393   0.711   3.100  11.603 -1.4727 -0.4336  1.6998
 6634TIP3    H241394   0.645   3.122  11.469 -0.2551  1.7319  1.4092
 6635TIP3   OH241395   4.616   3.050   0.324  0.3665  0.2816 -0.2224
 6635TIP3    H141396   4.579   3.138   0.329  0.5971  0.3575  0.1706
 6635TIP3    H241397   4.705   3.064   0.291  1.0538  0.3827  1.5746
 6636TIP3   OH241398   4.669   6.119  11.545  0.8360 -0.0682  0.3041
 6636TIP3    H141399   4.593   6.175  11.561  0.7925 -0.4612  1.5676
 6636TIP3    H241400   4.744   6.172  11.572  1.1106  0.5682 -1.5564
 6637TIP3   OH241401   5.005   2.662   0.600 -0.2750 -0.7804 -0.0151
 6637TIP3    H141402   4.937   2.637   0.662 -1.2574  0.6273 -0.4726
 6637TIP3    H241403   5.084   2.670   0.654 -0.8386 -0.7831  0.8401
 6638TIP3   OH241404   2.879   0.575  13.305  0.3073 -0.0736 -0.0474
 6638TIP3    H141405   2.865   0.596  13.397  0.7519  0.3289 -0.0706
 6638TIP3    H241406   2.892   0.480  13.303  1.6276  0.0770  0.4756
 6639TIP3   OH241407   6.763   2.973  12.765 -0.4373  0.2245  0.1695
 6639TIP3    H141408   6.853   2.942  12.772 -1.3573 -2.8083 -0.1942
 6639TIP3    H241409   6.765   3.061  12.804  2.6201  0.2182  0.2484
 6640TIP3   OH241410   0.479   6.141  13.366 -0.0103 -0.6546 -0.2420
 6640TIP3    H141411   0.532   6.090  13.305  0.5865 -0.7897  0.3866
 6640TIP3    H241412   0.457   6.080  13.436  1.1214  0.0607  0.7686
 6641TIP3   OH241413   3.796   0.585   3.401  0.0239  0.6646  0.2739
 6641TIP3    H141414   3.712   0.600   3.358  0.0084 -1.6667 -0.6566
 6641TIP3    H241415   3.773   0.548   3.486  0.0814 -0.6890 -0.2822
 6642TIP3   OH241416   1.441   1.862  15.392  0.4061  0.5737  0.5932
 6642TIP3    H141417   1.366   1.803  15.404  0.6233  0.3777  1.0155
 6642TIP3    H241418   1.438   1.887  15.300  0.7102 -0.6354  0.2461
 6643TIP3   OH241419   1.731   4.852   5.763 -0.2783 -0.7624  0.3690
 6643TIP3    H141420   1.681   4.830   5.841  1.7793 -0.9237  1.7092
 6643TIP3    H241421   1.804   4.790   5.763  0.2268 -0.2178 -1.2152
 6644TIP3   OH241422   0.836   5.025   0.636  0.1696  0.1995 -0.1024
 6644TIP3    H141423   0.868   4.942   0.672 -1.2803 -0.1263  0.5153
 6644TIP3    H241424   0.742   5.025   0.656 -0.2515  1.0658 -1.9232
 6645TIP3   OH241425   6.601   3.998   3.677 -0.3180 -0.0348 -0.2501
 6645TIP3    H141426   6.662   3.960   3.615  0.4396  1.2970 -0.3467
 6645TIP3    H241427   6.578   3.926   3.736  1.0294 -0.6450 -0.4530
 6646TIP3   OH241428   6.285   1.277   0.184  0.4324 -0.3377  0.1612
 6646TIP3    H141429   6.199   1.299   0.147 -0.2770  0.0997  1.9939
 6646TIP3    H241430   6.268   1.201   0.240  1.3600 -0.5710  0.1441
 6647TIP3   OH241431   3.425   4.184  13.135 -0.3163  0.1330  0.3326
 6647TIP3    H141432   3.497   4.121  13.131  0.7375  1.3095  0.1653
 6647TIP3    H241433   3.346   4.130  13.141  0.6438 -1.1910  2.1081
 6648TIP3   OH241434   4.217   3.814  15.677  0.5100 -0.4444  0.0627
 6648TIP3    H141435   4.172   3.892  15.647 -0.2820 -1.2112 -0.8122
 6648TIP3    H241436   4.299   3.847  15.716 -0.7290  0.9592  1.6407
 6649TIP3   OH241437   3.974   3.722   5.206  0.3424  0.9171 -0.0781
 6649TIP3    H141438   3.953   3.738   5.298 -0.0538  0.4843 -0.0926
 6649TIP3    H241439   4.065   3.693   5.207 -0.1713 -0.7739  0.3657
 6650TIP3   OH241440   0.088   1.947  17.464 -0.1394  0.4843 -0.1666
 6650TIP3    H141441   0.009   1.955  17.518 -0.8253  1.1848 -1.2334
 6650TIP3    H241442   0.065   1.991  17.382  1.1982  0.2579 -0.6806
 6651TIP3   OH241443   4.868   5.398   5.629 -0.3988  0.2963  0.5065
 6651TIP3    H141444   4.777   5.378   5.650  0.3701 -1.8446  2.2043
 6651TIP3    H241445   4.864   5.443   5.545 -3.1089  1.7501  1.2982
 6652TIP3   OH241446   1.437   0.050   1.912  0.0995  0.0266 -0.3654
 6652TIP3    H141447   1.475   0.031   1.826  0.1167  1.7671 -0.7595
 6652TIP3    H241448   1.472  -0.020   1.968  1.2239 -0.3308 -1.4492
 6653TIP3   OH241449   0.860   0.337  16.417 -0.1745 -0.0433 -0.2323
 6653TIP3    H141450   0.783   0.365  16.368  1.0028 -0.1940 -2.2887
 6653TIP3    H241451   0.917   0.413  16.416 -0.3765  0.1553  1.5135
 6654TIP3   OH241452   1.957   1.754   4.854 -0.4715  0.0204  0.0276
 6654TIP3    H141453   1.896   1.826   4.866 -1.7446 -0.9428 -0.4898
 6654TIP3    H241454   1.915   1.697   4.790  0.6490 -1.0379  0.1976
 6655TIP3   OH241455   2.178   0.977  11.247 -0.1870  0.0829  0.0280
 6655TIP3    H141456   2.242   1.043  11.221 -0.3700  0.3063  0.1346
 6655TIP3    H241457   2.143   0.944  11.164  1.0978 -1.0923 -0.0890
 6656TIP3   OH241458   2.964   3.168   0.687 -0.0512 -0.1264 -0.2763
 6656TIP3    H141459   3.043   3.223   0.695  0.3694 -0.8620  1.0271
 6656TIP3    H241460   2.998   3.079   0.676 -0.7037 -0.3678 -0.3487
 6657TIP3   OH241461   1.348   2.013   3.116  0.5926 -0.0905  0.0269
 6657TIP3    H141462   1.276   1.974   3.067  0.3752  1.2398 -0.7624
 6657TIP3    H241463   1.363   2.098   3.073  1.0402  0.6936  1.6564
 6658TIP3   OH241464   5.832   6.690   0.393  0.1527 -0.6155 -0.1470
 6658TIP3    H141465   5.772   6.755   0.428  0.0394 -1.2220  0.8256
 6658TIP3    H241466   5.802   6.674   0.304 -0.7275 -0.4402  0.1152
 6659TIP3   OH241467   4.134   1.082   1.397 -0.0413  0.4665 -0.0906
 6659TIP3    H141468   4.136   1.040   1.483 -0.5731 -0.0565 -0.3280
 6659TIP3    H241469   4.175   1.019   1.338 -1.6264 -0.1483 -0.6107
 6660TIP3   OH241470   5.713   3.164   1.160 -0.9050  0.3343  0.6433
 6660TIP3    H141471   5.690   3.139   1.250 -0.7056  1.2553  0.9649
 6660TIP3    H241472   5.702   3.259   1.158 -0.2156  0.4091 -0.1093
 6661TIP3   OH241473   2.165   4.790   5.237  0.2451 -0.2004 -0.0972
 6661TIP3    H141474   2.217   4.870   5.223  0.3147 -0.1598  0.3877
 6661TIP3    H241475   2.157   4.752   5.150 -0.0225  0.4845 -0.3755
 6662TIP3   OH241476   4.863   1.791   1.216  0.2659  0.3389 -0.6431
 6662TIP3    H141477   4.816   1.857   1.268  1.9174  3.0539 -2.3206
 6662TIP3    H241478   4.800   1.765   1.149 -1.3432 -2.0270  1.6101
 6663TIP3   OH241479   5.884   0.961   6.043 -0.3655 -0.6399 -0.5064
 6663TIP3    H141480   5.880   1.002   5.956 -0.4544  0.9755  0.2221
 6663TIP3    H241481   5.795   0.964   6.075 -0.4674 -1.8841 -0.6079
 6664TIP3   OH241482   2.497   4.133  13.269  0.5007  0.0903 -0.0021
 6664TIP3    H141483   2.408   4.126  13.303  0.4641 -1.6667 -0.3519
 6664TIP3    H241484   2.524   4.222  13.291 -2.8894  2.3743 -3.7243
 6665TIP3   OH241485   0.284   0.652   0.675  0.5333  0.4075 -0.5631
 6665TIP3    H141486   0.370   0.618   0.698  0.6840  1.0701 -0.1038
 6665TIP3    H241487   0.300   0.740   0.643 -0.1099  1.2500  1.2607
 6666TIP3   OH241488   4.368   2.591   1.124 -0.4674  0.4682 -0.2615
 6666TIP3    H141489   4.363   2.605   1.030 -1.3759 -0.2064 -0.3277
 6666TIP3    H241490   4.460   2.606   1.146 -0.4562  1.7385 -1.0626
 6667TIP3   OH241491   0.321   2.037  12.432 -0.4282  0.7535 -0.2875
 6667TIP3    H141492   0.326   1.951  12.474 -1.7084 -0.3044 -2.1833
 6667TIP3    H241493   0.358   2.097  12.497  0.7009 -1.2342  1.0037
 6668TIP3   OH241494   3.237   2.939  15.235 -0.7004 -0.5459  0.2062
 6668TIP3    H141495   3.267   2.955  15.325 -0.7648  0.9486 -0.0069
 6668TIP3    H241496   3.152   2.896  15.245 -0.2985 -1.2040  0.8479
 6669TIP3   OH241497   1.613   6.183  15.384  0.0247  0.2009  0.3632
 6669TIP3    H141498   1.568   6.177  15.468 -0.3035 -1.4282  0.1010
 6669TIP3    H241499   1.570   6.255  15.339 -0.9193  0.0064  0.9361
 6670TIP3   OH241500   3.011   3.720   5.142  0.2554  0.5691 -0.0338
 6670TIP3    H141501   3.075   3.769   5.091  0.1629  1.9973  1.1742
 6670TIP3    H241502   3.064   3.668   5.203  0.3007  1.6025  0.8327
 6671TIP3   OH241503   1.058   5.649  15.942  0.2357 -0.0463  0.2053
 6671TIP3    H141504   1.025   5.576  15.890 -1.3248  1.2104 -0.6582
 6671TIP3    H241505   1.120   5.609  16.004 -1.4512 -2.2686  0.5820
 6672TIP3   OH241506   1.460   2.432  13.855 -0.4105 -0.4970  0.3727
 6672TIP3    H141507   1.553   2.427  13.877 -0.2344  2.6310  0.7236
 6672TIP3    H241508   1.416   2.453  13.938 -1.0272  0.9937 -0.2960
 6673TIP3   OH241509   3.406   0.062   0.500  0.7523  0.2499  0.3543
 6673TIP3    H141510   3.427   0.042   0.591 -0.5426  0.4934  0.7192
 6673TIP3    H241511   3.416   0.157   0.494 -0.1645  0.3672  0.5282
 6674TIP3   OH241512   5.549   0.567   6.082  0.6614  0.0552  0.0322
 6674TIP3    H141513   5.525   0.634   6.017 -1.5574  1.2420  1.8990
 6674TIP3    H241514   5.605   0.613   6.144  2.4285 -0.9569 -0.7612
 6675TIP3   OH241515   6.008   0.714  12.156  0.7795  0.6653  0.3613
 6675TIP3    H141516   5.924   0.690  12.117  0.1565  0.6997  1.6349
 6675TIP3    H241517   5.986   0.781  12.222  1.8356  0.8704  0.5243
 6676TIP3   OH241518   6.173   3.510  13.450 -0.1696 -0.6290 -0.1235
 6676TIP3    H141519   6.213   3.485  13.534 -2.3088 -1.7473  0.6411
 6676TIP3    H241520   6.172   3.428  13.400 -1.8661 -0.7766  0.0847
 6677TIP3   OH241521   2.550   4.286   3.837 -0.4325 -0.1120 -0.0415
 6677TIP3    H141522   2.583   4.260   3.923  0.0274  0.8820  0.0977
 6677TIP3    H241523   2.550   4.382   3.839 -0.9359 -0.0797 -0.9542
 6678TIP3   OH241524   3.326   2.493   0.210 -0.2094 -0.3831 -0.1491
 6678TIP3    H141525   3.364   2.544   0.138 -2.3485  0.3108 -0.8530
 6678TIP3    H241526   3.390   2.501   0.281  0.7671  1.0375 -1.1266
 6679TIP3   OH241527   0.479   0.198   4.766  0.1702  0.4037 -0.2222
 6679TIP3    H141528   0.501   0.228   4.855  0.1792  0.3036 -0.1907
 6679TIP3    H241529   0.529   0.118   4.754  0.1692  0.4171 -0.3184
 6680TIP3   OH241530   6.512   2.735  13.733  0.4787  0.0295  0.3511
 6680TIP3    H141531   6.557   2.783  13.665 -0.8874  0.7095 -0.1154
 6680TIP3    H241532   6.570   2.741  13.809  1.8248 -0.3866 -0.6098
 6681TIP3   OH241533   6.384   3.808   5.472 -0.1092 -0.5586  0.1025
 6681TIP3    H141534   6.476   3.824   5.455  0.1172 -1.5427  0.3300
 6681TIP3    H241535   6.351   3.890   5.508  0.8667 -0.4526  0.7935
 6682TIP3   OH241536   4.121   0.478   4.233  0.1312 -0.0827  0.5562
 6682TIP3    H141537   4.034   0.484   4.271  0.7858  2.7353  1.8992
 6682TIP3    H241538   4.177   0.448   4.305  0.3897 -1.4093 -0.1638
 6683TIP3   OH241539   2.643   3.343  12.840 -0.3825  0.0308  0.1956
 6683TIP3    H141540   2.550   3.324  12.826 -0.3611 -1.6611  1.9869
 6683TIP3    H241541   2.659   3.320  12.931  2.4871 -2.9301 -0.8662
 6684TIP3   OH241542   3.381   6.325   2.971  0.0243 -0.2456 -0.1313
 6684TIP3    H141543   3.396   6.239   3.011  0.2856 -0.1387  0.0026
 6684TIP3    H241544   3.322   6.370   3.031  1.3590  0.3653  0.7688
 6685TIP3   OH241545   4.320   6.139  12.724  0.3113 -0.0330 -0.1674
 6685TIP3    H141546   4.246   6.089  12.758 -0.2921  0.0468 -1.3278
 6685TIP3    H241547   4.381   6.073  12.690  1.0140 -0.1253  1.2047
 6686TIP3   OH241548   1.720   3.068  16.684  0.1628 -0.8622 -0.2410
 6686TIP3    H141549   1.775   3.089  16.760 -1.5508 -2.5250  1.5859
 6686TIP3    H241550   1.639   3.035  16.722 -1.3298 -0.4254 -2.8454
 6687TIP3   OH241551   4.614   0.574   1.029 -0.2231  0.0922 -0.5913
 6687TIP3    H141552   4.683   0.615   0.976 -1.6359  2.8274 -0.5250
 6687TIP3    H241553   4.577   0.506   0.972 -1.1838  2.4220 -3.0059
 6688TIP3   OH241554   2.803   0.976  14.101  0.4059 -0.3785 -0.3188
 6688TIP3    H141555   2.813   1.038  14.028  1.5059  0.3869  0.4493
 6688TIP3    H241556   2.892   0.958  14.129 -0.0136 -0.2837  1.1481
 6689TIP3   OH241557   1.437   0.328  15.611  0.6913  0.1956  0.0290
 6689TIP3    H141558   1.503   0.286  15.666 -0.1749 -0.4850  0.5516
 6689TIP3    H241559   1.387   0.256  15.573  0.4534  0.6996 -0.6290
 6690TIP3   OH241560   1.554   0.601  15.685 -0.0845  0.7687  0.4052
 6690TIP3    H141561   1.536   0.545  15.610  0.3333  0.1801  0.7323
 6690TIP3    H241562   1.541   0.690  15.653  1.7550  0.6485 -0.8637
 6691TIP3   OH241563   3.118   6.105   1.899  0.2854 -0.1733 -0.0124
 6691TIP3    H141564   3.195   6.146   1.859  0.5335 -0.6745 -0.0570
 6691TIP3    H241565   3.093   6.165   1.969  1.0207 -0.2506  0.3293
 6692TIP3   OH241566   6.447   1.266  12.497  0.1766 -0.5106  0.8913
 6692TIP3    H141567   6.411   1.194  12.445  0.4785  0.3812 -0.5976
 6692TIP3    H241568   6.505   1.313  12.437  0.0911  0.9002  1.8622
 6693TIP3   OH241569   3.252   0.860   3.563  0.7430  0.0762 -0.2457
 6693TIP3    H141570   3.160   0.843   3.585  0.4935  1.0679 -0.4841
 6693TIP3    H241571   3.284   0.777   3.528 -0.3494 -0.0079 -1.1020
 6694TIP3   OH241572   4.502   3.156  15.622  0.3733  0.0051 -0.0447
 6694TIP3    H141573   4.458   3.181  15.703  1.6206  0.8561  0.4026
 6694TIP3    H241574   4.583   3.207  15.622  0.6671 -0.4081 -1.5529
 6695TIP3   OH241575   2.551   3.562  13.927  0.3918 -0.0296 -0.1925
 6695TIP3    H141576   2.547   3.580  13.833  1.1253  0.8871 -0.0695
 6695TIP3    H241577   2.521   3.643  13.968 -0.4440 -0.6130  0.3659
 6696TIP3   OH241578   2.337   2.808   5.195 -0.2751 -0.3853 -0.2909
 6696TIP3    H141579   2.294   2.815   5.281 -2.5885  1.2737 -1.4696
 6696TIP3    H241580   2.404   2.876   5.197 -0.6640 -0.0021  0.0355
 6697TIP3   OH241581   2.993   4.004   1.092  0.0537  0.0217  0.0918
 6697TIP3    H141582   2.931   4.061   1.138 -0.3859 -0.2212 -0.1957
 6697TIP3    H241583   3.057   4.064   1.054 -0.6527  0.3606 -0.5855
 6698TIP3   OH241584   2.351   4.781   3.732  0.0931  0.0044 -0.4771
 6698TIP3    H141585   2.364   4.855   3.673 -2.2247  0.1418 -0.8773
 6698TIP3    H241586   2.290   4.813   3.798  2.0248 -0.3829  1.6566
 6699TIP3   OH241587   4.230   4.114   3.568 -0.3670 -0.3111 -0.0004
 6699TIP3    H141588   4.307   4.066   3.539  1.2148  2.2203 -0.3488
 6699TIP3    H241589   4.187   4.057   3.631  1.5606 -1.9791 -0.1118
 6700TIP3   OH241590   3.714   0.432   6.025 -0.2374 -0.4292  0.1008
 6700TIP3    H141591   3.736   0.517   6.062 -1.4919  0.2189 -0.5644
 6700TIP3    H241592   3.788   0.376   6.047  0.8365  0.9547  0.1372
 6701TIP3   OH241593   6.123   2.410  15.293 -0.1504  0.3810  0.3315
 6701TIP3    H141594   6.093   2.323  15.265 -1.7515  0.2389  2.2485
 6701TIP3    H241595   6.137   2.458  15.211 -1.1320 -1.0802 -0.7524
 6702TIP3   OH241596   3.412   1.707  11.063 -0.1826  0.5466 -0.1466
 6702TIP3    H141597   3.496   1.686  11.023 -0.6463 -1.8322 -0.0405
 6702TIP3    H241598   3.347   1.667  11.005 -1.2748  2.1859 -0.1455
 6703TIP3   OH241599   2.027   2.995  17.318 -0.6482  0.1688  0.0119
 6703TIP3    H141600   2.112   3.036  17.303 -0.5792  0.4700  1.1372
 6703TIP3    H241601   2.033   2.911  17.272  0.8521 -0.5170  1.3542
 6704TIP3   OH241602   0.486   1.159  16.589  0.2152 -0.1193  0.0001
 6704TIP3    H141603   0.529   1.244  16.603 -1.0724  0.3258  1.6882
 6704TIP3    H241604   0.411   1.179  16.533  0.8886 -0.4678 -1.0316
 6705TIP3   OH241605   0.442   5.079   1.548  0.2578 -0.0016  0.0981
 6705TIP3    H141606   0.486   5.126   1.619  0.7744 -1.7753  1.0023
 6705TIP3    H241607   0.350   5.106   1.554  0.5351  0.8397  0.6253
 6706TIP3   OH241608   5.467   5.048  16.495 -1.1795  0.3764  0.5185
 6706TIP3    H141609   5.522   5.113  16.540 -0.4246  0.2333 -0.1665
 6706TIP3    H241610   5.480   4.967  16.544  0.8422 -0.1663 -0.7583
 6707TIP3   OH241611   4.121   0.415  11.637 -0.7926 -0.3513 -0.4412
 6707TIP3    H141612   4.086   0.503  11.641 -0.3103 -0.1076 -1.3949
 6707TIP3    H241613   4.069   0.371  11.570 -0.3792 -0.4862 -0.6775
 6708TIP3   OH241614   2.913   1.945  12.308 -0.2004 -0.0696 -0.0330
 6708TIP3    H141615   2.850   1.907  12.370  0.3599  0.5515  0.9423
 6708TIP3    H241616   2.990   1.963  12.361 -0.1662  1.6745 -0.6285
 6709TIP3   OH241617   0.825   2.000  11.275 -0.3042 -0.3918  0.1974
 6709TIP3    H141618   0.838   2.063  11.345 -0.1955 -1.2381  0.9614
 6709TIP3    H241619   0.794   2.052  11.201 -0.7546  0.4765  0.9770
 6710TIP3   OH241620   6.036   6.306   0.634 -0.2620  0.3598 -0.0145
 6710TIP3    H141621   6.008   6.397   0.634  0.4431  0.6420  2.3581
 6710TIP3    H241622   5.971   6.260   0.687 -0.2427 -0.3898 -0.6169
 6711TIP3   OH241623   2.692   4.073  12.625 -1.0010  0.4953 -0.3089
 6711TIP3    H141624   2.680   4.030  12.541 -1.0213  1.2915 -0.7131
 6711TIP3    H241625   2.694   4.000  12.688  1.3120 -0.3276 -1.1957
 6712TIP3   OH241626   0.173   4.649  13.274  0.8942  0.7229  0.0053
 6712TIP3    H141627   0.131   4.685  13.352  1.0807 -0.0436  0.4726
 6712TIP3    H241628   0.227   4.577  13.308 -1.0668 -1.3950 -1.1040
 6713TIP3   OH241629   0.055   0.448   1.953 -0.4429  0.0458  0.7408
 6713TIP3    H141630   0.128   0.485   2.004  1.7951 -2.2331 -0.5804
 6713TIP3    H241631   0.029   0.519   1.894  3.3564 -0.0651 -1.3964
 6714TIP3   OH241632   5.632   5.812   1.093  0.0831  0.4297  0.4140
 6714TIP3    H141633   5.570   5.828   1.022  0.5863 -1.4596 -0.5094
 6714TIP3    H241634   5.647   5.899   1.131 -0.1450  1.5274 -1.8323
 6715TIP3   OH241635   6.664   0.147  12.384  0.2922  0.2225  0.6618
 6715TIP3    H141636   6.626   0.068  12.347 -1.2992  0.7626  1.0372
 6715TIP3    H241637   6.700   0.194  12.309  0.6615 -0.5582  0.3542
 6716TIP3   OH241638   2.044   3.957  14.904 -0.3347 -0.4461 -0.4479
 6716TIP3    H141639   2.132   3.920  14.909  0.1451  0.7999  1.1737
 6716TIP3    H241640   1.987   3.880  14.892  0.9822 -1.2071 -2.1512
 6717TIP3   OH241641   0.331   1.934  13.445  0.1304  0.1450  0.3541
 6717TIP3    H141642   0.308   1.918  13.536 -0.8047 -0.3872  0.0352
 6717TIP3    H241643   0.392   2.008  13.448 -1.0164  1.0943  1.3105
 6718TIP3   OH241644   3.340   0.713  12.091  0.6105 -0.1655 -0.1148
 6718TIP3    H141645   3.282   0.644  12.121  0.2628  0.7695  1.4835
 6718TIP3    H241646   3.284   0.789  12.079  1.6125  1.4637  3.7536
 6719TIP3   OH241647   3.819   5.668   5.872 -0.2682  0.1086 -0.1596
 6719TIP3    H141648   3.752   5.600   5.877 -0.3613  0.2499  0.6410
 6719TIP3    H241649   3.884   5.633   5.812 -0.8906 -0.1785 -0.6786
 6720TIP3   OH241650   1.703   4.773  12.308 -0.8439 -0.2371  0.4541
 6720TIP3    H141651   1.794   4.746  12.323 -0.2124  1.1108 -0.6804
 6720TIP3    H241652   1.650   4.704  12.349  0.6821 -1.0059  1.2131
 6721TIP3   OH241653   1.766   0.841   1.851  0.1718 -0.0818  0.0825
 6721TIP3    H141654   1.794   0.781   1.783 -2.5595 -1.5544  0.1000
 6721TIP3    H241655   1.751   0.785   1.927 -0.3468  0.9600  0.7670
 6722TIP3   OH241656   0.806   2.033   1.040 -0.2748  0.0024 -0.1256
 6722TIP3    H141657   0.742   1.963   1.052 -1.6129  1.4066  1.5913
 6722TIP3    H241658   0.870   2.018   1.110 -1.1405  1.0107  0.9370
 6723TIP3   OH241659   5.595   3.319  14.174 -0.4862 -0.2549 -0.0996
 6723TIP3    H141660   5.518   3.274  14.138 -1.2207  1.7735 -1.2692
 6723TIP3    H241661   5.629   3.259  14.240 -1.8169 -2.1483 -1.0289
 6724TIP3   OH241662   5.926   0.448   2.104 -0.0958 -0.1871 -0.3529
 6724TIP3    H141663   5.873   0.440   2.025  0.8882 -2.0714 -0.8910
 6724TIP3    H241664   6.011   0.411   2.079  0.7638  0.7234  1.1137
 6725TIP3   OH241665   1.094   2.501   0.781  0.1216 -0.2667 -0.6466
 6725TIP3    H141666   1.162   2.557   0.818 -0.6359  0.0881  0.2576
 6725TIP3    H241667   1.129   2.413   0.788  0.7813 -0.0304 -0.8609
 6726TIP3   OH241668   3.133   4.259  14.965 -0.0079 -0.1774 -0.2370
 6726TIP3    H141669   3.209   4.316  14.964 -1.7902  2.3868 -0.9010
 6726TIP3    H241670   3.138   4.208  14.884 -0.1021  1.6064 -1.4024
 6727TIP3   OH241671   3.967   0.834  12.969  0.0908 -0.1926 -0.7816
 6727TIP3    H141672   4.033   0.873  12.912 -0.7938 -0.0278 -1.7257
 6727TIP3    H241673   3.885   0.840  12.919 -0.4133 -1.5741 -0.1868
 6728TIP3   OH241674   5.128   4.809  12.957  0.4582  0.4566  0.0269
 6728TIP3    H141675   5.112   4.878  12.892  0.2704  0.5763  0.2004
 6728TIP3    H241676   5.050   4.755  12.954 -0.6244  1.8211  1.8465
 6729TIP3   OH241677   1.264   5.622   3.140  0.2810 -0.2609 -0.4580
 6729TIP3    H141678   1.246   5.534   3.106  0.7536 -0.6532  0.2992
 6729TIP3    H241679   1.213   5.680   3.083 -1.0503 -1.1159 -0.1874
 6730TIP3   OH241680   6.603   3.072   3.313  0.1831 -0.1458 -0.7237
 6730TIP3    H141681   6.564   3.013   3.377 -1.7416 -0.6233 -2.2517
 6730TIP3    H241682   6.690   3.091   3.349  0.1657 -2.4029  0.7422
 6731TIP3   OH241683   6.125   5.887   2.392 -0.9749  0.8172 -0.3439
 6731TIP3    H141684   6.145   5.976   2.420 -1.7144  0.9561 -0.2264
 6731TIP3    H241685   6.165   5.831   2.460 -0.1301  1.0329 -0.6546
 6732TIP3   OH241686   2.313   4.971   0.169  0.7914  0.5241  0.3853
 6732TIP3    H141687   2.288   4.932   0.086  2.0628  0.8922 -0.1917
 6732TIP3    H241688   2.362   4.902   0.214  2.2870  1.1114 -0.2687
 6733TIP3   OH241689   6.535   2.538   2.247 -0.0976  1.1928  0.4813
 6733TIP3    H141690   6.586   2.515   2.325  1.0474  0.0530 -0.5764
 6733TIP3    H241691   6.473   2.466   2.237  0.8931  0.4506 -0.5972
 6734TIP3   OH241692   0.259   6.675  13.270  0.5171 -0.2996  0.1485
 6734TIP3    H141693   0.169   6.702  13.288  1.2921  1.7047  1.3350
 6734TIP3    H241694   0.252   6.583  13.245 -1.9325  0.0195 -0.6269
 6735TIP3   OH241695   0.921   6.766   3.684 -0.3651 -0.1199  0.2547
 6735TIP3    H141696   1.009   6.801   3.696 -0.4947  0.7970 -1.1908
 6735TIP3    H241697   0.868   6.811   3.750  0.1013 -0.0914  0.6103
 6736TIP3   OH241698   5.338   5.354   5.774 -0.4387 -0.4116 -0.3567
 6736TIP3    H141699   5.394   5.276   5.784 -0.6860 -0.4655  0.7261
 6736TIP3    H241700   5.396   5.419   5.735  1.1252  0.2572  2.7081
 6737TIP3   OH241701   3.948   3.198  11.806  0.2497  0.1345 -0.4133
 6737TIP3    H141702   4.029   3.184  11.756  0.2748  0.5641 -0.4953
 6737TIP3    H241703   3.965   3.160  11.892  0.3952 -0.1364 -0.5613
 6738TIP3   OH241704   3.543   4.322  12.471 -0.1853 -0.4538 -0.3580
 6738TIP3    H141705   3.478   4.372  12.422 -0.1697  0.0305  0.1064
 6738TIP3    H241706   3.529   4.348  12.562  0.9255 -0.0441 -0.3007
 6739TIP3   OH241707   1.551   1.133   2.979  0.1357 -0.0143 -0.1815
 6739TIP3    H141708   1.514   1.073   2.914  0.6236 -1.3137  0.7054
 6739TIP3    H241709   1.628   1.170   2.936  1.0741 -1.6711 -0.0121
 6740TIP3   OH241710   5.570   2.994   3.339  0.1680  0.3866  0.1689
 6740TIP3    H141711   5.635   2.931   3.311 -1.5344 -2.5020  2.1353
 6740TIP3    H241712   5.620   3.072   3.365  2.7896 -1.4962  1.1261
 6741TIP3   OH241713   0.520   5.941   0.528 -0.0295  0.2571 -0.4054
 6741TIP3    H141714   0.537   5.999   0.454 -0.7236  1.5976  0.4433
 6741TIP3    H241715   0.532   5.996   0.605 -0.9592 -0.6610  0.4236
 6742TIP3   OH241716   2.574   6.064  11.947  0.4244 -0.4035 -0.3272
 6742TIP3    H141717   2.542   6.097  12.031 -0.0990 -0.3921 -0.5319
 6742TIP3    H241718   2.497   6.029  11.903  0.7959 -0.9357 -0.5638
 6743TIP3   OH241719   1.548   6.533   0.823  0.2641  0.4863 -0.3346
 6743TIP3    H141720   1.474   6.481   0.792 -0.8338  0.9370  1.4064
 6743TIP3    H241721   1.606   6.470   0.864  0.3750  0.2688 -0.8110
 6744TIP3   OH241722   3.321   1.132   6.486 -0.1881  0.7375 -0.1070
 6744TIP3    H141723   3.316   1.159   6.395 -0.3243  0.0061 -0.3234
 6744TIP3    H241724   3.271   1.050   6.490 -0.7923  1.1333  0.7726
 6745TIP3   OH241725   0.075   6.553  16.493  0.7495 -0.4649 -1.0716
 6745TIP3    H141726   0.047   6.475  16.542  0.7408  0.3927  0.3311
 6745TIP3    H241727   0.171   6.547  16.492  0.7185 -0.9024 -1.6627
 6746TIP3   OH241728   6.370   2.530  11.542 -0.3987  0.1844  0.4960
 6746TIP3    H141729   6.328   2.476  11.475  0.6055 -0.6030  0.4640
 6746TIP3    H241730   6.438   2.578  11.494  1.1953 -1.3504  1.1102
 6747TIP3   OH241731   3.360   4.643   2.599 -0.2055  0.7653 -1.3177
 6747TIP3    H141732   3.325   4.730   2.618 -2.0301 -0.1327 -0.3616
 6747TIP3    H241733   3.318   4.585   2.662  1.6226 -0.7084 -1.3720
 6748TIP3   OH241734   1.921   2.356   3.680  0.3691 -0.9553 -0.5821
 6748TIP3    H141735   1.836   2.338   3.719  0.6083 -2.1264 -0.5654
 6748TIP3    H241736   1.904   2.365   3.587 -0.0436  0.7507 -0.3647
 6749TIP3   OH241737   0.532   0.887   3.279  0.1073  0.3527  0.5098
 6749TIP3    H141738   0.579   0.960   3.239 -1.9404  1.1596 -0.5227
 6749TIP3    H241739   0.473   0.856   3.211 -1.3751 -0.1590  1.9783
 6750TIP3   OH241740   1.868   6.116  12.777 -0.1699  0.1424 -0.1154
 6750TIP3    H141741   1.936   6.126  12.710  0.0820  2.8437  0.4490
 6750TIP3    H241742   1.899   6.045  12.833  1.3167  0.1604 -0.8782
 6751TIP3   OH241743   5.583   1.388  17.136  0.1738  0.5201 -0.3623
 6751TIP3    H141744   5.625   1.393  17.222  0.3582 -1.2508 -0.3019
 6751TIP3    H241745   5.652   1.415  17.075  0.2546  1.1289 -0.0095
 6752TIP3   OH241746   3.996   4.144   5.688 -0.3256  0.9309  0.0499
 6752TIP3    H141747   4.079   4.171   5.726  0.7059 -0.2454 -1.2887
 6752TIP3    H241748   3.966   4.072   5.744 -1.6883  2.8473  1.9424
 6753TIP3   OH241749   3.295   1.571   4.701  0.0412 -0.1540  0.7425
 6753TIP3    H141750   3.262   1.585   4.789  1.2501 -0.2933  1.2292
 6753TIP3    H241751   3.378   1.618   4.698  0.7492 -1.3983  0.1695
 6754TIP3   OH241752   5.863   6.743  13.748  0.3200 -0.1389  0.1891
 6754TIP3    H141753   5.809   6.707  13.819 -1.9125  2.3498 -0.1139
 6754TIP3    H241754   5.939   6.780  13.793  0.3119 -1.0191  0.9620
 6755TIP3   OH241755   3.117   4.631   2.120  0.3073  0.6607  0.1233
 6755TIP3    H141756   3.153   4.575   2.052  0.7451  0.7590  0.2675
 6755TIP3    H241757   3.103   4.573   2.195  3.2063  1.1297  1.1887
 6756TIP3   OH241758   4.766   2.630   1.862  0.0492  0.2616 -0.7080
 6756TIP3    H141759   4.788   2.620   1.954  0.5189  1.0872 -0.7151
 6756TIP3    H241760   4.672   2.647   1.861 -0.4078 -1.9708 -0.5712
 6757TIP3   OH241761   2.767   2.948   2.240  0.3328  0.5352 -0.1642
 6757TIP3    H141762   2.798   3.023   2.189  4.7232  1.5535  3.4035
 6757TIP3    H241763   2.711   2.986   2.308 -3.1618 -0.5061 -2.1713
 6758TIP3   OH241764   6.596   4.791  15.558  0.1710 -0.1635 -0.3340
 6758TIP3    H141765   6.533   4.817  15.490  0.6466 -1.1454 -1.1783
 6758TIP3    H241766   6.548   4.729  15.613  0.1389 -0.2488 -0.4583
 6759TIP3   OH241767   3.239   3.640   5.297  0.3544  0.2596  0.2668
 6759TIP3    H141768   3.244   3.604   5.385 -0.1449 -3.0955 -0.9405
 6759TIP3    H241769   3.327   3.627   5.260 -0.2632 -1.3737 -0.7259
 6760TIP3   OH241770   6.378   6.705   1.498  0.2329  0.2873 -0.2063
 6760TIP3    H141771   6.456   6.684   1.549 -0.8074 -0.7289  1.0526
 6760TIP3    H241772   6.411   6.739   1.415  1.9954  0.9921  0.7307
 6761TIP3   OH241773   4.560   2.689  15.808  0.1419  0.1545 -0.5126
 6761TIP3    H141774   4.559   2.749  15.733  0.7103 -0.5532 -1.1102
 6761TIP3    H241775   4.549   2.745  15.884  1.5625  1.1292 -0.9899
 6762TIP3   OH241776   6.517   5.428  10.923  0.2551  0.4428 -0.1691
 6762TIP3    H141777   6.511   5.524  10.918 -2.4205  0.3395 -0.2509
 6762TIP3    H241778   6.577   5.411  10.996  1.3483  2.1485 -0.6138
 6763TIP3   OH241779   6.332   0.218   2.178 -0.5854  0.1859  0.2034
 6763TIP3    H141780   6.343   0.209   2.272  0.6709 -0.5763  0.0117
 6763TIP3    H241781   6.260   0.280   2.168 -0.5811  0.4650  1.6524
 6764TIP3   OH241782   5.969   3.388  11.815 -0.1024  0.3273  0.3287
 6764TIP3    H141783   6.043   3.402  11.755  1.0278 -1.4984  1.1981
 6764TIP3    H241784   5.983   3.451  11.885  1.9350 -1.3514  1.5715
 6765TIP3   OH241785   2.689   6.173  12.755 -0.2575 -0.0497  0.2062
 6765TIP3    H141786   2.648   6.248  12.712  0.1885  0.3791  0.5127
 6765TIP3    H241787   2.643   6.164  12.838 -1.3219 -1.0684 -0.4785
 6766TIP3   OH241788   6.613   3.172   0.752  0.1790  0.2586  0.4704
 6766TIP3    H141789   6.553   3.150   0.823 -0.1950  1.4242  0.5427
 6766TIP3    H241790   6.614   3.268   0.750 -0.3457  0.2750 -1.5348
 6767TIP3   OH241791   6.516   2.118  14.929 -0.2222 -0.0001 -0.1390
 6767TIP3    H141792   6.473   2.039  14.964  1.7565 -1.8741 -1.6585
 6767TIP3    H241793   6.590   2.133  14.988 -2.2842  2.7565  2.0181
 6768TIP3   OH241794   6.275   6.755  17.471 -0.2875 -0.5541  0.1539
 6768TIP3    H141795   6.299   6.753  17.378 -1.8719  1.2278 -0.3640
 6768TIP3    H241796   6.228   6.673  17.486 -0.3361 -0.6962 -0.7202
 6769TIP3   OH241797   3.657   3.344  10.758  0.6620 -0.3510  0.0672
 6769TIP3    H141798   3.636   3.329  10.850  2.7258 -0.5323  0.5589
 6769TIP3    H241799   3.590   3.297  10.710  0.1237 -1.0967  1.4947
 6770TIP3   OH241800   6.559   5.604   0.666  0.6091 -0.3432  0.4853
 6770TIP3    H141801   6.549   5.514   0.698 -1.0672 -0.2985  0.2131
 6770TIP3    H241802   6.529   5.600   0.575 -2.7189  1.0196  1.3466
 6771TIP3   OH241803   2.146   2.455  13.612 -0.2866 -0.1035 -0.0344
 6771TIP3    H141804   2.201   2.530  13.634  0.0937  0.4452 -2.5303
 6771TIP3    H241805   2.206   2.381  13.609 -0.3793 -0.2276  0.8376
 6772TIP3   OH241806   6.659   5.564   3.461 -0.3453  0.3480 -0.0846
 6772TIP3    H141807   6.733   5.563   3.400 -0.7391  0.4933 -0.5674
 6772TIP3    H241808   6.699   5.577   3.547  0.0412  2.4217 -0.5433
 6773TIP3   OH241809   4.875   5.582   2.735 -0.2875  0.6131  0.3927
 6773TIP3    H141810   4.877   5.672   2.705 -2.3206  0.0973 -1.5126
 6773TIP3    H241811   4.884   5.530   2.655 -3.6979 -0.8345  0.7941
 6774TIP3   OH241812   3.393   5.715  13.551  0.0538 -0.3579 -0.2461
 6774TIP3    H141813   3.384   5.721  13.456  0.1716  0.2035 -0.2263
 6774TIP3    H241814   3.305   5.730  13.584  0.2946  1.1121 -0.2103
 6775TIP3   OH241815   4.002   1.744  13.881  0.4011 -0.2033  0.5602
 6775TIP3    H141816   4.037   1.656  13.888  1.5802  0.1052 -0.9348
 6775TIP3    H241817   4.072   1.795  13.842 -0.5845  1.1967  0.5307
 6776TIP3   OH241818   3.770   3.318   2.884 -0.2170  0.0421 -0.4088
 6776TIP3    H141819   3.826   3.241   2.877  0.2739  0.3291  0.2710
 6776TIP3    H241820   3.687   3.285   2.919  0.0832 -0.1360  0.1302
 6777TIP3   OH241821   5.026   5.032  14.789 -0.2354 -0.5826 -0.0101
 6777TIP3    H141822   4.982   5.111  14.757  0.8399  0.0934  0.1232
 6777TIP3    H241823   4.960   4.989  14.844 -0.1049  1.5189  1.9520
 6778TIP3   OH241824   4.677   2.025  13.216 -0.3517  0.8963  0.0161
 6778TIP3    H141825   4.745   2.048  13.153 -1.6555  0.7923 -1.5089
 6778TIP3    H241826   4.688   2.087  13.288  1.0222  1.1946 -0.4202
 6779TIP3   OH241827   1.068   2.610  13.400 -0.6044 -0.3856 -0.3301
 6779TIP3    H141828   1.117   2.550  13.344 -1.5953 -0.9313 -0.6343
 6779TIP3    H241829   0.995   2.558  13.432  1.3447 -0.9959  3.7615
 6780TIP3   OH241830   1.765   5.434  11.997 -0.1764 -0.1160  0.1634
 6780TIP3    H141831   1.702   5.456  12.065 -0.7121 -0.4944 -0.2036
 6780TIP3    H241832   1.772   5.513  11.944 -0.0205  0.0641  0.4481
 6781TIP3   OH241833   4.795   1.007  13.128  0.0304 -0.0408 -0.3749
 6781TIP3    H141834   4.865   1.028  13.066 -0.3056 -0.0953 -0.7753
 6781TIP3    H241835   4.716   1.043  13.087  0.0306  1.3427  0.7539
 6782TIP3   OH241836   1.987   1.928  10.673  0.5047 -0.1398  0.4859
 6782TIP3    H141837   1.981   2.020  10.647 -1.9028 -0.8854 -2.2513
 6782TIP3    H241838   2.044   1.888  10.607  0.4558 -0.8394  0.8577
 6783TIP3   OH241839   5.401   2.713   2.153  0.0748 -0.0454  0.2233
 6783TIP3    H141840   5.481   2.666   2.174  0.0333 -0.5268 -0.6337
 6783TIP3    H241841   5.331   2.649   2.166 -0.0550  0.0113 -0.1673
 6784TIP3   OH241842   3.788   0.179  12.707 -0.0393 -0.1468 -0.3250
 6784TIP3    H141843   3.789   0.227  12.790  2.0755 -0.4209 -0.1454
 6784TIP3    H241844   3.801   0.088  12.732 -0.2414 -0.3386 -0.9068
 6785TIP3   OH241845   1.501   5.067  13.961  0.1446 -0.0521  0.6224
 6785TIP3    H141846   1.526   5.121  13.886  2.3190 -1.0657  0.5409
 6785TIP3    H241847   1.498   5.129  14.034 -3.0399  1.1606 -0.3265
 6786TIP3   OH241848   4.448   5.783  15.737 -0.4457  0.5254  0.8268
 6786TIP3    H141849   4.498   5.757  15.660 -0.2350  0.8423  0.8586
 6786TIP3    H241850   4.440   5.878  15.731 -0.2709  0.5752  1.2908
 6787TIP3   OH241851   0.639   0.869   0.698 -0.2485 -0.7946 -0.6023
 6787TIP3    H141852   0.715   0.862   0.755 -0.8926 -1.9706  0.1693
 6787TIP3    H241853   0.605   0.957   0.713  0.9431 -0.2694 -0.9496
 6788TIP3   OH241854   4.554   2.465  15.237 -0.0714 -0.0021 -0.0764
 6788TIP3    H141855   4.584   2.437  15.323 -1.1510  0.7442  0.5792
 6788TIP3    H241856   4.632   2.500  15.194  0.4433 -0.2275  0.6662
 6789TIP3   OH241857   0.909   2.177  15.787  0.1975  0.5349 -0.5921
 6789TIP3    H141858   0.963   2.136  15.720  0.6155 -1.2162  0.7531
 6789TIP3    H241859   0.822   2.140  15.774  0.5172 -0.6592  0.4587
 6790TIP3   OH241860   3.532   5.716  14.036  0.2085 -0.1642 -0.2881
 6790TIP3    H141861   3.446   5.707  13.994 -0.0650 -0.7295  0.3758
 6790TIP3    H241862   3.594   5.716  13.964 -0.2834 -0.7676 -0.7211
 6791TIP3   OH241863   0.509   6.221   5.085  0.1065 -0.4595 -0.1193
 6791TIP3    H141864   0.570   6.295   5.085 -1.1227  0.6385  1.8702
 6791TIP3    H241865   0.556   6.151   5.131  0.6901 -0.4243 -0.6390
 6792TIP3   OH241866   2.382   2.944  12.560 -0.2080 -0.2941  0.2820
 6792TIP3    H141867   2.336   2.863  12.581  2.2906 -1.2404  2.6747
 6792TIP3    H241868   2.457   2.916  12.508 -0.3276  0.7572 -0.4953
 6793TIP3   OH241869   1.282   0.617  14.733  0.7220  0.1481 -0.2467
 6793TIP3    H141870   1.321   0.529  14.725  1.7966  0.6057 -0.3075
 6793TIP3    H241871   1.287   0.636  14.826  0.0588 -0.0352 -0.1702
 6794TIP3   OH241872   1.624   2.995   5.796  0.4286 -0.4145 -0.2831
 6794TIP3    H141873   1.572   3.075   5.802 -0.2578 -0.8065 -0.8329
 6794TIP3    H241874   1.600   2.945   5.874  1.4873  0.2707  0.4968
 6795TIP3   OH241875   2.611   0.335   4.007 -0.0448  0.1199 -0.4374
 6795TIP3    H141876   2.526   0.298   4.029 -0.3734  0.9656 -0.2609
 6795TIP3    H241877   2.670   0.301   4.075 -0.1599 -0.7418 -0.7563
 6796TIP3   OH241878   4.586   6.269  15.150 -0.8915 -0.0923  0.1046
 6796TIP3    H141879   4.546   6.354  15.167  1.3881  1.7074 -2.4579
 6796TIP3    H241880   4.550   6.242  15.065 -0.2633 -0.7782  0.0474
 6797TIP3   OH241881   6.691   1.006   1.718 -0.7114 -0.0234 -0.3378
 6797TIP3    H141882   6.624   0.983   1.782 -0.8979 -0.6277 -0.7312
 6797TIP3    H241883   6.644   1.005   1.634  0.1103 -2.2065 -0.8575
 6798TIP3   OH241884   1.164   2.170  12.343  0.0820 -0.7845  0.4413
 6798TIP3    H141885   1.244   2.118  12.336 -0.1779 -1.3426  1.3518
 6798TIP3    H241886   1.095   2.112  12.310  0.2278  0.2781 -1.9380
 6799TIP3   OH241887   5.178   4.867  11.939 -0.3081 -0.1830  0.2895
 6799TIP3    H141888   5.156   4.898  11.851 -0.8633 -1.2195  0.0510
 6799TIP3    H241889   5.139   4.780  11.945  3.6512 -2.2031 -0.1580
 6800TIP3   OH241890   4.112   4.997   0.039  0.0905 -0.4209  0.8076
 6800TIP3    H141891   4.106   4.980  -0.055 -1.2747  0.1668  0.7641
 6800TIP3    H241892   4.146   4.915   0.076 -0.2317 -0.9824 -0.0961
 6801TIP3   OH241893   3.975   1.231  14.865  0.0635  0.2802  0.2248
 6801TIP3    H141894   3.937   1.262  14.947  1.3469  1.2434  0.4795
 6801TIP3    H241895   3.902   1.191  14.818 -1.0444  1.2163  1.1092
 6802TIP3   OH241896   2.780   0.763  15.887  0.3485  0.2591  0.3603
 6802TIP3    H141897   2.751   0.673  15.894  1.5843 -0.3477 -1.4743
 6802TIP3    H241898   2.853   0.770  15.949 -0.4895  0.3683  1.3581
 6803TIP3   OH241899   4.004   5.376   6.619 -0.2436 -0.0100  0.1896
 6803TIP3    H141900   4.059   5.418   6.684 -1.8479 -1.9562  3.0084
 6803TIP3    H241901   3.921   5.424   6.622 -0.1259  0.3185 -1.0108
 6804TIP3   OH241902   4.391   0.568   3.259 -0.7239 -0.0013 -0.3959
 6804TIP3    H141903   4.341   0.588   3.338 -1.7940 -0.2953 -0.9796
 6804TIP3    H241904   4.334   0.596   3.187 -0.0965 -0.4613 -1.0805
 6805TIP3   OH241905   5.843   3.477   3.447  0.4297 -0.3425 -0.2244
 6805TIP3    H141906   5.831   3.565   3.481 -0.5018 -0.1353 -1.0243
 6805TIP3    H241907   5.897   3.488   3.368  1.1332 -0.6127  0.2086
 6806TIP3   OH241908   4.384   6.014  14.755  0.2738 -0.0637 -0.1637
 6806TIP3    H141909   4.354   6.076  14.689 -0.9560 -0.4662  0.0040
 6806TIP3    H241910   4.404   6.068  14.832 -2.2886  0.0269  0.5169
 6807TIP3   OH241911   5.009   5.707   3.413 -0.3864  0.4630 -0.0249
 6807TIP3    H141912   5.090   5.710   3.362 -0.6191  2.5533 -0.3216
 6807TIP3    H241913   5.036   5.729   3.502 -0.6341  1.2460 -0.1408
 6808TIP3   OH241914   6.553   4.355  13.786 -0.0356 -0.7081 -0.5806
 6808TIP3    H141915   6.473   4.399  13.817 -0.9048 -1.0842 -2.1800
 6808TIP3    H241916   6.612   4.357  13.862 -1.7794 -0.9840  0.8518
 6809TIP3   OH241917   0.420   1.047  13.153  0.5928 -0.1040  0.1769
 6809TIP3    H141918   0.475   1.113  13.196  0.4974  0.2316 -0.2202
 6809TIP3    H241919   0.407   0.980  13.221  1.1820 -0.0087  0.3954
 6810TIP3   OH241920   4.606   2.130  11.928 -0.5311  0.1227  0.0373
 6810TIP3    H141921   4.683   2.144  11.873  0.6290 -0.8982  1.3226
 6810TIP3    H241922   4.593   2.035  11.928 -0.2217  0.0356  1.8218
 6811TIP3   OH241923   4.063   2.017   1.605  0.5165  0.9404  0.1735
 6811TIP3    H141924   4.113   2.098   1.614  2.4202 -0.0731 -0.5825
 6811TIP3    H241925   4.089   1.983   1.519 -1.0781  0.0682  0.0036
 6812TIP3   OH241926   2.180   0.070   5.058  0.3290  1.0044  0.2208
 6812TIP3    H141927   2.238   0.047   4.986  0.7392 -0.2271  0.9214
 6812TIP3    H241928   2.232   0.129   5.112  0.3490  1.1942 -0.0046
 6813TIP3   OH241929   0.997   1.256  12.524 -0.0632  0.1252 -0.1445
 6813TIP3    H141930   1.023   1.272  12.433 -1.5977  3.6647 -0.1095
 6813TIP3    H241931   1.079   1.257  12.573  0.8019 -1.9649 -1.4096
 6814TIP3   OH241932   0.578   0.627   5.670 -0.4424 -0.0429  0.3777
 6814TIP3    H141933   0.643   0.602   5.735 -1.0096  0.9034  1.3534
 6814TIP3    H241934   0.591   0.566   5.597 -0.4728 -1.8130  1.7906
 6815TIP3   OH241935   2.598   3.687   2.497  0.0716 -0.1857 -0.5349
 6815TIP3    H141936   2.565   3.703   2.586  1.4080  0.4110 -0.1284
 6815TIP3    H241937   2.677   3.635   2.510  1.1409  1.2158 -1.2770
 6816TIP3   OH241938   3.179   0.133   5.374  0.2654  0.2431  0.4156
 6816TIP3    H141939   3.254   0.106   5.427 -0.3836 -3.0387 -0.1156
 6816TIP3    H241940   3.216   0.153   5.288  0.7560  0.7172  0.7333
 6817TIP3   OH241941   2.792   1.530   3.407 -0.1510  0.2437  0.4559
 6817TIP3    H141942   2.875   1.484   3.418  0.6142  1.3266 -0.5457
 6817TIP3    H241943   2.726   1.461   3.404  1.0574 -0.9395 -2.1778
 6818TIP3   OH241944   1.813   4.909   3.325  0.1505 -0.2578  0.5754
 6818TIP3    H141945   1.730   4.924   3.278 -0.3527 -1.2733  1.1059
 6818TIP3    H241946   1.867   4.862   3.263  0.2378  0.1597  0.3263
 6819TIP3   OH241947   3.713   0.715  10.754  0.2488  0.1434  0.0864
 6819TIP3    H141948   3.764   0.677  10.683 -0.0758  0.8922 -0.5518
 6819TIP3    H241949   3.665   0.787  10.714 -1.1587 -0.4174  0.7109
 6820TIP3   OH241950   0.872   5.547  14.253 -0.3304 -0.4595 -0.0908
 6820TIP3    H141951   0.819   5.483  14.300 -1.1153  0.6700  0.6228
 6820TIP3    H241952   0.892   5.614  14.318 -1.4727  1.1626 -1.3111
 6821TIP3   OH241953   5.277   1.393  16.448 -0.1244  0.7674 -0.1793
 6821TIP3    H141954   5.251   1.426  16.535 -0.4593 -1.1971  0.5322
 6821TIP3    H241955   5.369   1.416  16.441 -0.6098  2.9095 -0.2990
 6822TIP3   OH241956   6.695   6.395   4.640 -0.3588  0.0766 -0.3626
 6822TIP3    H141957   6.654   6.338   4.575 -0.6691  0.5880 -0.6210
 6822TIP3    H241958   6.784   6.408   4.608 -0.6374  0.6722 -0.9233
 6823TIP3   OH241959   2.956   1.880   1.091  0.2174  0.1454 -0.0892
 6823TIP3    H141960   2.883   1.920   1.139  1.8468  1.5973  1.3076
 6823TIP3    H241961   3.004   1.830   1.157  1.1575  0.2106 -0.7048
 6824TIP3   OH241962   5.218   0.211  14.349 -0.0062  0.0636  0.4135
 6824TIP3    H141963   5.229   0.127  14.304 -1.5507  0.7590 -1.4249
 6824TIP3    H241964   5.179   0.189  14.433 -0.4614 -1.0535 -0.0733
 6825TIP3   OH241965   4.306   6.165  11.462 -0.2314 -0.5011  0.2215
 6825TIP3    H141966   4.221   6.208  11.458 -1.6564 -3.1332 -0.9622
 6825TIP3    H241967   4.347   6.197  11.542 -1.7261  1.8499  0.1257
 6826TIP3   OH241968   4.575   2.519   1.300 -0.0728 -0.5361  0.0590
 6826TIP3    H141969   4.495   2.484   1.341 -0.2068 -0.1405  0.1345
 6826TIP3    H241970   4.598   2.453   1.234 -0.5983 -0.5353 -0.1273
 6827TIP3   OH241971   2.739   1.919   5.488 -0.2683  0.2851  0.3053
 6827TIP3    H141972   2.668   1.966   5.531 -0.0677  0.7391  0.1469
 6827TIP3    H241973   2.802   1.987   5.464 -0.1228 -0.0267 -0.2121
 6828TIP3   OH241974   3.295   5.089   3.381  0.6941 -0.8192  0.1920
 6828TIP3    H141975   3.294   5.025   3.452 -1.8155  0.4257  1.4364
 6828TIP3    H241976   3.202   5.106   3.364  1.2096 -0.9846 -3.3835
 6829TIP3   OH241977   6.492   3.298   5.389 -0.2820  0.3537 -0.1430
 6829TIP3    H141978   6.483   3.388   5.358  0.9795  0.5257 -0.0528
 6829TIP3    H241979   6.412   3.282   5.439  0.3511  2.1245  1.5740
 6830TIP3   OH241980   0.417   4.128  14.554  0.4679 -0.4382  0.5784
 6830TIP3    H141981   0.482   4.061  14.575  1.7076  0.7152  0.5337
 6830TIP3    H241982   0.337   4.096  14.595  1.2062 -1.5607  1.2237
 6831TIP3   OH241983   3.580   2.290   5.713  0.0115  0.5017 -0.5838
 6831TIP3    H141984   3.590   2.254   5.801  0.0829  1.4746 -0.1752
 6831TIP3    H241985   3.583   2.214   5.655  1.5349 -0.0177  0.1321
 6832TIP3   OH241986   1.886   2.721   3.114  0.6151  0.2278  0.0730
 6832TIP3    H141987   1.903   2.693   3.024  1.5291 -0.2082  0.3680
 6832TIP3    H241988   1.970   2.754   3.145 -0.0816  1.9896  0.2182
 6833TIP3   OH241989   0.322   1.849   3.729 -0.4018 -0.1840  0.2573
 6833TIP3    H141990   0.370   1.922   3.690 -1.6349  0.8291  0.5357
 6833TIP3    H241991   0.387   1.780   3.740  0.2158 -0.2048 -2.7065
 6834TIP3   OH241992   6.211   5.494  14.477  0.0784 -0.3097  0.0486
 6834TIP3    H141993   6.175   5.551  14.545 -0.5627  0.3872 -0.8420
 6834TIP3    H241994   6.165   5.520  14.397 -0.2016 -2.0589 -0.4099
 6835TIP3   OH241995   4.765   6.710   0.608  0.5903  0.8274  0.1993
 6835TIP3    H141996   4.730   6.761   0.681 -2.4625 -1.2057  0.3269
 6835TIP3    H241997   4.740   6.759   0.530  0.8926  1.3005  0.3916
 6836TIP3   OH241998   4.485   0.364  16.682  0.0247 -0.1250  0.4562
 6836TIP3    H141999   4.521   0.311  16.611 -0.2820 -0.1078  0.2866
 6836TIP3    H242000   4.552   0.361  16.750  0.4378  0.0796  0.0616
 6837TIP3   OH242001   2.253   3.051  12.900  0.2938  0.1656 -0.0274
 6837TIP3    H142002   2.211   2.979  12.853  0.8966 -0.7495  0.7785
 6837TIP3    H242003   2.254   3.022  12.991  1.5149  0.7237  0.1553
 6838TIP3   OH242004   0.784   4.172   3.687  0.3984  0.4055 -0.0215
 6838TIP3    H142005   0.747   4.208   3.767  3.0940  0.9666  1.1001
 6838TIP3    H242006   0.817   4.086   3.713  1.3215  0.6072 -0.4907
 6839TIP3   OH242007   2.488   6.689   4.295 -0.0124 -0.1211 -0.3642
 6839TIP3    H142008   2.564   6.667   4.348  0.7531  0.8784 -0.9978
 6839TIP3    H242009   2.499   6.638   4.215  1.3623  1.8396 -1.5126
 6840TIP3   OH242010   4.360   6.110  14.469 -0.0563  0.0593 -0.3170
 6840TIP3    H142011   4.279   6.076  14.430 -0.3497  1.5407 -1.0872
 6840TIP3    H242012   4.403   6.157  14.397  0.4606  1.0433  0.6045
 6841TIP3   OH242013   2.430   4.256  17.130  0.4614  0.0748 -0.6763
 6841TIP3    H142014   2.453   4.339  17.089  2.0723 -0.3268 -0.6620
 6841TIP3    H242015   2.446   4.269  17.223 -0.8482  0.2337 -0.4608
 6842TIP3   OH242016   3.342   1.537   3.858 -0.7527 -0.1952  0.6232
 6842TIP3    H142017   3.326   1.607   3.794  1.7601  0.1224  0.2355
 6842TIP3    H242018   3.357   1.459   3.804  3.1893  0.4170  0.4864
 6843TIP3   OH242019   1.016   0.992  12.239  0.2621 -0.2977  0.0962
 6843TIP3    H142020   0.946   0.927  12.227 -0.1095  0.5269 -2.8896
 6843TIP3    H242021   1.087   0.963  12.183  0.9559  0.7436  0.3926
 6844TIP3   OH242022   1.788   4.052   3.873 -0.0928 -0.5972  0.2658
 6844TIP3    H142023   1.796   3.960   3.897  3.8903  0.3100  3.2885
 6844TIP3    H242024   1.859   4.067   3.810  0.1503  0.6852  0.8229
 6845TIP3   OH242025   0.643   2.327  11.391  0.1371 -0.4411 -0.3261
 6845TIP3    H142026   0.642   2.389  11.464 -0.7896 -1.4544  0.5727
 6845TIP3    H242027   0.716   2.268  11.410 -0.1823 -0.7820 -0.1355
 6846TIP3   OH242028   1.433   2.748   5.316 -0.1419 -0.1565  0.4709
 6846TIP3    H142029   1.483   2.743   5.234  0.5820 -0.2049  0.9142
 6846TIP3    H242030   1.471   2.680   5.372 -0.3984  0.1215  0.9851
 6847TIP3   OH242031   5.473   4.827  16.322 -0.3644  0.0949  0.6690
 6847TIP3    H142032   5.521   4.890  16.376  0.4995 -0.5178  0.6269
 6847TIP3    H242033   5.525   4.747  16.326  0.4730  0.4036 -2.1817
 6848TIP3   OH242034   6.464   6.339  13.218 -0.6000 -0.0255 -0.3236
 6848TIP3    H142035   6.410   6.363  13.143 -2.4570 -1.7892  0.3681
 6848TIP3    H242036   6.416   6.371  13.294  0.7290  0.7923  0.2170
 6849TIP3   OH242037   4.551   6.624   4.261 -0.5481  0.5874 -0.5305
 6849TIP3    H142038   4.612   6.616   4.188  1.9420  0.5677  1.4034
 6849TIP3    H242039   4.496   6.545   4.255  1.3046 -0.7285 -0.9303
 6850TIP3   OH242040   3.954   4.474   3.119 -0.5071  0.4129 -0.0313
 6850TIP3    H142041   3.886   4.535   3.092  0.0737  0.3533 -1.7605
 6850TIP3    H242042   3.910   4.414   3.180 -1.9334  0.5586 -0.8824
 6851TIP3   OH242043   5.942   1.776   3.646  0.1786  0.1587 -0.5016
 6851TIP3    H142044   5.912   1.810   3.730 -0.1270 -0.3301 -0.4074
 6851TIP3    H242045   5.952   1.682   3.661 -0.6695 -0.0643 -1.2336
 6852TIP3   OH242046   5.744   3.371   5.160  0.3476 -0.6025  0.0616
 6852TIP3    H142047   5.672   3.404   5.107 -0.6393 -0.4825  1.4138
 6852TIP3    H242048   5.764   3.285   5.124  2.2803  0.8907 -2.8881
 6853TIP3   OH242049   3.901   5.859  15.750  0.6435  0.0740 -0.0403
 6853TIP3    H142050   3.811   5.825  15.753  0.2088  1.0653 -1.0758
 6853TIP3    H242051   3.892   5.948  15.717  2.0239  0.1572 -0.2501
 6854TIP3   OH242052   5.810   1.668   4.824  0.6098 -0.2937  0.4644
 6854TIP3    H142053   5.763   1.660   4.741 -0.8068  1.6603  0.9954
 6854TIP3    H242054   5.741   1.662   4.891  1.2924  1.1565  1.3480
 6855TIP3   OH242055   0.898   1.140  15.407 -0.0295 -0.0925 -0.6882
 6855TIP3    H142056   0.873   1.156  15.316  1.7501  0.7972 -1.0688
 6855TIP3    H242057   0.907   1.227  15.446  1.0202 -0.3951 -0.1996
 6856TIP3   OH242058   5.063   0.725  11.489 -0.4696 -0.2995 -0.0987
 6856TIP3    H142059   5.117   0.686  11.559 -0.8739  0.4643  0.6604
 6856TIP3    H242060   4.985   0.670  11.485 -0.4408 -0.3516  0.0513
 6857TIP3   OH242061   6.442   5.183  12.389 -0.2008 -0.5215  0.2747
 6857TIP3    H142062   6.484   5.098  12.403 -0.5840 -0.9059 -0.8227
 6857TIP3    H242063   6.447   5.198  12.295 -0.3635  0.5630  0.4245
 6858TIP3   OH242064   6.063   3.764  13.516  0.2419  0.2201  0.1872
 6858TIP3    H142065   6.108   3.688  13.479  1.4885  0.4506  1.1538
 6858TIP3    H242066   5.999   3.789  13.449  0.5238 -1.0318 -0.5893
 6859TIP3   OH242067   4.687   6.402   2.166 -0.2809 -0.4914  0.6278
 6859TIP3    H142068   4.758   6.426   2.107 -1.4732  1.0915 -0.2287
 6859TIP3    H242069   4.618   6.369   2.108 -3.2751  5.1904  0.2908
 6860TIP3   OH242070   1.184   6.748  14.706  0.9823 -0.1932  0.5378
 6860TIP3    H142071   1.147   6.690  14.640  0.2648 -0.7903  1.4435
 6860TIP3    H242072   1.109   6.796  14.741  1.3660  0.1876  0.8545
 6861TIP3   OH242073   6.376   4.478  12.369  0.1848 -0.0886 -0.6157
 6861TIP3    H142074   6.458   4.487  12.320  0.1893  1.6375 -0.3820
 6861TIP3    H242075   6.327   4.558  12.347 -0.5753 -0.1388  0.7810
 6862TIP3   OH242076   0.960   1.639  12.136  0.2177 -0.1028 -0.7866
 6862TIP3    H142077   0.970   1.588  12.055  0.0442 -0.2072 -0.7440
 6862TIP3    H242078   1.045   1.679  12.150  0.4854 -0.7416 -0.5754
 6863TIP3   OH242079   2.861   4.688  12.640 -0.3428 -0.0547 -0.4062
 6863TIP3    H142080   2.844   4.726  12.726 -1.3000 -2.1851  0.4217
 6863TIP3    H242081   2.888   4.762  12.586 -2.2666  1.8063  1.0180
 6864TIP3   OH242082   5.903   4.005  16.652 -0.2182 -0.4208  0.1663
 6864TIP3    H142083   5.869   3.970  16.570  1.3864 -0.5248 -0.5102
 6864TIP3    H242084   5.995   4.025  16.632 -0.2375  1.1184  1.4727
 6865TIP3   OH242085   2.260   0.190   4.801  0.0189 -0.2346 -0.1832
 6865TIP3    H142086   2.328   0.135   4.765 -0.0769 -0.7315  0.3780
 6865TIP3    H242087   2.187   0.182   4.740  0.2592 -0.1579 -0.4805
 6866TIP3   OH242088   2.842   0.944  12.370 -0.0509 -0.1964 -1.1339
 6866TIP3    H142089   2.833   1.000  12.293  0.5200  0.0886 -1.0013
 6866TIP3    H242090   2.931   0.909  12.364  0.4760  0.8440  0.0561
 6867TIP3   OH242091   1.432   5.966  16.011  0.2008  0.3715  0.1516
 6867TIP3    H142092   1.391   6.037  15.961 -0.7803  0.8799  1.5993
 6867TIP3    H242093   1.500   5.932  15.953 -1.5783  0.1781 -1.9591
 6868TIP3   OH242094   2.173   2.792   2.583 -0.6234 -0.1069 -0.5738
 6868TIP3    H142095   2.239   2.763   2.646  1.6224 -0.6080 -2.9660
 6868TIP3    H242096   2.104   2.727   2.590  1.1202 -2.1239 -0.9000
 6869TIP3   OH242097   2.110   0.712  13.346  0.1240  0.0686 -0.3908
 6869TIP3    H142098   2.169   0.755  13.408 -0.0489 -0.5034  0.1789
 6869TIP3    H242099   2.048   0.781  13.321 -0.7300 -0.0531  1.2373
 6870TIP3   OH242100   4.064   5.111   3.901 -0.0788  0.0481  0.3524
 6870TIP3    H142101   3.978   5.154   3.896  0.6760  1.5980 -0.0042
 6870TIP3    H242102   4.086   5.111   3.994 -0.1958  0.2366  0.3805
 6871TIP3   OH242103   4.072   6.727  10.829 -0.1928  0.1132  0.1417
 6871TIP3    H142104   4.116   6.780  10.895 -0.9849  0.3069  0.5324
 6871TIP3    H242105   4.143   6.682  10.783  0.4665  1.1606  0.0913
 6872TIP3   OH242106   5.217   5.626  12.939 -0.0725 -0.5814 -0.3133
 6872TIP3    H142107   5.179   5.683  12.871 -0.2504 -0.2185  0.0882
 6872TIP3    H242108   5.254   5.552  12.890 -0.6456 -0.5750 -0.7671
 6873TIP3   OH242109   6.420   4.520  17.060  0.2677 -0.1216  0.8266
 6873TIP3    H142110   6.463   4.544  16.977 -1.4172 -1.2761 -0.4649
 6873TIP3    H242111   6.340   4.475  17.032  0.2032 -1.5433  3.1016
 6874TIP3   OH242112   1.394   1.574  15.848  0.1964  0.0985  0.1719
 6874TIP3    H142113   1.422   1.483  15.853  0.9089  0.2298 -0.9641
 6874TIP3    H242114   1.355   1.592  15.933  1.7790 -0.7088  1.1203
 6875TIP3   OH242115   3.051   5.015  15.473  0.6275 -0.3200 -0.6384
 6875TIP3    H142116   3.060   5.067  15.552  1.8193 -2.1092  0.4836
 6875TIP3    H242117   3.115   5.051  15.412 -0.5019  1.2555 -0.9704
 6876TIP3   OH242118   2.421   6.669   2.677 -0.3920 -0.7065 -0.9793
 6876TIP3    H142119   2.329   6.695   2.667  0.1589  1.0858 -1.7121
 6876TIP3    H242120   2.455   6.726   2.746  0.0032 -1.8997 -0.1487
 6877TIP3   OH242121   6.502   5.782  15.017  0.6489 -0.1974  0.1111
 6877TIP3    H142122   6.524   5.865  15.060  0.2868  0.4129 -0.8401
 6877TIP3    H242123   6.509   5.716  15.086 -0.4096  0.8098  1.2235
 6878TIP3   OH242124   2.379   1.915   4.095 -0.0798 -0.8753 -0.0618
 6878TIP3    H142125   2.389   1.842   4.157 -0.8435 -0.0475  1.0821
 6878TIP3    H242126   2.406   1.992   4.145 -0.5739 -0.2054 -0.8106
 6879TIP3   OH242127   3.476   0.474   2.523 -0.1384  0.0700  0.0475
 6879TIP3    H142128   3.514   0.540   2.582 -0.5040 -0.5349  0.9763
 6879TIP3    H242129   3.551   0.441   2.474  0.1970  0.4975  0.2554
 6880TIP3   OH242130   4.559   0.470   4.989 -0.6660  0.2145 -0.5266
 6880TIP3    H142131   4.531   0.383   5.015 -1.9305  0.1920 -1.8336
 6880TIP3    H242132   4.480   0.524   4.997 -0.3839  0.8076 -1.5585
 6881TIP3   OH242133   0.815   1.589   4.877 -0.1796 -0.7706 -0.1710
 6881TIP3    H142134   0.740   1.619   4.928 -0.8414 -1.0552 -0.9450
 6881TIP3    H242135   0.831   1.500   4.908  0.4043 -0.4012  0.6076
 6882TIP3   OH242136   5.487   0.750   4.950  0.2472 -0.4602 -0.4154
 6882TIP3    H142137   5.407   0.801   4.962 -0.1814 -1.2006 -0.0662
 6882TIP3    H242138   5.468   0.666   4.991  1.3330 -0.5208 -0.0175
 6883TIP3   OH242139   5.580   2.414  14.523  0.2241 -0.1684 -0.1974
 6883TIP3    H142140   5.615   2.340  14.571 -0.9016 -1.4101 -1.2057
 6883TIP3    H242141   5.656   2.452  14.479  0.5346 -2.2706 -1.6494
 6884TIP3   OH242142   4.830   2.244  11.783 -0.1992 -1.2766  0.0856
 6884TIP3    H142143   4.881   2.321  11.758 -1.1695 -0.4818  0.5040
 6884TIP3    H242144   4.891   2.191  11.834  0.6841 -1.1289 -0.7865
 6885TIP3   OH242145   3.462   0.280  14.465 -0.2606  0.3378  0.2626
 6885TIP3    H142146   3.381   0.257  14.419  0.0984  1.2675 -0.9054
 6885TIP3    H242147   3.530   0.273  14.397  0.7181 -0.8442  1.3222
 6886TIP3   OH242148   3.889   1.787  15.052  0.2189 -0.1656 -0.0102
 6886TIP3    H142149   3.926   1.703  15.081  0.0370 -0.3663 -0.3455
 6886TIP3    H242150   3.827   1.763  14.982  0.3131  0.2656 -0.2472
 6887TIP3   OH242151   6.619   6.345   2.939  0.7679 -0.3524 -0.2004
 6887TIP3    H142152   6.690   6.297   2.983  1.2965  0.9863  0.4540
 6887TIP3    H242153   6.655   6.368   2.853 -0.1850 -2.7689 -1.3480
 6888TIP3   OH242154   5.588   1.061  13.071  0.0012 -0.1598  0.0522
 6888TIP3    H142155   5.646   1.064  12.994 -0.4342  0.7630 -0.2532
 6888TIP3    H242156   5.543   0.976  13.064 -0.0121 -0.0987 -0.6989
 6889TIP3   OH242157   1.673   5.187   4.628 -0.1492 -0.2872  0.4268
 6889TIP3    H142158   1.630   5.272   4.643  0.4177  0.2874 -0.9826
 6889TIP3    H242159   1.609   5.136   4.578  0.2766  0.1119 -0.5703
 6890TIP3   OH242160   2.053   5.887   5.972  0.0225 -0.1819 -0.4072
 6890TIP3    H142161   2.100   5.903   6.054  1.0070 -0.9188 -0.8228
 6890TIP3    H242162   2.094   5.809   5.935 -1.0841 -0.4492 -1.1142
 6891TIP3   OH242163   5.874   4.492   4.376  0.6004 -0.6218 -0.3988
 6891TIP3    H142164   5.871   4.432   4.451 -1.5356 -1.5065 -1.0826
 6891TIP3    H242165   5.920   4.569   4.408 -1.1271 -0.5336  2.1985
 6892TIP3   OH242166   2.028   3.723   4.489  0.1883 -0.3022  0.4973
 6892TIP3    H142167   2.016   3.647   4.546 -0.8983 -0.2439  0.3730
 6892TIP3    H242168   2.037   3.686   4.401 -0.2727 -0.3000  0.4454
 6893TIP3   OH242169   1.018   3.467  10.519  0.1898 -0.2248 -0.2642
 6893TIP3    H142170   1.000   3.538  10.458  0.3980 -0.8933 -1.1226
 6893TIP3    H242171   1.113   3.466  10.528  0.2151 -0.6207 -0.5416
 6894TIP3   OH242172   4.541   5.148  15.756  0.2062  0.4384  0.1732
 6894TIP3    H142173   4.476   5.175  15.692  0.5230  2.0148  0.4543
 6894TIP3    H242174   4.564   5.229  15.802  3.0418  0.1583 -0.5470
 6895TIP3   OH242175   2.827   4.573   1.132 -0.0610 -0.0955  0.0881
 6895TIP3    H142176   2.845   4.667   1.123  1.6134 -0.3512  0.5875
 6895TIP3    H242177   2.759   4.556   1.066  0.6152  1.1895 -0.9868
 6896TIP3   OH242178   5.369   0.871  15.171  0.0849  0.1793 -0.2104
 6896TIP3    H142179   5.319   0.913  15.241  1.0910 -0.2225  0.7736
 6896TIP3    H242180   5.389   0.942  15.110  0.5964  0.8732  0.7355
 6897TIP3   OH242181   1.924   2.408   4.158  0.6822 -0.1925 -0.1142
 6897TIP3    H142182   1.972   2.456   4.225  1.2571 -1.2718  0.2837
 6897TIP3    H242183   1.959   2.440   4.075  0.5565  0.5554  0.1139
 6898TIP3   OH242184   4.130   0.653   6.129  0.2741  0.7150  0.0504
 6898TIP3    H142185   4.189   0.591   6.171  0.9763  1.6138  0.4269
 6898TIP3    H242186   4.044   0.611   6.133  0.8946 -0.7165 -0.6878
 6899TIP3   OH242187   0.591   6.585   3.833  0.5908 -0.0383  0.2225
 6899TIP3    H142188   0.546   6.588   3.749  0.5420  1.6418  0.2565
 6899TIP3    H242189   0.574   6.498   3.867  1.0367 -0.9521 -1.7232
 6900TIP3   OH242190   3.435   4.836  15.850 -0.1428  0.5453  0.0649
 6900TIP3    H142191   3.518   4.812  15.808 -0.1494 -0.2507  0.4805
 6900TIP3    H242192   3.401   4.908  15.796  0.2532  0.1040 -0.8034
 6901TIP3   OH242193   4.297   2.323   2.938  0.4582  0.2568 -0.6522
 6901TIP3    H142194   4.244   2.354   2.865 -0.1018  1.2631  0.1584
 6901TIP3    H242195   4.297   2.395   3.000 -0.7702 -1.2913  1.2571
 6902TIP3   OH242196   3.585   1.267   1.133  0.3604 -0.1752  0.8001
 6902TIP3    H142197   3.551   1.356   1.139 -1.5142 -0.6931 -0.9989
 6902TIP3    H242198   3.634   1.265   1.051  1.2138 -0.5568  1.3073
 6903TIP3   OH242199   2.598   2.322   4.216 -0.3210 -0.2633  0.3709
 6903TIP3    H142200   2.641   2.236   4.214 -0.1117 -0.1534  0.0476
 6903TIP3    H242201   2.624   2.363   4.134  1.1854  0.8880  1.3592
 6904TIP3   OH242202   5.538   5.937  15.119  0.0670  0.1154 -0.7702
 6904TIP3    H142203   5.627   5.953  15.151  0.3932 -1.3043 -0.8886
 6904TIP3    H242204   5.489   5.912  15.198 -0.3360  1.2198 -0.6489
 6905TIP3   OH242205   1.491   3.617  14.813 -0.2087 -0.2656 -0.2988
 6905TIP3    H142206   1.560   3.658  14.760 -0.0561  0.1946  0.2496
 6905TIP3    H242207   1.412   3.624  14.759 -0.4887  2.0066  0.3322
 6906TIP3   OH242208   2.742   5.428   5.522 -0.8793  0.1416 -0.2635
 6906TIP3    H142209   2.740   5.514   5.565  0.9129 -0.5842  1.4300
 6906TIP3    H242210   2.759   5.448   5.430  1.8605  1.6315  0.4476
 6907TIP3   OH242211   1.421   3.629  16.440 -0.1632 -0.0293 -0.6826
 6907TIP3    H142212   1.416   3.673  16.525 -1.5517 -1.4623  0.0289
 6907TIP3    H242213   1.351   3.669  16.388  0.6588  0.8173 -1.1645
 6908TIP3   OH242214   5.686   3.500   0.590 -0.3685 -0.4974 -0.4877
 6908TIP3    H142215   5.740   3.579   0.577  1.6326 -1.4385  1.5263
 6908TIP3    H242216   5.626   3.524   0.661  0.4806 -0.8568  0.3720
 6909TIP3   OH242217   2.577   3.205  17.282  0.4544  0.3605  0.1458
 6909TIP3    H142218   2.521   3.215  17.205 -0.7071  0.7258  1.0180
 6909TIP3    H242219   2.575   3.111  17.302  1.3498  0.1470 -0.6781
 6910TIP3   OH242220   6.038   5.949  17.022  0.2318 -0.6649  0.1454
 6910TIP3    H142221   6.001   6.037  17.025 -0.6752 -1.0247 -0.3241
 6910TIP3    H242222   6.116   5.958  16.966  0.3023 -0.1089  0.3272
 6911TIP3   OH242223   5.060   6.060   3.567  0.0869 -0.9203 -0.3970
 6911TIP3    H142224   5.072   6.053   3.473 -0.0576 -0.1240 -0.4848
 6911TIP3    H242225   5.036   5.972   3.595  0.0081 -1.1348 -1.1216
 6912TIP3   OH242226   1.367   4.546   2.769  0.1296 -0.0601  0.0257
 6912TIP3    H142227   1.396   4.636   2.755 -1.9724  0.5774 -0.6857
 6912TIP3    H242228   1.421   4.514   2.840  1.5080  1.4764 -0.2737
 6913TIP3   OH242229   1.723   1.510  14.138 -0.0476 -0.4175 -0.5408
 6913TIP3    H142230   1.703   1.603  14.149  0.8942 -0.2769  0.0701
 6913TIP3    H242231   1.786   1.507  14.066  0.7537 -0.4659  0.1481
 6914TIP3   OH242232   2.943   0.984  12.088 -0.3318 -0.1855  0.2102
 6914TIP3    H142233   3.014   0.934  12.047 -0.4916 -0.7096  0.5713
 6914TIP3    H242234   2.978   1.073  12.095 -1.0517  0.4968 -3.0440
 6915TIP3   OH242235   1.743   4.152  14.362 -0.7059 -0.1474 -0.1337
 6915TIP3    H142236   1.789   4.090  14.418  0.1204  0.5285 -0.0402
 6915TIP3    H242237   1.772   4.238  14.393 -1.0586  0.2618 -0.9130
 6916TIP3   OH242238   6.712   1.524  10.647 -0.1850 -0.3374 -0.4073
 6916TIP3    H142239   6.686   1.435  10.669 -0.6526  0.4069  2.5218
 6916TIP3    H242240   6.806   1.528  10.668  0.1856 -0.4973 -1.9424
 6917TIP3   OH242241   4.652   4.314  11.834 -0.9304 -0.1339 -0.2749
 6917TIP3    H142242   4.711   4.376  11.792 -0.6453 -0.8950 -1.0143
 6917TIP3    H242243   4.625   4.255  11.764 -0.3565 -1.5018  0.6245
 6918TIP3   OH242244   0.857   4.927   3.064  0.0211  0.5961  0.0866
 6918TIP3    H142245   0.771   4.938   3.106 -0.3357  0.0893 -0.4952
 6918TIP3    H242246   0.840   4.868   2.990  0.3928  2.3858 -1.4938
 6919TIP3   OH242247   3.552   4.197  17.512  0.5706 -0.7325 -0.0305
 6919TIP3    H142248   3.601   4.199  17.595  1.0104 -1.1802 -0.2692
 6919TIP3    H242249   3.524   4.105  17.504 -1.6698 -0.2008  0.8605
 6920TIP3   OH242250   1.221   0.866  12.069  0.6760 -0.1040  0.1907
 6920TIP3    H142251   1.233   0.928  11.997 -0.8618 -0.5835 -0.5269
 6920TIP3    H242252   1.309   0.833  12.086  0.9913 -0.6753 -2.1363
 6921TIP3   OH242253   4.543   6.011  16.630 -0.7191  0.0576  0.5107
 6921TIP3    H142254   4.540   6.079  16.563 -0.8866  0.3707  0.8302
 6921TIP3    H242255   4.508   6.054  16.709  1.0067  0.2109  1.2389
 6922TIP3   OH242256   3.820   6.673  12.764  0.0726  0.4872  0.0297
 6922TIP3    H142257   3.853   6.607  12.824  0.9073  0.7232 -0.1456
 6922TIP3    H242258   3.808   6.626  12.681 -0.7131  0.2471  0.2720
 6923TIP3   OH242259   4.831   1.786   3.873  0.0323  1.0634  0.2700
 6923TIP3    H142260   4.881   1.823   3.945 -2.6099  0.4582  2.5977
 6923TIP3    H242261   4.879   1.707   3.847  0.0539  0.1594  2.8065
 6924TIP3   OH242262   4.241   4.369   3.377  0.6221 -0.2323 -0.2303
 6924TIP3    H142263   4.333   4.345   3.369  0.8388  0.3164  0.5664
 6924TIP3    H242264   4.203   4.300   3.430  0.4739 -0.6855 -0.9126
 6925TIP3   OH242265   0.073   1.798   5.587  0.3492  0.4769  0.2285
 6925TIP3    H142266   0.050   1.759   5.503  1.0856  0.0368  0.2224
 6925TIP3    H242267   0.100   1.888   5.566 -0.5158  0.7201  0.1356
 6926TIP3   OH242268   2.427   4.908   5.914  0.3119 -0.0791 -0.8805
 6926TIP3    H142269   2.379   4.826   5.905  0.3946 -0.2916  0.4205
 6926TIP3    H242270   2.518   4.885   5.896  0.3257 -0.2758 -0.5799
 6927TIP3   OH242271   1.976   6.051  12.534  0.1781 -0.0906  0.1054
 6927TIP3    H142272   2.063   6.074  12.502  0.4291  0.2437  0.9895
 6927TIP3    H242273   1.961   5.962  12.503  0.9133 -0.2138  0.0997
 6928TIP3   OH242274   3.967   4.357  11.418  0.5277  0.3125 -0.2002
 6928TIP3    H142275   3.897   4.340  11.354 -0.0290  2.0725 -0.1162
 6928TIP3    H242276   3.990   4.270  11.451  0.7220 -0.6485 -2.6460
 6929TIP3   OH242277   4.047   3.285   0.077 -0.3325  0.2023  0.2188
 6929TIP3    H142278   4.124   3.334   0.104  0.7899 -2.1862  1.6525
 6929TIP3    H242279   3.997   3.346   0.023  1.7651  2.3230  0.5434
 6930TIP3   OH242280   1.765   1.724   2.900  0.3449 -0.2767 -0.2415
 6930TIP3    H142281   1.790   1.739   2.809  1.2616 -1.4803 -0.2083
 6930TIP3    H242282   1.714   1.643   2.898 -0.7711  0.3928  0.1534
 6931TIP3   OH242283   0.831   3.702   6.352 -0.4398  0.3874 -0.1340
 6931TIP3    H142284   0.912   3.726   6.397  0.9211 -0.5361 -1.9713
 6931TIP3    H242285   0.820   3.609   6.371 -1.1002  0.5107  0.1166
 6932TIP3   OH242286   3.443   1.077  14.955 -0.2867  0.0050 -0.5490
 6932TIP3    H142287   3.452   1.132  14.878 -0.1260  0.9390  0.1245
 6932TIP3    H242288   3.394   1.130  15.018  1.2812  0.0296  0.7114
 6933TIP3   OH242289   5.077   4.113  13.951 -0.0945  0.5885  0.2018
 6933TIP3    H142290   5.086   4.207  13.969 -0.1026  0.7727 -0.7044
 6933TIP3    H242291   5.153   4.073  13.993  1.0732  1.2642 -1.1714
 6934TIP3   OH242292   3.109   4.159  13.465 -0.3368 -0.3793 -0.1364
 6934TIP3    H142293   3.149   4.075  13.489 -1.7425 -0.8865  0.5574
 6934TIP3    H242294   3.072   4.143  13.378 -0.5720 -0.4686 -0.0203
 6935TIP3   OH242295   0.786   6.373  15.905 -0.1235  0.7003 -0.1224
 6935TIP3    H142296   0.809   6.280  15.906 -0.6672  0.5661  0.6558
 6935TIP3    H242297   0.729   6.384  15.981  0.4175  1.7883  0.1434
 6936TIP3   OH242298   2.379   6.733   1.804  0.1449  0.5618 -0.0943
 6936TIP3    H142299   2.403   6.683   1.882  0.3324  1.2995  0.3319
 6936TIP3    H242300   2.303   6.785   1.832 -0.3759  0.1369 -0.6847
 6937TIP3   OH242301   2.869   2.687  12.074 -0.3466  0.2294  0.0761
 6937TIP3    H142302   2.912   2.609  12.109  0.7667  0.6155 -0.3853
 6937TIP3    H242303   2.797   2.704  12.134  0.3477 -0.2458  1.0765
 6938TIP3   OH242304   3.500   2.185  10.840  0.4303 -0.2481 -0.0984
 6938TIP3    H142305   3.430   2.129  10.808  0.1403  1.2402 -2.3393
 6938TIP3    H242306   3.581   2.142  10.810  0.3553 -0.7270  0.3767
 6939TIP3   OH242307   4.850   0.639   4.295 -0.2174 -0.3109 -0.4998
 6939TIP3    H142308   4.875   0.730   4.278 -0.6598  0.1544  1.2355
 6939TIP3    H242309   4.871   0.594   4.213 -1.0360  1.5540 -1.8074
 6940TIP3   OH242310   3.894   5.303  15.904 -0.3004  0.0884 -0.7485
 6940TIP3    H142311   3.826   5.366  15.879 -0.5945  0.3271  0.5951
 6940TIP3    H242312   3.972   5.331  15.855 -0.2871  1.8319  0.2013
 6941TIP3   OH242313   2.454   0.864  14.900  0.2558 -0.1584 -0.5636
 6941TIP3    H142314   2.394   0.912  14.844  0.2851  1.8437  1.0091
 6941TIP3    H242315   2.400   0.795  14.939 -0.2255 -0.3353 -1.5159
 6942TIP3   OH242316   1.121   5.169   4.502 -0.1179 -0.0050 -0.0913
 6942TIP3    H142317   1.118   5.189   4.408 -2.1632  1.0251  0.1505
 6942TIP3    H242318   1.079   5.244   4.544  1.0482 -0.2872  1.7144
 6943TIP3   OH242319   0.155   3.597  13.500 -0.5880  0.1799  0.1596
 6943TIP3    H142320   0.102   3.674  13.482  0.8849  0.7075 -2.3530
 6943TIP3    H242321   0.243   3.631  13.514  0.2503 -1.0273 -1.7369
 6944TIP3   OH242322   4.193   3.302   4.925  0.4877 -0.2225 -0.0621
 6944TIP3    H142323   4.194   3.211   4.955 -1.4828  0.1496  1.3453
 6944TIP3    H242324   4.268   3.308   4.865  2.0550 -2.1680  1.5172
 6945TIP3   OH242325   2.607   5.245  11.769  0.0862  0.4186  0.0359
 6945TIP3    H142326   2.518   5.235  11.734 -0.4736  0.4072  1.4098
 6945TIP3    H242327   2.652   5.300  11.705 -0.0146 -1.8983 -2.1904
 6946TIP3   OH242328   4.650   0.851  14.912  0.2141 -0.0769  0.9286
 6946TIP3    H142329   4.619   0.888  14.995 -0.9382  1.2002 -0.0311
 6946TIP3    H242330   4.586   0.784  14.890  0.8146 -0.7973  1.3068
 6947TIP3   OH242331   3.850   2.291   3.033  0.2916 -0.3783  0.2923
 6947TIP3    H142332   3.839   2.203   3.069  1.4221 -1.1042 -1.0281
 6947TIP3    H242333   3.904   2.336   3.097 -0.5822 -0.5251  1.1460
 6948TIP3   OH242334   5.536   0.833  17.361  0.1848  0.2521 -0.6224
 6948TIP3    H142335   5.526   0.752  17.412  1.6532  0.7429  0.5012
 6948TIP3    H242336   5.520   0.903  17.424  0.3964  0.8692 -1.2395
 6949TIP3   OH242337   2.678   2.978  17.410 -0.6355 -0.2529 -0.2608
 6949TIP3    H142338   2.731   2.962  17.332 -0.8600 -0.6812 -0.3313
 6949TIP3    H242339   2.685   2.897  17.461  0.4671  0.4455  0.7504
 6950TIP3   OH242340   1.538   5.524  12.541  0.5742  0.1331 -1.0544
 6950TIP3    H142341   1.509   5.503  12.452  0.7398  0.9662 -1.3130
 6950TIP3    H242342   1.633   5.530  12.535  0.6772 -0.8209 -0.5911
 6951TIP3   OH242343   0.011   4.003   1.980  0.0832  0.1820 -0.3094
 6951TIP3    H142344   0.038   4.026   1.892 -1.2115 -1.0604 -1.0713
 6951TIP3    H242345   0.093   3.987   2.027  0.8136  1.6227 -1.0470
 6952TIP3   OH242346   1.372   2.738   5.973 -0.3879 -0.7312 -0.3835
 6952TIP3    H142347   1.454   2.759   6.018 -0.7997 -1.8067  0.9224
 6952TIP3    H242348   1.400   2.705   5.887  0.4698  0.1669 -0.4714
 6953TIP3   OH242349   6.296   5.255   1.023 -0.6127 -0.3180 -0.5051
 6953TIP3    H142350   6.205   5.233   1.041 -0.0220 -4.1878 -1.3697
 6953TIP3    H242351   6.344   5.174   1.038  2.0606  0.3081 -4.1797
 6954TIP3   OH242352   2.717   5.053  13.069 -0.4650 -0.5678 -0.5244
 6954TIP3    H142353   2.666   5.061  12.988 -1.3544  1.1571  0.1712
 6954TIP3    H242354   2.746   4.961  13.069 -0.1762 -0.5593 -2.9232
 6955TIP3   OH242355   5.193   4.748   6.228  0.6077 -0.3306 -0.2037
 6955TIP3    H142356   5.218   4.747   6.320 -1.6809 -0.4730  0.4920
 6955TIP3    H242357   5.141   4.828   6.218 -0.1683 -0.9094 -1.0403
 6956TIP3   OH242358   3.143   2.463  11.945  0.2932 -0.7210 -0.1886
 6956TIP3    H142359   3.217   2.446  12.003 -0.6509 -3.0260  0.4392
 6956TIP3    H242360   3.069   2.476  12.005  0.0819  1.2288 -0.8160
 6957TIP3   OH242361   0.533   4.312  12.886  0.4417  0.2039 -0.1346
 6957TIP3    H142362   0.477   4.236  12.869  1.1903 -0.1490 -1.0820
 6957TIP3    H242363   0.599   4.310  12.817  1.1724  1.0607  0.5092
 6958TIP3   OH242364   5.025   2.589   6.004  0.0255 -0.1294  0.4862
 6958TIP3    H142365   4.993   2.678   5.988  0.3093 -0.1871 -0.5032
 6958TIP3    H242366   4.997   2.540   5.927  1.9555 -0.3138 -0.1407
 6959TIP3   OH242367   3.053   4.860   6.498  0.2065 -0.6640  0.2631
 6959TIP3    H142368   3.047   4.914   6.577 -0.7875 -0.2823 -0.0550
 6959TIP3    H242369   3.141   4.822   6.501 -0.5366 -2.4139  2.6863
 6960TIP3   OH242370   3.214   4.188   5.872 -0.3066 -0.1958 -0.1311
 6960TIP3    H142371   3.147   4.208   5.937 -0.6810 -0.2470 -0.4924
 6960TIP3    H242372   3.210   4.262   5.811 -1.7218 -1.3341 -1.4981
 6961TIP3   OH242373   5.182   6.299  12.341  0.3787 -0.2455 -0.6404
 6961TIP3    H142374   5.180   6.369  12.276 -0.8899 -0.6515 -1.0770
 6961TIP3    H242375   5.211   6.341  12.421 -1.1198  0.9585 -0.6990
 6962TIP3   OH242376   3.899   3.470  17.462  0.5704 -0.2473 -0.8263
 6962TIP3    H142377   3.832   3.520  17.415  0.7287  0.9304  0.1345
 6962TIP3    H242378   3.948   3.537  17.511 -0.7931 -1.4930  2.5445
 6963TIP3   OH242379   6.634   6.376  14.289 -0.7580 -0.3200  0.1363
 6963TIP3    H142380   6.694   6.304  14.308 -0.8010 -1.3105 -2.9476
 6963TIP3    H242381   6.641   6.389  14.195 -2.0713  2.5889  0.3295
 6964TIP3   OH242382   5.738   6.693  10.979 -0.3137 -0.1458 -0.2313
 6964TIP3    H142383   5.679   6.738  10.919  0.6035  0.7907 -0.4660
 6964TIP3    H242384   5.684   6.670  11.054 -1.0181  0.5213 -0.5262
 6965TIP3   OH242385   6.559   5.133   4.327 -0.3918 -0.2829 -0.1172
 6965TIP3    H142386   6.497   5.174   4.268  0.7674  1.2135 -0.3574
 6965TIP3    H242387   6.643   5.137   4.281  0.0765 -1.4142  0.5762
 6966TIP3   OH242388   0.647   3.587  14.728  0.0230 -0.1611  0.2830
 6966TIP3    H142389   0.692   3.530  14.665 -0.4438 -0.8732  0.5796
 6966TIP3    H242390   0.714   3.648  14.757  0.9598 -1.5154  1.0812
 6967TIP3   OH242391   3.070   6.592   0.049 -0.0791 -0.2227 -0.2796
 6967TIP3    H142392   3.062   6.662  -0.016 -1.1089 -0.4357 -0.3904
 6967TIP3    H242393   2.982   6.557   0.059  0.3298 -1.1868  0.1404
 6968TIP3   OH242394   1.492   2.423  13.585  0.4190  0.1035 -0.0155
 6968TIP3    H142395   1.473   2.415  13.679  0.7136  3.3270  0.4534
 6968TIP3    H242396   1.578   2.382  13.575  1.1530  1.1406  1.5176
 6969TIP3   OH242397   1.846   3.366   2.298 -0.1832 -0.8449  0.6608
 6969TIP3    H142398   1.791   3.341   2.372  0.0803  0.4996  1.3359
 6969TIP3    H242399   1.786   3.375   2.224 -0.6859 -0.5823  1.0986
 6970TIP3   OH242400   0.159   6.323   3.546 -0.1747  0.5603  0.3434
 6970TIP3    H142401   0.239   6.364   3.513 -0.8704  2.7413  1.2420
 6970TIP3    H242402   0.180   6.298   3.636 -0.1643  0.0595  0.2076
 6971TIP3   OH242403   5.721   4.918   2.886  0.0340  0.7335  0.4014
 6971TIP3    H142404   5.735   4.998   2.937  3.3429 -0.2898  1.3544
 6971TIP3    H242405   5.803   4.869   2.897 -0.6097 -1.3027 -2.8427
 6972TIP3   OH242406   2.599   6.394  12.616 -0.1165  0.0706  0.5658
 6972TIP3    H142407   2.607   6.463  12.551  0.2124  0.1810  0.7258
 6972TIP3    H242408   2.518   6.348  12.591  0.2841 -0.2191 -0.2412
 6973TIP3   OH242409   2.041   3.586  14.170 -0.2727 -0.2172  0.1264
 6973TIP3    H142410   2.098   3.638  14.115  0.3189 -2.1053 -1.1605
 6973TIP3    H242411   1.952   3.610  14.143  0.0016 -1.1558 -1.8048
 6974TIP3   OH242412   6.246   5.741   0.893  0.2702  0.1434 -0.5109
 6974TIP3    H142413   6.171   5.798   0.910  1.0531  1.8624 -2.3720
 6974TIP3    H242414   6.247   5.731   0.798  0.6703 -2.3602 -0.3094
 6975TIP3   OH242415   1.963   3.053   6.069 -0.4818  0.3211  0.6683
 6975TIP3    H142416   2.050   3.055   6.030 -0.2311 -0.3026  1.1912
 6975TIP3    H242417   1.975   3.085   6.158 -1.2003  2.6076  0.0310
 6976TIP3   OH242418   6.535   1.489  16.598 -0.9200  0.2008 -0.0090
 6976TIP3    H142419   6.468   1.511  16.662 -0.5780  1.3803 -0.0398
 6976TIP3    H242420   6.487   1.456  16.522 -1.3304 -1.1293  0.8047
 6977TIP3   OH242421   0.675   3.969   4.360 -0.3397 -0.1404  0.4815
 6977TIP3    H142422   0.649   3.877   4.370 -0.6648 -0.1558 -0.3369
 6977TIP3    H242423   0.611   4.004   4.297  0.3349  0.4028  0.0923
 6978TIP3   OH242424   3.965   5.028  16.267 -0.0869  0.0856 -0.0067
 6978TIP3    H142425   4.020   4.992  16.197 -0.4272  0.4467 -0.4632
 6978TIP3    H242426   3.914   4.953  16.298 -0.1917  0.0001 -0.3886
 6979TIP3   OH242427   3.272   6.766  12.767  0.3087 -0.2859  0.2750
 6979TIP3    H142428   3.196   6.725  12.808 -0.1552 -0.3898 -0.6602
 6979TIP3    H242429   3.290   6.711  12.691  1.2525 -0.1863  0.4184
 6980TIP3   OH242430   2.885   4.640  11.764 -0.2982 -0.5496  0.2293
 6980TIP3    H142431   2.840   4.723  11.777 -0.6224 -0.9665  1.8674
 6980TIP3    H242432   2.824   4.587  11.712 -1.0302 -0.5476  1.0773
 6981TIP3   OH242433   2.346   4.828   3.092 -0.3165 -0.6032  0.6140
 6981TIP3    H142434   2.354   4.879   3.011  0.3258 -0.9481  0.4568
 6981TIP3    H242435   2.294   4.884   3.150 -1.2562 -0.5784 -0.2185
 6982TIP3   OH242436   3.637   5.160  13.650  0.5534  0.0895  0.4077
 6982TIP3    H142437   3.657   5.219  13.723  0.8139 -1.2036  1.4129
 6982TIP3    H242438   3.712   5.168  13.591  1.2844 -0.3151  1.2595
 6983TIP3   OH242439   1.825   0.677  15.530 -0.3418 -0.1512 -0.1836
 6983TIP3    H142440   1.836   0.742  15.599 -2.1038 -0.7375  0.6948
 6983TIP3    H242441   1.760   0.715  15.471 -1.6479 -1.1981  0.5168
 6984TIP3   OH242442   6.401   3.691  14.107  0.6513 -0.0144 -0.1941
 6984TIP3    H142443   6.396   3.673  14.013  1.3598  1.8578 -0.6406
 6984TIP3    H242444   6.434   3.610  14.146 -1.5385 -1.5262 -1.2528
 6985TIP3   OH242445   6.506   5.038  13.962  0.2056 -0.2371  0.3900
 6985TIP3    H142446   6.480   5.043  14.054  3.0762 -2.2318  1.4462
 6985TIP3    H242447   6.473   5.119  13.923 -1.5444  0.4320  3.0184
 6986TIP3   OH242448   4.468   2.824   2.133 -0.2372 -1.1978  0.4454
 6986TIP3    H142449   4.478   2.775   2.214 -2.3310  2.3817  3.1872
 6986TIP3    H242450   4.465   2.916   2.161 -1.1103  0.2541 -3.6960
 6987TIP3   OH242451   4.781   0.622   0.032  0.2773  0.0102  0.0840
 6987TIP3    H142452   4.692   0.611  -0.001  0.6904  1.0275 -1.4599
 6987TIP3    H242453   4.791   0.716   0.042  1.4629 -0.0377 -0.5704
 6988TIP3   OH242454   1.586   5.561  15.675  0.1011  0.2397  0.0181
 6988TIP3    H142455   1.531   5.568  15.597  0.0280 -1.7896 -0.1681
 6988TIP3    H242456   1.673   5.541  15.642  0.2788  0.3576  0.4111
 6989TIP3   OH242457   3.157   4.558  11.413  0.4185  0.5553  0.0479
 6989TIP3    H142458   3.153   4.536  11.506  0.4308  0.3229 -0.0069
 6989TIP3    H242459   3.249   4.547  11.390  0.5021  1.0664  0.1174
 6990TIP3   OH242460   6.443   2.306   2.665 -0.4276  0.1577 -0.1658
 6990TIP3    H142461   6.533   2.275   2.678  0.0047  1.1163 -0.7546
 6990TIP3    H242462   6.404   2.243   2.605  0.0962  0.1327 -0.4884
 6991TIP3   OH242463   1.802   3.739   0.145 -0.6310  0.2161  0.7461
 6991TIP3    H142464   1.882   3.774   0.183  0.8267 -1.3418 -0.7507
 6991TIP3    H242465   1.748   3.816   0.127  1.6808  1.5637 -0.7951
 6992TIP3   OH242466   0.458   1.855   0.960  0.1752  0.0331 -0.1684
 6992TIP3    H142467   0.437   1.830   0.870 -1.0084 -0.7561  0.2964
 6992TIP3    H242468   0.454   1.950   0.961 -2.1565  0.0027 -0.4599
 6993TIP3   OH242469   0.123   2.349  13.914 -0.0708  0.2091  0.3707
 6993TIP3    H142470   0.185   2.280  13.891 -0.0453  0.2588  0.2899
 6993TIP3    H242471   0.133   2.415  13.845  0.2927  0.5484  0.7483
 6994TIP3   OH242472   1.975   1.984   3.014  0.2165 -0.3802  0.0598
 6994TIP3    H142473   1.996   1.891   3.029  2.0274  0.0144  0.1863
 6994TIP3    H242474   2.056   2.030   3.035 -1.0640  1.3995  1.4181
 6995TIP3   OH242475   1.493   6.204  11.727 -0.4616  0.2108  0.1109
 6995TIP3    H142476   1.424   6.267  11.704  0.0099  0.4851 -0.5707
 6995TIP3    H242477   1.553   6.206  11.652  0.4602  0.2239  0.8335
 6996TIP3   OH242478   3.623   1.900   3.994  0.1832 -0.3613  0.3804
 6996TIP3    H142479   3.666   1.828   4.040 -2.3953  0.0774  3.8966
 6996TIP3    H242480   3.656   1.979   4.035 -0.2294  0.2210 -0.3791
 6997TIP3   OH242481   0.582   3.466   4.948 -0.2797  0.1030  0.2979
 6997TIP3    H142482   0.624   3.406   5.009  2.1649  0.1036 -1.2779
 6997TIP3    H242483   0.635   3.546   4.952 -0.1825  0.1723 -1.6466
 6998TIP3   OH242484   1.753   1.573  17.358  0.1769 -0.0598 -0.4694
 6998TIP3    H142485   1.762   1.479  17.343 -1.0972 -0.7009  2.1417
 6998TIP3    H242486   1.663   1.584  17.388  0.2821  2.0117 -0.7609
 6999TIP3   OH242487   0.019   4.734   2.080 -0.2383 -0.0751 -0.1149
 6999TIP3    H142488  -0.008   4.653   2.035 -0.3847 -1.3282  2.1056
 6999TIP3    H242489   0.029   4.708   2.171 -0.9277  2.5863  0.7890
 7000TIP3   OH242490   6.703   1.500   3.852 -0.9106 -0.6342 -0.0974
 7000TIP3    H142491   6.723   1.584   3.893  2.6331 -0.8462 -1.0531
 7000TIP3    H242492   6.699   1.518   3.758  2.9363 -1.7320 -0.6807
 7001TIP3   OH242493   4.676   5.546   4.998  0.5031  0.3262 -0.2564
 7001TIP3    H142494   4.709   5.604   4.930  1.5989 -0.8806 -0.8046
 7001TIP3    H242495   4.742   5.477   5.004 -0.1041 -0.1572  1.2944
 7002TIP3   OH242496   1.761   4.173  14.691  0.2441 -0.1500  0.6958
 7002TIP3    H142497   1.775   4.259  14.652 -1.8550 -0.2693 -0.4779
 7002TIP3    H242498   1.828   4.118  14.650  0.3362  0.5128 -0.0840
 7003TIP3   OH242499   6.280   1.535  16.727  0.9817  0.3325 -0.1929
 7003TIP3    H142500   6.225   1.551  16.651  1.3464 -0.1506 -0.5687
 7003TIP3    H242501   6.234   1.468  16.777  1.0770  0.1506 -0.3486
 7004TIP3   OH242502   5.007   1.508   2.418  0.2766 -0.2382  0.3125
 7004TIP3    H142503   5.077   1.569   2.441  0.0495 -0.7428  2.5816
 7004TIP3    H242504   5.049   1.445   2.359  1.1268  0.7175 -0.1485
 7005TIP3   OH242505   0.326   3.139   5.214  0.1118 -0.4110  0.0917
 7005TIP3    H142506   0.246   3.185   5.189 -0.0478 -0.0760  1.1702
 7005TIP3    H242507   0.311   3.048   5.188 -1.0352 -0.5543  1.1825
 7006TIP3   OH242508   0.262   4.452   3.679 -0.1015  0.5759 -0.5224
 7006TIP3    H142509   0.180   4.483   3.640 -1.7308 -2.8733 -0.2373
 7006TIP3    H242510   0.315   4.423   3.604 -1.5777 -2.3178 -0.5996
 7007TIP3   OH242511   5.086   1.831  14.128  0.1288  0.2297 -0.2051
 7007TIP3    H142512   5.029   1.756  14.146  1.8430 -1.1564 -0.1655
 7007TIP3    H242513   5.171   1.804  14.164  0.8886  2.0585 -0.5406
 7008TIP3   OH242514   6.475   6.451   5.417  0.5023 -0.2512  0.1871
 7008TIP3    H142515   6.438   6.498   5.492 -0.5341 -1.4630  0.4819
 7008TIP3    H242516   6.569   6.453   5.432  0.5472  2.1094 -0.0886
 7009TIP3   OH242517   3.109   2.040   6.753 -0.3696  0.4596  0.2178
 7009TIP3    H142518   3.077   2.025   6.664  0.2339  0.2131  0.0344
 7009TIP3    H242519   3.033   2.071   6.801 -0.4641  1.6312 -0.6487
 7010TIP3   OH242520   1.456   5.997   6.788 -0.1965 -0.3262 -0.0202
 7010TIP3    H142521   1.454   6.085   6.749  1.3400  0.3785  1.3844
 7010TIP3    H242522   1.363   5.974   6.798 -0.6298  0.9667 -0.8003
 7011TIP3   OH242523   4.862   1.381  11.775  0.2126  0.1124  0.5782
 7011TIP3    H142524   4.899   1.293  11.780 -1.8403 -1.0164 -1.9772
 7011TIP3    H242525   4.768   1.368  11.762 -0.3519  2.7426  1.2139
 7012TIP3   OH242526   6.216   4.166   3.366  0.3015  0.0378  0.1351
 7012TIP3    H142527   6.261   4.097   3.414  0.3279 -0.5088 -0.6634
 7012TIP3    H242528   6.283   4.233   3.352  0.6872 -0.4520 -0.4158
 7013TIP3   OH242529   1.349   1.374  13.457 -0.0929  0.0879  0.3292
 7013TIP3    H142530   1.411   1.359  13.386 -2.1311  0.1925 -1.5973
 7013TIP3    H242531   1.326   1.287  13.489  0.2827 -0.0018  0.3521
 7014TIP3   OH242532   5.576   5.766  14.516 -0.2359 -0.1579 -0.3015
 7014TIP3    H142533   5.595   5.698  14.581  0.6763 -0.3003 -0.7025
 7014TIP3    H242534   5.588   5.848  14.564 -0.5649 -0.2686 -0.0242
 7015TIP3   OH242535   4.401   4.305  11.141  0.3023  0.5428 -0.3150
 7015TIP3    H142536   4.343   4.248  11.090  1.0674 -0.3945 -0.1703
 7015TIP3    H242537   4.487   4.264  11.134  0.6614  1.0826  0.6930
 7016TIP3   OH242538   5.304   2.656  16.459 -0.0700  1.0325  0.3654
 7016TIP3    H142539   5.274   2.627  16.546  0.6186  4.6911  1.9876
 7016TIP3    H242540   5.228   2.646  16.403 -1.4385  1.2514  2.1014
 7017TIP3   OH242541   4.666   6.701  14.590  0.4462 -0.5994  0.4593
 7017TIP3    H142542   4.628   6.789  14.583  3.8120  0.8669 -1.2579
 7017TIP3    H242543   4.665   6.683  14.684 -2.0348  0.3437  0.7129
 7018TIP3   OH242544   1.162   4.802  14.592  0.0860  0.0289  0.3476
 7018TIP3    H142545   1.107   4.862  14.541 -0.3183 -0.1914  0.5248
 7018TIP3    H242546   1.158   4.719  14.544  0.2893  0.0198  0.3452
 7019TIP3   OH242547   3.767   2.226   1.478  0.7201  0.0929  0.4633
 7019TIP3    H142548   3.685   2.261   1.512  0.2642  0.0038 -0.5182
 7019TIP3    H242549   3.799   2.294   1.419 -0.0502 -0.9968 -1.2820
 7020TIP3   OH242550   6.498   5.604   0.408  0.0635  0.1680  0.1213
 7020TIP3    H142551   6.505   5.694   0.375  1.5926  0.5528  1.3944
 7020TIP3    H242552   6.461   5.555   0.334  2.1586  1.2225 -1.7668
 7021TIP3   OH242553   0.882   0.953   1.647  0.2783 -0.5723 -0.3386
 7021TIP3    H142554   0.902   0.989   1.734 -0.6276 -1.0011  0.0660
 7021TIP3    H242555   0.910   0.862   1.652  0.1231 -0.6274 -0.4544
 7022TIP3   OH242556   3.084   2.638   0.136 -0.2062 -0.9459  0.1826
 7022TIP3    H142557   3.142   2.569   0.168 -0.7060 -1.5026 -0.0912
 7022TIP3    H242558   3.123   2.666   0.054  0.7366  0.0500  0.9460
 7023TIP3   OH242559   1.573   2.584  11.662  0.1525 -0.0682  0.0817
 7023TIP3    H142560   1.574   2.531  11.742  0.0304  0.5189  0.4792
 7023TIP3    H242561   1.662   2.580  11.629 -0.6787 -4.2263 -2.4108
 7024TIP3   OH242562   2.636   5.879  17.078  0.7225 -1.0493  0.2519
 7024TIP3    H142563   2.630   5.794  17.035  0.4398 -0.1439 -1.6287
 7024TIP3    H242564   2.625   5.860  17.171 -0.8833 -2.8991 -0.2430
 7025TIP3   OH242565   3.242   2.440  13.353  0.5403  0.7719  0.3224
 7025TIP3    H142566   3.181   2.452  13.281 -0.6595 -0.5962  1.0615
 7025TIP3    H242567   3.261   2.529  13.384 -1.9622  1.2090  0.7728
 7026TIP3   OH242568   0.317   4.313   0.049  0.0287  0.4534  0.1593
 7026TIP3    H142569   0.239   4.268   0.079 -0.8349  1.2304 -0.8277
 7026TIP3    H242570   0.377   4.243   0.022 -1.4049 -0.1475 -1.6697
 7027TIP3   OH242571   2.216   1.429   4.851 -0.0807  0.5357 -0.1056
 7027TIP3    H142572   2.205   1.415   4.757 -0.7662  1.2523 -0.1511
 7027TIP3    H242573   2.266   1.511   4.857  1.2260 -0.2548  0.1570
 7028TIP3   OH242574   2.866   2.109  15.493 -0.3756 -0.0753 -0.1054
 7028TIP3    H142575   2.819   2.053  15.432  0.5661 -1.4055  0.3478
 7028TIP3    H242576   2.860   2.064  15.577  0.5094  0.4334  0.2501
 7029TIP3   OH242577   3.213   5.560   0.673 -0.0834  0.2376  0.5348
 7029TIP3    H142578   3.272   5.485   0.662 -1.1243 -0.8216  1.7931
 7029TIP3    H242579   3.190   5.586   0.584 -1.3354 -2.3053  0.0326
 7030TIP3   OH242580   0.053   5.620   2.336 -0.2872 -0.2700 -0.8401
 7030TIP3    H142581   0.050   5.543   2.393 -0.2325 -0.4187 -1.0364
 7030TIP3    H242582  -0.030   5.616   2.287 -0.6967  0.2964 -0.2016
 7031TIP3   OH242583   4.372   1.924  11.262 -0.2662 -0.6320  0.3529
 7031TIP3    H142584   4.351   1.838  11.297 -1.0959 -0.5737  0.0230
 7031TIP3    H242585   4.316   1.984  11.310 -1.4640 -0.5602 -1.0751
 7032TIP3   OH242586   5.962   6.735   1.341 -0.1157 -0.3039 -0.0168
 7032TIP3    H142587   5.947   6.710   1.433 -1.7392 -0.7070 -0.3605
 7032TIP3    H242588   6.019   6.812   1.346  0.4493 -0.7791  1.2892
 7033TIP3   OH242589   2.697   3.072   0.950 -0.0130  0.0091 -0.8855
 7033TIP3    H142590   2.699   3.100   1.042  0.1784  0.4886 -1.0316
 7033TIP3    H242591   2.658   3.146   0.903  0.5994  0.0831 -1.2909
 7034TIP3   OH242592   4.835   1.933   4.912 -0.3192 -0.1580 -0.5329
 7034TIP3    H142593   4.842   1.927   4.817  1.1703  2.1491 -0.6486
 7034TIP3    H242594   4.750   1.973   4.928  0.5943  2.1643 -1.1312
 7035TIP3   OH242595   2.994   4.276   4.327  0.4812  0.0626  0.2484
 7035TIP3    H142596   2.955   4.197   4.365  0.2417  0.5596  1.0696
 7035TIP3    H242597   2.977   4.344   4.392  0.9287  0.7315 -0.3246
 7036TIP3   OH242598   1.616   3.958  17.440 -0.1086  0.0008 -0.0040
 7036TIP3    H142599   1.553   4.019  17.401 -1.3661  0.3535  2.3574
 7036TIP3    H242600   1.688   4.014  17.470  0.0499 -0.0532 -0.2787
 7037TIP3   OH242601   4.021   1.066   3.395 -0.3198 -0.6008  0.3809
 7037TIP3    H142602   4.092   1.013   3.360  0.6302 -0.1799  1.5856
 7037TIP3    H242603   4.033   1.062   3.490  0.4043  2.4941  0.5387
 7038TIP3   OH242604   2.767   5.938   3.313 -0.2207  0.1656 -0.3428
 7038TIP3    H142605   2.751   5.845   3.294  1.3617 -0.5627  1.5400
 7038TIP3    H242606   2.799   5.974   3.231 -2.0307 -0.6176 -1.4580
 7039TIP3   OH242607   1.047   4.392  11.943 -0.3898 -0.0230  0.1850
 7039TIP3    H142608   1.120   4.392  12.004 -0.5342  1.1094  0.3728
 7039TIP3    H242609   1.024   4.484  11.933 -1.3852 -0.3193 -0.3599
 7040TIP3   OH242610   6.668   3.284  14.449  0.8641  0.5441 -0.5998
 7040TIP3    H142611   6.710   3.345  14.509  1.5725 -0.3577 -0.1479
 7040TIP3    H242612   6.602   3.240  14.502  0.0711  1.1999 -1.0301
 7041TIP3   OH242613   5.741   3.151  12.708 -0.4973  0.4558 -0.3196
 7041TIP3    H142614   5.664   3.170  12.762 -1.3543 -0.2995 -1.2403
 7041TIP3    H242615   5.707   3.143  12.619  0.7151  0.5211 -0.8006
 7042TIP3   OH242616   0.378   0.687  16.907 -0.2195 -0.5905  0.1150
 7042TIP3    H142617   0.430   0.738  16.969  2.5321 -2.8942 -0.0939
 7042TIP3    H242618   0.320   0.634  16.962 -0.0382 -0.3507  0.5427
 7043TIP3   OH242619   4.148   1.460  12.994 -0.4909  0.2849 -0.0560
 7043TIP3    H142620   4.201   1.395  13.039 -0.4147 -1.1414 -2.0759
 7043TIP3    H242621   4.058   1.442  13.024 -0.3426 -0.0060  0.2243
 7044TIP3   OH242622   2.550   3.416   4.905  0.3191  0.5974  0.2235
 7044TIP3    H142623   2.471   3.468   4.893  0.1623 -0.0468 -2.3534
 7044TIP3    H242624   2.528   3.330   4.868  2.1312  0.3406 -0.4076
 7045TIP3   OH242625   0.559   4.185  16.780 -0.1100  0.2426 -0.2521
 7045TIP3    H142626   0.475   4.232  16.776  0.2094  0.8615  0.1523
 7045TIP3    H242627   0.615   4.231  16.719 -0.7206 -1.5878 -2.3108
 7046TIP3   OH242628   6.772   4.716   2.385  0.2188 -0.1638  0.0418
 7046TIP3    H142629   6.856   4.761   2.371  0.5924 -0.6196  0.7666
 7046TIP3    H242630   6.751   4.734   2.477 -0.2456 -0.4495 -0.0091
 7047TIP3   OH242631   4.802   2.284  13.232  0.3081  0.1081 -0.2435
 7047TIP3    H142632   4.855   2.233  13.294  0.2019 -0.9062 -0.9706
 7047TIP3    H242633   4.792   2.370  13.275  1.3745 -0.1253  0.5220
 7048TIP3   OH242634   4.121   6.629   0.837  0.2203 -0.3501  0.3097
 7048TIP3    H142635   4.115   6.649   0.931  1.6903 -0.4644  0.4556
 7048TIP3    H242636   4.035   6.652   0.802  0.2511  1.5745  1.3401
 7049TIP3   OH242637   5.365   3.285   5.595  0.6802  0.4703 -0.2276
 7049TIP3    H142638   5.389   3.373   5.565  1.6744 -0.2083 -1.5364
 7049TIP3    H242639   5.435   3.260   5.655 -0.4249  1.1516  1.4213
 7050TIP3   OH242640   5.310   5.250   5.118  1.0267  0.3710  0.7666
 7050TIP3    H142641   5.284   5.342   5.120 -0.2059  0.0349  1.5812
 7050TIP3    H242642   5.284   5.216   5.204  4.4074 -0.0049  1.7891
 7051TIP3   OH242643   1.943   3.859   4.756  0.0262 -0.0594 -0.2316
 7051TIP3    H142644   1.872   3.893   4.702 -1.2974 -1.9411  0.2078
 7051TIP3    H242645   2.005   3.821   4.694 -2.4420 -4.0453 -0.6001
 7052TIP3   OH242646   6.661   2.761   5.783  0.3165  0.2490 -0.5692
 7052TIP3    H142647   6.616   2.820   5.844 -0.0911 -0.6719  0.0484
 7052TIP3    H242648   6.753   2.764   5.809  0.2293  0.2940 -0.2610
 7053TIP3   OH242649   2.462   5.006  17.292  0.4695 -0.3184 -0.0425
 7053TIP3    H142650   2.371   5.024  17.316  0.5999  1.0192 -0.4232
 7053TIP3    H242651   2.511   5.017  17.374  0.3603 -0.4610  0.0418
 7054TIP3   OH242652   4.350   2.669   5.391  0.0083  0.8800  0.1820
 7054TIP3    H142653   4.375   2.748   5.438 -1.3014  1.2018  0.3857
 7054TIP3    H242654   4.360   2.598   5.454 -1.4270  1.2667  0.8820
 7055TIP3   OH242655   4.177   1.565   4.673  0.4607  0.2582 -0.1676
 7055TIP3    H142656   4.086   1.536   4.674  1.1426 -2.1417  1.1922
 7055TIP3    H242657   4.181   1.635   4.739 -0.4761  0.7074 -0.5836
 7056TIP3   OH242658   1.462   1.215   5.171  0.1910  0.6295 -0.2677
 7056TIP3    H142659   1.416   1.287   5.127 -1.4130 -0.8341 -1.1236
 7056TIP3    H242660   1.550   1.218   5.134 -0.4855  0.8114 -1.9705
 7057TIP3   OH242661   1.723   0.877  13.202 -0.6280  1.2684 -0.3044
 7057TIP3    H142662   1.768   0.818  13.140  0.4625  0.4379  1.2036
 7057TIP3    H242663   1.793   0.910  13.258 -1.9158 -0.7734  2.7391
 7058TIP3   OH242664   2.763   6.290  16.803 -0.3547 -0.7463  0.3809
 7058TIP3    H142665   2.811   6.212  16.775 -1.9877 -1.6287 -0.0962
 7058TIP3    H242666   2.831   6.356  16.816  0.8308 -1.3291 -2.1757
 7059TIP3   OH242667   3.415   6.248  17.194 -0.9667 -0.2203  0.3079
 7059TIP3    H142668   3.480   6.292  17.140  0.9541 -2.4218  0.6410
 7059TIP3    H242669   3.407   6.303  17.272 -1.6106  1.4838 -0.8931
 7060TIP3   OH242670   0.716   2.193  12.499  0.1334 -0.1977  0.3332
 7060TIP3    H142671   0.667   2.223  12.576  3.2429 -1.9540  3.2802
 7060TIP3    H242672   0.688   2.102  12.487 -0.1711 -0.0005 -0.5394
 7061TIP3   OH242673   6.050   3.781  14.007 -0.5005 -0.4659  0.4442
 7061TIP3    H142674   5.996   3.706  14.031  1.3018 -1.4232  1.7083
 7061TIP3    H242675   6.077   3.764  13.917 -0.4622 -1.1007  0.5750
 7062TIP3   OH242676   6.673   0.514  15.977  0.3288  0.4272  0.1655
 7062TIP3    H142677   6.642   0.495  16.065  0.8495  1.8100  0.6557
 7062TIP3    H242678   6.765   0.490  15.978  0.2681  0.1701 -0.1008
 7063TIP3   OH242679   1.166   0.794   1.392 -0.1735 -0.0012 -0.0736
 7063TIP3    H142680   1.252   0.824   1.422 -0.5041 -0.0374  0.9270
 7063TIP3    H242681   1.161   0.825   1.301  1.2358 -0.7146 -0.4284
 7064TIP3   OH242682   6.686   1.829   4.661  0.0175  0.1215  0.3507
 7064TIP3    H142683   6.600   1.872   4.650  1.2870  3.1353  1.0745
 7064TIP3    H242684   6.685   1.796   4.750 -0.4270  0.0108  0.3107
 7065TIP3   OH242685   0.641   0.979  13.449  0.0498  0.2473 -0.2800
 7065TIP3    H142686   0.719   0.973  13.394 -0.6330 -1.1713 -1.1548
 7065TIP3    H242687   0.607   1.067  13.432  1.6751  1.0579  0.4709
 7066TIP3   OH242688   3.053   2.722  15.195 -0.5481 -0.3580 -0.0061
 7066TIP3    H142689   3.074   2.685  15.281 -1.9059 -0.4656  0.2974
 7066TIP3    H242690   2.993   2.659  15.156  0.2838 -0.4511 -1.1786
 7067TIP3   OH242691   0.714   2.812   1.948  0.4333  0.4268 -0.2153
 7067TIP3    H142692   0.743   2.896   1.913 -1.0829  1.1040  0.1071
 7067TIP3    H242693   0.775   2.793   2.019 -0.1979  2.0819  0.8057
 7068TIP3   OH242694   5.821   1.325  16.303  0.3491 -0.3632 -0.7880
 7068TIP3    H142695   5.905   1.294  16.269  0.1171 -0.2257 -1.5220
 7068TIP3    H242696   5.782   1.249  16.347  1.7395  0.0961  1.3841
 7069TIP3   OH242697   1.479   3.010  13.843  0.0036  0.0600  0.7300
 7069TIP3    H142698   1.438   2.997  13.758 -0.6021  0.7112  0.9085
 7069TIP3    H242699   1.572   2.997  13.828 -0.0805  0.3785 -0.0791
 7070TIP3   OH242700   3.491   6.228   4.921  0.2489 -0.0776 -0.3363
 7070TIP3    H142701   3.546   6.306   4.911  0.3063  0.3217  2.3693
 7070TIP3    H242702   3.546   6.166   4.967 -0.6712 -0.7463 -0.1144
 7071TIP3   OH242703   5.171   2.608   4.602  0.1610  0.0562 -0.4378
 7071TIP3    H142704   5.101   2.671   4.615  0.1530 -0.0871  0.2485
 7071TIP3    H242705   5.240   2.658   4.557 -0.4247  0.1568 -1.2434
 7072TIP3   OH242706   6.592   2.999   0.527 -0.1618 -0.6265 -0.0095
 7072TIP3    H142707   6.586   3.060   0.600 -0.8626 -0.6362 -0.0496
 7072TIP3    H242708   6.534   3.035   0.460 -2.2218 -2.3242  0.7179
 7073TIP3   OH242709   0.334   4.251  14.978 -0.1041  0.2186  0.4360
 7073TIP3    H142710   0.288   4.172  14.949 -0.4924  0.6427 -0.1302
 7073TIP3    H242711   0.424   4.239  14.947 -0.1602 -0.0027  0.3575
 7074TIP3   OH242712   2.961   1.488   5.162  0.4716 -0.1077  0.1674
 7074TIP3    H142713   3.009   1.567   5.134 -0.1139  1.3913  3.0256
 7074TIP3    H242714   3.013   1.454   5.235 -1.3427  0.0203  1.5885
 7075TIP3   OH242715   4.923   2.908   1.563 -0.0357  0.3200  0.6294
 7075TIP3    H142716   5.000   2.958   1.535  0.7332 -1.3052 -0.2492
 7075TIP3    H242717   4.902   2.945   1.649  0.8247  1.7825  0.2569
 7076TIP3   OH242718   4.775   1.717   2.152  0.5463  0.7233  0.0509
 7076TIP3    H142719   4.804   1.708   2.062  0.2376  1.2233 -0.1014
 7076TIP3    H242720   4.775   1.811   2.168  0.4293  0.6478  0.5147
 7077TIP3   OH242721   3.154   2.107  11.816  0.5733  0.2000 -0.6076
 7077TIP3    H142722   3.066   2.146  11.821  1.0532  1.4173 -1.2010
 7077TIP3    H242723   3.199   2.158  11.748  1.0671 -1.8083 -1.8699
 7078TIP3   OH242724   2.057   2.271  11.307  0.0679  0.2218  0.0976
 7078TIP3    H142725   2.108   2.326  11.248 -0.0492  0.4162  0.1729
 7078TIP3    H242726   2.123   2.225  11.360  0.1800  1.2883  0.9402
 7079TIP3   OH242727   3.677   6.113  11.420  0.2287  0.1369 -0.2243
 7079TIP3    H142728   3.703   6.038  11.366  3.6842  0.5507  0.6231
 7079TIP3    H242729   3.671   6.078  11.509  0.2067  0.5344 -0.0673
 7080TIP3   OH242730   1.132   5.206  13.214  0.3970 -0.4985 -0.0257
 7080TIP3    H142731   1.140   5.128  13.269 -0.3922 -0.1638  0.5722
 7080TIP3    H242732   1.145   5.173  13.125  1.0596 -1.1465  0.2937
 7081TIP3   OH242733   2.021   6.513   2.828  0.7061 -1.0747 -0.4792
 7081TIP3    H142734   2.107   6.520   2.786  1.3391 -1.3756  0.7388
 7081TIP3    H242735   2.033   6.448   2.898 -0.4844 -1.0355 -0.2170
 7082TIP3   OH242736   0.277   4.239  16.471  0.6223  0.2951  0.5582
 7082TIP3    H142737   0.257   4.242  16.565 -0.1983  2.0735  0.3593
 7082TIP3    H242738   0.282   4.331  16.444 -1.8192 -0.1148 -1.6766
 7083TIP3   OH242739   5.206   4.747   1.581 -0.3353 -0.2586  0.0189
 7083TIP3    H142740   5.265   4.805   1.631 -0.4485  0.9963 -1.2397
 7083TIP3    H242741   5.255   4.665   1.573  0.2825 -0.0063  0.9355
 7084TIP3   OH242742   3.745   4.083   0.893  0.2138 -0.4296  0.4818
 7084TIP3    H142743   3.712   4.087   0.983 -1.4728 -2.0515 -0.0068
 7084TIP3    H242744   3.703   4.157   0.849 -1.9777 -1.7801  0.1632
 7085TIP3   OH242745   1.881   1.314   6.016  0.1528 -0.1885  0.2256
 7085TIP3    H142746   1.853   1.243   5.960 -0.3433 -1.8299  2.4136
 7085TIP3    H242747   1.974   1.297   6.032  0.1487 -0.0712  0.3819
 7086TIP3   OH242748   0.248   2.057  17.017  0.0110  0.0145 -0.6345
 7086TIP3    H142749   0.317   2.069  17.082  0.9295 -2.5041 -1.0523
 7086TIP3    H242750   0.294   2.033  16.937 -1.2724 -3.0765 -0.5908
 7087TIP3   OH242751   3.698   3.067  16.659 -0.3806  0.2695 -0.3667
 7087TIP3    H142752   3.750   3.126  16.603  0.3117  0.6752  0.6675
 7087TIP3    H242753   3.700   3.109  16.745 -2.3275  0.2016 -0.2619
 7088TIP3   OH242754   3.060   4.274  13.709  0.1166 -0.1476  0.0812
 7088TIP3    H142755   3.047   4.303  13.618  1.2267  1.3711  0.3663
 7088TIP3    H242756   3.152   4.245  13.711 -0.0490 -0.6512  0.6099
 7089TIP3   OH242757   3.934   4.759  16.350  0.2062  0.1455  0.3671
 7089TIP3    H142758   3.972   4.718  16.428  0.8334  1.7911  0.9753
 7089TIP3    H242759   3.976   4.715  16.276  1.3505  0.1158  1.0053
 7090TIP3   OH242760   6.324   6.583   3.885  0.0211  0.0202 -0.0783
 7090TIP3    H142761   6.334   6.488   3.874  0.2704  0.1916 -1.3931
 7090TIP3    H242762   6.229   6.597   3.884 -0.0227 -0.2157  0.2678
 7091TIP3   OH242763   5.091   6.060  15.552  0.2438  0.0054 -0.1754
 7091TIP3    H142764   5.072   6.057  15.458  0.7595  2.3436 -0.4146
 7091TIP3    H242765   5.006   6.078  15.592  0.2259  0.1699 -0.2879
 7092TIP3   OH242766   0.211   5.835   0.776  0.2653  0.0634 -0.5856
 7092TIP3    H142767   0.247   5.755   0.816 -0.9217 -0.4752 -0.5348
 7092TIP3    H242768   0.166   5.804   0.698  2.1905  1.0548 -2.1759
 7093TIP3   OH242769   0.859   6.537  12.718  0.1682 -0.2684 -0.4467
 7093TIP3    H142770   0.904   6.604  12.770  0.6328  0.7701 -2.0869
 7093TIP3    H242771   0.926   6.505  12.658 -1.0196  0.7328 -2.4003
 7094TIP3   OH242772   5.837   1.303   5.303  0.0963 -0.0728  0.3759
 7094TIP3    H142773   5.822   1.214   5.271  0.7939 -0.6500  1.5535
 7094TIP3    H242774   5.932   1.314   5.300  0.0430  0.4930  0.5937
 7095TIP3   OH242775   4.724   5.632   5.575  0.1722 -0.1242  0.5027
 7095TIP3    H142776   4.785   5.699   5.545  1.2210 -0.8379  1.0010
 7095TIP3    H242777   4.735   5.629   5.670 -0.9487  0.0247  0.6562
 7096TIP3   OH242778   6.414   1.564  14.938 -0.3121 -0.1829  0.3698
 7096TIP3    H142779   6.370   1.571  14.854  0.6729  1.2492 -0.0696
 7096TIP3    H242780   6.357   1.509  14.991 -1.4147 -0.3285 -0.9270
 7097TIP3   OH242781   0.372   0.981  13.790  0.1382  0.3787  0.0948
 7097TIP3    H142782   0.422   1.056  13.760  0.7063  0.3619  0.9600
 7097TIP3    H242783   0.360   0.927  13.713 -1.9742  2.2552 -1.0274
 7098TIP3   OH242784   3.250   0.520   4.665 -0.4309 -0.3892 -0.2128
 7098TIP3    H142785   3.241   0.576   4.587  0.9974 -0.2746 -0.3183
 7098TIP3    H242786   3.160   0.498   4.689 -1.2372  3.1698  0.7032
 7099TIP3   OH242787   5.501   1.833  11.404  0.8321 -0.0315 -0.5951
 7099TIP3    H142788   5.579   1.888  11.393 -1.5210  3.3375 -2.1053
 7099TIP3    H242789   5.466   1.859  11.489  1.3333 -1.6359  0.1403
 7100TIP3   OH242790   4.354   3.828   2.000 -0.3078 -0.5814 -0.3111
 7100TIP3    H142791   4.345   3.734   1.980 -2.3071 -0.4042 -0.4580
 7100TIP3    H242792   4.265   3.863   1.990  0.8070  1.8821 -2.9554
 7101TIP3   OH242793   4.755   1.741  13.151 -0.0878 -0.3699  0.0882
 7101TIP3    H142794   4.825   1.800  13.180 -1.5189  0.8012  1.3444
 7101TIP3    H242795   4.708   1.791  13.084  1.2668 -1.8373 -2.0825
 7102TIP3   OH242796   1.840   0.344  16.219  0.2363  0.2885 -0.2659
 7102TIP3    H142797   1.926   0.380  16.195  0.7870 -0.6365  0.3019
 7102TIP3    H242798   1.812   0.397  16.294  0.0510  0.9527 -0.7944
 7103TIP3   OH242799   4.860   0.239  13.962 -0.1463 -0.5928 -0.1271
 7103TIP3    H142800   4.954   0.256  13.957  0.0314 -1.8003 -2.6365
 7103TIP3    H242801   4.819   0.322  13.937  0.2931 -0.3270  0.0325
 7104TIP3   OH242802   3.360   0.990   5.076  0.1866  0.0238  0.2519
 7104TIP3    H142803   3.370   1.079   5.041 -0.0807 -0.2762 -0.5894
 7104TIP3    H242804   3.381   0.999   5.169  0.3924  0.9252  0.1256
 7105TIP3   OH242805   0.137   2.447  16.638 -0.2916 -0.3637  0.0401
 7105TIP3    H142806   0.126   2.358  16.604  0.3171 -0.5738  0.3963
 7105TIP3    H242807   0.231   2.458  16.647 -0.3312  0.5101 -0.5021
 7106TIP3   OH242808   5.584   4.987   5.795 -0.2047 -0.2245 -0.0897
 7106TIP3    H142809   5.612   4.956   5.881 -0.1823 -2.8304 -0.9314
 7106TIP3    H242810   5.502   4.939   5.778 -0.8479  1.1577 -1.0327
 7107TIP3   OH242811   1.835   4.375  14.543  0.8892 -0.2931  0.0672
 7107TIP3    H142812   1.910   4.351  14.489  0.2423  1.6604 -1.8015
 7107TIP3    H242813   1.873   4.427  14.615  1.4261 -0.1334 -0.3278
 7108TIP3   OH242814   4.787   4.644   4.450  0.0969  0.6094 -0.3876
 7108TIP3    H142815   4.729   4.622   4.377 -2.1765  0.6883  1.2835
 7108TIP3    H242816   4.816   4.733   4.431 -2.3466  1.5300 -0.1309
 7109TIP3   OH242817   5.566   3.238   5.760  0.3548  0.3003  0.1769
 7109TIP3    H142818   5.644   3.202   5.718  0.4156  1.6503 -0.9272
 7109TIP3    H242819   5.597   3.313   5.810 -0.4111  2.0972 -1.8695
 7110TIP3   OH242820   2.123   3.613   2.822 -0.1107 -0.4576  0.5673
 7110TIP3    H142821   2.161   3.575   2.743 -1.5063  1.0261 -0.8973
 7110TIP3    H242822   2.089   3.698   2.794 -0.5357  0.1770  2.8100
 7111TIP3   OH242823   5.560   0.101   5.447  0.3900 -0.0261  0.0057
 7111TIP3    H142824   5.476   0.087   5.405  0.7587 -1.4199 -0.3147
 7111TIP3    H242825   5.621   0.119   5.376  0.7444 -1.0094  0.0497
 7112TIP3   OH242826   1.001   5.995  13.961 -0.2118  0.2887  0.7540
 7112TIP3    H142827   1.041   6.053  13.896  0.5982 -2.1503 -1.0923
 7112TIP3    H242828   0.907   6.010  13.953 -0.0356  1.1353  0.1239
 7113TIP3   OH242829   5.296   5.888   2.257  0.2125  0.2856  0.3107
 7113TIP3    H142830   5.317   5.977   2.227  0.3376  0.3273  0.5136
 7113TIP3    H242831   5.362   5.870   2.324  0.4396 -0.1207 -0.0156
 7114TIP3   OH242832   4.063   2.652   6.004 -0.2599  0.4698  0.2313
 7114TIP3    H142833   4.118   2.581   5.971 -0.2082  0.9022 -0.6240
 7114TIP3    H242834   4.010   2.611   6.072 -0.8930 -0.6200 -0.8833
 7115TIP3   OH242835   4.539   2.841   5.912  0.4053 -0.3072  0.0104
 7115TIP3    H142836   4.605   2.836   5.843 -1.5433  4.3704 -2.6705
 7115TIP3    H242837   4.588   2.830   5.993  3.5975 -1.6651 -1.9222
 7116TIP3   OH242838   5.152   4.297   0.970 -0.2101 -0.2056  0.2922
 7116TIP3    H142839   5.189   4.239   1.036 -0.2905  0.1810  0.6757
 7116TIP3    H242840   5.211   4.373   0.969 -0.6617  0.1486  0.4891
 7117TIP3   OH242841   2.628   5.661   0.310 -0.4858  0.1737 -0.4337
 7117TIP3    H142842   2.704   5.719   0.311  1.2951 -2.0238  0.6336
 7117TIP3    H242843   2.655   5.585   0.362 -3.1888 -1.0029 -0.5947
 7118TIP3   OH242844   1.338   0.139  11.995  0.1705  0.1345 -0.4063
 7118TIP3    H142845   1.359   0.192  11.919  2.9138  0.6727  0.5979
 7118TIP3    H242846   1.419   0.092  12.014 -1.0592 -1.5664  0.9733
 7119TIP3   OH242847   6.520   4.602   5.306 -0.3138  0.4279 -0.2730
 7119TIP3    H142848   6.523   4.611   5.211 -2.8072  0.3817 -0.4210
 7119TIP3    H242849   6.457   4.531   5.321  1.9315 -1.3647  1.3998
 7120TIP3   OH242850   3.629   1.221  12.093  0.7113  0.0083 -0.1818
 7120TIP3    H142851   3.618   1.298  12.149 -0.0506  0.8106 -1.3869
 7120TIP3    H242852   3.714   1.234  12.050  0.2583  0.5589 -0.9299
 7121TIP3   OH242853   1.807   1.410  15.096 -0.1060 -0.1140  0.0546
 7121TIP3    H142854   1.863   1.482  15.123 -1.3474  0.7746  0.3265
 7121TIP3    H242855   1.826   1.398  15.002  0.8384 -0.1386  0.2355
 7122TIP3   OH242856   6.308   0.074  11.452 -0.0055  0.0263 -0.3312
 7122TIP3    H142857   6.347   0.078  11.365 -0.4530  0.4334 -0.5219
 7122TIP3    H242858   6.324  -0.015  11.482 -0.1960 -0.2359 -0.9957
 7123TIP3   OH242859   2.499   6.715  12.939  0.0866 -0.8016  0.2009
 7123TIP3    H142860   2.533   6.638  12.894 -0.7944 -1.7351  1.0946
 7123TIP3    H242861   2.576   6.753  12.982  0.2991 -2.0010  0.9233
 7124TIP3   OH242862   2.979   3.823   0.482 -0.5365 -0.2144 -0.2579
 7124TIP3    H142863   2.898   3.774   0.470 -0.8106  0.0035  0.6778
 7124TIP3    H242864   2.961   3.882   0.555  0.1203  0.5769 -0.7164
 7125TIP3   OH242865   4.573   5.502  12.236 -0.4851 -0.5286  0.2716
 7125TIP3    H142866   4.599   5.413  12.211  0.0681 -0.2717 -0.0947
 7125TIP3    H242867   4.601   5.556  12.162 -2.1543 -0.2393 -0.1862
 7126TIP3   OH242868   4.421   5.178  14.654  0.3185  0.0727 -0.0742
 7126TIP3    H142869   4.347   5.228  14.688  0.6306 -0.0403  0.7920
 7126TIP3    H242870   4.422   5.198  14.560 -1.6554 -1.0252 -0.3885
 7127TIP3   OH242871   3.533   3.133   4.754  0.5217  0.6126  0.7440
 7127TIP3    H142872   3.596   3.061   4.762  0.7812  0.9413  1.8117
 7127TIP3    H242873   3.568   3.188   4.684  1.7511  1.0995  1.7094
 7128TIP3   OH242874   4.916   2.833   6.019 -0.5277  0.3498  0.2446
 7128TIP3    H142875   4.883   2.912   5.976  0.3314  1.8069  2.1072
 7128TIP3    H242876   4.849   2.813   6.085 -1.7137 -1.7092 -1.4722
 7129TIP3   OH242877   3.409   0.767  10.783 -0.2945 -0.0719  0.6794
 7129TIP3    H142878   3.404   0.713  10.704  1.3926  0.5755  0.0787
 7129TIP3    H242879   3.392   0.856  10.751  2.9322  0.5921  0.4684
 7130TIP3   OH242880   3.031   0.021  16.792  0.6318 -0.3826  0.1020
 7130TIP3    H142881   3.050  -0.066  16.756  1.4681 -0.6099  1.0749
 7130TIP3    H242882   3.095   0.033  16.862 -0.2263  0.5354  0.7526
 7131TIP3   OH242883   1.035   2.829  10.983 -0.1363 -0.1609 -0.0932
 7131TIP3    H142884   0.989   2.778  10.917 -0.3657  1.5558 -1.3188
 7131TIP3    H242885   1.009   2.789  11.066 -0.3621 -1.9536 -0.9724
 7132TIP3   OH242886   6.700   1.693  15.287  0.5805  0.8085 -0.4735
 7132TIP3    H142887   6.663   1.648  15.211  0.6327  0.5830 -0.3649
 7132TIP3    H242888   6.692   1.631  15.359  2.2933  0.2655 -0.7047
 7133TIP3   OH242889   5.583   6.193  17.484  0.1366 -0.1615 -0.0782
 7133TIP3    H142890   5.626   6.126  17.430  0.5746  0.8687 -1.0278
 7133TIP3    H242891   5.560   6.146  17.564  0.3986 -1.4706 -0.7303
 7134TIP3   OH242892   4.233   4.449   1.805 -0.3265 -0.3082  0.0296
 7134TIP3    H142893   4.159   4.505   1.781  1.8717  3.3154  0.8603
 7134TIP3    H242894   4.205   4.402   1.883 -1.8891  0.6444  0.0720
 7135TIP3   OH242895   3.328   3.050  14.757 -0.0773  0.1541 -0.1755
 7135TIP3    H142896   3.351   3.024  14.847 -0.5260 -1.2150 -0.4368
 7135TIP3    H242897   3.407   3.031  14.706 -0.8099 -2.0113 -0.5931
 7136TIP3   OH242898   3.655   3.122  13.389  0.5771  0.7230 -0.1204
 7136TIP3    H142899   3.692   3.207  13.365  1.2742  0.3358 -0.4321
 7136TIP3    H242900   3.572   3.118  13.341 -0.6215  2.2201  1.7273
 7137TIP3   OH242901   0.417   4.082  12.801  0.2470  0.6264 -0.0611
 7137TIP3    H142902   0.484   4.027  12.761 -2.0132 -0.8741 -2.0935
 7137TIP3    H242903   0.362   4.020  12.851 -0.8532  1.4264 -0.2431
 7138TIP3   OH242904   0.690   1.698   2.984 -0.6015 -0.0120  0.0355
 7138TIP3    H142905   0.730   1.773   3.028 -0.5053 -0.1390  0.1668
 7138TIP3    H242906   0.685   1.630   3.052 -0.2313 -0.2897 -0.2066
 7139TIP3   OH242907   1.088   1.564   3.094 -0.0310  0.4688  0.3136
 7139TIP3    H142908   0.997   1.590   3.077 -0.4241 -1.2610 -0.5048
 7139TIP3    H242909   1.119   1.530   3.010  0.9163 -0.1946  0.9136
 7140TIP3   OH242910   0.130   2.318  12.265 -0.0833 -0.0690 -0.4294
 7140TIP3    H142911   0.210   2.356  12.301 -0.0930 -1.0239  0.6366
 7140TIP3    H242912   0.156   2.231  12.234 -0.1939  0.5128 -2.2909
 7141TIP3   OH242913   0.064   3.499   3.948 -0.1343 -1.1149 -0.2917
 7141TIP3    H142914   0.043   3.463   4.034  1.6721 -2.0190 -0.1861
 7141TIP3    H242915  -0.022   3.514   3.907 -1.2261  2.0313  2.6580
 7142TIP3   OH242916   1.631   3.232   5.095  0.3316  0.1157  0.0689
 7142TIP3    H142917   1.680   3.267   5.169  1.2413  0.7221 -0.7954
 7142TIP3    H242918   1.690   3.170   5.053 -0.7926 -1.5551  0.8100
 7143TIP3   OH242919   3.461   2.083  16.076  0.0343  0.2450  0.1544
 7143TIP3    H142920   3.421   1.998  16.059  0.6869  0.2281 -1.5921
 7143TIP3    H242921   3.545   2.079  16.029 -0.2826  2.1151 -0.6680
 7144TIP3   OH242922   2.903   5.022   1.808 -0.8771  0.2169 -0.1382
 7144TIP3    H142923   2.980   5.030   1.864 -0.3186 -0.0665 -0.8435
 7144TIP3    H242924   2.901   5.105   1.759 -2.3596  1.2054  1.4968
 7145TIP3   OH242925   3.910   6.441   6.709  0.3109 -0.5516 -0.1066
 7145TIP3    H142926   3.963   6.381   6.762  1.7799 -1.2114 -2.1728
 7145TIP3    H242927   3.824   6.400   6.705  0.1341 -0.4500  1.7571
 7146TIP3   OH242928   0.818   0.393  15.364  0.4561  0.0661  0.7048
 7146TIP3    H142929   0.770   0.312  15.383 -0.2865  0.2600 -0.2828
 7146TIP3    H242930   0.751   0.456  15.337  1.3812 -0.3677 -3.2261
 7147TIP3   OH242931   5.408   3.067  15.801  0.5076  0.1096  0.2510
 7147TIP3    H142932   5.441   3.155  15.822  0.4376  0.5721 -1.4040
 7147TIP3    H242933   5.313   3.073  15.816  0.2479  0.8731 -1.4543
 7148TIP3   OH242934   4.469   2.883   5.596 -0.2897 -0.0980  0.0633
 7148TIP3    H142935   4.454   2.820   5.666 -0.0028 -0.3428 -0.0884
 7148TIP3    H242936   4.564   2.892   5.592 -0.2114 -1.1806 -1.2302
 7149TIP3   OH242937   5.590   0.128   1.622 -0.3758 -0.5752 -0.4043
 7149TIP3    H142938   5.659   0.067   1.648  0.7378 -0.0479 -2.0046
 7149TIP3    H242939   5.636   0.203   1.585 -1.7295  0.9925  0.8847
 7150TIP3   OH242940   3.361   2.171  14.839  0.5098 -0.4761  0.4058
 7150TIP3    H142941   3.362   2.106  14.769 -1.6376 -0.2860  0.1467
 7150TIP3    H242942   3.347   2.121  14.919 -0.3116 -0.4277  0.3008
 7151TIP3   OH242943   0.727   5.274   2.778 -0.7046 -0.3486 -0.2399
 7151TIP3    H142944   0.775   5.296   2.858 -0.3293  1.0450 -0.8201
 7151TIP3    H242945   0.767   5.193   2.748 -1.8497 -1.7423  1.7580
 7152TIP3   OH242946   3.620   5.210   1.114 -0.2298 -0.3838  0.3531
 7152TIP3    H142947   3.699   5.197   1.061 -1.3610 -3.5244 -0.7999
 7152TIP3    H242948   3.557   5.149   1.078 -2.6024  0.6295  2.4938
 7153TIP3   OH242949   5.421   0.995   5.551  0.1572  0.5356 -1.0058
 7153TIP3    H142950   5.477   1.019   5.477 -1.1661 -0.1209 -2.2690
 7153TIP3    H242951   5.365   0.926   5.517 -0.5313  0.2573  0.6166
 7154TIP3   OH242952   6.717   3.803  13.467 -0.3821 -0.2405  0.2643
 7154TIP3    H142953   6.678   3.889  13.449 -0.9497 -0.7174 -0.9192
 7154TIP3    H242954   6.651   3.741  13.436 -0.3134 -1.1346  1.7958
 7155TIP3   OH242955   5.212   5.319   1.857  0.4057  0.9128 -1.0299
 7155TIP3    H142956   5.160   5.396   1.836  1.1866  1.1821 -2.0747
 7155TIP3    H242957   5.232   5.279   1.772  0.0461 -0.4307 -0.5099
 7156TIP3   OH242958   5.841   6.501   6.582  0.2133 -0.7857 -0.2848
 7156TIP3    H142959   5.787   6.556   6.638  1.5693 -0.7796  1.0898
 7156TIP3    H242960   5.824   6.534   6.494  0.2602  1.2349  0.3998
 7157TIP3   OH242961   5.761   1.981  16.554  0.2209 -1.0625 -0.3356
 7157TIP3    H142962   5.719   1.935  16.481 -0.1387 -1.5929  0.1951
 7157TIP3    H242963   5.826   2.037  16.512  0.1050 -1.4476 -1.0587
 7158TIP3   OH242964   4.463   5.794  15.261  0.2213 -0.5801 -0.1617
 7158TIP3    H142965   4.438   5.876  15.303  0.3457 -1.0180  0.7983
 7158TIP3    H242966   4.536   5.818  15.204  0.8502 -0.1631  0.7839
 7159TIP3   OH242967   3.419   1.692  13.113 -0.0474  0.3825  0.0727
 7159TIP3    H142968   3.480   1.766  13.107  1.0164 -0.4367  0.5451
 7159TIP3    H242969   3.361   1.703  13.037 -0.3157  2.0339  0.4584
 7160TIP3   OH242970   2.145   0.076  16.664  0.3770 -0.3302  0.0463
 7160TIP3    H142971   2.053   0.049  16.666  0.3504 -0.2924 -0.5843
 7160TIP3    H242972   2.143   0.165  16.630  0.5033  0.3674  1.7498
 7161TIP3   OH242973   2.999   4.235   3.191 -0.1209  0.0932  0.1199
 7161TIP3    H142974   2.944   4.286   3.132  0.9282 -1.7923 -2.6968
 7161TIP3    H242975   2.936   4.190   3.248 -1.3558  0.2834 -1.0333
 7162TIP3   OH242976   2.865   1.281   1.055  0.4911 -0.2030 -0.1267
 7162TIP3    H142977   2.853   1.346   0.986  1.5806 -0.6296 -0.7352
 7162TIP3    H242978   2.889   1.332   1.132 -1.0739  0.3062  0.0613
 7163TIP3   OH242979   1.664   0.204   0.524  0.4259  0.0048 -0.3493
 7163TIP3    H142980   1.702   0.118   0.508  0.3887 -0.1137  0.2009
 7163TIP3    H242981   1.698   0.231   0.609 -0.9713 -0.2450  0.3246
 7164TIP3   OH242982   2.568   2.876  13.344 -0.1865  0.0406  0.4569
 7164TIP3    H142983   2.591   2.847  13.433  0.7440 -0.2973  0.1117
 7164TIP3    H242984   2.490   2.930  13.357 -0.1862 -0.1686  1.4595
 7165TIP3   OH242985   0.923   4.253  17.154  0.7314  0.8889 -0.1760
 7165TIP3    H142986   0.927   4.318  17.224  1.4914 -0.5504  1.1751
 7165TIP3    H242987   0.841   4.207  17.169 -0.4467  2.2887 -1.9004
 7166TIP3   OH242988   0.978   1.994  17.343  0.0554 -0.3645  0.6620
 7166TIP3    H142989   1.004   1.982  17.435  0.4395  0.6622  0.6936
 7166TIP3    H242990   0.909   2.060  17.347  0.0779 -0.3131  0.2070
 7167TIP3   OH242991   2.548   4.549  15.205 -0.7131 -0.4003 -0.1005
 7167TIP3    H142992   2.637   4.585  15.211  0.7094 -3.5411 -0.4501
 7167TIP3    H242993   2.513   4.556  15.293  0.1998  0.1857  0.2319
 7168TIP3   OH242994   3.781   0.886  14.933 -0.7012  0.0273 -1.0285
 7168TIP3    H142995   3.852   0.910  14.993  0.1072 -3.5303 -0.3356
 7168TIP3    H242996   3.718   0.959  14.940  1.6834  2.1383  0.1976
 7169TIP3   OH242997   2.587   5.308  14.153  0.2877  0.1332  0.5174
 7169TIP3    H142998   2.653   5.267  14.098 -0.1375  1.1433 -0.7997
 7169TIP3    H242999   2.566   5.390  14.108 -2.3713 -0.4615  0.4865
 7170TIP3   OH243000   0.717   3.355   5.167  0.5282  0.2708  0.3070
 7170TIP3    H143001   0.659   3.407   5.222 -1.2790 -0.7156 -0.5845
 7170TIP3    H243002   0.743   3.282   5.223 -0.7656 -0.3688  0.1181
 7171TIP3   OH243003   3.635   3.451   1.662  0.0872  0.1181 -0.3172
 7171TIP3    H143004   3.730   3.461   1.670  0.4164 -2.0431 -0.9531
 7171TIP3    H243005   3.600   3.497   1.738  1.4844  2.6575 -1.1127
 7172TIP3   OH243006   0.144   3.462   3.233 -0.0846 -0.4196  0.4110
 7172TIP3    H143007   0.095   3.542   3.213 -1.3681 -0.0809  4.1432
 7172TIP3    H243008   0.088   3.392   3.199  0.0177  0.1339 -0.9929
 7173TIP3   OH243009   3.716   1.577   2.776 -0.2163 -0.0904  0.2039
 7173TIP3    H143010   3.645   1.585   2.712 -1.3155  0.8793  1.4932
 7173TIP3    H243011   3.777   1.646   2.753 -1.5948  1.5965  1.3404
 7174TIP3   OH243012   4.221   5.873   1.169 -0.1773  0.1580  0.0320
 7174TIP3    H143013   4.307   5.870   1.126 -0.1202  0.0595  0.1504
 7174TIP3    H243014   4.192   5.963   1.159 -0.7595 -0.1590 -1.3740
 7175TIP3   OH243015   3.268   3.114   0.391  0.2562 -0.2918  0.0133
 7175TIP3    H143016   3.200   3.068   0.341  1.4641  0.5805 -2.6646
 7175TIP3    H243017   3.345   3.058   0.383  0.7343  0.3515  0.0408
 7176TIP3   OH243018   0.503   3.648  16.581  0.1539  0.3104  0.0537
 7176TIP3    H143019   0.580   3.593  16.565  0.5890  1.2631 -1.2459
 7176TIP3    H243020   0.538   3.729  16.617 -0.2404  0.7334 -0.5083
 7177TIP3   OH243021   3.694   0.842   4.152 -0.0371 -0.1027  0.1281
 7177TIP3    H143022   3.648   0.828   4.235  0.6507  2.7819  1.1275
 7177TIP3    H243023   3.636   0.901   4.103  0.2905 -0.5093 -0.7673
 7178TIP3   OH243024   4.661   5.257   5.172 -0.5228 -0.1757  0.1787
 7178TIP3    H143025   4.698   5.169   5.163 -0.0950  0.0168  0.0241
 7178TIP3    H243026   4.735   5.316   5.156 -1.0533  0.2324 -0.8943
 7179TIP3   OH243027   5.381   3.265  12.244 -0.2655  0.0530  0.3569
 7179TIP3    H143028   5.285   3.267  12.244 -0.2741 -0.2317 -0.3003
 7179TIP3    H243029   5.406   3.277  12.153  0.4237  3.3806  0.8610
 7180TIP3   OH243030   6.529   3.919   1.497 -0.3808  0.5233  0.4700
 7180TIP3    H143031   6.439   3.925   1.528 -1.3315 -0.9549 -1.7741
 7180TIP3    H243032   6.522   3.919   1.401  2.0962  1.4243  0.2170
 7181TIP3   OH243033   3.242   3.152  13.439  0.2683 -0.3014  0.7808
 7181TIP3    H143034   3.301   3.156  13.363  1.7554 -0.7707  1.8718
 7181TIP3    H243035   3.163   3.111  13.405  0.4572  0.5564 -0.7843
 7182TIP3   OH243036   4.352   6.481  13.553 -0.0161  0.6213 -0.1365
 7182TIP3    H143037   4.426   6.538  13.533  1.8390 -1.5415 -0.0069
 7182TIP3    H243038   4.343   6.425  13.476  1.2094 -1.7687  1.3292
 7183TIP3   OH243039   4.234   3.249  13.155  0.2969 -0.0362  0.4308
 7183TIP3    H143040   4.285   3.329  13.157 -1.0738  0.8569  1.6894
 7183TIP3    H243041   4.215   3.230  13.247  0.5477 -1.7987  0.1662
 7184TIP3   OH243042   6.694   6.703   4.638  0.5404 -0.4644  0.6271
 7184TIP3    H143043   6.706   6.612   4.663  1.3837 -0.0403  1.8864
 7184TIP3    H243044   6.737   6.711   4.553  2.2135 -0.8148  1.4114
 7185TIP3   OH243045   2.787   5.798  14.216  0.1683 -0.6201  0.1967
 7185TIP3    H143046   2.700   5.760  14.228  0.1560 -0.0365  2.2806
 7185TIP3    H243047   2.845   5.746  14.271  0.2588  1.8190  2.6509
 7186TIP3   OH243048   6.201   6.312  17.405  0.3220 -0.2525 -0.2803
 7186TIP3    H143049   6.224   6.356  17.487  1.5321 -1.1608 -0.1087
 7186TIP3    H243050   6.217   6.377  17.337  2.5437 -0.5169 -0.0771
 7187TIP3   OH243051   4.333   2.323  13.762  0.3421 -0.5574  0.4220
 7187TIP3    H143052   4.276   2.381  13.711 -0.0608 -1.9232 -0.7447
 7187TIP3    H243053   4.419   2.363  13.756  0.1133 -0.1734 -0.5476
 7188TIP3   OH243054   2.157   6.090  16.325 -0.7426  0.0200 -0.1903
 7188TIP3    H143055   2.062   6.088  16.339 -0.7596 -0.8161 -0.3462
 7188TIP3    H243056   2.186   6.170  16.369 -1.7651  1.3409 -1.8107
 7189TIP3   OH243057   1.586   5.035   0.038  0.0097 -0.1090  0.1468
 7189TIP3    H143058   1.648   5.106   0.055  0.5475 -0.8052  1.1875
 7189TIP3    H243059   1.510   5.056   0.092 -0.8423  0.9101 -1.3638
 7190TIP3   OH243060   5.790   4.417  16.659 -0.3232 -0.6287  0.0390
 7190TIP3    H143061   5.839   4.408  16.577 -0.9943  0.7181 -0.5501
 7190TIP3    H243062   5.756   4.329  16.676 -0.0735 -0.9613 -1.0710
 7191TIP3   OH243063   1.001   0.198  14.310  0.4966  0.2583 -0.1862
 7191TIP3    H143064   1.074   0.260  14.322  0.1729  0.5406  0.3629
 7191TIP3    H243065   1.043   0.112  14.312  0.7525  0.3948  0.7381
 7192TIP3   OH243066   1.432   0.005   4.910  0.2606 -0.5640  0.2158
 7192TIP3    H143067   1.479   0.061   4.849 -1.2918  0.4929 -0.0765
 7192TIP3    H243068   1.350  -0.016   4.865 -0.7158 -0.1691  1.6950
 7193TIP3   OH243069   6.424   6.099  14.264  0.4358  0.0079 -0.0047
 7193TIP3    H143070   6.414   6.066  14.353  1.7168 -1.6979 -0.4321
 7193TIP3    H243071   6.385   6.031  14.208  0.4037  0.6512 -0.7898
 7194TIP3   OH243072   0.995   2.684  11.825  0.6204 -0.5581  0.2437
 7194TIP3    H143073   1.048   2.624  11.772  1.2464 -0.8680  1.1945
 7194TIP3    H243074   1.054   2.756  11.847  0.8899 -1.2134  1.8413
 7195TIP3   OH243075   1.560   5.119  13.609 -0.0682 -0.5032 -0.2517
 7195TIP3    H143076   1.538   5.149  13.521  0.0464 -0.7340 -0.3611
 7195TIP3    H243077   1.521   5.032  13.615 -0.9416 -0.0864  0.2899
 7196TIP3   OH243078   2.034   4.803  13.293  0.0539 -0.2433  0.5346
 7196TIP3    H143079   1.948   4.845  13.294  0.3615  0.4219  1.7116
 7196TIP3    H243080   2.092   4.867  13.334  1.2547 -0.4143 -0.8410
 7197TIP3   OH243081   5.836   3.273  16.310 -0.2671  0.2090 -0.0695
 7197TIP3    H143082   5.802   3.209  16.373 -0.2828 -0.0219 -0.3099
 7197TIP3    H243083   5.856   3.351  16.363  0.6093 -0.3019  0.3677
 7198TIP3   OH243084   1.332   2.347   1.888  0.1293 -0.1140 -0.1270
 7198TIP3    H143085   1.327   2.263   1.934  1.6332 -0.4598 -0.5343
 7198TIP3    H243086   1.262   2.344   1.823 -2.2195  0.4790  2.1810
 7199TIP3   OH243087   5.510   1.142   3.453 -0.4561  0.1058 -0.0496
 7199TIP3    H143088   5.586   1.156   3.509  0.5705  1.0575 -1.5847
 7199TIP3    H243089   5.468   1.228   3.449 -0.1920  0.2026 -1.1419
 7200TIP3   OH243090   6.357   2.419  13.327 -0.3063 -0.7062 -0.0733
 7200TIP3    H143091   6.433   2.361  13.321 -0.0742 -0.3099 -1.2128
 7200TIP3    H243092   6.374   2.488  13.263 -0.2697  1.0042  1.6808
 7201TIP3   OH243093   1.747   5.027  12.824  0.0750  0.0698  0.0310
 7201TIP3    H143094   1.826   5.046  12.773 -0.7200  2.5029 -0.4093
 7201TIP3    H243095   1.704   5.112  12.835 -2.7894 -1.2163 -0.2540
 7202TIP3   OH243096   4.381   1.229  17.385 -0.1528  0.0700 -0.5530
 7202TIP3    H143097   4.312   1.231  17.452 -0.6634  1.9045 -1.0845
 7202TIP3    H243098   4.460   1.254  17.433 -0.9072  3.7607 -0.9329
 7203TIP3   OH243099   0.307   4.279  12.619 -0.2586  0.0504  0.2108
 7203TIP3    H143100   0.318   4.215  12.689  1.8380 -0.0512 -0.1485
 7203TIP3    H243101   0.287   4.361  12.663  0.5045 -0.1276  0.8978
 7204TIP3   OH243102   3.265   4.426   5.699 -0.1564  0.3620  0.0102
 7204TIP3    H143103   3.300   4.497   5.753  2.1177  0.3771 -1.3536
 7204TIP3    H243104   3.342   4.389   5.655 -1.4138 -2.1788 -0.2593
 7205TIP3   OH243105   3.475   6.713  11.086 -0.2847  0.6845 -0.9195
 7205TIP3    H143106   3.398   6.679  11.040 -0.9706  1.8319 -0.6384
 7205TIP3    H243107   3.517   6.771  11.022  0.7767 -0.4720 -1.3272
 7206TIP3   OH243108   6.319   5.207  15.573  0.0714 -0.0799 -0.0966
 7206TIP3    H143109   6.289   5.123  15.609 -0.6866 -0.6653 -1.9950
 7206TIP3    H243110   6.357   5.185  15.488 -0.7148  1.5739 -0.9115
 7207TIP3   OH243111   6.212   2.900   3.373 -0.2501 -0.3819  0.5928
 7207TIP3    H143112   6.192   2.966   3.307 -0.7124 -0.2838  0.8272
 7207TIP3    H243113   6.275   2.842   3.331 -0.8671 -0.5717 -0.0880
 7208TIP3   OH243114   4.467   5.263   4.974 -0.0341 -0.5186 -0.5831
 7208TIP3    H143115   4.526   5.243   5.047 -0.4999 -1.5621 -0.4742
 7208TIP3    H243116   4.408   5.331   5.009  0.6375  0.0128 -0.4603
 7209TIP3   OH243117   2.788   1.377   3.816 -0.0968 -0.3096  0.6254
 7209TIP3    H143118   2.782   1.473   3.820 -1.8870 -0.2410 -1.6730
 7209TIP3    H243119   2.699   1.349   3.794  0.4839 -2.5099  0.8710
 7210TIP3   OH243120   3.024   0.517   1.591  0.2226  0.5136  0.6851
 7210TIP3    H143121   2.932   0.512   1.565 -0.8392 -1.2193  4.0742
 7210TIP3    H243122   3.038   0.609   1.613 -0.6749  0.8149  0.0193
 7211TIP3   OH243123   3.882   4.880   5.120 -1.0714  0.1834 -0.7462
 7211TIP3    H143124   3.859   4.788   5.109 -0.3551 -0.1071  0.0866
 7211TIP3    H243125   3.813   4.928   5.073 -2.2888 -0.7122  0.0589
 7212TIP3   OH243126   5.574   3.929   3.845 -0.1577  0.6364 -0.0660
 7212TIP3    H143127   5.647   3.915   3.905 -1.3367 -1.3485  1.0563
 7212TIP3    H243128   5.563   4.024   3.842  0.9589  0.8732  1.6471
 7213TIP3   OH243129   2.285   0.649   0.847  0.0498  0.0583 -0.1395
 7213TIP3    H143130   2.261   0.570   0.895  2.5353 -0.9736 -0.4672
 7213TIP3    H243131   2.298   0.620   0.757  0.1371  1.0185 -0.4514
 7214TIP3   OH243132   2.658   1.082  14.985 -0.8103 -0.2322 -0.4622
 7214TIP3    H143133   2.605   1.157  15.012 -1.6813 -1.3780  1.2097
 7214TIP3    H243134   2.595   1.020  14.950 -0.4057 -1.0744  0.2741
 7215TIP3   OH243135   5.444   1.657  12.071  0.0363  0.5206  0.1503
 7215TIP3    H143136   5.465   1.635  12.161  1.3271  0.7802 -0.0685
 7215TIP3    H243137   5.349   1.672  12.071  0.3906  3.6864  2.1658
 7216TIP3   OH243138   1.798   1.013   3.157 -0.0389 -0.0271  0.6437
 7216TIP3    H143139   1.809   0.999   3.063  1.1879  2.5548  0.2991
 7216TIP3    H243140   1.703   1.022   3.168 -0.1724  0.1162 -0.4543
 7217TIP3   OH243141   3.077   5.577  17.205 -0.2358 -0.6880  1.0248
 7217TIP3    H143142   3.163   5.572  17.163 -1.1031 -2.9434 -0.7331
 7217TIP3    H243143   3.061   5.670  17.217  0.7777  0.0753 -2.3965
 7218TIP3   OH243144   2.567   3.621   4.445 -0.4296 -0.2535 -1.0567
 7218TIP3    H143145   2.498   3.668   4.491  0.7269  0.1930  0.2989
 7218TIP3    H243146   2.561   3.651   4.354 -0.0178  2.2057 -0.3329
 7219TIP3   OH243147   4.312   3.911  12.888  0.5424  0.0922 -0.2462
 7219TIP3    H143148   4.344   4.000  12.873  0.2832  0.3914  0.8903
 7219TIP3    H243149   4.259   3.918  12.967  0.1865 -1.0014 -0.3745
 7220TIP3   OH243150   1.352   0.869  14.990 -0.5308  0.6135  0.2490
 7220TIP3    H143151   1.356   0.831  15.078  3.3572  0.6690  0.2861
 7220TIP3    H243152   1.321   0.959  15.004  2.2502  1.4232  2.0419
 7221TIP3   OH243153   1.689   6.330  17.137 -0.2564 -0.7876 -0.5433
 7221TIP3    H143154   1.735   6.335  17.221  1.5307  0.4297 -1.5295
 7221TIP3    H243155   1.621   6.398  17.143  0.9889  0.5177 -0.6834
 7222TIP3   OH243156   1.597   4.677   6.094  0.9688 -0.9479  0.4476
 7222TIP3    H143157   1.588   4.630   6.177  1.1513 -0.1166  0.9575
 7222TIP3    H243158   1.671   4.635   6.050  1.5875 -0.7009  1.2121
 7223TIP3   OH243159   1.001   2.685  15.023 -0.1190 -0.2696 -0.0587
 7223TIP3    H143160   1.092   2.716  15.028  0.1335 -0.9387 -0.3981
 7223TIP3    H243161   1.007   2.590  15.033 -1.0860 -0.1141  3.5825
 7224TIP3   OH243162   3.380   2.046   0.034  0.1595 -0.3146 -0.3778
 7224TIP3    H143163   3.325   2.009   0.102  1.0634 -2.4286 -0.7140
 7224TIP3    H243164   3.336   2.022  -0.048  0.6233 -0.3945 -0.6065
 7225TIP3   OH243165   5.277   2.237  14.147 -0.4990  0.3725 -0.1533
 7225TIP3    H143166   5.341   2.206  14.210 -2.8994 -0.2720  2.1151
 7225TIP3    H243167   5.295   2.187  14.067 -0.1382 -2.0981  1.3877
 7226TIP3   OH243168   4.506   3.580   5.622 -0.2904  0.2167 -0.7457
 7226TIP3    H143169   4.558   3.609   5.547 -1.0760  2.2931 -0.5221
 7226TIP3    H243170   4.438   3.524   5.584 -0.0835  0.4384 -1.4526
 7227TIP3   OH243171   2.038   1.710   3.020  0.1391  0.0992  0.3105
 7227TIP3    H143172   2.107   1.643   3.025 -0.0527 -0.0579  0.9486
 7227TIP3    H243173   1.968   1.668   2.972  0.8248  0.5669 -1.1443
 7228TIP3   OH243174   0.576   2.323  13.634  0.3579 -0.3250  0.1752
 7228TIP3    H143175   0.566   2.241  13.585 -0.4971 -0.3938  0.4482
 7228TIP3    H243176   0.486   2.355  13.645  0.6967  0.7705 -0.1294
 7229TIP3   OH243177   6.290   1.275   3.175  0.2525  0.3997  0.2759
 7229TIP3    H143178   6.262   1.293   3.265 -2.3752  1.8393 -0.7075
 7229TIP3    H243179   6.217   1.226   3.137  0.6310  1.1260 -1.4728
 7230TIP3   OH243180   4.061   2.816   5.636  0.5085 -0.0262  0.2714
 7230TIP3    H143181   4.053   2.721   5.645  2.1040 -0.2547 -0.3130
 7230TIP3    H243182   4.137   2.839   5.690 -1.1443  1.2732  2.1752
 7231TIP3   OH243183   1.582   0.443  11.438  0.2516  0.2139  0.0798
 7231TIP3    H143184   1.594   0.356  11.475 -0.5825  0.5013  1.0686
 7231TIP3    H243185   1.524   0.428  11.363  2.9341 -0.5407 -2.0146
 7232TIP3   OH243186   5.132   5.402  16.421 -0.2292  0.2327 -0.3802
 7232TIP3    H143187   5.211   5.356  16.393 -0.4722 -0.3106 -0.1880
 7232TIP3    H243188   5.114   5.462  16.349 -1.0044 -1.3557 -1.5952
 7233TIP3   OH243189   1.627   5.220   0.255 -0.1996  0.4218 -0.7896
 7233TIP3    H143190   1.722   5.215   0.266 -0.2003 -0.4250 -1.1347
 7233TIP3    H243191   1.612   5.311   0.228  0.3545  0.9773  0.6026
 7234TIP3   OH243192   4.254   1.141  17.161 -0.4002  0.1345  0.0729
 7234TIP3    H143193   4.304   1.185  17.230 -0.9361  2.8202 -1.0878
 7234TIP3    H243194   4.220   1.213  17.108 -0.9809 -1.7803 -2.3130
 7235TIP3   OH243195   5.058   5.671  16.208 -0.0507  0.0110 -0.0374
 7235TIP3    H143196   5.074   5.609  16.136 -0.3750 -0.7363  0.5253
 7235TIP3    H243197   5.031   5.752  16.165 -3.1287 -1.2507 -0.7053
 7236TIP3   OH243198   3.412   0.146  16.217  0.3726  0.0616 -0.5367
 7236TIP3    H143199   3.383   0.156  16.127  1.2852  0.7030 -0.7673
 7236TIP3    H243200   3.408   0.052  16.233  1.5338 -0.2126 -1.7118
 7237TIP3   OH243201   5.281   4.835   5.490 -0.1103 -0.2398  0.5231
 7237TIP3    H143202   5.355   4.884   5.453  1.7397 -2.2832  1.2621
 7237TIP3    H243203   5.262   4.768   5.425 -0.3926 -0.5895  0.9632
 7238TIP3   OH243204   0.466   6.271  17.109  0.3690 -0.6022 -0.8499
 7238TIP3    H143205   0.502   6.332  17.173  1.4804 -1.4565 -0.6217
 7238TIP3    H243206   0.439   6.326  17.036  1.2389  0.1891 -0.6069
 7239TIP3   OH243207   2.729   1.946  16.381  0.0636  0.1523 -0.1074
 7239TIP3    H143208   2.695   1.997  16.455  0.4650 -0.0813  0.2449
 7239TIP3    H243209   2.654   1.932  16.325  0.3539  3.2888 -1.5177
 7240TIP3   OH243210   2.272   5.912   2.028 -0.5364 -0.1989 -0.0978
 7240TIP3    H143211   2.254   5.862   2.108 -0.4417 -0.9877 -0.5641
 7240TIP3    H243212   2.235   5.999   2.046 -0.5048 -0.3611  0.8058
 7241TIP3   OH243213   2.806   6.038   4.987 -0.0479 -0.3920  0.9437
 7241TIP3    H143214   2.783   6.082   4.905  0.4609 -1.5301  0.1546
 7241TIP3    H243215   2.815   6.109   5.051 -0.1500  0.5499 -0.0567
 7242TIP3   OH243216   6.673   3.707  15.055 -0.2422 -0.1447  0.2217
 7242TIP3    H143217   6.653   3.724  15.147  0.5616 -0.0460  0.3855
 7242TIP3    H243218   6.765   3.732  15.045 -0.3971  0.1046 -0.6745
 7243TIP3   OH243219   6.305   4.980  13.590 -0.3999 -0.5569  0.3406
 7243TIP3    H143220   6.258   5.021  13.663 -1.0167 -3.0390  1.4403
 7243TIP3    H243221   6.391   4.959  13.626 -0.2505 -0.6225 -0.0566
 7244TIP3   OH243222   1.380   1.809   0.574  0.2836  0.4393  0.7361
 7244TIP3    H143223   1.290   1.840   0.573 -0.6444 -1.9672  1.7583
 7244TIP3    H243224   1.389   1.762   0.658  2.1897 -0.1847  0.2480
 7245TIP3   OH243225   1.796   5.028  11.729  0.0044  0.7361 -0.1746
 7245TIP3    H143226   1.731   5.056  11.794 -1.7153 -0.1373 -1.4473
 7245TIP3    H243227   1.809   5.105  11.674  2.2558  1.8338  1.6701
 7246TIP3   OH243228   2.104   5.434  14.994  0.1299  0.2009  0.4459
 7246TIP3    H143229   2.135   5.440  14.904 -1.4544  1.8362 -0.0617
 7246TIP3    H243230   2.158   5.497  15.042  0.6155 -0.2844  0.5513
 7247TIP3   OH243231   1.237   5.485  11.389 -0.1348  0.0247  0.0178
 7247TIP3    H143232   1.282   5.513  11.310 -0.0883  0.5360  0.2206
 7247TIP3    H243233   1.195   5.402  11.365  2.4044 -1.4450  0.3395
 7248TIP3   OH243234   5.213   2.279  11.956 -0.3085  0.0566  0.1470
 7248TIP3    H143235   5.301   2.305  11.983  0.0043 -0.7663 -0.0445
 7248TIP3    H243236   5.210   2.298  11.862 -0.8788  1.5278  0.4481
 7249TIP3   OH243237   2.092   1.075  15.625  0.0377  1.1553 -0.1653
 7249TIP3    H143238   2.173   1.110  15.587 -0.9193  1.6036 -1.8997
 7249TIP3    H243239   2.042   1.043  15.550 -0.9620 -0.0772  0.9736
 7250TIP3   OH243240   5.753   2.156   3.213  0.1148  0.1325 -0.2659
 7250TIP3    H143241   5.703   2.075   3.203 -1.1525  0.7571  0.6675
 7250TIP3    H243242   5.771   2.162   3.307  1.7155  0.0758 -0.5469
 7251TIP3   OH243243   6.434   4.503   0.573  0.0738  0.4024 -0.0605
 7251TIP3    H143244   6.422   4.598   0.574  0.4453  0.4552  1.4559
 7251TIP3    H243245   6.523   4.490   0.606  0.3280 -0.4521 -1.0188
 7252TIP3   OH243246   4.778   3.174  17.098  0.3262  0.2519 -0.1482
 7252TIP3    H143247   4.744   3.259  17.069  2.5924  2.1045  2.1050
 7252TIP3    H243248   4.857   3.161  17.046  0.8219  0.3249  0.5780
 7253TIP3   OH243249   1.680   0.036   2.242  0.5725  0.3691 -0.1754
 7253TIP3    H143250   1.644   0.045   2.330  1.6715  2.2850  0.1460
 7253TIP3    H243251   1.711   0.124   2.220 -1.2628  0.4021 -3.2198
 7254TIP3   OH243252   3.801   2.763  14.829 -0.5687 -0.2719 -0.0566
 7254TIP3    H143253   3.857   2.829  14.788 -0.4225 -1.5599 -2.0511
 7254TIP3    H243254   3.809   2.780  14.923  2.8005 -0.0682 -0.2589
 7255TIP3   OH243255   4.843   1.394  12.913  0.2919  0.0516  0.1720
 7255TIP3    H143256   4.820   1.476  12.869  0.2921  0.9753  1.8347
 7255TIP3    H243257   4.759   1.359  12.942  0.0101 -1.7715 -2.4715
 7256TIP3   OH243258   1.442   6.488  13.637 -0.2614 -0.3543  0.0164
 7256TIP3    H143259   1.465   6.492  13.730  0.9148  1.3368 -0.3095
 7256TIP3    H243260   1.495   6.417  13.602 -0.3399 -0.6731  0.5405
 7257TIP3   OH243261   5.424   5.679   4.403 -0.7842 -0.2492 -0.3458
 7257TIP3    H143262   5.450   5.725   4.323  2.2281 -0.2451  0.5316
 7257TIP3    H243263   5.407   5.589   4.373 -1.9914  0.2543 -1.2941
 7258TIP3   OH243264   1.165   4.287  12.437 -0.0098 -0.2016  0.2146
 7258TIP3    H143265   1.074   4.308  12.417  0.1809 -0.5784 -1.1310
 7258TIP3    H243266   1.164   4.261  12.529 -1.1435  0.4477  0.4036
 7259TIP3   OH243267   5.514   3.101  12.855  0.0683  0.2130  0.2183
 7259TIP3    H143268   5.444   3.091  12.921 -2.1438 -0.1590 -2.0337
 7259TIP3    H243269   5.509   3.022  12.803  2.5138  0.0103  0.1918
 7260TIP3   OH243270   0.900   4.187  14.830  0.2824  0.0621 -0.4038
 7260TIP3    H143271   0.974   4.237  14.865 -0.5490  0.6539  0.5653
 7260TIP3    H243272   0.852   4.251  14.776 -0.0086 -0.0718 -0.3064
 7261TIP3   OH243273   2.259   5.889  11.288  0.1166  0.7227  0.2984
 7261TIP3    H143274   2.281   5.966  11.234  0.1112  1.1406  0.8798
 7261TIP3    H243275   2.268   5.815  11.228 -1.1011  1.2801 -0.6199
 7262TIP3   OH243276   0.696   2.480  13.381  0.8799  0.6035 -0.1664
 7262TIP3    H143277   0.748   2.458  13.458  1.7747  0.7881 -0.7090
 7262TIP3    H243278   0.687   2.397  13.334  0.5835  0.5488 -0.0144
 7263TIP3   OH243279   6.464   6.371   0.045 -0.3036 -0.1650 -0.5952
 7263TIP3    H143280   6.457   6.286   0.088  0.8732 -0.2850 -0.6065
 7263TIP3    H243281   6.472   6.434   0.117 -1.1860 -0.0504 -0.5865
 7264TIP3   OH243282   5.776   4.350  14.941  0.4247 -0.6813 -0.2412
 7264TIP3    H143283   5.764   4.304  15.024  0.9832  1.9733  1.4594
 7264TIP3    H243284   5.870   4.344  14.924  0.2882 -1.3450 -0.7665
 7265TIP3   OH243285   1.888   1.645   1.841 -0.2795  0.8407 -0.3908
 7265TIP3    H143286   1.887   1.663   1.747 -0.9352  0.2096 -0.5106
 7265TIP3    H243287   1.809   1.688   1.874 -0.7878 -0.1049 -0.3575
 7266TIP3   OH243288   0.960   0.257  11.714  0.2520 -0.0594 -0.0667
 7266TIP3    H143289   0.898   0.328  11.700 -1.2523 -1.2607  0.2522
 7266TIP3    H243290   1.028   0.295  11.769  0.3657  1.5706 -1.2455
 7267TIP3   OH243291   2.610   3.943   4.560  0.3924  0.3579  0.3528
 7267TIP3    H143292   2.595   3.859   4.604  1.7011 -0.9881 -1.5801
 7267TIP3    H243293   2.683   3.983   4.607  0.0711  0.1954  0.9952
 7268TIP3   OH243294   5.512   1.477  11.280 -0.0141  0.2591  0.0012
 7268TIP3    H143295   5.432   1.477  11.332 -1.2620  1.2839 -1.8320
 7268TIP3    H243296   5.538   1.385  11.277 -0.0951  0.1261  2.0855
 7269TIP3   OH243297   3.625   3.835   1.461 -0.3809  0.2577 -0.0734
 7269TIP3    H143298   3.690   3.890   1.503 -1.2493  1.5539 -0.3603
 7269TIP3    H243299   3.673   3.790   1.391  0.5427 -0.0759  0.7627
 7270TIP3   OH243300   6.466   0.193   2.725 -0.0870 -0.0400 -0.7676
 7270TIP3    H143301   6.533   0.166   2.788 -0.0638  0.2376 -0.6745
 7270TIP3    H243302   6.428   0.111   2.694  0.6291 -0.2253 -1.1859
 7271TIP3   OH243303   4.004   5.828   0.291 -0.0897 -0.1438 -0.4326
 7271TIP3    H143304   3.965   5.910   0.323 -0.5676 -0.0076 -1.3355
 7271TIP3    H243305   4.097   5.837   0.308 -0.1772  0.4595 -0.2571
 7272TIP3   OH243306   2.141   5.117  15.356  0.3724  1.0220  0.8077
 7272TIP3    H143307   2.222   5.093  15.312  0.6853 -0.3987  2.0733
 7272TIP3    H243308   2.148   5.212  15.370  1.2152  1.1303 -0.2448
 7273TIP3   OH243309   3.694   5.344  16.742  0.3029  0.3301 -0.0387
 7273TIP3    H143310   3.660   5.263  16.780  1.9495 -0.3098  0.1710
 7273TIP3    H243311   3.667   5.341  16.651 -2.0470  0.9455  0.5749
 7274TIP3   OH243312   1.359   4.262   0.559 -0.2035  0.0777 -0.0710
 7274TIP3    H143313   1.432   4.209   0.591 -1.9225 -1.5949  1.2596
 7274TIP3    H243314   1.327   4.307   0.637 -1.1343  0.1191 -0.4680
 7275TIP3   OH243315   0.446   2.523   5.714  0.1271  0.6933  0.1133
 7275TIP3    H143316   0.477   2.436   5.741 -2.2331 -0.6300 -1.0823
 7275TIP3    H243317   0.393   2.554   5.788  0.5078  0.8879  0.3103
 7276TIP3   OH243318   5.161   6.727   2.136  0.4331 -0.0499  0.0125
 7276TIP3    H143319   5.155   6.701   2.228 -0.1318 -1.3191 -0.3476
 7276TIP3    H243320   5.172   6.644   2.090  2.9861  0.7167 -0.9124
 7277TIP3   OH243321   4.131   6.049  12.955  0.3362 -0.6472 -0.3496
 7277TIP3    H143322   4.144   6.141  12.975  1.1286 -0.6706 -0.7077
 7277TIP3    H243323   4.213   6.006  12.983  0.8193 -0.9161 -2.0546
 7278TIP3   OH243324   4.338   1.450   2.128  0.4907  0.2536 -0.0130
 7278TIP3    H143325   4.280   1.416   2.060  0.8000 -1.4750  0.5152
 7278TIP3    H243326   4.280   1.471   2.201  0.3296  0.4942 -0.2089
 7279TIP3   OH243327   5.123   2.078  13.712 -0.0223  0.0011 -0.2971
 7279TIP3    H143328   5.201   2.104  13.661  0.2153 -1.1881 -0.5682
 7279TIP3    H243329   5.062   2.044  13.646  0.9772 -3.2761  0.2784
 7280TIP3   OH243330   2.859   6.665   1.549  0.4156  0.0550  0.0611
 7280TIP3    H143331   2.872   6.616   1.630  0.6161 -0.3711 -0.2286
 7280TIP3    H243332   2.869   6.757   1.575 -0.1174 -0.0403  0.6363
 7281TIP3   OH243333   2.445   2.042  13.062  0.0797 -0.3498  0.0105
 7281TIP3    H143334   2.392   2.121  13.069  0.3129 -0.3230  2.6940
 7281TIP3    H243335   2.492   2.037  13.146  0.3258 -3.1408 -0.1822
 7282TIP3   OH243336   1.625   1.668  16.207 -0.9312 -0.1573  0.0854
 7282TIP3    H143337   1.650   1.668  16.115 -1.6494  0.2797 -0.1193
 7282TIP3    H243338   1.547   1.612  16.211 -1.7582  0.9744  0.1726
 7283TIP3   OH243339   0.881   1.295  16.495 -0.2130  0.0055  0.3356
 7283TIP3    H143340   0.964   1.326  16.531 -1.0876  0.4821  2.0252
 7283TIP3    H243341   0.880   1.330  16.405  0.4066  1.9523  1.0254
 7284TIP3   OH243342   0.948   1.584  17.492  0.1672  0.3115  0.2407
 7284TIP3    H143343   0.997   1.543  17.563 -0.9692  0.8059  1.3559
 7284TIP3    H243344   0.975   1.675  17.494 -0.3513  0.4640  0.4856
 7285TIP3   OH243345   4.422   6.307   0.227  0.2882  0.9155  0.3967
 7285TIP3    H143346   4.412   6.323   0.321  0.8949  0.8978  0.4636
 7285TIP3    H243347   4.455   6.390   0.192 -1.0279  1.3099  0.0053
 7286TIP3   OH243348   1.151   6.748   3.998  0.1613 -0.2142 -0.3074
 7286TIP3    H143349   1.152   6.842   4.014 -1.9212 -0.2669  0.4779
 7286TIP3    H243350   1.061   6.721   4.019  0.5028 -2.2575 -1.2173
 7287TIP3   OH243351   4.291   6.448  11.430 -0.2930 -0.1219  0.3704
 7287TIP3    H143352   4.222   6.435  11.495 -0.5340 -0.3342  0.0756
 7287TIP3    H243353   4.249   6.429  11.346  0.2472 -0.6983  0.2282
 7288TIP3   OH243354   4.164   4.897   0.623 -0.2251  0.8479 -0.1206
 7288TIP3    H143355   4.206   4.884   0.538  1.5489 -3.0050  1.0822
 7288TIP3    H243356   4.085   4.947   0.604 -0.7332 -1.1013 -4.3334
 7289TIP3   OH243357   3.327   2.322   0.545  0.6503  0.4248  0.1055
 7289TIP3    H143358   3.350   2.239   0.504 -2.3667 -0.7476  0.5198
 7289TIP3    H243359   3.368   2.319   0.631  1.0585 -0.3766 -0.1097
 7290TIP3   OH243360   1.939   4.367  13.718 -1.3793  0.3966  0.3468
 7290TIP3    H143361   1.953   4.307  13.645 -0.5621  0.9935 -0.0074
 7290TIP3    H243362   1.911   4.448  13.677 -3.0005  0.1298  0.8583
 7291TIP3   OH243363   5.736   6.577  14.261  0.1311  0.3442 -0.3849
 7291TIP3    H143364   5.727   6.482  14.262  0.3716  0.2805  2.3746
 7291TIP3    H243365   5.815   6.595  14.312 -0.2203  2.0572 -0.3701
 7292TIP3   OH243366   2.081   3.260  17.041  0.0691  0.2175 -0.6267
 7292TIP3    H143367   1.992   3.258  17.076  0.3372 -0.0205  0.0719
 7292TIP3    H243368   2.075   3.216  16.957 -0.5351  0.5026 -0.7431
 7293TIP3   OH243369   3.237   0.392   0.771 -0.1357  0.0819 -0.1104
 7293TIP3    H143370   3.204   0.369   0.684 -1.1242  1.1777 -0.0430
 7293TIP3    H243371   3.183   0.466   0.799  3.4924  3.2762 -0.7247
 7294TIP3   OH243372   2.085   5.853   5.584  0.3525 -0.2193 -0.3635
 7294TIP3    H143373   2.180   5.857   5.600  0.1077  0.5250  1.0993
 7294TIP3    H243374   2.061   5.764   5.608  0.3020  0.3393  1.8781
 7295TIP3   OH243375   1.558   3.347  14.875 -0.6218 -1.0217 -0.0663
 7295TIP3    H143376   1.465   3.328  14.884 -0.5769 -1.5940 -0.7479
 7295TIP3    H243377   1.561   3.440  14.853 -0.8849 -0.3257  2.4643
 7296TIP3   OH243378   4.904   1.519  13.647 -0.1343  0.3216  0.5802
 7296TIP3    H143379   4.830   1.531  13.707  0.1715  0.8729  0.8456
 7296TIP3    H243380   4.970   1.475  13.699 -0.5085 -0.7776  0.1603
 7297TIP3   OH243381   2.124   0.243  13.162 -0.2482  0.3762 -0.6279
 7297TIP3    H143382   2.132   0.337  13.150  1.3166  0.6632  1.9095
 7297TIP3    H243383   2.213   0.209  13.147 -0.6066 -0.5944 -0.6399
 7298TIP3   OH243384   0.028   6.548   4.999  0.7400 -0.2909  0.3108
 7298TIP3    H143385   0.047   6.628   5.047  2.0281 -1.3027  1.5926
 7298TIP3    H243386   0.076   6.556   4.917 -0.2669  0.8169 -0.1924
 7299TIP3   OH243387   1.721   2.381  13.941 -0.2198  0.0483  0.2353
 7299TIP3    H143388   1.720   2.424  14.026 -0.3358  0.2467  0.1336
 7299TIP3    H243389   1.813   2.358  13.926 -0.4215 -1.4996  1.1710
 7300TIP3   OH243390   4.383   5.133   2.387 -0.5121 -0.3363  0.0625
 7300TIP3    H143391   4.326   5.186   2.331 -3.2783 -1.5810  1.4871
 7300TIP3    H243392   4.407   5.191   2.459 -0.4131  0.0467 -0.2765
 7301TIP3   OH243393   6.639   2.476  14.344  0.6733 -0.3491 -0.1541
 7301TIP3    H143394   6.600   2.498  14.260  1.1712 -1.7986 -0.8129
 7301TIP3    H243395   6.565   2.459  14.401  0.3274 -0.3111 -0.5843
 7302TIP3   OH243396   0.895   1.077   6.704  0.0414 -1.0656 -0.5458
 7302TIP3    H143397   0.854   1.116   6.626  0.5603 -0.0334 -0.3169
 7302TIP3    H243398   0.918   0.988   6.677  1.9984 -0.1325 -2.2549
 7303TIP3   OH243399   4.031   6.168  10.766 -0.2175  0.1757 -0.1035
 7303TIP3    H143400   4.034   6.226  10.842 -0.0912  1.9089 -1.3768
 7303TIP3    H243401   3.985   6.090  10.797 -0.8897  1.1701  1.5181
 7304TIP3   OH243402   3.183   4.841  15.673 -0.7443  0.1120 -0.4431
 7304TIP3    H143403   3.091   4.814  15.671 -0.5731 -0.7390  1.0501
 7304TIP3    H243404   3.199   4.861  15.766  0.8397 -0.7572 -0.4996
 7305TIP3   OH243405   2.842   3.511   6.303  0.3782  0.1443  0.2916
 7305TIP3    H143406   2.916   3.450   6.301  0.4274  0.2220 -0.5355
 7305TIP3    H243407   2.883   3.597   6.304  0.3009  0.1790  0.5385
 7306TIP3   OH243408   2.368   5.977   2.348  0.0218 -0.2733 -0.1081
 7306TIP3    H143409   2.458   5.945   2.341 -0.5263 -1.6435 -1.6782
 7306TIP3    H243410   2.315   5.898   2.341 -1.3623  0.7655 -2.3524
 7307TIP3   OH243411   4.459   1.278  16.828  0.8423  0.5722 -0.4605
 7307TIP3    H143412   4.392   1.213  16.850  1.2530  0.1995 -0.3017
 7307TIP3    H243413   4.426   1.320  16.749  0.8986 -0.3041 -0.9633
 7308TIP3   OH243414   2.694   4.538   5.034 -0.1681  0.0801  0.2761
 7308TIP3    H143415   2.629   4.473   5.007  1.2137 -0.9874 -0.6181
 7308TIP3    H243416   2.771   4.486   5.057  0.8576  1.3758 -0.1255
 7309TIP3   OH243417   3.450   1.999   3.375  0.4845  0.3578 -0.4832
 7309TIP3    H143418   3.518   2.047   3.327  2.3339  0.8534  2.4059
 7309TIP3    H243419   3.392   2.068   3.410  0.5972  0.2004  0.0219
 7310TIP3   OH243420   0.893   5.710   6.149  0.5343 -0.6139  0.5555
 7310TIP3    H143421   0.961   5.668   6.202 -0.0925 -2.3659  0.0372
 7310TIP3    H243422   0.831   5.745   6.212  0.6629 -1.1922  1.0092
 7311TIP3   OH243423   3.494   3.344   5.986  0.1028  0.5617  0.3823
 7311TIP3    H143424   3.559   3.375   5.923  0.4054  0.4076  0.6138
 7311TIP3    H243425   3.411   3.380   5.955  0.3672  1.1584  0.3513
 7312TIP3   OH243426   0.322   1.713  15.065 -0.5802 -0.1401  0.9469
 7312TIP3    H143427   0.333   1.775  14.993 -0.2461 -2.6024 -1.2887
 7312TIP3    H243428   0.253   1.751  15.119 -0.7523  1.8950 -0.5735
 7313TIP3   OH243429   5.076   2.153   3.503 -0.6344  0.1723  0.3378
 7313TIP3    H143430   5.003   2.212   3.522 -0.8298  0.3001 -0.7652
 7313TIP3    H243431   5.058   2.119   3.415  1.6720  1.8179 -0.8604
 7314TIP3   OH243432   4.544   1.739   5.680 -0.0972  0.4378 -0.1944
 7314TIP3    H143433   4.480   1.764   5.613  0.4345 -1.7743 -1.6512
 7314TIP3    H243434   4.549   1.815   5.738 -3.1041  1.1463 -0.7121
 7315TIP3   OH243435   1.987   2.565  15.490  0.1594  0.5816  0.2077
 7315TIP3    H143436   1.983   2.612  15.573  1.8137  0.7394  0.2305
 7315TIP3    H243437   1.912   2.598  15.440 -0.2544  1.2474  1.2390
 7316TIP3   OH243438   2.824   2.199  13.119  0.1046  0.8350 -0.2546
 7316TIP3    H143439   2.879   2.248  13.059 -0.1390  0.2651 -0.9544
 7316TIP3    H243440   2.735   2.215  13.089 -0.2801  2.7982  1.6313
 7317TIP3   OH243441   0.873   0.237  17.167  0.4039 -0.1001  0.0852
 7317TIP3    H143442   0.792   0.271  17.204  0.2312 -0.4734  0.0532
 7317TIP3    H243443   0.942   0.287  17.210  0.1115  1.4173 -1.0790
 7318TIP3   OH243444   4.024   0.211   1.216  0.3590  0.7691 -0.1700
 7318TIP3    H143445   4.022   0.183   1.125 -1.2169 -1.2236  0.4151
 7318TIP3    H243446   3.936   0.194   1.249  0.8363  1.6360  1.6855
 7319TIP3   OH243447   5.431   4.850  11.476 -0.0112  0.2887  0.4904
 7319TIP3    H143448   5.357   4.848  11.536 -0.6531  1.1311 -0.2511
 7319TIP3    H243449   5.440   4.759  11.446 -1.2942  0.3194 -0.0480
 7320TIP3   OH243450   4.788   4.784   0.343 -0.2228  0.0836 -0.5002
 7320TIP3    H143451   4.723   4.716   0.359  0.9206 -1.2189 -1.2251
 7320TIP3    H243452   4.795   4.789   0.248  1.9769 -1.0790 -0.4629
 7321TIP3   OH243453   2.001   3.449   5.327 -0.3038 -0.8755 -0.1759
 7321TIP3    H143454   2.077   3.479   5.377 -0.7098 -1.2428  0.7005
 7321TIP3    H243455   1.947   3.528   5.316 -1.1087 -1.1056  1.6468
 7322TIP3   OH243456   0.705   1.997   0.727  0.7157 -0.2009  0.2419
 7322TIP3    H143457   0.795   2.026   0.745  0.9614 -0.7521 -0.0648
 7322TIP3    H243458   0.659   2.077   0.703  1.5321 -0.1105 -1.1772
 7323TIP3   OH243459   5.140   6.277   2.554  0.0963  0.2986  0.2329
 7323TIP3    H143460   5.224   6.235   2.535  1.1645  0.3830  3.9093
 7323TIP3    H243461   5.089   6.266   2.474  2.3108 -3.0049 -0.9614
 7324TIP3   OH243462   4.685   2.543  16.636 -0.0667  0.2682 -0.1965
 7324TIP3    H143463   4.677   2.621  16.582 -0.7794 -0.6529 -1.4762
 7324TIP3    H243464   4.776   2.542  16.663 -0.1614  1.8139  0.2914
 7325TIP3   OH243465   0.651   0.622  17.288 -0.0123 -0.1550  0.4465
 7325TIP3    H143466   0.744   0.618  17.309 -0.4341 -1.2709  2.2983
 7325TIP3    H243467   0.641   0.565  17.212  0.8881  0.4401 -0.1378
 7326TIP3   OH243468   4.900   6.531   6.065  0.0533 -0.0035  0.0884
 7326TIP3    H143469   4.816   6.491   6.088 -0.3683  0.6617 -0.2528
 7326TIP3    H243470   4.937   6.560   6.148 -1.9499  3.3776  0.0145
 7327TIP3   OH243471   0.934   4.868   3.528 -0.2126 -0.2884  0.2536
 7327TIP3    H143472   0.954   4.840   3.618 -0.2322 -0.4429  0.2106
 7327TIP3    H243473   0.926   4.963   3.534  0.3055 -0.2458  0.3177
 7328TIP3   OH243474   1.344   2.221  15.529  0.1058  0.0257  0.0546
 7328TIP3    H143475   1.298   2.225  15.612  0.2391 -0.6591  0.1671
 7328TIP3    H243476   1.278   2.193  15.466  0.7705 -3.0882  0.5860
 7329TIP3   OH243477   0.675   0.279  15.724  0.2070 -0.4781 -0.1607
 7329TIP3    H143478   0.599   0.294  15.668 -0.8887 -2.5413  0.7047
 7329TIP3    H243479   0.679   0.357  15.780 -0.1636  0.4708 -1.4034
 7330TIP3   OH243480   1.078   5.201  11.622 -0.6304  0.5913  0.0614
 7330TIP3    H143481   1.079   5.140  11.548  0.3185  0.9471 -0.2268
 7330TIP3    H243482   1.008   5.262  11.602 -1.0317  0.0986 -0.0589
 7331TIP3   OH243483   2.103   5.418  14.710  0.3503 -0.0894 -0.2984
 7331TIP3    H143484   2.183   5.415  14.657 -1.0390  0.4527 -2.5556
 7331TIP3    H243485   2.041   5.469  14.657 -1.0498  0.7910  2.0293
 7332TIP3   OH243486   1.696   1.091  16.986  0.2713  0.7842  0.5254
 7332TIP3    H143487   1.659   1.129  17.065 -0.8617  0.4538  0.1658
 7332TIP3    H243488   1.790   1.106  16.995  0.1802  0.6494  1.9794
 7333TIP3   OH243489   5.868   1.672  13.196  0.5124  0.3966  0.2265
 7333TIP3    H143490   5.900   1.644  13.110 -0.3746  0.7073 -0.2224
 7333TIP3    H243491   5.820   1.596  13.229 -1.3827  1.1031 -0.7282
 7334TIP3   OH243492   3.940   1.279  15.953 -0.2737  0.2057  0.1232
 7334TIP3    H143493   4.022   1.231  15.939 -0.3610  0.0748  0.0635
 7334TIP3    H243494   3.951   1.359  15.902 -0.5015 -0.1708 -0.5285
 7335TIP3   OH243495   2.452   3.880   1.403  0.6398 -0.0032  0.6219
 7335TIP3    H143496   2.515   3.896   1.333 -0.5294 -2.3054 -1.0808
 7335TIP3    H243497   2.496   3.819   1.461  0.8753  0.3516  0.8221
 7336TIP3   OH243498   4.849   4.012  17.070  0.4308 -0.5724  0.4310
 7336TIP3    H143499   4.844   4.055  16.985 -0.6382 -0.3795  0.5838
 7336TIP3    H243500   4.758   4.004  17.099  0.7938  2.6927  3.1913
 7337TIP3   OH243501   4.292   2.454   1.368 -0.1801 -0.0838 -0.3634
 7337TIP3    H143502   4.278   2.446   1.274 -0.2450 -2.7272 -0.2257
 7337TIP3    H243503   4.207   2.433   1.407  0.3164 -0.9719  0.2804
 7338TIP3   OH243504   6.106   1.691   1.326 -0.0733  0.2781  0.5581
 7338TIP3    H143505   6.144   1.734   1.249  1.4216 -0.4056  0.8749
 7338TIP3    H243506   6.033   1.747   1.351 -0.2448  0.8134 -1.0214
 7339TIP3   OH243507   2.779   2.524   3.835 -0.1237  0.0887 -0.9780
 7339TIP3    H143508   2.855   2.563   3.791  0.2633  0.4284 -0.0367
 7339TIP3    H243509   2.713   2.519   3.767  1.0417 -1.1223 -2.0795
 7340TIP3   OH243510   2.677   5.662  16.903  0.1787 -0.2114  0.3106
 7340TIP3    H143511   2.624   5.689  16.828 -0.1330 -0.7279  0.3409
 7340TIP3    H243512   2.760   5.633  16.865  0.2180  0.0171  0.2160
 7341TIP3   OH243513   3.858   0.623  15.343 -0.2794 -0.3044 -0.0244
 7341TIP3    H143514   3.845   0.646  15.435 -0.9794  0.8482 -0.3854
 7341TIP3    H243515   3.930   0.560  15.344 -0.6446 -0.7438  1.3533
 7342TIP3   OH243516   4.923   4.478  13.075 -0.6961 -0.0730 -0.4078
 7342TIP3    H143517   4.901   4.392  13.039  1.7160 -1.6220  1.5194
 7342TIP3    H243518   4.923   4.465  13.169  1.6448  1.4796 -0.1155
 7343TIP3   OH243519   0.815   1.844  15.496  0.3290  0.3003  0.2175
 7343TIP3    H143520   0.769   1.854  15.580  1.0923 -0.3241  0.7287
 7343TIP3    H243521   0.753   1.799  15.440 -0.2185  0.7849  0.4221
 7344TIP3   OH243522   0.165   6.343  14.036  0.3410 -0.2435 -0.3178
 7344TIP3    H143523   0.151   6.328  13.943  0.7375 -1.8958 -0.1402
 7344TIP3    H243524   0.084   6.383  14.067 -0.7972 -2.0229 -0.8947
 7345TIP3   OH243525   1.361   2.926   4.285  0.7805 -0.4623 -0.2071
 7345TIP3    H143526   1.325   2.854   4.335 -0.6506 -0.4667 -1.2001
 7345TIP3    H243527   1.313   3.003   4.315  1.0226 -0.2105 -0.4569
 7346TIP3   OH243528   3.720   2.239   3.365  0.0438  0.4880 -0.3339
 7346TIP3    H143529   3.801   2.195   3.340  0.3507  0.4342  0.7052
 7346TIP3    H243530   3.734   2.265   3.457 -0.4437  2.0164 -0.6613
 7347TIP3   OH243531   0.468   3.540  12.102 -0.2531  0.5573  0.2326
 7347TIP3    H143532   0.467   3.515  12.010  0.4956  1.0088  0.0905
 7347TIP3    H243533   0.541   3.490  12.139  0.2840  1.3472  0.2787
 7348TIP3   OH243534   0.444   0.584   4.267  0.5841 -0.2030 -0.6948
 7348TIP3    H143535   0.501   0.660   4.257  1.3830 -0.8410 -1.0742
 7348TIP3    H243536   0.405   0.571   4.180 -0.6686  0.6161 -0.2894
 7349TIP3   OH243537   3.065   6.020  15.921 -0.0305 -0.2684 -0.0117
 7349TIP3    H143538   3.091   6.104  15.956  0.1328  0.1267 -1.0401
 7349TIP3    H243539   2.990   5.993  15.974 -0.9787  1.1891 -0.5713
 7350TIP3   OH243540   3.242   3.403  15.997 -0.0217 -0.2383  0.0320
 7350TIP3    H143541   3.164   3.458  16.001 -0.2621 -0.5972  0.3933
 7350TIP3    H243542   3.223   3.339  15.928 -0.3568 -0.7747  0.6039
 7351TIP3   OH243543   2.006   4.354   6.788  0.8221  0.1235 -0.0480
 7351TIP3    H143544   2.086   4.311   6.758  0.3838 -2.3201  1.9979
 7351TIP3    H243545   1.941   4.284   6.792 -0.5657  1.4270  1.2957
 7352TIP3   OH243546   1.591   6.544  16.276  0.8969 -0.0441  0.0866
 7352TIP3    H143547   1.588   6.558  16.371  1.2963  0.6800 -0.0053
 7352TIP3    H243548   1.683   6.523  16.257  0.6560 -1.0830 -0.0297
 7353TIP3   OH243549   6.465   1.727  10.751  0.4183 -0.2032  0.2977
 7353TIP3    H143550   6.391   1.669  10.770 -0.3817  0.5089 -0.6034
 7353TIP3    H243551   6.461   1.794  10.820 -0.4302  0.4379 -0.3549
 7354TIP3   OH243552   2.337   1.634  17.031 -0.3143  0.9227 -0.0978
 7354TIP3    H143553   2.396   1.666  16.962  0.0394  0.9068  0.1978
 7354TIP3    H243554   2.396   1.601  17.099 -0.6184 -1.4558 -0.8733
 7355TIP3   OH243555   3.348   6.263  15.487 -0.3193  0.6426 -0.4908
 7355TIP3    H143556   3.356   6.264  15.582 -1.4353  0.4173 -0.3826
 7355TIP3    H243557   3.331   6.355  15.464  4.8749  1.7718 -1.0118
 7356TIP3   OH243558   0.409   5.428   0.705  0.8237 -0.1813 -0.7833
 7356TIP3    H143559   0.387   5.344   0.744 -0.0674  0.8779  1.1377
 7356TIP3    H243560   0.423   5.487   0.779  0.6718  1.5526 -2.0538
 7357TIP3   OH243561   3.197   5.726   0.428  0.1616 -0.2418 -0.0825
 7357TIP3    H143562   3.264   5.795   0.432 -0.7498  0.6004  1.0985
 7357TIP3    H243563   3.129   5.762   0.372 -0.3946 -0.1008  0.6753
 7358TIP3   OH243564   0.239   6.536   2.553  0.3280 -0.2244 -0.1158
 7358TIP3    H143565   0.206   6.583   2.477  0.1375 -0.3125 -0.0876
 7358TIP3    H243566   0.332   6.523   2.534  0.4040  0.2600 -0.0700
 7359TIP3   OH243567   1.767   2.205  14.451 -0.0751 -0.1835  0.0357
 7359TIP3    H143568   1.764   2.187  14.356  1.6815  1.4741 -0.3938
 7359TIP3    H243569   1.697   2.268  14.465  0.6487  0.7625 -0.4866
 7360TIP3   OH243570   5.966   6.515  15.936 -0.2474  0.0049  0.1355
 7360TIP3    H143571   5.922   6.486  16.016  1.0003  1.8507  1.5952
 7360TIP3    H243572   6.015   6.593  15.963 -0.5971  1.3290 -2.6797
 7361TIP3   OH243573   5.679   4.337   3.869 -0.4364  0.6524 -0.0013
 7361TIP3    H143574   5.727   4.275   3.814  0.1290  1.3507 -0.3127
 7361TIP3    H243575   5.620   4.382   3.808 -1.0774  0.2106  0.2791
 7362TIP3   OH243576   5.550   4.044  12.561 -0.9921  0.0574 -0.0755
 7362TIP3    H143577   5.622   4.106  12.545  1.7209 -2.4324  1.5175
 7362TIP3    H243578   5.478   4.077  12.507  1.3642  2.6387 -1.9631
 7363TIP3   OH243579   0.850   4.416  13.416  0.2604  0.4270  0.0208
 7363TIP3    H143580   0.853   4.466  13.498 -1.3383 -0.7605  0.8548
 7363TIP3    H243581   0.925   4.449  13.366  1.2129  1.3048  1.8832
 7364TIP3   OH243582   3.037   3.290  17.391  0.3215 -0.1006  0.1300
 7364TIP3    H143583   3.053   3.241  17.472 -0.6983  0.0787  0.4680
 7364TIP3    H243584   3.037   3.382  17.418  1.5053  0.0627 -0.3686
 7365TIP3   OH243585   1.790   2.682  17.172 -0.7079  0.0753 -0.0808
 7365TIP3    H143586   1.846   2.604  17.174  0.4668  0.9097  0.4698
 7365TIP3    H243587   1.813   2.725  17.089 -0.6086  0.3692  0.1000
 7366TIP3   OH243588   4.915   1.292   1.507  0.3111  0.2169 -0.1131
 7366TIP3    H143589   4.918   1.266   1.599 -0.3299  0.2343 -0.0833
 7366TIP3    H243590   4.822   1.310   1.490  0.4511  0.4006 -0.7093
 7367TIP3   OH243591   4.553   3.083  12.543 -0.0784 -0.8064 -0.4700
 7367TIP3    H143592   4.629   3.139  12.562 -0.6300 -0.4051  0.6916
 7367TIP3    H243593   4.499   3.090  12.622 -1.5355 -0.7504 -1.4323
 7368TIP3   OH243594   4.587   6.717  12.496 -0.0451 -0.2458  0.2170
 7368TIP3    H143595   4.541   6.671  12.426  0.5058 -1.2271  0.4761
 7368TIP3    H243596   4.541   6.692  12.576  1.5905 -2.2418  0.6344
 7369TIP3   OH243597   2.420   4.326  12.995 -0.5207 -0.6183 -0.3464
 7369TIP3    H143598   2.489   4.341  13.059 -1.5208  1.9669  0.2486
 7369TIP3    H243599   2.467   4.307  12.913  0.9487  1.1012  0.0277
 7370TIP3   OH243600   0.854   4.466  16.845 -0.2811 -0.3897 -0.3831
 7370TIP3    H143601   0.919   4.436  16.909 -1.0183 -1.7619 -0.2232
 7370TIP3    H243602   0.901   4.471  16.762 -0.0566 -1.8888 -0.3763
 7371TIP3   OH243603   3.223   1.090  15.898 -0.1546  0.2066  0.4845
 7371TIP3    H143604   3.289   1.145  15.941  0.4891  0.4209 -0.7395
 7371TIP3    H243605   3.244   1.095  15.805 -1.6320 -0.0927  0.1024
 7372TIP3   OH243606   5.114   5.590   3.122 -0.2571  0.1465 -0.5208
 7372TIP3    H143607   5.111   5.494   3.119 -0.4398  0.0899  0.8103
 7372TIP3    H243608   5.127   5.610   3.215 -1.3098  1.4324 -0.6276
 7373TIP3   OH243609   5.895   5.834  14.979 -0.4313  0.4568 -0.0331
 7373TIP3    H143610   5.906   5.744  15.010  0.9195  0.1703 -1.2777
 7373TIP3    H243611   5.951   5.886  15.035  3.8230 -0.3355 -3.0608
 7374TIP3   OH243612   3.526   6.666  16.481 -0.1183 -0.8223 -0.1062
 7374TIP3    H143613   3.585   6.699  16.414  1.0462 -1.7709  0.4106
 7374TIP3    H243614   3.447   6.642  16.434 -0.3009  0.8697 -0.7583
 7375TIP3   OH243615   2.201   6.352   5.878 -0.1360  0.0367 -0.1909
 7375TIP3    H143616   2.146   6.422   5.914 -0.0599 -0.7415  1.5264
 7375TIP3    H243617   2.139   6.283   5.854  0.0204 -1.5576  3.3275
 7376TIP3   OH243618   2.315   1.328  13.155 -0.2000 -0.2040 -0.0693
 7376TIP3    H143619   2.352   1.334  13.243 -0.3222 -0.5005  0.0032
 7376TIP3    H243620   2.391   1.313  13.099  0.1340  1.9647 -0.2682
 7377TIP3   OH243621   0.629   2.957  12.198 -0.0426  0.2708  0.3084
 7377TIP3    H143622   0.602   3.002  12.278 -1.1200  0.1314  0.0394
 7377TIP3    H243623   0.551   2.958  12.142  0.4027 -0.4913 -0.3499
 7378TIP3   OH243624   6.728   2.248  14.513 -0.0224 -0.0390 -0.0454
 7378TIP3    H143625   6.645   2.287  14.539  0.5967  2.4926 -1.4967
 7378TIP3    H243626   6.737   2.170  14.568 -2.4041  0.6952  1.5132
 7379TIP3   OH243627   4.101   2.213  13.974  0.3095  0.2180  0.4329
 7379TIP3    H143628   4.053   2.146  13.924  2.3792 -1.6807  0.8537
 7379TIP3    H243629   4.186   2.174  13.992  1.1159  2.4537  1.9527
 7380TIP3   OH243630   3.250   5.191   6.058  0.0832 -0.0087 -0.3250
 7380TIP3    H143631   3.170   5.222   6.015 -0.4250  0.4208  0.8738
 7380TIP3    H243632   3.223   5.111   6.102  0.5820 -0.4123 -0.7371
 7381TIP3   OH243633   6.439   2.161  17.443 -0.6039  0.3183 -0.7187
 7381TIP3    H143634   6.383   2.226  17.485 -2.2181 -1.0092 -0.7401
 7381TIP3    H243635   6.515   2.156  17.501 -2.6263 -1.2635  2.0395
 7382TIP3   OH243636   1.034   0.572  15.414  0.1568  0.5762 -0.1741
 7382TIP3    H143637   0.964   0.514  15.383 -0.7780  2.0806 -0.9642
 7382TIP3    H243638   1.078   0.521  15.482 -1.5245 -0.5148  0.1665
 7383TIP3   OH243639   1.048   6.547  15.058 -0.2738  0.0689  0.3203
 7383TIP3    H143640   1.090   6.631  15.076  0.6239 -0.2610 -0.1511
 7383TIP3    H243641   0.955   6.567  15.051 -0.0628  1.0348  0.1547
 7384TIP3   OH243642   3.908   6.762   3.131 -0.7452 -0.3543 -0.1362
 7384TIP3    H143643   3.853   6.784   3.206 -1.9840  0.1101 -1.1344
 7384TIP3    H243644   3.845   6.741   3.061  0.3416  0.7887 -1.5000
 7385TIP3   OH243645   5.895   6.463  13.914  0.6730  0.1265 -0.2297
 7385TIP3    H143646   5.834   6.428  13.849  0.4376  0.5954 -0.2632
 7385TIP3    H243647   5.843   6.524  13.966  0.5501 -1.1393  1.2001
 7386TIP3   OH243648   6.134   0.881   4.731 -0.4360 -0.4543  0.0720
 7386TIP3    H143649   6.055   0.917   4.690  0.1516  0.1987 -0.5312
 7386TIP3    H243650   6.121   0.893   4.825 -0.7743  0.2462 -0.0590
 7387TIP3   OH243651   0.470   5.772   6.106 -0.3893  0.0844  0.1268
 7387TIP3    H143652   0.501   5.839   6.166 -0.9481  0.2045  0.2827
 7387TIP3    H243653   0.463   5.817   6.022 -0.8188  0.2419  0.2431
 7388TIP3   OH243654   2.938   2.912  14.631 -0.0924  0.5420 -0.3007
 7388TIP3    H143655   2.997   2.987  14.642  1.8027 -0.7604 -1.0813
 7388TIP3    H243656   2.950   2.885  14.540 -1.6812  0.0067 -0.3885
 7389TIP3   OH243657   1.637   3.162   1.358  0.0974 -0.0272  0.2319
 7389TIP3    H143658   1.716   3.217   1.358  2.4002 -3.1015  1.1075
 7389TIP3    H243659   1.634   3.124   1.270 -1.0001  0.7215 -0.0877
 7390TIP3   OH243660   2.371   5.187   5.829  0.8018  0.3891  0.1225
 7390TIP3    H143661   2.314   5.192   5.752  0.6344  0.0217  0.2201
 7390TIP3    H243662   2.382   5.093   5.845  1.8987  0.4536 -0.2268
 7391TIP3   OH243663   5.055   2.380  16.052  0.1647  0.8050  1.1028
 7391TIP3    H143664   5.067   2.286  16.066 -2.0695  0.5086  1.2668
 7391TIP3    H243665   5.024   2.386  15.962 -2.0593  1.1249  1.8461
 7392TIP3   OH243666   1.945   4.025  12.510 -0.3404 -0.1966 -0.2265
 7392TIP3    H143667   1.905   3.941  12.488 -0.7559 -0.4328  1.3020
 7392TIP3    H243668   1.895   4.056  12.585  0.5942  0.8303 -0.0045
 7393TIP3   OH243669   1.023   1.340  11.970 -0.5214 -0.0970  0.4684
 7393TIP3    H143670   0.929   1.355  11.961 -0.2238  1.9713  0.2409
 7393TIP3    H243671   1.058   1.351  11.881 -0.1797 -2.1733  0.2960
 7394TIP3   OH243672   4.285   5.598  15.489  0.1360 -0.4404  0.2559
 7394TIP3    H143673   4.261   5.623  15.400  1.1097 -1.5280 -0.3258
 7394TIP3    H243674   4.201   5.590  15.535 -0.4743 -1.4418 -0.9939
 7395TIP3   OH243675   4.016   5.389  15.519  0.0429 -0.5253 -0.2336
 7395TIP3    H143676   4.055   5.346  15.595  0.7751 -0.4394 -0.5446
 7395TIP3    H243677   3.997   5.478  15.548  4.5257  1.0326 -1.3204
 7396TIP3   OH243678   0.782   2.491  16.730  0.6773 -0.0024  0.3056
 7396TIP3    H143679   0.825   2.511  16.813 -1.0685  0.8010  1.0622
 7396TIP3    H243680   0.853   2.498  16.665  2.3209 -1.7569  1.7909
 7397TIP3   OH243681   0.967   3.620  16.783  0.5154  0.1949 -0.0657
 7397TIP3    H143682   1.056   3.598  16.758  0.8725  2.7577 -1.3230
 7397TIP3    H243683   0.974   3.651  16.874  0.4694 -1.8290  0.6689
 7398TIP3   OH243684   0.678   6.633   1.823  0.1069 -0.0090 -0.5256
 7398TIP3    H143685   0.597   6.630   1.771 -2.0248 -1.0573  2.6133
 7398TIP3    H243686   0.653   6.677   1.904  3.1068  0.9118  0.0339
 7399TIP3   OH243687   5.998   1.918  15.925  0.2348 -0.1290  0.1927
 7399TIP3    H143688   6.055   1.935  15.850 -1.1544  1.1489 -0.6149
 7399TIP3    H243689   6.026   1.980  15.992  0.3427 -0.0922  0.1125
 7400TIP3   OH243690   4.335   5.446  12.838 -0.5208  0.4282  0.3880
 7400TIP3    H143691   4.307   5.434  12.748  0.0130 -0.4336  0.3331
 7400TIP3    H243692   4.430   5.456  12.833 -0.5322  0.7998  0.8170
 7401TIP3   OH243693   2.953   4.491  15.021 -1.1035 -0.4596 -0.6463
 7401TIP3    H143694   2.944   4.525  14.932 -1.1198  0.1750 -0.4105
 7401TIP3    H243695   3.023   4.426  15.016 -0.0529  0.6453 -0.8300
 7402TIP3   OH243696   4.128   3.877   2.473 -0.4782  0.1750 -0.3643
 7402TIP3    H143697   4.050   3.865   2.526 -0.4069 -1.1837 -0.5267
 7402TIP3    H243698   4.176   3.948   2.516 -1.9603  1.2933 -0.4812
 7403TIP3   OH243699   6.537   4.715   0.250  0.1329 -0.5228 -0.5499
 7403TIP3    H143700   6.497   4.630   0.268  0.6334 -0.8591 -0.9578
 7403TIP3    H243701   6.567   4.708   0.159  1.2124 -0.3419 -0.2325
 7404TIP3   OH243702   2.455   6.028   4.144 -0.3793  0.0076  0.7330
 7404TIP3    H143703   2.515   6.066   4.080 -1.7245  1.0152 -0.0031
 7404TIP3    H243704   2.446   5.936   4.116  1.2392 -0.3188  1.2204
 7405TIP3   OH243705   0.548   2.989   3.158  0.3370  0.0200 -0.0146
 7405TIP3    H143706   0.517   2.976   3.248  0.5511 -0.7539 -0.0406
 7405TIP3    H243707   0.476   2.955   3.103 -0.8343  2.6203 -0.2436
 7406TIP3   OH243708   1.819   1.691  11.899 -0.3015 -0.1075  0.1555
 7406TIP3    H143709   1.864   1.775  11.899 -3.8891  2.0033 -0.1414
 7406TIP3    H243710   1.820   1.664  11.991  1.4215 -0.1381  0.1662
 7407TIP3   OH243711   5.837   4.619   3.340  0.2076 -0.1979  0.1647
 7407TIP3    H143712   5.791   4.687   3.291  0.4681 -0.4286 -0.4022
 7407TIP3    H243713   5.884   4.568   3.274  1.6561  0.2979  0.7699
 7408TIP3   OH243714   4.511   1.868   6.287 -0.7576  0.5392  0.0462
 7408TIP3    H143715   4.505   1.927   6.362 -0.7858 -0.0577  0.5234
 7408TIP3    H243716   4.425   1.874   6.245 -0.4673  1.4987 -0.4217
 7409TIP3   OH243717   2.345   3.243  15.838  0.0158 -0.2035  0.1714
 7409TIP3    H143718   2.432   3.269  15.807 -0.1140 -1.2390 -1.1485
 7409TIP3    H243719   2.292   3.234  15.759 -1.0081 -0.6104  0.8760
 7410TIP3   OH243720   2.145   2.195  16.984 -0.0104  0.3664  0.4345
 7410TIP3    H143721   2.122   2.231  16.898 -0.1680 -0.1166  0.2722
 7410TIP3    H243722   2.150   2.272  17.041  0.9965  0.7957 -0.1990
 7411TIP3   OH243723   2.647   3.926  17.319  0.3990  0.0778  0.5471
 7411TIP3    H143724   2.696   3.926  17.401 -0.3795 -2.1490  1.1086
 7411TIP3    H243725   2.557   3.905  17.345  0.0224 -0.1102 -0.8115
 7412TIP3   OH243726   0.119   3.266   4.875  0.0629  0.0832  0.5219
 7412TIP3    H143727   0.099   3.255   4.782  1.3874 -2.3408  0.4517
 7412TIP3    H243728   0.181   3.339   4.877  0.9691 -0.6022 -0.6762
 7413TIP3   OH243729   5.161   2.821   0.409 -0.1073  0.2384 -0.0581
 7413TIP3    H143730   5.107   2.780   0.476  0.6566 -0.1565  0.3285
 7413TIP3    H243731   5.217   2.882   0.458  0.4770 -0.0756 -0.3239
 7414TIP3   OH243732   0.135   1.800   2.735  0.1954  0.8597 -0.0650
 7414TIP3    H143733   0.131   1.895   2.747 -1.6421  0.6656  1.2286
 7414TIP3    H243734   0.045   1.770   2.746  0.6468 -1.0045 -0.9275
 7415TIP3   OH243735   2.455   6.630  10.584 -0.5305 -0.1775 -0.0092
 7415TIP3    H143736   2.464   6.563  10.516  0.2177 -2.9236  2.5899
 7415TIP3    H243737   2.363   6.627  10.608 -0.5888  0.0480 -0.2072
 7416TIP3   OH243738   6.156   3.682  17.136  0.0928  0.2841 -0.3607
 7416TIP3    H143739   6.070   3.712  17.106 -0.0661 -0.1995 -0.4066
 7416TIP3    H243740   6.148   3.586  17.138  0.1618  0.2847  1.0308
 7417TIP3   OH243741   6.546   3.430   0.793 -0.1394 -0.3926 -0.4398
 7417TIP3    H143742   6.572   3.516   0.826 -1.7113  0.8103 -2.1372
 7417TIP3    H243743   6.484   3.449   0.723  1.2700 -2.8482 -2.5114
 7418TIP3   OH243744   0.946   4.953   4.184  0.2371  0.7226 -0.3786
 7418TIP3    H143745   0.972   4.983   4.271  1.9587 -1.6870  0.0648
 7418TIP3    H243746   0.900   4.870   4.201 -1.1585  1.1967 -1.6711
 7419TIP3   OH243747   0.753   5.169  13.899 -0.4570 -0.1240  0.0795
 7419TIP3    H143748   0.766   5.076  13.918 -1.1034 -0.6166 -1.7155
 7419TIP3    H243749   0.678   5.194  13.953  0.1403 -0.4370  1.0961
 7420TIP3   OH243750   0.458   5.122  11.957 -0.1534  0.6367 -0.1721
 7420TIP3    H143751   0.521   5.146  12.024  2.1031 -2.8341 -0.8053
 7420TIP3    H243752   0.386   5.081  12.006  0.0473  0.8494  0.3095
 7421TIP3   OH243753   5.552   5.238  14.864 -0.0673 -0.3069  0.4037
 7421TIP3    H143754   5.620   5.183  14.825 -1.0392 -0.1477 -1.7093
 7421TIP3    H243755   5.475   5.222  14.809 -1.4163  0.3802  2.0118
 7422TIP3   OH243756   4.407   6.027   1.887 -0.1075 -0.2733 -0.3657
 7422TIP3    H143757   4.365   6.084   1.823 -0.6691 -1.8817 -1.4831
 7422TIP3    H243758   4.335   5.996   1.942  0.3920  1.2534  1.2518
 7423TIP3   OH243759   5.202   2.554  14.421 -0.0680  0.2997 -0.1395
 7423TIP3    H143760   5.261   2.497  14.470  0.2581  0.8914  0.1719
 7423TIP3    H243761   5.179   2.624  14.482  0.6298  1.2431 -0.9154
 7424TIP3   OH243762   0.823   2.642  13.822 -0.2218 -0.5198 -0.5526
 7424TIP3    H143763   0.850   2.580  13.755 -1.2739 -0.8545 -0.6872
 7424TIP3    H243764   0.750   2.599  13.867 -0.9498  0.5963 -0.6225
 7425TIP3   OH243765   1.270   5.761   4.842  0.0900  0.2484 -0.5134
 7425TIP3    H143766   1.352   5.716   4.862  0.3445  0.8702 -0.1295
 7425TIP3    H243767   1.206   5.718   4.899 -0.4293 -2.0024 -2.6311
 7426TIP3   OH243768   5.731   4.930  16.478  0.1245  0.0776  0.1730
 7426TIP3    H143769   5.710   5.002  16.537  0.6954  1.0413 -0.7630
 7426TIP3    H243770   5.724   4.851  16.533 -0.6107  0.8210  1.1840
 7427TIP3   OH243771   0.610   1.620   5.327  0.5691  0.4853  0.6107
 7427TIP3    H143772   0.599   1.525   5.325 -0.5780  0.6101  0.4346
 7427TIP3    H243773   0.677   1.635   5.394  2.8023 -0.6105 -1.2181
 7428TIP3   OH243774   3.549   0.754   4.373 -0.2715 -0.0750 -0.2844
 7428TIP3    H143775   3.525   0.664   4.353 -0.7379  0.1999 -1.0135
 7428TIP3    H243776   3.590   0.750   4.459 -1.1062 -0.8490  0.0885
 7429TIP3   OH243777   2.741   3.703  14.556 -0.5508 -0.2313  0.9406
 7429TIP3    H143778   2.753   3.694  14.650  1.7471 -1.2419  0.6329
 7429TIP3    H243779   2.806   3.768  14.529 -1.4955  0.3992  0.0850
 7430TIP3   OH243780   5.904   5.337  11.790 -0.8694 -0.1782 -0.3117
 7430TIP3    H143781   5.917   5.341  11.695 -1.5334 -0.1086 -0.4085
 7430TIP3    H243782   5.879   5.246  11.807  0.6496 -0.5630  0.0028
 7431TIP3   OH243783   2.787   0.114   3.090 -0.1985  0.0425 -0.0548
 7431TIP3    H143784   2.777   0.179   3.020  0.1482 -0.2799 -0.4118
 7431TIP3    H243785   2.862   0.060   3.062 -0.0867 -0.1185  0.5429
 7432TIP3   OH243786   1.028   3.949  14.790  0.8159 -0.2503  1.1708
 7432TIP3    H143787   1.115   3.982  14.769  0.9894 -1.1843  0.3495
 7432TIP3    H243788   0.977   4.027  14.811  1.7386  0.3399  1.2564
 7433TIP3   OH243789   1.613   1.562   3.443  0.1959 -0.1530  0.2257
 7433TIP3    H143790   1.604   1.583   3.536  1.0476  0.5981  0.1523
 7433TIP3    H243791   1.700   1.592   3.419  0.1311 -0.6672 -0.7401
 7434TIP3   OH243792   5.470   0.618  16.525 -0.3341 -0.0473 -0.4436
 7434TIP3    H143793   5.464   0.699  16.575 -0.0826  0.6911 -1.5553
 7434TIP3    H243794   5.484   0.550  16.590 -0.4427  0.8179  0.5091
 7435TIP3   OH243795   0.994   6.333   1.003 -0.0781 -0.3997 -0.2165
 7435TIP3    H143796   0.912   6.375   1.027  0.9935  0.8519  1.5219
 7435TIP3    H243797   1.004   6.351   0.910 -1.6907 -0.5026 -0.4405
 7436TIP3   OH243798   3.597   4.626  16.725  0.6035  0.3885 -0.1646
 7436TIP3    H143799   3.619   4.679  16.648  0.9976 -0.1087 -0.3950
 7436TIP3    H243800   3.616   4.683  16.799  0.6411  0.7144 -0.4181
 7437TIP3   OH243801   3.400   0.454  13.471  0.2844  1.0692 -0.5593
 7437TIP3    H143802   3.385   0.541  13.509 -0.3004  0.7030  0.0876
 7437TIP3    H243803   3.323   0.404  13.498  1.3225 -0.0755  0.3912
 7438TIP3   OH243804   3.485   3.200  17.344  0.3193 -0.4317  0.3197
 7438TIP3    H143805   3.473   3.260  17.419 -1.6375 -0.3821  0.0127
 7438TIP3    H243806   3.519   3.120  17.383 -0.3520 -0.2878  1.2513
 7439TIP3   OH243807   0.378   2.913   3.607 -0.0207  0.2791 -0.1491
 7439TIP3    H143808   0.459   2.930   3.654  1.2966 -1.8438 -1.4470
 7439TIP3    H243809   0.312   2.899   3.675  1.1260  0.2816  0.9841
 7440TIP3   OH243810   5.409   2.450  11.245  0.1715 -0.2352 -0.3984
 7440TIP3    H143811   5.390   2.397  11.167  0.9393 -0.3558 -0.5061
 7440TIP3    H243812   5.327   2.496  11.262  0.0929  0.0657 -1.4926
 7441TIP3   OH243813   1.715   5.185   1.475 -0.4548  0.0142 -0.1232
 7441TIP3    H143814   1.666   5.213   1.552  0.6898  2.3117 -0.1235
 7441TIP3    H243815   1.807   5.186   1.503 -0.1040 -0.1811 -1.2135
 7442TIP3   OH243816   3.725   4.694  15.885 -0.6754 -0.5338 -0.4184
 7442TIP3    H143817   3.736   4.599  15.887 -3.4596 -0.9557 -1.1856
 7442TIP3    H243818   3.690   4.712  15.798  1.8642  1.5540 -1.1568
 7443TIP3   OH243819   5.199   2.028   2.645  0.5044 -0.0257  0.4430
 7443TIP3    H143820   5.290   2.024   2.673  1.1229  0.8620 -1.3097
 7443TIP3    H243821   5.149   2.037   2.726  2.0428  0.4569  1.3673
 7444TIP3   OH243822   6.675   2.909   1.090  0.5534  0.2652  0.4011
 7444TIP3    H143823   6.695   2.875   1.177  0.3263 -0.5630  0.1407
 7444TIP3    H243824   6.639   2.997   1.106 -1.6610 -0.7420  1.3417
 7445TIP3   OH243825   3.099   3.619  14.102  0.6071 -0.4449  0.7305
 7445TIP3    H143826   3.113   3.645  14.011 -0.6930  1.6450  1.0575
 7445TIP3    H243827   3.005   3.603  14.108  0.7904 -1.3147  1.5577
 7446TIP3   OH243828   1.722   6.694   0.630  0.4926  0.1034 -0.0898
 7446TIP3    H143829   1.656   6.676   0.697 -0.8191  2.8151 -0.5194
 7446TIP3    H243830   1.703   6.631   0.561 -0.3217 -0.5216  0.6754
 7447TIP3   OH243831   0.826   4.468   1.079  0.0636  0.4526  0.3999
 7447TIP3    H143832   0.796   4.428   0.998  1.0742 -0.2918  0.3733
 7447TIP3    H243833   0.872   4.548   1.051  1.8429 -0.6241  0.0491
 7448TIP3   OH243834   3.494   2.410   5.975  0.1155  0.2936  0.2980
 7448TIP3    H143835   3.430   2.467   6.015 -1.0155  0.2443 -1.3282
 7448TIP3    H243836   3.540   2.465   5.912  0.6505 -0.0270  0.3962
 7449TIP3   OH243837   4.276   5.193   4.802  0.0352 -0.3069  0.2287
 7449TIP3    H143838   4.349   5.247   4.832 -0.8078  1.4242 -0.6732
 7449TIP3    H243839   4.294   5.106   4.837  1.3520  0.5954  1.9219
 7450TIP3   OH243840   0.564   5.879  17.393  0.2693  0.0257 -0.1227
 7450TIP3    H143841   0.494   5.944  17.393  0.2671  0.0274  0.6385
 7450TIP3    H243842   0.619   5.903  17.318 -0.1166  0.4839 -0.2613
 7451TIP3   OH243843   5.531   5.129   3.517 -0.0812 -0.0908  0.1834
 7451TIP3    H143844   5.447   5.174   3.507 -0.1420 -0.3505 -0.5983
 7451TIP3    H243845   5.512   5.038   3.493 -0.0811 -0.6930  2.2504
 7452TIP3   OH243846   3.037   6.629  12.329 -0.4269  0.8464  0.6045
 7452TIP3    H143847   3.016   6.685  12.404 -1.2269  0.1268  0.9398
 7452TIP3    H243848   3.054   6.689  12.257 -0.5981  1.5285  1.1262
 7453TIP3   OH243849   4.407   6.196   1.322 -0.2884 -0.6712 -0.1681
 7453TIP3    H143850   4.487   6.181   1.271  0.7698 -0.7003  1.4075
 7453TIP3    H243851   4.396   6.117   1.374 -1.5109 -0.7700 -0.5486
 7454TIP3   OH243852   4.236   2.825   1.980  0.2521  0.2969  0.5956
 7454TIP3    H143853   4.158   2.835   2.034  1.0910  1.1052  1.7123
 7454TIP3    H243854   4.309   2.832   2.042  1.2630  1.6552 -0.6819
 7455TIP3   OH243855   1.295   4.423   2.299 -0.3471  0.6867 -0.3535
 7455TIP3    H143856   1.322   4.490   2.361  0.9585  0.1538 -0.3193
 7455TIP3    H243857   1.223   4.377   2.343 -1.3075  2.0805 -0.4172
 7456TIP3   OH243858   1.970   4.795   5.430 -0.5294 -0.5660  0.2902
 7456TIP3    H143859   1.930   4.882   5.427 -0.3177 -0.3847  1.7545
 7456TIP3    H243860   2.026   4.792   5.352 -0.2343  0.7721  0.4214
 7457TIP3   OH243861   2.711   0.698  13.058 -0.1125 -0.2108  0.1143
 7457TIP3    H143862   2.622   0.728  13.041 -1.9967 -3.4268  2.9831
 7457TIP3    H243863   2.738   0.742  13.138  2.3629  3.0644 -2.2314
 7458TIP3   OH243864   3.933   3.145   4.692 -0.5484 -0.5158  0.1515
 7458TIP3    H143865   3.859   3.090   4.664  0.0073 -0.0031 -2.5906
 7458TIP3    H243866   4.009   3.106   4.648 -0.3087  3.0838 -3.1815
 7459TIP3   OH243867   1.205   3.411   5.097 -0.2957 -0.3344  0.1643
 7459TIP3    H143868   1.266   3.338   5.083  0.4926  0.2339  0.5102
 7459TIP3    H243869   1.121   3.380   5.065  0.6324 -0.3522 -2.4351
 7460TIP3   OH243870   2.785   3.460   2.527  0.3226  0.5311 -0.3351
 7460TIP3    H143871   2.832   3.422   2.602 -2.8126 -0.7164  1.1904
 7460TIP3    H243872   2.838   3.437   2.451  1.6866 -1.5922  1.1466
 7461TIP3   OH243873   0.528   5.479   2.559  0.1987  0.6656  0.1238
 7461TIP3    H143874   0.617   5.465   2.528 -0.6974  1.8337 -3.4623
 7461TIP3    H243875   0.491   5.390   2.567  1.7789  0.1319  2.3847
 7462TIP3   OH243876   1.937   3.358  12.319 -0.4336 -0.2319  0.1467
 7462TIP3    H143877   1.901   3.445  12.303  1.4690  0.5748  0.0104
 7462TIP3    H243878   1.893   3.328  12.398 -2.1116  0.2448 -0.5442
 7463TIP3   OH243879   4.296   2.282  13.450  0.6564  0.7189 -0.4550
 7463TIP3    H143880   4.258   2.351  13.504  0.4970 -0.6191  1.2353
 7463TIP3    H243881   4.248   2.286  13.367 -0.3003  1.7068  0.1347
 7464TIP3   OH243882   0.586   6.247  10.991 -0.4087  0.1704 -0.2431
 7464TIP3    H143883   0.600   6.235  10.897 -0.3290 -2.0785  0.0205
 7464TIP3    H243884   0.509   6.194  11.010  0.6164 -0.8503  1.2543
 7465TIP3   OH243885   0.297   0.132   3.792  0.2357 -0.2928 -0.4593
 7465TIP3    H143886   0.332   0.151   3.705 -1.0562  0.7620 -0.7839
 7465TIP3    H243887   0.267   0.216   3.825  0.6066 -0.6950  0.9903
 7466TIP3   OH243888   1.521   4.998  16.816 -0.8602  0.4411 -0.0923
 7466TIP3    H143889   1.448   4.977  16.757 -0.3599  1.8624 -1.2654
 7466TIP3    H243890   1.479   5.013  16.901 -1.6528 -1.1309 -0.1638
 7467TIP3   OH243891   2.069   6.431  16.017 -0.0113 -0.3610 -0.2577
 7467TIP3    H143892   2.030   6.468  15.937  4.3097  0.7744 -2.1630
 7467TIP3    H243893   2.109   6.349  15.988  1.7387  0.1339  0.6305
 7468TIP3   OH243894   1.651   4.313  16.005 -0.4580 -0.5720  0.2908
 7468TIP3    H143895   1.590   4.311  15.932 -0.4471 -0.6066  0.2820
 7468TIP3    H243896   1.713   4.242  15.986 -0.1864 -0.2869  0.0998
 7469TIP3   OH243897   4.242   1.319   2.872  0.7414 -0.5663  0.0737
 7469TIP3    H143898   4.183   1.250   2.842  1.8321 -1.8317  0.7380
 7469TIP3    H243899   4.285   1.350   2.792  1.0058 -1.4096 -0.1276
 7470TIP3   OH243900   4.996   3.786  12.228 -0.3393 -0.1340 -0.1823
 7470TIP3    H143901   4.922   3.793  12.288  0.2816 -0.1180  0.6042
 7470TIP3    H243902   4.961   3.744  12.150 -1.3935  0.7474 -0.2077
 7471TIP3   OH243903   1.438   1.437  14.304 -0.0374 -0.2914 -0.7655
 7471TIP3    H143904   1.379   1.503  14.341  0.5401 -1.1381  1.9438
 7471TIP3    H243905   1.524   1.461  14.339  1.1691  0.4231 -3.9348
 7472TIP3   OH243906   2.405   4.973  12.029 -0.2993 -0.3175  0.0107
 7472TIP3    H143907   2.491   4.957  11.990 -0.9319 -1.4466 -0.9918
 7472TIP3    H243908   2.414   4.942  12.119  0.6922  0.7509  0.3105
 7473TIP3   OH243909   1.125   1.976  16.075 -0.6794 -0.0981 -0.1935
 7473TIP3    H143910   1.199   1.970  16.015  0.6164 -0.1971  1.3312
 7473TIP3    H243911   1.078   2.054  16.048  0.9798  0.9570 -0.1701
 7474TIP3   OH243912   4.954   0.541   0.677 -0.2289  0.2377 -0.4561
 7474TIP3    H143913   5.013   0.476   0.717 -2.1397 -2.5173 -1.7699
 7474TIP3    H243914   5.012   0.610   0.646  1.7078  0.6052  3.3352
 7475TIP3   OH243915   1.102   5.174   4.949  0.1941  0.0941 -0.4221
 7475TIP3    H143916   1.027   5.160   4.891  1.0621 -1.1422 -1.3003
 7475TIP3    H243917   1.076   5.133   5.031 -0.2476  0.0028 -0.6039
 7476TIP3   OH243918   1.878   1.728   3.386 -0.2152 -0.1942 -0.5125
 7476TIP3    H143919   1.919   1.690   3.464  0.3073 -1.9457 -1.5906
 7476TIP3    H243920   1.951   1.761   3.334 -0.1777 -2.2213 -1.8641
 7477TIP3   OH243921   6.078   4.379  16.662  0.3096  0.5388 -0.5922
 7477TIP3    H143922   6.168   4.399  16.690  0.1054  0.6187  0.0240
 7477TIP3    H243923   6.023   4.435  16.718 -0.1795 -0.3791 -0.1415
 7478TIP3   OH243924   1.846   4.659   4.798 -0.5412  0.0264  0.3139
 7478TIP3    H143925   1.802   4.721   4.739  0.3219 -0.1985 -0.5834
 7478TIP3    H243926   1.931   4.642   4.757 -0.5560 -1.3740  0.7999
 7479TIP3   OH243927   3.675   4.013  15.767  0.0130 -0.3030 -0.0055
 7479TIP3    H143928   3.759   3.980  15.800  0.6204  0.3490 -0.8410
 7479TIP3    H243929   3.684   4.009  15.672 -0.1554  1.5252 -0.1435
 7480TIP3   OH243930   1.076   2.964  10.430 -0.1755 -0.5561  0.1337
 7480TIP3    H143931   1.009   2.982  10.364  1.5296 -1.2062 -1.8551
 7480TIP3    H243932   1.045   3.011  10.508 -2.7702 -0.5893 -0.7631
 7481TIP3   OH243933   3.403   2.837   0.665 -0.5221  0.0520  0.1496
 7481TIP3    H143934   3.358   2.753   0.673 -1.3578  0.3075 -1.5044
 7481TIP3    H243935   3.360   2.893   0.730  0.6408 -0.9923  1.8958
 7482TIP3   OH243936   4.197   0.863  15.794 -0.5891  0.3266 -0.1739
 7482TIP3    H143937   4.107   0.830  15.789 -0.5198  0.0820  0.1640
 7482TIP3    H243938   4.249   0.785  15.816 -0.2308  0.3640 -0.8635
 7483TIP3   OH243939   0.167   6.591  13.571  0.3695  0.2241  1.0193
 7483TIP3    H143940   0.085   6.611  13.526  0.0087 -1.1483  1.0145
 7483TIP3    H243941   0.212   6.675  13.579  0.9049  0.4938 -2.7903
 7484TIP3   OH243942   3.485   4.723  17.282 -0.2129  0.7434  0.3651
 7484TIP3    H143943   3.503   4.665  17.355 -0.3064 -0.2807 -0.3945
 7484TIP3    H243944   3.398   4.758  17.300 -0.4596  0.0824  0.4854
 7485TIP3   OH243945   5.773   3.937   6.095 -0.1378  0.0436  0.3848
 7485TIP3    H143946   5.736   4.021   6.066  0.1672 -0.0288 -0.2517
 7485TIP3    H243947   5.699   3.877   6.098 -0.5435  0.5922  1.8921
 7486TIP3   OH243948   0.368   3.285   2.240  0.0867 -0.4264 -0.2303
 7486TIP3    H143949   0.350   3.192   2.225 -1.3889 -0.0259 -1.1545
 7486TIP3    H243950   0.383   3.292   2.334 -0.5763 -1.4865 -0.0323
 7487TIP3   OH243951   5.421   6.527  12.481  0.4177 -0.1616 -0.0246
 7487TIP3    H143952   5.444   6.607  12.434  0.8758 -0.9910 -1.2667
 7487TIP3    H243953   5.475   6.459  12.440 -0.6195 -1.2688  0.3936
 7488TIP3   OH243954   4.930   0.880   4.164 -0.0416 -0.0598 -0.8439
 7488TIP3    H143955   5.012   0.871   4.116 -0.1636 -0.3830 -0.9913
 7488TIP3    H243956   4.936   0.966   4.206 -1.1153  1.5462 -3.6864
 7489TIP3   OH243957   4.626   4.171  13.360 -0.8677  0.0766  0.1336
 7489TIP3    H143958   4.600   4.205  13.275  0.5619  1.9748  0.4021
 7489TIP3    H243959   4.553   4.193  13.419 -1.3203 -0.1609 -0.3326
 7490TIP3   OH243960   0.125   5.823  12.625 -0.5225  0.4171 -0.2196
 7490TIP3    H143961   0.082   5.891  12.677 -0.5841  0.1883  0.0316
 7490TIP3    H243962   0.057   5.758  12.610 -1.2727  1.6424 -2.7856
 7491TIP3   OH243963   1.604   1.369  10.573 -0.3910 -0.8460  0.1189
 7491TIP3    H143964   1.556   1.452  10.566 -0.7282 -1.1771 -1.8460
 7491TIP3    H243965   1.539   1.307  10.606 -0.4341 -0.5870  0.5329
 7492TIP3   OH243966   6.691   0.108  15.169  0.5963 -0.0219  0.0605
 7492TIP3    H143967   6.602   0.075  15.172 -0.1159  1.8198  0.4696
 7492TIP3    H243968   6.736   0.060  15.239  0.1145 -1.3592 -0.5021
 7493TIP3   OH243969   3.704   2.379  16.041  0.2283 -0.2105 -0.0328
 7493TIP3    H143970   3.781   2.403  15.989  0.2986 -1.6457 -0.6181
 7493TIP3    H243971   3.738   2.319  16.107 -0.3300 -0.5854 -0.0831
 7494TIP3   OH243972   6.636   2.816  12.584  0.0921  0.7068 -0.6993
 7494TIP3    H143973   6.617   2.729  12.619 -0.6937  0.1978 -2.2970
 7494TIP3    H243974   6.701   2.853  12.644 -1.9024  0.3176  1.8457
 7495TIP3   OH243975   4.996   6.186   0.790  0.1274  0.2226 -0.6461
 7495TIP3    H143976   4.955   6.103   0.766  0.2804 -0.0321 -0.0566
 7495TIP3    H243977   4.996   6.237   0.710 -1.6603  0.3623 -0.5984
 7496TIP3   OH243978   4.204   0.010  11.473 -0.1341  0.1026  0.1524
 7496TIP3    H143979   4.186   0.084  11.414  1.1036  0.4919  0.2296
 7496TIP3    H243980   4.236  -0.059  11.415  0.7212  0.3576  0.3054
 7497TIP3   OH243981   3.168   3.309   2.919 -0.1746  0.2595 -0.0239
 7497TIP3    H143982   3.166   3.285   3.011  1.5445 -1.7349 -0.4288
 7497TIP3    H243983   3.103   3.253   2.877  0.3573 -0.1765 -0.2771
 7498TIP3   OH243984   3.383   0.252  12.820 -0.2682 -0.1192 -0.2744
 7498TIP3    H143985   3.448   0.270  12.888 -0.0751  0.0944 -0.5145
 7498TIP3    H243986   3.380   0.156  12.814  0.7426 -0.1278 -0.9365
 7499TIP3   OH243987   3.943   5.991  11.313  0.1893  0.2064 -0.2485
 7499TIP3    H143988   4.023   5.959  11.273 -0.5085  1.4355 -2.8094
 7499TIP3    H243989   3.901   5.913  11.349  1.5591 -0.7412 -0.6493
 7500TIP3   OH243990   5.565   5.723   4.910  0.1363  0.6198 -0.6064
 7500TIP3    H143991   5.644   5.683   4.873  0.1796  0.6284 -0.5229
 7500TIP3    H243992   5.494   5.667   4.880  0.3453 -0.5372  0.9413
 7501TIP3   OH243993   5.509   0.449  16.742 -0.0128  0.1847 -0.0989
 7501TIP3    H143994   5.429   0.476  16.787  1.1588  2.7005  0.6921
 7501TIP3    H243995   5.491   0.361  16.710 -3.3305  0.9328 -0.5812
 7502TIP3   OH243996   4.262   4.109  14.647  0.2140 -0.9011  0.5184
 7502TIP3    H143997   4.173   4.086  14.621 -0.0807 -0.8737  1.4603
 7502TIP3    H243998   4.286   4.043  14.712  0.0849  0.2826  1.8246
 7503TIP3   OH243999   2.349   3.301  14.126  0.5661  0.7932 -0.0923
 7503TIP3    H144000   2.342   3.383  14.176  0.2226  1.1487 -0.7014
 7503TIP3    H244001   2.316   3.324  14.039 -0.8348 -0.3188  0.0977
 7504TIP3   OH244002   0.969   6.119  15.129  0.4220  0.3514  0.5290
 7504TIP3    H144003   0.937   6.137  15.041  2.4806  0.6012 -0.2303
 7504TIP3    H244004   0.988   6.025  15.129  0.2884  0.3231  0.7625
 7505TIP3   OH244005   2.951   5.132  17.410 -0.5193 -0.2305  0.3789
 7505TIP3    H144006   2.973   5.225  17.417  1.5520 -0.7341  1.6203
 7505TIP3    H244007   2.855   5.130  17.407 -0.6563  1.9005  1.1890
 7506TIP3   OH244008   5.185   2.816   1.240  0.3938 -0.2109  0.2563
 7506TIP3    H144009   5.273   2.831   1.274 -0.2351  0.0961  1.8963
 7506TIP3    H244010   5.156   2.737   1.286 -1.1809  1.2667  1.9607
 7507TIP3   OH244011   5.731   6.551   5.380 -0.6247  0.0645  0.8873
 7507TIP3    H144012   5.753   6.549   5.473  2.2483 -0.5845  0.2976
 7507TIP3    H244013   5.767   6.633   5.348 -2.9076  1.0006  0.5636
 7508TIP3   OH244014   0.425   0.584  13.929 -0.3048  0.8077 -0.4878
 7508TIP3    H144015   0.415   0.571  13.835  2.4512  0.2535 -0.7770
 7508TIP3    H244016   0.451   0.498  13.963  1.3341  1.5935  0.3366
 7509TIP3   OH244017   1.908   5.069   5.149 -0.6105  0.2170  0.2309
 7509TIP3    H144018   1.852   5.036   5.219  0.4478 -3.2091 -0.3237
 7509TIP3    H244019   1.848   5.085   5.076 -1.1656 -1.3897  0.2885
 7510TIP3   OH244020   0.746   1.399  10.844 -0.8304 -0.3271 -0.3602
 7510TIP3    H144021   0.722   1.328  10.904 -1.4692 -0.3844 -0.6716
 7510TIP3    H244022   0.741   1.359  10.757 -1.0765  0.0644 -0.5292
 7511TIP3   OH244023   4.542   1.535   1.781  0.4461 -0.2118  0.3585
 7511TIP3    H144024   4.574   1.526   1.871 -0.6973  0.3846  0.8402
 7511TIP3    H244025   4.542   1.630   1.765 -0.0846 -0.2656  0.0074
 7512TIP3   OH244026   5.671   6.665   3.311 -0.1709 -0.1975 -0.2087
 7512TIP3    H144027   5.657   6.642   3.219 -0.5983  0.8815 -0.4283
 7512TIP3    H244028   5.765   6.654   3.325  0.1454  0.9915 -1.1825
 7513TIP3   OH244029   5.682   4.666   4.251 -0.1540  0.4645  0.0553
 7513TIP3    H144030   5.588   4.652   4.266 -0.1143  0.5284  0.3512
 7513TIP3    H244031   5.724   4.587   4.285 -0.1337  0.2221 -0.5031
 7514TIP3   OH244032   4.357   2.261   2.549  0.4480  0.4857  0.1371
 7514TIP3    H144033   4.280   2.294   2.594 -0.9887 -0.2133 -1.6603
 7514TIP3    H244034   4.431   2.297   2.598 -0.8918 -1.3069  3.8604
 7515TIP3   OH244035   5.513   6.618   0.540  0.8552 -0.1187  0.9240
 7515TIP3    H144036   5.499   6.632   0.447  1.0594  1.6440  1.1266
 7515TIP3    H244037   5.568   6.691   0.568  0.6648 -0.5181  2.4588
 7516TIP3   OH244038   2.265   0.110   5.634  0.1259  0.1522  0.6027
 7516TIP3    H144039   2.272   0.109   5.729 -0.0140  1.7039  0.6470
 7516TIP3    H244040   2.179   0.070   5.616 -1.0995  2.3038  1.3030
 7517TIP3   OH244041   1.299   6.684  16.598  0.4141  0.3514  0.4916
 7517TIP3    H144042   1.380   6.636  16.579 -0.4573 -0.4114 -1.5117
 7517TIP3    H244043   1.264   6.641  16.676 -0.3319 -2.3516 -1.2223
 7518TIP3   OH244044   3.555   2.374  16.605 -0.0023  0.4514  0.5800
 7518TIP3    H144045   3.626   2.331  16.653 -0.5527 -0.6504  0.4360
 7518TIP3    H244046   3.587   2.379  16.515 -0.3590 -0.6480  0.3801
 7519TIP3   OH244047   6.209   5.128   1.301 -0.0186 -0.3966  0.0271
 7519TIP3    H144048   6.169   5.077   1.372  0.0311 -2.4656 -1.3523
 7519TIP3    H244049   6.141   5.133   1.234  1.0807 -1.7088 -1.2706
 7520TIP3   OH244050   5.279   0.668  14.305 -0.0159 -0.4035 -0.0623
 7520TIP3    H144051   5.357   0.643  14.355 -0.1114 -0.4338  0.0741
 7520TIP3    H244052   5.266   0.596  14.243 -1.9723 -2.2540  2.2541
 7521TIP3   OH244053   0.071   3.077   3.092  0.9006  0.3789 -0.0877
 7521TIP3    H144054   0.034   3.077   3.180 -1.8513 -1.9701 -1.0925
 7521TIP3    H244055   0.033   3.154   3.049  3.3737  2.3745  1.0570
 7522TIP3   OH244056   6.712   5.666   1.525 -0.1790  0.2954 -0.0314
 7522TIP3    H144057   6.739   5.682   1.615  1.0813  0.1116 -0.3654
 7522TIP3    H244058   6.793   5.668   1.474 -0.3997 -2.9128 -0.7120
 7523TIP3   OH244059   5.177   2.754  14.612  0.4419  0.1442 -0.1257
 7523TIP3    H144060   5.178   2.766  14.707  0.5406  1.4332 -0.2703
 7523TIP3    H244061   5.261   2.791  14.583  0.6065 -0.6461 -0.6778
 7524TIP3   OH244062   3.441   3.079  17.098  0.3396 -0.6249 -0.5300
 7524TIP3    H144063   3.350   3.102  17.076 -0.4284 -3.0176 -0.2070
 7524TIP3    H244064   3.459   3.126  17.179 -0.6407 -0.1464 -0.5760
 7525TIP3   OH244065   0.304   6.246   5.951 -0.5457 -0.0100  0.0157
 7525TIP3    H144066   0.284   6.235   6.044  2.1124 -2.6638  0.4313
 7525TIP3    H244067   0.380   6.305   5.950 -0.9667  0.5274 -0.5333
 7526TIP3   OH244068   5.690   4.030   0.097 -0.6898 -0.0595  0.2553
 7526TIP3    H144069   5.722   3.945   0.069  0.0791  0.2040  0.3190
 7526TIP3    H244070   5.673   4.077   0.015 -1.0736 -0.2525  0.2206
 7527TIP3   OH244071   2.382   1.873  12.651  0.2416  0.0452  0.3515
 7527TIP3    H144072   2.287   1.882  12.648  0.2128 -0.4641 -0.2660
 7527TIP3    H244073   2.397   1.783  12.681  0.5294 -0.0938 -0.2040
 7528TIP3   OH244074   4.107   2.099  15.712  0.5232  0.1333  0.8247
 7528TIP3    H144075   4.202   2.097  15.698  0.3228 -1.9930 -0.6150
 7528TIP3    H244076   4.079   2.009  15.697 -1.9463  1.0450 -0.4972
 7529TIP3   OH244077   5.709   0.091  12.335 -0.8363 -0.4143 -0.0762
 7529TIP3    H144078   5.759   0.148  12.393  0.5501 -2.8523  1.3290
 7529TIP3    H244079   5.770   0.070  12.263 -1.3056 -0.1752 -0.5512
 7530TIP3   OH244080   4.461   6.018   2.532 -0.1714 -0.5618  0.3890
 7530TIP3    H144081   4.478   6.008   2.438 -1.0797  2.0003 -0.1455
 7530TIP3    H244082   4.545   6.045   2.569 -0.2964  0.6727 -0.1564
 7531TIP3   OH244083   4.206   6.649   4.524 -1.0298 -0.6174 -0.3347
 7531TIP3    H144084   4.223   6.700   4.445  2.5451 -1.6257 -0.3864
 7531TIP3    H244085   4.110   6.646   4.530 -1.4698  3.7868 -1.7045
 7532TIP3   OH244086   3.449   5.377  13.310 -0.3996  0.2006  0.1605
 7532TIP3    H144087   3.515   5.331  13.361  0.4111  1.0684 -0.0990
 7532TIP3    H244088   3.469   5.356  13.219  0.4023  1.6091 -0.0033
 7533TIP3   OH244089   0.395   2.556   5.251 -0.1051 -0.4915 -0.4368
 7533TIP3    H144090   0.443   2.624   5.297 -0.1081  1.4715 -3.1184
 7533TIP3    H244091   0.307   2.592   5.239 -0.9687 -2.1712  0.4851
 7534TIP3   OH244092   4.139   1.798   2.678  0.3436  0.2750  0.2578
 7534TIP3    H144093   4.198   1.799   2.753 -1.4458  1.5419  1.7465
 7534TIP3    H244094   4.129   1.890   2.654 -1.1144  0.1156  0.1607
 7535TIP3   OH244095   6.465   6.456   1.860 -0.0216 -0.3972 -0.1132
 7535TIP3    H144096   6.450   6.550   1.858 -2.8878 -0.5324  3.5488
 7535TIP3    H244097   6.555   6.446   1.892 -0.4217  1.2011  1.6784
 7536TIP3   OH244098   5.575   0.475  13.081  0.5355 -0.4635  0.5674
 7536TIP3    H144099   5.663   0.459  13.115  0.6841 -1.7572 -0.3803
 7536TIP3    H244100   5.528   0.393  13.095  0.0496 -0.4130 -0.6174
 7537TIP3   OH244101   4.919   5.319  12.713 -0.4088  0.2434  0.1066
 7537TIP3    H144102   4.907   5.406  12.675 -0.9119 -0.2675 -0.9395
 7537TIP3    H244103   4.979   5.333  12.786 -1.9660  1.7848  1.1847
 7538TIP3   OH244104   6.216   4.832  17.325  0.1760 -1.3484 -0.2500
 7538TIP3    H144105   6.295   4.834  17.379 -1.7564 -1.4667  2.8325
 7538TIP3    H244106   6.186   4.741  17.329 -0.2315 -1.2678 -1.2288
 7539TIP3   OH244107   5.765   6.141  12.947 -0.2889  0.9939  0.3701
 7539TIP3    H144108   5.707   6.081  12.994 -1.4189  0.2136 -1.8962
 7539TIP3    H244109   5.707   6.198  12.897  0.7982  0.2221 -1.9430
 7540TIP3   OH244110   6.070   0.210  10.899 -0.8549  0.3650 -0.0569
 7540TIP3    H144111   6.007   0.242  10.964 -0.7562  0.3311  0.0543
 7540TIP3    H244112   6.042   0.251  10.817 -0.6447  0.8537  0.1121
 7541TIP3   OH244113   1.303   6.169   0.848  0.2523  0.1692 -0.2533
 7541TIP3    H144114   1.256   6.154   0.930 -1.4060 -0.2695 -1.2423
 7541TIP3    H244115   1.289   6.261   0.829 -0.4455 -0.0227 -0.6828
 7542TIP3   OH244116   2.146   6.572  14.370 -0.0162  0.5966  0.2244
 7542TIP3    H144117   2.191   6.538  14.293 -1.9810 -2.7995  0.3852
 7542TIP3    H244118   2.195   6.535  14.444  0.3575  1.7753  0.5951
 7543TIP3   OH244119   2.261   6.293  13.904 -0.0282  0.2076  0.0335
 7543TIP3    H144120   2.259   6.215  13.960 -0.7304  0.2526  0.0744
 7543TIP3    H244121   2.186   6.284  13.846 -0.0060  0.7657 -0.0893
 7544TIP3   OH244122   1.407   1.398  13.817 -0.1271 -1.0753 -0.1427
 7544TIP3    H144123   1.374   1.413  13.905 -0.2577 -1.3685 -0.1419
 7544TIP3    H244124   1.328   1.394  13.762 -0.0003  0.4318 -0.4841
 7545TIP3   OH244125   6.713   6.109  16.286  0.3220  0.0105  0.0395
 7545TIP3    H144126   6.634   6.056  16.280  0.4029 -0.0202 -1.0819
 7545TIP3    H244127   6.726   6.142  16.197  1.0874  0.7195  0.3997
 7546TIP3   OH244128   1.892   1.528  14.835  0.7461 -0.1304  0.1583
 7546TIP3    H144129   1.866   1.570  14.753  3.4005  1.7333  0.1444
 7546TIP3    H244130   1.876   1.595  14.902  0.4913 -0.8891  0.8667
 7547TIP3   OH244131   6.615   2.707  14.016  0.1878  0.3308  0.0871
 7547TIP3    H144132   6.603   2.773  14.084  1.0505  0.1175  0.4602
 7547TIP3    H244133   6.703   2.674  14.029 -0.0906 -0.6375 -0.3314
 7548TIP3   OH244134   0.889   1.033  15.679  0.4898 -0.2162 -0.0238
 7548TIP3    H144135   0.901   0.943  15.710  1.6136  0.0368  0.3332
 7548TIP3    H244136   0.860   1.024  15.589  2.2953 -0.9454 -0.5707
 7549TIP3   OH244137   4.092   5.628  10.825  0.7231 -0.1175 -0.7475
 7549TIP3    H144138   4.087   5.559  10.759 -1.0292  0.3169 -1.0995
 7549TIP3    H244139   4.185   5.629  10.850  0.9013 -2.2254 -1.0995
 7550TIP3   OH244140   3.248   3.569   5.570  0.4648 -0.1336  0.3175
 7550TIP3    H144141   3.193   3.523   5.634  1.5712 -1.0369  0.6722
 7550TIP3    H244142   3.249   3.660   5.600 -0.8715 -0.0757  0.2503
 7551TIP3   OH244143   0.115   2.638  15.957 -0.0407  0.5273  0.5323
 7551TIP3    H144144   0.130   2.597  16.043  0.0520  1.9391  1.2053
 7551TIP3    H244145   0.024   2.667  15.960  0.2213  1.3634  0.4999
 7552TIP3   OH244146   3.945   1.864  13.578 -0.4166  0.0294  0.7757
 7552TIP3    H144147   3.968   1.771  13.566  1.5664  0.5139  0.4305
 7552TIP3    H244148   4.025   1.911  13.554 -1.6754  1.8930  0.0086
 7553TIP3   OH244149   2.565   1.541  13.297  0.9862  0.0834 -0.1236
 7553TIP3    H144150   2.517   1.476  13.349 -0.8448  0.5376 -1.1668
 7553TIP3    H244151   2.587   1.495  13.215  0.1726  0.5944 -0.6398
 7554TIP3   OH244152   6.337   1.318   5.847 -0.0189  0.3087  0.0364
 7554TIP3    H144153   6.418   1.313   5.898 -1.2238 -1.1275  1.9489
 7554TIP3    H244154   6.315   1.226   5.829 -0.9572  0.7019 -0.9042
 7555TIP3   OH244155   5.867   6.704   2.269 -0.4943  0.2519 -0.3615
 7555TIP3    H144156   5.886   6.733   2.180  0.7157 -1.8873 -0.8569
 7555TIP3    H244157   5.773   6.683   2.267  0.0009 -2.2608 -1.9691
 7556TIP3   OH244158   6.052   3.994   1.810  0.5040  0.0530  0.5241
 7556TIP3    H144159   6.127   4.024   1.862 -0.1742  1.8997  0.4939
 7556TIP3    H244160   6.003   4.073   1.791 -0.5866 -0.9128 -0.8678
 7557TIP3   OH244161   3.157   3.807  13.083 -0.0692  0.0980  0.3243
 7557TIP3    H144162   3.124   3.722  13.053 -1.9172  1.3627 -1.4725
 7557TIP3    H244163   3.194   3.848  13.005 -1.1444  1.7668  0.6361
 7558TIP3   OH244164   3.577   4.640  17.027 -0.1613 -0.1721  0.2795
 7558TIP3    H144165   3.560   4.663  17.119 -2.0524  0.8064 -0.2578
 7558TIP3    H244166   3.614   4.719  16.989  0.5546 -0.5556  0.1522
 7559TIP3   OH244167   2.319   0.095   5.913 -0.4137  0.0015  0.1258
 7559TIP3    H144168   2.352   0.183   5.897  0.1441 -0.2421 -0.0817
 7559TIP3    H244169   2.239   0.108   5.964  0.5648  0.5595  1.5888
 7560TIP3   OH244170   0.352   2.364   2.842 -0.1776  0.6113 -0.5043
 7560TIP3    H144171   0.273   2.376   2.894 -0.1021  1.1723 -0.5136
 7560TIP3    H244172   0.381   2.453   2.822 -0.5223  0.4296 -1.9721
 7561TIP3   OH244173   1.771   3.069   0.453 -0.4344 -0.5514 -0.1104
 7561TIP3    H144174   1.725   2.984   0.454  0.0313 -0.8074  0.4189
 7561TIP3    H244175   1.835   3.061   0.383 -0.6257 -0.5058 -0.2918
 7562TIP3   OH244176   6.196   5.733  15.866  0.0759 -0.1230 -0.2109
 7562TIP3    H144177   6.155   5.820  15.855 -0.6284 -0.4154  0.0121
 7562TIP3    H244178   6.134   5.673  15.825  0.2986 -0.5788  0.1204
 7563TIP3   OH244179   5.535   6.025  14.563  0.1869  0.7391  0.4571
 7563TIP3    H144180   5.479   6.102  14.558  0.3958  0.8069 -1.2427
 7563TIP3    H244181   5.570   6.027  14.653 -0.6238  2.0188  0.7686
 7564TIP3   OH244182   4.654   2.380  10.621  0.3672 -0.5802 -0.1052
 7564TIP3    H144183   4.707   2.438  10.566  0.1075  0.6650  0.9011
 7564TIP3    H244184   4.699   2.295  10.616  1.4416 -0.0036 -0.6979
 7565TIP3   OH244185   1.362   5.765   0.891 -0.4572 -0.5792  0.1913
 7565TIP3    H144186   1.436   5.765   0.952  0.8734  3.5241 -1.0999
 7565TIP3    H244187   1.289   5.800   0.942 -0.0555  0.3326  0.1608
 7566TIP3   OH244188   0.203   4.489   4.477 -0.2696  0.2727 -0.3701
 7566TIP3    H144189   0.142   4.522   4.411 -0.7399  0.2602  0.0449
 7566TIP3    H244190   0.178   4.397   4.488  1.2136 -0.3245 -1.7213
 7567TIP3   OH244191   3.526   5.173  14.065  0.3596 -0.4073 -0.1096
 7567TIP3    H144192   3.584   5.194  14.138  0.1654 -0.4582  0.0615
 7567TIP3    H244193   3.528   5.077  14.060  0.3624 -0.4045 -0.1612
 7568TIP3   OH244194   2.267   2.666  15.489  0.4388  0.7396  0.4338
 7568TIP3    H144195   2.213   2.609  15.543  1.4846  0.2329  0.9671
 7568TIP3    H244196   2.217   2.748  15.483  0.2061  0.7337  1.9991
 7569TIP3   OH244197   3.478   6.564  14.133  0.4834  0.1586  0.3030
 7569TIP3    H144198   3.499   6.560  14.227  0.4268  0.6148  0.3359
 7569TIP3    H244199   3.545   6.511  14.091  1.5762  1.4159  0.4257
 7570TIP3   OH244200   0.378   5.935   2.668  0.8605  0.0601 -0.1835
 7570TIP3    H144201   0.307   5.970   2.721  1.0569 -0.8999  0.7429
 7570TIP3    H244202   0.445   6.005   2.668  1.0541 -0.1003  1.2375
 7571TIP3   OH244203   2.250   0.709   1.539 -0.0666  0.1347  0.2681
 7571TIP3    H144204   2.219   0.714   1.448  0.0969  3.0969  0.2536
 7571TIP3    H244205   2.298   0.626   1.544 -1.4153 -0.8603 -1.8777
 7572TIP3   OH244206   5.378   1.728   1.576  0.3569  0.0763 -0.0832
 7572TIP3    H144207   5.384   1.652   1.519  0.3312  0.5460 -0.7183
 7572TIP3    H244208   5.289   1.724   1.612  0.4094 -0.2756  0.0080
 7573TIP3   OH244209   0.258   0.426  13.283 -0.1503  0.4404 -0.4930
 7573TIP3    H144210   0.283   0.403  13.194  0.4819 -0.7061 -0.0262
 7573TIP3    H244211   0.322   0.383  13.339 -0.6447  0.9975  0.5360
 7574TIP3   OH244212   5.332   5.385  17.072  0.4137  0.3541 -0.2024
 7574TIP3    H144213   5.394   5.314  17.060 -1.1439 -0.9775 -0.7467
 7574TIP3    H244214   5.266   5.350  17.132 -0.3082  1.3993 -0.3508
 7575TIP3   OH244215   4.107   1.315  12.137  0.0463 -0.0123 -0.7273
 7575TIP3    H144216   4.183   1.260  12.120 -0.4886 -0.7966 -0.6000
 7575TIP3    H244217   4.142   1.388  12.188  0.4072 -1.3316  1.0047
 7576TIP3   OH244218   6.353   6.035   4.196  0.1013 -0.3050  0.0378
 7576TIP3    H144219   6.336   5.954   4.149  0.1015  0.8682 -2.0704
 7576TIP3    H244220   6.430   6.016   4.250 -2.0324 -2.7938  2.5087
 7577TIP3   OH244221   0.932   0.970  16.983 -0.0008 -0.0463 -0.4773
 7577TIP3    H144222   0.851   0.975  17.033  0.6910  0.7723  0.5949
 7577TIP3    H244223   0.992   1.029  17.027  0.9102  0.0678 -1.7892
 7578TIP3   OH244224   4.677   2.753   0.946 -0.2110  0.0462 -0.3255
 7578TIP3    H144225   4.647   2.793   1.028  2.7029 -1.3212  1.5527
 7578TIP3    H244226   4.727   2.822   0.903  1.0947 -0.1955  0.7512
 7579TIP3   OH244227   4.969   5.685  16.767  0.2826 -0.3743  0.3380
 7579TIP3    H144228   4.887   5.733  16.765  0.3472 -0.2953 -0.7492
 7579TIP3    H244229   5.037   5.752  16.754  0.4172 -0.6364 -0.3739
 7580TIP3   OH244230   0.712   0.201   1.452  0.5329  0.2364  0.2589
 7580TIP3    H144231   0.793   0.186   1.501 -0.0998  0.0464  1.2809
 7580TIP3    H244232   0.688   0.114   1.419 -0.9041 -0.3749  2.6464
 7581TIP3   OH244233   4.620   6.724  14.067  0.1308  0.1503  0.1720
 7581TIP3    H144234   4.581   6.765  13.990  0.8969  0.1446 -0.2403
 7581TIP3    H244235   4.548   6.678  14.109  0.2157 -2.5859 -2.3284
 7582TIP3   OH244236   1.653   5.327  17.485 -0.4421 -0.2674 -0.3711
 7582TIP3    H144237   1.591   5.362  17.550 -1.5893 -1.5742 -0.6885
 7582TIP3    H244238   1.649   5.388  17.412  0.5684  1.0143  0.6087
 7583TIP3   OH244239   0.377   1.478  13.867 -0.5237  0.3274  0.1209
 7583TIP3    H144240   0.389   1.471  13.962  0.5257  1.2084  0.0790
 7583TIP3    H244241   0.320   1.404  13.844  0.6936 -1.0055  1.1832
 7584TIP3   OH244242   1.656   0.213  14.789 -0.4757 -0.0688 -0.1415
 7584TIP3    H144243   1.646   0.155  14.865 -1.0341  0.0470 -0.1254
 7584TIP3    H244244   1.751   0.222  14.779 -0.3909 -0.4302  0.2788
 7585TIP3   OH244245   4.767   3.479   0.889  0.0203  0.1354 -0.4590
 7585TIP3    H144246   4.764   3.509   0.980  0.3514 -1.7847  0.2281
 7585TIP3    H244247   4.706   3.406   0.885  0.1128  0.0994 -1.7547
 7586TIP3   OH244248   4.950   2.799   5.278 -0.0579  0.0245  0.2257
 7586TIP3    H144249   5.028   2.824   5.229 -0.6145 -1.4929 -1.5551
 7586TIP3    H244250   4.983   2.756   5.357  0.8622  1.1667  0.4847
 7587TIP3   OH244251   4.701   5.175   4.228 -0.3640 -0.0166 -0.4822
 7587TIP3    H144252   4.788   5.216   4.223 -0.7682  0.8210 -0.8608
 7587TIP3    H244253   4.656   5.222   4.298 -0.1772 -1.1276  0.4045
 7588TIP3   OH244254   2.385   3.542   3.798  0.0665 -0.2814  0.3435
 7588TIP3    H144255   2.478   3.532   3.821  0.9145  1.9296 -1.6939
 7588TIP3    H244256   2.338   3.516   3.877  2.4928  0.1417  2.0316
 7589TIP3   OH244257   4.933   1.371  11.460 -0.4298  0.0170 -0.2753
 7589TIP3    H144258   4.843   1.354  11.432 -0.8050  1.5490 -0.1138
 7589TIP3    H244259   4.924   1.441  11.525  0.8148 -0.3881  0.3495
 7590TIP3   OH244260   2.617   0.733  11.997 -0.6410 -0.1262 -0.3015
 7590TIP3    H144261   2.676   0.788  11.946 -0.4569 -0.4513 -0.4404
 7590TIP3    H244262   2.672   0.694  12.065 -0.9466  0.5625  0.3565
 7591TIP3   OH244263   3.713   1.127  15.874 -0.2680 -0.0241 -0.7709
 7591TIP3    H144264   3.777   1.190  15.908 -0.3430  0.2932 -1.2016
 7591TIP3    H244265   3.755   1.042  15.881  0.2775  0.2042 -1.2145
 7592TIP3   OH244266   6.014   5.055  13.725  0.4795 -0.4515 -0.0238
 7592TIP3    H144267   6.029   5.055  13.820  3.2304  1.8260 -0.3214
 7592TIP3    H244268   5.973   5.140  13.708 -1.5003 -1.4843 -0.7846
 7593TIP3   OH244269   0.613   0.088  14.980 -0.0045  0.6945  0.1600
 7593TIP3    H144270   0.606   0.147  15.055  0.5981 -0.1348  0.8812
 7593TIP3    H244271   0.626   0.147  14.905  1.1284  1.4611  0.9302
 7594TIP3   OH244272   6.518   4.399   3.985 -0.2106 -0.2107  0.1495
 7594TIP3    H144273   6.507   4.309   3.954  2.3953  0.2495 -2.6194
 7594TIP3    H244274   6.484   4.454   3.914  0.5231  0.9626  0.6619
 7595TIP3   OH244275   3.470   0.478  15.447  0.2651  0.3091  0.1318
 7595TIP3    H144276   3.550   0.460  15.397 -0.5683 -1.8164 -0.5275
 7595TIP3    H244277   3.497   0.543  15.512  2.1858  0.6637 -0.9294
 7596TIP3   OH244278   4.947   0.129  11.543 -0.0230  0.4914 -0.3469
 7596TIP3    H144279   4.998   0.074  11.484 -0.4566  0.5316 -0.7634
 7596TIP3    H244280   4.872   0.158  11.491  0.2057  1.4862 -0.1339
 7597TIP3   OH244281   3.572   6.534   2.552  0.1998  0.1257 -0.2383
 7597TIP3    H144282   3.616   6.616   2.574  2.4164 -1.1605  0.5162
 7597TIP3    H244283   3.574   6.483   2.634  2.5035 -2.1570 -1.5617
 7598TIP3   OH244284   3.306   6.476  11.916 -0.8933  0.8052 -0.0091
 7598TIP3    H144285   3.264   6.545  11.967  0.8306  1.5867  0.4289
 7598TIP3    H244286   3.373   6.441  11.974  0.6462  1.2428 -1.4426
 7599TIP3   OH244287   2.309   1.805   1.016 -0.3396 -0.1862 -0.2973
 7599TIP3    H144288   2.351   1.887   0.990  0.3207  0.0437  1.3643
 7599TIP3    H244289   2.377   1.739   1.002 -1.0166 -0.5552 -2.0596
 7600TIP3   OH244290   6.498   3.248  12.934  0.1996  0.0295 -0.0193
 7600TIP3    H144291   6.586   3.209  12.931 -0.3657 -1.2722 -1.1742
 7600TIP3    H244292   6.474   3.258  12.842 -0.6055  1.0153  0.2822
 7601TIP3   OH244293   0.870   0.778   2.338 -0.5907  0.0072  0.7709
 7601TIP3    H144294   0.937   0.796   2.404 -1.4261  1.8037  1.1795
 7601TIP3    H244295   0.787   0.798   2.381 -1.3593 -1.2758 -0.0364
 7602TIP3   OH244296   5.270   0.138   1.182 -0.2759 -0.3703  0.2584
 7602TIP3    H144297   5.315   0.146   1.266 -0.4872 -0.7860  0.4126
 7602TIP3    H244298   5.337   0.103   1.123 -0.0863  0.0551  0.2128
 7603TIP3   OH244299   1.980   6.748   1.935 -0.2684 -0.5936  0.7335
 7603TIP3    H144300   2.003   6.670   1.883  0.1850 -0.4362  0.6958
 7603TIP3    H244301   2.056   6.764   1.989  0.1347  0.5459 -0.1328
 7604TIP3   OH244302   6.567   2.894  14.251 -0.7779  0.4922  0.0414
 7604TIP3    H144303   6.605   2.846  14.325 -0.6172  0.4867 -0.0436
 7604TIP3    H244304   6.481   2.922  14.282 -1.8774 -1.8699 -0.7123
 7605TIP3   OH244305   2.641   6.254  17.421 -0.2526 -0.7841 -0.0973
 7605TIP3    H144306   2.622   6.203  17.343 -0.8563  0.4003 -0.7492
 7605TIP3    H244307   2.600   6.206  17.492 -0.5969 -1.3296 -0.6565
 7606TIP3   OH244308   2.531   4.454  16.135  0.2613 -0.5069 -0.5850
 7606TIP3    H144309   2.457   4.484  16.188  0.6152 -0.4567 -0.1118
 7606TIP3    H244310   2.493   4.388  16.076 -0.4613  0.6234 -1.4303
 7607TIP3   OH244311   3.576   1.226   4.105 -0.3918 -0.3665  0.1305
 7607TIP3    H144312   3.563   1.320   4.094 -0.4265 -0.5742 -2.2948
 7607TIP3    H244313   3.671   1.214   4.104 -0.3757 -0.5008 -2.0504
 7608TIP3   OH244314   2.016   2.306   0.959  0.0710 -0.0774 -0.1603
 7608TIP3    H144315   2.066   2.386   0.944 -0.8994  0.6053  0.1875
 7608TIP3    H244316   1.976   2.286   0.874 -1.9034  1.3612  0.3793
 7609TIP3   OH244317   1.102   1.350  16.120  0.0049  0.1511 -0.5549
 7609TIP3    H144318   1.088   1.265  16.080 -0.1385 -0.9597  1.7116
 7609TIP3    H244319   1.044   1.351  16.196 -1.0341  2.8458 -1.2578
 7610TIP3   OH244320   6.176   1.351   1.591 -0.4643 -0.0481  0.2849
 7610TIP3    H144321   6.100   1.357   1.533 -0.6626 -1.5380  0.3530
 7610TIP3    H244322   6.142   1.310   1.671  0.1625  0.4191  0.8045
 7611TIP3   OH244323   6.582   6.492  10.547  0.0849  0.2147  0.3004
 7611TIP3    H144324   6.533   6.412  10.528  0.1054 -0.5595  3.0236
 7611TIP3    H244325   6.651   6.463  10.607  0.2802  2.2253  1.1031
 7612TIP3   OH244326   0.170   0.581  15.618 -0.6464  0.3183 -0.0067
 7612TIP3    H144327   0.130   0.634  15.549 -0.8250  0.0976 -0.0761
 7612TIP3    H244328   0.231   0.640  15.662 -0.9157  0.6049 -0.0199
 7613TIP3   OH244329   4.654   2.982   3.359 -0.3158 -0.6983  0.2497
 7613TIP3    H144330   4.699   2.898   3.362 -0.5503 -0.8144  0.5977
 7613TIP3    H244331   4.682   3.027   3.438  0.5424 -0.0590 -0.3977
 7614TIP3   OH244332   2.502   0.746   3.897 -0.0329 -0.1849 -0.4645
 7614TIP3    H144333   2.420   0.699   3.885  0.0768 -0.7431  0.7892
 7614TIP3    H244334   2.494   0.787   3.983  1.0309 -0.2963 -0.3004
 7615TIP3   OH244335   4.475   2.544  14.372 -0.1085  0.1024 -0.3968
 7615TIP3    H144336   4.392   2.529  14.417  0.6559  0.4143  1.2121
 7615TIP3    H244337   4.489   2.466  14.319 -1.6964  0.3084 -1.1792
 7616TIP3   OH244338   1.864   4.958   6.121  0.3735 -0.3482  0.2164
 7616TIP3    H144339   1.775   4.973   6.090 -0.6354 -0.9597  2.5949
 7616TIP3    H244340   1.918   4.957   6.041 -1.4381  1.8495 -1.1419
 7617TIP3   OH244341   5.095   5.783   2.435  0.3684 -0.3004  0.0782
 7617TIP3    H144342   5.183   5.751   2.455  0.8565  2.4126  3.0651
 7617TIP3    H244343   5.105   5.830   2.352  0.8019 -3.0474 -1.5273
 7618TIP3   OH244344   5.081   3.377   5.544  0.4038  0.2003  0.0957
 7618TIP3    H144345   5.087   3.468   5.513 -2.9114  0.7855  0.7778
 7618TIP3    H244346   5.138   3.329   5.485  1.3221  2.5585 -1.1001
 7619TIP3   OH244347   4.658   1.635  16.526 -0.7098  0.0070  0.1914
 7619TIP3    H144348   4.667   1.661  16.617  0.5323  0.4044 -0.0326
 7619TIP3    H244349   4.746   1.607  16.499 -0.6085  1.6754 -1.4141
 7620TIP3   OH244350   4.767   1.713  10.805  0.1637  0.8197 -0.0552
 7620TIP3    H144351   4.703   1.782  10.785 -0.5339  0.3929  0.6255
 7620TIP3    H244352   4.730   1.634  10.765 -1.1436 -0.0007  2.5228
 7621TIP3   OH244353   1.630   3.602  13.931  0.2459 -0.1317 -0.3529
 7621TIP3    H144354   1.625   3.510  13.905  1.7079 -0.6324  0.9460
 7621TIP3    H244355   1.539   3.626  13.950 -0.0998 -1.5198 -0.0848
 7622TIP3   OH244356   3.698   5.430  12.245  0.5458 -0.2605  0.0832
 7622TIP3    H144357   3.730   5.444  12.334  0.6726  0.4054 -0.0636
 7622TIP3    H244358   3.657   5.513  12.221  0.7389 -0.3520 -0.5765
 7623TIP3   OH244359   5.404   1.736  13.532  0.7053  0.0809 -0.4132
 7623TIP3    H144360   5.454   1.796  13.477 -1.1197 -0.2549 -2.5743
 7623TIP3    H244361   5.419   1.650  13.494 -0.5527 -0.1637 -0.3933
 7624TIP3   OH244362   5.486   3.918   3.386  0.9263 -0.0042 -0.3499
 7624TIP3    H144363   5.476   4.007   3.354 -0.8673  0.2283  0.7547
 7624TIP3    H244364   5.450   3.919   3.475  1.4174 -1.6941 -0.0783
 7625TIP3   OH244365   0.028   4.392   0.976 -0.2692 -0.8544 -0.4586
 7625TIP3    H144366   0.043   4.484   0.953  0.1683 -0.3387  1.6458
 7625TIP3    H244367  -0.067   4.382   0.973 -0.9189  1.2207  4.1024
 7626TIP3   OH244368   1.901   5.547  13.336 -0.1577  0.4473 -0.3375
 7626TIP3    H144369   1.975   5.526  13.392 -0.8042 -0.1293  0.3315
 7626TIP3    H244370   1.857   5.463  13.323  0.1301  0.5273 -1.9468
 7627TIP3   OH244371   1.992   1.602  12.375  0.0023  0.0033  0.3398
 7627TIP3    H144372   2.055   1.636  12.311  1.5114 -0.7948  1.3501
 7627TIP3    H244373   2.044   1.589  12.455 -1.7626  0.6772  1.6483
 7628TIP3   OH244374   5.300   3.672  15.224 -0.7368 -0.1218 -0.7009
 7628TIP3    H144375   5.244   3.623  15.163 -1.9256  1.7054 -1.1820
 7628TIP3    H244376   5.255   3.666  15.308 -0.1067 -1.0554 -0.4235
 7629TIP3   OH244377   4.236   4.447   2.485  0.1710 -0.2744 -0.3829
 7629TIP3    H144378   4.197   4.359   2.484  2.2640 -1.2624 -0.7974
 7629TIP3    H244379   4.171   4.502   2.441 -0.7842 -1.7876 -0.9653
 7630TIP3   OH244380   5.551   3.980   6.457  0.4721 -0.1437 -0.4850
 7630TIP3    H144381   5.479   3.970   6.395  0.5428  0.3445 -0.6524
 7630TIP3    H244382   5.551   4.074   6.478 -0.1981 -0.4550  1.0426
 7631TIP3   OH244383   1.375   5.052   1.212  0.0529 -0.1506  0.3545
 7631TIP3    H144384   1.342   5.103   1.138 -0.7958  1.7528  1.9254
 7631TIP3    H244385   1.461   5.091   1.231  0.4978 -0.9766  0.0760
 7632TIP3   OH244386   3.523   2.261   1.216  0.1763 -0.0072  0.0569
 7632TIP3    H144387   3.594   2.292   1.159  1.0530 -0.8180  0.6700
 7632TIP3    H244388   3.548   2.172   1.239 -1.8447 -0.8738 -0.9360
 7633TIP3   OH244389   2.928   3.818  11.941  0.6375  0.3590 -1.0035
 7633TIP3    H144390   2.988   3.882  11.902  1.6025 -0.3426 -0.7164
 7633TIP3    H244391   2.985   3.747  11.971 -0.3374 -0.2943 -0.6414
 7634TIP3   OH244392   0.755   3.900  14.213 -0.1151 -0.2896 -0.0137
 7634TIP3    H144393   0.664   3.926  14.198  0.4282  1.7566 -0.1830
 7634TIP3    H244394   0.749   3.819  14.263 -2.0109 -0.7184 -0.8331
 7635TIP3   OH244395   2.075   1.694   4.141 -0.8107 -0.3238  0.1704
 7635TIP3    H144396   1.984   1.714   4.123 -0.3895  1.6746  0.0468
 7635TIP3    H244397   2.115   1.683   4.055 -0.6944 -0.0164  0.1849
 7636TIP3   OH244398   3.742   3.457  16.102 -0.4179  1.0519  0.5384
 7636TIP3    H144399   3.655   3.420  16.095 -0.3504  0.8408  0.7879
 7636TIP3    H244400   3.801   3.382  16.090 -0.2854  0.8082  2.3612
 7637TIP3   OH244401   1.128   5.093  17.388  0.3409  0.2666 -0.0904
 7637TIP3    H144402   1.072   5.081  17.464  0.3207 -1.2780 -0.3276
 7637TIP3    H244403   1.207   5.043  17.407 -0.3920 -1.6788 -1.8032
 7638TIP3   OH244404   0.323   2.150   2.556  0.2289 -0.6563 -0.5281
 7638TIP3    H144405   0.329   2.235   2.511 -0.4383 -0.9866 -1.2711
 7638TIP3    H244406   0.403   2.145   2.608  0.1781  0.5223 -0.3012
 7639TIP3   OH244407   6.105   3.974  11.344 -0.9666 -1.1203  0.0977
 7639TIP3    H144408   6.114   4.066  11.319  0.3500 -1.0792  0.6256
 7639TIP3    H244409   6.106   3.926  11.262 -0.0894 -0.7615 -0.1065
 7640TIP3   OH244410   0.553   2.905  15.894 -0.0606 -0.3148  0.1514
 7640TIP3    H144411   0.561   2.824  15.844  0.9377 -0.5472  0.6646
 7640TIP3    H244412   0.516   2.968  15.832 -0.4491 -1.0423 -0.3704
 7641TIP3   OH244413   0.699   5.327  17.365 -0.3105 -0.1791 -0.0849
 7641TIP3    H144414   0.787   5.336  17.401  0.4748 -1.3268 -1.6039
 7641TIP3    H244415   0.643   5.376  17.425  1.1997 -0.3561  1.5374
 7642TIP3   OH244416   2.657   5.352  13.715 -0.2542 -0.3815  0.0003
 7642TIP3    H144417   2.677   5.427  13.771 -0.8571  0.2578 -0.6224
 7642TIP3    H244418   2.743   5.313  13.696 -0.1135 -1.4281  2.4228
 7643TIP3   OH244419   3.791   5.615   2.476  0.1360  0.2239  0.0004
 7643TIP3    H144420   3.871   5.638   2.525 -1.1584  1.5878  1.6276
 7643TIP3    H244421   3.804   5.524   2.450  2.2593  0.4439  0.1123
 7644TIP3   OH244422   6.209   1.186  13.101  0.1605 -0.1865  0.4109
 7644TIP3    H144423   6.171   1.249  13.162  0.4005  2.7372 -2.2417
 7644TIP3    H244424   6.299   1.217  13.087  0.5778 -1.6335 -0.3482
 7645TIP3   OH244425   3.605   4.570  17.511  0.5816 -0.5833  0.2608
 7645TIP3    H144426   3.574   4.528  17.591  1.5136 -0.8427  0.4994
 7645TIP3    H244427   3.683   4.618  17.538  0.7049 -0.3894 -0.4243
 7646TIP3   OH244428   1.616   3.343  13.837  0.2903  0.4182 -0.1278
 7646TIP3    H144429   1.560   3.288  13.893  0.5775  0.1219 -0.1276
 7646TIP3    H244430   1.705   3.311  13.854  0.7121  2.2060  1.4129
 7647TIP3   OH244431   3.154   6.112   3.596  0.2503 -0.2074 -0.1064
 7647TIP3    H144432   3.201   6.036   3.631 -0.5013 -0.9604 -0.7268
 7647TIP3    H244433   3.137   6.091   3.504 -0.6066  0.3952 -0.1006
 7648TIP3   OH244434   1.500   3.774   4.610 -0.2986  0.0040  0.8552
 7648TIP3    H144435   1.460   3.709   4.552 -0.4959  1.8648 -1.2201
 7648TIP3    H244436   1.436   3.846   4.613  0.6459  0.8430  1.7209
 7649TIP3   OH244437   1.014   4.511  12.932 -0.3949  0.6711  0.0924
 7649TIP3    H144438   1.005   4.423  12.971 -2.4176  0.8406  0.1152
 7649TIP3    H244439   1.099   4.509  12.889  0.6477 -0.5246  2.0394
 7650TIP3   OH244440   1.719   3.748   0.960 -0.2024 -0.1228 -0.1175
 7650TIP3    H144441   1.643   3.798   0.991 -0.0726  0.6251 -0.9691
 7650TIP3    H244442   1.699   3.658   0.984 -0.8515  0.2092  0.6540
 7651TIP3   OH244443   2.532   4.506  11.469  0.1755 -0.4956  0.0073
 7651TIP3    H144444   2.556   4.437  11.407  1.2786 -0.6646  0.5904
 7651TIP3    H244445   2.494   4.460  11.544 -0.6309 -0.3318 -0.2884
 7652TIP3   OH244446   6.102   3.278  11.515 -0.5038 -0.1291  0.3339
 7652TIP3    H144447   6.121   3.372  11.520  1.3184 -0.3749 -1.1501
 7652TIP3    H244448   6.012   3.273  11.483  0.4081  1.1704 -2.7582
 7653TIP3   OH244449   0.385   0.025  14.115 -0.2284 -0.4817 -0.4270
 7653TIP3    H144450   0.455   0.011  14.179 -0.6332 -0.3860  0.0387
 7653TIP3    H244451   0.396  -0.045  14.051 -0.2127 -0.9559  0.0943
 7654TIP3   OH244452   1.116   3.795   1.290  0.1385  0.1391  0.4021
 7654TIP3    H144453   1.033   3.836   1.315  0.1195  1.0689 -1.0434
 7654TIP3    H244454   1.182   3.861   1.309  0.4617 -0.2793  0.7602
 7655TIP3   OH244455   5.486   3.302  15.894 -0.5096  0.3293  0.3145
 7655TIP3    H144456   5.440   3.386  15.899 -0.9326  0.0433  1.4965
 7655TIP3    H244457   5.554   3.308  15.961 -1.7881 -0.9931  1.7826
 7656TIP3   OH244458   1.110   4.981   2.217 -0.1032 -1.0971 -0.6730
 7656TIP3    H144459   1.114   4.897   2.171 -0.0493 -0.6891 -1.4226
 7656TIP3    H244460   1.129   5.046   2.150  1.7129 -0.5911  0.2676
 7657TIP3   OH244461   0.708   4.137  13.454 -0.2122  0.1311 -0.2231
 7657TIP3    H144462   0.670   4.097  13.532  1.2884 -1.3637 -0.2100
 7657TIP3    H244463   0.767   4.204  13.487 -1.3847  1.1750 -0.1858
 7658TIP3   OH244464   3.020   3.950  14.126  0.0437  0.2005  0.2725
 7658TIP3    H144465   2.928   3.943  14.150  0.4742  0.2288  2.0982
 7658TIP3    H244466   3.047   3.860  14.109  0.2230 -0.1356  2.0998
 7659TIP3   OH244467   0.384   4.516   0.717 -0.2159  0.1504  0.4207
 7659TIP3    H144468   0.406   4.585   0.779  3.5731  0.8300 -1.4151
 7659TIP3    H244469   0.373   4.437   0.770 -0.9786  1.4112  2.2221
 7660TIP3   OH244470   3.713   6.467   3.120 -0.0852 -0.5473 -0.0779
 7660TIP3    H144471   3.705   6.382   3.077  1.3558 -0.7271 -0.0379
 7660TIP3    H244472   3.761   6.449   3.201 -0.9477  0.1106  0.6047
 7661TIP3   OH244473   6.406   1.786   2.956 -0.4222  0.0198  0.0694
 7661TIP3    H144474   6.399   1.722   2.886 -0.1266 -0.2429  0.2771
 7661TIP3    H244475   6.452   1.860   2.915 -0.8962  0.1675 -0.2099
 7662TIP3   OH244476   1.397   2.164   2.153  0.1627  0.8291 -0.0618
 7662TIP3    H144477   1.411   2.258   2.170 -0.5427  0.7200  1.3125
 7662TIP3    H244478   1.460   2.121   2.210  0.1717  0.4624 -0.3507
 7663TIP3   OH244479   6.373   2.188  11.813  0.0944  0.6379 -0.3474
 7663TIP3    H144480   6.291   2.229  11.786  0.3285 -0.4580 -3.1439
 7663TIP3    H244481   6.350   2.096  11.827  0.6480  0.5180 -0.1867
 7664TIP3   OH244482   4.944   6.183  16.697 -0.2369 -0.7463 -0.1143
 7664TIP3    H144483   4.911   6.167  16.609 -0.0141  0.6443 -0.4704
 7664TIP3    H244484   5.012   6.248  16.686  2.4172 -3.1645  0.6440
 7665TIP3   OH244485   4.766   5.769   4.665 -0.6131  0.2100  0.3923
 7665TIP3    H144486   4.790   5.725   4.583 -0.5832 -0.4185  0.7296
 7665TIP3    H244487   4.674   5.791   4.655 -0.7121 -0.2191  0.3427
 7666TIP3   OH244488   4.686   3.948  11.852  0.7885 -0.1007 -0.1964
 7666TIP3    H144489   4.674   4.022  11.793 -0.7695 -0.1971 -0.0261
 7666TIP3    H244490   4.644   3.874  11.808  1.4022 -0.6527  0.1164
 7667TIP3   OH244491   2.562   1.750  12.959  0.1695 -0.6160  0.2560
 7667TIP3    H144492   2.576   1.815  13.028  0.1791  0.9118 -1.1077
 7667TIP3    H244493   2.471   1.722  12.970 -0.0925  0.2568  0.3894
 7668TIP3   OH244494   0.540   6.070  13.734  0.1713 -0.2430  0.1283
 7668TIP3    H144495   0.631   6.079  13.705  0.0631 -0.2706 -0.2362
 7668TIP3    H244496   0.495   6.036  13.656  0.1211 -1.5973  0.7237
 7669TIP3   OH244497   6.268   2.294  10.422 -0.3155 -0.3583  0.0928
 7669TIP3    H144498   6.175   2.299  10.400 -0.2522 -0.6729 -0.2660
 7669TIP3    H244499   6.277   2.344  10.503 -0.3812  1.7839 -1.1359
 7670TIP3   OH244500   2.176   1.123   3.145  0.0192 -0.2767 -0.1280
 7670TIP3    H144501   2.171   1.212   3.181  0.6388 -0.1820 -0.2651
 7670TIP3    H244502   2.178   1.136   3.050 -0.6404 -0.4764 -0.1702
 7671TIP3   OH244503   5.529   2.091  14.067 -0.2896 -0.3238  0.3960
 7671TIP3    H144504   5.556   2.174  14.026 -0.0172 -1.0639 -0.9849
 7671TIP3    H244505   5.535   2.108  14.161 -1.8131  1.7296  0.1826
 7672TIP3   OH244506   2.296   0.568   0.587 -0.5060 -0.5011 -0.0363
 7672TIP3    H144507   2.288   0.475   0.566  0.0494 -0.8326  1.1444
 7672TIP3    H244508   2.390   0.586   0.577 -0.8656  0.4792 -2.3296
 7673TIP3   OH244509   5.135   6.360   3.294 -0.4666  0.6161 -0.1111
 7673TIP3    H144510   5.153   6.268   3.311 -0.2466  0.9498  1.6524
 7673TIP3    H244511   5.212   6.392   3.248  0.0912  0.2432  0.5494
 7674TIP3   OH244512   5.418   6.338  14.249 -0.5934  0.3999  0.3277
 7674TIP3    H144513   5.464   6.285  14.315 -1.7653  0.1456  0.9671
 7674TIP3    H244514   5.420   6.427  14.285  0.0204  0.5229  0.0021
 7675TIP3   OH244515   4.714   3.440   3.453  0.4492 -0.7300  0.5980
 7675TIP3    H144516   4.712   3.404   3.365  0.5249  1.0589 -0.1767
 7675TIP3    H244517   4.628   3.481   3.464  0.6909 -0.3360  1.0825
 7676TIP3   OH244518   6.102   5.583   6.533 -0.1683  0.2032  0.1154
 7676TIP3    H144519   6.081   5.642   6.605 -1.7639 -2.7581  2.3273
 7676TIP3    H244520   6.166   5.631   6.480  0.1472  3.0610  2.7936
 7677TIP3   OH244521   5.882   3.571   3.933 -0.4146 -0.0982 -0.5046
 7677TIP3    H144522   5.965   3.530   3.957 -0.0947  0.1096 -1.2358
 7677TIP3    H244523   5.895   3.602   3.844 -1.7984 -1.4838 -1.2373
 7678TIP3   OH244524   4.725   5.003  13.615  0.3277 -0.2396  0.4870
 7678TIP3    H144525   4.722   4.909  13.598 -1.8465 -0.3874  1.3231
 7678TIP3    H244526   4.645   5.021  13.664 -0.5423  2.4288 -1.6198
 7679TIP3   OH244527   3.769   4.672   4.802  0.2506 -0.1955  0.0911
 7679TIP3    H144528   3.748   4.748   4.856 -0.1368 -0.8423  0.8722
 7679TIP3    H244529   3.839   4.627   4.849  1.9560  0.7576 -1.3978
 7680TIP3   OH244530   4.456   1.952   1.656  0.1249 -0.0634  0.5303
 7680TIP3    H144531   4.533   1.898   1.641 -1.3821 -2.1017 -0.3104
 7680TIP3    H244532   4.423   1.972   1.568  0.1871  1.6258  0.8463
 7681TIP3   OH244533   0.983   5.328  16.964  0.2947  0.4519 -0.6363
 7681TIP3    H144534   0.992   5.421  16.985 -0.6527  0.4169  0.0285
 7681TIP3    H244535   1.073   5.295  16.956  0.6334  1.4232 -0.9082
 7682TIP3   OH244536   3.303   4.814  11.807  0.2585 -0.5550 -0.0024
 7682TIP3    H144537   3.214   4.847  11.813  0.8548  1.5658 -1.7183
 7682TIP3    H244538   3.329   4.829  11.716  1.8797 -2.5072  0.0492
 7683TIP3   OH244539   5.254   0.810  11.880 -0.0689 -0.3995 -0.0665
 7683TIP3    H144540   5.228   0.862  11.804  1.8629  0.3009 -0.3164
 7683TIP3    H244541   5.178   0.810  11.937 -1.2416 -0.1393 -1.5644
 7684TIP3   OH244542   4.183   3.478   6.655  0.6225  0.2097 -0.0176
 7684TIP3    H144543   4.132   3.551   6.691  1.1248  0.3357  0.4519
 7684TIP3    H244544   4.274   3.510   6.656  0.9989 -0.8077  1.2214
 7685TIP3   OH244545   1.254   1.038   6.655  1.0353  0.3868  0.3289
 7685TIP3    H144546   1.266   1.119   6.705  0.8261 -0.0513  1.1004
 7685TIP3    H244547   1.166   1.045   6.619  1.0118  0.4940  0.4070
 7686TIP3   OH244548   6.167   1.347  13.318  0.1731 -0.4898  0.3389
 7686TIP3    H144549   6.147   1.430  13.362 -0.6430 -1.0668  1.0899
 7686TIP3    H244550   6.246   1.315  13.361 -0.4993 -0.9430  1.2616
 7687TIP3   OH244551   0.011   0.185   3.411 -0.1896 -0.1410  0.6750
 7687TIP3    H144552  -0.049   0.141   3.472  0.0185  0.8124  1.5978
 7687TIP3    H244553  -0.035   0.184   3.327 -0.6191 -1.1984  0.9112
 7688TIP3   OH244554   6.102   5.427  11.512 -0.0413  0.0970 -0.4305
 7688TIP3    H144555   6.078   5.398  11.424 -2.9572 -1.9388  0.8576
 7688TIP3    H244556   6.062   5.513  11.522 -1.1693 -0.3899 -0.5944
 7689TIP3   OH244557   2.112   4.099   4.025 -0.2786  0.0220  0.2498
 7689TIP3    H144558   2.065   4.074   3.945  3.1199 -1.1727 -1.5645
 7689TIP3    H244559   2.119   4.194   4.020  0.1082 -0.0556 -1.0654
 7690TIP3   OH244560   1.760   1.655   6.328  0.5116 -0.3344  0.4622
 7690TIP3    H144561   1.778   1.748   6.318  0.8310 -0.0878  2.8338
 7690TIP3    H244562   1.820   1.626   6.397 -0.1524 -2.1037  0.3453
 7691TIP3   OH244563   2.761   3.232   5.626  0.2264  0.1186 -0.0782
 7691TIP3    H144564   2.734   3.143   5.605 -1.5557  0.6096 -0.0710
 7691TIP3    H244565   2.801   3.265   5.545 -0.6037 -0.1650 -0.6177
 7692TIP3   OH244566   4.558   2.385  13.420  0.0237  0.1174 -0.2330
 7692TIP3    H144567   4.560   2.478  13.446  1.2926 -0.4009  1.7145
 7692TIP3    H244568   4.476   2.352  13.456  0.3995  0.0907  0.6170
 7693TIP3   OH244569   0.804   1.831   4.635  0.2624  0.2584  0.3132
 7693TIP3    H144570   0.813   1.863   4.546  2.0295 -0.2242  0.2771
 7693TIP3    H244571   0.777   1.739   4.626  1.2042 -0.0192  0.2357
 7694TIP3   OH244572   2.778   5.084   2.867  0.2682  0.3234  0.4982
 7694TIP3    H144573   2.842   5.026   2.906 -0.0925  0.4193  1.2513
 7694TIP3    H244574   2.806   5.172   2.893  0.3375  0.4270  0.0749
 7695TIP3   OH244575   1.967   3.487   1.068 -0.7994 -0.3026  0.5012
 7695TIP3    H144576   2.052   3.450   1.092 -0.7441  0.0169  0.8169
 7695TIP3    H244577   1.964   3.480   0.972  0.9189  2.4207  0.1385
 7696TIP3   OH244578   5.293   2.102   5.984  0.3533 -0.1066  0.1151
 7696TIP3    H144579   5.344   2.028   6.018 -0.8710 -0.7245  0.6691
 7696TIP3    H244580   5.250   2.068   5.906 -1.6236 -0.5884  1.3378
 7697TIP3   OH244581   5.430   2.398  12.455  0.1966 -0.2349 -0.2552
 7697TIP3    H144582   5.441   2.305  12.475 -1.8811 -0.9731 -2.0378
 7697TIP3    H244583   5.349   2.402  12.403  0.0284  2.6300  0.0342
 7698TIP3   OH244584   1.082   2.109   1.063 -0.2985  0.0476 -0.3079
 7698TIP3    H144585   1.140   2.147   1.129 -2.1902  0.3522  1.2656
 7698TIP3    H244586   1.066   2.020   1.092 -0.6868 -0.0143 -0.6985
 7699TIP3   OH244587   3.326   5.554   5.026 -0.3152  0.0012  0.1997
 7699TIP3    H144588   3.337   5.518   4.938  0.0557 -1.0755  0.6627
 7699TIP3    H244589   3.340   5.648   5.016 -1.0016 -0.0123 -1.0078
 7700TIP3   OH244590   0.134   0.073  16.547  0.4501  0.1024  0.2534
 7700TIP3    H144591   0.050   0.029  16.565  0.2292  0.5237  0.2672
 7700TIP3    H244592   0.164   0.101  16.633  1.0505 -0.8196  0.3647
 7701TIP3   OH244593   2.804   2.311  16.187  0.1155  0.1256  0.5648
 7701TIP3    H144594   2.780   2.391  16.140  0.3246 -1.0729 -1.7098
 7701TIP3    H244595   2.735   2.299  16.251 -1.3211  0.7513 -0.8040
 7702TIP3   OH244596   5.083   0.536   2.883  0.0468 -0.0972 -0.0054
 7702TIP3    H144597   5.008   0.487   2.918  0.2041 -1.5952 -1.6134
 7702TIP3    H244598   5.159   0.492   2.921  0.2206 -1.7733 -2.1107
 7703TIP3   OH244599   2.666   4.037   2.723  0.0941  0.4050  0.8935
 7703TIP3    H144600   2.635   3.951   2.751 -0.9444  0.6568  0.5864
 7703TIP3    H244601   2.600   4.066   2.659 -0.0155  1.7805  1.5996
 7704TIP3   OH244602   5.413   2.835  15.413 -0.1813  0.4775 -0.2207
 7704TIP3    H144603   5.505   2.843  15.438  0.2585 -2.9594 -0.2464
 7704TIP3    H244604   5.364   2.875  15.486  1.2778 -0.5860  1.4032
 7705TIP3   OH244605   2.524   2.517   3.303 -0.4067  0.1365  0.2677
 7705TIP3    H144606   2.541   2.606   3.274 -0.2731 -0.7468 -2.7291
 7705TIP3    H244607   2.611   2.480   3.317 -0.3559 -0.1228 -0.6539
 7706TIP3   OH244608   0.160   1.774   1.693 -0.1012 -0.1274 -0.3668
 7706TIP3    H144609   0.080   1.807   1.733 -1.7005 -1.1793 -2.4506
 7706TIP3    H244610   0.192   1.848   1.640 -0.3373 -0.0501 -0.4038
 7707TIP3   OH244611   2.782   5.052  15.466  0.0713  0.0895  0.1296
 7707TIP3    H144612   2.874   5.029  15.481  0.1345  0.4313  0.2704
 7707TIP3    H244613   2.733   4.979  15.504  0.2238  0.9266  2.0765
 7708TIP3   OH244614   6.111   6.512   7.173  0.2204  0.5876 -0.0013
 7708TIP3    H144615   6.177   6.569   7.213 -0.2477  0.1540  1.4396
 7708TIP3    H244616   6.159   6.433   7.148 -0.0061 -0.5199  2.7503
 7709TIP3   OH244617   1.965   4.608  10.971  0.0407  0.1035 -0.4805
 7709TIP3    H144618   2.018   4.676  10.928  0.1701 -0.8039 -1.8225
 7709TIP3    H244619   1.946   4.546  10.901 -1.2320 -0.5462  0.4247
 7710TIP3   OH244620   5.981   5.498   3.121 -0.1883 -0.7359 -0.2626
 7710TIP3    H144621   5.972   5.485   3.215  1.3829 -0.2601 -0.0028
 7710TIP3    H244622   6.039   5.427   3.093  3.1324  1.6237  0.0256
 7711TIP3   OH244623   4.258   1.900   6.033  0.0612  0.1548 -0.1650
 7711TIP3    H144624   4.251   1.954   6.112 -0.0694  0.4024 -0.3448
 7711TIP3    H244625   4.244   1.811   6.064  1.0557  0.1370  0.2576
 7712TIP3   OH244626   2.989   4.163  14.371  0.5155  0.1790  0.4512
 7712TIP3    H144627   2.898   4.186  14.352  0.8273  2.3571  1.3635
 7712TIP3    H244628   3.037   4.185  14.292  0.3808 -0.1984  0.2617
 7713TIP3   OH244629   3.424   5.989   5.418  0.1693 -0.5520  0.4416
 7713TIP3    H144630   3.457   5.902   5.395  0.1295 -0.3792 -0.3005
 7713TIP3    H244631   3.435   6.041   5.338  0.5666  0.2380  0.9939
 7714TIP3   OH244632   5.526   2.332   3.612 -0.2866  0.1660 -0.1167
 7714TIP3    H144633   5.518   2.237   3.623  0.2156 -0.0017 -1.0940
 7714TIP3    H244634   5.619   2.349   3.627 -0.2641  0.4179 -0.5541
 7715TIP3   OH244635   1.286   2.471  14.905  0.3200  0.0493  0.4700
 7715TIP3    H144636   1.342   2.517  14.841  0.5191  1.0242  1.3116
 7715TIP3    H244637   1.284   2.530  14.981 -1.4666 -0.1927  0.6494
 7716TIP3   OH244638   2.408   1.672   4.269 -0.2771 -0.5280 -1.0742
 7716TIP3    H144639   2.477   1.716   4.320 -1.1962 -0.0662 -0.2032
 7716TIP3    H244640   2.439   1.581   4.261 -0.6298 -0.9257  1.3345
 7717TIP3   OH244641   3.793   4.901  16.044 -0.2995  0.4461  0.2066
 7717TIP3    H144642   3.781   4.817  16.000  1.0149  0.1558  0.3835
 7717TIP3    H244643   3.886   4.905  16.065 -0.6626  1.1788  1.7871
 7718TIP3   OH244644   3.370   0.998  13.830  0.4990 -0.5003 -0.0137
 7718TIP3    H144645   3.289   1.041  13.860  0.5584 -0.9088  0.7654
 7718TIP3    H244646   3.360   0.907  13.857  1.7624 -0.2981  1.2913
 7719TIP3   OH244647   1.445   0.836   3.412 -0.2314  0.2011 -0.9412
 7719TIP3    H144648   1.496   0.915   3.392  2.1507 -1.2690 -1.1288
 7719TIP3    H244649   1.434   0.839   3.507 -0.2594  0.8106 -0.9578
 7720TIP3   OH244650   4.971   3.590  14.169 -0.3317 -0.6107  0.5192
 7720TIP3    H144651   4.958   3.573  14.075  0.5958 -0.6600  0.3980
 7720TIP3    H244652   4.967   3.504  14.210 -2.2172 -0.4691  0.7322
 7721TIP3   OH244653   3.744   6.734   2.200 -0.3256 -0.2795 -0.4796
 7721TIP3    H144654   3.806   6.712   2.269  1.8429  0.2327 -2.1371
 7721TIP3    H244655   3.734   6.653   2.150  1.1369  0.2599 -1.7291
 7722TIP3   OH244656   1.320   1.549   3.255 -0.1307 -0.2386 -0.7197
 7722TIP3    H144657   1.322   1.644   3.262  0.9648 -0.0520 -2.8199
 7722TIP3    H244658   1.234   1.529   3.218 -0.8483 -0.2069  0.8563
 7723TIP3   OH244659   0.463   0.797   3.808  0.8851 -0.2654  0.2262
 7723TIP3    H144660   0.494   0.804   3.718 -0.5178 -1.1010 -0.3469
 7723TIP3    H244661   0.380   0.845   3.809 -0.2717 -2.1862  0.4652
 7724TIP3   OH244662   0.135   2.532  14.496 -0.1896  0.1071 -0.4131
 7724TIP3    H144663   0.117   2.519  14.589 -1.1046  1.9162 -0.3025
 7724TIP3    H244664   0.225   2.566  14.494  0.1390 -0.7164 -0.2865
 7725TIP3   OH244665   3.915   4.818   6.090 -0.1491 -0.2241  0.1034
 7725TIP3    H144666   3.856   4.820   6.015 -1.2503 -0.0862  0.9545
 7725TIP3    H244667   3.922   4.910   6.117  0.2500 -0.2748  0.1809
 7726TIP3   OH244668   1.197   0.863   3.605 -0.5635 -0.2958  0.2296
 7726TIP3    H144669   1.178   0.952   3.574  0.1865 -0.7657 -1.7301
 7726TIP3    H244670   1.183   0.867   3.700 -2.9622  1.2576 -0.1135
 7727TIP3   OH244671   3.177   6.512   2.610 -0.2180 -0.4178 -0.1693
 7727TIP3    H144672   3.136   6.435   2.650 -0.8335 -1.1185 -2.0783
 7727TIP3    H244673   3.237   6.477   2.545  0.4247  0.7175 -0.2198
 7728TIP3   OH244674   1.875   3.920  13.101  0.2404 -0.1433  0.3989
 7728TIP3    H144675   1.969   3.912  13.085 -0.0376 -0.3209 -1.2867
 7728TIP3    H244676   1.856   3.850  13.163  1.4429  0.8117  1.9367
 7729TIP3   OH244677   6.604   6.539  14.987 -0.8254  0.5421 -0.6152
 7729TIP3    H144678   6.681   6.566  14.936  0.2610 -2.1202 -0.5463
 7729TIP3    H244679   6.548   6.494  14.925 -1.9673  1.6666 -0.4590
 7730TIP3   OH244680   0.016   6.512   0.026  0.0502 -0.1981  0.8573
 7730TIP3    H144681   0.018   6.581   0.093 -1.5322  1.8922 -1.0896
 7730TIP3    H244682  -0.071   6.518  -0.012  0.8208 -1.4180 -1.2818
 7731TIP3   OH244683   1.966   1.700  15.848 -0.3748 -0.1045  0.0193
 7731TIP3    H144684   1.954   1.617  15.895  2.9147 -0.4122  0.5349
 7731TIP3    H244685   1.966   1.767  15.917  3.8595 -0.5002  0.6738
 7732TIP3   OH244686   4.088   1.503  11.132  0.2442 -0.3089  0.0304
 7732TIP3    H144687   4.063   1.447  11.058 -0.8749 -0.5540  0.5812
 7732TIP3    H244688   4.016   1.494  11.195  1.0137  0.1680  1.0049
 7733TIP3   OH244689   2.638   4.561  11.916  0.3712  0.6996 -0.2235
 7733TIP3    H144690   2.586   4.587  11.840 -0.3834  1.3241  0.4936
 7733TIP3    H244691   2.574   4.527  11.979  1.1168 -0.9557 -0.3250
 7734TIP3   OH244692   3.284   5.986  15.532  0.0958 -0.1410 -0.0537
 7734TIP3    H144693   3.301   6.081  15.534  1.1942 -0.2815 -1.2334
 7734TIP3    H244694   3.189   5.978  15.541 -0.1624  1.1462 -1.3247
 7735TIP3   OH244695   2.048   4.740   1.348  0.5213 -0.4002 -0.6138
 7735TIP3    H144696   2.005   4.758   1.431  1.5774  1.4907 -0.4273
 7735TIP3    H244697   2.095   4.821   1.327 -0.5325 -0.4540 -3.5758
 7736TIP3   OH244698   5.199   1.643  11.676 -0.0450 -0.3389  0.5656
 7736TIP3    H144699   5.202   1.699  11.599  1.4184  0.1681  0.9558
 7736TIP3    H244700   5.291   1.628  11.698 -0.4206 -1.9093  1.1895
 7737TIP3   OH244701   4.103   2.557   5.298  0.3654  0.2669  0.5144
 7737TIP3    H144702   4.084   2.604   5.216  0.1596  1.0937  1.0251
 7737TIP3    H244703   4.175   2.606   5.338  0.7116 -0.3464  0.6625
 7738TIP3   OH244704   3.609   4.781   1.954  0.0568 -0.2449  0.0174
 7738TIP3    H144705   3.669   4.826   2.014  1.9923 -2.0577 -0.4376
 7738TIP3    H244706   3.532   4.762   2.008  0.5753  0.6425  1.1305
 7739TIP3   OH244707   2.161   2.227   3.784 -0.0841 -0.5793 -0.2705
 7739TIP3    H144708   2.071   2.258   3.772  0.1554 -0.2053 -1.1113
 7739TIP3    H244709   2.168   2.211   3.878 -0.6613  0.5386 -0.0219
 7740TIP3   OH244710   6.204   2.948   1.738 -0.1097  0.8888 -0.1370
 7740TIP3    H144711   6.244   2.872   1.696  0.4091  0.0804  1.7454
 7740TIP3    H244712   6.113   2.921   1.753 -0.4294  1.3617 -1.1273
 7741TIP3   OH244713   4.392   2.123  17.366 -0.1081 -0.3226 -0.3395
 7741TIP3    H144714   4.322   2.102  17.427 -0.8010 -0.9673 -1.3333
 7741TIP3    H244715   4.362   2.088  17.281  0.1476  1.8382 -1.3915
 7742TIP3   OH244716   5.837   6.052   4.638  0.3452 -0.4701 -0.3911
 7742TIP3    H144717   5.927   6.060   4.668 -0.4848  0.1575  2.2483
 7742TIP3    H244718   5.834   5.969   4.590  2.2382 -0.6217 -0.3060
 7743TIP3   OH244719   2.468   1.870  14.473 -0.0694  0.0201  0.1687
 7743TIP3    H144720   2.399   1.878  14.539  0.4050  1.2729  0.5380
 7743TIP3    H244721   2.428   1.904  14.393 -0.1057  0.0884  0.2154
 7744TIP3   OH244722   6.089   1.854  12.124  0.2310 -0.6619 -0.5730
 7744TIP3    H144723   5.996   1.877  12.122  0.2112 -0.3114  1.6789
 7744TIP3    H244724   6.090   1.762  12.148  0.4648 -1.0360 -1.9643
 7745TIP3   OH244725   1.242   6.366  14.170 -0.0068  0.1120  0.1498
 7745TIP3    H144726   1.292   6.362  14.252 -1.0315  2.5120  0.9844
 7745TIP3    H244727   1.301   6.407  14.108 -0.4109  1.7436  0.7804
 7746TIP3   OH244728   4.301   4.944   4.901  0.2679 -0.0564  0.0265
 7746TIP3    H144729   4.378   4.910   4.945  0.6540 -0.6777 -1.0971
 7746TIP3    H244730   4.268   4.871   4.849  0.7164  1.0181 -1.8892
 7747TIP3   OH244731   2.259   5.213  12.351 -0.4662  0.5597 -0.0694
 7747TIP3    H144732   2.313   5.182  12.278 -0.9922 -1.2415  0.2398
 7747TIP3    H244733   2.201   5.139  12.370 -1.5470  1.6408  1.0285
 7748TIP3   OH244734   5.629   6.598   3.063 -0.5300 -0.6910 -0.0119
 7748TIP3    H144735   5.708   6.564   3.021  0.4939  0.5689  0.8433
 7748TIP3    H244736   5.584   6.646   2.993  0.2151 -0.1740 -0.1533
 7749TIP3   OH244737   1.744   2.738  12.684 -0.1477  0.2960 -0.0175
 7749TIP3    H144738   1.731   2.813  12.626 -1.7002  1.1695  1.3369
 7749TIP3    H244739   1.728   2.662  12.629 -1.0332  1.0652 -0.8697
 7750TIP3   OH244740   1.660   1.792   1.931  0.1507 -0.1158  0.0317
 7750TIP3    H144741   1.566   1.771   1.934  0.3021 -0.6888  2.0986
 7750TIP3    H244742   1.662   1.888   1.940 -0.2210 -0.2105  1.3403
 7751TIP3   OH244743   0.871   1.496  11.204  0.0738  0.1745  0.3724
 7751TIP3    H144744   0.785   1.473  11.169 -0.3376 -2.0520  2.5786
 7751TIP3    H244745   0.858   1.583  11.243 -0.6145  0.7143 -1.0026
 7752TIP3   OH244746   3.648   0.543  12.783  0.0135  0.0786  0.0947
 7752TIP3    H144747   3.739   0.537  12.810  0.3199 -2.6989 -1.1623
 7752TIP3    H244748   3.652   0.561  12.689 -0.5592 -2.3303 -0.4671
 7753TIP3   OH244749   0.665   5.052  13.519  0.6663  0.8987 -0.2241
 7753TIP3    H144750   0.721   5.052  13.442 -0.2182 -1.0077 -0.9032
 7753TIP3    H244751   0.582   5.088  13.489  0.2431 -0.0678 -0.2339
 7754TIP3   OH244752   1.555   1.328   1.735  0.2323  0.1816  0.3639
 7754TIP3    H144753   1.525   1.241   1.761 -0.9570  0.1450 -1.0295
 7754TIP3    H244754   1.647   1.315   1.710  0.6749 -0.2434  2.0884
 7755TIP3   OH244755   1.600   2.198  11.368  0.1649  0.4018  0.2391
 7755TIP3    H144756   1.624   2.174  11.278  0.6226  0.4448  0.3488
 7755TIP3    H244757   1.679   2.235  11.405  0.7215 -1.7967  1.4335
 7756TIP3   OH244758   6.736   6.439   1.942  0.1280 -0.4075 -0.6247
 7756TIP3    H144759   6.819   6.469   1.904  0.4555  3.7860  2.5693
 7756TIP3    H244760   6.762   6.382   2.014  0.0337 -1.3977 -1.3668
 7757TIP3   OH244761   6.029   1.999  13.995  0.2194  0.1872 -0.1115
 7757TIP3    H144762   6.021   1.907  14.017  4.1769  0.3016  2.8795
 7757TIP3    H244763   6.114   2.008  13.953 -0.5852  2.3828 -1.5002
 7758TIP3   OH244764   0.149   3.237  14.739  0.3312  0.3821  0.2055
 7758TIP3    H144765   0.225   3.295  14.732  0.7245  0.0632  1.4479
 7758TIP3    H244766   0.171   3.162  14.684  0.8776  0.3387  0.4756
 7759TIP3   OH244767   0.002   5.649   3.730 -0.3894  0.0754  0.2231
 7759TIP3    H144768  -0.086   5.637   3.764 -0.7730  0.9175 -0.4330
 7759TIP3    H244769   0.041   5.716   3.787  0.0198 -0.6598  0.8290
 7760TIP3   OH244770   0.939   0.741  14.890 -0.4146 -0.0730  0.2399
 7760TIP3    H144771   1.012   0.718  14.948  0.5708 -0.8115 -1.2224
 7760TIP3    H244772   0.865   0.751  14.949  0.8378  0.6519  1.7811
 7761TIP3   OH244773   1.447   6.195   3.146  0.0958 -0.0765 -0.5999
 7761TIP3    H144774   1.537   6.225   3.133  0.5895 -1.6099 -0.8811
 7761TIP3    H244775   1.393   6.268   3.115  1.2250  0.8335 -0.5004
 7762TIP3   OH244776   0.382   5.448  12.795 -0.4118  0.4112 -0.7503
 7762TIP3    H144777   0.396   5.396  12.874  0.7368  1.4247 -0.2455
 7762TIP3    H244778   0.418   5.395  12.724 -1.5940 -0.5755 -0.6366
 7763TIP3   OH244779   5.847   3.963  13.556 -0.8946 -0.2978 -0.0773
 7763TIP3    H144780   5.862   4.035  13.495  1.1470 -1.5633 -1.1558
 7763TIP3    H244781   5.828   3.887  13.501 -2.0654 -0.8432  1.0141
 7764TIP3   OH244782   5.268   0.534  16.834 -0.4986  0.3912 -0.3685
 7764TIP3    H144783   5.293   0.624  16.855  1.5189 -0.3953  0.9778
 7764TIP3    H244784   5.194   0.515  16.891  0.0161  0.7540  0.4400
 7765TIP3   OH244785   4.446   3.334  17.500 -0.3873 -0.0530  0.3197
 7765TIP3    H144786   4.425   3.299  17.413  1.5958  0.3264 -0.3567
 7765TIP3    H244787   4.520   3.282  17.530 -0.7851  0.0981  1.6301
 7766TIP3   OH244788   2.493   6.407  16.823  0.0674  0.0763 -0.4527
 7766TIP3    H144789   2.515   6.458  16.900 -0.4148 -0.1190 -0.1813
 7766TIP3    H244790   2.574   6.360  16.800  0.2473  0.2441 -0.1523
 7767TIP3   OH244791   4.046   0.189  14.528 -0.4005 -0.4984  0.5105
 7767TIP3    H144792   4.058   0.098  14.557 -0.2942 -0.6650 -0.0562
 7767TIP3    H244793   4.081   0.242  14.600  1.1788 -0.9237  0.0948
 7768TIP3   OH244794   5.220   6.727   0.625  0.0455 -0.1766 -0.6100
 7768TIP3    H144795   5.268   6.783   0.685  0.4912 -1.1542 -0.0216
 7768TIP3    H244796   5.247   6.755   0.538  0.0006  0.7316 -0.3355
 7769TIP3   OH244797   4.510   4.494   2.951  0.4653 -0.0198  0.5509
 7769TIP3    H144798   4.419   4.469   2.932  0.9403 -1.4640 -0.0181
 7769TIP3    H244799   4.510   4.520   3.043 -0.1327 -2.2390  1.2377
 7770TIP3   OH244800   1.255   5.655  11.612  0.0129 -0.1099  0.5870
 7770TIP3    H144801   1.169   5.697  11.612  0.1196  0.2280  2.6989
 7770TIP3    H244802   1.248   5.584  11.548 -1.8962 -0.2118  0.8688
 7771TIP3   OH244803   4.438   0.524  13.557 -0.2512 -0.1840 -0.0807
 7771TIP3    H144804   4.501   0.461  13.522  1.4467  0.2702  1.9853
 7771TIP3    H244805   4.372   0.471  13.600 -1.0309 -0.6386 -1.7455
 7772TIP3   OH244806   3.052   0.363  14.974  0.0471 -1.1841 -0.1275
 7772TIP3    H144807   3.032   0.366  14.881 -1.0772 -0.1181  0.1305
 7772TIP3    H244808   2.987   0.421  15.015  0.9266 -1.1149  1.2393
 7773TIP3   OH244809   0.108   1.325  16.998  1.0829  0.6723 -0.2094
 7773TIP3    H144810   0.043   1.394  16.986  1.7811  1.2246 -0.9513
 7773TIP3    H244811   0.193   1.370  16.993  1.5367  0.0000  0.9435
 7774TIP3   OH244812   6.286   2.907  11.881  0.4572  0.1205  0.9524
 7774TIP3    H144813   6.370   2.863  11.868  0.0251 -0.5116  0.2366
 7774TIP3    H244814   6.282   2.971  11.810  1.0578  1.3229  1.9558
 7775TIP3   OH244815   0.099   0.971  16.975 -0.3162 -0.8158 -0.2459
 7775TIP3    H144816   0.023   1.020  16.944 -1.1653 -2.3072 -0.6305
 7775TIP3    H244817   0.078   0.950  17.066  0.3213  0.0193  0.1094
 7776TIP3   OH244818   1.872   0.560   5.510 -0.1224  0.1108  0.2585
 7776TIP3    H144819   1.965   0.543   5.497 -0.1801  0.4477 -0.7041
 7776TIP3    H244820   1.829   0.518   5.435 -0.9739 -1.8335  1.7381
 7777TIP3   OH244821   3.600   5.765   3.584  0.2655 -0.3301  0.2761
 7777TIP3    H144822   3.566   5.852   3.603  1.0581 -0.2931  1.6926
 7777TIP3    H244823   3.658   5.778   3.509  0.3422  0.3645  0.4464
 7778TIP3   OH244824   3.543   2.722   3.843  0.4850  0.3752  0.0675
 7778TIP3    H144825   3.509   2.637   3.813 -1.9607  1.7609 -1.4329
 7778TIP3    H244826   3.606   2.746   3.775 -1.6892  1.4246 -1.7098
 7779TIP3   OH244827   4.991   2.548  16.509  0.2866 -0.7134  0.3822
 7779TIP3    H144828   5.018   2.486  16.578 -0.8633  0.0408  1.5646
 7779TIP3    H244829   4.981   2.631  16.555  2.1781  0.5056 -1.2501
 7780TIP3   OH244830   5.160   1.128   5.541  0.0030 -0.0490 -0.4580
 7780TIP3    H144831   5.173   1.220   5.561  0.1967 -0.2571  0.3685
 7780TIP3    H244832   5.248   1.090   5.538 -0.1470 -0.5751  1.0077
 7781TIP3   OH244833   5.295   2.037   2.022 -0.3541 -0.3293 -0.4920
 7781TIP3    H144834   5.390   2.047   2.027 -0.4804  0.1180  1.7617
 7781TIP3    H244835   5.281   1.942   2.014  0.2557 -0.5006  0.3767
 7782TIP3   OH244836   0.115   1.402   2.145  0.1617 -0.1654  0.8539
 7782TIP3    H144837   0.140   1.490   2.117  0.6888 -0.3144  0.8404
 7782TIP3    H244838   0.160   1.344   2.084  0.2155 -0.4562  1.1667
 7783TIP3   OH244839   2.183   1.886   4.771 -0.3991  0.0501 -0.1327
 7783TIP3    H144840   2.209   1.964   4.820 -1.1500  0.2269 -0.0028
 7783TIP3    H244841   2.114   1.846   4.824 -0.9364  0.0156 -0.8379
 7784TIP3   OH244842   5.373   6.740   2.509 -0.0868  0.0903  0.1083
 7784TIP3    H144843   5.326   6.812   2.552 -2.0260 -0.7762 -0.4369
 7784TIP3    H244844   5.442   6.717   2.570 -0.9677  0.8181  1.4328
 7785TIP3   OH244845   1.393   4.529   6.228 -0.7204 -0.2576  0.0528
 7785TIP3    H144846   1.358   4.618   6.236 -0.4173  0.0469 -1.7250
 7785TIP3    H244847   1.324   4.473   6.265 -1.1227  0.6571  0.7240
 7786TIP3   OH244848   1.716   5.833  16.079  0.3302  0.2194  0.4655
 7786TIP3    H144849   1.670   5.848  15.996  0.7476  2.1893  0.5444
 7786TIP3    H244850   1.650   5.850  16.146  0.4841  0.4386  0.5583
 7787TIP3   OH244851   1.507   0.646  14.119  0.0651  0.4217 -0.4477
 7787TIP3    H144852   1.436   0.709  14.129  0.1619  0.7622 -1.7617
 7787TIP3    H244853   1.466   0.561  14.136 -0.0659  0.8041  1.3411
 7788TIP3   OH244854   0.170   5.585  15.476 -0.0402  0.4155  0.0390
 7788TIP3    H144855   0.074   5.586  15.475 -0.2551 -1.5707  3.2468
 7788TIP3    H244856   0.193   5.500  15.441  0.6396  1.0940 -1.2206
 7789TIP3   OH244857   1.739   5.910   4.382 -0.2337  0.1490  0.0544
 7789TIP3    H144858   1.806   5.938   4.443 -0.5689  3.0555 -0.7606
 7789TIP3    H244859   1.678   5.984   4.378 -1.4495 -0.8805 -2.0450
 7790TIP3   OH244860   2.795   2.479  12.938 -0.1641 -0.0747 -0.0113
 7790TIP3    H144861   2.820   2.414  12.872 -0.3425  0.7690 -0.9361
 7790TIP3    H244862   2.709   2.449  12.970 -0.1230 -0.4372 -0.2352
 7791TIP3   OH244863   2.224   0.559  12.635  0.5333  0.2629  0.3085
 7791TIP3    H144864   2.314   0.573  12.604  0.3806  0.7912  0.0933
 7791TIP3    H244865   2.226   0.472  12.674  0.1426 -1.5729 -3.3853
 7792TIP3   OH244866   6.099   1.373   5.361 -0.3715  0.4179 -0.5783
 7792TIP3    H144867   6.150   1.416   5.430 -0.8407  0.6349 -0.3671
 7792TIP3    H244868   6.132   1.283   5.360  1.7605  1.1235 -2.0938
 7793TIP3   OH244869   5.912   5.676   0.346  0.1224 -0.1211 -0.0108
 7793TIP3    H144870   6.008   5.668   0.345  0.1258 -0.2796 -1.8514
 7793TIP3    H244871   5.882   5.595   0.388  0.7910 -0.2064  0.3192
 7794TIP3   OH244872   4.297   6.469  15.383  0.0809  0.5059 -0.4953
 7794TIP3    H144873   4.282   6.533  15.453  1.3361  1.7412 -1.2881
 7794TIP3    H244874   4.364   6.411  15.418 -0.2855  0.2722 -0.1725
 7795TIP3   OH244875   1.161   4.719   4.247 -0.0144  0.3931 -0.1064
 7795TIP3    H144876   1.156   4.797   4.301  1.3798  0.0348  0.5935
 7795TIP3    H244877   1.092   4.662   4.280 -0.3529  0.9068  0.0777
 7796TIP3   OH244878   4.452   4.267  15.353 -0.4544  0.6693  0.4284
 7796TIP3    H144879   4.500   4.185  15.362  1.0459  1.6543  2.0376
 7796TIP3    H244880   4.517   4.335  15.370 -1.6795  2.2140 -0.7396
 7797TIP3   OH244881   4.961   1.712  12.546 -0.2742 -0.0775  0.4293
 7797TIP3    H144882   5.015   1.739  12.472  1.9481 -1.8926  1.2607
 7797TIP3    H244883   4.871   1.720  12.514  0.5818 -1.2901 -2.6913
 7798TIP3   OH244884   1.799   5.001   0.627  0.1841 -0.5922  0.2764
 7798TIP3    H144885   1.853   4.985   0.704  0.2071  0.6293  0.5339
 7798TIP3    H244886   1.725   4.942   0.637  0.1224 -0.3576  1.3055
 7799TIP3   OH244887   3.440   4.625   0.369 -0.1136  0.4795  0.1240
 7799TIP3    H144888   3.346   4.646   0.367  0.0702  1.2835 -0.7864
 7799TIP3    H244889   3.449   4.553   0.307 -0.4014 -0.9174  1.6313
 7800TIP3   OH244890   0.243   1.453  15.516 -0.1205  0.1658 -0.0068
 7800TIP3    H144891   0.295   1.375  15.534 -0.3374  0.2042  0.8655
 7800TIP3    H244892   0.282   1.521  15.571 -1.2730  0.1036  0.9461
 7801TIP3   OH244893   1.355   5.865  15.011 -0.4064 -0.2064  0.1482
 7801TIP3    H144894   1.408   5.919  15.069 -0.7255  1.1140 -0.7339
 7801TIP3    H244895   1.315   5.799  15.069  3.2702 -2.2385  0.6430
 7802TIP3   OH244896   4.830   2.930   1.254 -0.0109  0.1364  0.0705
 7802TIP3    H144897   4.913   2.934   1.206 -0.2777  2.3499 -0.2865
 7802TIP3    H244898   4.840   2.854   1.311  0.8876 -1.7465 -2.4065
 7803TIP3   OH244899   4.193   1.771   4.875  0.2472  0.1875  0.6444
 7803TIP3    H144900   4.176   1.838   4.809  1.0289 -0.4787 -0.2664
 7803TIP3    H244901   4.260   1.810   4.932  1.4895 -0.1804 -0.5103
 7804TIP3   OH244902   2.619   4.189   1.748  0.0688  0.6257  0.5000
 7804TIP3    H144903   2.621   4.279   1.714 -1.2463  0.3144 -0.5257
 7804TIP3    H244904   2.580   4.197   1.835 -0.5368  1.0189  0.2043
 7805TIP3   OH244905   3.853   1.650   4.580  0.3025  0.4554  0.0989
 7805TIP3    H144906   3.873   1.723   4.638 -1.3873  1.8589 -0.9776
 7805TIP3    H244907   3.802   1.589   4.634 -0.2301  1.1715  0.4134
 7806TIP3   OH244908   5.405   1.616   1.303 -0.1417  0.1744 -0.2035
 7806TIP3    H144909   5.362   1.628   1.219  0.3792 -0.6578 -0.6078
 7806TIP3    H244910   5.496   1.594   1.281 -0.7287 -3.3886  0.4078
 7807TIP3   OH244911   1.833   6.660   1.515 -0.1307 -0.4813 -0.6851
 7807TIP3    H144912   1.779   6.596   1.561  0.3410 -0.8971 -0.7063
 7807TIP3    H244913   1.770   6.722   1.478 -0.4634  1.0720  2.2262
 7808TIP3   OH244914   1.187   1.948   3.975 -0.2867 -0.1256 -0.3830
 7808TIP3    H144915   1.104   1.988   3.950 -0.2196  0.3156  0.0833
 7808TIP3    H244916   1.251   2.018   3.965  0.2410 -0.7620 -1.8474
 7809TIP3   OH244917   6.489   3.456  12.541 -0.8559  0.0812  0.1614
 7809TIP3    H144918   6.486   3.371  12.587 -0.0132  0.9288  1.8842
 7809TIP3    H244919   6.493   3.520  12.611 -1.2246  1.5622 -1.1266
 7810TIP3   OH244920   5.961   2.834  13.606 -0.0537  0.0814  0.6293
 7810TIP3    H144921   6.047   2.850  13.644  0.2273  0.8868 -0.3123
 7810TIP3    H244922   5.969   2.750  13.563 -0.3501 -0.8069  2.2238
 7811TIP3   OH244923   5.649   1.056   1.072 -0.2735  0.4999 -0.6953
 7811TIP3    H144924   5.555   1.038   1.077 -0.3982  1.2986  0.4417
 7811TIP3    H244925   5.685   1.019   1.153  0.0276  2.0544 -0.0770
 7812TIP3   OH244926   4.742   3.619   1.936 -0.4128  0.1727 -0.0417
 7812TIP3    H144927   4.658   3.663   1.924 -0.3222  0.1081 -0.9995
 7812TIP3    H244928   4.773   3.648   2.022 -2.2144 -1.1568  1.1385
 7813TIP3   OH244929   1.343   3.576  17.223 -0.1714  0.2288 -0.0786
 7813TIP3    H144930   1.397   3.558  17.146 -2.2776 -0.9217 -1.4035
 7813TIP3    H244931   1.327   3.489  17.261 -1.6927  0.4354 -0.1911
 7814TIP3   OH244932   3.038   4.933  11.967  0.1452 -0.4489  0.1661
 7814TIP3    H144933   2.993   5.002  11.919  0.9685 -0.0314 -0.0256
 7814TIP3    H244934   3.116   4.976  12.003  1.4434 -1.5763 -1.1609
 7815TIP3   OH244935   4.739   3.719   2.935 -0.7371 -0.1968  0.4457
 7815TIP3    H144936   4.740   3.668   3.016 -2.0908 -0.5942  0.2208
 7815TIP3    H244937   4.649   3.716   2.905 -0.2223 -0.2270 -1.2058
 7816TIP3   OH244938   4.149   2.082   1.058  0.4455 -0.3286 -0.3206
 7816TIP3    H144939   4.212   2.040   1.000  1.0922  0.2753 -0.0746
 7816TIP3    H244940   4.192   2.163   1.086 -0.5299  0.2204 -0.3307
 7817TIP3   OH244941   2.196   2.597  15.829  0.0951  0.4309 -0.0941
 7817TIP3    H144942   2.192   2.692  15.840  0.9951  0.5854 -1.0250
 7817TIP3    H244943   2.106   2.568  15.843  0.0160  1.2631  1.4252
 7818TIP3   OH244944   1.960   3.111  12.979 -0.2631 -0.5213  0.3254
 7818TIP3    H144945   1.947   3.034  12.923  1.5361  0.1496 -1.1249
 7818TIP3    H244946   1.979   3.074  13.066  0.3630 -1.7332 -0.2952
 7819TIP3   OH244947   4.533   5.930   1.101  0.3350  0.4791 -0.5293
 7819TIP3    H144948   4.574   5.989   1.164  0.3087  0.5135 -0.5448
 7819TIP3    H244949   4.532   5.845   1.146 -0.5327  0.7014 -0.1066
 7820TIP3   OH244950   5.601   2.340  15.928 -0.0745  0.2918  0.1213
 7820TIP3    H144951   5.508   2.354  15.908  0.0631  2.2307  0.6950
 7820TIP3    H244952   5.647   2.372  15.850  0.1926  1.7959  0.8689
 7821TIP3   OH244953   6.043   5.329   4.789 -0.0288  0.3542  0.2352
 7821TIP3    H144954   6.053   5.290   4.876  0.8774 -0.4706 -0.2162
 7821TIP3    H244955   5.968   5.284   4.750  0.9324 -0.9145 -0.2347
 7822TIP3   OH244956   1.032   5.759  13.679 -0.0068  0.1646 -0.3304
 7822TIP3    H144957   0.988   5.739  13.596 -1.0296 -2.1748  0.7089
 7822TIP3    H244958   0.964   5.797  13.734 -0.0654 -0.9387  0.3755
 7823TIP3   OH244959   5.671   4.186   1.201  0.1115 -0.2595 -0.3018
 7823TIP3    H144960   5.632   4.266   1.165  0.6780  0.3145  0.3507
 7823TIP3    H244961   5.765   4.197   1.188  0.1580 -1.1033 -0.7662
 7824TIP3   OH244962   6.212   5.145   2.142 -0.7228  0.7987 -0.1039
 7824TIP3    H144963   6.189   5.140   2.050 -3.1753  0.2066  0.4726
 7824TIP3    H244964   6.142   5.196   2.182  1.0182  2.2803  1.2599
 7825TIP3   OH244965   1.274   0.225  14.849  0.0492  0.0867  1.0558
 7825TIP3    H144966   1.296   0.149  14.903 -2.2632 -1.1927  0.3081
 7825TIP3    H244967   1.189   0.254  14.882 -0.3122  0.7333 -0.3793
 7826TIP3   OH244968   3.735   4.854   0.054 -0.3168  0.1510 -0.0810
 7826TIP3    H144969   3.649   4.845   0.097  0.4540  0.6330  1.6563
 7826TIP3    H244970   3.791   4.792   0.100  0.3241 -0.0012 -1.0544
 7827TIP3   OH244971   1.259   6.180  13.431  0.7025  0.0366 -0.1530
 7827TIP3    H144972   1.317   6.188  13.506  1.4104 -0.5873 -0.6166
 7827TIP3    H244973   1.198   6.253  13.439  1.0048  0.1891  0.8173
 7828TIP3   OH244974   4.221   3.087   3.274 -0.1351 -0.2226 -0.1627
 7828TIP3    H144975   4.254   3.003   3.241 -0.4434  0.1080 -1.3561
 7828TIP3    H244976   4.127   3.085   3.254 -0.3733 -0.0879  0.8974
 7829TIP3   OH244977   2.427   0.442  17.054 -0.4905  0.3526 -0.6562
 7829TIP3    H144978   2.517   0.424  17.026 -0.7470  0.1097 -1.3321
 7829TIP3    H244979   2.402   0.366  17.106  0.5161  1.4657  1.5792
 7830TIP3   OH244980   4.744   1.588  13.880 -0.3383  0.2001  0.2261
 7830TIP3    H144981   4.734   1.496  13.906  0.1757  0.1311  0.1917
 7830TIP3    H244982   4.736   1.636  13.962 -0.3480  0.1027  0.2832
 7831TIP3   OH244983   3.253   0.791  11.182  0.1283 -0.3995  0.0340
 7831TIP3    H144984   3.330   0.821  11.134  0.0462  0.6436  0.5406
 7831TIP3    H244985   3.202   0.742  11.117  0.5846  0.0007 -0.6410
 7832TIP3   OH244986   4.346   3.098   5.453 -0.1103  0.3012  0.8139
 7832TIP3    H144987   4.409   3.034   5.485  0.9834  1.6952  1.5108
 7832TIP3    H244988   4.274   3.095   5.517  0.9054  1.2578  2.0358
 7833TIP3   OH244989   2.437   6.318  13.507 -0.2549 -0.0676 -0.4913
 7833TIP3    H144990   2.381   6.383  13.549 -1.7591 -0.9207 -1.0928
 7833TIP3    H244991   2.388   6.236  13.514  1.8349 -1.3001  0.7509
 7834TIP3   OH244992   1.504   4.285  15.568  0.4955  0.8083  0.1379
 7834TIP3    H144993   1.453   4.365  15.553 -0.0985  0.4457  0.1877
 7834TIP3    H244994   1.439   4.215  15.568  1.0931  0.2423 -0.5547
 7835TIP3   OH244995   2.615   2.046  17.325  0.7121 -0.3526  0.1754
 7835TIP3    H144996   2.630   2.134  17.361 -0.8007  0.0773 -0.1532
 7835TIP3    H244997   2.576   2.062  17.239 -0.9163 -1.2954  0.6837
 7836TIP3   OH244998   0.350   5.761  12.009  0.2113 -0.3229 -0.2610
 7836TIP3    H144999   0.381   5.757  12.100 -2.3225 -0.4198  0.6723
 7836TIP3    H245000   0.319   5.673  11.990 -0.8449  0.0937 -0.5851
 7837TIP3   OH245001   6.700   5.981  14.547 -0.1745  0.6092  0.6882
 7837TIP3    H145002   6.704   6.021  14.633 -0.8800 -1.1274  1.5887
 7837TIP3    H245003   6.791   5.971  14.520  0.0555  0.9568  1.3465
 7838TIP3   OH245004   0.005   6.661   0.710 -0.0007 -0.4315 -0.0699
 7838TIP3    H145005   0.079   6.721   0.716 -0.5512  0.4583 -1.5253
 7838TIP3    H245006   0.029   6.598   0.642 -0.0193 -0.9913  0.4332
 7839TIP3   OH245007   2.124   1.226  12.457  0.6644 -0.3110 -0.0612
 7839TIP3    H145008   2.059   1.290  12.487  1.5366  1.2690 -1.3326
 7839TIP3    H245009   2.075   1.145  12.444 -0.7455  0.4363  0.3877
 7840TIP3   OH245010   6.514   0.747   4.120  0.1791 -0.4858 -0.1582
 7840TIP3    H145011   6.504   0.703   4.036 -0.0314 -2.0650  0.6645
 7840TIP3    H245012   6.451   0.704   4.177 -0.3243  1.1838  0.5844
 7841TIP3   OH245013   4.786   1.514  13.388  0.5363  0.3306 -0.2725
 7841TIP3    H145014   4.789   1.419  13.378 -1.6731 -0.0212  1.4230
 7841TIP3    H245015   4.836   1.532  13.468  1.1114  0.6208 -0.6944
 7842TIP3   OH245016   4.337   0.353   2.740 -0.9233 -0.1961 -0.4433
 7842TIP3    H145017   4.243   0.334   2.734 -0.9940  0.1939 -0.6195
 7842TIP3    H245018   4.352   0.421   2.674 -0.5014 -0.3092 -0.4687
 7843TIP3   OH245019   3.702   1.675  11.525  0.1087 -0.2601 -0.0709
 7843TIP3    H145020   3.658   1.720  11.597  0.9235  0.0616  0.2476
 7843TIP3    H245021   3.784   1.643  11.563  0.1539 -0.8437 -0.6397
 7844TIP3   OH245022   0.432   5.140   4.517 -0.3470  0.2176 -0.4739
 7844TIP3    H145023   0.472   5.114   4.434 -0.7943 -1.9533 -0.0922
 7844TIP3    H245024   0.495   5.113   4.584 -0.1381  1.6394 -0.0766
 7845TIP3   OH245025   1.362   0.751  13.662 -0.3142  0.3218  0.2048
 7845TIP3    H145026   1.395   0.670  13.701  0.5248  1.3737  1.7919
 7845TIP3    H245027   1.353   0.811  13.736 -3.1020  1.0058 -0.5753
 7846TIP3   OH245028   4.004   3.204  16.577 -0.1406 -1.0264  0.4347
 7846TIP3    H145029   4.068   3.135  16.556  1.3116  0.3337  0.1272
 7846TIP3    H245030   3.970   3.231  16.491 -0.0045 -0.7371  0.4708
 7847TIP3   OH245031   6.745   3.871   3.481  0.5216 -0.4368 -0.6350
 7847TIP3    H145032   6.771   3.816   3.407  0.0783 -0.6607 -0.6304
 7847TIP3    H245033   6.776   3.959   3.458  1.7127 -0.7722 -0.3968
 7848TIP3   OH245034   5.745   5.368  16.437  0.0899 -0.2894 -0.2658
 7848TIP3    H145035   5.794   5.437  16.482  2.7013 -2.0442 -0.2062
 7848TIP3    H245036   5.782   5.365  16.349  0.1297 -1.6861 -0.2262
 7849TIP3   OH245037   5.678   1.044   2.544 -0.2945 -0.0251 -0.1562
 7849TIP3    H145038   5.713   0.971   2.596 -0.6912 -1.2534 -1.5603
 7849TIP3    H245039   5.755   1.085   2.505 -0.0399  0.5531  0.9191
 7850TIP3   OH245040   5.527   6.057   3.885  0.4118 -0.4616 -0.0300
 7850TIP3    H145041   5.539   5.988   3.950  1.0551 -0.5063 -0.1866
 7850TIP3    H245042   5.465   6.118   3.925  0.0941 -0.9610  0.2437
 7851TIP3   OH245043   3.093   5.554  10.592  0.0367 -0.5432  0.4778
 7851TIP3    H145044   3.158   5.593  10.534  0.8483 -2.4586  0.0155
 7851TIP3    H245045   3.075   5.621  10.658  3.1913 -0.2562  1.1722
 7852TIP3   OH245046   4.353   2.436   5.544  0.0936 -0.8050 -0.2118
 7852TIP3    H145047   4.349   2.388   5.462 -2.3172  0.0135 -0.6533
 7852TIP3    H245048   4.317   2.375   5.609 -0.9370 -0.3812 -0.3712
 7853TIP3   OH245049   2.386   0.251  12.136 -0.4478  0.2068  0.0526
 7853TIP3    H145050   2.428   0.227  12.054 -0.1020 -0.9285  0.5423
 7853TIP3    H245051   2.407   0.179  12.196 -0.9783  0.8463  1.0357
 7854TIP3   OH245052   3.592   4.103  11.899  0.4472  0.3333  0.0397
 7854TIP3    H145053   3.532   4.090  11.826 -1.3304  0.6817  1.3763
 7854TIP3    H245054   3.585   4.023  11.951  1.4356  0.2216  0.0100
 7855TIP3   OH245055   4.382   6.050   6.398  0.2671  0.0308  0.1558
 7855TIP3    H145056   4.291   6.022   6.405  0.1508 -0.1181 -1.4857
 7855TIP3    H245057   4.385   6.133   6.445 -0.3330 -0.7148  1.5776
 7856TIP3   OH245058   5.212   0.014  11.711  0.2887 -0.4020  0.1484
 7856TIP3    H145059   5.204   0.064  11.629 -1.1523  1.1198  1.1643
 7856TIP3    H245060   5.306  -0.003  11.719  0.9448  2.5415 -0.0746
 7857TIP3   OH245061   6.454   3.669  13.454 -0.7141 -0.0509 -0.3481
 7857TIP3    H145062   6.362   3.647  13.445 -1.0021  0.4404  1.2327
 7857TIP3    H245063   6.455   3.763  13.473  0.0200 -0.3060  0.9693
 7858TIP3   OH245064   3.204   5.161   0.469 -0.2118  0.2143  0.0100
 7858TIP3    H145065   3.127   5.119   0.509  0.2531  0.8009  1.6225
 7858TIP3    H245066   3.205   5.129   0.379 -1.5378 -0.9086  0.3548
 7859TIP3   OH245067   3.251   6.243  13.043  0.2116 -0.1557 -0.0616
 7859TIP3    H145068   3.169   6.258  13.089 -0.0087  0.0204 -0.5117
 7859TIP3    H245069   3.257   6.147  13.038  0.2706 -0.1813  0.3827
 7860TIP3   OH245070   5.253   4.182  15.183  0.8720  0.0164  0.7192
 7860TIP3    H145071   5.299   4.266  15.190  2.3276 -0.8867  2.5182
 7860TIP3    H245072   5.308   4.129  15.125  0.6537 -0.1709  0.6789
 7861TIP3   OH245073   3.874   3.707   3.558  0.8317 -0.4454 -0.6776
 7861TIP3    H145074   3.818   3.772   3.600  0.9371 -0.3139 -0.7398
 7861TIP3    H245075   3.857   3.717   3.465 -0.2357 -1.5003 -0.6140
 7862TIP3   OH245076   2.790   6.320  16.140  0.3263  0.4463 -0.1837
 7862TIP3    H145077   2.792   6.229  16.110  0.2472 -0.2688  1.7933
 7862TIP3    H245078   2.697   6.344  16.136  0.1175 -0.1327  0.7658
 7863TIP3   OH245079   5.498   0.360  12.060 -0.0710 -0.2689  0.4160
 7863TIP3    H145080   5.530   0.412  11.987 -1.5144 -0.4242 -0.3497
 7863TIP3    H245081   5.485   0.272  12.024 -0.3277 -0.4748  0.9870
 7864TIP3   OH245082   1.239   4.314  13.901  0.4671 -0.2905  0.4651
 7864TIP3    H145083   1.307   4.252  13.874  1.9472  1.1092  0.8149
 7864TIP3    H245084   1.160   4.261  13.910  1.4099 -1.9043 -0.3589
 7865TIP3   OH245085   4.992   3.330   0.120  0.1855  0.4502  0.1835
 7865TIP3    H145086   5.039   3.279   0.055  1.0899  1.8559 -0.3015
 7865TIP3    H245087   5.026   3.299   0.204 -1.2182 -1.5979  0.0762
 7866TIP3   OH245088   4.905   5.062  12.588 -0.4649 -0.4941  0.5419
 7866TIP3    H145089   4.877   5.077  12.498  3.8481  0.0977 -0.9287
 7866TIP3    H245090   4.906   5.150  12.627 -1.1266 -0.5932  0.7969
 7867TIP3   OH245091   5.081   3.240   0.399  0.4138 -0.1674 -0.5597
 7867TIP3    H145092   5.025   3.166   0.376  1.4753 -0.3771 -2.7841
 7867TIP3    H245093   5.170   3.205   0.395  0.8247  0.6049  1.0573
 7868TIP3   OH245094   4.688   2.829  11.669  0.1821 -0.5492 -0.3949
 7868TIP3    H145095   4.666   2.839  11.762  1.1991 -0.1878 -0.1785
 7868TIP3    H245096   4.748   2.902  11.651 -0.6320 -0.1461 -1.5454
 7869TIP3   OH245097   0.979   5.912  14.607 -0.2645  0.3210 -0.7301
 7869TIP3    H145098   0.922   5.851  14.655 -1.6820  2.2355  0.1817
 7869TIP3    H245099   0.962   5.894  14.515  1.0690 -2.1378 -0.5872
 7870TIP3   OH245100   5.570   4.008  13.033 -1.1366  0.0511 -0.0475
 7870TIP3    H145101   5.518   4.009  12.952 -1.5692  2.8385  0.1652
 7870TIP3    H245102   5.505   4.020  13.103 -0.6456 -1.1623  0.6383
 7871TIP3   OH245103   4.533   3.905   6.803 -0.0992  0.1682  0.3771
 7871TIP3    H145104   4.454   3.851   6.812 -1.5400  1.7943 -1.6481
 7871TIP3    H245105   4.605   3.843   6.817 -1.6810 -1.6591  0.9618
 7872TIP3   OH245106   5.890   0.390   6.808  0.1811 -0.5664  0.2168
 7872TIP3    H145107   5.819   0.408   6.870 -0.4907 -0.2993 -0.6196
 7872TIP3    H245108   5.862   0.430   6.726  1.7811  0.4647  0.1318
 7873TIP3   OH245109   4.523   2.796   0.090  0.1358 -0.1883 -0.5284
 7873TIP3    H145110   4.484   2.878   0.118 -0.7403 -0.5005 -0.8140
 7873TIP3    H245111   4.460   2.758   0.029  0.5132 -1.0811 -0.3903
 7874TIP3   OH245112   1.117   2.347  17.204  0.3665 -0.3294  0.6318
 7874TIP3    H145113   1.166   2.272  17.172  1.3746  0.8985 -0.8519
 7874TIP3    H245114   1.026   2.327  17.185  0.5958 -1.2950  0.5317
 7875TIP3   OH245115   0.642   4.761   3.963  0.3702 -0.1380 -0.3941
 7875TIP3    H145116   0.615   4.700   3.895  0.9808 -2.2596  1.1324
 7875TIP3    H245117   0.703   4.821   3.920  1.2993 -1.8524 -1.5738
 7876TIP3   OH245118   0.007   0.649  16.814 -0.4826 -0.0026 -0.0985
 7876TIP3    H145119  -0.020   0.626  16.903  0.1638 -0.8299 -0.1021
 7876TIP3    H245120   0.069   0.721  16.824  1.2074 -1.4459  0.3100
 7877TIP3   OH245121   2.927   4.348   3.558  0.2780 -0.4124 -0.1847
 7877TIP3    H145122   2.885   4.323   3.640  1.0755  0.8047  0.6343
 7877TIP3    H245123   2.901   4.280   3.496 -2.7126  0.1561  0.2868
 7878TIP3   OH245124   3.402   0.112   5.523  0.3942  0.6838 -0.1563
 7878TIP3    H145125   3.441   0.073   5.601 -0.2061 -1.1751 -0.7376
 7878TIP3    H245126   3.477   0.151   5.477  1.0517  0.1124  0.3953
 7879TIP3   OH245127   2.593   4.757  12.256  0.1972  0.1246 -0.5152
 7879TIP3    H145128   2.683   4.736  12.278  0.3599  1.0319 -0.2629
 7879TIP3    H245129   2.599   4.832  12.197 -0.4350  1.6667  1.2780
 7880TIP3   OH245130   3.167   6.696  14.142 -0.2484 -0.7946 -0.3056
 7880TIP3    H145131   3.140   6.642  14.216 -1.2810  0.6893  0.4478
 7880TIP3    H245132   3.085   6.715  14.095 -0.2143  1.4782  0.4253
 7881TIP3   OH245133   0.084   1.361  14.505 -0.0001 -0.0918  0.1938
 7881TIP3    H145134   0.077   1.444  14.552 -0.2788 -0.1824  0.3184
 7881TIP3    H245135  -0.002   1.320  14.517  0.0976 -0.3450  0.0349
 7882TIP3   OH245136   1.900   5.984  12.155  0.2554  0.2757  0.2855
 7882TIP3    H145137   1.844   5.968  12.231 -0.2421 -0.3981 -0.2150
 7882TIP3    H245138   1.844   6.028  12.092  0.6633  0.8171  0.2872
 7883TIP3   OH245139   1.658   2.811  15.252 -0.3192 -0.0717 -0.3994
 7883TIP3    H145140   1.693   2.833  15.338  1.0444  0.8715 -1.1492
 7883TIP3    H245141   1.702   2.730  15.228 -0.9373 -0.5063 -0.0931
 7884TIP3   OH245142   5.202   3.434  16.149  0.2097 -0.2361 -0.2550
 7884TIP3    H145143   5.251   3.490  16.089  0.8630 -2.3403 -1.8192
 7884TIP3    H245144   5.243   3.348  16.140 -1.7030 -1.3353  0.8823
 7885TIP3   OH245145   0.280   3.928   5.091 -0.2370  0.0312 -0.3464
 7885TIP3    H145146   0.307   3.837   5.106  0.5303  0.3454  0.2289
 7885TIP3    H245147   0.230   3.924   5.009  0.3145 -0.8183 -0.6668
 7886TIP3   OH245148   6.024   5.135   1.089 -0.6391 -0.0788  0.0097
 7886TIP3    H145149   5.932   5.149   1.109 -0.4103  0.4932  0.6526
 7886TIP3    H245150   6.028   5.138   0.993 -1.0482  1.4131  0.0239
 7887TIP3   OH245151   4.572   6.234   4.980 -0.2889 -0.1341 -0.5382
 7887TIP3    H145152   4.517   6.292   4.927 -1.4211 -1.4245 -0.8167
 7887TIP3    H245153   4.554   6.261   5.071 -0.6577  0.0901 -0.6751
 7888TIP3   OH245154   0.134   0.419   3.698 -0.5776 -0.1719  0.2579
 7888TIP3    H145155   0.064   0.454   3.642 -0.1018  0.9909  0.3484
 7888TIP3    H245156   0.089   0.363   3.761 -1.4558  0.6967  0.4257
 7889TIP3   OH245157   6.452   2.778   4.793  0.0349  0.3677 -0.2075
 7889TIP3    H145158   6.371   2.729   4.784  0.2017  0.4776 -3.6966
 7889TIP3    H245159   6.513   2.734   4.734  2.8336 -0.1366  2.7954
 7890TIP3   OH245160   0.992   3.839  15.159  0.0633  0.1522 -0.0379
 7890TIP3    H145161   0.931   3.896  15.206 -0.5158 -0.8313  0.4382
 7890TIP3    H245162   1.054   3.810  15.226 -1.7470 -2.6109  0.6337
 7891TIP3   OH245163   0.863   6.533  13.083 -0.5031  0.0161  0.5008
 7891TIP3    H145164   0.881   6.469  13.014  0.9367  0.9201 -0.0180
 7891TIP3    H245165   0.824   6.482  13.154 -0.1633 -1.2811 -0.2196
 7892TIP3   OH245166   4.457   4.176  16.661 -0.2206  0.4084 -0.1494
 7892TIP3    H145167   4.520   4.241  16.632 -0.4185  0.4210 -0.5585
 7892TIP3    H245168   4.452   4.113  16.589 -0.2604  0.1082  0.1140
 7893TIP3   OH245169   3.249   4.590  15.165  0.6436 -0.2343 -0.6757
 7893TIP3    H145170   3.192   4.515  15.182 -0.5359  0.6882 -0.3481
 7893TIP3    H245171   3.286   4.612  15.250  1.1319 -0.5496 -0.8050
 7894TIP3   OH245172   6.121   3.747  12.756 -0.5943  0.0818 -0.0084
 7894TIP3    H145173   6.216   3.743  12.749 -0.5873  1.9241 -1.7226
 7894TIP3    H245174   6.101   3.700  12.837  1.8088  0.2262  0.7425
 7895TIP3   OH245175   5.784   5.865   0.783  0.4658  0.4538  0.2151
 7895TIP3    H145176   5.701   5.882   0.827 -0.0289  1.7788 -1.1269
 7895TIP3    H245177   5.776   5.775   0.750 -1.1775  1.1163 -1.3577
 7896TIP3   OH245178   1.293   2.204  15.006 -0.3389 -0.2215 -0.1258
 7896TIP3    H145179   1.310   2.290  14.969  0.3023  0.6439  2.0199
 7896TIP3    H245180   1.268   2.150  14.931  1.5430  1.1975 -1.9108
 7897TIP3   OH245181   2.507   4.326   6.611 -0.1816 -0.6683  0.4914
 7897TIP3    H145182   2.535   4.234   6.603 -0.4157 -0.6675 -0.5192
 7897TIP3    H245183   2.572   4.375   6.562 -1.9490 -0.6844 -2.0739
 7898TIP3   OH245184   1.590   1.332  16.032  0.2094  0.5707 -0.1451
 7898TIP3    H145185   1.541   1.368  16.106  1.3005  0.1129  0.8178
 7898TIP3    H245186   1.634   1.255  16.067  3.2349  2.0450 -0.3911
 7899TIP3   OH245187   3.383   3.157   2.214  0.0256 -0.2100 -0.7634
 7899TIP3    H145188   3.468   3.186   2.247  0.1352 -0.9058 -0.4175
 7899TIP3    H245189   3.403   3.098   2.142 -0.1439 -0.7726 -0.3571
 7900TIP3   OH245190   0.208   3.485  14.313  0.3299 -0.0077 -0.4729
 7900TIP3    H145191   0.296   3.478  14.348 -0.8088 -1.3126  2.3838
 7900TIP3    H245192   0.191   3.580  14.311  1.8479  0.2911 -1.4175
 7901TIP3   OH245193   0.330   0.911   5.170 -0.2470 -0.3126 -0.0638
 7901TIP3    H145194   0.420   0.924   5.199 -0.3137  0.9970 -0.3855
 7901TIP3    H245195   0.305   0.995   5.131 -1.4056 -0.8492 -0.5193
 7902TIP3   OH245196   5.547   0.813  16.030 -0.1688 -0.1856 -0.3667
 7902TIP3    H145197   5.537   0.856  15.945  0.4885  2.1779  0.6780
 7902TIP3    H245198   5.482   0.855  16.086 -0.8435 -1.9635  0.2470
 7903TIP3   OH245199   4.863   4.782  12.697  0.0614 -0.1091  0.3850
 7903TIP3    H145200   4.823   4.774  12.784 -0.5120 -0.1236  0.1245
 7903TIP3    H245201   4.831   4.867  12.665 -0.3997 -0.4826 -0.1501
 7904TIP3   OH245202   3.759   2.911   4.659 -0.0095 -0.6750 -0.3966
 7904TIP3    H145203   3.702   2.864   4.599 -2.6747  1.5130  0.2468
 7904TIP3    H245204   3.765   2.854   4.736 -0.4048 -1.4093 -0.9003
 7905TIP3   OH245205   6.492   0.626   3.236  0.1251 -0.9192 -0.2865
 7905TIP3    H145206   6.447   0.567   3.176  2.9445 -2.0488 -1.4846
 7905TIP3    H245207   6.563   0.663   3.184  1.5171 -0.4260  1.8303
 7906TIP3   OH245208   3.857   4.569   2.497  0.3326 -0.1350  0.0638
 7906TIP3    H145209   3.767   4.564   2.466 -0.0603 -1.9265  1.3583
 7906TIP3    H245210   3.906   4.604   2.422 -1.0414 -1.4785 -1.5272
 7907TIP3   OH245211   0.775   5.161   4.081 -0.0261 -0.0282 -0.1028
 7907TIP3    H145212   0.822   5.087   4.118  2.1220  0.7525 -1.1000
 7907TIP3    H245213   0.699   5.122   4.039  0.6542 -1.5804  0.0204
 7908TIP3   OH245214   3.221   1.448  12.389  0.3867 -0.3363  0.3165
 7908TIP3    H145215   3.167   1.399  12.326 -1.1754  1.2541  0.3392
 7908TIP3    H245216   3.188   1.422  12.475 -1.7619  1.9699  0.3193
 7909TIP3   OH245217   2.066   5.534  15.674  0.0826  0.4472 -0.6368
 7909TIP3    H145218   2.138   5.491  15.719  2.0428  3.2255 -0.8660
 7909TIP3    H245219   2.040   5.606  15.732 -2.8870 -0.7090 -0.3685
 7910TIP3   OH245220   2.424   1.367  11.386  0.3182  0.4931 -0.2725
 7910TIP3    H145221   2.416   1.461  11.367 -2.2597 -0.1271 -3.0854
 7910TIP3    H245222   2.510   1.343  11.351  1.3489  1.8514  1.1519
 7911TIP3   OH245223   1.687   2.705   1.120  0.6012  0.0545 -0.3132
 7911TIP3    H145224   1.619   2.666   1.175  1.2541 -1.4057 -0.5079
 7911TIP3    H245225   1.638   2.751   1.052 -0.2132 -0.6171 -0.2067
 7912TIP3   OH245226   3.409   4.044   6.033 -0.0885  0.1220  0.0965
 7912TIP3    H145227   3.338   4.082   5.982 -0.3684  3.7953  2.8598
 7912TIP3    H245228   3.488   4.068   5.986 -0.4275 -1.6318 -1.5278
 7913TIP3   OH245229   3.639   5.152  15.175 -0.0624 -0.0716  0.2080
 7913TIP3    H145230   3.699   5.152  15.249  0.0918 -2.7138  0.1651
 7913TIP3    H245231   3.689   5.189  15.102  0.8482 -0.4528  0.6381
 7914TIP3   OH245232   6.117   6.205  14.550  0.3051 -0.8444  0.1389
 7914TIP3    H145233   6.079   6.219  14.636 -0.6056 -1.8875 -0.0637
 7914TIP3    H245234   6.194   6.150  14.566 -0.3157 -1.7153  0.2396
 7915TIP3   OH245235   1.401   0.596   6.425 -0.1190 -0.4800  0.2288
 7915TIP3    H145236   1.392   0.672   6.368 -1.2633 -1.4657 -0.9756
 7915TIP3    H245237   1.432   0.632   6.508 -0.0214  1.2110 -0.4963
 7916TIP3   OH245238   2.492   1.091   1.488  0.7518 -0.2679  0.4918
 7916TIP3    H145239   2.423   1.033   1.522 -0.8373 -0.0443 -2.0966
 7916TIP3    H245240   2.448   1.176   1.477  1.1928 -0.2832 -1.8102
 7917TIP3   OH245241   2.100   1.530  13.872  0.0890  0.1623  0.0006
 7917TIP3    H145242   2.188   1.543  13.907  0.2619 -0.3921 -0.2240
 7917TIP3    H245243   2.055   1.612  13.891  1.3445  1.3829 -1.9153
 7918TIP3   OH245244   5.503   2.681  11.381 -0.1238  0.2532 -0.1672
 7918TIP3    H145245   5.498   2.586  11.371  0.5760  0.3033 -1.2280
 7918TIP3    H245246   5.412   2.709  11.384 -0.3718 -0.3474 -1.2514
 7919TIP3   OH245247   0.735   5.160  11.356  0.6962  0.3328  0.2801
 7919TIP3    H145248   0.708   5.183  11.267  0.7248  0.9065  0.4208
 7919TIP3    H245249   0.777   5.074  11.346 -1.2387 -0.6445  0.0621
 7920TIP3   OH245250   6.168   2.826   2.260 -0.1155  0.2387  0.4213
 7920TIP3    H145251   6.229   2.899   2.268  0.4982  0.0078 -1.5852
 7920TIP3    H245252   6.210   2.754   2.306  1.4378 -0.0665 -1.3727
 7921TIP3   OH245253   3.856   1.166  12.699 -0.7554 -0.5996  0.2046
 7921TIP3    H145254   3.830   1.074  12.689  0.4011 -0.8762 -0.3411
 7921TIP3    H245255   3.820   1.192  12.784  0.3242 -2.0605  1.1488
 7922TIP3   OH245256   5.801   2.110  13.639  0.0242 -0.2391 -0.2475
 7922TIP3    H145257   5.892   2.141  13.642  0.4783 -1.4728 -0.7559
 7922TIP3    H245258   5.787   2.086  13.548 -0.4793 -1.0311  0.0313
 7923TIP3   OH245259   5.024   0.511  14.850  0.3478  0.1472  0.0989
 7923TIP3    H145260   5.008   0.503  14.756  0.0389  0.6136  0.1040
 7923TIP3    H245261   5.049   0.603  14.861 -1.0798  0.4957  0.6653
 7924TIP3   OH245262   4.600   2.686  13.414 -0.4676  0.3885 -0.0154
 7924TIP3    H145263   4.690   2.674  13.385 -0.3794 -1.3136  0.8626
 7924TIP3    H245264   4.604   2.761  13.474  0.7451 -0.8749  1.5415
 7925TIP3   OH245265   4.496   1.377  17.172  0.2432  0.4873 -0.0633
 7925TIP3    H145266   4.448   1.375  17.255 -0.0742  0.0668 -0.2550
 7925TIP3    H245267   4.429   1.395  17.106  0.3097 -0.2774 -0.3505
 7926TIP3   OH245268   4.351   0.642  15.185  0.2021  0.1271 -0.0247
 7926TIP3    H145269   4.270   0.651  15.135  0.4531 -0.9585 -0.6697
 7926TIP3    H245270   4.322   0.629  15.275 -0.3565 -0.2263 -0.2467
 7927TIP3   OH245271   0.602   1.600  11.177  0.2189  0.4705 -0.3527
 7927TIP3    H145272   0.545   1.555  11.239 -1.1863  1.2870 -1.0111
 7927TIP3    H245273   0.544   1.624  11.104  1.3395  1.5973 -0.9107
 7928TIP3   OH245274   4.490   2.300  14.624  0.1762 -0.0330  0.0611
 7928TIP3    H145275   4.526   2.361  14.560 -0.1127 -0.0172 -0.0880
 7928TIP3    H245276   4.435   2.241  14.574 -0.0754 -0.0023  0.2942
 7929TIP3   OH245277   4.450   4.907  13.148  0.6468 -0.4746 -0.3240
 7929TIP3    H145278   4.438   4.848  13.074 -0.0968  0.3321 -0.8657
 7929TIP3    H245279   4.362   4.920  13.184  0.7384  0.6193 -0.4665
 7930TIP3   OH245280   0.836   4.313  11.579  0.0361  0.1785  0.2141
 7930TIP3    H145281   0.886   4.311  11.497 -0.0175  0.2301  0.1795
 7930TIP3    H245282   0.794   4.228  11.583  1.6175 -0.6036  1.1803
 7931TIP3   OH245283   1.131   3.274   6.176  0.0964 -0.1745 -0.3854
 7931TIP3    H145284   1.213   3.241   6.139 -0.1876 -2.0299  0.5345
 7931TIP3    H245285   1.063   3.226   6.128 -0.3435 -0.7938  0.8355
 7932TIP3   OH245286   5.551   5.636   0.780  0.0288  0.2171 -0.1629
 7932TIP3    H145287   5.635   5.611   0.740  0.8440  1.4532  0.6758
 7932TIP3    H245288   5.495   5.659   0.706  0.8451  0.5399 -0.6978
 7933TIP3   OH245289   4.844   3.167  14.069 -0.1840  0.6384 -0.5189
 7933TIP3    H145290   4.782   3.135  14.003  0.0434  1.1104 -0.9746
 7933TIP3    H245291   4.795   3.231  14.119 -0.8885 -0.9444  0.9195
 7934TIP3   OH245292   3.364   1.098  16.876  0.0942 -0.4084  0.5238
 7934TIP3    H145293   3.289   1.069  16.928 -2.1069  1.3089 -1.4539
 7934TIP3    H245294   3.416   1.152  16.936 -1.2820 -0.0935  1.4714
 7935TIP3   OH245295   2.389   1.217   0.155  0.1385 -0.2255 -0.4438
 7935TIP3    H145296   2.461   1.280   0.150 -0.0682  0.0202 -0.3250
 7935TIP3    H245297   2.430   1.133   0.136  0.5073 -0.1206 -0.1411
 7936TIP3   OH245298   3.827   4.605  14.131 -0.0038  0.0795 -0.0751
 7936TIP3    H145299   3.753   4.634  14.184  0.1243  0.3090 -0.0211
 7936TIP3    H245300   3.807   4.514  14.109 -0.2351  0.1000  0.0545
 7937TIP3   OH245301   5.460   6.387   0.098  0.6003 -0.2744  0.2639
 7937TIP3    H145302   5.534   6.357   0.044 -0.3704 -0.6227 -0.9225
 7937TIP3    H245303   5.493   6.384   0.188  1.5358 -1.9664 -0.0860
 7938TIP3   OH245304   6.675   3.193  13.996  0.5734  0.3667 -0.0938
 7938TIP3    H145305   6.634   3.279  14.009 -0.8792 -0.4180  0.8478
 7938TIP3    H245306   6.685   3.158  14.085  0.5468 -0.7010 -0.4955
 7939TIP3   OH245307   1.095   5.135  16.713 -0.0247 -0.2047 -0.3985
 7939TIP3    H145308   1.066   5.113  16.624  2.3253 -1.1122 -1.0229
 7939TIP3    H245309   1.098   5.230  16.715 -1.4013 -0.1353 -0.8138
 7940TIP3   OH245310   3.642   5.053   5.328  0.2585 -0.0997  0.0644
 7940TIP3    H145311   3.580   5.000   5.277 -0.7546 -1.2756  2.4008
 7940TIP3    H245312   3.699   4.989   5.370  1.8290  0.8996 -0.4852
 7941TIP3   OH245313   2.053   2.659  16.963 -0.4177  0.1952  0.3455
 7941TIP3    H145314   2.003   2.722  16.911 -0.6107  0.3168  0.6740
 7941TIP3    H245315   1.989   2.593  16.989 -0.2127 -0.1439 -0.0071
 7942TIP3   OH245316   0.112   2.225  14.166 -0.1162 -0.2243  0.2062
 7942TIP3    H145317   0.100   2.136  14.134 -2.4419 -0.4329  1.4344
 7942TIP3    H245318   0.098   2.281  14.089 -3.3169 -0.7952  0.2516
 7943TIP3   OH245319   1.610   2.310   1.631  0.1028  0.1586 -0.0659
 7943TIP3    H145320   1.704   2.330   1.624  0.2939 -0.8344 -0.4929
 7943TIP3    H245321   1.607   2.220   1.663 -0.7207  0.3928  0.5439
 7944TIP3   OH245322   1.286   6.728  13.982  0.0779 -0.5729  0.0180
 7944TIP3    H145323   1.210   6.756  13.931 -0.7468 -3.2993 -0.4134
 7944TIP3    H245324   1.343   6.805  13.985 -1.2120  0.5893 -2.4430
 7945TIP3   OH245325   2.223   5.119   0.850  0.9477  0.0668  0.2926
 7945TIP3    H145326   2.176   5.202   0.838 -0.4000 -0.8421 -1.0774
 7945TIP3    H245327   2.274   5.108   0.770  3.9051  1.1689  1.8541
 7946TIP3   OH245328   5.817   0.158  13.081  0.1816 -0.0466  0.3304
 7946TIP3    H145329   5.727   0.162  13.049  0.2700  1.3363  0.1929
 7946TIP3    H245330   5.868   0.127  13.007 -0.1294 -0.4735  0.2946
 7947TIP3   OH245331   1.671   2.409   5.307 -0.1064  0.1632  0.5383
 7947TIP3    H145332   1.748   2.413   5.364  0.7881  0.7608 -0.6732
 7947TIP3    H245333   1.695   2.461   5.230 -0.7420 -1.6987 -1.0094
 7948TIP3   OH245334   2.385   6.099  14.815  1.0087 -0.1791  0.1680
 7948TIP3    H145335   2.342   6.037  14.873 -0.9815  1.5441  0.6536
 7948TIP3    H245336   2.363   6.070  14.727  0.0898 -0.1704  0.3897
 7949TIP3   OH245337   6.390   3.257  15.003  0.2846  0.1880  0.1921
 7949TIP3    H145338   6.462   3.285  15.060 -1.1206  1.1200  1.6222
 7949TIP3    H245339   6.340   3.337  14.986  0.0967 -0.2670 -1.5536
 7950TIP3   OH245340   6.694   5.066  11.826 -0.4024 -0.5015  0.0816
 7950TIP3    H145341   6.692   4.982  11.780  1.6010 -0.8443  0.5244
 7950TIP3    H245342   6.636   5.122  11.776 -0.8719 -1.8195 -0.9081
 7951TIP3   OH245343   6.355   4.552   5.961 -0.0067 -0.3050  0.6615
 7951TIP3    H145344   6.443   4.521   5.980  0.3244  0.7627  0.9246
 7951TIP3    H245345   6.350   4.552   5.865  0.2487 -0.4550  0.6471
 7952TIP3   OH245346   4.363   3.124  16.184  0.5584  0.5481  0.1957
 7952TIP3    H145347   4.303   3.053  16.206  1.2031  0.3607  1.4622
 7952TIP3    H245348   4.315   3.204  16.204  0.0630  0.4626 -0.6181
 7953TIP3   OH245349   2.436   3.250   1.384  0.3952  0.2843 -0.7020
 7953TIP3    H145350   2.505   3.312   1.406  0.6057 -0.0206 -0.5059
 7953TIP3    H245351   2.465   3.208   1.303  0.2587  0.4269 -0.8277
 7954TIP3   OH245352   1.239   2.928   2.190 -0.6572 -0.1071  0.0497
 7954TIP3    H145353   1.316   2.977   2.161 -1.0081  0.4649  0.0546
 7954TIP3    H245354   1.185   2.993   2.235 -0.3070 -0.8878  1.6695
 7955TIP3   OH245355   2.175   2.639   0.254  0.2648 -0.2200  0.4920
 7955TIP3    H145356   2.218   2.562   0.216  1.8266  0.7100  0.2807
 7955TIP3    H245357   2.124   2.676   0.183 -1.8913 -1.9747  1.0437
 7956TIP3   OH245358   4.247   3.853   2.796 -0.3764  0.7609  0.6277
 7956TIP3    H145359   4.261   3.919   2.727  1.0132  0.2887  0.4145
 7956TIP3    H245360   4.251   3.903   2.878 -0.8675  1.1617  0.4116
 7957TIP3   OH245361   2.170   4.723   6.821 -0.1478  0.9482 -0.1230
 7957TIP3    H145362   2.203   4.634   6.820 -1.1883  0.3924  2.8873
 7957TIP3    H245363   2.248   4.778   6.817  0.5370 -0.0827 -1.5504
 7958TIP3   OH245364   2.616   3.373   6.287  0.7191  0.3622 -0.1625
 7958TIP3    H145365   2.695   3.427   6.293  1.7728 -1.2508  1.9897
 7958TIP3    H245366   2.645   3.293   6.242 -1.0949  1.8349 -4.4372
 7959TIP3   OH245367   0.069   3.773   3.994  0.2012  0.2109  0.3799
 7959TIP3    H145368   0.119   3.697   3.964  1.5666  0.4249  1.9733
 7959TIP3    H245369   0.090   3.780   4.087 -2.4114  0.6472  1.0047
 7960TIP3   OH245370   6.674   5.098  16.647  0.4552  0.2882 -0.4123
 7960TIP3    H145371   6.582   5.124  16.655  0.4542  0.1122  0.2448
 7960TIP3    H245372   6.716   5.171  16.604 -0.2320 -0.1593 -1.9075
 7961TIP3   OH245373   6.308   5.749   4.643  0.1161 -0.0496  0.1477
 7961TIP3    H145374   6.327   5.814   4.711  1.4889 -0.2104 -0.0512
 7961TIP3    H245375   6.249   5.687   4.685  0.3482  0.2646  0.9624
 7962TIP3   OH245376   0.879   3.901   6.036  0.0757 -0.0950  0.0939
 7962TIP3    H145377   0.791   3.890   6.072  0.0098  1.5046  0.4882
 7962TIP3    H245378   0.907   3.987   6.067  0.6064  0.7340 -2.4688
 7963TIP3   OH245379   6.370   3.518  15.251 -0.2702 -0.2035  0.0817
 7963TIP3    H145380   6.449   3.465  15.259 -0.6774 -1.2518 -2.1350
 7963TIP3    H245381   6.396   3.605  15.282  1.5257 -0.6977  0.0610
 7964TIP3   OH245382   6.080   0.396  12.150  0.3057  0.8867  0.2261
 7964TIP3    H145383   6.070   0.486  12.183  0.7283  0.2825  2.1467
 7964TIP3    H245384   6.136   0.353  12.214  0.7212 -0.5747 -1.0532
 7965TIP3   OH245385   1.881   4.395  15.403  0.1950  0.2501  0.0341
 7965TIP3    H145386   1.910   4.479  15.438  0.4831  0.6059 -1.0053
 7965TIP3    H245387   1.790   4.409  15.378  0.7280  0.8162 -1.7450
 7966TIP3   OH245388   0.472   1.200   6.614  0.2862  0.0829 -0.1576
 7966TIP3    H145389   0.452   1.292   6.597  2.2599  0.4952 -0.4861
 7966TIP3    H245390   0.392   1.153   6.592 -0.9853  1.7667  0.6311
 7967TIP3   OH245391   6.320   6.079  13.237 -0.1087 -0.1761 -0.1292
 7967TIP3    H145392   6.393   6.132  13.206 -1.1360  0.8910 -0.8397
 7967TIP3    H245393   6.357   5.992  13.251  1.3019  0.3541 -0.3691
 7968TIP3   OH245394   6.583   1.856  12.431  0.1385 -0.1605  0.2339
 7968TIP3    H145395   6.564   1.851  12.525 -0.5995  0.4257  0.1275
 7968TIP3    H245396   6.498   1.846  12.389  0.2574  0.9765 -0.3204
 7969TIP3   OH245397   2.873   5.914   5.948  0.2020  0.2135 -0.2667
 7969TIP3    H145398   2.794   5.860   5.950  0.7908 -0.6935 -0.8789
 7969TIP3    H245399   2.936   5.865   6.000  0.3185  1.0196  0.3579
 7970TIP3   OH245400   4.026   3.573  13.233 -0.2074  0.1521  0.0488
 7970TIP3    H145401   4.060   3.538  13.315 -2.0786 -0.3371  0.6572
 7970TIP3    H245402   4.083   3.647  13.213  1.7848 -1.1786  0.4876
 7971TIP3   OH245403   2.857   4.642  11.324 -0.5978  0.3960 -0.0041
 7971TIP3    H145404   2.856   4.572  11.389 -1.0558 -0.5815 -1.0245
 7971TIP3    H245405   2.770   4.681  11.331 -0.7090  0.1773 -0.1406
 7972TIP3   OH245406   1.722   2.850   4.517  0.1911  0.1527 -0.1509
 7972TIP3    H145407   1.639   2.810   4.542 -0.3853  1.0316 -0.5863
 7972TIP3    H245408   1.789   2.793   4.555 -0.6088  0.4298  1.8064
 7973TIP3   OH245409   2.322   4.577  14.506  0.1382 -0.0956  0.0581
 7973TIP3    H145410   2.313   4.608  14.415  1.3205  1.5799  0.4718
 7973TIP3    H245411   2.278   4.644  14.558  2.2134  0.6460  0.9344
 7974TIP3   OH245412   6.218   6.338   1.951 -0.2981  0.2651  0.3777
 7974TIP3    H145413   6.307   6.344   1.918 -0.9607  0.1437 -1.5217
 7974TIP3    H245414   6.223   6.274   2.023  0.8768 -0.9810 -0.7606
 7975TIP3   OH245415   5.922   0.845  12.609  0.2952  0.4372  0.8668
 7975TIP3    H145416   5.885   0.931  12.629  0.1364  0.4549  0.4930
 7975TIP3    H245417   5.865   0.783  12.654  1.5138  0.6079  2.8054
 7976TIP3   OH245418   4.512   2.034  11.594  0.1366  0.8416 -0.3697
 7976TIP3    H145419   4.549   1.949  11.567  0.4191  0.8322  0.0408
 7976TIP3    H245420   4.420   2.015  11.613  0.5274  0.3086  1.1264
 7977TIP3   OH245421   4.411   2.707   4.590 -0.2392  0.1446 -0.0521
 7977TIP3    H145422   4.463   2.638   4.632 -1.7916 -1.6254 -0.8845
 7977TIP3    H245423   4.349   2.660   4.534 -0.0934  2.3064 -2.2085
 7978TIP3   OH245424   5.207   2.675  15.309  0.4335 -0.1181  0.3676
 7978TIP3    H145425   5.248   2.629  15.236  0.1245 -0.4795  0.4155
 7978TIP3    H245426   5.276   2.729  15.347  0.4773  0.4518 -0.4951
 7979TIP3   OH245427   1.366   3.069  17.437 -0.6344 -0.2409 -0.4687
 7979TIP3    H145428   1.396   2.994  17.489  4.1315  0.4020 -1.8282
 7979TIP3    H245429   1.336   3.030  17.355  0.3505 -0.8273 -0.5736
 7980TIP3   OH245430   5.961   2.158   3.025  0.3884  0.2527 -0.0418
 7980TIP3    H145431   5.899   2.143   3.096  1.3955 -0.0309  0.7944
 7980TIP3    H245432   6.006   2.074   3.014  1.1938  0.6725 -0.0769
 7981TIP3   OH245433   5.974   5.404  15.768 -0.6635  0.1558  0.3196
 7981TIP3    H145434   5.882   5.390  15.746 -0.4958 -0.6396  0.0848
 7981TIP3    H245435   5.994   5.491  15.733 -1.4796  0.5991  0.9092
 7982TIP3   OH245436   5.886   3.504  11.469 -0.1563  0.5573  0.2116
 7982TIP3    H145437   5.866   3.410  11.473  1.5656  0.1640  1.1312
 7982TIP3    H245438   5.848   3.534  11.387 -0.0884 -1.1372 -0.4893
 7983TIP3   OH245439   4.810   3.342  16.182  0.3981  0.1524  0.3601
 7983TIP3    H145440   4.846   3.381  16.262 -1.3368  1.2842  0.6447
 7983TIP3    H245441   4.718   3.325  16.204  0.0637 -0.1262 -1.1891
 7984TIP3   OH245442   5.832   4.531  13.521  0.0986  0.1773 -0.0612
 7984TIP3    H145443   5.888   4.601  13.488  0.2365  2.2119  3.9528
 7984TIP3    H245444   5.745   4.550  13.484  0.9971 -0.3245 -2.6311
 7985TIP3   OH245445   3.065   6.673  15.043  0.0610 -0.6059 -0.3773
 7985TIP3    H145446   3.025   6.737  14.985 -1.7446  0.3927  1.8324
 7985TIP3    H245447   3.113   6.725  15.108  1.5396 -1.6612 -0.5749
 7986TIP3   OH245448   0.783   3.741   2.681 -0.6404 -0.2138 -0.0783
 7986TIP3    H145449   0.841   3.777   2.748 -0.0749 -0.9106 -0.1759
 7986TIP3    H245450   0.695   3.756   2.715 -0.3532 -1.0327  1.0867
 7987TIP3   OH245451   5.309   6.673   3.980  0.2385  0.2866  0.0683
 7987TIP3    H145452   5.279   6.622   3.905  1.0636  1.2830 -0.9812
 7987TIP3    H245453   5.340   6.755   3.942  2.4314  0.0981  1.2755
 7988TIP3   OH245454   4.731   3.857   3.754 -0.0394  0.3577 -0.4081
 7988TIP3    H145455   4.636   3.844   3.760 -0.1523  1.7600  1.8311
 7988TIP3    H245456   4.768   3.769   3.759 -1.1870 -0.0884  0.8643
 7989TIP3   OH245457   2.398   2.175   5.828 -0.3815 -0.0568 -0.1503
 7989TIP3    H145458   2.426   2.241   5.890 -0.0732 -0.3064 -0.0226
 7989TIP3    H245459   2.305   2.193   5.813 -0.0431  1.1071 -0.9868
 7990TIP3   OH245460   3.384   2.618  17.505  0.1845 -0.3296 -0.5482
 7990TIP3    H145461   3.319   2.687  17.489  1.7618  1.7170  1.1133
 7990TIP3    H245462   3.452   2.633  17.439  0.5675 -0.2100 -0.1347
 7991TIP3   OH245463   0.014   3.388  16.738  0.3786  0.4369  0.2437
 7991TIP3    H145464  -0.073   3.349  16.744  1.6475 -2.8323 -0.2073
 7991TIP3    H245465   0.072   3.322  16.778  2.9021  1.3397 -1.6901
 7992TIP3   OH245466   0.652   3.797  10.899 -0.4086 -0.2698 -0.2928
 7992TIP3    H145467   0.661   3.824  10.991 -0.0241  0.8045 -0.6289
 7992TIP3    H245468   0.727   3.740  10.883 -0.3188 -0.2301 -0.0238
 7993TIP3   OH245469   4.077   3.753   0.353  0.1827  0.3175 -0.0119
 7993TIP3    H145470   4.089   3.658   0.344  1.2443  0.4451 -0.0437
 7993TIP3    H245471   4.107   3.773   0.441  1.1620  0.7943 -0.4379
 7994TIP3   OH245472   5.903   6.299  11.893  0.0994  0.8050  0.2579
 7994TIP3    H145473   5.960   6.224  11.875  2.0718  2.1686  0.3854
 7994TIP3    H245474   5.827   6.286  11.838  1.8567  0.2987 -2.2202
 7995TIP3   OH245475   4.006   1.868  11.363  0.0237  0.0169 -0.2181
 7995TIP3    H145476   3.910   1.866  11.356  0.1144 -0.6960 -1.5299
 7995TIP3    H245477   4.036   1.814  11.290  1.4501  1.0212 -0.4032
 7996TIP3   OH245478   0.502   3.455   3.704  0.1385 -0.6405  0.0745
 7996TIP3    H145479   0.410   3.431   3.711 -0.3288  1.2632  1.1626
 7996TIP3    H245480   0.543   3.416   3.781 -0.7053  2.1387  2.0841
 7997TIP3   OH245481   2.869   1.815   4.322 -0.2613 -0.0043  0.3268
 7997TIP3    H145482   2.812   1.747   4.287 -0.0254 -0.2504  0.4131
 7997TIP3    H245483   2.931   1.833   4.252  0.4879 -0.8137  0.7548
 7998TIP3   OH245484   0.127   2.280  13.214  0.9967 -0.3584 -0.0025
 7998TIP3    H145485   0.142   2.187  13.194  2.5830 -0.0364 -0.4713
 7998TIP3    H245486   0.198   2.326  13.168 -0.3204  1.1845 -0.5745
 7999TIP3   OH245487   3.659   4.401  13.961 -0.0976 -0.8797  0.4333
 7999TIP3    H145488   3.723   4.426  13.894 -1.7386 -1.5568 -1.5021
 7999TIP3    H245489   3.668   4.306  13.969 -0.6722 -0.9467  0.3280
 8000TIP3   OH245490   2.428   3.967  13.666  0.7379  0.0177  0.7110
 8000TIP3    H145491   2.378   4.007  13.595 -3.1566 -0.3275  2.9716
 8000TIP3    H245492   2.462   3.886  13.628 -1.6429 -0.4302 -0.7025
 8001TIP3   OH245493   4.357   3.224  15.860 -0.1484  0.1285  0.0274
 8001TIP3    H145494   4.299   3.298  15.881  0.9758  0.9299  0.4248
 8001TIP3    H245495   4.333   3.157  15.924 -1.5391 -0.0710 -0.6690
 8002TIP3   OH245496   6.631   1.241   3.877  0.2194 -0.1048  0.1410
 8002TIP3    H145497   6.633   1.336   3.864 -1.7678 -0.2564 -1.6180
 8002TIP3    H245498   6.708   1.209   3.829 -0.3202  0.4435 -1.1325
 8003TIP3   OH245499   0.741   3.817  15.058  0.0708 -0.1664  0.2068
 8003TIP3    H145500   0.818   3.779  15.100 -1.5672 -2.6813  1.1529
 8003TIP3    H245501   0.686   3.846  15.131  1.3405  4.8125 -0.3904
 8004TIP3   OH245502   2.891   1.885   4.993  0.5052  0.0088  0.0659
 8004TIP3    H145503   2.812   1.921   5.033  0.0992  0.0581 -0.7627
 8004TIP3    H245504   2.922   1.819   5.056 -0.3218 -0.1722  0.2879
 8005TIP3   OH245505   1.984   5.742  16.343  0.0191 -0.0343 -0.4776
 8005TIP3    H145506   2.053   5.710  16.284  0.3004  2.5280 -1.6834
 8005TIP3    H245507   1.958   5.826  16.306 -0.8016  1.0613  2.3214
 8006TIP3   OH245508   1.624   2.230   0.360 -0.1914  0.1754  0.1806
 8006TIP3    H145509   1.579   2.239   0.444 -0.8672 -0.0834 -0.1470
 8006TIP3    H245510   1.672   2.147   0.367  0.9207  0.8460  0.8346
 8007TIP3   OH245511   6.070   4.616  13.858  0.2259  0.2633 -0.0383
 8007TIP3    H145512   6.032   4.639  13.774 -4.3387  0.5298  1.8189
 8007TIP3    H245513   6.070   4.697  13.908  1.4046 -0.1972  0.7593
 8008TIP3   OH245514   0.239   4.216  12.114  0.2059  0.3361  0.0724
 8008TIP3    H145515   0.195   4.185  12.035 -0.7315 -0.2531  0.8024
 8008TIP3    H245516   0.178   4.195  12.185  1.6853 -0.5477  1.1272
 8009TIP3   OH245517   3.883   1.361  10.738 -0.4230 -0.3593 -0.0347
 8009TIP3    H145518   3.796   1.401  10.726 -0.6537 -1.2380 -1.6369
 8009TIP3    H245519   3.870   1.269  10.715  0.7837 -0.6779  0.4822
 8010TIP3   OH245520   0.572   3.482  14.165  0.1786 -0.2141  0.1123
 8010TIP3    H145521   0.493   3.494  14.112  0.4907 -1.3668 -0.6392
 8010TIP3    H245522   0.544   3.504  14.254 -0.4324  1.4341 -0.4412
 8011TIP3   OH245523   0.833   5.017  12.483 -0.6029 -0.2915 -0.1434
 8011TIP3    H145524   0.746   5.047  12.456 -0.7059  2.5999  2.7650
 8011TIP3    H245525   0.818   4.975  12.568  0.7902 -0.0894  0.2130
 8012TIP3   OH245526   4.717   1.880  14.940 -0.1509  0.0292 -0.1555
 8012TIP3    H145527   4.722   1.976  14.943  0.0208  0.0314 -0.4627
 8012TIP3    H245528   4.721   1.853  15.032  0.5151  0.2878 -0.1021
 8013TIP3   OH245529   5.888   0.223  16.032 -0.1866  0.6175 -0.0864
 8013TIP3    H145530   5.844   0.308  16.035 -0.1275  0.6268  2.2458
 8013TIP3    H245531   5.981   0.244  16.025 -0.2775  0.6724 -1.3560
 8014TIP3   OH245532   4.949   4.833  17.184 -0.1799 -0.1772 -0.9938
 8014TIP3    H145533   4.863   4.823  17.141  0.1620 -1.3259 -1.4462
 8014TIP3    H245534   4.982   4.744  17.193  0.6347  0.1953 -0.1026
 8015TIP3   OH245535   1.803   1.433   0.245  0.0852  0.2854  0.2556
 8015TIP3    H145536   1.875   1.428   0.183 -0.1790 -3.9386 -0.0170
 8015TIP3    H245537   1.729   1.466   0.193  0.7804  0.5203 -0.6076
 8016TIP3   OH245538   6.155   4.315   4.175 -0.2197 -0.2248  0.5117
 8016TIP3    H145539   6.128   4.352   4.259 -0.6685  0.8496 -0.0801
 8016TIP3    H245540   6.164   4.221   4.191 -2.7907 -0.4200  1.1242
 8017TIP3   OH245541   0.118   4.194   3.694 -0.2527 -0.3519 -0.5445
 8017TIP3    H145542   0.177   4.263   3.723  0.1784 -0.8785 -0.1636
 8017TIP3    H245543   0.103   4.140   3.771 -0.7199 -0.5893 -0.7960
 8018TIP3   OH245544   4.380   3.220   1.852  0.1993  0.2701 -0.0934
 8018TIP3    H145545   4.425   3.276   1.788 -0.5230 -1.9592 -2.7614
 8018TIP3    H245546   4.449   3.164   1.887  0.4038  0.6624  0.1343
 8019TIP3   OH245547   2.466   5.501   0.644  0.7651  0.2171  0.3074
 8019TIP3    H145548   2.551   5.497   0.601  1.0551  0.6930  0.8231
 8019TIP3    H245549   2.486   5.495   0.737  0.3058  1.2127  0.4794
 8020TIP3   OH245550   4.420   6.186   2.856  0.0987  0.2170 -0.1476
 8020TIP3    H145551   4.445   6.101   2.892  2.5477  0.4954 -0.9913
 8020TIP3    H245552   4.375   6.166   2.775 -0.4925 -0.2885  0.2971
 8021TIP3   OH245553   3.072   1.019  15.004 -0.2333 -0.0426  0.2976
 8021TIP3    H145554   3.090   1.003  15.096  1.8307  0.3173 -0.0089
 8021TIP3    H245555   3.103   0.940  14.959 -0.9204 -0.0765 -0.1444
 8022TIP3   OH245556   1.088   1.528   1.100 -0.2224  0.2703 -0.4284
 8022TIP3    H145557   1.121   1.477   1.026 -0.7878  1.7014 -1.7358
 8022TIP3    H245558   1.028   1.469   1.145 -0.2877 -0.4706 -1.4466
 8023TIP3   OH245559   5.743   2.288  16.895 -0.0390 -0.2781 -0.2898
 8023TIP3    H145560   5.768   2.197  16.881 -0.3274 -0.4851  0.4506
 8023TIP3    H245561   5.709   2.317  16.811  0.3792 -0.7478 -0.6270
 8024TIP3   OH245562   5.061   0.763  12.970 -0.3821 -0.3473  0.4156
 8024TIP3    H145563   5.075   0.733  13.061  0.4031 -0.0224  0.4089
 8024TIP3    H245564   5.056   0.858  12.977  1.9172 -0.1188 -0.1162
 8025TIP3   OH245565   6.195   6.246   4.202 -0.0995 -0.5281  0.8991
 8025TIP3    H145566   6.225   6.156   4.196  1.2748 -0.0724 -4.9390
 8025TIP3    H245567   6.101   6.242   4.187 -0.0155 -0.9993  0.4882
 8026TIP3   OH245568   2.910   2.263  11.559  0.0641 -0.0822 -0.3390
 8026TIP3    H145569   2.935   2.339  11.611 -1.9098 -0.5886  1.4620
 8026TIP3    H245570   2.869   2.301  11.481  0.4945  0.7012 -0.2011
 8027TIP3   OH245571   4.247   5.215   5.614 -0.3322  0.0907 -0.5826
 8027TIP3    H145572   4.280   5.138   5.661  0.1771 -0.3507 -1.6363
 8027TIP3    H245573   4.154   5.217   5.634 -0.4443 -1.0750 -0.9020
 8028TIP3   OH245574   5.188   0.064   1.453 -0.2328 -0.0367  0.2400
 8028TIP3    H145575   5.239   0.090   1.529  0.0860 -0.9665  0.3632
 8028TIP3    H245576   5.214  -0.027   1.437 -1.3644 -0.3144 -0.0951
 8029TIP3   OH245577   4.249   0.820  13.739  0.2762 -0.7443  0.3382
 8029TIP3    H145578   4.182   0.775  13.688  0.1036  0.4034 -0.4915
 8029TIP3    H245579   4.223   0.806  13.830  0.0218 -1.9629  0.0977
 8030TIP3   OH245580   2.227   2.002   2.708 -0.0124  0.0598 -0.0068
 8030TIP3    H145581   2.261   2.074   2.761 -0.1597 -1.0977  1.7216
 8030TIP3    H245582   2.299   1.983   2.646  0.9361  0.2201  1.0113
 8031TIP3   OH245583   1.440   1.601  14.070 -0.5294  0.3041 -0.0781
 8031TIP3    H145584   1.381   1.559  14.133 -0.8262 -1.7953 -1.6660
 8031TIP3    H245585   1.484   1.669  14.121 -1.3454 -0.7668  2.1862
 8032TIP3   OH245586   3.400   0.940   2.240  0.1891 -0.6309  0.3498
 8032TIP3    H145587   3.442   1.026   2.240  0.2277 -0.5946 -1.9040
 8032TIP3    H245588   3.308   0.958   2.263  0.1002  0.0811 -0.5290
 8033TIP3   OH245589   6.432   5.222   5.603  0.1471 -0.0424 -0.3364
 8033TIP3    H145590   6.487   5.196   5.677 -1.1146 -1.9919 -0.0119
 8033TIP3    H245591   6.381   5.144   5.583 -1.9137  1.4287 -1.1520
 8034TIP3   OH245592   3.667   4.828  16.874 -0.3767 -0.0556 -0.1603
 8034TIP3    H145593   3.596   4.888  16.853 -0.6057  0.2933  1.4574
 8034TIP3    H245594   3.747   4.880  16.862 -0.4552 -0.0609 -0.7387
 8035TIP3   OH245595   4.985   2.458   6.590  0.0006 -0.0606  0.8337
 8035TIP3    H145596   4.997   2.517   6.665 -1.8276 -0.1306  1.2442
 8035TIP3    H245597   4.977   2.517   6.515  1.2116  0.0436  0.7746
 8036TIP3   OH245598   4.056   5.421   3.882 -0.6622 -0.5209  0.0314
 8036TIP3    H145599   4.150   5.424   3.862 -0.0017 -2.7001  2.2622
 8036TIP3    H245600   4.036   5.328   3.886 -2.5626 -0.1064  1.1302
 8037TIP3   OH245601   6.536   5.137   3.104  0.2685 -0.1580 -0.2067
 8037TIP3    H145602   6.550   5.050   3.067  2.2683  0.1747 -0.3400
 8037TIP3    H245603   6.535   5.196   3.029 -2.0132 -0.0882 -0.2115
 8038TIP3   OH245604   1.955   0.764  12.687  0.5515  0.2003 -0.1046
 8038TIP3    H145605   2.039   0.781  12.730 -0.2754  0.2751  1.5707
 8038TIP3    H245606   1.944   0.669  12.692  0.0456  0.2947  0.6684
 8039TIP3   OH245607   2.736   6.083   1.457 -0.4146 -0.0282  0.6749
 8039TIP3    H145608   2.789   6.070   1.379 -2.9792 -1.8065 -0.9578
 8039TIP3    H245609   2.767   6.165   1.495  0.8970  0.9495 -2.2436
 8040TIP3   OH245610   1.630   5.172  14.197 -0.2309 -1.1786 -0.0149
 8040TIP3    H145611   1.617   5.077  14.205  0.9335 -1.2932  0.6601
 8040TIP3    H245612   1.702   5.182  14.135  0.9183 -0.8259  1.3390
 8041TIP3   OH245613   0.782   3.533  11.846 -0.5939 -0.2621  0.1974
 8041TIP3    H145614   0.755   3.601  11.784  0.1013 -1.3711 -1.3813
 8041TIP3    H245615   0.769   3.573  11.932 -1.5348  1.3515 -0.6453
 8042TIP3   OH245616   2.809   3.577  12.216 -0.0925  0.0452  0.0761
 8042TIP3    H145617   2.757   3.513  12.167  0.9480 -1.0709  0.3654
 8042TIP3    H245618   2.751   3.607  12.285 -0.4916 -0.8964  0.1738
 8043TIP3   OH245619   4.071   2.529  12.349 -0.4817  0.1788 -0.1008
 8043TIP3    H145620   4.026   2.613  12.344  0.7186  0.8214 -0.6151
 8043TIP3    H245621   4.151   2.541  12.297  0.8431 -0.5328  1.6646
 8044TIP3   OH245622   1.360   2.099   3.419  0.3270 -0.0958 -0.7651
 8044TIP3    H145623   1.369   2.022   3.476  2.2370  0.4359 -0.2961
 8044TIP3    H245624   1.274   2.087   3.378 -0.7133 -1.0138  1.4454
 8045TIP3   OH245625   2.779   1.359  12.003  0.2890  0.2127 -0.2501
 8045TIP3    H145626   2.856   1.307  11.979 -0.0030 -1.7121  2.4802
 8045TIP3    H245627   2.800   1.395  12.089 -2.0660 -1.0211  0.9442
 8046TIP3   OH245628   5.174   5.478   4.161  0.9301  0.3433  0.0249
 8046TIP3    H145629   5.191   5.411   4.095  0.4247 -0.0744  0.3169
 8046TIP3    H245630   5.080   5.495   4.155  0.5324 -0.9642  1.8084
 8047TIP3   OH245631   1.092   2.733   2.280  0.2361  0.0062  0.0103
 8047TIP3    H145632   1.068   2.782   2.358  0.0648 -0.9748  0.5998
 8047TIP3    H245633   1.141   2.795   2.226 -0.0442  0.8290  0.6870
 8048TIP3   OH245634   5.611   2.678  17.446  0.5694  0.2938  0.1623
 8048TIP3    H145635   5.592   2.595  17.489 -0.3767  0.5396  0.2304
 8048TIP3    H245636   5.649   2.733  17.515 -0.0679  0.3724  0.4548
 8049TIP3   OH245637   6.758   5.737  11.130 -0.1845 -0.1817 -0.2412
 8049TIP3    H145638   6.791   5.718  11.218 -1.4992  1.4623  0.6711
 8049TIP3    H245639   6.834   5.769  11.082  0.3434 -0.1120  0.6239
 8050TIP3   OH245640   0.072   3.743  14.247  0.4596  0.3595  0.4753
 8050TIP3    H145641  -0.005   3.800  14.253 -1.5121 -1.9932 -0.8409
 8050TIP3    H245642   0.071   3.710  14.157  1.9870 -1.1188  0.9500
 8051TIP3   OH245643   2.637   1.898   0.170  0.2654 -0.5663 -0.2265
 8051TIP3    H145644   2.585   1.897   0.090 -0.2285 -0.6170  0.0875
 8051TIP3    H245645   2.723   1.868   0.143  0.7591  1.5294 -1.1613
 8052TIP3   OH245646   6.509   3.767  14.672 -0.3564 -0.5519 -0.4171
 8052TIP3    H145647   6.567   3.694  14.648 -0.8787 -0.7696 -1.0423
 8052TIP3    H245648   6.428   3.750  14.624 -0.3885  0.5946 -0.8015
 8053TIP3   OH245649   0.910   4.431   3.997 -0.2053  0.3625 -0.0978
 8053TIP3    H145650   0.927   4.523   3.979  0.3400  0.2928  0.0468
 8053TIP3    H245651   0.995   4.395   4.022 -0.4886 -0.0866  0.2446
 8054TIP3   OH245652   5.165   4.188   2.218 -0.3912 -0.3795 -0.3331
 8054TIP3    H145653   5.195   4.097   2.224 -0.3027 -0.2566  1.4874
 8054TIP3    H245654   5.083   4.189   2.266 -0.1182  0.6197  0.1181
 8055TIP3   OH245655   6.543   0.198  15.778 -0.5609 -0.2129 -0.8800
 8055TIP3    H145656   6.546   0.269  15.843 -1.8257  0.9344 -2.0087
 8055TIP3    H245657   6.602   0.228  15.709 -2.2789  0.5353 -2.0786
 8056TIP3   OH245658   1.338   2.886  13.640 -0.5992 -0.3790  0.3172
 8056TIP3    H145659   1.347   2.811  13.581  1.2221  0.0230  0.0366
 8056TIP3    H245660   1.315   2.848  13.725  1.7236 -1.4434  0.5423
 8057TIP3   OH245661   2.745   5.001   0.300  0.6272  1.0339  0.0412
 8057TIP3    H145662   2.654   4.980   0.324  1.6022 -0.4573  2.9144
 8057TIP3    H245663   2.748   5.097   0.301 -0.1032  1.2176  4.0494
 8058TIP3   OH245664   6.606   6.115   5.030  0.1378  0.1929 -0.4959
 8058TIP3    H145665   6.584   6.126   5.123  0.9486  1.0890 -0.3957
 8058TIP3    H245666   6.586   6.200   4.991 -0.3706 -0.2299 -1.1979
 8059TIP3   OH245667   3.429   5.970  16.606  0.0296 -0.4355  0.1368
 8059TIP3    H145668   3.444   5.990  16.513  1.1051  0.7324  0.5328
 8059TIP3    H245669   3.345   6.012  16.626 -0.7078 -1.5429 -0.5353
 8060TIP3   OH245670   3.557   0.675   2.992  0.2750 -0.3122 -0.6319
 8060TIP3    H145671   3.617   0.708   2.925 -0.4264  0.2184 -1.0085
 8060TIP3    H245672   3.576   0.581   2.998 -0.4528 -0.5975 -2.4024
 8061TIP3   OH245673   3.435   2.569  16.111 -0.0614  0.1503  0.2383
 8061TIP3    H145674   3.453   2.506  16.041 -1.4172  0.1575 -0.1365
 8061TIP3    H245675   3.413   2.516  16.187 -0.2709  0.1610  0.1852
 8062TIP3   OH245676   2.159   4.484   3.706  0.2336  0.3806  0.1987
 8062TIP3    H145677   2.113   4.419   3.654  0.8341 -0.6751  0.9342
 8062TIP3    H245678   2.090   4.532   3.752 -0.1938 -0.3405  0.3298
 8063TIP3   OH245679   0.111   5.836  13.092  0.3198 -0.8147 -0.4659
 8063TIP3    H145680   0.152   5.752  13.113  2.4842  0.3812  0.2979
 8063TIP3    H245681   0.182   5.891  13.060 -1.1516  0.5917 -1.5102
 8064TIP3   OH245682   0.404   2.783   4.249  0.5767  0.0907  0.2526
 8064TIP3    H145683   0.460   2.717   4.209 -0.5751 -0.3576 -0.6872
 8064TIP3    H245684   0.426   2.864   4.204  2.5739  0.5986  1.9588
 8065TIP3   OH245685   3.780   0.952   3.283  0.1253  0.1150  0.2343
 8065TIP3    H145686   3.853   0.990   3.333 -1.8967  2.4176  1.6523
 8065TIP3    H245687   3.712   0.936   3.348 -1.4802  0.2105 -1.3517
 8066TIP3   OH245688   3.749   1.170   4.925 -0.1724 -0.1117 -0.1426
 8066TIP3    H145689   3.682   1.102   4.922  0.0473 -0.2995 -0.8134
 8066TIP3    H245690   3.799   1.159   4.845  0.8133 -0.1151  0.4523
 8067TIP3   OH245691   3.636   5.250   6.517 -0.1037  0.4852  0.7602
 8067TIP3    H145692   3.648   5.243   6.612  1.2941 -0.3276  0.5609
 8067TIP3    H245693   3.550   5.289   6.506 -1.3107 -1.5223  2.3416
 8068TIP3   OH245694   2.194   3.703  11.426  0.4034 -0.8231 -0.3644
 8068TIP3    H145695   2.123   3.756  11.390  0.7899 -1.8620 -2.8592
 8068TIP3    H245696   2.272   3.758  11.417  0.0399  0.4027  2.5667
 8069TIP3   OH245697   2.988   4.872   0.387  0.1496 -0.1399 -0.4779
 8069TIP3    H145698   2.924   4.937   0.358 -0.2332 -0.3259 -0.0777
 8069TIP3    H245699   2.945   4.828   0.460  1.5177  1.0962  1.1617
 8070TIP3   OH245700   2.810   4.346  11.773 -0.1031 -0.2802 -0.1161
 8070TIP3    H145701   2.823   4.421  11.831 -0.0802  0.6216 -1.2512
 8070TIP3    H245702   2.791   4.273  11.832 -0.3260  0.6532  1.0041
 8071TIP3   OH245703   0.216   3.274  16.474  0.2703  0.5374  0.4348
 8071TIP3    H145704   0.246   3.341  16.413  2.0457  0.7882  1.5139
 8071TIP3    H245705   0.176   3.323  16.546 -1.4300  0.2574 -0.2589
 8072TIP3   OH245706   5.219   6.111  13.619  0.5649 -0.6532  0.0554
 8072TIP3    H145707   5.263   6.080  13.698  0.5624 -0.9574 -0.0632
 8072TIP3    H245708   5.253   6.057  13.549  1.7340  0.6266 -0.4170
 8073TIP3   OH245709   1.168   1.020  11.849  0.8695  0.3254  0.0904
 8073TIP3    H145710   1.249   1.067  11.865  1.1972  0.0487 -0.7090
 8073TIP3    H245711   1.124   1.070  11.781 -0.0908  1.0040  1.1776
 8074TIP3   OH245712   2.909   4.681  10.706 -0.1530  0.3939 -0.5391
 8074TIP3    H145713   2.989   4.728  10.683  1.7953 -1.5462  1.7235
 8074TIP3    H245714   2.875   4.726  10.783  0.0787 -0.1317 -0.1220
 8075TIP3   OH245715   2.146   1.815  13.861  0.1837 -0.5057  0.5775
 8075TIP3    H145716   2.187   1.902  13.865  0.2233 -0.5642  2.4315
 8075TIP3    H245717   2.219   1.754  13.859  0.1839 -0.5306  1.1131
 8076TIP3   OH245718   0.234   0.745   5.458  0.2221 -0.4466 -0.1454
 8076TIP3    H145719   0.164   0.714   5.400 -1.9266 -0.1709  2.1396
 8076TIP3    H245720   0.224   0.841   5.457  0.6009 -0.4049  0.1481
 8077TIP3   OH245721   0.348   4.032   5.867  0.1207 -0.4073 -0.0251
 8077TIP3    H145722   0.259   4.040   5.902  1.1950 -1.6687  3.4057
 8077TIP3    H245723   0.376   3.944   5.893  2.4161 -0.0140 -0.9328
 8078TIP3   OH245724   0.986   3.655   6.079 -0.3659  0.4140 -0.2664
 8078TIP3    H145725   0.948   3.642   6.166 -1.1469  0.8109 -0.5450
 8078TIP3    H245726   0.946   3.736   6.047  1.6101  1.5477 -0.0716
 8079TIP3   OH245727   5.946   0.941  13.705 -0.0201  0.2899 -0.3796
 8079TIP3    H145728   5.858   0.969  13.678 -0.7409  0.1650  1.6634
 8079TIP3    H245729   5.968   0.998  13.779  0.5813 -1.2085  0.6618
 8080TIP3   OH245730   2.660   2.007  12.883 -0.0962  0.0515 -0.4412
 8080TIP3    H145731   2.605   1.935  12.854 -2.0556  1.0716  0.5917
 8080TIP3    H245732   2.615   2.043  12.959  1.8596  1.1282  0.2734
 8081TIP3   OH245733   6.527   3.154   3.645 -0.6962  0.1428 -0.3069
 8081TIP3    H145734   6.455   3.199   3.601  0.7428 -0.2458 -3.2873
 8081TIP3    H245735   6.514   3.061   3.624  0.3681  0.0132 -0.4463
 8082TIP3   OH245736   5.283   4.890  17.410 -0.5736  0.5924  0.1710
 8082TIP3    H145737   5.372   4.869  17.439 -0.7071  0.2634  0.3477
 8082TIP3    H245738   5.226   4.839  17.468 -0.8393 -0.4211 -0.9375
 8083TIP3   OH245739   5.300   3.361  15.106  0.1070 -0.7131 -0.0097
 8083TIP3    H145740   5.317   3.414  15.028  0.4825 -0.8190 -0.0051
 8083TIP3    H245741   5.323   3.272  15.080  1.9184 -0.5144  0.7110
 8084TIP3   OH245742   4.231   3.447   1.616 -0.6084  0.1145  0.3406
 8084TIP3    H145743   4.276   3.512   1.564 -1.3039  0.4501  0.1519
 8084TIP3    H245744   4.262   3.363   1.583  1.0622  0.3339  1.2614
 8085TIP3   OH245745   1.872   0.957   5.689 -0.2679 -0.7290  0.6121
 8085TIP3    H145746   1.963   0.942   5.713 -0.2576 -1.8001 -0.0511
 8085TIP3    H245747   1.826   0.878   5.718 -0.6862 -0.9433 -0.5680
 8086TIP3   OH245748   1.687   3.166  15.931 -0.3878 -0.1050 -0.0950
 8086TIP3    H145749   1.711   3.086  15.978  0.6561  0.8855  1.1378
 8086TIP3    H245750   1.657   3.226  16.000  0.6501  1.1895 -0.7270
 8087TIP3   OH245751   2.108   5.149   1.806  0.5621  0.3425 -0.3387
 8087TIP3    H145752   2.020   5.172   1.776 -0.8743  0.3426  3.3177
 8087TIP3    H245753   2.154   5.233   1.815  1.3808  0.2838 -3.1301
 8088TIP3   OH245754   0.682   5.285   5.993  0.8149 -0.0540  0.2663
 8088TIP3    H145755   0.769   5.297   6.029  0.0510  0.0804  2.1897
 8088TIP3    H245756   0.626   5.273   6.069 -0.7847 -0.6042 -0.9377
 8089TIP3   OH245757   2.109   5.607   4.800  0.2319  0.3954  0.1782
 8089TIP3    H145758   2.140   5.517   4.810 -0.5232  0.3393  2.5284
 8089TIP3    H245759   2.085   5.614   4.708 -0.1036 -1.9390  0.0332
 8090TIP3   OH245760   6.291   2.947   5.928  0.3550 -0.7699 -0.1713
 8090TIP3    H145761   6.273   2.997   6.007 -1.2598  0.2266 -1.1302
 8090TIP3    H245762   6.212   2.894   5.914  0.3089 -0.3732 -1.5173
 8091TIP3   OH245763   5.912   3.172   1.760 -0.0764  0.0562 -0.2959
 8091TIP3    H145764   6.005   3.191   1.754  0.2381 -0.4036  2.1590
 8091TIP3    H245765   5.869   3.257   1.757  0.5548  0.3983  0.2461
 8092TIP3   OH245766   6.307   5.460   2.840 -0.4143 -0.1521  0.2031
 8092TIP3    H145767   6.292   5.548   2.873 -0.3193  0.0237 -0.2173
 8092TIP3    H245768   6.309   5.470   2.745 -2.5589 -0.9153  0.0268
 8093TIP3   OH245769   2.713   2.534  16.619 -0.2319  1.2182 -0.1143
 8093TIP3    H145770   2.663   2.548  16.700 -2.1195  0.8064 -1.1603
 8093TIP3    H245771   2.737   2.623  16.591  2.3265  1.3055  1.9305
 8094TIP3   OH245772   6.305   3.245   3.469 -0.2061  0.1556  0.2746
 8094TIP3    H145773   6.217   3.222   3.439 -1.1143  1.9110  1.4598
 8094TIP3    H245774   6.356   3.254   3.388 -1.9753  2.3517 -0.7059
 8095TIP3   OH245775   5.718   1.530  16.878 -0.0755 -0.4137  0.1525
 8095TIP3    H145776   5.803   1.516  16.921  0.8715  0.3896 -1.3387
 8095TIP3    H245777   5.723   1.477  16.798 -1.2774 -0.8928  0.3763
 8096TIP3   OH245778   6.382   4.701   2.694  0.2323 -0.1464 -0.6137
 8096TIP3    H145779   6.474   4.722   2.679  0.3910 -0.1494  0.3160
 8096TIP3    H245780   6.370   4.615   2.652  0.8309 -0.4637 -0.1541
 8097TIP3   OH245781   6.368   3.274   0.961 -0.1167 -0.0429 -0.5467
 8097TIP3    H145782   6.351   3.241   0.872 -1.1081  2.3277 -1.3071
 8097TIP3    H245783   6.434   3.342   0.949  0.5354 -0.4325  0.7108
 8098TIP3   OH245784   2.207   0.302   0.648  0.2966  0.4385 -0.4659
 8098TIP3    H145785   2.125   0.264   0.678  0.7188 -0.8693 -0.9281
 8098TIP3    H245786   2.275   0.250   0.691  0.8946  0.4561 -1.3738
 8099TIP3   OH245787   1.353   4.466  12.525  0.3654  0.4184 -0.4272
 8099TIP3    H145788   1.302   4.402  12.475  1.0372  0.2669 -0.9366
 8099TIP3    H245789   1.351   4.545  12.471 -0.8131  0.9681  0.4002
 8100TIP3   OH245790   4.861   2.596   5.596  0.3049  0.3992 -0.0713
 8100TIP3    H145791   4.928   2.661   5.574 -0.9058  1.7254 -0.0149
 8100TIP3    H245792   4.813   2.583   5.515 -1.1703  1.6796  0.5533
 8101TIP3   OH245793   3.463   1.083   4.735  0.3119 -0.0526  0.0634
 8101TIP3    H145794   3.524   1.016   4.766 -1.8682 -1.7546  0.8802
 8101TIP3    H245795   3.440   1.054   4.646 -0.6994 -0.4849  0.4513
 8102TIP3   OH245796   1.403   6.156  15.568 -0.1899 -0.4820  0.2692
 8102TIP3    H145797   1.334   6.217  15.541  1.8696  1.8038 -0.1606
 8102TIP3    H245798   1.404   6.163  15.663  0.6378  0.9158  0.1775
 8103TIP3   OH245799   2.446   5.377   3.954 -0.0633 -0.8986  0.1680
 8103TIP3    H145800   2.369   5.386   3.898  0.2556 -0.9599 -0.2905
 8103TIP3    H245801   2.493   5.302   3.918  0.1071 -0.9875  0.5703
 8104TIP3   OH245802   2.431   5.275   1.951  0.1680 -0.0034  0.0457
 8104TIP3    H145803   2.357   5.252   2.007  0.3090 -0.7384 -0.0568
 8104TIP3    H245804   2.496   5.309   2.011 -0.7419  1.9492 -0.0155
 8105TIP3   OH245805   6.689   3.095  15.733 -0.5333 -0.2575  0.4230
 8105TIP3    H145806   6.631   3.166  15.705  1.1701  1.4786  1.0820
 8105TIP3    H245807   6.696   3.105  15.828  0.1492 -0.9785  0.4579
 8106TIP3   OH245808   5.412   2.924  16.474 -0.0026 -0.0149  0.0647
 8106TIP3    H145809   5.506   2.932  16.485 -0.1072  1.3407  0.1781
 8106TIP3    H245810   5.388   2.846  16.523  0.8068  0.7104  1.6909
 8107TIP3   OH245811   3.754   1.948   1.339 -0.4358  0.4484 -0.6492
 8107TIP3    H145812   3.706   1.984   1.413 -0.3337 -0.8206  0.0594
 8107TIP3    H245813   3.828   2.008   1.326  2.3060 -1.6273  3.3275
 8108TIP3   OH245814   5.248   1.569   3.267  0.1452 -0.3594  0.1153
 8108TIP3    H145815   5.190   1.561   3.192  0.2986  1.9743 -0.3340
 8108TIP3    H245816   5.263   1.479   3.296 -3.4874 -1.0851  0.1411
 8109TIP3   OH245817   6.577   4.008  12.355 -0.3014 -0.8244  0.8636
 8109TIP3    H145818   6.601   4.064  12.429 -0.9144 -2.2099  2.1578
 8109TIP3    H245819   6.597   3.920  12.385 -0.9731 -1.4494 -0.4820
 8110TIP3   OH245820   2.062   0.215  12.332 -0.4982 -0.5488  0.8390
 8110TIP3    H145821   2.074   0.287  12.270 -1.5332 -1.1253 -0.0687
 8110TIP3    H245822   2.098   0.248  12.415  0.1127  0.5595  0.1579
 8111TIP3   OH245823   2.953   5.889  12.446 -0.5919  0.1052 -0.1087
 8111TIP3    H145824   2.896   5.858  12.376  0.7014 -2.6531 -0.0608
 8111TIP3    H245825   2.897   5.891  12.524 -1.1010 -0.6377 -0.4493
 8112TIP3   OH245826   3.696   0.016  15.417  0.6248 -0.0247  0.6985
 8112TIP3    H145827   3.654  -0.063  15.452  0.2258  0.9461  2.5656
 8112TIP3    H245828   3.787  -0.009  15.403  0.2100 -1.1844 -0.0287
 8113TIP3   OH245829   6.323   1.134   2.886  0.0751 -0.4438 -0.6242
 8113TIP3    H145830   6.235   1.169   2.873  0.5619  1.0833 -0.1047
 8113TIP3    H245831   6.381   1.205   2.857  1.1274 -1.1373 -0.2715
 8114TIP3   OH245832   3.002   1.211  11.921  0.2595  0.1295 -0.1707
 8114TIP3    H145833   3.041   1.298  11.908  1.3124 -0.2773  0.1922
 8114TIP3    H245834   3.029   1.161  11.843 -1.1471  0.3813 -0.8615
 8115TIP3   OH245835   6.186   3.817   4.041  0.0016  0.1009  0.1182
 8115TIP3    H145836   6.132   3.757   4.093  2.3711 -0.8229  1.6537
 8115TIP3    H245837   6.201   3.770   3.958  0.4680 -0.7241  0.6615
 8116TIP3   OH245838   4.127   6.118   1.515 -0.1914  0.5829 -0.5747
 8116TIP3    H145839   4.066   6.156   1.453 -0.5704 -1.6681 -1.6921
 8116TIP3    H245840   4.079   6.045   1.554  1.5186 -0.8613 -1.0412
 8117TIP3   OH245841   5.883   6.634   4.172 -0.5573  0.0413 -0.2243
 8117TIP3    H145842   5.943   6.594   4.109 -0.8317  0.4198 -0.7314
 8117TIP3    H245843   5.896   6.584   4.253  1.3149  0.8973  0.0346
 8118TIP3   OH245844   1.855   3.175  13.497  0.0619  0.3827 -0.4294
 8118TIP3    H145845   1.816   3.216  13.420  2.2349  1.7026 -0.9222
 8118TIP3    H245846   1.786   3.118  13.532 -0.9006 -0.5012 -3.4874
 8119TIP3   OH245847   3.295   6.669   6.027  0.4005 -0.2372 -0.3571
 8119TIP3    H145848   3.233   6.679   6.099  0.5235 -1.5212 -0.0455
 8119TIP3    H245849   3.379   6.695   6.064  0.5011 -1.1099  0.0397
 8120TIP3   OH245850   0.325   2.983   2.980 -0.0020 -0.0101  0.2384
 8120TIP3    H145851   0.258   3.051   2.991 -0.5751 -0.5119 -0.0573
 8120TIP3    H245852   0.284   2.904   3.015  0.9289 -0.0644  1.2630
 8121TIP3   OH245853   2.442   4.758   2.293 -0.3233  0.4648 -0.1300
 8121TIP3    H145854   2.356   4.730   2.262  0.3653 -1.1485 -0.7187
 8121TIP3    H245855   2.457   4.708   2.373 -0.0017  0.8580  0.0626
 8122TIP3   OH245856   1.213   5.860   0.006 -0.1704 -0.3420  0.1242
 8122TIP3    H145857   1.193   5.869  -0.087 -1.0216 -2.1419  0.1017
 8122TIP3    H245858   1.168   5.934   0.048 -1.6117 -0.7519 -0.6598
 8123TIP3   OH245859   1.370   1.609   2.236  0.8863  0.1867  0.2078
 8123TIP3    H145860   1.461   1.579   2.233  0.9998  0.5242  0.3180
 8123TIP3    H245861   1.324   1.550   2.176  0.8222 -1.2374  1.5994
 8124TIP3   OH245862   3.993   2.444  12.858 -0.0461 -0.1678  0.1608
 8124TIP3    H145863   4.066   2.388  12.884 -0.0890 -0.1111  0.4078
 8124TIP3    H245864   3.978   2.501  12.934 -0.0262  0.1540 -0.0748
 8125TIP3   OH245865   0.906   3.361  11.529 -0.1993 -0.3686 -0.0928
 8125TIP3    H145866   0.949   3.447  11.521  0.1014 -0.5696 -0.7616
 8125TIP3    H245867   0.905   3.327  11.439  0.3712 -1.3947  0.2793
 8126TIP3   OH245868   1.578   5.867   1.062 -0.7326 -0.0110 -0.7782
 8126TIP3    H145869   1.611   5.851   0.974  0.8621  0.7859 -0.3591
 8126TIP3    H245870   1.555   5.960   1.062 -0.0949  0.1548 -0.1778
 8127TIP3   OH245871   6.171   3.229  12.235 -0.5317 -0.1687 -0.0664
 8127TIP3    H145872   6.095   3.288  12.236 -1.4758 -1.3468  0.4583
 8127TIP3    H245873   6.190   3.217  12.142  0.0598  1.4149 -0.1722
 8128TIP3   OH245874   1.353   0.862  15.316  0.0017  0.0724  0.2806
 8128TIP3    H145875   1.264   0.860  15.350 -0.5811 -0.7853 -1.2153
 8128TIP3    H245876   1.371   0.955  15.300 -1.2847  0.1300 -1.0184
 8129TIP3   OH245877   1.744   3.547   2.664  0.2634 -0.0873 -0.2391
 8129TIP3    H145878   1.661   3.501   2.679  0.3313  0.1744  1.0455
 8129TIP3    H245879   1.811   3.489   2.702  0.5650  0.1357 -0.4276
 8130TIP3   OH245880   1.498   4.955   5.109 -0.5382 -0.4825 -0.8844
 8130TIP3    H145881   1.560   4.932   5.040 -0.2084  1.0718 -1.1406
 8130TIP3    H245882   1.494   4.877   5.164  1.2947 -0.7936 -1.1190
 8131TIP3   OH245883   6.180   3.178   1.160 -0.2790 -0.1291  0.2944
 8131TIP3    H145884   6.259   3.230   1.146  0.3014 -0.2166  2.7452
 8131TIP3    H245885   6.192   3.101   1.105  0.2000  0.9360 -1.1681
 8132TIP3   OH245886   0.700   5.051  12.823 -0.2720 -0.5511 -0.0676
 8132TIP3    H145887   0.682   4.976  12.767  1.5189 -0.4513 -0.8377
 8132TIP3    H245888   0.754   5.017  12.894  1.1577  0.1156 -0.8115
 8133TIP3   OH245889   6.510   6.623  15.221 -0.1752  0.0503  0.9649
 8133TIP3    H145890   6.492   6.629  15.127  1.0254  1.3613  0.7809
 8133TIP3    H245891   6.442   6.677  15.262 -0.8105 -0.6692  0.8858
 8134TIP3   OH245892   3.007   0.639   6.154 -1.0569  0.1653 -0.3786
 8134TIP3    H145893   2.937   0.575   6.159 -0.2964 -0.8447 -1.8375
 8134TIP3    H245894   2.965   0.718   6.119 -1.5772 -0.2421 -0.6783
 8135TIP3   OH245895   6.432   5.122  15.978  0.0359 -0.1069  0.3308
 8135TIP3    H145896   6.444   5.196  15.918 -0.4888 -1.9296 -2.1794
 8135TIP3    H245897   6.517   5.080  15.982  0.6208  1.1182  2.6069
 8136TIP3   OH245898   2.687   0.813  15.515 -0.6291 -0.3148 -0.1737
 8136TIP3    H145899   2.640   0.869  15.576  0.2751 -1.1965  1.3892
 8136TIP3    H245900   2.641   0.729  15.518  0.4019 -0.8721  0.6015
 8137TIP3   OH245901   0.428   1.969   3.063 -0.2971 -0.2227  0.5332
 8137TIP3    H145902   0.338   2.004   3.064 -0.2334 -0.0621  1.5961
 8137TIP3    H245903   0.417   1.874   3.067 -0.4171 -0.1857  1.1655
 8138TIP3   OH245904   3.698   4.394   4.116 -0.2838 -0.4555 -0.3922
 8138TIP3    H145905   3.673   4.360   4.202  1.4233 -0.1963  0.2637
 8138TIP3    H245906   3.662   4.483   4.114 -1.8242 -1.0625 -0.6967
 8139TIP3   OH245907   6.677   3.917  11.528  0.1275 -0.3925  0.1781
 8139TIP3    H145908   6.731   3.843  11.557 -0.7183 -1.1701 -0.2024
 8139TIP3    H245909   6.682   3.980  11.600  0.5616 -0.9715  0.6676
 8140TIP3   OH245910   5.797   3.103  17.448 -0.4195  0.5733 -0.5749
 8140TIP3    H145911   5.834   3.135  17.530 -1.7990 -0.9639  0.7356
 8140TIP3    H245912   5.703   3.096  17.465 -0.3133 -4.2564 -0.5131
 8141TIP3   OH245913   3.010   4.440  12.389  0.0084 -0.7174 -0.6098
 8141TIP3    H145914   3.022   4.472  12.478 -0.9324 -0.6650 -0.4883
 8141TIP3    H245915   3.090   4.390  12.371  1.2065  1.1123 -0.5761
 8142TIP3   OH245916   3.553   3.724   3.775 -0.2952  0.3458 -0.5441
 8142TIP3    H145917   3.562   3.706   3.681 -0.8018 -0.2610 -0.4829
 8142TIP3    H245918   3.578   3.642   3.818  2.1952  1.2934 -0.0141
 8143TIP3   OH245919   0.242   5.714  14.127  0.1287  0.5455  0.0173
 8143TIP3    H145920   0.327   5.696  14.089 -0.1107 -0.1890 -0.1888
 8143TIP3    H245921   0.190   5.749  14.055 -0.5830 -1.6345 -0.5994
 8144TIP3   OH245922   4.638   5.455   4.596 -0.3421  0.1380 -0.3162
 8144TIP3    H145923   4.617   5.544   4.567 -0.8947  0.4551  1.0170
 8144TIP3    H245924   4.733   5.457   4.609 -0.3132  0.4489 -0.5389
 8145TIP3   OH245925   0.298   4.290   6.003  0.1447 -0.0860 -0.0277
 8145TIP3    H145926   0.363   4.224   5.980  0.5735 -0.1348  1.2437
 8145TIP3    H245927   0.293   4.347   5.927  1.3781 -0.3120 -0.2906
 8146TIP3   OH245928   1.929   2.052   4.311  0.7564 -0.6797 -0.3369
 8146TIP3    H145929   1.985   2.018   4.242  2.0514  0.8972 -0.0958
 8146TIP3    H245930   1.986   2.105   4.366 -0.7185  0.0101  0.6184
 8147TIP3   OH245931   0.877   3.465  13.634 -0.1237 -0.3619  0.0595
 8147TIP3    H145932   0.943   3.423  13.579 -1.4445 -1.1795 -0.9684
 8147TIP3    H245933   0.899   3.437  13.723  1.8978  0.7784 -0.0198
 8148TIP3   OH245934   0.442   0.965   3.007 -0.6421 -0.4385 -0.2679
 8148TIP3    H145935   0.428   0.933   2.917  1.0917  0.5737 -0.9553
 8148TIP3    H245936   0.506   1.036   2.997  0.6127 -1.1636  1.8994
 8149TIP3   OH245937   4.255   0.015  14.409  0.1957  0.1426 -0.0855
 8149TIP3    H145938   4.251  -0.073  14.448 -1.2187 -0.1527 -0.8331
 8149TIP3    H245939   4.289   0.070  14.479  0.0730 -0.8105  0.7622
 8150TIP3   OH245940   1.992   5.965   1.053 -0.2951  0.2928  0.0620
 8150TIP3    H145941   1.961   5.875   1.039  0.2637 -0.0001  0.6438
 8150TIP3    H245942   2.079   5.966   1.014 -0.0405  0.3908  0.6176
 8151TIP3   OH245943   3.424   1.725   2.258 -0.7862  0.0716  0.0555
 8151TIP3    H145944   3.439   1.646   2.206 -2.9551  0.3108 -1.0703
 8151TIP3    H245945   3.350   1.768   2.215  0.0091  2.4905  0.9228
 8152TIP3   OH245946   6.191   1.492   0.435 -0.4916  0.2319  0.5778
 8152TIP3    H145947   6.114   1.436   0.442 -1.1405  1.1134  0.6395
 8152TIP3    H245948   6.197   1.513   0.341 -1.5195  1.7705  0.8236
 8153TIP3   OH245949   1.265   5.188   0.606 -0.3236  0.0967 -0.3944
 8153TIP3    H145950   1.340   5.161   0.553  0.7707  0.4005  0.9641
 8153TIP3    H245951   1.196   5.126   0.582  0.4355 -0.3782 -1.4368
 8154TIP3   OH245952   4.622   2.207   2.190 -0.2859 -0.5357  0.5547
 8154TIP3    H145953   4.634   2.146   2.118 -0.5469 -1.4085  1.2334
 8154TIP3    H245954   4.546   2.173   2.238 -1.3371  1.1048  0.1501
 8155TIP3   OH245955   1.062   0.391   0.817  0.7819  0.2585 -0.2805
 8155TIP3    H145956   1.061   0.423   0.907  2.7665 -0.9291  0.2282
 8155TIP3    H245957   1.055   0.296   0.825  1.0722  0.1296 -1.3812
 8156TIP3   OH245958   5.108   5.455  13.114 -0.4586  0.0637  0.4195
 8156TIP3    H145959   5.138   5.524  13.054 -2.5101 -0.7069 -1.6576
 8156TIP3    H245960   5.020   5.483  13.139 -0.6258 -0.9273  0.9907
 8157TIP3   OH245961   2.899   2.291  12.763 -0.0647  0.5550  0.6528
 8157TIP3    H145962   2.983   2.247  12.770  0.1618  0.9880  0.6343
 8157TIP3    H245963   2.878   2.289  12.669  0.1526  0.8748  0.5965
 8158TIP3   OH245964   0.447   0.207   3.555 -0.0332 -0.1062  0.4052
 8158TIP3    H145965   0.368   0.256   3.530 -0.4565 -0.4846  0.9908
 8158TIP3    H245966   0.514   0.274   3.566 -0.4001  0.2643  0.3979
 8159TIP3   OH245967   2.675   1.913  13.739 -0.3227 -0.1233  0.6737
 8159TIP3    H145968   2.641   1.986  13.791 -0.9578  0.3474 -0.3799
 8159TIP3    H245969   2.767   1.906  13.765 -0.5966  0.1592  1.7786
 8160TIP3   OH245970   2.294   0.502  11.650  0.0501  0.1339 -0.3805
 8160TIP3    H145971   2.313   0.557  11.574 -0.2819  1.7267  0.6350
 8160TIP3    H245972   2.199   0.511  11.663  0.2333  0.6593  0.7635
 8161TIP3   OH245973   1.922   5.411  16.034 -0.2081  0.5061 -0.4305
 8161TIP3    H145974   1.849   5.373  16.083  0.8632 -2.0877 -0.6818
 8161TIP3    H245975   1.894   5.408  15.943 -0.4453  1.0745 -0.3739
 8162TIP3   OH245976   6.046   2.377   0.399 -0.3616  0.5417 -0.0547
 8162TIP3    H145977   6.017   2.450   0.343 -0.0958  1.1488  0.5870
 8162TIP3    H245978   6.074   2.419   0.480 -1.3052 -0.3735  0.7741
 8163TIP3   OH245979   2.037   4.696   4.157  0.1162 -0.7118 -0.3893
 8163TIP3    H145980   2.023   4.675   4.249 -1.3086 -0.7475 -0.5887
 8163TIP3    H245981   1.992   4.779   4.145  0.7152 -0.4621 -0.9515
 8164TIP3   OH245982   2.283   3.081  11.721  0.0290  0.2247  0.1355
 8164TIP3    H145983   2.256   3.013  11.784  0.7147  0.0303  0.2197
 8164TIP3    H245984   2.318   3.032  11.647  1.3034  0.4961  0.5480
 8165TIP3   OH245985   5.147   2.819  12.329 -0.1224 -0.2295  0.1293
 8165TIP3    H145986   5.062   2.780  12.350 -1.2063  2.4431  1.1446
 8165TIP3    H245987   5.200   2.805  12.407  0.0160 -0.9389 -0.0852
 8166TIP3   OH245988   4.830   6.188   3.819 -0.2235  0.1894 -0.3748
 8166TIP3    H145989   4.864   6.251   3.756  1.1581  0.2061  0.3511
 8166TIP3    H245990   4.788   6.121   3.765  0.4949  0.4558 -1.2922
 8167TIP3   OH245991   2.873   0.495  14.523  0.3153  0.4047  0.6988
 8167TIP3    H145992   2.912   0.567  14.473 -0.5815  0.2687 -0.2243
 8167TIP3    H245993   2.819   0.448  14.460  0.1634 -0.5400  1.5074
 8168TIP3   OH245994   2.035   3.869  15.870  0.1285 -0.2747  0.0849
 8168TIP3    H145995   2.099   3.806  15.904  1.3353  0.6884 -0.3135
 8168TIP3    H245996   2.054   3.950  15.919 -0.8226  0.0161 -0.0200
 8169TIP3   OH245997   2.610   6.030   5.644  0.1374  0.2659  0.4427
 8169TIP3    H145998   2.674   6.096   5.615 -0.5987  0.2754 -1.3028
 8169TIP3    H245999   2.653   5.946   5.627  0.6547  0.2757  1.6524
 8170TIP3   OH246000   2.903   5.291   4.216  0.4884  0.1154  0.5725
 8170TIP3    H146001   2.871   5.313   4.304  1.7762  0.0825  1.0774
 8170TIP3    H246002   2.867   5.204   4.198 -3.0473  1.6548 -0.6335
 8171TIP3   OH246003   3.218   5.163   6.432 -0.2107  0.6779  0.1283
 8171TIP3    H146004   3.236   5.099   6.501 -0.6449  0.4124  0.0034
 8171TIP3    H246005   3.273   5.238   6.453 -0.2495  0.5510  0.6938
 8172TIP3   OH246006   0.152   4.406  14.854  0.2686  0.1744  0.0035
 8172TIP3    H146007   0.082   4.342  14.848  0.3077  0.2405 -1.6464
 8172TIP3    H246008   0.230   4.354  14.876  0.3456 -0.4228 -1.5359
 8173TIP3   OH246009   3.097   0.770   0.279  0.4379  0.5053  0.4013
 8173TIP3    H146010   3.133   0.779   0.191 -0.4418  0.7869  0.0539
 8173TIP3    H246011   3.152   0.827   0.333 -0.1316  1.7838 -0.3104
 8174TIP3   OH246012   4.020   3.322  16.825 -0.0406  0.1121  0.3194
 8174TIP3    H146013   4.110   3.294  16.839  0.7716  1.9029 -0.9585
 8174TIP3    H246014   3.996   3.284  16.740 -0.2157  0.3006  0.2833
 8175TIP3   OH246015   5.108   5.668  14.715 -0.6349  0.5302  0.1192
 8175TIP3    H146016   5.058   5.743  14.747  0.3254  0.2749  2.3909
 8175TIP3    H246017   5.190   5.671  14.766  0.2720 -0.9147 -1.1810
 8176TIP3   OH246018   3.816   5.542  13.891 -0.2382 -0.1825  1.0336
 8176TIP3    H146019   3.787   5.455  13.920  1.9753 -1.7731 -1.1358
 8176TIP3    H246020   3.748   5.571  13.831 -1.7426  0.3397  2.9029
 8177TIP3   OH246021   6.451   4.636  10.846  0.0125  0.0868 -0.1302
 8177TIP3    H146022   6.439   4.560  10.904 -0.7908 -0.5158 -1.0605
 8177TIP3    H246023   6.481   4.599  10.764 -0.5892  0.7462 -0.6623
 8178TIP3   OH246024   6.012   3.103  15.309 -0.3047 -0.2052 -0.0141
 8178TIP3    H146025   6.032   3.193  15.338 -0.3494 -1.0697  3.0207
 8178TIP3    H246026   5.954   3.115  15.233  0.1199  2.3064 -0.0520
 8179TIP3   OH246027   0.664   2.444  15.199  0.3766  0.0493  0.0738
 8179TIP3    H146028   0.598   2.375  15.190 -1.6345  1.9230 -0.4546
 8179TIP3    H246029   0.710   2.443  15.115 -0.6910  0.3188 -0.5389
 8180TIP3   OH246030   2.141   4.184   2.064  0.3520  0.3815  0.7222
 8180TIP3    H146031   2.157   4.216   1.975 -0.6668  0.8399  0.6907
 8180TIP3    H246032   2.126   4.263   2.115 -0.7470  0.0305  0.9520
 8181TIP3   OH246033   4.776   3.154   1.456  0.5109  0.1764 -0.5884
 8181TIP3    H146034   4.805   3.083   1.398 -0.5828 -0.5653 -0.2797
 8181TIP3    H246035   4.702   3.193   1.410 -0.3574 -0.4072  0.2552
 8182TIP3   OH246036   0.584   2.330  16.917  0.3796  0.1715 -0.1311
 8182TIP3    H146037   0.602   2.418  16.949  1.0066  0.8080 -2.1028
 8182TIP3    H246038   0.668   2.297  16.886 -0.2603 -0.1562 -1.6327
 8183TIP3   OH246039   0.152   3.078  14.523 -0.1346 -0.0616  0.5095
 8183TIP3    H146040   0.092   3.096  14.451  0.0827  0.3149  0.4177
 8183TIP3    H246041   0.175   2.985  14.512 -0.5418 -0.1563  0.4322
 8184TIP3   OH246042   0.497   3.029  12.775  0.0552 -0.5188 -0.4566
 8184TIP3    H146043   0.490   2.989  12.861  0.6862  1.9286  0.8273
 8184TIP3    H246044   0.590   3.027  12.754 -0.1153 -1.2671 -1.1936
 8185TIP3   OH246045   6.767   2.024  12.564 -0.0349 -0.2737  0.1078
 8185TIP3    H146046   6.702   1.988  12.624 -0.9341  1.3834  0.1821
 8185TIP3    H246047   6.737   1.995  12.477  1.4768 -2.9872  0.4046
 8186TIP3   OH246048   5.100   5.275  12.160 -0.6766 -0.3403  0.1792
 8186TIP3    H146049   5.085   5.220  12.236 -0.3874 -0.8503 -0.1238
 8186TIP3    H246050   5.195   5.277  12.150 -0.7168 -0.4380 -0.2761
 8187TIP3   OH246051   0.514   3.295   0.999  0.1807  0.1367  0.1937
 8187TIP3    H146052   0.545   3.282   0.909  0.1871  1.2798  0.0274
 8187TIP3    H246053   0.593   3.289   1.053  0.2517 -0.0117  0.0748
 8188TIP3   OH246054   4.297   5.799  12.714  0.4703  0.5806 -0.2404
 8188TIP3    H146055   4.309   5.786  12.620  0.3290 -0.1733 -0.1611
 8188TIP3    H246056   4.212   5.759  12.733  0.4953  0.7310  0.2096
 8189TIP3   OH246057   4.568   2.487  13.821 -0.2959  0.2504 -0.2303
 8189TIP3    H146058   4.507   2.546  13.776  0.5082  1.7206  0.5312
 8189TIP3    H246059   4.646   2.540  13.835  1.7402 -1.9468 -2.3722
 8190TIP3   OH246060   5.284   3.953   4.156  0.5271 -0.3843  0.0607
 8190TIP3    H146061   5.361   3.976   4.104 -0.4256 -1.6204 -1.9997
 8190TIP3    H246062   5.287   3.858   4.163 -1.4661 -0.5920 -1.1940
 8191TIP3   OH246063   0.409   0.755  14.272 -0.4509 -0.2243  0.1003
 8191TIP3    H146064   0.400   0.829  14.212  0.7895  0.8607  1.1819
 8191TIP3    H246065   0.500   0.726  14.261  0.0356  0.4776  1.9340
 8192TIP3   OH246066   3.655   6.731   1.298  0.4424  0.1262  0.7880
 8192TIP3    H146067   3.684   6.665   1.361 -2.5383 -0.9960  1.1487
 8192TIP3    H246068   3.631   6.807   1.351 -0.0877 -0.0560  0.8158
 8193TIP3   OH246069   0.078   2.822   4.902 -0.1919 -0.3024  0.4055
 8193TIP3    H146070   0.111   2.863   4.822 -0.6014 -1.3760 -0.3447
 8193TIP3    H246071   0.084   2.728   4.885  0.2277 -0.5586  1.8660
 8194TIP3   OH246072   3.561   0.090  15.791  0.2931 -0.2596 -0.1449
 8194TIP3    H146073   3.574   0.130  15.877 -1.4937  0.6145 -0.2294
 8194TIP3    H246074   3.589   0.158  15.729  1.4915 -0.8536 -0.2957
 8195TIP3   OH246075   5.186   5.166   4.886  0.4083 -0.3537 -0.1481
 8195TIP3    H146076   5.257   5.120   4.841  0.2394  0.4686 -1.2934
 8195TIP3    H246077   5.228   5.205   4.963  1.5007  1.1313 -1.4485
 8196TIP3   OH246078   5.747   5.977   3.711  0.2575 -0.2708 -0.2810
 8196TIP3    H146079   5.667   5.993   3.761 -0.9772  0.7909 -2.4141
 8196TIP3    H246080   5.812   6.036   3.749 -0.8799  1.1170 -0.3939
 8197TIP3   OH246081   1.638   0.085   2.503  0.0740 -0.2360  0.5754
 8197TIP3    H146082   1.574   0.141   2.547 -1.8019 -1.1805 -0.8292
 8197TIP3    H246083   1.642   0.006   2.558  0.1421 -0.1271  0.7292
 8198TIP3   OH246084   1.164   0.798  16.537  0.0751  0.5049 -0.2667
 8198TIP3    H146085   1.242   0.769  16.585 -1.8560 -1.6364  1.8350
 8198TIP3    H246086   1.109   0.840  16.604 -1.6204 -0.2242 -1.1428
 8199TIP3   OH246087   4.095   5.827   3.476  0.1216 -0.3094  0.3341
 8199TIP3    H146088   4.132   5.739   3.477 -1.5700 -1.0727 -0.1617
 8199TIP3    H246089   4.098   5.854   3.384  0.4661  0.0783  0.4576
 8200TIP3   OH246090   4.071   1.129  15.433 -0.4970  0.0190  0.1490
 8200TIP3    H146091   4.004   1.086  15.379 -0.8394  1.8853 -0.9929
 8200TIP3    H246092   4.032   1.133  15.521 -2.0708  1.3011 -0.5491
 8201TIP3   OH246093   6.582   0.778  17.360 -0.1747 -0.5330 -0.4623
 8201TIP3    H146094   6.537   0.726  17.294  1.9368 -1.9587 -0.8747
 8201TIP3    H246095   6.663   0.731  17.378  1.4350  2.1145 -0.1419
 8202TIP3   OH246096   1.652   3.663   3.352 -0.0876  0.1700 -0.1409
 8202TIP3    H146097   1.644   3.589   3.292  0.3904  1.2674 -1.6297
 8202TIP3    H246098   1.564   3.675   3.388 -0.7363  0.3641 -1.7349
 8203TIP3   OH246099   4.566   1.940   2.711  0.1812 -0.5525  0.1193
 8203TIP3    H146100   4.509   1.897   2.647  0.9154 -0.4659 -0.6061
 8203TIP3    H246101   4.608   2.011   2.663  0.5837 -0.3473  0.7555
 8204TIP3   OH246102   6.408   0.440  12.643 -0.2454  0.5212 -0.0702
 8204TIP3    H146103   6.396   0.360  12.593 -0.1927  2.2363 -3.0589
 8204TIP3    H246104   6.470   0.417  12.712  0.2111 -1.8352 -1.1916
 8205TIP3   OH246105   5.340   4.356  16.343  0.1846  0.5826  0.5252
 8205TIP3    H146106   5.284   4.426  16.377  0.8299  1.6404 -0.5213
 8205TIP3    H246107   5.418   4.359  16.399  0.6274  1.3718 -0.1055
 8206TIP3   OH246108   4.689   2.321   1.789  0.2539  0.4748 -0.0936
 8206TIP3    H146109   4.767   2.296   1.838 -0.0674  1.0237  0.7237
 8206TIP3    H246110   4.626   2.349   1.856 -0.6752 -0.0333 -0.7224
 8207TIP3   OH246111   2.420   2.595  11.940  0.2530  0.4713  0.3332
 8207TIP3    H146112   2.499   2.650  11.932 -0.3547  1.4812  1.0149
 8207TIP3    H246113   2.453   2.506  11.937  1.2076  0.8316 -1.6404
 8208TIP3   OH246114   5.558   3.670  16.750 -0.1763  0.0372  0.2074
 8208TIP3    H146115   5.467   3.640  16.750 -1.0260  2.3851  0.8283
 8208TIP3    H246116   5.597   3.629  16.827 -1.5350  1.0914  1.5198
 8209TIP3   OH246117   4.882   4.283   5.521  0.2493  0.6220 -0.0559
 8209TIP3    H146118   4.816   4.352   5.530  0.4899  0.8423  0.0356
 8209TIP3    H246119   4.870   4.228   5.598  1.6124  1.9097  1.1506
 8210TIP3   OH246120   6.684   6.705   1.606 -0.7321  0.7388 -0.0339
 8210TIP3    H146121   6.686   6.655   1.525  0.2596  0.6443  0.0303
 8210TIP3    H246122   6.657   6.642   1.673 -2.0654  0.9421 -0.3548
 8211TIP3   OH246123   1.342   3.838  15.989 -0.2473  0.3392  0.4919
 8211TIP3    H146124   1.433   3.809  15.973 -0.2072  1.6862 -2.2686
 8211TIP3    H246125   1.351   3.927  16.024 -0.5232  0.1796  0.9811
 8212TIP3   OH246126   0.580   6.655  11.335  0.4024 -0.0841 -0.4586
 8212TIP3    H146127   0.567   6.566  11.303 -1.5836  0.3579 -1.0371
 8212TIP3    H246128   0.586   6.646  11.430 -0.3557 -0.8010 -0.4676
 8213TIP3   OH246129   3.082   3.764   2.499 -0.0492  0.6169 -0.3909
 8213TIP3    H146130   3.148   3.770   2.569 -1.7262  0.0898  1.3194
 8213TIP3    H246131   3.126   3.715   2.430  1.8269  1.5363  0.0701
 8214TIP3   OH246132   1.018   2.759  16.107 -0.0672  0.1640 -0.1898
 8214TIP3    H146133   0.975   2.674  16.101  0.3103  0.0540 -1.5119
 8214TIP3    H246134   1.107   2.745  16.075  0.9095  0.4798  2.1625
 8215TIP3   OH246135   3.668   3.635   5.594 -0.5150  0.4785  0.6191
 8215TIP3    H146136   3.611   3.560   5.574  0.0370 -0.0924  1.1191
 8215TIP3    H246137   3.738   3.597   5.647  0.8346  0.9904 -0.7684
 8216TIP3   OH246138   5.278   6.444   1.698  0.2422  1.0110 -0.1120
 8216TIP3    H146139   5.279   6.539   1.689  2.3128  0.9512 -1.1502
 8216TIP3    H246140   5.254   6.428   1.790  1.0018  2.5809  0.3836
 8217TIP3   OH246141   3.239   6.346  15.981  0.5069 -0.4793 -0.5124
 8217TIP3    H146142   3.213   6.438  15.974 -0.6433 -0.6849  0.5683
 8217TIP3    H246143   3.211   6.320  16.069  0.9970 -1.8054 -0.7247
 8218TIP3   OH246144   3.739   0.684   2.741  0.0207  0.0624 -0.0081
 8218TIP3    H146145   3.753   0.692   2.647  1.2539 -0.9654  0.0627
 8218TIP3    H246146   3.824   0.657   2.776 -0.3141  0.7973  1.4557
 8219TIP3   OH246147   1.177   3.249  11.526  0.4914  0.5049 -0.9083
 8219TIP3    H146148   1.196   3.157  11.544  1.2692  0.8962  0.4305
 8219TIP3    H246149   1.084   3.258  11.548  0.7454  0.3234  0.3348
 8220TIP3   OH246150   5.391   5.716  13.120 -0.2474 -0.0585 -0.2353
 8220TIP3    H146151   5.318   5.705  13.060 -0.1591 -0.5627 -0.2547
 8220TIP3    H246152   5.351   5.717  13.207 -0.3865  0.7876 -0.3034
 8221TIP3   OH246153   1.470   6.590   3.225 -0.5780 -0.4590  0.2278
 8221TIP3    H146154   1.463   6.679   3.191 -0.2267  0.2959  2.0336
 8221TIP3    H246155   1.472   6.601   3.320 -1.9582 -2.4935  0.5506
 8222TIP3   OH246156   0.054   1.943  16.034  0.3880 -0.1412 -0.0252
 8222TIP3    H146157  -0.041   1.951  16.040  0.4894  0.8355  0.6044
 8222TIP3    H246158   0.069   1.856  15.998 -0.7341 -0.5119  0.3563
 8223TIP3   OH246159   3.866   3.651  12.471  0.0115  0.4937  0.0661
 8223TIP3    H146160   3.911   3.627  12.552  0.8097  0.8408 -0.2629
 8223TIP3    H246161   3.784   3.601  12.472 -0.7086  1.6103  1.8151
 8224TIP3   OH246162   6.098   1.257   2.802  0.1163  0.2321  0.6124
 8224TIP3    H146163   6.116   1.343   2.841 -0.9430  0.6585  0.1759
 8224TIP3    H246164   6.021   1.225   2.849 -0.0071 -0.1043  0.1818
 8225TIP3   OH246165   1.225   0.492  13.427 -0.2741  0.0516  0.2703
 8225TIP3    H146166   1.218   0.399  13.404 -1.4511 -0.1955  1.4760
 8225TIP3    H246167   1.260   0.534  13.349 -0.9958 -1.2141 -0.7695
 8226TIP3   OH246168   6.053   5.991  15.164  0.2136  0.7349 -0.2573
 8226TIP3    H146169   6.092   6.055  15.105 -0.3456  0.4532 -0.9478
 8226TIP3    H246170   6.033   6.041  15.243  2.6312  0.7305  0.4375
 8227TIP3   OH246171   0.546   5.861  15.840 -0.0257  0.1415  0.6968
 8227TIP3    H146172   0.469   5.915  15.858 -1.0390 -1.2619  0.7772
 8227TIP3    H246173   0.527   5.819  15.756  1.7050  1.5042 -0.4485
 8228TIP3   OH246174   4.403   4.918  15.361 -0.1333 -0.6853  0.1019
 8228TIP3    H146175   4.446   4.840  15.324  2.0248  0.0479  0.8947
 8228TIP3    H246176   4.436   4.990  15.307 -0.2800 -0.0710  0.8275
 8229TIP3   OH246177   5.208   5.676   5.509  0.1920  0.1191 -0.0630
 8229TIP3    H146178   5.264   5.600   5.493 -0.8499 -0.8817  0.8256
 8229TIP3    H246179   5.178   5.702   5.422  0.3864 -0.6387 -0.3687
 8230TIP3   OH246180   3.585   4.435  13.534 -0.4639  0.0987  0.1106
 8230TIP3    H146181   3.517   4.418  13.470 -0.6034  0.4465  0.1635
 8230TIP3    H246182   3.538   4.462  13.613 -0.3223 -0.8964  0.5522
 8231TIP3   OH246183   4.049   4.399  13.982  0.1060 -0.3338  0.0974
 8231TIP3    H146184   4.028   4.308  13.962  0.9599 -0.0840 -2.3954
 8231TIP3    H246185   4.090   4.397  14.068  0.2409 -2.3490  0.0263
 8232TIP3   OH246186   3.677   0.225   2.297  0.3193 -0.0988  0.3751
 8232TIP3    H146187   3.740   0.237   2.368  1.7008 -2.2168 -0.3786
 8232TIP3    H246188   3.716   0.158   2.242 -1.6529  0.0343 -1.3104
 8233TIP3   OH246189   5.475   1.761   1.849  0.1597 -0.3758 -0.7059
 8233TIP3    H146190   5.435   1.766   1.762  1.0461 -0.8078 -1.1446
 8233TIP3    H246191   5.454   1.846   1.889 -1.1175 -0.5563 -0.9420
 8234TIP3   OH246192   0.616   1.166   4.541  0.0429 -0.3123 -0.0775
 8234TIP3    H146193   0.584   1.204   4.460  0.5867  0.6322  0.1361
 8234TIP3    H246194   0.672   1.234   4.579 -0.7753 -0.4413  1.4474
 8235TIP3   OH246195   6.237   2.540  13.528 -0.1278 -0.6593 -0.1588
 8235TIP3    H146196   6.282   2.531  13.444  0.5617  1.6190 -0.1067
 8235TIP3    H246197   6.284   2.481  13.587 -1.6527 -3.5712 -1.6573
 8236TIP3   OH246198   0.891   3.246  15.811 -0.0079 -0.7534  0.2612
 8236TIP3    H146199   0.945   3.267  15.735 -1.3959 -1.1514 -0.8599
 8236TIP3    H246200   0.912   3.316  15.874  1.2544 -0.4878 -0.4100
 8237TIP3   OH246201   5.590   0.233  13.920 -0.3779 -0.8336 -0.5064
 8237TIP3    H146202   5.633   0.193  13.995 -0.3232 -0.9437 -0.5951
 8237TIP3    H246203   5.502   0.195  13.919 -0.5779 -0.3827 -0.1508
 8238TIP3   OH246204   4.938   1.888  11.544  0.0882  0.3092  0.4008
 8238TIP3    H146205   4.982   1.903  11.459 -0.4672 -0.3083 -0.0017
 8238TIP3    H246206   4.858   1.940  11.538 -0.1409 -0.0489  0.3943
 8239TIP3   OH246207   4.512   4.133   4.001  0.0196 -0.3699 -0.1232
 8239TIP3    H146208   4.525   4.223   3.972 -1.1227 -0.2072 -0.1646
 8239TIP3    H246209   4.559   4.128   4.084 -0.0153  0.3071 -0.0559
 8240TIP3   OH246210   1.613   3.916   5.151 -0.2628 -0.1932 -0.5687
 8240TIP3    H146211   1.622   3.845   5.088 -1.8419 -0.9642  0.0193
 8240TIP3    H246212   1.628   3.996   5.100  0.1182 -0.8710 -1.5471
 8241TIP3   OH246213   3.876   6.049  16.053  0.2290  0.3800  0.3213
 8241TIP3    H146214   3.790   6.077  16.020  1.0971  1.1718 -1.3675
 8241TIP3    H246215   3.894   5.967  16.006  0.5895  0.4317  0.3715
 8242TIP3   OH246216   6.635   2.571  12.740  0.2902  0.0843  0.0014
 8242TIP3    H146217   6.577   2.495  12.749 -0.1386  0.3351 -0.6187
 8242TIP3    H246218   6.723   2.534  12.745  0.1247 -0.1670  2.1976
 8243TIP3   OH246219   3.566   2.207   6.335 -0.1147 -0.0229  0.1207
 8243TIP3    H146220   3.589   2.114   6.333  0.7734  0.1956 -0.4570
 8243TIP3    H246221   3.632   2.246   6.393  1.7459  0.7865 -2.3598
 8244TIP3   OH246222   1.429   5.620   2.851 -0.0012  0.1811 -0.5724
 8244TIP3    H146223   1.368   5.692   2.837 -0.3084 -0.1756 -1.0854
 8244TIP3    H246224   1.435   5.576   2.766 -1.0074 -1.3325  0.0978
 8245TIP3   OH246225   0.400   5.239  16.158 -0.2619  1.1563 -0.2118
 8245TIP3    H146226   0.311   5.271  16.170 -0.8672 -0.3673 -0.4929
 8245TIP3    H246227   0.401   5.202  16.070 -0.2305 -1.5142  0.8273
 8246TIP3   OH246228   0.692   0.477  17.054  0.8950 -0.1814  0.0226
 8246TIP3    H146229   0.684   0.545  16.987  0.8805  0.6643  0.8579
 8246TIP3    H246230   0.786   0.465  17.065  0.8970 -0.5597 -0.3732
 8247TIP3   OH246231   4.986   6.653   4.368  0.4470  0.0439 -0.2313
 8247TIP3    H146232   5.060   6.632   4.310  1.4295 -1.3691  1.4238
 8247TIP3    H246233   5.024   6.655   4.456 -1.5761 -1.2942  0.7516
 8248TIP3   OH246234   5.560   1.633  17.446  0.4261 -1.0076 -0.1186
 8248TIP3    H146235   5.483   1.685  17.468 -0.2479 -2.1300  0.2441
 8248TIP3    H246236   5.531   1.542  17.452  1.9392 -1.4764  0.6255
 8249TIP3   OH246237   4.861   0.329   0.180  0.1460 -0.0856 -0.0842
 8249TIP3    H146238   4.925   0.262   0.158 -0.6448 -1.5867  1.9363
 8249TIP3    H246239   4.831   0.362   0.095  1.9393 -0.9193 -1.0854
 8250TIP3   OH246240   4.766   0.088   2.283  0.3048 -0.4017 -0.3959
 8250TIP3    H146241   4.805   0.036   2.352  1.8034  2.5456  1.1854
 8250TIP3    H246242   4.712   0.152   2.328  0.5406  0.9984 -1.9726
 8251TIP3   OH246243   1.469   2.320  12.072 -0.1876 -0.1531  0.2498
 8251TIP3    H146244   1.517   2.317  12.155 -2.3016  2.1627  1.7139
 8251TIP3    H246245   1.416   2.240  12.072 -1.0305  0.3784  1.7438
 8252TIP3   OH246246   3.042   0.136  15.990 -0.0918  1.1189  0.1254
 8252TIP3    H146247   2.984   0.097  15.924 -0.6800 -0.4473  1.4991
 8252TIP3    H246248   3.000   0.219  16.012 -1.0143  0.6875  0.0360
 8253TIP3   OH246249   4.525   2.544   4.810 -0.3347  0.5380 -0.0481
 8253TIP3    H146250   4.600   2.573   4.863 -0.3859 -0.7968  0.8038
 8253TIP3    H246251   4.449   2.576   4.859 -0.3574  0.6788 -0.1733
 8254TIP3   OH246252   0.307   6.366  16.878 -0.2368 -0.1651  0.0112
 8254TIP3    H146253   0.359   6.321  16.812  0.8660  0.1081  0.6810
 8254TIP3    H246254   0.294   6.454  16.842 -2.1191 -0.8606 -1.1483
 8255TIP3   OH246255   0.153   1.218   1.681 -0.2344 -0.7200  0.2940
 8255TIP3    H146256   0.227   1.170   1.718 -0.6023 -0.7709  0.9797
 8255TIP3    H246257   0.076   1.166   1.706 -0.4616 -1.1051 -1.0878
 8256TIP3   OH246258   0.863   0.696   2.650 -0.5044  0.2586  0.5237
 8256TIP3    H146259   0.783   0.735   2.613 -0.0734  1.5844  0.9411
 8256TIP3    H246260   0.923   0.770   2.661 -0.0114 -0.3562  2.2985
 8257TIP3   OH246261   4.397   4.878   2.117 -0.7814  0.3804 -0.1205
 8257TIP3    H146262   4.362   4.806   2.066 -1.4327  2.0210 -2.1143
 8257TIP3    H246263   4.450   4.836   2.185  0.4178 -1.9178 -2.3289
 8258TIP3   OH246264   3.088   2.941   2.520  0.5021  0.3725 -0.1210
 8258TIP3    H146265   3.167   2.987   2.492  1.0367 -0.6876 -0.4121
 8258TIP3    H246266   3.116   2.850   2.532 -0.5236  0.1146  0.4416
 8259TIP3   OH246267   0.906   1.922   3.852  0.0578 -1.1704  0.1466
 8259TIP3    H146268   0.891   2.016   3.858 -0.8256 -1.2729 -0.3409
 8259TIP3    H246269   0.950   1.910   3.768 -1.1456 -1.3363 -0.4773
 8260TIP3   OH246270   5.105   1.290  16.254  0.1209  0.3573 -0.1296
 8260TIP3    H146271   5.059   1.365  16.215  0.6837  0.8735  0.1700
 8260TIP3    H246272   5.157   1.328  16.325  0.4895 -0.3081 -0.0309
 8261TIP3   OH246273   0.694   4.848  14.312  0.5257 -0.2223  0.3496
 8261TIP3    H146274   0.727   4.760  14.296  0.4958 -0.7991  2.9609
 8261TIP3    H246275   0.759   4.888  14.370 -0.7836  0.4401  1.4373
 8262TIP3   OH246276   6.120   3.354   1.957 -0.3251 -0.1028  0.4999
 8262TIP3    H146277   6.199   3.407   1.948  0.1965 -0.7214  1.2752
 8262TIP3    H246278   6.118   3.300   1.878 -0.2170  0.2340  0.2669
 8263TIP3   OH246279   0.429   2.353  15.731 -0.3758 -0.1334  0.3975
 8263TIP3    H146280   0.457   2.395  15.649  0.2002 -0.2192  0.5464
 8263TIP3    H246281   0.338   2.381  15.742 -0.1866  0.5916  0.1844
 8264TIP3   OH246282   1.566   4.823  11.790  0.1409  0.2124  0.1621
 8264TIP3    H146283   1.619   4.822  11.710  1.2778  0.3762  0.8905
 8264TIP3    H246284   1.630   4.826  11.861 -0.8448 -0.1125  1.0919
 8265TIP3   OH246285   5.023   2.634   1.025 -0.0221 -0.1857  0.3765
 8265TIP3    H146286   5.100   2.599   0.980 -1.2160 -1.0791 -1.0968
 8265TIP3    H246287   5.013   2.723   0.990 -1.3265 -1.0989 -1.7776
 8266TIP3   OH246288   1.871   5.671   2.964 -0.4105  0.2514 -0.2312
 8266TIP3    H146289   1.962   5.701   2.953 -0.6569  1.2327  0.2941
 8266TIP3    H246290   1.820   5.752   2.966 -1.1203 -0.2116  1.1251
 8267TIP3   OH246291   5.740   5.433   5.524  0.5075  0.0411 -0.0506
 8267TIP3    H146292   5.807   5.387   5.574  0.6522  0.1800 -0.1193
 8267TIP3    H246293   5.778   5.445   5.438 -1.2305 -3.9712 -1.6591
 8268TIP3   OH246294   6.629   6.640  12.278 -0.5217 -0.4273 -0.0763
 8268TIP3    H146295   6.678   6.576  12.227  1.6998 -0.5984  2.0876
 8268TIP3    H246296   6.569   6.588  12.331  0.2192 -0.6508  0.5728
 8269TIP3   OH246297   6.518   4.161  12.599 -0.2300  0.3012 -0.3469
 8269TIP3    H146298   6.534   4.171  12.693 -0.0850 -1.0599 -0.2016
 8269TIP3    H246299   6.580   4.221  12.557 -1.7025  2.4882  0.4389
 8270TIP3   OH246300   1.177   1.653  11.756 -0.1127 -0.0883  0.2437
 8270TIP3    H146301   1.207   1.699  11.834 -1.6951  1.6793 -0.1243
 8270TIP3    H246302   1.186   1.716  11.685  0.7194 -1.4626 -0.9149
 8271TIP3   OH246303   3.565   3.681  13.853  0.7879  0.0794 -0.0971
 8271TIP3    H146304   3.659   3.693  13.838  0.8911  0.8695  1.0297
 8271TIP3    H246305   3.560   3.608  13.915  0.6355 -0.2779 -0.5335
 8272TIP3   OH246306   5.686   0.855  17.140  0.1502 -0.2856 -0.0621
 8272TIP3    H146307   5.620   0.859  17.209  0.0655 -1.4983 -0.0605
 8272TIP3    H246308   5.709   0.763  17.133  3.0428  0.2262  1.0740
 8273TIP3   OH246309   2.373   5.344  12.594 -0.0083  0.8798  0.0602
 8273TIP3    H146310   2.446   5.287  12.620  0.0302  0.7079 -0.4251
 8273TIP3    H246311   2.321   5.292  12.534  0.8885  1.8715 -1.6549
 8274TIP3   OH246312   3.352   4.423  14.890 -0.0172 -0.8312 -0.0279
 8274TIP3    H146313   3.303   4.459  14.817 -0.7227 -0.8582  0.4262
 8274TIP3    H246314   3.443   4.451  14.874 -0.6313  1.9992  0.7579
 8275TIP3   OH246315   4.883   3.351  12.657 -0.2730 -0.3110  0.3734
 8275TIP3    H146316   4.881   3.447  12.658 -1.5276 -0.1488 -2.9970
 8275TIP3    H246317   4.977   3.330  12.657  0.0378  0.9490  0.5251
 8276TIP3   OH246318   0.562   5.527  12.567 -0.3705 -0.3582  0.2910
 8276TIP3    H146319   0.628   5.575  12.517  0.2395 -1.5028 -0.0427
 8276TIP3    H246320   0.542   5.583  12.641  0.1344  0.5153 -0.2220
 8277TIP3   OH246321   2.478   5.248   3.648  0.3889 -0.1859  0.3105
 8277TIP3    H146322   2.390   5.286   3.653  0.4064 -0.1787  0.5674
 8277TIP3    H246323   2.477   5.198   3.566  0.5063  0.7036 -0.2532
 8278TIP3   OH246324   3.841   6.124   1.679 -0.1572 -0.3025 -0.1322
 8278TIP3    H146325   3.827   6.207   1.632  1.6576 -0.7674 -1.5781
 8278TIP3    H246326   3.871   6.151   1.766 -0.3101  0.5405 -0.3300
 8279TIP3   OH246327   2.963   0.173   3.849  0.4596  0.1269 -0.2902
 8279TIP3    H146328   2.868   0.175   3.840  0.4043  0.6528  0.3155
 8279TIP3    H246329   2.979   0.191   3.942  1.0760 -2.1217  0.0967
 8280TIP3   OH246330   6.195   3.739   5.223  0.1086  0.5228  0.1027
 8280TIP3    H146331   6.250   3.754   5.300  1.6390 -0.6001 -0.7288
 8280TIP3    H246332   6.144   3.820   5.216  0.4018  0.9291  1.8915
 8281TIP3   OH246333   4.733   5.702  12.791  0.3004 -0.2579 -0.0348
 8281TIP3    H146334   4.789   5.772  12.824 -2.2026  2.2763 -0.7903
 8281TIP3    H246335   4.680   5.677  12.867  1.2494 -1.4648  0.2559
 8282TIP3   OH246336   0.573   2.620  16.951 -0.5620  0.1565  0.0449
 8282TIP3    H146337   0.596   2.620  17.044 -2.1562  0.9953  0.4667
 8282TIP3    H246338   0.511   2.693  16.942  0.8713  1.2105 -2.0175
 8283TIP3   OH246339   0.585   4.095  11.694 -0.1997 -0.4968 -0.0040
 8283TIP3    H146340   0.494   4.125  11.698  0.4302  1.4607  0.5669
 8283TIP3    H246341   0.594   4.056  11.607 -1.7928 -1.4858  0.2372
 8284TIP3   OH246342   4.191   4.299   4.460  0.1549 -0.0391 -0.0336
 8284TIP3    H146343   4.148   4.289   4.545 -0.3567  2.0833  0.0152
 8284TIP3    H246344   4.283   4.314   4.482 -0.2472  2.2977  0.3342
 8285TIP3   OH246345   0.422   3.959   3.756  0.9201  0.0132  0.4670
 8285TIP3    H146346   0.423   4.024   3.825  0.8526 -0.3073  0.7712
 8285TIP3    H246347   0.504   3.973   3.709  1.2263 -0.1331  0.9530
 8286TIP3   OH246348   6.052   1.096   6.381  0.4582  0.3945 -0.2973
 8286TIP3    H146349   6.119   1.047   6.332  0.9525 -2.0936  2.5085
 8286TIP3    H246350   5.969   1.064   6.346  0.7543  0.5808 -1.1958
 8287TIP3   OH246351   5.024   3.891  17.277  0.0729 -0.7321  0.0770
 8287TIP3    H146352   5.068   3.810  17.252 -0.0671 -0.6486 -0.4490
 8287TIP3    H246353   4.982   3.922  17.197  0.5424  0.1316  0.1486
 8288TIP3   OH246354   4.664   1.839  13.494 -0.0805  0.7144  0.5949
 8288TIP3    H146355   4.682   1.926  13.458  0.6198  0.5094  0.4430
 8288TIP3    H246356   4.695   1.844  13.584  0.8134  0.3405  0.3131
 8289TIP3   OH246357   6.092   6.677   0.885 -0.5548  0.4103  0.5502
 8289TIP3    H146358   6.104   6.585   0.862  2.6535  0.8679 -0.0114
 8289TIP3    H246359   6.025   6.708   0.824  0.9386 -0.7175 -1.8092
 8290TIP3   OH246360   1.626   5.473  16.205  0.3023 -0.3139  0.2104
 8290TIP3    H146361   1.694   5.519  16.254 -0.6566  0.0318  1.2652
 8290TIP3    H246362   1.548   5.528  16.216 -0.8806 -2.1401  1.4731
 8291TIP3   OH246363   4.155   2.169  12.876  0.5196  0.5744 -0.6661
 8291TIP3    H146364   4.179   2.093  12.824  0.0373  1.2135 -1.8736
 8291TIP3    H246365   4.200   2.157  12.959 -2.2073 -2.7882  0.5891
 8292TIP3   OH246366   5.688   2.166   2.910 -0.6346 -0.2119  0.3806
 8292TIP3    H146367   5.690   2.211   2.826 -0.6351  0.1334  0.5624
 8292TIP3    H246368   5.781   2.159   2.936 -0.5951 -0.8619  0.0655
 8293TIP3   OH246369   4.567   2.569   0.597  0.1100 -0.1344 -0.0271
 8293TIP3    H146370   4.492   2.527   0.556 -0.7146  1.6761 -0.4710
 8293TIP3    H246371   4.553   2.663   0.582  0.4241  0.5474  3.2602
 8294TIP3   OH246372   6.163   0.417  17.493  0.1188  0.6640  0.1891
 8294TIP3    H146373   6.122   0.342  17.537  1.1022  0.8277  1.4329
 8294TIP3    H246374   6.140   0.405  17.401  0.7091 -1.5068  0.2562
 8295TIP3   OH246375   3.663   2.351   3.612  1.1099  0.2227  0.3514
 8295TIP3    H146376   3.597   2.409   3.651  0.5704 -0.3933  0.3607
 8295TIP3    H246377   3.614   2.273   3.586  1.8231 -0.2050  0.2800
 8296TIP3   OH246378   5.916   1.258   0.844  0.4026  0.3279 -0.3503
 8296TIP3    H146379   5.952   1.180   0.886 -1.4389 -0.2934  0.1721
 8296TIP3    H246380   5.991   1.300   0.802  1.3676 -1.9200 -0.9799
 8297TIP3   OH246381   5.129   0.485   2.602  0.5098  0.0869 -0.3391
 8297TIP3    H146382   5.132   0.580   2.604 -0.5575  0.1421 -0.5991
 8297TIP3    H246383   5.120   0.459   2.694  0.7318  0.2310 -0.2755
 8298TIP3   OH246384   5.797   0.081   6.233  0.8470  0.5147 -0.7354
 8298TIP3    H146385   5.833   0.057   6.147  0.9799  0.9276 -0.7968
 8298TIP3    H246386   5.750   0.163   6.217 -0.7381 -0.3728 -0.8056
 8299TIP3   OH246387   4.851   2.538   2.463 -0.5221  0.2114  0.3562
 8299TIP3    H146388   4.799   2.613   2.495  1.2071  1.5211  0.2491
 8299TIP3    H246389   4.935   2.547   2.507  0.2031 -0.8692 -0.7532
 8300TIP3   OH246390   1.563   4.152  17.003  0.7643 -0.3525 -0.3372
 8300TIP3    H146391   1.624   4.225  17.014  0.5460 -0.0782 -0.8905
 8300TIP3    H246392   1.614   4.085  16.958  1.2276 -0.9026  0.9670
 8301TIP3   OH246393   6.185   5.451   2.369 -0.1443 -0.0345 -0.0617
 8301TIP3    H146394   6.192   5.378   2.430 -0.5471  0.2164  0.2862
 8301TIP3    H246395   6.147   5.412   2.290 -0.1603 -0.2430  0.0488
 8302TIP3   OH246396   4.381   1.961   0.541 -0.4234 -0.0293 -0.4191
 8302TIP3    H146397   4.291   1.929   0.541 -0.4851  0.0998 -1.3292
 8302TIP3    H246398   4.375   2.052   0.512 -0.1803  0.6267  1.4861
 8303TIP3   OH246399   0.008   5.020   5.417  0.1453  0.3007  0.3218
 8303TIP3    H146400   0.015   4.925   5.429 -1.1150 -0.1072 -1.7731
 8303TIP3    H246401   0.095   5.053   5.439  0.7241 -1.3724  0.7203
 8304TIP3   OH246402   1.830   1.346   1.667  0.4029  0.4747  0.2149
 8304TIP3    H146403   1.860   1.435   1.649 -1.3037  1.5107  2.0693
 8304TIP3    H246404   1.855   1.330   1.758 -1.4116  0.0346  0.6792
 8305TIP3   OH246405   2.647   2.666   0.960  0.2715  0.5332  0.4300
 8305TIP3    H146406   2.584   2.598   0.983 -1.0035  1.6613  0.3804
 8305TIP3    H246407   2.633   2.681   0.867  0.5166  0.8901  0.4490
 8306TIP3   OH246408   5.624   2.460  10.993 -0.2494  0.4158  0.6452
 8306TIP3    H146409   5.566   2.529  10.962  0.1118  0.7872  0.7897
 8306TIP3    H246410   5.713   2.494  10.978 -0.0701  0.2536  1.2914
 8307TIP3   OH246411   1.072   2.469  12.322  0.4510 -0.7293  0.4402
 8307TIP3    H146412   1.048   2.382  12.289 -0.6336 -0.1054 -0.5146
 8307TIP3    H246413   0.993   2.500  12.365  1.1940 -0.6531  1.7979
 8308TIP3   OH246414   0.184   1.918  13.696 -0.1612  0.0453  0.1820
 8308TIP3    H146415   0.181   1.975  13.774  2.4557  0.9751 -0.2952
 8308TIP3    H246416   0.124   1.960  13.634  0.1413  1.1223  0.5843
 8309TIP3   OH246417   6.218   5.255   1.847 -0.1984  0.4555 -0.1559
 8309TIP3    H146418   6.299   5.292   1.881  0.7543 -1.3427 -0.3015
 8309TIP3    H246419   6.204   5.299   1.764  2.7964 -1.7217 -2.0448
 8310TIP3   OH246420   5.472   2.195   0.993  0.5651 -0.2490  0.4811
 8310TIP3    H146421   5.502   2.221   0.906 -0.9070 -0.9012 -0.2468
 8310TIP3    H246422   5.533   2.238   1.053  2.2409 -0.6457 -0.8838
 8311TIP3   OH246423   3.356   0.164  12.449 -0.9472 -0.7832  0.0040
 8311TIP3    H146424   3.328   0.079  12.484 -1.7971 -1.0440 -1.2425
 8311TIP3    H246425   3.417   0.141  12.378  0.1233 -0.2932  0.7460
 8312TIP3   OH246426   1.828   0.075  15.637  0.5481  0.0389  0.8985
 8312TIP3    H146427   1.748   0.088  15.687  0.2801  0.1355  0.4448
 8312TIP3    H246428   1.892   0.047  15.702  0.5644  1.4808  1.5376
 8313TIP3   OH246429   6.401   3.304  17.047 -0.2480  0.4715 -0.1800
 8313TIP3    H146430   6.363   3.311  16.960 -0.9901 -0.3534  0.0727
 8313TIP3    H246431   6.327   3.289  17.106  0.3496 -0.1557  0.4428
 8314TIP3   OH246432   4.443   3.547   6.568  0.5096 -0.3013 -0.2092
 8314TIP3    H146433   4.519   3.490   6.578 -0.3447 -1.3990  0.1950
 8314TIP3    H246434   4.380   3.494   6.519  0.1747  0.7770 -0.9971
 8315TIP3   OH246435   4.450   3.955  15.717  0.2130  0.3321  0.5360
 8315TIP3    H146436   4.535   3.999  15.726  0.1471  0.4782  0.4468
 8315TIP3    H246437   4.395   4.019  15.670  1.4442 -1.4947 -3.9660
 8316TIP3   OH246438   2.993   1.969  16.963  0.0222  0.2473  0.3695
 8316TIP3    H146439   2.938   1.947  16.887 -0.5941 -0.1622  0.9222
 8316TIP3    H246440   3.004   1.886  17.009 -0.5097  0.6949  1.3101
 8317TIP3   OH246441   2.966   4.531   4.001  1.0745  0.3031 -0.2476
 8317TIP3    H146442   2.948   4.562   3.912 -0.2071  0.1335 -0.0641
 8317TIP3    H246443   3.057   4.556   4.017  1.1665  0.7824 -1.4207
 8318TIP3   OH246444   2.232   0.930   6.530  0.1527  0.2285 -0.4767
 8318TIP3    H146445   2.307   0.871   6.535  0.1772  0.2743 -0.3205
 8318TIP3    H246446   2.214   0.936   6.436  0.3176  0.1840 -0.5126
 8319TIP3   OH246447   2.469   6.353  11.284  0.1752  0.1481  0.6630
 8319TIP3    H146448   2.527   6.406  11.339 -1.5538  0.7228  2.0363
 8319TIP3    H246449   2.512   6.352  11.199  2.6170 -0.1918  1.7909
 8320TIP3   OH246450   6.696   4.696   1.104  0.3658  0.5356  0.1964
 8320TIP3    H146451   6.612   4.675   1.144  0.1112  1.0149 -0.0783
 8320TIP3    H246452   6.761   4.665   1.167 -0.0130  0.2130  0.4343
 8321TIP3   OH246453   5.628   3.538   2.172 -0.3074  0.7736  0.2576
 8321TIP3    H146454   5.541   3.549   2.133  0.0496  0.2047 -0.7497
 8321TIP3    H246455   5.655   3.626   2.197 -1.5454  0.8512  1.4435
 8322TIP3   OH246456   4.479   5.851   4.674 -0.9520  1.2908  0.2061
 8322TIP3    H146457   4.446   5.792   4.742  0.2051 -0.8178 -0.9546
 8322TIP3    H246458   4.510   5.928   4.722 -2.1037  0.7994  1.8301
 8323TIP3   OH246459   0.732   3.709   5.064 -0.0896  0.1092 -0.1501
 8323TIP3    H146460   0.793   3.774   5.030 -0.5930 -0.2175 -1.7675
 8323TIP3    H246461   0.682   3.756   5.131 -0.7682  1.5560 -1.6040
 8324TIP3   OH246462   0.715   4.298   2.668 -0.3304 -0.3735  0.7444
 8324TIP3    H146463   0.752   4.252   2.744  0.0523  0.7912  1.2870
 8324TIP3    H246464   0.667   4.372   2.706  0.9326  0.9736 -0.1649
 8325TIP3   OH246465   5.759   4.918  15.209 -0.5515  0.3880  0.4196
 8325TIP3    H146466   5.773   4.832  15.170  4.0926  1.7232 -1.5673
 8325TIP3    H246467   5.809   4.917  15.290  0.0804  1.3819  0.0612
 8326TIP3   OH246468   6.622   5.580  16.069  0.1916 -0.4067 -0.0428
 8326TIP3    H146469   6.647   5.567  16.161  1.3594  0.6362 -0.1795
 8326TIP3    H246470   6.648   5.671  16.050 -0.1071 -0.5803 -1.3843
 8327TIP3   OH246471   2.673   2.278  14.262  0.5405  0.4723 -0.5019
 8327TIP3    H146472   2.600   2.304  14.319  1.0595  0.7374  0.0654
 8327TIP3    H246473   2.696   2.358  14.215  0.6008  0.4469 -0.5162
 8328TIP3   OH246474   1.431   1.848  17.365  0.7654 -0.6745  0.5671
 8328TIP3    H146475   1.357   1.880  17.313 -0.3021 -1.5767  1.4784
 8328TIP3    H246476   1.467   1.927  17.406  1.9108  0.1347 -1.7833
 8329TIP3   OH246477   6.380   0.781  14.661 -0.3609  0.2607 -0.4243
 8329TIP3    H146478   6.452   0.843  14.667  1.2060 -1.4761 -0.4794
 8329TIP3    H246479   6.403   0.724  14.589 -0.1646 -2.2479  1.4834
 8330TIP3   OH246480   3.799   2.118  17.001  0.7784  0.4745 -0.3885
 8330TIP3    H146481   3.851   2.059  16.946  0.1280  0.7105 -1.2668
 8330TIP3    H246482   3.719   2.134  16.951 -0.9988 -1.3098  1.6765
 8331TIP3   OH246483   1.282   2.908  14.572 -0.5959  0.0998  0.2491
 8331TIP3    H146484   1.370   2.942  14.554 -0.6333 -0.5160 -1.2208
 8331TIP3    H246485   1.272   2.917  14.667  1.6342 -1.1993  0.6904
 8332TIP3   OH246486   3.274   6.623  14.838 -0.7175 -0.1384 -0.5559
 8332TIP3    H146487   3.198   6.647  14.891 -0.4450  0.7946 -0.5778
 8332TIP3    H246488   3.236   6.580  14.761 -1.2630  0.7757 -0.8140
 8333TIP3   OH246489   3.978   1.518   1.283 -0.2853  0.1024  0.8588
 8333TIP3    H146490   3.893   1.559   1.301 -0.9301 -0.8302  0.0587
 8333TIP3    H246491   3.982   1.443   1.342  1.3155  1.7322  3.0186
 8334TIP3   OH246492   1.752   4.753  15.007  0.4858 -0.1682 -0.3836
 8334TIP3    H146493   1.791   4.683  15.060  0.7746  0.5240  0.3447
 8334TIP3    H246494   1.827   4.800  14.971  0.3063  0.2759 -0.1827
 8335TIP3   OH246495   6.380   3.337  11.818 -0.0349 -0.1827  0.6146
 8335TIP3    H146496   6.374   3.419  11.768 -1.3886  0.0659  1.1164
 8335TIP3    H246497   6.431   3.279  11.763 -0.6713  0.3901 -0.6406
 8336TIP3   OH246498   5.509   0.314   1.063 -0.1919  0.0183 -0.4063
 8336TIP3    H146499   5.576   0.339   1.126 -0.6828 -0.7438  0.4427
 8336TIP3    H246500   5.427   0.318   1.112 -0.7673  0.7889 -1.3815
 8337TIP3   OH246501   0.185   4.483   2.269  0.3087 -0.0421  0.7345
 8337TIP3    H146502   0.116   4.501   2.332 -0.3489 -0.0557  0.0406
 8337TIP3    H246503   0.156   4.403   2.225  0.0813  0.6794 -0.4819
 8338TIP3   OH246504   4.884   4.244   1.043 -0.4231 -0.5363  0.5702
 8338TIP3    H146505   4.962   4.227   0.990 -0.3213  1.3228  0.0619
 8338TIP3    H246506   4.912   4.310   1.106 -1.6900  0.4997  0.0754
 8339TIP3   OH246507   3.999   1.147   6.108  0.1012  0.4324 -0.9446
 8339TIP3    H146508   4.041   1.157   6.022  1.3604 -2.5268 -0.8113
 8339TIP3    H246509   4.052   1.202   6.167 -1.3066  3.1984 -2.0940
 8340TIP3   OH246510   1.251   3.224  13.355 -0.4407  0.2445  0.0280
 8340TIP3    H146511   1.343   3.241  13.376 -1.2320  0.4915  4.3188
 8340TIP3    H246512   1.243   3.129  13.359 -0.0188  0.0347 -2.7236
 8341TIP3   OH246513   0.212   1.259  11.384 -0.2562  0.7787  0.0970
 8341TIP3    H146514   0.249   1.263  11.472  0.3586  0.1424 -0.1145
 8341TIP3    H246515   0.287   1.272  11.326 -0.8434  2.4000 -0.3378
 8342TIP3   OH246516   1.000   4.169  13.374  0.4107 -0.3420 -0.5283
 8342TIP3    H146517   0.911   4.204  13.363  0.9714  0.9565 -1.2394
 8342TIP3    H246518   1.004   4.142  13.465 -1.1509 -1.7506 -0.8386
 8343TIP3   OH246519   3.091   0.408   2.033  0.1492 -0.9559 -0.3743
 8343TIP3    H146520   3.039   0.407   1.952 -0.2110  0.3512 -0.1866
 8343TIP3    H246521   3.037   0.361   2.096 -0.9850  0.5964 -0.1178
 8344TIP3   OH246522   3.527   6.034   3.651 -0.1457  0.2873  0.1396
 8344TIP3    H146523   3.442   6.065   3.683  0.0581  1.2394 -0.2185
 8344TIP3    H246524   3.591   6.090   3.694  0.2752 -0.0634 -0.0231
 8345TIP3   OH246525   0.909   2.359  12.041  0.1968  0.0668 -0.3860
 8345TIP3    H146526   0.997   2.396  12.040  0.5425 -0.7390 -0.3750
 8345TIP3    H246527   0.877   2.373  12.130  0.3484  0.2730 -0.3641
 8346TIP3   OH246528   4.373   1.814   5.494 -0.5801 -0.1896 -0.1537
 8346TIP3    H146529   4.287   1.852   5.477 -0.4645  0.0021 -0.3088
 8346TIP3    H246530   4.372   1.731   5.445 -0.3870  0.1861 -0.8014
 8347TIP3   OH246531   4.911   3.282  12.961  0.3074 -0.2682 -0.0790
 8347TIP3    H146532   4.920   3.313  12.871 -0.8602  0.0167 -0.1045
 8347TIP3    H246533   4.938   3.191  12.958 -2.3330 -1.0999 -1.3019
 8348TIP3   OH246534   1.446   6.003  15.224 -0.1081  0.1531  0.1833
 8348TIP3    H146535   1.395   5.990  15.304 -0.6091  1.0798  0.0228
 8348TIP3    H246536   1.530   6.036  15.254  0.0003 -0.2814  0.3718
 8349TIP3   OH246537   2.389   6.309   6.097  0.3008 -0.1361 -0.2432
 8349TIP3    H146538   2.334   6.349   6.029  0.4997  0.9640  0.2265
 8349TIP3    H246539   2.331   6.300   6.173 -0.3939 -2.8637 -0.9835
 8350TIP3   OH246540   0.679   1.210  15.863  0.5386 -1.0818 -0.6644
 8350TIP3    H146541   0.771   1.184  15.855  0.4698 -1.8023  0.6532
 8350TIP3    H246542   0.634   1.131  15.890  0.3494  0.2229  3.5860
 8351TIP3   OH246543   4.412   4.346  14.693 -0.7562  0.0090  0.3109
 8351TIP3    H146544   4.370   4.417  14.645  1.7675  0.8860 -0.7963
 8351TIP3    H246545   4.343   4.281  14.706 -2.3485  1.2040 -1.5904
 8352TIP3   OH246546   5.511   5.110  15.122 -0.4318  0.1968  0.2750
 8352TIP3    H146547   5.565   5.045  15.167 -0.7346  0.6880  1.3883
 8352TIP3    H246548   5.508   5.081  15.031  0.3495 -0.7309  0.5360
 8353TIP3   OH246549   1.981   1.279   5.494  0.3940 -0.3572  0.0518
 8353TIP3    H146550   1.938   1.266   5.410  0.5452 -0.0931 -0.0676
 8353TIP3    H246551   1.929   1.346   5.538  1.3773  0.8755 -0.6012
 8354TIP3   OH246552   2.645   4.617  16.639  0.3313 -0.3698  0.1819
 8354TIP3    H146553   2.665   4.526  16.662 -0.6410 -0.9396 -1.1053
 8354TIP3    H246554   2.566   4.637  16.689  2.0576  0.7848  2.6933
 8355TIP3   OH246555   1.333   4.575   0.092  0.1079 -0.1338  0.1531
 8355TIP3    H146556   1.420   4.552   0.125  0.8139  0.9792 -0.8485
 8355TIP3    H246557   1.334   4.547   0.000 -0.2546  0.7112 -0.1194
 8356TIP3   OH246558   0.353   1.823  12.157  0.2287 -0.4120  0.3497
 8356TIP3    H146559   0.364   1.913  12.189 -1.0205  0.0194 -0.3357
 8356TIP3    H246560   0.424   1.812  12.094  0.0195  0.3306 -0.0307
 8357TIP3   OH246561   2.013   0.618   0.498 -0.5040  0.1584 -0.3901
 8357TIP3    H146562   2.054   0.614   0.412 -1.5664  1.0872 -0.9622
 8357TIP3    H246563   2.086   0.613   0.560  0.2263 -1.1420 -1.3076
 8358TIP3   OH246564   1.041   2.278   0.022 -0.1896 -0.1332 -1.0958
 8358TIP3    H146565   0.985   2.222   0.075 -1.0557  0.4214 -1.4071
 8358TIP3    H246566   1.041   2.239  -0.065 -1.9724  1.0949 -1.7023
 8359TIP3   OH246567   5.384   0.902  14.643  0.2696  0.0176  0.0998
 8359TIP3    H146568   5.480   0.909  14.639  0.3469  0.3540  1.8244
 8359TIP3    H246569   5.353   0.958  14.572  1.3429 -0.6941 -0.9883
 8360TIP3   OH246570   2.388   5.491   3.202  0.1180 -0.1340  0.3321
 8360TIP3    H146571   2.458   5.516   3.141  0.0495  0.8735  0.6464
 8360TIP3    H246572   2.414   5.532   3.285 -0.5566 -0.2383  0.5962
 8361TIP3   OH246573   5.537   0.045   4.802  0.1802 -0.0850  0.5435
 8361TIP3    H146574   5.598   0.107   4.763  1.1739 -1.1855  0.3300
 8361TIP3    H246575   5.528  -0.025   4.738 -0.1789 -0.6406  1.1824
 8362TIP3   OH246576   4.432   5.746  14.163  0.2829  0.2747  0.3584
 8362TIP3    H146577   4.518   5.737  14.205 -0.6571 -2.1609  2.0077
 8362TIP3    H246578   4.379   5.794  14.227  0.4358  2.0928 -0.8042
 8363TIP3   OH246579   6.239   1.454   5.586 -0.4163 -0.2411  0.5129
 8363TIP3    H146580   6.222   1.525   5.647 -1.4563  0.9468 -1.0831
 8363TIP3    H246581   6.317   1.410   5.621 -0.8695  0.4972  2.5479
 8364TIP3   OH246582   0.645   3.606  16.954 -0.2246  0.6009  0.4072
 8364TIP3    H146583   0.614   3.688  16.915  1.9307  1.5414  0.5521
 8364TIP3    H246584   0.651   3.545  16.880 -0.9763  0.8305  0.1461
 8365TIP3   OH246585   2.342   0.011  13.356 -0.0940  0.1272  0.3368
 8365TIP3    H146586   2.396  -0.017  13.282 -0.4554 -1.6801  0.7043
 8365TIP3    H246587   2.252  -0.000  13.326 -0.2479 -0.9278  1.1217
 8366TIP3   OH246588   1.545   1.634  15.277  0.0970 -0.0191 -0.0003
 8366TIP3    H146589   1.624   1.660  15.323  0.0822 -0.2308  0.1483
 8366TIP3    H246590   1.473   1.672  15.328  0.0269 -1.0747  0.7337
 8367TIP3   OH246591   1.027   3.683  12.769 -0.6305  0.0626  0.4925
 8367TIP3    H146592   1.019   3.611  12.707 -0.4547 -0.1470  0.7089
 8367TIP3    H246593   0.937   3.710  12.786 -0.8979 -1.7092  2.2601
 8368TIP3   OH246594   0.460   5.400  16.786 -0.2860 -0.0382 -0.3984
 8368TIP3    H146595   0.462   5.318  16.736  0.0381 -1.2275  1.4697
 8368TIP3    H246596   0.449   5.372  16.877 -0.8844  2.0462  0.2191
 8369TIP3   OH246597   6.596   5.557   1.838 -0.3716 -0.2832  0.0916
 8369TIP3    H146598   6.631   5.480   1.794 -1.1318  0.2874 -1.6501
 8369TIP3    H246599   6.647   5.630   1.803 -0.7216  0.1504  0.4689
 8370TIP3   OH246600   2.200   1.040   6.028  0.3971 -0.3533  0.4902
 8370TIP3    H146601   2.185   1.129   6.061 -0.3695 -0.7285  1.1998
 8370TIP3    H246602   2.279   1.047   5.976 -1.2122  1.3765 -1.9554
 8371TIP3   OH246603   6.698   3.433  15.369 -0.0661 -0.2508  0.0642
 8371TIP3    H146604   6.689   3.517  15.415  0.3478 -0.9898  1.5752
 8371TIP3    H246605   6.791   3.412  15.376  0.1982  0.0664 -2.0201
 8372TIP3   OH246606   0.935   6.179  16.177  0.3360 -0.7800 -0.0778
 8372TIP3    H146607   0.980   6.261  16.196  0.4988 -0.6630 -0.8967
 8372TIP3    H246608   0.862   6.205  16.121 -0.5524 -1.0131  0.9413
 8373TIP3   OH246609   0.477   0.266  17.008 -0.0457 -0.3954 -0.0416
 8373TIP3    H146610   0.545   0.325  17.042 -1.3676  0.3314  1.4601
 8373TIP3    H246611   0.439   0.314  16.934  0.2991 -0.3001 -0.1583
 8374TIP3   OH246612   0.128   1.799  12.907  0.1394  0.5307 -0.3401
 8374TIP3    H146613   0.175   1.730  12.954 -0.5764  0.2436 -0.0455
 8374TIP3    H246614   0.081   1.846  12.975 -0.5668  0.3809 -0.7203
 8375TIP3   OH246615   4.476   6.594   1.198  0.1503  0.2933 -0.0484
 8375TIP3    H146616   4.507   6.619   1.285 -1.1757  0.4890  0.3766
 8375TIP3    H246617   4.542   6.631   1.139  0.6755  0.7965  0.8249
 8376TIP3   OH246618   0.297   3.455   4.910 -0.2902  0.0265 -0.0623
 8376TIP3    H146619   0.393   3.461   4.911 -0.2180 -0.8322 -0.7063
 8376TIP3    H246620   0.268   3.540   4.878  0.2838  0.1281 -0.3318
 8377TIP3   OH246621   4.023   4.697  16.938 -0.1821 -0.1524 -0.4292
 8377TIP3    H146622   3.990   4.749  16.865  1.0325 -0.3253 -1.1405
 8377TIP3    H246623   4.114   4.724  16.947  0.0698 -1.1378  0.1095
 8378TIP3   OH246624   4.520   3.682  15.924  0.6519  0.0554  0.3203
 8378TIP3    H146625   4.516   3.624  16.000 -0.1057  0.0048  0.2528
 8378TIP3    H246626   4.542   3.625  15.851 -2.7632 -0.7507 -0.2703
 8379TIP3   OH246627   5.124   6.206   3.844 -0.1209 -0.4635  0.7549
 8379TIP3    H146628   5.117   6.159   3.761  0.6574 -2.6018  1.8231
 8379TIP3    H246629   5.040   6.192   3.888 -1.2920  2.2698 -0.3482
 8380TIP3   OH246630   3.244   1.570   3.352  0.0190  0.4178 -0.5800
 8380TIP3    H146631   3.292   1.563   3.269 -0.5216  0.7604 -0.9235
 8380TIP3    H246632   3.312   1.564   3.419  0.7409  2.2048 -1.0726
 8381TIP3   OH246633   5.463   6.326  13.223  0.0280  0.4686  0.4150
 8381TIP3    H146634   5.496   6.412  13.196 -0.7555  0.8270  0.5889
 8381TIP3    H246635   5.536   6.287  13.271  1.1523  0.1573 -1.4457
 8382TIP3   OH246636   0.251   2.620  11.605  0.1764 -0.0217  0.2968
 8382TIP3    H146637   0.293   2.705  11.623 -0.4589  0.5985 -1.0582
 8382TIP3    H246638   0.218   2.592  11.691  1.1953  0.6414  0.9351
 8383TIP3   OH246639   6.420   0.505   4.541 -0.2514 -0.1687  0.1119
 8383TIP3    H146640   6.451   0.572   4.479 -0.1599  0.0290  0.3717
 8383TIP3    H246641   6.329   0.529   4.558 -0.6355 -0.8925 -0.8436
 8384TIP3   OH246642   3.543   3.716   2.503 -0.3128  0.6486 -0.1693
 8384TIP3    H146643   3.483   3.689   2.433 -0.5863  0.9932 -0.0722
 8384TIP3    H246644   3.486   3.734   2.577  0.0193 -0.1832  0.2964
 8385TIP3   OH246645   3.644   0.049  11.885  0.0883  0.1361 -0.6622
 8385TIP3    H146646   3.680  -0.036  11.861  1.4722  1.1309 -2.2542
 8385TIP3    H246647   3.613   0.087  11.803 -0.2607  1.3061 -0.0199
 8386TIP3   OH246648   6.684   4.494  15.875 -0.3031  0.1017 -0.0473
 8386TIP3    H146649   6.654   4.483  15.784  0.9117  1.3165 -0.6217
 8386TIP3    H246650   6.777   4.473  15.872 -0.3209 -0.1768  1.0118
 8387TIP3   OH246651   3.780   1.130   0.201 -0.2218 -0.2276  0.3492
 8387TIP3    H146652   3.726   1.070   0.254  0.9296 -0.6510  1.0883
 8387TIP3    H246653   3.867   1.090   0.202  0.2124  0.6709 -0.4581
 8388TIP3   OH246654   3.502   3.460   3.818 -0.2303 -0.5926  0.0853
 8388TIP3    H146655   3.416   3.440   3.855 -0.2728 -0.5362  0.0179
 8388TIP3    H246656   3.564   3.411   3.872 -0.1964  0.2911  0.8811
 8389TIP3   OH246657   2.657   1.537   5.788 -0.4087  0.1941  0.2690
 8389TIP3    H146658   2.568   1.546   5.756 -0.4635  0.4719  0.4897
 8389TIP3    H246659   2.695   1.465   5.737 -0.6099  0.3820 -0.1478
 8390TIP3   OH246660   6.522   2.494  17.432  0.1034  0.4961 -0.0670
 8390TIP3    H146661   6.547   2.458  17.347  0.9092  0.3713  0.2156
 8390TIP3    H246662   6.584   2.456  17.494 -0.9214  0.0312  0.6991
 8391TIP3   OH246663   1.132   5.539  13.825 -0.3054 -0.1955  0.1400
 8391TIP3    H146664   1.106   5.619  13.779  1.3224  1.1949  1.5324
 8391TIP3    H246665   1.061   5.477  13.806 -1.8949  1.7243 -0.5524
 8392TIP3   OH246666   5.956   3.242  13.514 -0.9414  0.5117  0.2129
 8392TIP3    H146667   5.963   3.163  13.460 -1.7384 -0.6215  1.6609
 8392TIP3    H246668   5.932   3.311  13.453 -0.9120 -0.5262 -1.0137
 8393TIP3   OH246669   0.499   6.058  15.455 -0.1035 -0.0832  0.2318
 8393TIP3    H146670   0.432   6.055  15.386  0.0362  0.4586  0.0661
 8393TIP3    H246671   0.455   6.100  15.529  0.2375  0.8787 -0.0973
 8394TIP3   OH246672   3.818   1.340  13.096  0.1213 -0.8587 -0.9618
 8394TIP3    H146673   3.859   1.362  13.179  0.4627 -1.1233 -1.0616
 8394TIP3    H246674   3.866   1.264  13.064  2.2563  1.1779 -3.0012
 8395TIP3   OH246675   4.901   1.557   6.356  0.0190 -0.4302  0.1376
 8395TIP3    H146676   4.842   1.606   6.297  1.1424  0.1593 -0.5343
 8395TIP3    H246677   4.906   1.611   6.435 -1.0000 -0.9091  0.5415
 8396TIP3   OH246678   3.361   3.746   1.785 -0.3222 -0.0760  0.4214
 8396TIP3    H146679   3.430   3.681   1.774  0.1130  0.4733 -0.2211
 8396TIP3    H246680   3.292   3.720   1.724  0.8418  1.3291 -1.6116
 8397TIP3   OH246681   6.217   2.951   1.015  0.0311  0.0467  0.3688
 8397TIP3    H146682   6.198   2.858   1.007  0.2864  0.0744 -0.8577
 8397TIP3    H246683   6.197   2.986   0.928 -0.6034  1.2430  0.9698
 8398TIP3   OH246684   5.540   4.249  16.504  0.4346 -0.0329 -0.5088
 8398TIP3    H146685   5.524   4.166  16.459  0.0500 -0.1873 -0.0965
 8398TIP3    H246686   5.567   4.223  16.593 -3.2920  0.2536  0.8770
 8399TIP3   OH246687   3.536   0.654   1.626 -0.0525  0.1123 -0.2372
 8399TIP3    H146688   3.583   0.689   1.550  0.2715 -1.4185 -0.7806
 8399TIP3    H246689   3.563   0.562   1.631  0.0489  0.2107  1.8506
 8400TIP3   OH246690   0.223   6.232  15.138 -0.4160 -0.7418 -0.7127
 8400TIP3    H146691   0.278   6.287  15.195 -0.2168  0.0519 -1.6504
 8400TIP3    H246692   0.134   6.250  15.166 -0.2679 -1.3250  0.1901
 8401TIP3   OH246693   2.802   4.673   4.630 -0.4986 -0.0614 -0.3946
 8401TIP3    H146694   2.876   4.703   4.683  0.2781 -0.2864 -1.3321
 8401TIP3    H246695   2.777   4.590   4.669  0.8555 -0.8265 -1.0835
 8402TIP3   OH246696   6.466   0.488   6.513  0.3466 -0.6187  0.4305
 8402TIP3    H146697   6.438   0.456   6.598 -0.3494  0.4807  0.6396
 8402TIP3    H246698   6.463   0.411   6.456 -0.1764 -1.1512  1.1599
 8403TIP3   OH246699   5.499   2.794   4.771  0.1194  0.4886 -0.4702
 8403TIP3    H146700   5.533   2.883   4.780 -1.8122  1.3997 -1.4757
 8403TIP3    H246701   5.500   2.777   4.677 -1.2797  0.2256 -0.4657
 8404TIP3   OH246702   4.934   2.934   6.387  0.2212  0.2001  0.6668
 8404TIP3    H146703   4.964   3.023   6.404 -0.7318  0.8660 -0.9278
 8404TIP3    H246704   4.855   2.924   6.440 -1.1166  1.2568 -1.0091
 8405TIP3   OH246705   3.059   0.813   2.777 -0.0426 -0.0715  0.1875
 8405TIP3    H146706   3.031   0.765   2.699  2.5336 -1.0376 -0.2599
 8405TIP3    H246707   3.116   0.751   2.823  0.9309  1.5340  1.2091
 8406TIP3   OH246708   0.338   4.234   3.977 -0.0857  0.2810 -0.0901
 8406TIP3    H146709   0.357   4.175   4.050 -0.1657  1.2903  0.7692
 8406TIP3    H246710   0.254   4.274   4.000  0.7425  1.9696  0.2134
 8407TIP3   OH246711   0.161   1.951   3.014  0.2718  0.3625 -0.5752
 8407TIP3    H146712   0.103   1.875   3.014  0.1480  0.4570 -0.5457
 8407TIP3    H246713   0.153   1.987   2.925 -0.8133  1.2120 -0.1585
 8408TIP3   OH246714   5.495   3.655   3.903 -0.5257  0.2069  0.2452
 8408TIP3    H146715   5.530   3.740   3.928 -0.9889  1.0027 -1.6843
 8408TIP3    H246716   5.402   3.670   3.888 -1.1043 -1.1588  1.9980
 8409TIP3   OH246717   5.688   1.368   1.113  0.0358  0.5051  0.1125
 8409TIP3    H146718   5.779   1.359   1.087  0.5510 -1.7882  2.4072
 8409TIP3    H246719   5.652   1.279   1.110 -2.1665  1.3365 -0.7016
 8410TIP3   OH246720   2.496   4.683   2.871  0.1634 -0.1533 -0.3806
 8410TIP3    H146721   2.495   4.683   2.967  0.2791 -1.1955 -0.3757
 8410TIP3    H246722   2.583   4.716   2.848  0.4526 -0.7349 -0.1203
 8411TIP3   OH246723   6.760   1.271   1.119 -0.5930  0.3034  0.5755
 8411TIP3    H146724   6.776   1.193   1.066 -1.6808 -0.0117  0.6757
 8411TIP3    H246725   6.723   1.335   1.057 -0.2202  0.5554  0.6071
 8412TIP3   OH246726   4.693   3.642  14.299 -0.4436  0.2164  0.6685
 8412TIP3    H146727   4.665   3.733  14.299  0.3909  0.5086 -0.9556
 8412TIP3    H246728   4.770   3.640  14.242 -1.6149 -1.8236 -1.0061
 8413TIP3   OH246729   5.411   4.611   5.060  0.7213 -0.3354 -0.2265
 8413TIP3    H146730   5.442   4.573   5.142  1.1706  1.9710  0.7686
 8413TIP3    H246731   5.427   4.705   5.070 -1.9826  0.3846 -1.7482
 8414TIP3   OH246732   1.809   5.658   4.464 -0.2830 -0.6155 -0.0853
 8414TIP3    H146733   1.824   5.656   4.558 -0.9633 -2.4075  0.0146
 8414TIP3    H246734   1.754   5.736   4.450 -2.2113 -1.6288  1.3624
 8415TIP3   OH246735   3.546   3.832  15.298 -0.3281 -0.6554 -0.5817
 8415TIP3    H146736   3.572   3.870  15.382 -2.8890 -0.7523  0.3198
 8415TIP3    H246737   3.595   3.750  15.293 -0.7409 -1.0611  1.2477
 8416TIP3   OH246738   0.064   6.603   4.083  0.0784 -0.3677  0.5107
 8416TIP3    H146739   0.056   6.596   3.988 -1.0561 -1.1635  0.6488
 8416TIP3    H246740   0.151   6.642   4.096 -0.7032  2.0351 -0.8892
 8417TIP3   OH246741   1.715   4.722   2.815  0.6351  0.0126  0.4166
 8417TIP3    H146742   1.672   4.683   2.892 -0.0640 -2.5877 -1.1748
 8417TIP3    H246743   1.797   4.675   2.807  0.5586  0.0370 -0.5920
 8418TIP3   OH246744   2.250   1.573  11.781  0.7871  0.2863  0.2409
 8418TIP3    H146745   2.215   1.539  11.698 -1.4622  0.7747  0.9315
 8418TIP3    H246746   2.191   1.538  11.848  1.2048  1.7541  1.4209
 8419TIP3   OH246747   1.204   5.189  13.952 -0.0742  0.0231  0.1551
 8419TIP3    H146748   1.138   5.146  14.007  0.4326 -0.3411  0.4871
 8419TIP3    H246749   1.278   5.202  14.011  0.0205  0.7668 -0.1158
 8420TIP3   OH246750   4.545   6.251  13.579  0.1378 -0.7011 -0.0825
 8420TIP3    H146751   4.496   6.328  13.551  0.8603  0.6478  2.1260
 8420TIP3    H246752   4.637   6.279  13.578  0.4646 -1.6842  0.3121
 8421TIP3   OH246753   0.281   4.453   5.753 -0.6320  0.1160 -0.2309
 8421TIP3    H146754   0.372   4.453   5.722  0.2795 -0.0920  2.2026
 8421TIP3    H246755   0.261   4.546   5.766 -0.4834  0.1228 -0.0412
 8422TIP3   OH246756   2.302   3.565   0.207 -0.3345 -0.0488  0.5882
 8422TIP3    H146757   2.296   3.550   0.112  0.6740 -0.4302  0.5689
 8422TIP3    H246758   2.395   3.580   0.222 -0.8359  3.1305  1.0919
 8423TIP3   OH246759   6.316   1.799   5.956  0.0476  0.1299 -0.3728
 8423TIP3    H146760   6.308   1.772   5.865 -0.2306  0.2283 -0.3778
 8423TIP3    H246761   6.297   1.719   6.006  2.5412 -0.5588 -0.4083
 8424TIP3   OH246762   4.716   5.636  11.452 -0.5002 -0.2901 -0.0600
 8424TIP3    H146763   4.768   5.678  11.520  0.6760 -0.5632 -0.7572
 8424TIP3    H246764   4.646   5.698  11.434 -0.6972 -0.1171  1.2313
 8425TIP3   OH246765   5.744   2.736   0.146  0.1873  0.0218 -0.1998
 8425TIP3    H146766   5.810   2.758   0.213 -1.0122  0.7087  0.8106
 8425TIP3    H246767   5.705   2.654   0.177 -0.2891  0.2795 -0.1062
 8426TIP3   OH246768   1.614   2.279  14.959 -0.8684 -0.6861  0.9147
 8426TIP3    H146769   1.636   2.234  14.877  0.1964  0.1270  0.7266
 8426TIP3    H246770   1.696   2.277  15.010 -0.6489  1.4023  0.7130
 8427TIP3   OH246771   2.031   5.895  16.552  0.9038 -0.1294  0.2846
 8427TIP3    H146772   2.067   5.828  16.495  0.1003 -0.2068 -0.1457
 8427TIP3    H246773   1.953   5.926  16.507  0.5392  0.1742  1.0963
 8428TIP3   OH246774   6.523   0.692  12.300  0.6782  0.0712 -0.2596
 8428TIP3    H146775   6.530   0.695  12.395  3.6663 -1.5076 -0.3040
 8428TIP3    H246776   6.430   0.680  12.282  0.0710  0.2648  2.4519
 8429TIP3   OH246777   2.466   0.325  14.824 -0.2075  0.1474  0.5803
 8429TIP3    H146778   2.442   0.389  14.757  2.7583  1.2168  0.3780
 8429TIP3    H246779   2.473   0.375  14.905  1.7043  0.0826  0.5076
 8430TIP3   OH246780   6.301   1.235  16.511 -0.3836 -0.3540  0.0668
 8430TIP3    H146781   6.286   1.147  16.476 -3.3723 -0.0436  0.3540
 8430TIP3    H246782   6.281   1.227  16.604 -0.1029  0.5262  0.2061
 8431TIP3   OH246783   3.699   4.535   2.977 -0.1336  0.2238 -0.1902
 8431TIP3    H146784   3.643   4.543   3.055  0.3658  0.1736  0.1840
 8431TIP3    H246785   3.664   4.599   2.915 -0.4831  0.3301  0.1121
 8432TIP3   OH246786   5.772   4.390   0.584  0.0821 -0.1921  0.1030
 8432TIP3    H146787   5.745   4.299   0.572 -0.5543 -0.0647  0.5202
 8432TIP3    H246788   5.842   4.403   0.521  0.8958 -1.2711  0.7643
 8433TIP3   OH246789   0.690   4.801   2.455  0.2784  0.1535 -0.9010
 8433TIP3    H146790   0.697   4.839   2.367 -1.8024 -1.7582 -2.0170
 8433TIP3    H246791   0.776   4.765   2.473  0.6534  0.2537 -2.3491
 8434TIP3   OH246792   1.017   2.632   6.460 -0.0398  0.8225  0.5231
 8434TIP3    H146793   1.009   2.537   6.458  0.6278  0.7138 -2.8288
 8434TIP3    H246794   1.108   2.648   6.484  0.1906  0.5624 -0.1765
 8435TIP3   OH246795   1.614   4.364  15.329  0.0308 -0.0443  0.6822
 8435TIP3    H146796   1.552   4.359  15.401 -0.4666  2.3118  0.4941
 8435TIP3    H246797   1.563   4.397  15.255  0.6081 -2.0649 -0.7242
 8436TIP3   OH246798   1.750   2.498   0.484 -0.6781 -0.1920 -0.6950
 8436TIP3    H146799   1.830   2.485   0.536 -0.2939  1.6438 -0.7434
 8436TIP3    H246800   1.783   2.510   0.394 -1.1042 -0.4516 -0.8865
 8437TIP3   OH246801   3.336   0.410  12.598  0.1609  0.4721  0.3144
 8437TIP3    H146802   3.346   0.429  12.691 -0.3987 -0.8077  0.6613
 8437TIP3    H246803   3.355   0.317  12.590 -2.1992 -0.0190 -0.4184
 8438TIP3   OH246804   1.647   4.402   2.178  0.1996 -0.2768  0.0861
 8438TIP3    H146805   1.625   4.480   2.230  0.7203  0.0828 -0.2220
 8438TIP3    H246806   1.693   4.437   2.101  0.9788 -0.9313  0.2452
 8439TIP3   OH246807   4.218   5.646  15.841  0.6059 -0.1264 -0.0359
 8439TIP3    H146808   4.178   5.700  15.909  1.5325  0.4234  0.0848
 8439TIP3    H246809   4.290   5.699  15.807 -0.0080 -0.2697 -1.6513
 8440TIP3   OH246810   0.606   2.347  14.644 -1.1327  0.1614 -0.8147
 8440TIP3    H146811   0.564   2.431  14.665 -2.4411 -0.9989  1.5279
 8440TIP3    H246812   0.559   2.283  14.696 -2.8805 -2.7697 -5.4233
 8441TIP3   OH246813   1.376   4.142   2.679  0.3723  0.4018  0.0701
 8441TIP3    H146814   1.315   4.125   2.607  0.7514 -1.4794  0.1461
 8441TIP3    H246815   1.451   4.185   2.638  0.2753  0.0018 -0.5348
 8442TIP3   OH246816   1.541   5.611   3.098 -0.3300 -0.4850  0.0951
 8442TIP3    H146817   1.514   5.605   3.006 -0.3751  1.6121 -0.0800
 8442TIP3    H246818   1.461   5.631   3.145  0.2551  2.3629  0.0231
 8443TIP3   OH246819   5.938   2.463  14.730 -0.4038  0.5747  0.6131
 8443TIP3    H146820   5.849   2.498  14.728 -0.5985  0.0851 -0.7832
 8443TIP3    H246821   5.957   2.443  14.638  0.8407 -0.0980  1.0001
 8444TIP3   OH246822   5.283   1.073   5.117 -0.5397  0.1651  0.1225
 8444TIP3    H146823   5.325   1.135   5.057  1.0097 -0.9153  0.0186
 8444TIP3    H246824   5.322   1.093   5.203 -1.3041  0.4418  0.4110
 8445TIP3   OH246825   6.493   2.578   5.995  0.3184 -0.0533  0.0582
 8445TIP3    H146826   6.568   2.593   6.054 -0.4123 -0.9837  1.2951
 8445TIP3    H246827   6.419   2.618   6.041 -0.2919 -0.9198 -0.1564
 8446TIP3   OH246828   5.796   3.102   5.233  0.5246 -0.1696  1.0692
 8446TIP3    H146829   5.769   3.010   5.244  2.2070 -0.9535 -0.7071
 8446TIP3    H246830   5.889   3.103   5.258  1.1535  0.4985 -1.0804
 8447TIP3   OH246831   1.809   3.659  13.641 -0.3103 -0.4024 -0.0233
 8447TIP3    H146832   1.858   3.717  13.583 -0.3937 -0.7286 -0.4223
 8447TIP3    H246833   1.861   3.579  13.645 -0.0999 -0.2395  0.6778
 8448TIP3   OH246834   5.024   1.989  16.814  0.7239 -0.4271  0.0167
 8448TIP3    H146835   4.995   1.952  16.731  2.3232  1.0474 -1.2734
 8448TIP3    H246836   4.945   2.024  16.854 -0.1996 -1.8963 -0.4803
 8449TIP3   OH246837   0.871   0.653   5.828 -0.0826  0.0238  0.3630
 8449TIP3    H146838   0.856   0.625   5.738 -0.6044 -1.1405  0.7793
 8449TIP3    H246839   0.918   0.736   5.821 -0.4934  0.1653 -0.9758
 8450TIP3   OH246840   6.438   4.823  11.262 -0.1717  0.0743 -0.4091
 8450TIP3    H146841   6.494   4.829  11.185  1.4640  0.4462  0.7567
 8450TIP3    H246842   6.386   4.744  11.248  0.2624  0.0098 -1.7797
 8451TIP3   OH246843   3.915   3.087  15.155 -0.8120 -0.3577 -0.0378
 8451TIP3    H146844   3.920   3.037  15.237  0.3540  2.4291  1.7101
 8451TIP3    H246845   3.821   3.092  15.136 -1.1481 -0.5668  1.4480
 8452TIP3   OH246846   0.508   3.730   0.153  0.2649  0.5392 -0.0277
 8452TIP3    H146847   0.598   3.757   0.170 -0.2495  1.4298  1.5486
 8452TIP3    H246848   0.515   3.655   0.094  2.0367  0.3250  0.4160
 8453TIP3   OH246849   4.365   5.097  16.464 -0.1909  1.1129 -0.5589
 8453TIP3    H146850   4.365   5.045  16.383 -1.3159 -0.1521  0.2176
 8453TIP3    H246851   4.274   5.098  16.492  0.4603 -0.4947  1.9230
 8454TIP3   OH246852   0.023   6.709  15.426 -0.3201  0.1961 -0.1217
 8454TIP3    H146853   0.081   6.634  15.440  0.2734  0.4360 -1.1981
 8454TIP3    H246854  -0.035   6.681  15.355 -2.3328 -0.4766  1.6604
 8455TIP3   OH246855   1.361   5.361   2.071 -0.0847 -0.1170  0.1500
 8455TIP3    H146856   1.314   5.435   2.109  0.9296 -0.4056  2.0676
 8455TIP3    H246857   1.414   5.400   2.000 -0.8183  0.6926  0.0296
 8456TIP3   OH246858   5.111   0.151  17.478 -0.7842  0.0731 -0.0152
 8456TIP3    H146859   5.109   0.213  17.405  2.0585 -0.1625 -0.4139
 8456TIP3    H246860   5.050   0.082  17.453 -1.4216  1.0185 -1.1850
 8457TIP3   OH246861   2.692   1.438  14.148  0.0506  0.0756  0.3952
 8457TIP3    H146862   2.634   1.487  14.206  0.9349  1.4014  0.1967
 8457TIP3    H246863   2.721   1.502  14.083  0.8022 -0.8464 -0.2080
 8458TIP3   OH246864   4.756   2.650  11.063 -0.2482  0.2683 -0.5647
 8458TIP3    H146865   4.707   2.621  10.986 -0.9274  0.0212 -0.0583
 8458TIP3    H246866   4.691   2.650  11.133  0.6474 -0.7961  0.2957
 8459TIP3   OH246867   6.482   1.199   0.561 -0.4466  0.2885  0.5540
 8459TIP3    H146868   6.465   1.276   0.507 -1.0140  0.1496  0.5337
 8459TIP3    H246869   6.568   1.217   0.601  1.1738 -0.6568 -2.2253
 8460TIP3   OH246870   6.685   5.076  13.338 -0.2569 -0.0057 -0.1117
 8460TIP3    H146871   6.706   5.161  13.301  1.7001 -0.9785 -1.4168
 8460TIP3    H246872   6.596   5.057  13.307 -0.4738  1.2740 -0.3056
 8461TIP3   OH246873   4.680   1.668   2.739  0.2320  0.1580 -0.2305
 8461TIP3    H146874   4.769   1.703   2.733  0.2562  0.2821  0.7101
 8461TIP3    H246875   4.625   1.738   2.705  0.4078  0.5150  0.2099
 8462TIP3   OH246876   0.851   3.859  14.524 -0.3071  0.1509 -0.3560
 8462TIP3    H146877   0.936   3.894  14.496  0.0088 -0.3416 -0.0379
 8462TIP3    H246878   0.855   3.766  14.502 -0.6720  0.0777 -0.1189
 8463TIP3   OH246879   0.630   3.884  11.501  0.2625  0.4510 -0.7059
 8463TIP3    H146880   0.610   3.868  11.408  2.3151  2.3021 -1.5615
 8463TIP3    H246881   0.726   3.883  11.505  0.2150  0.3317  1.4574
 8464TIP3   OH246882   1.754   4.860  16.790  0.2143 -0.0467 -0.1387
 8464TIP3    H146883   1.675   4.915  16.787  0.6044  1.3286  5.1364
 8464TIP3    H246884   1.819   4.909  16.740 -1.0508  1.0711 -0.7707
 8465TIP3   OH246885   0.536   4.334   3.787  0.6871  0.2580 -0.3022
 8465TIP3    H146886   0.578   4.295   3.863  1.4372  1.1075 -0.2574
 8465TIP3    H246887   0.442   4.323   3.802  0.8560 -0.7404  0.1034
 8466TIP3   OH246888   6.208   5.049   5.007 -0.6190  0.5438 -0.0845
 8466TIP3    H146889   6.293   5.071   4.970 -0.5791  0.8833  0.2088
 8466TIP3    H246890   6.206   4.953   5.006 -0.3582  0.5392 -0.3711
 8467TIP3   OH246891   0.148   3.720   4.252 -0.3245  0.1003 -0.5129
 8467TIP3    H146892   0.228   3.762   4.283 -0.5736 -0.8574  1.5687
 8467TIP3    H246893   0.171   3.628   4.242 -0.8389  0.0359 -1.1685
 8468TIP3   OH246894   5.692   5.852   2.060  0.1482 -0.1902  0.0714
 8468TIP3    H146895   5.653   5.872   2.145 -1.0067 -0.4177 -0.3840
 8468TIP3    H246896   5.768   5.798   2.080 -0.6858 -1.0938  0.9169
 8469TIP3   OH246897   1.751   5.570  16.405  0.4137  0.2499  0.2973
 8469TIP3    H146898   1.803   5.650  16.406 -0.2341  0.6880 -0.0749
 8469TIP3    H246899   1.808   5.504  16.443  2.1100  0.1670 -2.1877
 8470TIP3   OH246900   3.344   6.353  14.455 -0.3883  0.2314  0.1025
 8470TIP3    H146901   3.392   6.287  14.405  0.0111 -0.3600  1.2368
 8470TIP3    H246902   3.252   6.327  14.446 -0.2084 -0.7081  0.8373
 8471TIP3   OH246903   3.862   0.005  11.237 -0.5914  0.0639 -0.4915
 8471TIP3    H146904   3.946  -0.033  11.211  0.2616  1.5493 -0.0527
 8471TIP3    H246905   3.821   0.032  11.155 -0.5934 -0.5618 -0.7006
 8472TIP3   OH246906   6.306   6.264   1.500 -0.0207  0.4881  0.5527
 8472TIP3    H146907   6.219   6.279   1.537 -0.3119  1.4232 -0.4209
 8472TIP3    H246908   6.333   6.351   1.468  0.5121 -0.1040 -0.6955
 8473TIP3   OH246909   4.442   4.338   0.564 -0.2153 -0.7765 -0.5106
 8473TIP3    H146910   4.535   4.339   0.587 -0.6316 -3.0666  1.7869
 8473TIP3    H246911   4.400   4.384   0.636 -0.8721  1.1644 -2.0458
 8474TIP3   OH246912   0.245   2.835  13.688 -0.6892  0.1335  0.1427
 8474TIP3    H146913   0.275   2.808  13.601  0.3990  0.0106  0.5425
 8474TIP3    H246914   0.223   2.927  13.678  0.6917  0.4797  0.0207
 8475TIP3   OH246915   4.379   3.403  11.212 -0.2630 -0.7257  0.4648
 8475TIP3    H146916   4.388   3.334  11.147 -1.9778 -0.5294 -0.0320
 8475TIP3    H246917   4.469   3.431  11.230  0.2953  0.3916 -3.1199
 8476TIP3   OH246918   2.965   0.407   5.028  0.3615 -0.2297 -0.0323
 8476TIP3    H146919   2.948   0.336   5.090 -2.0733 -0.1612 -0.5424
 8476TIP3    H246920   2.963   0.364   4.943 -2.0754  0.5344 -0.4126
 8477TIP3   OH246921   1.323   5.972  16.465 -0.0789  0.5158  0.0246
 8477TIP3    H146922   1.265   5.903  16.432  1.0459 -0.4978  0.0793
 8477TIP3    H246923   1.336   5.950  16.558  1.2711  0.0596 -0.2528
 8478TIP3   OH246924   4.229   6.316   1.913 -0.5725 -0.3835  0.2411
 8478TIP3    H146925   4.191   6.403   1.902 -1.0079 -0.2995  2.1864
 8478TIP3    H246926   4.307   6.330   1.967 -0.2194 -1.1190 -0.0598
 8479TIP3   OH246927   3.887   4.889  13.462 -0.5222 -0.6029  0.0775
 8479TIP3    H146928   3.829   4.816  13.482 -0.1114 -0.4815  1.7917
 8479TIP3    H246929   3.971   4.848  13.442 -0.5307 -0.6410  0.1208
 8480TIP3   OH246930   5.412   0.956   4.097 -0.2099 -0.9510 -0.1274
 8480TIP3    H146931   5.467   0.915   4.164 -0.2566  0.6120  0.9304
 8480TIP3    H246932   5.468   0.962   4.020  0.2539 -1.6594  0.1406
 8481TIP3   OH246933   6.757   1.688  13.741  0.3376  0.1463 -0.4987
 8481TIP3    H146934   6.669   1.652  13.749 -0.2303  1.3984 -0.8322
 8481TIP3    H246935   6.772   1.696  13.647  0.5532  0.5010 -0.4403
 8482TIP3   OH246936   4.374   5.308  12.113  0.4375 -0.8893  0.0590
 8482TIP3    H146937   4.424   5.252  12.054  1.1211  0.5359 -0.7806
 8482TIP3    H246938   4.343   5.380  12.057 -3.1636 -1.9998  0.3691
 8483TIP3   OH246939   3.158   5.474  16.510  0.1800 -0.8943 -0.2080
 8483TIP3    H146940   3.087   5.490  16.573  2.1604  0.7231  1.7878
 8483TIP3    H246941   3.222   5.422  16.559  0.3618 -2.4307 -1.9909
 8484TIP3   OH246942   2.986   4.497  16.550  0.4792  0.1423  0.1705
 8484TIP3    H146943   2.961   4.534  16.635  0.2740 -1.5442  0.8914
 8484TIP3    H246944   3.079   4.475  16.560  1.1917  2.2602 -0.9701
 8485TIP3   OH246945   5.345   2.836   2.444 -0.0450 -1.5369  0.0754
 8485TIP3    H146946   5.377   2.820   2.355  0.6868 -2.4100  0.4839
 8485TIP3    H246947   5.368   2.757   2.492  1.1613 -0.3929  1.4791
 8486TIP3   OH246948   1.261   5.198   6.694  0.2658 -0.2068  0.3568
 8486TIP3    H146949   1.287   5.288   6.714  0.6335  0.1968 -1.7095
 8486TIP3    H246950   1.271   5.151   6.777  2.0501  1.2130  1.0122
 8487TIP3   OH246951   2.035   6.147   3.818  0.4271 -0.5970  0.2688
 8487TIP3    H146952   2.024   6.234   3.779  2.2163 -0.5473 -0.1777
 8487TIP3    H246953   2.105   6.158   3.882 -0.0216 -1.4982  0.9416
 8488TIP3   OH246954   4.956   4.006  16.238  0.2065 -0.1728 -0.3247
 8488TIP3    H146955   4.950   3.964  16.152 -1.1341 -0.7143  0.0133
 8488TIP3    H246956   4.908   4.088  16.228 -0.0752 -0.3032 -0.0615
 8489TIP3   OH246957   5.529   5.261   2.206  0.2924 -0.5528  0.2117
 8489TIP3    H146958   5.435   5.249   2.217  0.4434  0.0787  2.8776
 8489TIP3    H246959   5.542   5.271   2.112 -2.2009 -1.3418 -0.2669
 8490TIP3   OH246960   0.202   0.275   1.775  0.0694 -0.2539 -0.5886
 8490TIP3    H146961   0.171   0.282   1.865  0.9434  0.6610 -0.3502
 8490TIP3    H246962   0.294   0.251   1.783  0.0064 -0.7473 -1.2580
 8491TIP3   OH246963   4.855   5.798   4.925  0.0099 -0.2599 -0.3825
 8491TIP3    H146964   4.835   5.789   4.832 -0.1420 -1.2265 -0.2637
 8491TIP3    H246965   4.891   5.887   4.933 -2.1918  0.7373 -0.9383
 8492TIP3   OH246966   4.770   4.065   3.443  0.1611 -0.6041 -0.5509
 8492TIP3    H146967   4.808   4.066   3.531 -2.3065 -0.8946  0.6195
 8492TIP3    H246968   4.841   4.037   3.386  2.2087  0.8749  1.1326
 8493TIP3   OH246969   6.021   5.766   6.735 -0.0015  0.0404  0.3173
 8493TIP3    H146970   5.978   5.847   6.706  0.7608  0.9426  1.6351
 8493TIP3    H246971   5.995   5.756   6.826  0.3879 -0.8831  0.3321
 8494TIP3   OH246972   6.683   5.302  16.211 -0.0589  0.1187 -0.5178
 8494TIP3    H146973   6.673   5.306  16.306 -1.0905  2.3368 -0.6549
 8494TIP3    H246974   6.686   5.209  16.191  0.7878 -0.4015  1.7298
 8495TIP3   OH246975   3.817   1.286  16.588 -0.2017 -0.1631 -0.0047
 8495TIP3    H146976   3.726   1.294  16.618  0.5485  0.2564  2.4051
 8495TIP3    H246977   3.827   1.193  16.568 -1.0957 -0.2546 -0.0755
 8496TIP3   OH246978   4.664   0.080  16.161  0.2156 -0.3924 -0.8673
 8496TIP3    H146979   4.584   0.110  16.204  1.8231  1.8784  0.7740
 8496TIP3    H246980   4.645  -0.011  16.137 -2.5513 -0.1972  0.1312
 8497TIP3   OH246981   0.297   1.693  14.494 -0.4091 -0.0327 -0.0169
 8497TIP3    H146982   0.262   1.779  14.468  0.1926  0.4866  0.8348
 8497TIP3    H246983   0.258   1.677  14.580  1.2184  0.4625  0.8604
 8498TIP3   OH246984   5.215   4.720   2.795 -0.2418 -0.2459 -0.5473
 8498TIP3    H146985   5.237   4.648   2.855 -0.3818 -1.2260 -1.6412
 8498TIP3    H246986   5.211   4.679   2.709 -0.1106  1.1306 -1.2323
 8499TIP3   OH246987   1.131   2.008   2.536 -0.2247  1.0541 -0.3257
 8499TIP3    H146988   1.107   2.015   2.443  1.3825  1.8619 -0.7145
 8499TIP3    H246989   1.090   2.083   2.577 -3.1817 -0.6851  0.2130
 8500TIP3   OH246990   1.878   6.614  14.345 -0.2912  0.0949  0.3173
 8500TIP3    H146991   1.973   6.607  14.355 -0.2233  2.9627  3.1845
 8500TIP3    H246992   1.864   6.701  14.307 -1.8054 -0.7408 -1.1661
 8501TIP3   OH246993   4.136   1.216  12.769  0.1839 -0.0171  0.4422
 8501TIP3    H146994   4.158   1.148  12.833  0.6651  0.4689  0.7969
 8501TIP3    H246995   4.054   1.186  12.729  0.9752 -1.3949 -0.2224
 8502TIP3   OH246996   6.119   1.723  15.375  0.0322 -0.6308  0.4794
 8502TIP3    H146997   6.083   1.767  15.453  1.8591 -0.3239  1.2124
 8502TIP3    H246998   6.101   1.630  15.389  0.6110 -0.6090  1.4345
 8503TIP3   OH246999   1.800   0.739  16.167  0.2297  0.2711 -0.2465
 8503TIP3    H147000   1.786   0.685  16.089  3.5662  0.8830 -1.4062
 8503TIP3    H247001   1.742   0.814  16.154  0.7248  0.3786 -2.2128
 8504TIP3   OH247002   1.849   2.857  10.790  0.3102  0.0502  0.1946
 8504TIP3    H147003   1.921   2.909  10.824  1.2936  0.7742 -2.6868
 8504TIP3    H247004   1.863   2.769  10.826  0.5660  0.9715  2.4350
 8505TIP3   OH247005   3.739   6.392  15.663 -0.3729  0.1908 -0.9057
 8505TIP3    H147006   3.819   6.428  15.700 -1.4409  0.4133  1.3444
 8505TIP3    H247007   3.672   6.456  15.684 -1.5733 -1.1308 -0.5451
 8506TIP3   OH247008   3.657   4.161   5.646 -0.0295  0.7233 -0.2035
 8506TIP3    H147009   3.606   4.237   5.617  0.4728  0.6257 -1.4210
 8506TIP3    H247010   3.732   4.159   5.587 -0.4357 -1.1630 -0.7274
 8507TIP3   OH247011   3.098   5.659   2.666  0.2251 -0.1674  0.1086
 8507TIP3    H147012   3.057   5.580   2.702 -1.7502  0.3347 -0.8995
 8507TIP3    H247013   3.061   5.731   2.718 -1.0642  0.3760 -1.4608
 8508TIP3   OH247014   1.806   1.265   0.674 -0.5574  0.2167 -0.1755
 8508TIP3    H147015   1.786   1.201   0.605  1.3640  0.3713 -0.9330
 8508TIP3    H247016   1.812   1.349   0.627  0.3291  0.3963  0.2424
 8509TIP3   OH247017   2.793   2.658  13.698  0.0032 -0.0164  0.0812
 8509TIP3    H147018   2.830   2.617  13.620  1.1236 -0.0212  0.6085
 8509TIP3    H247019   2.730   2.594  13.731  0.1888 -0.3976 -0.3002
 8510TIP3   OH247020   5.830   2.394  15.719 -0.1059  0.0466 -0.0902
 8510TIP3    H147021   5.745   2.383  15.678 -0.1886 -1.6986  0.4538
 8510TIP3    H247022   5.888   2.421  15.648 -0.5679 -1.4076 -1.0566
 8511TIP3   OH247023   2.284   1.047   0.450  0.3966 -0.6660 -0.2505
 8511TIP3    H147024   2.364   1.039   0.398  0.5898 -0.2502 -0.0251
 8511TIP3    H247025   2.313   1.036   0.541  0.6396  1.9118  0.0739
 8512TIP3   OH247026   3.132   1.129  13.488 -0.2911 -0.3222  0.3319
 8512TIP3    H147027   3.216   1.110  13.447 -1.4425  0.9419 -3.0320
 8512TIP3    H247028   3.150   1.202  13.548  1.1439 -0.6717  0.3561
 8513TIP3   OH247029   2.170   1.253   2.895 -0.6852  0.0734  0.4803
 8513TIP3    H147030   2.235   1.232   2.828 -0.2950  4.3231 -0.8252
 8513TIP3    H247031   2.096   1.288   2.845 -1.6034  0.6196  2.1650
 8514TIP3   OH247032   3.841   4.085   2.758  0.1584  1.0351  0.1171
 8514TIP3    H147033   3.885   4.004   2.730 -0.5376  0.7174 -0.0832
 8514TIP3    H247034   3.909   4.135   2.803  0.7863  0.6724 -0.4217
 8515TIP3   OH247035   5.020   5.487  11.671 -0.5542  0.1434  0.5282
 8515TIP3    H147036   5.044   5.515  11.759  2.9636 -0.0810 -0.2071
 8515TIP3    H247037   4.992   5.567  11.627 -0.0986  0.7034  1.2297
 8516TIP3   OH247038   4.332   5.374   4.236  0.0364  0.1551 -0.0900
 8516TIP3    H147039   4.393   5.365   4.310  1.6742  1.5799 -1.1874
 8516TIP3    H247040   4.329   5.468   4.219 -0.7316 -0.0985 -1.4908
 8517TIP3   OH247041   1.503   5.703   2.112 -0.4275  0.0785 -0.4075
 8517TIP3    H147042   1.568   5.639   2.085  1.2975  0.9864  1.3761
 8517TIP3    H247043   1.472   5.672   2.198  0.4253  1.5514  0.4851
 8518TIP3   OH247044   3.811   3.999  14.930  0.5002 -0.1252 -0.3116
 8518TIP3    H147045   3.753   4.073  14.914 -0.3023 -0.8967 -1.0796
 8518TIP3    H247046   3.887   4.016  14.875  0.1808 -0.0172 -0.7270
 8519TIP3   OH247047   3.644   3.812  14.460 -0.4728 -0.2591 -0.3761
 8519TIP3    H147048   3.570   3.824  14.520 -1.0672 -1.4478 -0.8412
 8519TIP3    H247049   3.651   3.896  14.414 -1.5802 -0.1355 -0.3573
 8520TIP3   OH247050   1.506   5.444  15.894 -0.3532  0.1186 -0.0435
 8520TIP3    H147051   1.561   5.505  15.943 -0.5524 -0.6291  1.1519
 8520TIP3    H247052   1.531   5.457  15.803  1.0890  0.4924  0.3794
 8521TIP3   OH247053   1.420   5.853   5.279 -0.0861 -0.2033 -0.2557
 8521TIP3    H147054   1.348   5.914   5.260  0.4420  0.6854  0.4904
 8521TIP3    H247055   1.472   5.898   5.346  1.1268 -0.8584 -0.7269
 8522TIP3   OH247056   5.494   6.071  12.430  0.1003  0.6137 -0.3027
 8522TIP3    H147057   5.417   6.032  12.472 -0.7430  0.0372 -2.2754
 8522TIP3    H247058   5.546   6.105  12.503 -1.5831  0.2413  1.1467
 8523TIP3   OH247059   4.158   5.951   1.951 -0.8529  0.3593  0.1480
 8523TIP3    H147060   4.103   6.010   1.900  0.5355 -0.2296 -2.2237
 8523TIP3    H247061   4.153   5.868   1.904  2.5307  0.4644 -0.6491
 8524TIP3   OH247062   5.769   1.419  17.373  0.2091 -0.0304  0.3766
 8524TIP3    H147063   5.864   1.414  17.365  0.1603  1.5085 -2.0949
 8524TIP3    H247064   5.752   1.508  17.403 -0.4658 -0.4215  1.1973
 8525TIP3   OH247065   1.748   3.966   4.609 -0.7668 -0.3470 -0.2324
 8525TIP3    H147066   1.658   3.934   4.595 -1.7354  1.8400  0.6381
 8525TIP3    H247067   1.786   3.967   4.521 -2.2881  0.5821 -0.9331
 8526TIP3   OH247068   6.201   6.324  15.272 -0.2811  0.0044  0.3610
 8526TIP3    H147069   6.144   6.376  15.216 -0.1144  0.0617  0.2409
 8526TIP3    H247070   6.270   6.293  15.213 -1.2775 -1.7648  0.0705
 8527TIP3   OH247071   2.577   2.052  13.295  0.1045 -0.0510  0.7556
 8527TIP3    H147072   2.656   2.031  13.246 -0.6613  0.4672 -0.7343
 8527TIP3    H247073   2.539   1.966  13.316 -0.4712 -0.3039 -1.1236
 8528TIP3   OH247074   5.221   2.350  11.658 -0.1888 -0.4667 -0.2323
 8528TIP3    H147075   5.157   2.378  11.592  0.6662  0.1169 -0.8445
 8528TIP3    H247076   5.286   2.421  11.660  1.3742 -1.7968 -0.9223
 8529TIP3   OH247077   2.276   3.983  15.207 -0.4905  0.1035 -0.1558
 8529TIP3    H147078   2.295   3.906  15.262 -0.6484 -1.6186 -2.3668
 8529TIP3    H247079   2.355   4.036  15.211  1.1542 -2.0894 -1.5191
 8530TIP3   OH247080   5.058   1.046   3.844 -0.3230 -0.2521  0.3595
 8530TIP3    H147081   5.083   1.080   3.758  1.0228  1.3196  1.3147
 8530TIP3    H247082   5.100   0.960   3.849  1.8667  0.7509  0.4224
 8531TIP3   OH247083   1.272   2.619   3.033  0.3466 -0.0168  0.0852
 8531TIP3    H147084   1.329   2.694   3.018  1.6649 -1.3973 -2.6334
 8531TIP3    H247085   1.186   2.649   3.004  0.4616  0.9606  0.7051
 8532TIP3   OH247086   3.526   3.405  14.451  0.3184  0.1759 -0.0025
 8532TIP3    H147087   3.500   3.465  14.521  1.3444  0.9144 -0.2343
 8532TIP3    H247088   3.605   3.445  14.413  0.4165 -0.7853 -0.8482
 8533TIP3   OH247089   2.886   2.575   0.501  0.0056  0.6164  0.2585
 8533TIP3    H147090   2.812   2.515   0.503 -0.0054  0.6482  1.2872
 8533TIP3    H247091   2.962   2.519   0.489 -0.1154  0.5072  0.0052
 8534TIP3   OH247092   6.469   1.033   1.051 -0.1184  0.2509  0.5802
 8534TIP3    H147093   6.530   0.970   1.013  1.1114  2.2117 -0.8933
 8534TIP3    H247094   6.383   0.999   1.029  0.5303 -0.2855 -1.3301
 8535TIP3   OH247095   1.807   0.397  11.668  0.5478  0.2017  0.0566
 8535TIP3    H147096   1.750   0.441  11.605  0.8166  1.1951  0.4775
 8535TIP3    H247097   1.818   0.309  11.633 -1.4085 -0.1009  0.0707
 8536TIP3   OH247098   5.740   0.386  11.841 -0.2401  0.0448 -0.0149
 8536TIP3    H147099   5.700   0.430  11.766  0.7625 -1.2497 -1.3716
 8536TIP3    H247100   5.834   0.390  11.824  0.0678  0.3898  1.5849
 8537TIP3   OH247101   6.724   3.349   1.282 -0.5414  0.7430 -0.6219
 8537TIP3    H147102   6.683   3.435   1.286 -0.4563  0.9417 -2.8600
 8537TIP3    H247103   6.764   3.337   1.368 -0.4494  2.9915 -0.3135
 8538TIP3   OH247104   5.415   6.670  14.704 -0.2431 -0.3220 -0.1321
 8538TIP3    H147105   5.341   6.692  14.647  0.6650  0.9878 -0.8540
 8538TIP3    H247106   5.492   6.675  14.648  1.0416  3.5702  1.5805
 8539TIP3   OH247107   1.339   3.449   3.942  0.8791 -0.0135 -0.2506
 8539TIP3    H147108   1.313   3.521   3.885  0.1305 -0.8083 -0.9449
 8539TIP3    H247109   1.345   3.373   3.884  1.2046 -0.6059  0.5376
 8540TIP3   OH247110   1.606   3.865  13.625 -0.2849  0.2001 -0.1936
 8540TIP3    H147111   1.671   3.805  13.661  0.2147  1.0934  0.4267
 8540TIP3    H247112   1.586   3.925  13.697 -0.7362  0.8019 -0.8068
 8541TIP3   OH247113   1.724   3.104   4.623  0.1096  0.7793  0.0147
 8541TIP3    H147114   1.732   3.022   4.575 -0.2331  0.7833 -0.0516
 8541TIP3    H247115   1.788   3.098   4.693 -1.1363 -0.3094  1.1150
 8542TIP3   OH247116   0.069   0.366   1.548  0.2687  0.6173 -0.1295
 8542TIP3    H147117   0.017   0.438   1.584 -0.6964 -0.6817  1.2009
 8542TIP3    H247118   0.104   0.320   1.625 -0.1368 -1.0249 -0.8699
 8543TIP3   OH247119   0.224   4.914  15.484 -0.5875  0.5265  0.0823
 8543TIP3    H147120   0.163   4.840  15.479 -0.8238  0.5309  2.0953
 8543TIP3    H247121   0.198   4.972  15.413 -1.4667 -0.5543 -0.4990
 8544TIP3   OH247122   2.528   3.239  11.317  0.0676  0.9783 -0.3401
 8544TIP3    H147123   2.539   3.242  11.222 -3.8708  1.7388 -0.9540
 8544TIP3    H247124   2.548   3.328  11.346  0.0793  1.0779 -0.6451
 8545TIP3   OH247125   0.849   4.069  10.756 -0.1339  0.0938 -0.4533
 8545TIP3    H147126   0.908   4.027  10.819  0.6571 -0.3898 -1.4803
 8545TIP3    H247127   0.840   4.005  10.686 -1.9564  0.1402 -0.3053
 8546TIP3   OH247128   3.729   0.799  16.530 -0.0024  0.2843  0.0361
 8546TIP3    H147129   3.672   0.826  16.459 -0.5648  0.0385  0.3887
 8546TIP3    H247130   3.769   0.718  16.499  0.3525  0.5871 -0.3117
 8547TIP3   OH247131   0.962   3.245  10.327 -0.4186  0.3091  0.1628
 8547TIP3    H147132   1.054   3.255  10.306  0.2587 -0.9560  2.2454
 8547TIP3    H247133   0.956   3.271  10.420 -1.8955 -0.8600  0.4294
 8548TIP3   OH247134   5.560   1.082   6.848  0.2796  0.3174  0.0567
 8548TIP3    H147135   5.497   1.042   6.788 -1.0134  1.3662  0.6511
 8548TIP3    H247136   5.646   1.064   6.810 -0.5105  2.0026 -2.7912
 8549TIP3   OH247137   4.773   0.718   2.294  0.2166 -0.3096  0.1742
 8549TIP3    H147138   4.849   0.777   2.286  0.6621 -0.8887  0.0476
 8549TIP3    H247139   4.698   0.774   2.276  0.5272  0.5073  1.2827
 8550TIP3   OH247140   2.158   1.541   6.084  0.2534  0.2870 -0.3883
 8550TIP3    H147141   2.227   1.574   6.027 -0.2870 -0.6476 -1.6122
 8550TIP3    H247142   2.077   1.580   6.050 -0.0722 -0.2468 -0.2294
 8551TIP3   OH247143   0.941   6.137   3.690  0.0655  0.0084  0.0561
 8551TIP3    H147144   0.918   6.044   3.681 -0.4867  0.3450 -3.0925
 8551TIP3    H247145   0.989   6.158   3.610  0.9777  2.2571  1.1139
 8552TIP3   OH247146   3.357   5.700   0.876 -0.2305 -0.3065 -0.0408
 8552TIP3    H147147   3.374   5.616   0.917 -1.3006  0.0185  1.1252
 8552TIP3    H247148   3.297   5.680   0.804 -1.9505 -0.3657  1.3432
 8553TIP3   OH247149   0.861   4.703  12.794 -0.1995  0.9187 -0.5374
 8553TIP3    H147150   0.907   4.642  12.851  1.3052  2.7256  0.2943
 8553TIP3    H247151   0.772   4.706  12.829 -0.7142 -1.6943 -1.4019
 8554TIP3   OH247152   0.239   6.645   0.449  0.2119  0.5712  0.0721
 8554TIP3    H147153   0.155   6.606   0.473  0.4829  0.1390  0.3328
 8554TIP3    H247154   0.262   6.700   0.524 -0.0624  1.0662 -0.2007
 8555TIP3   OH247155   4.408   1.697  12.482  0.2989  0.1648  0.3561
 8555TIP3    H147156   4.364   1.781  12.496 -1.9471 -0.8930  0.1471
 8555TIP3    H247157   4.393   1.648  12.563  1.0902 -0.2689  0.2565
 8556TIP3   OH247158   2.391   2.054   5.374  0.1030  0.5153  0.6878
 8556TIP3    H147159   2.450   2.060   5.449  2.4098  2.9829 -1.1277
 8556TIP3    H247160   2.346   2.139   5.372  0.3521  0.6466 -0.8798
 8557TIP3   OH247161   1.425   5.417  12.945  0.0899 -0.0779  0.4159
 8557TIP3    H147162   1.455   5.489  12.890 -2.6881  0.2184 -0.8829
 8557TIP3    H247163   1.393   5.351  12.884  0.9116 -1.6747  1.6264
 8558TIP3   OH247164   6.536   1.402   1.984  0.0764 -0.2151 -0.3534
 8558TIP3    H147165   6.478   1.463   2.029 -0.3299 -1.6777  1.2373
 8558TIP3    H247166   6.585   1.455   1.922 -1.5069  1.4049 -0.2874
 8559TIP3   OH247167   1.838   3.295   4.115 -0.0504  0.4514  0.7523
 8559TIP3    H147168   1.759   3.242   4.127  0.4293 -0.7227 -0.8827
 8559TIP3    H247169   1.809   3.385   4.132 -1.4953 -0.0492  1.1187
 8560TIP3   OH247170   2.506   2.187  15.565 -0.2480 -0.2088 -0.3794
 8560TIP3    H147171   2.443   2.249  15.527 -0.2625 -0.8142 -1.3887
 8560TIP3    H247172   2.480   2.179  15.656 -0.1402  1.3967 -0.1695
 8561TIP3   OH247173   2.021   4.299  12.162  0.3597 -0.4676  0.7394
 8561TIP3    H147174   2.078   4.240  12.211  1.0691  0.3861  0.9618
 8561TIP3    H247175   2.048   4.387  12.189 -3.3121  0.0526  3.5565
 8562TIP3   OH247176   2.291   6.741  11.410  0.3287 -0.1360  0.6062
 8562TIP3    H147177   2.351   6.717  11.481  0.2425  0.4755  0.8925
 8562TIP3    H247178   2.246   6.660  11.388  2.0754 -0.8903 -0.4147
 8563TIP3   OH247179   4.913   3.653   6.038  0.1599 -0.0765  0.2371
 8563TIP3    H147180   4.853   3.637   6.111  0.2324 -1.4701  0.0138
 8563TIP3    H247181   4.944   3.742   6.052  0.2557 -0.3498  1.9651
 8564TIP3   OH247182   2.779   5.068  11.543 -0.1494 -0.2139  0.1101
 8564TIP3    H147183   2.851   5.126  11.517  0.1373 -0.1129  1.0791
 8564TIP3    H247184   2.706   5.094  11.487  0.2529  0.4371 -0.1242
 8565TIP3   OH247185   1.005   4.086  13.635 -0.2820 -0.2922  0.4810
 8565TIP3    H147186   1.007   4.093  13.730 -1.9105 -1.1236  0.6028
 8565TIP3    H247187   1.073   4.023  13.614 -0.8668 -1.1992  1.2333
 8566TIP3   OH247188   4.797   3.280  14.671  0.3723  0.2952 -0.3895
 8566TIP3    H147189   4.848   3.347  14.716  1.3404 -0.8507  0.2669
 8566TIP3    H247190   4.832   3.197  14.704  0.3381 -0.5757 -2.4219
 8567TIP3   OH247191   4.304   3.564   1.968  0.2066 -0.0252 -0.2186
 8567TIP3    H147192   4.252   3.528   2.040 -0.5574  0.2582 -0.6127
 8567TIP3    H247193   4.366   3.495   1.946  0.4933 -0.0900  0.7528
 8568TIP3   OH247194   1.083   2.962  17.022 -0.0271 -0.6015 -0.0946
 8568TIP3    H147195   1.024   3.037  17.016 -0.8346 -1.3290 -1.7114
 8568TIP3    H247196   1.046   2.908  17.092 -0.3198 -0.2588  0.0193
 8569TIP3   OH247197   4.929   5.770  11.618 -0.1132 -0.2013  0.2785
 8569TIP3    H147198   5.021   5.766  11.644  0.7101 -2.8317 -2.4734
 8569TIP3    H247199   4.916   5.860  11.587  1.2287  0.4546  1.5316
 8570TIP3   OH247200   3.083   2.570  10.505  0.8542 -0.3172 -0.1884
 8570TIP3    H147201   3.157   2.601  10.557 -0.1146  1.7974  0.0338
 8570TIP3    H247202   3.017   2.544  10.570  0.3055  0.6469 -0.3427
 8571TIP3   OH247203   0.282   2.677   1.080 -0.1324 -0.0299  0.0040
 8571TIP3    H147204   0.197   2.708   1.048 -0.2654 -0.0476  0.3450
 8571TIP3    H247205   0.299   2.728   1.158  0.0220 -0.2506  0.1167
 8572TIP3   OH247206   2.762   1.021  16.273 -0.3931 -0.2475  0.0424
 8572TIP3    H147207   2.729   1.054  16.189 -1.1827  0.0357  0.4479
 8572TIP3    H247208   2.696   1.049  16.337  0.0579 -0.6982  0.7181
 8573TIP3   OH247209   0.891   3.949   4.058 -0.0292 -0.1144 -0.1073
 8573TIP3    H147210   0.956   3.878   4.066 -0.8400 -1.0764 -1.5677
 8573TIP3    H247211   0.816   3.918   4.109 -0.1171  0.0111 -0.1606
 8574TIP3   OH247212   2.929   4.851   4.441 -0.3390  0.1017  0.1613
 8574TIP3    H147213   2.867   4.812   4.503  1.0629 -0.1039  1.5006
 8574TIP3    H247214   2.908   4.944   4.442 -0.2724  0.1215  1.0619
 8575TIP3   OH247215   1.235   2.570  15.524  0.2818 -0.1840  0.3951
 8575TIP3    H147216   1.246   2.538  15.434 -0.7550  1.5581 -0.4091
 8575TIP3    H247217   1.177   2.506  15.565 -0.8422 -0.0006 -0.8133
 8576TIP3   OH247218   3.927   0.495  17.421 -0.2728 -0.2675 -0.0622
 8576TIP3    H147219   3.901   0.416  17.376 -0.7618 -0.3933  0.4193
 8576TIP3    H247220   3.871   0.498  17.499 -0.1651  0.4713  0.0018
 8577TIP3   OH247221   6.020   5.107  12.048 -0.2021  0.8639 -0.1716
 8577TIP3    H147222   6.023   5.052  11.969 -0.8966  0.1170  0.3030
 8577TIP3    H247223   6.011   5.044  12.120  0.1589  1.5513  0.4836
 8578TIP3   OH247224   4.957   0.161  13.402 -0.4193 -0.3386  0.0947
 8578TIP3    H147225   5.019   0.188  13.470  1.6764 -1.1829 -1.3769
 8578TIP3    H247226   4.922   0.078  13.432 -1.6744  0.6160  1.4088
 8579TIP3   OH247227   2.666   6.278  12.149 -0.5030 -0.1749  0.2076
 8579TIP3    H147228   2.734   6.331  12.191  0.9239 -2.6826  1.2593
 8579TIP3    H247229   2.715   6.217  12.094 -2.0281 -0.9253 -0.3472
 8580TIP3   OH247230   1.478   5.027  12.589  0.7784 -0.8357  0.4263
 8580TIP3    H147231   1.544   5.059  12.527  2.8448  0.3770  3.0585
 8580TIP3    H247232   1.510   4.942  12.618 -0.4029 -1.6013 -0.4116
 8581TIP3   OH247233   1.579   6.640   3.472 -0.0557  0.3995  0.0546
 8581TIP3    H147234   1.581   6.736   3.466  0.8247  0.4665  1.1442
 8581TIP3    H247235   1.547   6.622   3.560 -2.4028 -0.3692 -0.8758
 8582TIP3   OH247236   0.138   2.634   2.316  0.1634 -0.1298  0.5486
 8582TIP3    H147237   0.121   2.661   2.226  3.1445  0.6619  0.1087
 8582TIP3    H247238   0.062   2.582   2.340 -1.5504  1.1120 -1.7871
 8583TIP3   OH247239   6.020   2.129   4.819  0.3235  0.0101 -0.5454
 8583TIP3    H147240   5.943   2.074   4.812 -0.1702  0.5403  0.5501
 8583TIP3    H247241   6.082   2.092   4.755 -1.8572  1.3290 -3.6922
 8584TIP3   OH247242   0.294   3.646  16.784  0.1215  0.5532 -0.0497
 8584TIP3    H147243   0.358   3.689  16.840 -0.6248  0.6819  0.7270
 8584TIP3    H247244   0.333   3.647  16.696  0.6329  1.7287  0.1832
 8585TIP3   OH247245   5.281   1.917   2.410  0.3381  0.2772  0.5557
 8585TIP3    H147246   5.228   1.932   2.488 -0.7873 -1.5060  0.2040
 8585TIP3    H247247   5.298   1.822   2.411 -0.0881  0.1381 -1.5821
 8586TIP3   OH247248   4.920   0.740   1.683 -0.3353 -0.0324  0.0306
 8586TIP3    H147249   5.014   0.732   1.697 -0.1339  1.8440  0.0125
 8586TIP3    H247250   4.904   0.698   1.599  0.1524 -2.0006  0.8576
 8587TIP3   OH247251   4.898   1.368  12.076 -0.0778  0.2044  0.2281
 8587TIP3    H147252   4.849   1.332  12.149 -1.0687  1.6140  0.2918
 8587TIP3    H247253   4.853   1.334  11.998  0.0981 -0.1324  0.2709
 8588TIP3   OH247254   1.342   4.618   5.783 -0.2403  0.1016 -0.5468
 8588TIP3    H147255   1.308   4.681   5.846 -0.9902  0.0525 -0.8912
 8588TIP3    H247256   1.393   4.557   5.835  0.3547  0.8823 -0.1827
 8589TIP3   OH247257   3.179   3.973  12.599 -0.3793  0.1597 -0.1950
 8589TIP3    H147258   3.230   4.039  12.646  0.4218  0.1682 -1.0512
 8589TIP3    H247259   3.088   3.995  12.619 -0.0696 -0.2419  1.8787
 8590TIP3   OH247260   5.855   4.728   0.052  0.5556 -0.2356  0.6973
 8590TIP3    H147261   5.808   4.747  -0.030  0.4484 -0.2557  0.7530
 8590TIP3    H247262   5.787   4.695   0.110  0.4958  0.4404  1.0223
 8591TIP3   OH247263   4.782   0.996   6.258 -0.4988  0.2034  0.5465
 8591TIP3    H147264   4.746   0.908   6.241  2.2769 -0.7543 -0.8805
 8591TIP3    H247265   4.743   1.021   6.342 -0.5717 -2.8751  1.5745
 8592TIP3   OH247266   1.797   3.331   3.788  0.4584 -0.0114 -0.6119
 8592TIP3    H147267   1.711   3.330   3.746 -0.5888  0.2518  1.4252
 8592TIP3    H247268   1.819   3.238   3.800  0.1499 -0.0757 -0.5431
 8593TIP3   OH247269   4.125   1.707  12.634  0.0537  0.5067  0.1085
 8593TIP3    H147270   4.113   1.616  12.607  0.3885  0.8689 -1.3420
 8593TIP3    H247271   4.093   1.759  12.560 -3.0842  1.6757  2.0952
 8594TIP3   OH247272   2.995   1.329  15.273 -0.3289  0.1994  0.4930
 8594TIP3    H147273   3.073   1.318  15.218 -0.1234 -0.1614  0.8548
 8594TIP3    H247274   3.028   1.331  15.362 -0.6117  1.2732  0.5966
 8595TIP3   OH247275   1.179   0.211   0.370  0.4539  0.2327  0.1458
 8595TIP3    H147276   1.267   0.246   0.360 -0.5117  2.3460 -1.9816
 8595TIP3    H247277   1.122   0.287   0.364 -1.5637 -1.1425  0.8180
 8596TIP3   OH247278   2.223   5.373   1.001  0.3274  0.0294  0.2940
 8596TIP3    H147279   2.139   5.332   1.023  1.0319 -0.9793  1.2175
 8596TIP3    H247280   2.212   5.405   0.912 -0.5340 -1.4918 -0.1757
 8597TIP3   OH247281   4.033   5.263  14.581 -0.4614 -0.3010 -0.0215
 8597TIP3    H147282   4.004   5.204  14.650  0.5652 -0.5684  0.2004
 8597TIP3    H247283   3.961   5.325  14.570 -0.2661  0.3749  1.9961
 8598TIP3   OH247284   2.515   6.633   3.536 -0.1849  0.3353 -0.3093
 8598TIP3    H147285   2.447   6.683   3.580  0.9907  0.9277  0.9007
 8598TIP3    H247286   2.489   6.541   3.548 -0.5289  0.5367  0.5417
 8599TIP3   OH247287   2.110   6.733  12.417 -0.0619  0.2905  0.5445
 8599TIP3    H147288   2.064   6.736  12.501 -2.1822 -0.4193 -0.5187
 8599TIP3    H247289   2.092   6.817  12.376  1.1503  0.7231  0.8441
 8600TIP3   OH247290   3.344   5.704   2.514  0.0891 -0.1560 -0.3206
 8600TIP3    H147291   3.256   5.727   2.544  0.6593 -0.1557  1.4567
 8600TIP3    H247292   3.391   5.787   2.512  0.8298 -0.4788  1.5636
 8601TIP3   OH247293   1.998   4.454   1.564 -0.2300  0.0128  0.0614
 8601TIP3    H147294   1.949   4.372   1.576 -0.3420  0.1475  0.5455
 8601TIP3    H247295   2.000   4.494   1.651 -1.2064  1.1043 -0.3888
 8602TIP3   OH247296   3.213   6.558   1.581 -0.1090 -0.4784 -0.2151
 8602TIP3    H147297   3.153   6.495   1.542 -0.0732 -0.6131 -0.0523
 8602TIP3    H247298   3.261   6.595   1.506  1.0556 -1.8480 -0.1951
 8603TIP3   OH247299   1.023   6.084   1.387  0.3964 -0.0838 -0.6272
 8603TIP3    H147300   1.046   6.177   1.388  0.5448 -0.1167 -0.9947
 8603TIP3    H247301   0.927   6.084   1.383  0.1799  0.0659  2.2559
 8604TIP3   OH247302   3.411   1.426  13.247  0.6331  0.0373  0.1892
 8604TIP3    H147303   3.362   1.391  13.172  3.1803 -2.3611 -0.5304
 8604TIP3    H247304   3.442   1.512  13.217  1.3711 -0.7576 -1.4949
 8605TIP3   OH247305   3.340   2.756  14.613 -0.1481  0.3449 -0.4172
 8605TIP3    H147306   3.320   2.842  14.651  0.1059 -0.7203  2.3347
 8605TIP3    H247307   3.424   2.732  14.651  0.1485 -0.8512 -1.7239
 8606TIP3   OH247308   4.318   1.157  12.074  0.2919 -0.6914  0.1643
 8606TIP3    H147309   4.398   1.105  12.064  2.0618  1.8459  0.2911
 8606TIP3    H247310   4.290   1.175  11.985  0.7251 -0.3587  0.0926
 8607TIP3   OH247311   6.228   1.448  12.386 -0.1686 -0.7457 -0.0808
 8607TIP3    H147312   6.313   1.407  12.398 -0.7433 -2.1126 -0.4850
 8607TIP3    H247313   6.234   1.531  12.433  1.3520 -0.8581 -0.0506
 8608TIP3   OH247314   4.840   0.650   3.482 -0.8427 -0.6161  0.1817
 8608TIP3    H147315   4.760   0.676   3.435 -0.8017 -2.0351 -0.7208
 8608TIP3    H247316   4.897   0.726   3.476 -1.3452 -0.3064 -0.9627
 8609TIP3   OH247317   1.173   0.417  15.595  0.4855  0.0803 -0.0811
 8609TIP3    H147318   1.134   0.446  15.678  1.1601  1.1442 -0.1264
 8609TIP3    H247319   1.266   0.408  15.615  0.5625 -0.2582 -0.5753
 8610TIP3   OH247320   4.380   2.179   3.666 -0.6157  0.2210 -0.3757
 8610TIP3    H147321   4.446   2.220   3.723 -1.2071 -2.0912  2.1298
 8610TIP3    H247322   4.297   2.219   3.694 -0.7832 -0.1295 -0.3752
 8611TIP3   OH247323   2.414   4.332  14.577 -0.4456 -0.1228 -0.3878
 8611TIP3    H147324   2.392   4.422  14.554  0.0522 -0.2252 -1.2945
 8611TIP3    H247325   2.338   4.301  14.626 -1.4085  0.2221 -1.5945
 8612TIP3   OH247326   1.522   4.040   5.591 -0.0824  0.0449 -0.0421
 8612TIP3    H147327   1.599   4.022   5.537  0.6729 -1.3066  1.3860
 8612TIP3    H247328   1.465   3.965   5.578 -0.0720 -0.1029  0.6773
 8613TIP3   OH247329   0.896   6.367  11.395  0.1538 -0.1125  0.0819
 8613TIP3    H147330   0.825   6.306  11.371 -0.5508  1.0714 -0.9890
 8613TIP3    H247331   0.961   6.356  11.325 -0.7240  1.4843 -1.0573
 8614TIP3   OH247332   4.277   1.065  16.769 -0.1006 -1.0327 -0.4254
 8614TIP3    H147333   4.194   1.100  16.737  0.7813  0.6631 -1.0034
 8614TIP3    H247334   4.311   1.012  16.697 -1.0164 -2.3939  0.1080
 8615TIP3   OH247335   0.416   6.677   5.083  0.1716  0.3298 -0.1354
 8615TIP3    H147336   0.367   6.747   5.040 -0.8346  1.1222  2.1150
 8615TIP3    H247337   0.370   6.596   5.059  0.0453  0.6664 -1.0491
 8616TIP3   OH247338   3.416   6.023  15.958  0.4792 -0.0270 -0.2486
 8616TIP3    H147339   3.340   5.980  15.997 -0.1980  1.3296 -0.0149
 8616TIP3    H247340   3.467   5.952  15.920 -0.4473 -1.0546  0.3801
 8617TIP3   OH247341   0.494   4.224   4.504 -0.0153  0.2373  0.3815
 8617TIP3    H147342   0.507   4.276   4.425 -1.1309  0.5071  0.3666
 8617TIP3    H247343   0.528   4.279   4.575 -2.5302  1.7034  0.5697
 8618TIP3   OH247344   1.288   2.311   0.881 -0.5302 -0.5141 -0.5541
 8618TIP3    H147345   1.308   2.241   0.819  1.0160  0.1490 -0.8575
 8618TIP3    H247346   1.369   2.322   0.931 -0.0912  2.2107 -1.6869
 8619TIP3   OH247347   2.790   1.388  13.670  0.3268  0.0484 -0.1559
 8619TIP3    H147348   2.846   1.420  13.599  0.1106 -1.1197 -0.8892
 8619TIP3    H247349   2.744   1.466  13.702  2.8375  1.2035  0.9602
 8620TIP3   OH247350   5.178   4.483   5.925 -0.0346  0.4848  0.5667
 8620TIP3    H147351   5.199   4.522   5.840 -0.9603 -0.6595 -0.2275
 8620TIP3    H247352   5.083   4.491   5.933  0.2203  2.3228  2.4265
 8621TIP3   OH247353   3.679   0.462  13.495 -0.2555  0.5307 -0.3324
 8621TIP3    H147354   3.587   0.437  13.503  0.0992 -0.2899  2.8700
 8621TIP3    H247355   3.680   0.557  13.506 -0.7218  0.4838  0.1559
 8622TIP3   OH247356   6.544   0.092   2.069  0.0856  0.0480  0.4003
 8622TIP3    H147357   6.612   0.127   2.126  0.0251  0.0378  0.4786
 8622TIP3    H247358   6.466   0.144   2.089 -0.6869 -1.6998  2.3038
 8623TIP3   OH247359   4.506   4.313   3.352 -0.7768  0.1548  0.6291
 8623TIP3    H147360   4.507   4.390   3.295 -1.2907  2.1335  3.1123
 8623TIP3    H247361   4.599   4.297   3.371 -0.5693 -0.7479 -0.9186
 8624TIP3   OH247362   0.177   2.683   4.058  0.1685  0.5411  0.4073
 8624TIP3    H147363   0.192   2.620   4.128  0.4566  2.1521  1.8461
 8624TIP3    H247364   0.119   2.749   4.097 -0.0977  1.2052 -1.0405
 8625TIP3   OH247365   2.229   3.139   5.311 -0.3236  0.1954 -0.2914
 8625TIP3    H147366   2.208   3.078   5.382  0.5845 -1.6561 -1.5301
 8625TIP3    H247367   2.287   3.204   5.351 -1.1041  0.1287  1.0067
 8626TIP3   OH247368   5.950   4.961   4.627  0.1240 -0.2604 -0.1366
 8626TIP3    H147369   5.978   5.027   4.563 -2.4398 -0.1231 -1.2642
 8626TIP3    H247370   5.932   5.011   4.707 -0.2646  0.1974 -0.5015
 8627TIP3   OH247371   6.548   1.693  11.957  0.0613 -0.7445 -0.1127
 8627TIP3    H147372   6.456   1.685  11.936 -0.0152  0.6628 -0.4088
 8627TIP3    H247373   6.590   1.722  11.876  0.8530 -1.7871 -0.1070
 8628TIP3   OH247374   0.307   1.502  14.828 -0.0358 -0.4562  0.5117
 8628TIP3    H147375   0.221   1.543  14.815  1.2096  2.6808  1.3165
 8628TIP3    H247376   0.340   1.540  14.909  2.7348 -0.3704 -0.5479
 8629TIP3   OH247377   2.795   6.022   0.492  0.0519 -0.2055  0.9835
 8629TIP3    H147378   2.781   6.109   0.455  0.6512 -0.5786 -0.1897
 8629TIP3    H247379   2.721   5.970   0.460  0.7403 -0.6102  0.0089
 8630TIP3   OH247380   5.257   2.614  13.240 -0.9747 -0.3401  0.2179
 8630TIP3    H147381   5.209   2.533  13.223 -1.0023 -0.1800 -0.4555
 8630TIP3    H247382   5.210   2.655  13.313 -0.4018 -1.3924  1.2295
 8631TIP3   OH247383   2.852   2.665   2.007 -0.3604  0.4837 -0.3663
 8631TIP3    H147384   2.777   2.626   2.050 -0.4461 -0.2776 -1.1775
 8631TIP3    H247385   2.837   2.759   2.013 -1.6481  0.3323 -0.9772
 8632TIP3   OH247386   4.008   2.581  17.318  0.0786  0.1861 -0.4500
 8632TIP3    H147387   3.934   2.530  17.286 -0.6069 -0.1441  1.4927
 8632TIP3    H247388   3.977   2.672  17.317  0.3417  0.2661 -1.4297
 8633TIP3   OH247389   2.590   4.092  15.226 -0.0305  0.0287 -0.1800
 8633TIP3    H147390   2.570   4.156  15.158  2.2486  0.3919 -0.5899
 8633TIP3    H247391   2.554   4.129  15.306 -0.2269  0.9986 -0.7064
 8634TIP3   OH247392   2.097   5.953  11.530 -0.2038 -0.0398  0.2315
 8634TIP3    H147393   2.108   5.866  11.567 -2.2986 -0.3715  0.2340
 8634TIP3    H247394   2.128   5.946  11.439 -0.3256 -0.7891  0.2462
 8635TIP3   OH247395   4.027   3.621  15.783  0.0406  0.0930 -0.0397
 8635TIP3    H147396   4.073   3.649  15.704 -0.6710 -0.4192 -0.6583
 8635TIP3    H247397   3.939   3.597  15.751 -0.9615  1.8588  1.2099
 8636TIP3   OH247398   0.001   0.621   1.708 -0.4180  0.1480 -0.1602
 8636TIP3    H147399  -0.052   0.683   1.758  0.4185  1.8776 -1.3056
 8636TIP3    H247400   0.049   0.676   1.645  1.5433 -1.4802 -0.1998
 8637TIP3   OH247401   0.405   0.672  15.421 -0.3153  0.0278  0.2065
 8637TIP3    H147402   0.418   0.734  15.350  2.1780 -0.6105  0.0195
 8637TIP3    H247403   0.420   0.722  15.501 -1.2545  0.3021  0.2290
 8638TIP3   OH247404   0.371   2.940  14.910 -0.5092 -0.3976  0.0698
 8638TIP3    H147405   0.443   2.893  14.869  0.7810  0.7712  0.9308
 8638TIP3    H247406   0.383   3.031  14.882 -2.1905 -0.3148 -0.4990
 8639TIP3   OH247407   5.708   0.864  11.243  0.3041 -0.2623  0.0932
 8639TIP3    H147408   5.703   0.906  11.329 -1.5733  1.7827 -0.9168
 8639TIP3    H247409   5.617   0.855  11.215  0.8383 -1.5073 -1.4257
 8640TIP3   OH247410   4.005   2.881  14.274  0.1790  0.2535  0.4421
 8640TIP3    H147411   3.987   2.827  14.351 -0.1247 -0.1977  0.0590
 8640TIP3    H247412   4.091   2.852  14.244  0.6709  0.9972  1.0779
 8641TIP3   OH247413   0.901   5.898   6.637 -0.5920 -0.5593  0.3281
 8641TIP3    H147414   0.850   5.953   6.697 -1.1657  0.3873 -0.9905
 8641TIP3    H247415   0.911   5.951   6.558 -1.7213 -2.5576 -1.2705
 8642TIP3   OH247416   1.849   4.388   4.383 -0.7505  0.0148  0.1782
 8642TIP3    H147417   1.767   4.340   4.377 -1.1544  0.4612  1.6212
 8642TIP3    H247418   1.829   4.475   4.350 -0.5385 -0.2243 -0.5875
 8643TIP3   OH247419   1.692   2.323   4.305 -0.0675 -0.0008  0.1515
 8643TIP3    H147420   1.652   2.264   4.241 -0.2933 -0.3093  0.5687
 8643TIP3    H247421   1.781   2.338   4.273 -0.9549  1.9066 -1.6141
 8644TIP3   OH247422   0.826   1.893   1.470 -0.0494  0.3717 -0.6048
 8644TIP3    H147423   0.919   1.885   1.488 -0.6034 -1.4590  2.0699
 8644TIP3    H247424   0.806   1.817   1.415 -0.0500  0.4583 -0.7236
 8645TIP3   OH247425   4.579   2.042  14.632 -0.5515 -0.5739  0.0395
 8645TIP3    H147426   4.581   2.132  14.664 -0.4641 -0.5700  0.0217
 8645TIP3    H247427   4.634   2.042  14.554  1.9791 -1.2721  1.6962
 8646TIP3   OH247428   2.411   4.391   1.081  0.0835  0.3119  0.3412
 8646TIP3    H147429   2.459   4.311   1.102 -0.2765  0.3232  1.2609
 8646TIP3    H247430   2.333   4.387   1.136 -0.3103  0.9340 -0.1630
 8647TIP3   OH247431   1.723   4.271   4.030 -0.4372 -0.0924  0.6640
 8647TIP3    H147432   1.656   4.208   4.056  0.0622 -1.3105 -0.8182
 8647TIP3    H247433   1.754   4.239   3.945 -0.9792  2.8060 -0.7465
 8648TIP3   OH247434   0.698   4.171   1.915 -0.2915 -0.2397 -0.2568
 8648TIP3    H147435   0.749   4.090   1.906 -0.8311 -0.5069 -1.0314
 8648TIP3    H247436   0.675   4.194   1.825 -2.4150 -0.6963  0.1251
 8649TIP3   OH247437   5.610   3.114   0.372  0.3471  0.3262 -0.2104
 8649TIP3    H147438   5.583   3.092   0.461 -1.1896 -2.5166 -1.2474
 8649TIP3    H247439   5.693   3.067   0.360 -0.0321 -0.2611 -0.6062
 8650TIP3   OH247440   1.318   1.348   5.636  0.1937 -0.0272  0.2074
 8650TIP3    H147441   1.325   1.426   5.691  1.2810  0.1035 -0.0949
 8650TIP3    H247442   1.247   1.297   5.676 -0.4953  1.0765  0.4373
 8651TIP3   OH247443   4.584   2.019  13.883 -0.2014 -0.2688 -0.0898
 8651TIP3    H147444   4.489   2.020  13.895 -0.3241 -0.9013 -0.9001
 8651TIP3    H247445   4.619   2.066  13.959 -0.9944 -2.6534  1.8579
 8652TIP3   OH247446   1.058   5.707   4.563  0.2816 -0.2835 -0.5771
 8652TIP3    H147447   1.113   5.726   4.640  1.8317 -1.8981 -1.2007
 8652TIP3    H247448   1.090   5.766   4.496 -0.3979  0.4399 -0.2724
 8653TIP3   OH247449   3.162   6.020  12.267  0.4112 -0.2991  0.3054
 8653TIP3    H147450   3.145   5.936  12.310 -0.7922 -0.1793  0.0996
 8653TIP3    H247451   3.241   6.053  12.310 -0.2105 -0.6224  1.7597
 8654TIP3   OH247452   6.338   3.719   4.695 -0.2223 -0.7695 -0.0697
 8654TIP3    H147453   6.425   3.754   4.712 -0.6419  0.7881 -0.9436
 8654TIP3    H247454   6.284   3.751   4.767  0.4664 -4.2891  2.2413
 8655TIP3   OH247455   2.535   3.502  11.385 -0.0121 -0.1862  0.2380
 8655TIP3    H147456   2.539   3.531  11.476  2.3022 -0.1390  0.1811
 8655TIP3    H247457   2.571   3.576  11.335 -0.4616 -0.5448 -0.6457
 8656TIP3   OH247458   4.767   2.034   0.373  0.2682 -0.6933  0.3078
 8656TIP3    H147459   4.703   2.064   0.307  0.8879 -1.4974 -0.6909
 8656TIP3    H247460   4.852   2.045   0.330  0.8471  0.4667  1.6665
 8657TIP3   OH247461   3.050   6.150  13.276  0.2069  0.3622  0.4895
 8657TIP3    H147462   3.107   6.075  13.295  0.0104  0.6821  2.5669
 8657TIP3    H247463   2.985   6.115  13.214 -0.3047 -1.4217  1.9568
 8658TIP3   OH247464   5.850   1.523   3.350 -0.2051 -0.5495  0.2901
 8658TIP3    H147465   5.901   1.594   3.312 -0.2305 -0.9533 -0.5290
 8658TIP3    H247466   5.876   1.445   3.300 -1.9644 -0.6819 -0.4831
 8659TIP3   OH247467   1.886   4.251   2.469 -0.0185 -0.2510 -0.3345
 8659TIP3    H147468   1.820   4.227   2.534 -1.8471  0.1519 -1.9364
 8659TIP3    H247469   1.879   4.184   2.402 -2.2679  2.2005 -2.8309
 8660TIP3   OH247470   5.426   2.710   3.239  0.4062 -0.3108  0.2578
 8660TIP3    H147471   5.454   2.641   3.299  2.5988  0.1156 -0.2130
 8660TIP3    H247472   5.470   2.690   3.156  0.5133  1.2555 -0.1000
 8661TIP3   OH247473   5.205   1.403  16.738  0.1937  0.4750  0.8182
 8661TIP3    H147474   5.195   1.319  16.692 -0.8925  0.9719  0.1104
 8661TIP3    H247475   5.254   1.381  16.817  0.5300 -0.7126  0.3103
 8662TIP3   OH247476   2.575   4.325  11.107 -0.4084  0.1742  0.2551
 8662TIP3    H147477   2.480   4.323  11.099 -0.3879 -2.1223 -0.0592
 8662TIP3    H247478   2.601   4.407  11.065 -2.2294  0.8446  0.3590
 8663TIP3   OH247479   6.676   4.509   4.821  0.2613 -0.2737  0.5365
 8663TIP3    H147480   6.735   4.584   4.830 -0.8365  0.7142 -0.0877
 8663TIP3    H247481   6.733   4.433   4.812  1.5524  0.9233 -2.8281
 8664TIP3   OH247482   2.224   1.614  17.461 -0.4752 -0.3308  0.2191
 8664TIP3    H147483   2.180   1.648  17.383  0.9020  0.2866 -0.3131
 8664TIP3    H247484   2.268   1.534  17.431 -1.2438 -0.9739  0.7609
 8665TIP3   OH247485   4.119   3.262  12.694 -0.3264 -0.2699 -0.0528
 8665TIP3    H147486   4.146   3.211  12.770  0.7224 -0.4965 -0.5569
 8665TIP3    H247487   4.185   3.332  12.687 -0.8556  0.2175 -0.2977
 8666TIP3   OH247488   2.063   3.338  13.121 -0.7077 -0.0513  0.3439
 8666TIP3    H147489   2.034   3.281  13.050 -1.4793 -1.5580  1.7929
 8666TIP3    H247490   2.156   3.318  13.132 -1.2529 -2.2861  1.7967
 8667TIP3   OH247491   3.035   2.186   3.801 -0.4073  0.0004  0.2580
 8667TIP3    H147492   3.092   2.241   3.747 -1.6249  0.6278 -0.4284
 8667TIP3    H247493   3.096   2.131   3.850  0.8019  0.8239 -0.2423
 8668TIP3   OH247494   5.845   2.203   1.486  0.2755  0.0635 -0.2040
 8668TIP3    H147495   5.776   2.159   1.535  1.4809  0.0520  1.5582
 8668TIP3    H247496   5.808   2.289   1.464 -1.2875 -0.9390 -1.7850
 8669TIP3   OH247497   2.341   0.265  13.733  0.2032 -1.1082  0.0297
 8669TIP3    H147498   2.261   0.218  13.711 -0.9277  1.4681 -1.8417
 8669TIP3    H247499   2.377   0.294  13.649  1.0724  0.8877  1.0052
 8670TIP3   OH247500   0.671   5.559   2.861  0.5775 -0.0216  0.3581
 8670TIP3    H147501   0.577   5.566   2.844  0.7388 -0.2696 -0.6984
 8670TIP3    H247502   0.690   5.466   2.859  0.9890  0.0666 -0.3143
 8671TIP3   OH247503   4.769   3.902  13.658 -0.2039 -0.2599 -0.0841
 8671TIP3    H147504   4.761   3.907  13.563  0.2199 -2.2609 -0.2660
 8671TIP3    H247505   4.778   3.993  13.686 -0.6447  0.3897 -1.9158
 8672TIP3   OH247506   5.838   2.697   4.448  0.0565  0.3985 -0.5215
 8672TIP3    H147507   5.743   2.705   4.441  0.1240  3.2422  0.5643
 8672TIP3    H247508   5.873   2.757   4.383  1.1883 -1.0573 -1.3321
 8673TIP3   OH247509   2.648   5.680   2.662  0.4247 -0.1177 -0.2968
 8673TIP3    H147510   2.608   5.733   2.732 -0.1980 -1.1720  0.1652
 8673TIP3    H247511   2.715   5.737   2.625  0.6971  0.5160  1.0925
 8674TIP3   OH247512   5.688   4.384  17.365  0.0396  0.3495 -0.6355
 8674TIP3    H147513   5.719   4.299  17.333 -2.1082 -0.0786 -1.7663
 8674TIP3    H247514   5.680   4.373  17.460  0.9886 -0.2776 -0.6210
 8675TIP3   OH247515   1.377   1.748  12.936 -0.5138  0.5364  0.0391
 8675TIP3    H147516   1.445   1.687  12.907 -0.1461  0.7330  0.4773
 8675TIP3    H247517   1.410   1.783  13.019 -3.0917 -2.7078  2.7250
 8676TIP3   OH247518   3.835   3.742  11.511  0.2516  0.0274 -0.2453
 8676TIP3    H147519   3.830   3.667  11.570  1.7345 -0.5421 -0.7853
 8676TIP3    H247520   3.779   3.808  11.551 -0.4054 -1.0633  0.6987
 8677TIP3   OH247521   3.173   5.839   3.526  0.2276  0.7241 -0.3710
 8677TIP3    H147522   3.219   5.769   3.571  1.7541  0.9446 -1.4982
 8677TIP3    H247523   3.083   5.834   3.558  0.8604 -0.1882  1.3703
 8678TIP3   OH247524   1.228   3.250   3.514  0.3104 -0.1618  0.1373
 8678TIP3    H147525   1.213   3.312   3.443 -0.1163  0.6313  0.8914
 8678TIP3    H247526   1.274   3.177   3.473 -1.2331 -0.4057 -1.2428
 8679TIP3   OH247527   5.394   3.712  13.068  0.8464 -0.4338  0.6763
 8679TIP3    H147528   5.489   3.716  13.057  0.6950 -0.8567 -1.0043
 8679TIP3    H247529   5.378   3.627  13.110  1.2459 -0.0060  1.7327
 8680TIP3   OH247530   0.989   6.583  16.363 -0.2816  0.0922 -0.1281
 8680TIP3    H147531   0.911   6.637  16.348  0.4352  1.7322  1.6254
 8680TIP3    H247532   0.974   6.542  16.448  0.3622 -0.3406 -0.2192
 8681TIP3   OH247533   6.757   4.994  14.065  0.3680 -0.1154  1.3212
 8681TIP3    H147534   6.670   5.009  14.028  0.3953 -0.2910  1.1831
 8681TIP3    H247535   6.746   4.915  14.118  0.2812  0.2465  1.8512
 8682TIP3   OH247536   2.728   6.704   1.159  0.4274 -0.3533 -0.6102
 8682TIP3    H147537   2.796   6.750   1.110 -0.8278  1.9624 -0.3235
 8682TIP3    H247538   2.647   6.751   1.138 -0.9209 -2.2746 -0.0200
 8683TIP3   OH247539   0.898   4.511   5.537 -0.0295 -0.1740  0.0065
 8683TIP3    H147540   0.829   4.458   5.576 -0.1061  0.6758  1.0708
 8683TIP3    H247541   0.968   4.510   5.603  0.0849  0.7902 -0.0990
 8684TIP3   OH247542   4.026   0.669  13.818  0.5091 -0.6119 -0.4795
 8684TIP3    H147543   4.078   0.621  13.882  0.5001  0.0085  0.0010
 8684TIP3    H247544   3.969   0.603  13.779 -1.6456 -0.5630  2.2838
 8685TIP3   OH247545   6.203   3.642   0.432  0.2980  0.2853  0.3530
 8685TIP3    H147546   6.142   3.703   0.389  0.8285  0.7182  0.2010
 8685TIP3    H247547   6.172   3.555   0.408 -0.9162  0.4679  1.1730
 8686TIP3   OH247548   0.630   1.295  15.547 -0.2978 -0.0009  0.3147
 8686TIP3    H147549   0.655   1.204  15.560  2.1496  0.2454 -1.9083
 8686TIP3    H247550   0.659   1.339  15.626 -1.6957 -1.1151  1.5065
 8687TIP3   OH247551   2.805   4.641  15.210  0.0351  0.0696  0.3687
 8687TIP3    H147552   2.863   4.679  15.275  1.7806 -0.0103 -1.0711
 8687TIP3    H247553   2.860   4.580  15.160 -0.8122  1.1627 -2.0763
 8688TIP3   OH247554   0.685   3.823   1.082  0.3341  0.4638  0.1932
 8688TIP3    H147555   0.694   3.736   1.043 -3.1234 -0.5314  1.2801
 8688TIP3    H247556   0.678   3.882   1.007  0.9928 -0.4093 -0.5827
 8689TIP3   OH247557   0.837   4.606  11.660  0.5895 -0.5673  0.3395
 8689TIP3    H147558   0.887   4.643  11.733  0.4208 -1.9383  1.1926
 8689TIP3    H247559   0.854   4.512  11.665  0.4794 -0.6995 -1.3391
 8690TIP3   OH247560   4.330   5.137  11.743 -0.0290 -0.1855  0.2439
 8690TIP3    H147561   4.252   5.170  11.697 -0.4874  0.2704  1.3003
 8690TIP3    H247562   4.368   5.073  11.684 -0.4679  0.5434 -0.8621
 8691TIP3   OH247563   5.136   3.497   0.994 -0.2833  0.0208 -0.3552
 8691TIP3    H147564   5.086   3.569   1.034 -0.3219 -0.0882 -0.2051
 8691TIP3    H247565   5.224   3.506   1.030 -0.8642 -1.4663  1.6124
 8692TIP3   OH247566   1.685   2.585  12.264  0.2215  0.0436 -0.7928
 8692TIP3    H147567   1.775   2.594  12.232  0.4986 -0.1526 -0.0955
 8692TIP3    H247568   1.631   2.626  12.197  0.7178 -0.9468 -1.8233
 8693TIP3   OH247569   5.370   2.355   1.795  0.0544  0.4218 -0.0391
 8693TIP3    H147570   5.454   2.381   1.831 -0.7559  1.0075  1.5127
 8693TIP3    H247571   5.350   2.421   1.728 -0.3152  1.7745  1.3583
 8694TIP3   OH247572   5.179   6.291  16.483  0.3488  0.2709  0.4550
 8694TIP3    H147573   5.103   6.240  16.452  0.5270  0.5927 -0.5257
 8694TIP3    H247574   5.254   6.234  16.467  0.4666  0.5292  0.0814
 8695TIP3   OH247575   2.074   1.497   5.287  0.2627 -0.5842  0.2070
 8695TIP3    H147576   2.065   1.569   5.224 -0.7944 -0.5203  0.4245
 8695TIP3    H247577   2.082   1.541   5.372 -2.9678 -0.7097  0.6700
 8696TIP3   OH247578   3.376   1.979   2.469 -0.0821  0.3102  0.4736
 8696TIP3    H147579   3.343   2.042   2.405  2.7021  1.9382  0.4746
 8696TIP3    H247580   3.374   1.895   2.422 -0.1443  1.0933 -1.0080
 8697TIP3   OH247581   0.092   1.280  14.908  0.3599 -0.2061  0.2050
 8697TIP3    H147582   0.141   1.251  14.831  3.2228  3.3541  0.4073
 8697TIP3    H247583   0.009   1.311  14.874  0.2171 -1.7360 -0.9229
 8698TIP3   OH247584   4.153   6.526  17.301  0.1010  0.5034  0.2859
 8698TIP3    H147585   4.160   6.619  17.319 -0.4356  0.6015  0.0149
 8698TIP3    H247586   4.090   6.520  17.229  1.6149  0.0754 -1.0720
 8699TIP3   OH247587   3.555   2.468  17.077  0.0455 -0.2623 -0.0810
 8699TIP3    H147588   3.500   2.538  17.042  1.4249  0.6673 -0.4985
 8699TIP3    H247589   3.536   2.392  17.023  0.7479  0.6382 -1.6407
 8700TIP3   OH247590   4.438   6.251  11.682 -0.0827 -0.0948  0.5136
 8700TIP3    H147591   4.466   6.338  11.710 -0.6390  0.0384  0.6826
 8700TIP3    H247592   4.359   6.234  11.734  1.2344 -1.6213  2.0890
 8701TIP3   OH247593   1.287   6.663  12.644  0.5529 -0.0029 -0.5129
 8701TIP3    H147594   1.360   6.620  12.688 -0.2324 -0.4984  0.3447
 8701TIP3    H247595   1.328   6.726  12.585  1.7491 -1.6478 -1.5376
 8702TIP3   OH247596   6.424   3.682   0.835 -0.2064 -0.0950 -0.1204
 8702TIP3    H147597   6.371   3.637   0.902 -0.6139 -0.8479 -0.9275
 8702TIP3    H247598   6.363   3.697   0.763  0.1060  1.1484 -0.1459
 8703TIP3   OH247599   6.234   2.929   0.146 -0.1040 -0.6018 -0.4588
 8703TIP3    H147600   6.198   2.928   0.057  1.3670  1.8949 -1.1900
 8703TIP3    H247601   6.321   2.890   0.137 -0.4708 -1.6108  0.2035
 8704TIP3   OH247602   0.003   2.447   0.973 -0.1741 -0.1926 -0.7522
 8704TIP3    H147603   0.096   2.453   0.954 -0.5530 -0.3352 -2.8793
 8704TIP3    H247604  -0.001   2.400   1.057  1.6506 -0.0531 -0.5491
 8705TIP3   OH247605   0.175   3.997  16.401  0.3438 -0.1014  0.1921
 8705TIP3    H147606   0.254   3.948  16.378  0.1567  0.9834 -3.4755
 8705TIP3    H247607   0.204   4.087  16.409 -0.4395  0.2977 -1.1241
 8706TIP3   OH247608   4.599   0.805  14.287 -0.2188 -0.3951 -0.2740
 8706TIP3    H147609   4.543   0.870  14.329 -0.1577 -1.5581  1.7156
 8706TIP3    H247610   4.683   0.814  14.331  0.5283 -0.1925 -1.6875
 8707TIP3   OH247611   6.300   3.410  14.588  0.0530 -0.0699 -0.1548
 8707TIP3    H147612   6.276   3.482  14.646  0.2718 -0.6380  0.6516
 8707TIP3    H247613   6.217   3.380  14.551 -0.1131  0.1492  0.0388
 8708TIP3   OH247614   2.597   4.539   0.944  0.3281  0.5265 -0.3479
 8708TIP3    H147615   2.572   4.631   0.931 -0.2304  0.6377  1.2945
 8708TIP3    H247616   2.517   4.496   0.972  0.6582 -0.4220 -0.8237
 8709TIP3   OH247617   0.084   1.609  16.382 -0.7212 -0.0338 -0.0041
 8709TIP3    H147618   0.081   1.517  16.408 -3.3420  0.0800  0.3842
 8709TIP3    H247619   0.051   1.657  16.458 -0.1588  1.1643 -0.4881
 8710TIP3   OH247620   4.894   0.886  14.308 -0.0086 -0.5118  0.1077
 8710TIP3    H147621   4.954   0.871  14.236 -0.7188 -1.1704 -0.3662
 8710TIP3    H247622   4.884   0.981  14.313 -0.2215 -0.4759 -0.8914
 8711TIP3   OH247623   6.034   5.417  16.920 -0.0030 -0.0370  0.2815
 8711TIP3    H147624   6.022   5.511  16.910  1.8040  0.2400  0.4340
 8711TIP3    H247625   5.958   5.388  16.972 -1.6145  0.9747 -1.3785
 8712TIP3   OH247626   2.640   3.364  14.956 -0.6565  0.0371 -0.4194
 8712TIP3    H147627   2.642   3.293  15.019 -1.3447  1.0152  0.7440
 8712TIP3    H247628   2.708   3.424  14.986  0.3778 -0.4110 -1.7739
 8713TIP3   OH247629   5.092   5.542  15.374 -0.2511  0.2001  0.2942
 8713TIP3    H147630   5.136   5.563  15.291 -0.7507  0.6385  0.1318
 8713TIP3    H247631   5.146   5.584  15.441  1.2869 -1.7967  0.4196
 8714TIP3   OH247632   2.513   2.684  15.581 -0.0780  0.1620  0.5204
 8714TIP3    H147633   2.426   2.659  15.550  0.4958 -0.1845 -0.8897
 8714TIP3    H247634   2.503   2.774  15.611 -0.1933  1.4938 -3.0547
 8715TIP3   OH247635   0.347   3.511  13.218 -0.0573  0.9174 -0.9890
 8715TIP3    H147636   0.310   3.442  13.273 -0.3681  0.5455 -1.6608
 8715TIP3    H247637   0.428   3.473  13.184  1.4392  1.9945  1.0928
 8716TIP3   OH247638   0.157   6.322  14.470 -0.0161  0.6677  1.0944
 8716TIP3    H147639   0.116   6.255  14.416  1.5856  1.3703 -1.0995
 8716TIP3    H247640   0.248   6.294  14.480  0.5648  2.2383  0.5349
 8717TIP3   OH247641   6.445   2.927  15.985 -0.2977 -0.1526 -0.4407
 8717TIP3    H147642   6.424   3.019  15.968  0.1983  0.0041 -0.2467
 8717TIP3    H247643   6.409   2.909  16.072 -1.0956 -0.3773 -0.8122
 8718TIP3   OH247644   2.119   3.887  12.983 -0.0710  0.0696  0.1406
 8718TIP3    H147645   2.111   3.966  12.931  0.1510  0.7591  1.1359
 8718TIP3    H247646   2.178   3.831  12.932 -0.6564  0.3180 -0.8225
 8719TIP3   OH247647   3.511   0.666   1.929 -0.3700 -0.5876 -0.2721
 8719TIP3    H147648   3.451   0.595   1.954 -1.4077  0.1044 -0.7026
 8719TIP3    H247649   3.503   0.671   1.834  0.3311 -0.4356 -0.3242
 8720TIP3   OH247650   3.177   6.601  13.091 -0.2005  0.3549 -0.0583
 8720TIP3    H147651   3.099   6.548  13.077  0.1527 -0.0907 -0.3407
 8720TIP3    H247652   3.148   6.691  13.075 -0.6376  0.1857 -0.2266
 8721TIP3   OH247653   4.252   2.519  16.798 -0.1564 -0.2418  0.3245
 8721TIP3    H147654   4.325   2.503  16.858 -0.3329 -0.3690  0.5044
 8721TIP3    H247655   4.176   2.528  16.855 -0.0174  1.6474  0.2942
 8722TIP3   OH247656   5.981   2.392  12.158 -0.2087 -0.2395 -0.6422
 8722TIP3    H147657   5.919   2.465  12.151 -2.4456 -1.8599  0.9499
 8722TIP3    H247658   5.929   2.319  12.191  2.4954 -1.8409  0.4169
 8723TIP3   OH247659   1.315   2.027  11.194 -0.0271  0.0372 -0.0831
 8723TIP3    H147660   1.276   1.987  11.116 -3.3190  0.3615  1.2339
 8723TIP3    H247661   1.325   2.119  11.172  1.9771 -0.3467 -1.0709
 8724TIP3   OH247662   4.520   1.954   6.759 -0.2970  0.4377 -0.3406
 8724TIP3    H147663   4.601   1.929   6.803  0.0482  2.6048  0.3782
 8724TIP3    H247664   4.451   1.939   6.824 -0.7276 -2.3991 -1.2880
 8725TIP3   OH247665   5.878   6.656  12.446  1.0380 -0.4895  0.4826
 8725TIP3    H147666   5.867   6.694  12.358 -1.7111  0.6807  1.2247
 8725TIP3    H247667   5.932   6.720  12.493 -1.0249  1.1124  0.8167
 8726TIP3   OH247668   1.513   6.225  13.038 -0.0374 -0.4679  0.0124
 8726TIP3    H147669   1.468   6.309  13.032  0.7317  0.0322  1.0651
 8726TIP3    H247670   1.500   6.185  12.952 -1.0773  0.3777 -0.2400
 8727TIP3   OH247671   6.283   4.541  11.966  0.7311 -0.8407 -0.0807
 8727TIP3    H147672   6.262   4.550  11.873 -0.3219 -3.3119 -0.1613
 8727TIP3    H247673   6.363   4.591  11.977 -0.0335  0.9350 -1.9256
 8728TIP3   OH247674   5.201   0.467   1.075 -0.3213  0.2206 -0.1500
 8728TIP3    H147675   5.133   0.413   1.114 -1.5992  2.0561  0.2847
 8728TIP3    H247676   5.272   0.467   1.140 -0.0804 -1.2712 -0.3775
 8729TIP3   OH247677   6.274   0.170   3.206 -0.1999 -0.3847 -0.0689
 8729TIP3    H147678   6.254   0.085   3.244  0.3888 -0.5415 -0.1006
 8729TIP3    H247679   6.359   0.158   3.164  0.6845  0.6670  1.3412
 8730TIP3   OH247680   6.075   4.394  12.051  0.2370  0.1176  0.3309
 8730TIP3    H147681   6.151   4.444  12.023 -1.5011  3.1171  0.5369
 8730TIP3    H247682   6.036   4.363  11.969 -0.0408  1.3488 -0.0270
 8731TIP3   OH247683   0.691   4.167   0.946 -0.4277  0.2351  0.2422
 8731TIP3    H147684   0.641   4.154   0.866  0.9657 -0.7414 -0.5259
 8731TIP3    H247685   0.733   4.252   0.935 -0.4281  0.2077  0.0162
 8732TIP3   OH247686   1.514   0.302  12.582 -0.1674  0.2413 -0.5650
 8732TIP3    H147687   1.559   0.375  12.624 -1.6802  1.5523 -1.1495
 8732TIP3    H247688   1.426   0.335  12.564 -0.4643 -1.2714 -2.1015
 8733TIP3   OH247689   5.448   1.234  12.124 -0.0907 -0.3100 -0.3576
 8733TIP3    H147690   5.542   1.218  12.131 -0.1804 -1.1848 -0.9835
 8733TIP3    H247691   5.423   1.197  12.039 -0.4712  2.5408 -1.6330
 8734TIP3   OH247692   1.843   4.158  13.878  0.2092 -0.0598  0.3599
 8734TIP3    H147693   1.880   4.240  13.847  0.0661  0.4249  1.4305
 8734TIP3    H247694   1.749   4.176  13.886 -0.2939 -1.1970 -2.1001
 8735TIP3   OH247695   2.538   1.523   2.970  0.4421 -0.3485 -0.2907
 8735TIP3    H147696   2.525   1.607   3.015  1.2790  0.0893 -0.8349
 8735TIP3    H247697   2.489   1.532   2.888 -0.1295 -0.7018  0.0103
 8736TIP3   OH247698   1.602   4.141  13.207 -0.2362 -0.0274  0.0463
 8736TIP3    H147699   1.632   4.063  13.253 -2.1448 -0.7168  0.1870
 8736TIP3    H247700   1.508   4.130  13.198 -0.7049  2.6184  0.7603
 8737TIP3   OH247701   0.950   5.905  15.475  0.7066 -0.4871 -0.2290
 8737TIP3    H147702   0.921   5.843  15.541 -1.0410 -0.7043 -1.1421
 8737TIP3    H247703   0.877   5.912  15.415  1.6944  0.8169 -1.3501
 8738TIP3   OH247704   5.607   1.566   3.451  0.3391 -0.0303  0.5667
 8738TIP3    H147705   5.604   1.651   3.407  0.4849  0.4912  1.5307
 8738TIP3    H247706   5.685   1.523   3.417 -1.3818 -1.1293 -2.2859
 8739TIP3   OH247707   5.661   4.169  16.751 -0.0490 -0.2289 -0.4062
 8739TIP3    H147708   5.721   4.110  16.705  1.2465  1.8083 -1.5209
 8739TIP3    H247709   5.689   4.165  16.843 -0.7601 -2.1749 -0.2472
 8740TIP3   OH247710   0.278   1.232  13.512  0.1722 -0.3876 -0.0562
 8740TIP3    H147711   0.238   1.247  13.426  1.8022 -1.0086 -0.9821
 8740TIP3    H247712   0.226   1.285  13.572 -1.3515 -0.3485 -1.3287
 8741TIP3   OH247713   4.979   5.044  13.495 -0.1974  0.1564 -0.0857
 8741TIP3    H147714   4.889   5.014  13.506  0.2156 -1.3941 -0.6318
 8741TIP3    H247715   4.971   5.134  13.465 -1.5006  0.7480  1.9286
 8742TIP3   OH247716   6.169   1.713  12.970  0.1141 -0.7679 -0.1896
 8742TIP3    H147717   6.220   1.667  13.037 -0.9605 -1.9912 -0.1564
 8742TIP3    H247718   6.096   1.653  12.952 -1.3889  0.9660 -0.1081
 8743TIP3   OH247719   4.196   4.776   4.017  0.3261 -0.2067 -0.5841
 8743TIP3    H147720   4.185   4.727   3.936 -0.6489 -0.7804 -0.1284
 8743TIP3    H247721   4.229   4.861   3.990 -0.2402 -0.2947 -1.6072
 8744TIP3   OH247722   0.176   5.464  14.633  0.6068  0.0406  0.2067
 8744TIP3    H147723   0.128   5.510  14.702 -0.3018 -0.2404 -0.2166
 8744TIP3    H247724   0.138   5.376  14.632  0.7781 -0.0330 -0.4811
 8745TIP3   OH247725   5.632   4.737   3.144  0.6731 -0.1445 -0.2491
 8745TIP3    H147726   5.606   4.664   3.088  1.3374 -0.4295 -0.1984
 8745TIP3    H247727   5.565   4.804   3.130  0.6158 -0.3729 -1.0698
 8746TIP3   OH247728   1.600   2.862   0.906 -0.2964  0.6822  0.2518
 8746TIP3    H147729   1.692   2.876   0.882 -0.5388  0.2367 -1.0163
 8746TIP3    H247730   1.560   2.824   0.828 -1.7851  1.7173  0.4567
 8747TIP3   OH247731   6.068   3.894  15.219 -0.0226 -0.0048 -0.0160
 8747TIP3    H147732   6.084   3.984  15.249 -0.2975  0.4935 -1.3089
 8747TIP3    H247733   5.974   3.891  15.203 -0.3589 -1.1412  1.8816
 8748TIP3   OH247734   5.867   1.053  14.433  0.1514 -0.0881  0.2234
 8748TIP3    H147735   5.817   0.988  14.383 -1.5353  0.6511  0.8900
 8748TIP3    H247736   5.834   1.046  14.522 -0.4079  1.9621  0.2365
 8749TIP3   OH247737   4.657   6.447  12.172 -0.0615 -0.0641  0.3085
 8749TIP3    H147738   4.706   6.367  12.188 -0.8304 -0.8094 -0.9179
 8749TIP3    H247739   4.582   6.442  12.232 -1.7146 -1.7506 -1.7480
 8750TIP3   OH247740   3.509   6.253   5.233  0.3069 -0.4297  0.0818
 8750TIP3    H147741   3.584   6.242   5.291  1.1772  0.6888 -0.7988
 8750TIP3    H247742   3.516   6.342   5.200 -1.7930 -0.0706  0.4762
 8751TIP3   OH247743   4.785   2.598   4.881 -0.0044  0.0653 -0.5319
 8751TIP3    H147744   4.853   2.545   4.922 -0.2946  0.0884 -0.0107
 8751TIP3    H247745   4.786   2.572   4.789  1.4915  0.8906 -0.7839
 8752TIP3   OH247746   3.641   2.599  15.731  0.2198 -0.6295  0.3085
 8752TIP3    H147747   3.725   2.563  15.702  0.8252  1.9764 -1.4866
 8752TIP3    H247748   3.588   2.602  15.651 -1.3943 -1.6170  1.2892
 8753TIP3   OH247749   1.311   5.130   4.738 -0.1286 -0.3635  0.5701
 8753TIP3    H147750   1.216   5.136   4.740 -0.2554 -1.6937 -0.2345
 8753TIP3    H247751   1.334   5.074   4.813  0.1181  0.6803  1.3040
 8754TIP3   OH247752   0.700   2.615   2.940 -0.0463  0.4247  0.1541
 8754TIP3    H147753   0.752   2.578   3.011  0.1115 -0.1159 -0.2318
 8754TIP3    H247754   0.763   2.630   2.870 -0.2572  0.6333  0.0070
 8755TIP3   OH247755   1.592   5.450   4.621  0.0203  0.4368 -0.1838
 8755TIP3    H147756   1.676   5.495   4.626 -0.5178  1.3499  1.8834
 8755TIP3    H247757   1.535   5.512   4.575  0.3232  0.0665 -1.0651
 8756TIP3   OH247758   2.642   4.806  11.198 -0.5086  0.0971 -0.7130
 8756TIP3    H147759   2.585   4.742  11.154  0.3645 -0.8251 -0.5273
 8756TIP3    H247760   2.649   4.878  11.136 -0.9202 -0.3089 -1.2422
 8757TIP3   OH247761   5.986   1.760   5.189 -0.8043 -0.2357  0.3393
 8757TIP3    H147762   6.069   1.772   5.143 -1.5542  0.4022 -0.8824
 8757TIP3    H247763   5.928   1.722   5.124 -0.9742 -2.4971  1.7045
 8758TIP3   OH247764   5.773   3.668  11.695 -0.0600  0.2605 -0.4638
 8758TIP3    H147765   5.865   3.694  11.700 -0.1025  0.4668 -0.7347
 8758TIP3    H247766   5.774   3.582  11.652  0.0265  0.1426 -0.2250
 8759TIP3   OH247767   0.531   0.018   2.674 -0.4972  0.1950  0.4744
 8759TIP3    H147768   0.518   0.087   2.610 -0.3715  0.0381  0.2792
 8759TIP3    H247769   0.528  -0.063   2.624  2.4119  0.1737  0.1827
 8760TIP3   OH247770   1.934   2.344  15.928 -1.2478  0.1544  0.5093
 8760TIP3    H147771   1.994   2.286  15.882 -0.5782  1.5945 -0.5169
 8760TIP3    H247772   1.874   2.377  15.861 -2.4450 -0.3239  1.3032
 8761TIP3   OH247773   5.999   5.495  14.281  0.3876  0.3103 -0.3660
 8761TIP3    H147774   5.988   5.515  14.188 -0.1235  2.3394  0.0854
 8761TIP3    H247775   5.940   5.421  14.297 -0.1119  0.4483 -1.4917
 8762TIP3   OH247776   2.879   5.319   0.428 -0.4533 -0.2217 -0.1425
 8762TIP3    H147777   2.904   5.261   0.501 -0.7463 -1.0891 -0.7153
 8762TIP3    H247778   2.961   5.359   0.400  0.2207 -2.3096 -1.3839
 8763TIP3   OH247779   5.805   6.532   6.852 -0.1426 -0.1973  0.1579
 8763TIP3    H147780   5.824   6.620   6.819 -0.0193 -0.0589  0.5886
 8763TIP3    H247781   5.714   6.535   6.879  0.6397  0.7546  3.0610
 8764TIP3   OH247782   6.578   3.860  14.240 -0.1526  0.3169 -0.0441
 8764TIP3    H147783   6.512   3.798  14.206 -2.2339  2.1014  0.5140
 8764TIP3    H247784   6.552   3.944  14.202  1.8487  1.0936  0.2327
 8765TIP3   OH247785   3.404   3.467  12.162  0.1883  0.8077 -0.2193
 8765TIP3    H147786   3.493   3.463  12.196 -0.4790 -0.8542  1.5292
 8765TIP3    H247787   3.412   3.439  12.071  1.3306 -0.4557  0.2362
 8766TIP3   OH247788   4.907   2.292  13.924  0.0939 -0.5357 -0.6601
 8766TIP3    H147789   4.938   2.203  13.940 -1.4754 -0.9129  0.4452
 8766TIP3    H247790   4.858   2.315  14.003  0.9966  1.5725 -0.6348
 8767TIP3   OH247791   0.881   3.441  12.987 -0.2364 -0.5597  0.0303
 8767TIP3    H147792   0.928   3.517  13.021 -1.5048  0.0163  0.5623
 8767TIP3    H247793   0.916   3.428  12.898 -0.3614  0.9715 -0.2634
 8768TIP3   OH247794   2.294   4.567  16.220 -0.7361  0.0139 -0.3753
 8768TIP3    H147795   2.219   4.514  16.247 -0.3522 -0.3836 -0.0764
 8768TIP3    H247796   2.346   4.576  16.300 -0.0027 -0.4850 -0.7917
 8769TIP3   OH247797   6.666   6.172   2.350 -0.1095  0.0518 -0.0343
 8769TIP3    H147798   6.587   6.176   2.404 -0.6172  2.3155 -0.8299
 8769TIP3    H247799   6.727   6.232   2.393  0.2047  0.3398 -0.8741
 8770TIP3   OH247800   6.457   4.912  12.181  0.0659  0.1123 -0.0803
 8770TIP3    H147801   6.507   4.993  12.170 -0.7195  0.8100  1.1977
 8770TIP3    H247802   6.413   4.900  12.097  0.8417  0.5594 -0.5599
 8771TIP3   OH247803   3.693   4.433   6.090  0.2322 -0.1720 -0.5740
 8771TIP3    H147804   3.669   4.354   6.140 -1.6281  2.0016  2.3687
 8771TIP3    H247805   3.609   4.476   6.074  1.3224  2.5542  0.4870
 8772TIP3   OH247806   4.757   5.381   3.911 -0.1941  0.2045  0.1988
 8772TIP3    H147807   4.668   5.416   3.920 -1.3911 -2.1947 -1.1254
 8772TIP3    H247808   4.745   5.286   3.914  1.9263 -0.3070 -2.8194
 8773TIP3   OH247809   5.968   4.880   5.975  0.2706  0.1787 -0.2154
 8773TIP3    H147810   5.876   4.903   5.977 -0.1527 -1.3628 -0.3316
 8773TIP3    H247811   5.999   4.895   6.064  0.3111  2.1095 -0.5248
 8774TIP3   OH247812   3.303   4.108   5.065 -0.2240 -0.4520 -0.0566
 8774TIP3    H147813   3.385   4.139   5.027  0.6034 -0.9218  1.2630
 8774TIP3    H247814   3.273   4.179   5.121 -1.4752  0.2679 -1.5759
 8775TIP3   OH247815   3.779   5.792   7.052 -0.1791  0.5117  0.0703
 8775TIP3    H147816   3.856   5.740   7.029 -0.5288 -0.3961  0.8820
 8775TIP3    H247817   3.803   5.882   7.029  1.2311  0.2853  0.5472
 8776TIP3   OH247818   5.606   5.908  11.238 -0.3530  0.1837  0.3246
 8776TIP3    H147819   5.524   5.891  11.192 -1.1617  0.0837  1.7372
 8776TIP3    H247820   5.579   5.949  11.320  1.1204  1.5859  0.1482
 8777TIP3   OH247821   0.603   1.145   0.779  0.4627  0.6829 -0.2004
 8777TIP3    H147822   0.585   1.222   0.832  0.8776  1.8551 -1.7070
 8777TIP3    H247823   0.692   1.119   0.804 -0.0690  0.0161  1.0808
 8778TIP3   OH247824   6.767   2.356   1.220 -0.3275 -0.2499  0.1063
 8778TIP3    H147825   6.710   2.428   1.246  0.2634  0.4405 -0.4601
 8778TIP3    H247826   6.837   2.355   1.285 -1.1558 -1.3279  1.0081
 8779TIP3   OH247827   1.811   2.526   0.890  0.3800  0.2666  0.4917
 8779TIP3    H147828   1.844   2.555   0.805  0.3991  0.5527  0.5965
 8779TIP3    H247829   1.873   2.561   0.953  0.9478 -0.8292  0.5560
 8780TIP3   OH247830   2.857   1.699   1.745  0.1584  0.2503 -0.2269
 8780TIP3    H147831   2.809   1.732   1.821 -0.7438  0.5444 -0.9088
 8780TIP3    H247832   2.912   1.629   1.780 -0.8059 -0.1272  0.5661
 8781TIP3   OH247833   2.176   0.581  16.530  0.5780  0.0111  0.1868
 8781TIP3    H147834   2.164   0.486  16.523 -0.0672 -0.1301  2.4152
 8781TIP3    H247835   2.250   0.600  16.472  1.5354 -2.0582  0.6240
 8782TIP3   OH247836   5.740   3.879  13.787 -0.3505  0.3027 -0.6929
 8782TIP3    H147837   5.754   3.790  13.755 -2.7706  0.3041 -2.0147
 8782TIP3    H247838   5.743   3.934  13.708  1.0300  1.4309  0.0840
 8783TIP3   OH247839   0.670   6.286   5.415 -0.7255  0.1243 -0.5635
 8783TIP3    H147840   0.627   6.353   5.361 -0.1917  1.7036  0.9079
 8783TIP3    H247841   0.723   6.335   5.477 -1.3479 -1.6290  1.4634
 8784TIP3   OH247842   5.093   0.251  17.001  0.0863 -0.1502  0.0638
 8784TIP3    H147843   5.178   0.210  17.018  0.6898  1.0548  0.0920
 8784TIP3    H247844   5.086   0.253  16.905 -0.2167 -0.8324  0.0667
 8785TIP3   OH247845   3.148   3.476   1.011 -0.0544 -0.5177 -0.3608
 8785TIP3    H147846   3.195   3.524   1.079 -0.1636 -3.3749  1.9202
 8785TIP3    H247847   3.214   3.453   0.946  0.5126  0.3732 -0.1034
 8786TIP3   OH247848   4.924   2.013   0.780  0.0501 -0.0908  0.0588
 8786TIP3    H147849   4.923   2.109   0.770  1.5656 -0.1178 -0.8264
 8786TIP3    H247850   4.962   1.998   0.866  2.6150  0.1527 -0.9379
 8787TIP3   OH247851   0.539   4.536  15.191  0.4967 -0.0183 -0.1207
 8787TIP3    H147852   0.565   4.625  15.217  0.3529 -0.2398  0.8338
 8787TIP3    H247853   0.587   4.479  15.251  2.0562 -0.7149 -1.9334
 8788TIP3   OH247854   2.523   4.717  14.954  0.1824  0.9227 -0.2690
 8788TIP3    H147855   2.524   4.670  15.038 -0.9880 -0.2161 -0.8468
 8788TIP3    H247856   2.548   4.651  14.889 -1.8533  0.9330 -1.1521
 8789TIP3   OH247857   4.761   1.416   2.242  0.4119 -0.0257 -0.3987
 8789TIP3    H147858   4.845   1.372   2.227 -0.0849 -0.7002 -1.3071
 8789TIP3    H247859   4.758   1.430   2.336  0.3010 -2.5739  0.0575
 8790TIP3   OH247860   2.718   6.056  12.492 -0.5413 -1.0290 -0.2124
 8790TIP3    H147861   2.789   6.109  12.455 -0.6605 -2.9072 -3.5135
 8790TIP3    H247862   2.696   6.099  12.574  2.4468  1.2901 -0.4697
 8791TIP3   OH247863   1.458   0.992  11.276 -0.1649  0.2999  0.4337
 8791TIP3    H147864   1.392   0.986  11.345 -1.3757  2.3040 -0.4456
 8791TIP3    H247865   1.411   0.969  11.195  0.0896  1.9537 -0.2341
 8792TIP3   OH247866   6.638   4.352   0.620  0.0451  0.2683 -0.0783
 8792TIP3    H147867   6.605   4.329   0.707 -1.8024  0.0794 -0.8021
 8792TIP3    H247868   6.727   4.383   0.636 -0.3468  0.4784  1.9059
 8793TIP3   OH247869   2.993   4.259   5.451  0.1803  0.1988 -0.5723
 8793TIP3    H147870   2.909   4.282   5.410 -0.8829  0.6322  1.6782
 8793TIP3    H247871   3.027   4.343   5.484  2.2374  0.2541 -2.6478
 8794TIP3   OH247872   0.824   3.657   0.625 -0.3683 -0.3113  0.0151
 8794TIP3    H147873   0.904   3.667   0.676 -0.5073 -1.6085  0.5406
 8794TIP3    H247874   0.757   3.703   0.675  0.0990  1.0985 -0.6161
 8795TIP3   OH247875   5.823   2.821  14.917  0.4953  0.6268  0.1040
 8795TIP3    H147876   5.752   2.847  14.975 -0.7661  1.2840 -1.6397
 8795TIP3    H247877   5.902   2.829  14.970 -0.6789  0.0772  2.0460
 8796TIP3   OH247878   6.724   5.629  12.622 -0.1778 -0.7887 -0.3944
 8796TIP3    H147879   6.649   5.637  12.564 -0.2444 -2.4065 -0.5825
 8796TIP3    H247880   6.686   5.602  12.706  0.0770 -0.2258 -0.0932
 8797TIP3   OH247881   0.165   0.471  15.942 -0.2368  0.3012  0.3385
 8797TIP3    H147882   0.229   0.539  15.962 -1.3712  1.1344  1.2612
 8797TIP3    H247883   0.207   0.418  15.874  1.6752  0.4281  1.3482
 8798TIP3   OH247884   5.188   4.052   0.347 -0.8496  0.0025 -0.4984
 8798TIP3    H147885   5.139   4.085   0.422 -0.6556  2.0582 -1.2308
 8798TIP3    H247886   5.227   3.970   0.379 -1.1285  0.5925  1.5046
 8799TIP3   OH247887   0.711   5.744   1.600 -0.1392  0.5757 -0.4229
 8799TIP3    H147888   0.710   5.686   1.524  1.6360 -1.5814  1.0640
 8799TIP3    H247889   0.784   5.803   1.584  1.7930 -1.4146  0.5484
 8800TIP3   OH247890   0.340   1.547   2.894 -0.3126  0.3963  0.1162
 8800TIP3    H147891   0.253   1.522   2.862 -0.8504  0.7014  1.2805
 8800TIP3    H247892   0.385   1.582   2.817 -1.8431  1.9062 -0.1509
 8801TIP3   OH247893   4.349   1.643   3.446  0.2765  0.2411  0.2273
 8801TIP3    H147894   4.272   1.606   3.490  1.0597  0.1220  1.5306
 8801TIP3    H247895   4.366   1.725   3.493  0.3280  0.8114 -0.7459
 8802TIP3   OH247896   6.731   2.347   3.328  0.0899 -0.2446 -0.2730
 8802TIP3    H147897   6.711   2.350   3.421  0.7526  2.0547 -0.1334
 8802TIP3    H247898   6.823   2.319   3.324 -0.1057 -0.9023 -0.2905
 8803TIP3   OH247899   3.332   1.195  11.975  0.3402  0.0222 -0.0986
 8803TIP3    H147900   3.281   1.274  11.995 -2.4599 -2.1118  2.0384
 8803TIP3    H247901   3.414   1.207  12.024  0.5686  2.0602 -0.8525
 8804TIP3   OH247902   1.338   4.757  10.484  0.2609  0.0858 -0.1715
 8804TIP3    H147903   1.317   4.762  10.577  0.0251  0.8224 -0.2572
 8804TIP3    H247904   1.254   4.740  10.441  0.5136 -1.1772 -0.1795
 8805TIP3   OH247905   5.471   3.540  13.677  0.1464  0.0712  0.2689
 8805TIP3    H147906   5.445   3.454  13.710 -1.4797  0.3374 -0.2312
 8805TIP3    H247907   5.419   3.603  13.728  0.5592  0.6961 -0.0619
 8806TIP3   OH247908   5.155   0.812   1.373  0.0346 -0.3224 -0.2274
 8806TIP3    H147909   5.098   0.889   1.373  0.2576 -0.1576 -0.1403
 8806TIP3    H247910   5.095   0.738   1.370 -0.2279 -0.1951  1.3857
 8807TIP3   OH247911   2.672   4.676   3.656  0.4645  0.0149 -0.0544
 8807TIP3    H147912   2.644   4.619   3.585  0.8979  0.1756 -0.3554
 8807TIP3    H247913   2.595   4.681   3.714 -0.1463  0.4697 -0.8770
 8808TIP3   OH247914   5.303   6.697   3.432  0.3907 -0.1484  0.0562
 8808TIP3    H147915   5.229   6.681   3.490 -2.8047  2.4626 -2.8282
 8808TIP3    H247916   5.355   6.617   3.437 -2.1396 -1.8291  2.9561
 8809TIP3   OH247917   3.132   4.439   6.112 -0.4550  0.0741 -0.1252
 8809TIP3    H147918   3.075   4.506   6.076 -1.5206 -0.4031  0.6303
 8809TIP3    H247919   3.148   4.466   6.202 -1.7789 -1.2146  0.5276
 8810TIP3   OH247920   4.883   2.444   2.851 -0.0951 -0.7105 -0.2250
 8810TIP3    H147921   4.977   2.461   2.857 -0.4533  2.0852 -0.9328
 8810TIP3    H247922   4.877   2.361   2.805  2.0744  0.1136 -2.2168
 8811TIP3   OH247923   3.996   1.032  16.995  0.5317  0.4619 -0.0246
 8811TIP3    H147924   3.903   1.008  16.995  0.6458 -0.0065  0.5440
 8811TIP3    H247925   4.018   1.042  16.902  0.5642 -2.0593 -0.3576
 8812TIP3   OH247926   1.794   6.481   5.129  0.0147 -0.3935 -0.3834
 8812TIP3    H147927   1.879   6.513   5.159 -0.4416 -1.0695  1.8742
 8812TIP3    H247928   1.793   6.498   5.035  1.5331  2.1310 -0.0448
 8813TIP3   OH247929   2.831   4.204   3.798 -0.0855 -0.6680 -0.3880
 8813TIP3    H147930   2.736   4.197   3.802 -0.2136 -0.0414 -1.9622
 8813TIP3    H247931   2.858   4.212   3.890 -1.7611  1.8331 -0.0326
 8814TIP3   OH247932   5.340   3.885  11.654 -0.4864 -0.2655 -0.4987
 8814TIP3    H147933   5.245   3.892  11.644 -0.5060 -1.6080 -1.5527
 8814TIP3    H247934   5.361   3.795  11.626  1.0306 -0.1699  0.2156
 8815TIP3   OH247935   1.272   6.700   2.905 -0.2994 -0.8395 -0.1007
 8815TIP3    H147936   1.320   6.723   2.825 -0.0801  1.0496  0.5244
 8815TIP3    H247937   1.183   6.730   2.890  0.0832  0.9636  0.8826
 8816TIP3   OH247938   4.918   2.248   1.914 -0.0467  0.0622 -0.0088
 8816TIP3    H147939   4.920   2.165   1.867  1.6984  0.5650 -0.9205
 8816TIP3    H247940   5.010   2.269   1.929 -0.5276  0.5913  2.5002
 8817TIP3   OH247941   2.113   0.355  12.877  0.6555  0.1429 -0.1386
 8817TIP3    H147942   2.077   0.437  12.843  1.2755  0.4336 -0.1149
 8817TIP3    H247943   2.037   0.305  12.907  0.2022  0.3502 -0.9333
 8818TIP3   OH247944   6.196   4.403   6.233 -0.0429  0.1432 -0.0056
 8818TIP3    H147945   6.218   4.457   6.309  0.0526 -2.3078  1.8531
 8818TIP3    H247946   6.281   4.382   6.194 -0.0605  1.0439 -0.5511
 8819TIP3   OH247947   1.262   4.167   4.591 -0.1860  0.9009  0.5973
 8819TIP3    H147948   1.178   4.140   4.629  0.2803 -0.9499  0.4012
 8819TIP3    H247949   1.328   4.123   4.644  0.6949  2.3670  0.7630
 8820TIP3   OH247950   3.533   4.118  11.122 -0.5237 -0.2645 -0.3811
 8820TIP3    H147951   3.465   4.067  11.079  0.2276 -0.6484 -1.1484
 8820TIP3    H247952   3.609   4.059  11.125  0.1362  0.5578 -0.6285
 8821TIP3   OH247953   6.184   1.612   0.193 -0.0420 -0.3651 -0.3898
 8821TIP3    H147954   6.183   1.705   0.171 -1.0370 -0.3533 -0.3421
 8821TIP3    H247955   6.162   1.567   0.111 -1.2614 -0.4540 -0.0343
 8822TIP3   OH247956   1.276   6.200   4.407  0.4359  0.3056  0.7266
 8822TIP3    H147957   1.263   6.252   4.486 -1.0168  1.9881 -0.5570
 8822TIP3    H247958   1.195   6.152   4.396  0.7590 -0.1813  0.4193
 8823TIP3   OH247959   0.287   0.357  14.498  0.0885  0.0077 -0.1666
 8823TIP3    H147960   0.213   0.330  14.445 -0.4326  0.3290  0.3862
 8823TIP3    H247961   0.269   0.322  14.585  0.8405 -0.3549 -0.1425
 8824TIP3   OH247962   5.965   6.262   4.952 -0.4531 -0.1283 -0.6429
 8824TIP3    H147963   5.973   6.357   4.953  0.4711 -0.1902 -0.7276
 8824TIP3    H247964   5.943   6.239   4.862  2.4195 -0.1664 -1.4516
 8825TIP3   OH247965   5.024   6.091  15.292 -0.0002  0.2839 -0.2924
 8825TIP3    H147966   5.060   6.077  15.205  1.3949 -1.4241  0.4914
 8825TIP3    H247967   4.932   6.064  15.284  0.3554 -0.8025 -1.0371
 8826TIP3   OH247968   6.470   2.631   3.867 -0.0111  0.1781  0.2997
 8826TIP3    H147969   6.477   2.618   3.772 -2.4362  1.2096 -0.1011
 8826TIP3    H247970   6.506   2.551   3.904  0.1692 -0.6496 -1.5205
 8827TIP3   OH247971   5.210   2.600   0.086 -0.0774 -0.4139 -0.0572
 8827TIP3    H147972   5.260   2.666   0.132  3.5095 -3.4401  0.8923
 8827TIP3    H247973   5.176   2.543   0.155  0.0141 -1.5253 -0.8955
 8828TIP3   OH247974   1.407   0.020   5.472 -0.5249 -0.1444  0.0257
 8828TIP3    H147975   1.364  -0.064   5.453 -0.0305  0.0202 -1.9920
 8828TIP3    H247976   1.357   0.056   5.546 -1.6166 -1.5680  0.0318
 8829TIP3   OH247977   5.676   2.765  12.431 -0.1944 -0.7603  0.0911
 8829TIP3    H147978   5.767   2.743  12.451 -0.0842 -0.0600  0.4111
 8829TIP3    H247979   5.626   2.724  12.502  0.1005  0.8150  1.2749
 8830TIP3   OH247980   4.824   5.682  13.425 -0.1230 -0.3271 -0.4175
 8830TIP3    H147981   4.792   5.772  13.416  0.7123 -0.1402 -1.7177
 8830TIP3    H247982   4.895   5.689  13.488  1.2597  0.3074 -1.9795
 8831TIP3   OH247983   2.908   2.437  12.173  0.0196 -0.6413  0.1176
 8831TIP3    H147984   2.899   2.343  12.163  0.9669 -0.9048  1.5668
 8831TIP3    H247985   2.972   2.449  12.243 -0.6989  1.0733  0.5503
 8832TIP3   OH247986   6.034   4.944   3.737 -0.4925 -0.3993 -0.0970
 8832TIP3    H147987   6.080   4.897   3.807  1.4985  0.1077 -0.9808
 8832TIP3    H247988   6.041   5.037   3.762  1.9904 -0.0220 -1.8179
 8833TIP3   OH247989   3.090   4.995  14.627  0.1151 -0.4011  0.3517
 8833TIP3    H147990   3.135   4.985  14.543 -2.5527 -0.2777 -1.1805
 8833TIP3    H247991   3.115   5.082  14.658 -0.9243  0.6869 -1.6756
 8834TIP3   OH247992   3.166   6.673   0.774 -0.4667 -0.8590  0.4756
 8834TIP3    H147993   3.262   6.677   0.778 -0.5090 -0.1816  0.9631
 8834TIP3    H247994   3.138   6.671   0.865 -1.0102  1.7821  0.4228
 8835TIP3   OH247995   0.960   5.620  15.402 -0.3679 -0.3380 -0.8293
 8835TIP3    H147996   1.051   5.595  15.384 -0.7378 -1.5986 -1.0872
 8835TIP3    H247997   0.959   5.715  15.393  0.6854 -0.4002 -1.9382
 8836TIP3   OH247998   4.843   4.768   0.076 -0.0200  0.5053 -0.1602
 8836TIP3    H147999   4.932   4.760   0.044  0.8265  0.2857  2.0734
 8836TIP3    H248000   4.806   4.842   0.028  1.5080  0.8886 -0.7928
 8837TIP3   OH248001   3.366   4.836   4.159 -0.9771  0.1164 -0.0492
 8837TIP3    H148002   3.453   4.841   4.200 -0.5080 -0.8360 -0.8922
 8837TIP3    H248003   3.308   4.811   4.231 -0.9068  2.4859  0.9386
 8838TIP3   OH248004   3.590   3.994  12.702  0.2242 -0.3211 -0.0104
 8838TIP3    H148005   3.613   3.904  12.726 -2.4517 -2.2051 -3.5895
 8838TIP3    H248006   3.654   4.018  12.635 -0.0273 -0.2493 -0.2300
 8839TIP3   OH248007   1.167   0.806  12.985 -0.3906  0.1389 -0.6802
 8839TIP3    H148008   1.255   0.798  13.022 -0.7724 -0.0900  0.1955
 8839TIP3    H248009   1.174   0.879  12.923  0.0083  1.2888  0.6571
 8840TIP3   OH248010   4.731   2.451  16.191 -0.4239  0.4048 -0.1401
 8840TIP3    H148011   4.674   2.521  16.221 -0.1540  0.1845  0.9450
 8840TIP3    H248012   4.792   2.494  16.131 -1.0358  0.8524 -0.4460
 8841TIP3   OH248013   5.228   3.180   1.217  0.0841 -0.1516  0.0608
 8841TIP3    H148014   5.224   3.275   1.226  0.2038 -0.2671  1.6434
 8841TIP3    H248015   5.247   3.165   1.124 -2.8860  1.2745 -0.9198
 8842TIP3   OH248016   0.400   6.374  15.801 -0.5262 -0.7747  0.1642
 8842TIP3    H148017   0.442   6.413  15.725 -1.1257 -0.2803  0.0858
 8842TIP3    H248018   0.353   6.446  15.843 -1.2562 -1.3077  0.2805
 8843TIP3   OH248019   5.102   6.722  16.732  0.2443  0.3311  0.0199
 8843TIP3    H148020   5.068   6.639  16.700  0.4848  1.3882 -3.3637
 8843TIP3    H248021   5.148   6.699  16.813 -0.4391 -2.6463 -0.3087
 8844TIP3   OH248022   6.402   3.771  13.020  0.2799 -0.5743 -0.1809
 8844TIP3    H148023   6.334   3.794  13.082  0.0201  0.6699 -0.8917
 8844TIP3    H248024   6.479   3.821  13.048  1.0194 -2.2022  0.7979
 8845TIP3   OH248025   2.306   2.691  12.593  0.2701 -0.4493 -0.5552
 8845TIP3    H148026   2.345   2.632  12.529  0.8312 -1.0688  0.3286
 8845TIP3    H248027   2.359   2.679  12.672 -1.1140 -0.5731  0.3899
 8846TIP3   OH248028   2.143   0.899   0.822  0.3175 -0.1798 -0.4898
 8846TIP3    H148029   2.193   0.818   0.814  0.4320 -0.0794 -0.7703
 8846TIP3    H248030   2.207   0.968   0.808  0.4957  0.0033  1.0378
 8847TIP3   OH248031   5.296   0.163  12.872  0.1507  0.3270 -0.2741
 8847TIP3    H148032   5.256   0.152  12.958 -1.3626  0.2340 -0.9474
 8847TIP3    H248033   5.310   0.074  12.840  1.3650  0.3508  0.1340
 8848TIP3   OH248034   5.939   1.856  12.487 -0.2224  0.5480  0.3367
 8848TIP3    H148035   5.996   1.926  12.455  1.9836 -1.4275 -0.3857
 8848TIP3    H248036   5.968   1.841  12.577 -0.0380 -0.0242  0.1849
 8849TIP3   OH248037   3.775   6.544   6.486  0.1006  0.0948  0.4117
 8849TIP3    H148038   3.699   6.536   6.543 -0.5864  0.9635 -0.3541
 8849TIP3    H248039   3.809   6.454   6.479  0.0258 -0.0743  1.9100
 8850TIP3   OH248040   6.605   2.057   3.197 -0.0986  0.1519 -0.0866
 8850TIP3    H148041   6.531   2.077   3.254 -1.6193 -2.9142 -0.7431
 8850TIP3    H248042   6.592   2.112   3.120 -1.7934 -0.3970 -0.2277
 8851TIP3   OH248043   6.255   0.656  12.241  0.2480  0.1225  0.6593
 8851TIP3    H148044   6.235   0.644  12.334 -1.0041 -0.9342  0.2854
 8851TIP3    H248045   6.174   0.687  12.203  1.2443  2.2670  0.1765
 8852TIP3   OH248046   4.743   4.213  16.119  0.9424 -0.0296 -0.3400
 8852TIP3    H148047   4.705   4.297  16.146  0.0906 -0.6420  0.4338
 8852TIP3    H248048   4.772   4.228  16.029  2.7135  1.6963  0.4554
 8853TIP3   OH248049   5.937   5.866   1.833  0.8189 -0.3169 -0.7096
 8853TIP3    H148050   5.848   5.900   1.822  1.5510  1.7198 -0.6629
 8853TIP3    H248051   5.942   5.793   1.771 -0.6191  0.0295 -1.2790
 8854TIP3   OH248052   1.409   1.471  14.882  0.1059  0.2506  0.2481
 8854TIP3    H148053   1.328   1.520  14.890 -1.2861 -2.0072  0.8624
 8854TIP3    H248054   1.417   1.452  14.789 -0.0131  0.5430  0.1774
 8855TIP3   OH248055   1.447   6.653   0.417 -0.5358 -0.3132  0.1084
 8855TIP3    H148056   1.456   6.710   0.341 -2.5394  0.1904  0.1752
 8855TIP3    H248057   1.355   6.663   0.443  0.1001 -0.3868  2.6521
 8856TIP3   OH248058   1.825   0.179   2.033  0.1709 -0.1148 -0.1009
 8856TIP3    H148059   1.847   0.230   2.111 -0.4611 -0.8433  0.5684
 8856TIP3    H248060   1.899   0.118   2.024 -0.8450 -1.6597  1.3695
 8857TIP3   OH248061   3.480   1.132   2.597 -0.6179  0.2450 -0.0770
 8857TIP3    H148062   3.477   1.119   2.692  1.0857 -3.0043 -0.3375
 8857TIP3    H248063   3.399   1.093   2.564 -0.1128 -0.8383 -0.0862
 8858TIP3   OH248064   0.997   0.736   0.478 -0.2163 -0.7821 -0.0243
 8858TIP3    H148065   0.910   0.739   0.440 -0.9020 -0.3232  1.5223
 8858TIP3    H248066   0.996   0.660   0.535  0.4931 -0.9411 -0.2145
 8859TIP3   OH248067   1.620   2.935  17.234  0.2438 -1.0404 -0.1118
 8859TIP3    H148068   1.525   2.944  17.222  0.3366 -0.0987 -0.2097
 8859TIP3    H248069   1.634   2.841  17.243 -1.0120 -1.0740  2.4592
 8860TIP3   OH248070   4.004   3.932   4.729 -0.2777  0.4026  0.6428
 8860TIP3    H148071   3.925   3.890   4.696  0.7389  0.2202 -1.7582
 8860TIP3    H248072   4.041   3.867   4.789 -0.2640 -0.9528 -0.7538
 8861TIP3   OH248073   4.848   1.202   0.399 -0.2478 -0.1284  0.1032
 8861TIP3    H148074   4.783   1.133   0.392 -2.5444  1.7246  1.5129
 8861TIP3    H248075   4.931   1.160   0.378 -1.3686 -3.5393  1.8300
 8862TIP3   OH248076   4.668   2.465   5.778  0.3806 -0.8585  0.0517
 8862TIP3    H148077   4.674   2.382   5.729 -0.0388 -0.2208 -1.1264
 8862TIP3    H248078   4.730   2.523   5.734  1.6656 -0.9074  1.7035
 8863TIP3   OH248079   3.745   4.621   5.112 -0.1440 -0.1861  0.0909
 8863TIP3    H148080   3.799   4.544   5.093 -0.6350 -0.5846  0.3058
 8863TIP3    H248081   3.660   4.601   5.073  0.1838  0.9420 -1.2994
 8864TIP3   OH248082   6.510   1.523  11.498 -0.3051  0.1331  0.3566
 8864TIP3    H148083   6.470   1.475  11.426  0.0165 -0.4087  0.5367
 8864TIP3    H248084   6.592   1.477  11.516  0.3040  1.0966  0.1407
 8865TIP3   OH248085   3.518   4.969   4.683  0.3070 -0.0235 -0.3542
 8865TIP3    H148086   3.502   5.048   4.734  0.3923 -0.5848  0.5517
 8865TIP3    H248087   3.613   4.968   4.669  0.4049 -0.3644  0.3019
 8866TIP3   OH248088   3.022   2.793  15.506  0.1552  0.2567 -0.0743
 8866TIP3    H148089   2.971   2.814  15.427  0.8780 -1.2568 -0.9958
 8866TIP3    H248090   2.998   2.703  15.526  1.7871 -0.1864  0.0037
 8867TIP3   OH248091   2.090   5.977   6.985 -0.1421  0.4541 -0.1154
 8867TIP3    H148092   2.072   6.057   7.033 -1.1878 -0.4753  1.1024
 8867TIP3    H248093   2.173   5.946   7.020  0.2165  0.9391 -0.5205
 8868TIP3   OH248094   4.564   5.484  12.710  0.6164 -0.2067 -0.5028
 8868TIP3    H148095   4.638   5.539  12.736 -1.0349  2.2696 -0.7418
 8868TIP3    H248096   4.535   5.519  12.626 -1.4378 -0.4240  0.0451
 8869TIP3   OH248097   3.027   5.345  10.432  0.1674  0.5064  0.2278
 8869TIP3    H148098   3.050   5.422  10.483  1.0117  1.1916 -1.1112
 8869TIP3    H248099   3.041   5.271  10.491 -1.0991  1.3780  1.6855
 8870TIP3   OH248100   3.327   5.606  12.336 -0.6413  0.0823  0.5297
 8870TIP3    H148101   3.290   5.608  12.247  0.0075 -0.7248  0.2321
 8870TIP3    H248102   3.421   5.616  12.324 -0.1954 -2.7409  0.8625
 8871TIP3   OH248103   0.743   1.796  13.195 -0.0166  0.1179 -0.2339
 8871TIP3    H148104   0.793   1.840  13.126 -0.6751  0.9023 -0.2320
 8871TIP3    H248105   0.754   1.852  13.272  0.3949 -0.5464  0.1910
 8872TIP3   OH248106   4.640   3.064  16.101 -0.3139 -0.3320 -0.1257
 8872TIP3    H148107   4.655   3.135  16.038  2.7647  0.6110  1.4805
 8872TIP3    H248108   4.560   3.090  16.147 -0.5821  0.8179 -1.1753
 8873TIP3   OH248109   6.352   4.742  16.616  0.0113  0.2532  0.1757
 8873TIP3    H148110   6.432   4.780  16.579  1.0928 -0.3116  1.8154
 8873TIP3    H248111   6.371   4.649  16.623 -1.3876 -0.1280 -0.7979
 8874TIP3   OH248112   0.978   2.658  14.084  0.0755  0.1648 -0.4163
 8874TIP3    H148113   0.978   2.631  13.993 -0.0394 -0.5071 -0.2232
 8874TIP3    H248114   1.007   2.581  14.133 -1.0808  0.1043  0.2192
 8875TIP3   OH248115   1.088   5.517  16.363  0.1246  0.7010 -0.3899
 8875TIP3    H148116   1.034   5.473  16.297 -0.4135  1.8280 -0.7181
 8875TIP3    H248117   1.026   5.567  16.416  0.6233  0.3360  0.5744
 8876TIP3   OH248118   4.968   2.779  11.774  0.1980  0.2515  0.0481
 8876TIP3    H148119   5.055   2.806  11.802 -0.4298  0.0745  2.3373
 8876TIP3    H248120   4.916   2.859  11.772  0.2696  0.2961 -0.9243
 8877TIP3   OH248121   4.350   4.331  13.784  0.1056  0.4554 -0.2514
 8877TIP3    H148122   4.279   4.379  13.825  0.9025  1.1509  0.3467
 8877TIP3    H248123   4.424   4.392  13.785  0.4500  0.1097 -1.7455
 8878TIP3   OH248124   3.664   3.403  16.458  0.0688 -0.0543 -0.2794
 8878TIP3    H148125   3.634   3.492  16.438  0.4024  0.1275  0.0095
 8878TIP3    H248126   3.729   3.415  16.527 -2.0852 -0.7479  2.0451
 8879TIP3   OH248127   6.268   0.623   5.735 -0.2574  0.6360  0.0966
 8879TIP3    H148128   6.263   0.656   5.645  0.2054 -1.0649 -0.5946
 8879TIP3    H248129   6.305   0.696   5.785  0.0855  1.3934 -1.2126
 8880TIP3   OH248130   0.885   5.856   4.944 -0.1420 -0.4592 -0.3967
 8880TIP3    H148131   0.825   5.929   4.933 -0.6683 -0.4922  1.7998
 8880TIP3    H248132   0.971   5.893   4.923 -0.7743 -0.2684 -3.0259
 8881TIP3   OH248133   3.765   6.383   1.624 -0.2024 -0.5159  0.1365
 8881TIP3    H148134   3.694   6.376   1.560 -1.6362 -3.6802  1.8321
 8881TIP3    H248135   3.839   6.417   1.574 -2.1777  0.5475 -2.2972
 8882TIP3   OH248136   5.191   0.231   0.517 -0.1204  0.5003 -0.2360
 8882TIP3    H148137   5.168   0.315   0.478  2.2452  1.3278 -0.0190
 8882TIP3    H248138   5.141   0.227   0.599 -0.2698  1.6919 -0.2572
 8883TIP3   OH248139   0.768   0.521   2.353  0.5372 -0.2308  0.0414
 8883TIP3    H148140   0.774   0.610   2.387 -1.2358 -0.9939  2.5996
 8883TIP3    H248141   0.834   0.472   2.402 -1.5592 -1.1868  2.1184
 8884TIP3   OH248142   2.362   0.101  11.191  0.3174  0.4303 -0.4270
 8884TIP3    H148143   2.286   0.067  11.144 -0.7819  1.1786  0.7290
 8884TIP3    H248144   2.335   0.101  11.283  1.4406  1.4253 -0.0715
 8885TIP3   OH248145   3.169   6.592   2.896  0.1346 -0.7993  0.5982
 8885TIP3    H148146   3.198   6.578   2.805 -0.7570  0.3840  0.1023
 8885TIP3    H248147   3.248   6.620   2.942  0.4240 -0.5723 -0.0182
 8886TIP3   OH248148   5.349   1.114   3.049  0.9158 -0.0818  0.4364
 8886TIP3    H148149   5.418   1.048   3.045  0.8177 -0.1265 -2.3996
 8886TIP3    H248150   5.388   1.192   3.011  0.0604  0.5726  0.8553
 8887TIP3   OH248151   0.036   6.476  13.770 -0.4177  0.2269 -0.1824
 8887TIP3    H148152   0.098   6.517  13.710  0.0573 -0.2581 -0.0388
 8887TIP3    H248153  -0.012   6.414  13.715  1.6056 -1.9320  0.3181
 8888TIP3   OH248154   1.215   2.399   2.281  0.7625 -0.1546 -0.4419
 8888TIP3    H148155   1.296   2.438   2.247 -0.5949  1.9332 -1.4275
 8888TIP3    H248156   1.208   2.315   2.234  2.3181 -0.3622 -0.3530
 8889TIP3   OH248157   4.860   5.253   1.436  0.4048  0.3261  0.1418
 8889TIP3    H148158   4.900   5.229   1.519  0.9781  1.6982  0.2755
 8889TIP3    H248159   4.787   5.310   1.459  1.0871  1.4117 -0.3202
 8890TIP3   OH248160   6.166   0.948  12.989 -0.0954  0.1721  0.2538
 8890TIP3    H148161   6.116   0.976  12.913 -0.4201 -0.3968  0.2480
 8890TIP3    H248162   6.195   1.029  13.030  1.8511  0.4994 -1.6109
 8891TIP3   OH248163   2.588   4.243   4.112  0.6267 -0.4340  0.2639
 8891TIP3    H148164   2.528   4.243   4.187  1.0338 -1.6110  0.6139
 8891TIP3    H248165   2.665   4.196   4.143  2.1100  1.7465  0.0857
 8892TIP3   OH248166   0.460   4.174  13.311 -0.5860 -0.1416 -0.0435
 8892TIP3    H148167   0.519   4.240  13.346  0.8343 -0.2920 -1.9832
 8892TIP3    H248168   0.514   4.096  13.300 -2.1828 -1.6955  2.0669
 8893TIP3   OH248169   1.386   0.910   5.774  0.0212  0.1751 -0.0517
 8893TIP3    H148170   1.462   0.951   5.816  0.7581  0.6695 -1.7717
 8893TIP3    H248171   1.417   0.887   5.687 -1.8517  0.4893 -0.8389
 8894TIP3   OH248172   5.435   5.304  17.432  0.3692 -0.2119 -0.3558
 8894TIP3    H148173   5.530   5.293  17.425  0.4703 -1.9199  2.3939
 8894TIP3    H248174   5.406   5.234  17.491 -2.4702  0.8576 -0.3060
 8895TIP3   OH248175   5.672   0.214   2.286  0.6844 -0.0149  0.4324
 8895TIP3    H148176   5.621   0.133   2.284 -1.5999  1.3160 -1.3562
 8895TIP3    H248177   5.749   0.196   2.232  0.0554 -0.9181 -0.1914
 8896TIP3   OH248178   6.505   4.229  16.120 -0.2851  0.2922  0.2623
 8896TIP3    H148179   6.471   4.254  16.034  0.5979  0.9673  0.1074
 8896TIP3    H248180   6.600   4.229  16.110 -0.1446  1.1368  1.4503
 8897TIP3   OH248181   2.939   4.258   4.040  0.1106  0.6831 -0.1057
 8897TIP3    H148182   2.976   4.243   4.128 -1.5217  0.8548  0.6481
 8897TIP3    H248183   2.933   4.354   4.033  0.2563  0.6699 -0.4175
 8898TIP3   OH248184   4.933   2.900  12.082  0.1131  0.0018 -0.2753
 8898TIP3    H148185   4.957   2.982  12.039  0.7722 -0.4101 -0.7034
 8898TIP3    H248186   5.013   2.872  12.128 -0.1860 -0.2599  0.0992
 8899TIP3   OH248187   2.676   4.808   1.392 -0.1402  0.2938  0.0297
 8899TIP3    H148188   2.650   4.742   1.327  1.0157 -0.0522 -0.0934
 8899TIP3    H248189   2.623   4.885   1.369  0.1084  0.1219 -1.2204
 8900TIP3   OH248190   5.535   5.527   5.646 -0.2719 -0.3429  0.8701
 8900TIP3    H148191   5.462   5.514   5.586  1.4327 -0.8652 -1.2411
 8900TIP3    H248192   5.606   5.473   5.609  1.8165  1.7127  1.6258
 8901TIP3   OH248193   6.408   4.027   0.773 -0.1272  0.3557 -0.2046
 8901TIP3    H148194   6.378   4.089   0.706  0.3339  0.3299 -0.4346
 8901TIP3    H248195   6.397   3.941   0.731 -1.0275  0.2511  0.2121
 8902TIP3   OH248196   6.116   4.193   2.240 -0.4839  0.2281 -0.2223
 8902TIP3    H148197   6.189   4.223   2.294  0.3446 -0.4057 -0.9633
 8902TIP3    H248198   6.065   4.272   2.222 -1.3194  0.3175  2.2281
 8903TIP3   OH248199   4.773   2.948  13.385  0.5179  0.2789  0.5215
 8903TIP3    H148200   4.769   2.966  13.479 -1.6188  0.0120  0.5285
 8903TIP3    H248201   4.858   2.905  13.372  1.3787  1.4339  2.0995
 8904TIP3   OH248202   2.200   6.183  14.216  0.0501  0.0868  0.2772
 8904TIP3    H148203   2.289   6.149  14.202 -0.1638  0.3070 -1.9153
 8904TIP3    H248204   2.144   6.106  14.211  0.0260  0.0785  0.6577
 8905TIP3   OH248205   4.607   5.342   1.179 -0.1952  0.0565  0.4961
 8905TIP3    H148206   4.665   5.268   1.159 -1.2732 -0.6440 -0.2192
 8905TIP3    H248207   4.550   5.310   1.248 -0.2760  0.4359  0.6072
 8906TIP3   OH248208   3.937   4.547   6.193 -0.0685  0.8921 -0.0397
 8906TIP3    H148209   3.862   4.495   6.165  0.7311 -0.8811  0.9244
 8906TIP3    H248210   3.929   4.629   6.145 -2.0160  0.3259 -0.7635
 8907TIP3   OH248211   5.428   2.527  12.872 -0.0690  0.1129 -0.0655
 8907TIP3    H148212   5.365   2.455  12.874  1.2952 -1.1377  1.0311
 8907TIP3    H248213   5.382   2.601  12.911 -0.6868 -0.9556  1.3489
 8908TIP3   OH248214   4.171   4.578   1.038 -0.1858 -0.5462 -0.0129
 8908TIP3    H148215   4.134   4.627   1.112 -0.6674 -1.3587  0.2967
 8908TIP3    H248216   4.216   4.644   0.986  1.5139 -0.1490  1.8131
 8909TIP3   OH248217   1.484   0.665  17.470  0.4597  0.3815 -0.2457
 8909TIP3    H148218   1.453   0.583  17.433 -0.6317  0.0836  1.2090
 8909TIP3    H248219   1.404   0.709  17.500  1.2759 -0.0702  2.9514
 8910TIP3   OH248220   1.363   0.154   4.491  0.1993  0.2091  0.3201
 8910TIP3    H148221   1.375   0.079   4.549 -5.4309 -1.9920 -0.7778
 8910TIP3    H248222   1.380   0.119   4.403 -1.6521  0.3802 -0.1362
 8911TIP3   OH248223   3.439   2.855   6.655  0.6630 -0.3266  0.3828
 8911TIP3    H148224   3.472   2.922   6.596  1.9663  0.1770  1.6022
 8911TIP3    H248225   3.409   2.904   6.732  0.0024 -1.0299  0.5833
 8912TIP3   OH248226   4.330   0.623   4.589 -0.2277 -0.3879 -0.6110
 8912TIP3    H148227   4.379   0.706   4.593 -2.0051  0.6652  1.2117
 8912TIP3    H248228   4.376   0.572   4.522  1.5902  1.6294 -1.0417
 8913TIP3   OH248229   6.162   2.266  12.729 -0.3480 -0.5403  0.0291
 8913TIP3    H148230   6.090   2.253  12.790 -0.6327  0.9184  0.0396
 8913TIP3    H248231   6.171   2.182  12.684 -1.0348 -1.2174  1.0945
 8914TIP3   OH248232   4.585   5.540  14.385  0.2627 -0.0946  0.1919
 8914TIP3    H148233   4.531   5.579  14.454 -0.0768 -0.7521  0.2986
 8914TIP3    H248234   4.538   5.461  14.359  0.3324  0.1821 -0.8582
 8915TIP3   OH248235   3.240   2.423   4.528 -0.3163  0.0958 -0.3136
 8915TIP3    H148236   3.180   2.404   4.456 -0.5794 -2.0771  0.3912
 8915TIP3    H248237   3.195   2.487   4.582 -1.0546  0.1177 -0.9416
 8916TIP3   OH248238   0.484   1.949  11.477  0.0579 -0.0244  0.3349
 8916TIP3    H148239   0.421   2.020  11.492 -0.2365 -0.0744 -0.6474
 8916TIP3    H248240   0.565   1.981  11.517 -0.2418  0.5941  0.4630
 8917TIP3   OH248241   6.180   4.001  15.010  0.4052 -0.6290  0.0210
 8917TIP3    H148242   6.147   3.965  15.092 -0.0592  0.7053  0.4435
 8917TIP3    H248243   6.273   3.977  15.009  0.8075  0.7043  1.7360
 8918TIP3   OH248244   4.427   2.301  13.177  0.4436  0.2401 -0.0127
 8918TIP3    H148245   4.456   2.341  13.259  0.5159  1.7836 -0.7552
 8918TIP3    H248246   4.486   2.337  13.111  1.3695 -2.1300 -0.5873
 8919TIP3   OH248247   0.489   0.698   0.425  0.1768  0.0117  0.0397
 8919TIP3    H148248   0.423   0.742   0.479 -0.4032 -1.5014  0.6120
 8919TIP3    H248249   0.480   0.738   0.338 -0.6555  0.6623  0.4102
 8920TIP3   OH248250   1.499   2.416   2.216 -0.7236  0.5797  0.2644
 8920TIP3    H148251   1.580   2.380   2.251  0.1781  1.3714 -0.9195
 8920TIP3    H248252   1.524   2.501   2.180 -2.1673  1.0276  0.2544
 8921TIP3   OH248253   1.570   4.551   0.214  0.2788 -0.1350  0.0542
 8921TIP3    H148254   1.576   4.515   0.302 -0.9297 -0.1128  0.1678
 8921TIP3    H248255   1.573   4.646   0.227  4.3607 -0.0282 -0.3128
 8922TIP3   OH248256   2.795   6.016  13.321 -0.0141  0.3038 -0.4651
 8922TIP3    H148257   2.861   5.972  13.375 -0.5319  0.7367  0.5385
 8922TIP3    H248258   2.796   6.106  13.352 -0.3376  0.5557 -1.1762
 8923TIP3   OH248259   6.097   3.230  13.762 -0.2967 -0.2349  0.1184
 8923TIP3    H148260   6.154   3.156  13.744 -0.9495 -0.7062 -0.0431
 8923TIP3    H248261   6.063   3.256  13.676 -1.5034 -0.9286  0.3678
 8924TIP3   OH248262   6.041   4.946   5.477  0.1331  0.3275 -0.5018
 8924TIP3    H148263   6.007   4.856   5.472 -0.9003  0.5742  1.2313
 8924TIP3    H248264   6.053   4.961   5.571 -0.5083  2.2832 -0.7010
 8925TIP3   OH248265   2.178   0.696  14.716  0.3240  0.5111 -0.2021
 8925TIP3    H148266   2.086   0.671  14.729  0.6168 -0.2649  0.4355
 8925TIP3    H248267   2.185   0.782  14.757  0.3801 -0.3728  1.7438
 8926TIP3   OH248268   6.433   1.061  11.834 -0.0660  0.6070 -0.1648
 8926TIP3    H148269   6.462   1.151  11.845 -0.7080  0.9208 -0.9195
 8926TIP3    H248270   6.465   1.036  11.748 -0.5636  0.3855 -0.2878
 8927TIP3   OH248271   3.251   1.685  14.078 -0.6528 -0.4262  0.1505
 8927TIP3    H148272   3.322   1.639  14.123  1.1493  0.5340 -1.5635
 8927TIP3    H248273   3.211   1.739  14.145  2.0337  1.0896  0.6686
 8928TIP3   OH248274   4.527   3.338  16.737 -0.1965  0.5518 -0.3826
 8928TIP3    H148275   4.460   3.279  16.771 -0.0959 -0.0288 -1.1692
 8928TIP3    H248276   4.559   3.385  16.814 -1.0641  0.3859  0.0908
 8929TIP3   OH248277   0.413   4.903   2.915  0.0964  0.6623 -0.1463
 8929TIP3    H148278   0.449   4.875   2.831 -0.7289 -1.7924  0.2413
 8929TIP3    H248279   0.355   4.831   2.942 -0.1910  1.6743  2.2026
 8930TIP3   OH248280   2.004   1.040  13.586 -0.2017  0.0957 -0.5084
 8930TIP3    H148281   1.965   0.985  13.654 -0.9935  0.2420 -0.8282
 8930TIP3    H248282   2.071   1.090  13.632 -0.4975 -0.0474  0.1013
 8931TIP3   OH248283   5.311   5.145   6.231 -0.1920  0.1540  0.1526
 8931TIP3    H148284   5.316   5.222   6.174 -1.7609 -0.7127 -1.2170
 8931TIP3    H248285   5.266   5.176   6.309 -1.4667  0.5103 -0.6877
 8932TIP3   OH248286   3.781   2.248   5.370 -0.3088 -0.1931  0.3980
 8932TIP3    H148287   3.690   2.236   5.342 -0.7474 -0.3600  1.8199
 8932TIP3    H248288   3.794   2.343   5.368 -0.1843 -0.2120 -0.7194
 8933TIP3   OH248289   1.890   3.351  16.144 -0.2630  0.1004 -0.2405
 8933TIP3    H148290   1.980   3.337  16.171 -0.3982  1.7144  1.2064
 8933TIP3    H248291   1.838   3.302  16.208 -0.4594  0.3215 -0.2282
 8934TIP3   OH248292   3.200   6.225  14.758 -0.4431  0.3027 -0.0441
 8934TIP3    H148293   3.225   6.134  14.739  1.1454  0.7066  0.0047
 8934TIP3    H248294   3.283   6.272  14.765 -1.2456  2.0580 -1.4719
 8935TIP3   OH248295   3.723   6.302  11.880  0.6356  0.0211 -0.4170
 8935TIP3    H148296   3.781   6.374  11.906  0.8209 -0.0803 -0.5422
 8935TIP3    H248297   3.781   6.241  11.835  0.0440  0.9753 -2.6102
 8936TIP3   OH248298   4.924   5.111  11.316 -0.9900 -0.3425  0.0985
 8936TIP3    H148299   4.853   5.147  11.369  0.0670  0.3969  1.0375
 8936TIP3    H248300   5.003   5.129  11.366 -0.2332 -2.3484 -0.2803
 8937TIP3   OH248301   5.425   6.097   1.063 -0.4000  0.4221  0.2066
 8937TIP3    H148302   5.386   6.068   1.146 -1.2330 -1.3931 -0.7636
 8937TIP3    H248303   5.515   6.118   1.085 -0.4902 -0.4405  1.5063
 8938TIP3   OH248304   2.255   0.122   0.060 -0.4909  0.2216 -0.3027
 8938TIP3    H148305   2.351   0.118   0.067 -0.5958 -1.5596  0.8124
 8938TIP3    H248306   2.227   0.161   0.143 -0.7479  0.8693 -0.6851
 8939TIP3   OH248307   6.321   3.611  17.381  0.1679  0.1043 -0.3562
 8939TIP3    H148308   6.323   3.535  17.439 -0.6257  0.7562  0.5611
 8939TIP3    H248309   6.264   3.584  17.308 -0.3298 -0.0940  0.1000
 8940TIP3   OH248310   6.630   4.508  17.241 -0.0780 -0.1343  0.2695
 8940TIP3    H148311   6.674   4.423  17.246  0.2197  0.0837  1.9314
 8940TIP3    H248312   6.561   4.496  17.176  1.5052 -0.9078 -1.3601
 8941TIP3   OH248313   2.724   5.760   3.969  0.0868 -0.0485  0.6215
 8941TIP3    H148314   2.776   5.689   4.006 -0.7157 -0.3868  1.1155
 8941TIP3    H248315   2.749   5.837   4.021  0.4673 -0.1009  0.5198
 8942TIP3   OH248316   6.069   6.379   0.963 -0.5050  0.4703 -0.1013
 8942TIP3    H148317   6.164   6.378   0.971 -0.6241 -1.1898  1.7976
 8942TIP3    H248318   6.042   6.455   1.015 -0.2808  0.1837  0.4374
 8943TIP3   OH248319   1.577   2.878  12.388  0.0220 -0.0352  0.4929
 8943TIP3    H148320   1.638   2.819  12.343 -0.2853  0.1891 -0.2246
 8943TIP3    H248321   1.612   2.966  12.371 -0.4486  0.0884  0.1580
 8944TIP3   OH248322   2.242   3.788  13.819  0.1709  0.0145 -0.2127
 8944TIP3    H148323   2.241   3.716  13.757 -0.5423 -0.8492  0.7556
 8944TIP3    H248324   2.282   3.861  13.772 -1.5343 -0.1906 -2.1339
 8945TIP3   OH248325   5.750   3.823  14.254 -0.5448 -0.4705  0.2237
 8945TIP3    H148326   5.768   3.729  14.244  2.6085  0.0139  0.1876
 8945TIP3    H248327   5.815   3.852  14.319 -0.6038  1.8930 -0.6923
 8946TIP3   OH248328   5.506   0.108   3.490 -0.1608 -0.4059 -0.8381
 8946TIP3    H148329   5.443   0.041   3.464  0.0480 -0.3321 -1.5488
 8946TIP3    H248330   5.588   0.082   3.447 -0.2656  0.7059 -1.7605
 8947TIP3   OH248331   5.493   4.711  15.120 -0.1998  0.0197  0.6813
 8947TIP3    H148332   5.465   4.740  15.207 -0.7507 -0.1040  0.5525
 8947TIP3    H248333   5.584   4.684  15.132 -0.8568 -1.9384  1.7013
 8948TIP3   OH248334   3.653   1.423  17.458 -0.3205 -0.1232 -0.2367
 8948TIP3    H148335   3.610   1.338  17.456  0.3566 -0.4532 -1.5161
 8948TIP3    H248336   3.602   1.474  17.522  0.4346 -2.0641  2.0716
 8949TIP3   OH248337   1.307   4.741  11.286 -0.1264 -0.1841 -0.5288
 8949TIP3    H148338   1.252   4.779  11.217 -1.5060 -1.0610  0.0462
 8949TIP3    H248339   1.263   4.660  11.309  1.8760 -1.3543 -0.5917
 8950TIP3   OH248340   5.459   3.906  15.529 -0.4996  0.7357 -0.4801
 8950TIP3    H148341   5.518   3.932  15.600  0.1260 -0.5858 -0.4912
 8950TIP3    H248342   5.468   3.975  15.464  1.3075  0.4058 -0.6317
 8951TIP3   OH248343   4.610   5.973  11.891 -0.0868  0.3647 -0.4600
 8951TIP3    H148344   4.583   5.983  11.982  1.1375  0.4180 -0.0792
 8951TIP3    H248345   4.549   5.909  11.854  1.0102 -1.7496  1.1659
 8952TIP3   OH248346   2.951   5.848  17.045 -0.2583  0.2055 -0.2598
 8952TIP3    H148347   2.861   5.880  17.057 -0.8700 -1.6863  0.6103
 8952TIP3    H248348   3.000   5.885  17.117 -0.5679  0.4734 -0.1847
 8953TIP3   OH248349   2.700   5.449  17.110 -0.8105 -0.0571 -0.1916
 8953TIP3    H148350   2.672   5.518  17.050 -0.3692  0.9124  0.6688
 8953TIP3    H248351   2.795   5.442  17.095 -0.4668  1.0648  1.1986
 8954TIP3   OH248352   2.325   5.248   2.849 -0.0379 -0.1379  0.3549
 8954TIP3    H148353   2.388   5.304   2.804 -0.1238 -0.7425 -0.5404
 8954TIP3    H248354   2.240   5.284   2.825 -0.0600  0.1252  0.8241
 8955TIP3   OH248355   2.371   5.095   4.730 -0.3528 -0.3033 -0.5446
 8955TIP3    H148356   2.318   5.018   4.748  1.5864 -1.1016  2.6198
 8955TIP3    H248357   2.453   5.060   4.696  0.8592  0.1781  1.7078
 8956TIP3   OH248358   0.458   3.092  16.423 -0.0752  0.7827  0.1933
 8956TIP3    H148359   0.451   3.110  16.329  2.2037  3.1555  0.3656
 8956TIP3    H248360   0.407   3.161  16.465  0.0299  0.5511  0.7102
 8957TIP3   OH248361   2.662   2.227   2.661  0.3745  0.0464 -0.1516
 8957TIP3    H148362   2.708   2.210   2.743 -0.8307 -0.6080  0.4129
 8957TIP3    H248363   2.725   2.277   2.609  0.9625  0.9613  1.3676
 8958TIP3   OH248364   5.689   5.144  16.658  0.4169  0.1182  0.0786
 8958TIP3    H148365   5.658   5.183  16.739  0.7481  1.5828 -0.4682
 8958TIP3    H248366   5.785   5.146  16.664  0.4752  1.4598 -0.8704
 8959TIP3   OH248367   0.303   2.960   1.605 -0.6114 -0.5820  0.4152
 8959TIP3    H148368   0.226   2.951   1.661  0.3801  0.7026  2.0598
 8959TIP3    H248369   0.373   2.987   1.664  1.3290 -2.4292 -0.8901
 8960TIP3   OH248370   2.379   1.172   1.968  0.2582 -0.6074  0.6383
 8960TIP3    H148371   2.301   1.117   1.973  0.5160 -1.1868 -1.1974
 8960TIP3    H248372   2.345   1.259   1.947  0.1246 -0.9955 -0.8368
 8961TIP3   OH248373   1.043   0.915   2.504 -0.1499  0.1237  0.4827
 8961TIP3    H148374   1.127   0.920   2.458 -0.3242 -0.1558  0.1306
 8961TIP3    H248375   1.067   0.916   2.597  0.1646  1.2643  0.3983
 8962TIP3   OH248376   1.759   0.406  12.471 -0.0150 -0.0923 -0.0137
 8962TIP3    H148377   1.790   0.402  12.381  0.4292 -0.6774  0.1603
 8962TIP3    H248378   1.666   0.383  12.465 -0.1241  0.4184 -0.3811
 8963TIP3   OH248379   5.279   3.431  15.609 -0.0224  0.3976 -0.4019
 8963TIP3    H148380   5.367   3.416  15.644 -1.1664  1.7789  3.6831
 8963TIP3    H248381   5.285   3.516  15.567  0.6193  0.4797 -0.1637
 8964TIP3   OH248382   5.366   4.895   3.835  0.4475  0.6002  0.1807
 8964TIP3    H148383   5.410   4.846   3.905  1.7832 -0.1543 -1.1390
 8964TIP3    H248384   5.371   4.838   3.759 -0.5555  1.6129 -0.6765
 8965TIP3   OH248385   0.030   5.287   4.914 -0.3101 -0.1096  0.0970
 8965TIP3    H148386   0.057   5.227   4.844  1.6355  1.8194 -0.9045
 8965TIP3    H248387  -0.035   5.344   4.873  1.5410  1.6503 -0.5167
 8966TIP3   OH248388   6.176   6.082   2.142 -0.1377  0.1654 -0.0406
 8966TIP3    H148389   6.186   6.141   2.217  1.2726 -0.5939  0.3948
 8966TIP3    H248390   6.255   6.028   2.143  0.3640  0.7213 -2.6135
 8967TIP3   OH248391   0.818   4.148  15.832  0.2156 -0.4233 -0.0169
 8967TIP3    H148392   0.756   4.211  15.869  0.2061  0.5200 -1.5235
 8967TIP3    H248393   0.812   4.071  15.889 -0.0521  0.7812  1.6597
 8968TIP3   OH248394   5.321   2.597   6.030  0.0128 -0.3096 -0.4102
 8968TIP3    H148395   5.355   2.587   6.119  1.9242 -1.7671 -1.2103
 8968TIP3    H248396   5.240   2.547   6.029  0.7207 -1.5289  0.1791
 8969TIP3   OH248397   1.058   5.256  15.547 -0.4697 -0.6421  0.2969
 8969TIP3    H148398   1.111   5.331  15.575 -0.4427 -0.4999 -0.1279
 8969TIP3    H248399   1.104   5.180  15.582  0.4558 -0.5759 -0.7401
 8970TIP3   OH248400   5.897   0.288  16.344 -0.7618  0.6267  0.0768
 8970TIP3    H148401   5.951   0.348  16.291  0.4548  0.6571  1.2960
 8970TIP3    H248402   5.913   0.202  16.305  1.5757  0.3736  1.4272
 8971TIP3   OH248403   3.101   4.277   2.758 -0.4121  0.3382  0.2890
 8971TIP3    H148404   3.015   4.254   2.795 -0.5419 -0.5677 -0.5393
 8971TIP3    H248405   3.116   4.211   2.690  0.4185  1.1834 -0.3633
 8972TIP3   OH248406   0.946   2.382  10.589 -0.2218 -0.0660 -0.6914
 8972TIP3    H148407   0.923   2.462  10.541  0.5032  0.3768 -0.3085
 8972TIP3    H248408   0.976   2.413  10.674 -1.6177 -0.8590  0.1154
 8973TIP3   OH248409   0.354   2.832  13.215  0.1425 -0.5300 -0.1487
 8973TIP3    H148410   0.327   2.762  13.155 -2.2141 -0.2313  0.4704
 8973TIP3    H248411   0.294   2.905  13.197  0.1554  0.0086  1.6892
 8974TIP3   OH248412   4.406   2.124   3.184  0.9906  0.5695 -0.4551
 8974TIP3    H148413   4.317   2.158   3.185  0.2381 -1.2083 -1.4627
 8974TIP3    H248414   4.418   2.094   3.094  2.3801  0.2043 -0.1613
 8975TIP3   OH248415   2.553   3.185   6.606 -0.3660 -0.2891  0.2381
 8975TIP3    H148416   2.514   3.180   6.518 -0.2395 -1.6298  0.2401
 8975TIP3    H248417   2.620   3.117   6.606  0.3150  0.3633  1.0620
 8976TIP3   OH248418   1.512   3.625   4.090 -0.7240  0.4951  0.4423
 8976TIP3    H148419   1.573   3.576   4.145  1.4412  0.6367 -1.6675
 8976TIP3    H248420   1.490   3.565   4.018 -0.2652  1.6320 -0.6847
 8977TIP3   OH248421   5.672   6.309  14.403 -0.6100  0.0018 -0.3855
 8977TIP3    H148422   5.750   6.253  14.408  0.5029  1.2846 -2.1588
 8977TIP3    H248423   5.659   6.341  14.492  0.8870 -0.2776 -0.0409
 8978TIP3   OH248424   0.383   3.231  14.556 -0.4558 -0.4177 -0.1268
 8978TIP3    H148425   0.448   3.233  14.486  0.6365  0.6517  0.8580
 8978TIP3    H248426   0.306   3.191  14.517  0.1422  0.0780 -1.9015
 8979TIP3   OH248427   2.354   0.256  12.782  0.4451  0.2339 -0.1677
 8979TIP3    H148428   2.346   0.164  12.758  1.2790  0.8231 -3.0890
 8979TIP3    H248429   2.265   0.282  12.807 -0.6369 -0.5175 -2.9083
 8980TIP3   OH248430   0.414   4.665  17.274  1.2712  0.0462  0.4079
 8980TIP3    H148431   0.320   4.682  17.275  0.9607 -0.5919 -3.7029
 8980TIP3    H248432   0.421   4.570  17.276  1.7565  0.0553 -0.6353
 8981TIP3   OH248433   1.845   1.135   0.441  0.2411 -0.2016  0.0542
 8981TIP3    H148434   1.847   1.141   0.346  0.0129 -0.1029  0.0562
 8981TIP3    H248435   1.819   1.044   0.459 -1.0570  0.1357  0.0139
 8982TIP3   OH248436   2.409   0.547  13.119 -0.2505  0.1930  0.7441
 8982TIP3    H148437   2.431   0.549  13.026 -1.8105 -2.7516  0.1775
 8982TIP3    H248438   2.314   0.531  13.120 -0.1596 -0.4803  2.8014
 8983TIP3   OH248439   2.142   5.787   2.940  0.0181  1.0876  0.5957
 8983TIP3    H148440   2.224   5.776   2.987  1.3399  0.5299 -1.6888
 8983TIP3    H248441   2.160   5.856   2.876 -0.0814 -1.3575 -2.2866
 8984TIP3   OH248442   4.433   2.595   3.287 -0.2811 -0.4197 -0.2329
 8984TIP3    H148443   4.401   2.543   3.214 -2.2243  0.4295 -0.0478
 8984TIP3    H248444   4.436   2.685   3.254  2.2333 -0.4320 -0.2910
 8985TIP3   OH248445   6.243   0.692  15.815  0.7158 -0.3774 -0.6752
 8985TIP3    H148446   6.317   0.672  15.873  0.2095 -0.8210 -0.1623
 8985TIP3    H248447   6.183   0.742  15.871  0.4020 -0.4619 -0.9381
 8986TIP3   OH248448   6.746   3.318  13.200  0.7497  0.0511  0.1941
 8986TIP3    H148449   6.791   3.403  13.201  1.7819 -0.4930  0.4409
 8986TIP3    H248450   6.656   3.339  13.226  0.7309  1.2074 -0.7077
 8987TIP3   OH248451   2.494   3.322   1.091  0.2437 -0.1806 -0.0931
 8987TIP3    H148452   2.543   3.359   1.017 -1.2692  0.0518 -1.0164
 8987TIP3    H248453   2.526   3.371   1.167  3.0897 -1.5889 -0.2294
 8988TIP3   OH248454   0.202   4.069   6.208 -0.5743  0.4143 -0.2242
 8988TIP3    H148455   0.228   4.161   6.218  0.8673  0.2269 -1.7304
 8988TIP3    H248456   0.143   4.053   6.281 -0.6677  2.4677  0.2241
 8989TIP3   OH248457   1.208   2.277   2.547  0.2057  0.0605  0.0317
 8989TIP3    H148458   1.210   2.318   2.461  1.5646  2.1512  0.9768
 8989TIP3    H248459   1.115   2.274   2.571 -0.0839  0.5562 -0.9978
 8990TIP3   OH248460   3.231   2.283   6.623 -0.3070 -0.3591  0.2389
 8990TIP3    H148461   3.319   2.316   6.642  0.8309 -2.5408 -0.7944
 8990TIP3    H248462   3.210   2.225   6.697  0.0647 -1.4715 -0.4987
 8991TIP3   OH248463   4.791   2.391  16.911  0.0876 -0.3338  0.4860
 8991TIP3    H148464   4.792   2.480  16.947 -0.7691 -0.3124  0.4724
 8991TIP3    H248465   4.884   2.370  16.899  0.3132  0.4672  0.7037
 8992TIP3   OH248466   3.637   1.978  17.228  0.0126  0.2459 -0.2016
 8992TIP3    H148467   3.550   1.973  17.188  0.3165 -0.3989 -0.7955
 8992TIP3    H248468   3.696   2.000  17.156  0.4714 -0.2785  0.0039
 8993TIP3   OH248469   2.290   1.351  17.422 -0.8911 -0.2876 -0.1648
 8993TIP3    H148470   2.380   1.329  17.398 -0.0965  2.2062  0.2704
 8993TIP3    H248471   2.269   1.294  17.496  0.4981 -0.5741  0.0236
 8994TIP3   OH248472   4.051   2.540   5.687 -0.4606 -0.3224 -0.0806
 8994TIP3    H148473   3.979   2.479   5.672  0.2938 -1.4048  0.5314
 8994TIP3    H248474   4.120   2.486   5.726  0.4066  0.8365  0.0384
 8995TIP3   OH248475   3.424   0.086   3.345  0.2919  0.2282 -0.7536
 8995TIP3    H148476   3.407   0.111   3.436  1.2961  1.7568 -0.9491
 8995TIP3    H248477   3.424   0.169   3.297  1.0128 -0.4300 -1.9434
 8996TIP3   OH248478   4.045   0.892  16.523 -1.0179  0.6145  0.4197
 8996TIP3    H148479   4.030   0.809  16.570  1.1782  1.0226  2.0193
 8996TIP3    H248480   4.140   0.903  16.525 -1.1053  2.2054 -1.5398
 8997TIP3   OH248481   4.494   4.030   0.670 -0.2714  0.3233 -0.1707
 8997TIP3    H148482   4.416   4.070   0.709 -0.7158 -2.6238  2.3449
 8997TIP3    H248483   4.465   4.001   0.583 -2.4955 -1.7893  1.1543
 8998TIP3   OH248484   2.066   0.678  15.049 -0.2106 -0.2589 -0.6096
 8998TIP3    H148485   1.985   0.657  15.096  0.0404  1.7383  0.8242
 8998TIP3    H248486   2.134   0.678  15.117  0.6432  0.0776 -1.4426
 8999TIP3   OH248487   0.283   2.516   4.573  0.6743  0.2876 -0.4145
 8999TIP3    H148488   0.319   2.599   4.541  2.6706  0.0574  1.0861
 8999TIP3    H248489   0.188   2.525   4.560  0.7946  2.9453  0.0417
 9000TIP3   OH248490   1.344   2.659  13.501 -0.8103 -0.1816  0.1562
 9000TIP3    H148491   1.361   2.566  13.517  1.1445  0.3051  1.3022
 9000TIP3    H248492   1.388   2.677  13.418  1.7506  0.3341  1.4925
 9001TIP3   OH248493   2.609   5.846  13.825 -0.2151 -0.2054  0.5393
 9001TIP3    H148494   2.580   5.920  13.771 -2.9040 -0.5747  1.3504
 9001TIP3    H248495   2.576   5.769  13.780 -0.5246 -0.6588  1.5211
 9002TIP3   OH248496   0.794   5.353  16.399 -0.0385 -0.0008  0.3177
 9002TIP3    H148497   0.841   5.350  16.316 -1.1612  0.8778 -0.3723
 9002TIP3    H248498   0.846   5.411  16.455  0.3391 -0.0168 -0.0183
 9003TIP3   OH248499   5.092   4.709  13.663 -0.1066 -0.0712 -0.4496
 9003TIP3    H148500   5.035   4.651  13.714 -0.4300  1.9406  1.6652
 9003TIP3    H248501   5.055   4.707  13.575 -0.6734 -2.2895 -0.2237
 9004TIP3   OH248502   3.787   1.001   6.220  0.3196  0.1396  0.6270
 9004TIP3    H148503   3.852   0.965   6.280  1.1650 -0.0177 -0.3617
 9004TIP3    H248504   3.835   1.063   6.165  0.3073 -1.9562 -1.9384
 9005TIP3   OH248505   0.371   0.799  16.455 -0.2115 -0.4853 -0.2858
 9005TIP3    H148506   0.461   0.821  16.429  0.0462  0.5650  1.3157
 9005TIP3    H248507   0.318   0.871  16.421 -0.4748 -1.1481 -1.3031
 9006TIP3   OH248508   6.325   2.554  13.854 -0.0414 -0.2863  0.3524
 9006TIP3    H148509   6.337   2.481  13.792  0.8432 -0.0004  0.1689
 9006TIP3    H248510   6.381   2.624  13.819 -0.9049  0.4943  0.5146
 9007TIP3   OH248511   6.574   3.592   4.071 -0.3448 -0.3251  0.1839
 9007TIP3    H148512   6.522   3.512   4.060  1.2187 -1.2031 -1.1399
 9007TIP3    H248513   6.652   3.564   4.118  1.3199 -0.1287 -2.2806
 9008TIP3   OH248514   5.997   5.382  12.242  0.4168  0.3452 -0.3712
 9008TIP3    H148515   6.046   5.371  12.161 -0.5548 -0.4370 -0.8854
 9008TIP3    H248516   6.058   5.356  12.311  0.8484 -0.2310 -0.9604
 9009TIP3   OH248517   3.967   0.187  15.748 -0.0720 -0.5609  0.9473
 9009TIP3    H148518   3.925   0.102  15.760  0.3361 -0.9423 -0.1710
 9009TIP3    H248519   3.966   0.228  15.835 -3.5039 -0.1608  0.8362
 9010TIP3   OH248520   2.036   0.907   3.215  0.1536  0.2327 -0.4321
 9010TIP3    H148521   2.091   0.966   3.164 -0.6284  1.4148  0.0360
 9010TIP3    H248522   1.951   0.950   3.216 -0.7433 -1.4716 -0.9878
 9011TIP3   OH248523   2.774   1.828  13.432  0.3631  0.6648 -0.1689
 9011TIP3    H148524   2.708   1.883  13.475  0.8495  1.8428 -0.8626
 9011TIP3    H248525   2.751   1.830  13.339 -0.3442 -1.3894 -0.0854
 9012TIP3   OH248526   0.147   0.042  14.516  0.4508  0.1383  0.0808
 9012TIP3    H148527   0.126  -0.050  14.500 -1.3378  0.5033  0.1412
 9012TIP3    H248528   0.186   0.042  14.603 -1.0606 -0.4077  0.8040
 9013TIP3   OH248529   5.374   5.831   2.946  0.7325  0.3529  0.0307
 9013TIP3    H148530   5.294   5.799   2.904  0.7157  0.4490 -0.0086
 9013TIP3    H248531   5.424   5.871   2.876  0.7340  0.4535  0.0892
 9014TIP3   OH248532   1.768   5.733  13.937 -0.3085 -0.1543  0.3019
 9014TIP3    H148533   1.674   5.748  13.936 -0.4695 -0.8589 -2.5732
 9014TIP3    H248534   1.778   5.638  13.932  0.4980 -0.0279 -1.0022
 9015TIP3   OH248535   4.540   2.498  11.528  0.2035 -0.5644  0.2923
 9015TIP3    H148536   4.477   2.426  11.520 -0.3075 -0.2612  1.3726
 9015TIP3    H248537   4.570   2.494  11.618 -0.2041  0.8739  0.5204
 9016TIP3   OH248538   4.404   4.997   5.253 -0.5626 -0.0314  0.0279
 9016TIP3    H148539   4.441   5.065   5.309 -0.5673  0.2380 -0.2972
 9016TIP3    H248540   4.312   4.991   5.280 -1.3980  2.2235 -1.9774
 9017TIP3   OH248541   5.529   3.855  16.003  0.8118 -0.3893 -0.1470
 9017TIP3    H148542   5.582   3.794  15.951 -0.9423 -2.6941  0.5588
 9017TIP3    H248543   5.547   3.830  16.094  0.7042  0.7794  0.2099
 9018TIP3   OH248544   5.916   2.054   1.800  0.1278 -0.4058 -0.1958
 9018TIP3    H148545   5.847   2.015   1.746 -1.7935  1.0428  1.0932
 9018TIP3    H248546   5.991   1.994   1.790 -0.8090 -1.2845 -2.7626
 9019TIP3   OH248547   0.566   2.002  12.638 -0.1775 -0.1949  0.0777
 9019TIP3    H148548   0.576   2.026  12.731  0.4156  2.5516 -0.5920
 9019TIP3    H248549   0.505   1.929  12.639 -0.2996 -0.1735  2.6269
 9020TIP3   OH248550   1.638   1.036  15.407 -0.1373  0.6949 -0.4470
 9020TIP3    H148551   1.601   1.093  15.475 -0.1312  0.6027 -0.3656
 9020TIP3    H248552   1.665   1.096  15.338 -2.2289  0.6321 -1.3772
 9021TIP3   OH248553   3.948   2.673   2.005  0.0109 -0.5999 -0.1967
 9021TIP3    H148554   3.885   2.726   2.055 -0.5210  1.0143 -2.4117
 9021TIP3    H248555   3.942   2.586   2.045 -1.1619  0.3029  1.8029
 9022TIP3   OH248556   2.249   1.683  15.396 -0.5224  0.0442 -0.2774
 9022TIP3    H148557   2.256   1.683  15.301 -2.2303  2.9361 -0.5221
 9022TIP3    H248558   2.291   1.764  15.424 -2.4341  0.6441  1.1124
 9023TIP3   OH248559   3.380   2.240   2.602 -0.2728  0.1793 -0.0589
 9023TIP3    H148560   3.426   2.227   2.685  0.1643  1.0712 -0.1485
 9023TIP3    H248561   3.353   2.152   2.575 -0.3986 -0.1183  1.0110
 9024TIP3   OH248562   4.676   4.108  15.079 -0.0169  0.4903  0.0931
 9024TIP3    H148563   4.584   4.108  15.052 -0.1952  1.0352  0.6515
 9024TIP3    H248564   4.714   4.183  15.033  0.1666  0.2161 -0.2006
 9025TIP3   OH248565   6.465   0.508   2.313  0.2967  0.1458 -0.1028
 9025TIP3    H148566   6.508   0.460   2.242  0.9665  0.2481  0.2277
 9025TIP3    H248567   6.430   0.439   2.371 -1.4741  0.0411 -1.2229
 9026TIP3   OH248568   4.833   5.719   1.333 -0.3648 -0.5949 -0.1311
 9026TIP3    H148569   4.791   5.671   1.405  0.6825 -1.9878 -0.4068
 9026TIP3    H248570   4.828   5.810   1.360  0.3472 -1.1013  1.9360
 9027TIP3   OH248571   3.502   1.497   4.062 -0.4994 -0.1826  0.3189
 9027TIP3    H148572   3.568   1.564   4.042 -1.0854  1.2014  2.5852
 9027TIP3    H248573   3.435   1.508   3.995 -0.2102  1.0154  0.2043
 9028TIP3   OH248574   1.605   5.804   0.370  0.3800  0.1665 -0.3307
 9028TIP3    H148575   1.603   5.725   0.425  3.6871  1.2655  1.6877
 9028TIP3    H248576   1.567   5.872   0.426 -0.6065  0.4230 -1.2916
 9029TIP3   OH248577   3.482   1.407  12.285 -0.6655  0.5001  0.1077
 9029TIP3    H148578   3.502   1.354  12.362  0.6739  0.1592 -0.4492
 9029TIP3    H248579   3.409   1.462  12.313  0.3333  0.9966  1.9066
 9030TIP3   OH248580   0.754   6.134   1.292 -0.5953  0.5660 -0.3559
 9030TIP3    H148581   0.786   6.068   1.231 -0.9433 -1.1488  1.2298
 9030TIP3    H248582   0.658   6.129   1.284 -0.6254  1.0574 -0.3667
 9031TIP3   OH248583   6.613   4.432   6.067  0.3139 -0.7068  0.0955
 9031TIP3    H148584   6.705   4.450   6.084 -0.2910  1.6293  1.3110
 9031TIP3    H248585   6.570   4.444   6.152 -1.5752  2.1912 -1.0834
 9032TIP3   OH248586   4.532   1.222   0.803 -0.8578 -0.0083  0.1313
 9032TIP3    H148587   4.573   1.275   0.872  0.6912  1.5320 -1.8534
 9032TIP3    H248588   4.564   1.260   0.721 -1.6144 -2.5554 -1.4660
 9033TIP3   OH248589   3.387   5.468   3.390  0.3389 -0.2695 -0.1054
 9033TIP3    H148590   3.304   5.514   3.399  1.1799  1.1563  0.7085
 9033TIP3    H248591   3.392   5.411   3.467  1.1344  1.4164  1.1668
 9034TIP3   OH248592   5.889   6.766   4.436 -0.1997 -0.1071  0.6585
 9034TIP3    H148593   5.929   6.802   4.515  1.4863 -0.0106 -0.1815
 9034TIP3    H248594   5.878   6.673   4.455  1.9011 -0.4687  0.4419
 9035TIP3   OH248595   2.147   0.784   2.295  0.4158 -0.4985  0.6111
 9035TIP3    H148596   2.065   0.813   2.337  1.0640  2.0260  0.2848
 9035TIP3    H248597   2.195   0.865   2.278  2.5821 -1.8527 -0.0959
 9036TIP3   OH248598   2.212   4.870  15.735  0.3009  0.0501 -0.6458
 9036TIP3    H148599   2.193   4.963  15.720 -1.1758 -0.3062 -1.0583
 9036TIP3    H248600   2.222   4.833  15.648 -1.7033 -0.6878 -0.5939
 9037TIP3   OH248601   5.587   4.934   0.081  0.3115  0.5025  0.4808
 9037TIP3    H148602   5.531   5.008   0.103  1.6287  2.1130 -1.2185
 9037TIP3    H248603   5.675   4.972   0.073  0.9293 -1.1155 -1.0397
 9038TIP3   OH248604   0.507   4.638   3.066 -0.5702 -0.2559 -0.5903
 9038TIP3    H148605   0.430   4.667   3.114 -0.4811 -1.2256  0.1819
 9038TIP3    H248606   0.538   4.562   3.115 -0.1935 -0.9997 -1.9311
 9039TIP3   OH248607   6.288   1.704   4.718 -0.2008 -0.0225 -0.6294
 9039TIP3    H148608   6.286   1.723   4.812 -0.6018 -2.4582 -0.0706
 9039TIP3    H248609   6.199   1.725   4.688 -0.7370 -1.2093  0.0319
 9040TIP3   OH248610   3.515   3.562   0.533 -0.2102 -0.0953  0.3498
 9040TIP3    H148611   3.540   3.486   0.480  0.5902 -1.0672  2.0440
 9040TIP3    H248612   3.522   3.636   0.473  0.3231 -1.1767 -0.9934
 9041TIP3   OH248613   1.251   2.607   1.957 -0.7825 -0.1792  0.1682
 9041TIP3    H148614   1.251   2.514   1.935  0.0005  0.1890 -1.5566
 9041TIP3    H248615   1.335   2.623   2.000 -1.0349 -0.3120  0.7183
 9042TIP3   OH248616   5.612   3.763  12.020 -0.4357 -0.1733  0.1860
 9042TIP3    H148617   5.573   3.691  11.971  1.1232 -0.3103 -0.9538
 9042TIP3    H248618   5.623   3.729  12.109 -0.4431 -1.0679 -0.1435
 9043TIP3   OH248619   2.831   1.131  11.504 -0.1343 -0.8336 -0.0359
 9043TIP3    H148620   2.866   1.088  11.426  0.6438 -0.3532  0.0397
 9043TIP3    H248621   2.820   1.061  11.568  0.9958 -0.9474  0.0448
 9044TIP3   OH248622   3.427   3.065  11.225 -0.4799  0.0853 -0.2949
 9044TIP3    H148623   3.500   3.094  11.279 -1.3502 -0.4159  1.2038
 9044TIP3    H248624   3.468   3.009  11.159  0.4817 -0.4207  0.6872
 9045TIP3   OH248625   3.074   2.199   6.082 -0.3945  0.0898 -0.4995
 9045TIP3    H148626   3.154   2.223   6.130 -1.5415  1.1074  0.9862
 9045TIP3    H248627   3.014   2.168   6.150 -1.3548 -0.4429 -1.5704
 9046TIP3   OH248628   2.958   0.041   1.305 -0.0386  0.4830 -0.7012
 9046TIP3    H148629   2.999   0.075   1.384 -2.5859 -0.4182  1.1445
 9046TIP3    H248630   2.916   0.118   1.266  1.4337  0.9787 -1.3809
 9047TIP3   OH248631   4.166   6.118   1.121 -0.1417  0.1170 -0.6570
 9047TIP3    H148632   4.156   6.170   1.041  0.2616 -0.4247 -1.0722
 9047TIP3    H248633   4.231   6.166   1.172 -0.9958  0.8991 -0.2732
 9048TIP3   OH248634   1.734   0.393  16.914 -0.0765  0.4149 -0.1954
 9048TIP3    H148635   1.775   0.311  16.942  0.6013  0.4581 -1.0383
 9048TIP3    H248636   1.798   0.433  16.856 -1.3339  0.4610 -1.6021
 9049TIP3   OH248637   2.903   5.590  12.403  0.6970  0.3841 -0.3200
 9049TIP3    H148638   2.890   5.652  12.331  0.7055  0.1692 -0.5042
 9049TIP3    H248639   2.875   5.639  12.481 -0.3777  0.2451 -0.5930
 9050TIP3   OH248640   5.588   4.102   4.305  0.0169  0.2092 -0.3801
 9050TIP3    H148641   5.547   4.028   4.350  2.0134 -0.0212  1.2208
 9050TIP3    H248642   5.539   4.111   4.224 -1.7933 -1.3434  0.4618
 9051TIP3   OH248643   2.628   1.933   0.903 -0.4255 -0.2961  0.1479
 9051TIP3    H148644   2.567   2.001   0.930  2.3609  1.9237  1.3855
 9051TIP3    H248645   2.613   1.861   0.965 -2.1101 -0.0796  0.0368
 9052TIP3   OH248646   3.127   0.908   5.900  0.0373  0.2603  0.2404
 9052TIP3    H148647   3.045   0.860   5.914 -1.2981  1.8079 -1.6387
 9052TIP3    H248648   3.193   0.840   5.888 -1.4383 -1.1262 -0.5592
 9053TIP3   OH248649   5.886   1.087   4.082 -0.2144 -0.5501  0.2493
 9053TIP3    H148650   5.935   1.013   4.117  0.3325 -1.5038 -2.2679
 9053TIP3    H248651   5.812   1.047   4.036  0.0151  0.4194 -1.0438
 9054TIP3   OH248652   3.954   6.646   4.580 -0.0598 -0.1175 -0.6479
 9054TIP3    H148653   3.946   6.708   4.653  0.0746  0.0663 -0.7865
 9054TIP3    H248654   3.866   6.641   4.544 -0.3496 -0.9621  0.1302
 9055TIP3   OH248655   4.159   4.715  16.608 -0.2887 -0.0326  0.6166
 9055TIP3    H148656   4.225   4.765  16.656 -1.2221  1.0996  0.7824
 9055TIP3    H248657   4.159   4.630  16.651 -0.5003  0.6756  2.1197
 9056TIP3   OH248658   3.918   3.874  15.815  1.1337 -0.0266  0.1039
 9056TIP3    H148659   3.993   3.933  15.826  2.5403 -1.4241 -1.4830
 9056TIP3    H248660   3.952   3.788  15.838  0.4112 -0.8968 -1.9463
 9057TIP3   OH248661   2.286   6.562  13.030  0.5254  0.1334 -0.2056
 9057TIP3    H148662   2.242   6.643  13.004  2.3597  1.2650  0.0538
 9057TIP3    H248663   2.373   6.567  12.991  1.1495 -1.0748  0.9205
 9058TIP3   OH248664   2.004   0.075   0.570  0.6109 -0.5204  0.6597
 9058TIP3    H148665   1.917   0.044   0.597 -0.1234 -0.1135 -1.1277
 9058TIP3    H248666   1.994   0.170   0.564  1.2271 -0.4614  0.5534
 9059TIP3   OH248667   3.255   5.812  11.160  0.4539  0.2946 -0.8131
 9059TIP3    H148668   3.208   5.794  11.241  0.9087  2.2037 -0.0722
 9059TIP3    H248669   3.186   5.824  11.094 -0.0357  1.0479 -0.1822
 9060TIP3   OH248670   3.241   6.071  16.951 -0.0125  0.3383 -0.2414
 9060TIP3    H148671   3.281   6.125  17.019  1.3699 -0.4164 -0.4147
 9060TIP3    H248672   3.280   5.984  16.963  2.6105  0.7940 -3.7645
 9061TIP3   OH248673   4.495   1.713  10.584  0.2953 -0.1533  0.1647
 9061TIP3    H148674   4.506   1.624  10.620 -1.2204 -0.7647 -0.7839
 9061TIP3    H248675   4.571   1.725  10.527  0.0993 -1.1945 -0.3451
 9062TIP3   OH248676   2.441   2.511   4.651 -0.0110 -0.3102  0.0281
 9062TIP3    H148677   2.441   2.583   4.589  0.2652 -1.3012 -1.1807
 9062TIP3    H248678   2.529   2.473   4.643 -0.4233 -1.2863  0.0087
 9063TIP3   OH248679   5.758   2.397   3.767 -0.0999 -0.4845  0.0934
 9063TIP3    H148680   5.727   2.356   3.848  0.8169  0.2021  0.8172
 9063TIP3    H248681   5.747   2.491   3.782 -0.4367 -0.3760 -0.8032
 9064TIP3   OH248682   1.789   6.731   4.976  0.0699 -0.2493  0.2616
 9064TIP3    H148683   1.757   6.727   5.066  0.3751 -1.5453  0.3249
 9064TIP3    H248684   1.773   6.822   4.949 -3.5928 -0.7697  0.2700
 9065TIP3   OH248685   3.840   5.540  16.336 -0.0229  0.1550 -0.3880
 9065TIP3    H148686   3.860   5.519  16.245 -0.3140 -0.2377 -0.3654
 9065TIP3    H248687   3.750   5.572  16.334  0.4872  1.7022 -0.4615
 9066TIP3   OH248688   0.869   5.439   1.915  0.2154  0.5557  1.2566
 9066TIP3    H148689   0.886   5.533   1.913  2.1039  0.2475 -1.2124
 9066TIP3    H248690   0.949   5.398   1.882 -1.1264 -1.8332  0.6655
 9067TIP3   OH248691   2.209   1.913  17.307 -0.6840  0.1048 -0.0294
 9067TIP3    H148692   2.159   1.853  17.252 -0.0106  0.6865 -1.3260
 9067TIP3    H248693   2.143   1.972  17.344 -1.2870 -1.0758  0.8448
 9068TIP3   OH248694   3.124   1.890   4.204 -0.1697  0.3252  0.0250
 9068TIP3    H148695   3.220   1.884   4.205 -0.2379 -0.9564 -0.3580
 9068TIP3    H248696   3.097   1.850   4.286 -0.4448 -1.1162 -0.7348
 9069TIP3   OH248697   0.335   0.439   4.854  0.3367 -0.1734 -0.9677
 9069TIP3    H148698   0.290   0.421   4.936 -0.6975  2.4202 -0.8688
 9069TIP3    H248699   0.402   0.504   4.877  2.3148 -1.8399 -1.6467
 9070TIP3   OH248700   5.905   4.282  12.261  0.6498 -1.0779  0.8896
 9070TIP3    H148701   5.963   4.316  12.193 -0.9037 -0.4513 -0.1705
 9070TIP3    H248702   5.880   4.359  12.312 -6.2488  0.9214 -3.9836
 9071TIP3   OH248703   6.464   3.366  12.278 -0.1681  0.1343  0.1284
 9071TIP3    H148704   6.483   3.429  12.347 -0.6457  1.0403 -0.5452
 9071TIP3    H248705   6.415   3.296  12.322  1.4313 -0.3991  1.1290
 9072TIP3   OH248706   5.528   1.173   0.549 -0.4472  0.2187 -0.3338
 9072TIP3    H148707   5.566   1.221   0.622 -0.3795 -1.9015  1.1167
 9072TIP3    H248708   5.466   1.113   0.589 -0.8227 -0.6380 -2.0787
 9073TIP3   OH248709   5.762   4.360   0.109 -0.2320  0.2107 -0.0245
 9073TIP3    H148710   5.844   4.372   0.062  0.2580  0.8255  0.9462
 9073TIP3    H248711   5.773   4.277   0.157 -0.5435 -0.1713 -0.6026
 9074TIP3   OH248712   4.339   2.919  15.651  0.3675 -0.4974 -0.4473
 9074TIP3    H148713   4.388   2.977  15.592 -0.9950  0.3645 -0.7987
 9074TIP3    H248714   4.365   2.947  15.739 -0.7246  1.1640 -0.5875
 9075TIP3   OH248715   5.754   4.222  12.930  0.1119 -0.6785 -0.4284
 9075TIP3    H148716   5.688   4.243  12.864 -0.5154  1.5158  0.7844
 9075TIP3    H248717   5.722   4.142  12.971 -0.9883 -0.4996 -0.9040
 9076TIP3   OH248718   2.589   5.697   5.439  0.3367  0.1150 -0.1447
 9076TIP3    H148719   2.655   5.726   5.501  0.3648 -1.0308  0.3941
 9076TIP3    H248720   2.622   5.725   5.354  0.3790  1.5675  0.3164
 9077TIP3   OH248721   4.905   2.273  15.113  0.3441  0.4060  0.2411
 9077TIP3    H148722   4.946   2.320  15.186  0.0191 -0.4821  1.0161
 9077TIP3    H248723   4.979   2.242  15.060  0.6156  0.4782  0.5727
 9078TIP3   OH248724   2.555   3.372   2.953 -0.1842  0.0049  0.3495
 9078TIP3    H148725   2.562   3.425   3.032  1.3049 -1.6661  1.4230
 9078TIP3    H248726   2.646   3.348   2.933 -0.7280 -1.3705 -0.6003
 9079TIP3   OH248727   0.663   3.012   0.880  0.5061 -0.4784 -0.3994
 9079TIP3    H148728   0.713   3.052   0.951 -0.5626 -0.2048  0.2249
 9079TIP3    H248729   0.674   2.918   0.892  0.0922 -0.4422  0.3258
 9080TIP3   OH248730   4.559   0.123  13.853  0.0166  0.7670  0.3503
 9080TIP3    H148731   4.603   0.181  13.916 -0.5243 -0.0529  1.5023
 9080TIP3    H248732   4.466   0.129  13.875 -0.3726  1.6007 -1.3421
 9081TIP3   OH248733   0.847   4.120   5.320  0.2670 -0.7517 -0.6609
 9081TIP3    H148734   0.817   4.102   5.231 -0.3844 -0.3145 -0.5398
 9081TIP3    H248735   0.821   4.044   5.371  0.5414 -0.9529 -0.8179
 9082TIP3   OH248736   3.567   3.113  15.405  0.3489  0.0616 -0.1670
 9082TIP3    H148737   3.541   3.194  15.360  0.1073 -1.1817 -2.3749
 9082TIP3    H248738   3.611   3.061  15.338  0.3250 -1.7369  1.1456
 9083TIP3   OH248739   0.701   3.444  15.788 -0.0645 -0.4505 -0.0884
 9083TIP3    H148740   0.612   3.427  15.758 -0.4661  0.3994  0.5689
 9083TIP3    H248741   0.745   3.359  15.784 -0.7577 -0.7806 -0.8916
 9084TIP3   OH248742   2.109   5.285  12.940 -0.4075 -0.1551 -0.1575
 9084TIP3    H148743   2.084   5.253  12.853 -1.6691 -0.4202  0.2699
 9084TIP3    H248744   2.176   5.224  12.970 -0.5950 -0.5889 -0.5977
 9085TIP3   OH248745   2.871   5.201  12.117 -0.4814  0.6121 -0.0394
 9085TIP3    H148746   2.895   5.150  12.039  0.3210  0.3278  0.3807
 9085TIP3    H248747   2.812   5.269  12.084  0.0600  0.6604 -0.9383
 9086TIP3   OH248748   1.737   4.112   5.905 -0.0550 -0.6308  0.0914
 9086TIP3    H148749   1.767   4.076   5.989 -0.7088  1.3486  1.2582
 9086TIP3    H248750   1.647   4.081   5.898 -0.2510 -0.1823  0.5290
 9087TIP3   OH248751   1.648   4.369  13.366 -0.0121  0.2285  0.0956
 9087TIP3    H148752   1.584   4.339  13.431 -0.2326 -0.1175 -0.2720
 9087TIP3    H248753   1.654   4.297  13.304  0.4714  0.4076 -0.0720
 9088TIP3   OH248754   2.701   3.232   0.677 -0.2511  0.1161  0.6983
 9088TIP3    H148755   2.788   3.193   0.681 -1.1119 -1.8425  4.2258
 9088TIP3    H248756   2.650   3.172   0.622  0.2238  0.4477 -0.1187
 9089TIP3   OH248757   0.943   6.440   3.963  0.0697 -0.0205  0.2105
 9089TIP3    H148758   0.968   6.446   3.871  1.7823  0.9600  0.7075
 9089TIP3    H248759   0.899   6.523   3.982 -0.6395 -0.3836  0.1937
 9090TIP3   OH248760   4.320   3.221  15.005 -0.2193 -0.7313 -0.5034
 9090TIP3    H148761   4.369   3.207  15.086  1.3138 -0.6910 -1.3711
 9090TIP3    H248762   4.379   3.190  14.936 -1.6618 -1.1792 -1.5782
 9091TIP3   OH248763   2.035   6.755  11.622 -0.6629  0.0088  0.1183
 9091TIP3    H148764   2.089   6.677  11.614  0.2831  0.2101  3.0855
 9091TIP3    H248765   2.094   6.822  11.658 -2.3866  0.7914  1.6852
 9092TIP3   OH248766   2.670   2.913   0.737  0.3017  0.3943 -0.0425
 9092TIP3    H148767   2.723   2.985   0.771  1.7279 -1.1243  1.1092
 9092TIP3    H248768   2.582   2.931   0.772  0.5706  1.6849  0.0283
 9093TIP3   OH248769   4.864   4.510  14.484  0.2158 -0.2685 -0.3206
 9093TIP3    H148770   4.905   4.592  14.510 -1.5990  0.1539  1.4076
 9093TIP3    H248771   4.875   4.507  14.389  0.2928  1.9857 -0.4364
 9094TIP3   OH248772   0.852   5.694   0.963  0.3389 -0.0062  0.3245
 9094TIP3    H148773   0.832   5.601   0.974 -0.6321 -0.0684 -1.5273
 9094TIP3    H248774   0.880   5.702   0.872  0.0597  1.5637  0.3458
 9095TIP3   OH248775   0.804   1.061   6.128  0.4238  0.3354  0.5791
 9095TIP3    H148776   0.761   1.121   6.068  0.9954  0.7162  0.5476
 9095TIP3    H248777   0.765   1.080   6.213  0.6289  0.7769  0.5760
 9096TIP3   OH248778   3.581   0.991   3.080 -0.1083 -0.6529  0.2261
 9096TIP3    H148779   3.632   0.911   3.086 -0.6965 -0.9244  2.1080
 9096TIP3    H248780   3.526   0.992   3.158 -1.4115  0.7146 -0.6234
 9097TIP3   OH248781   0.383   5.641  16.034 -0.3348  0.0458 -0.7499
 9097TIP3    H148782   0.429   5.609  15.956 -1.0402 -1.1194 -0.7115
 9097TIP3    H248783   0.304   5.586  16.039  0.8594 -1.6205  2.1325
 9098TIP3   OH248784   4.171   3.623   5.628  0.5948 -0.5171 -0.2504
 9098TIP3    H148785   4.208   3.569   5.697  1.9907  0.9441  0.2255
 9098TIP3    H248786   4.233   3.696   5.619  0.2207 -0.4072 -2.7178
 9099TIP3   OH248787   0.176   5.202   3.513  0.1815 -0.0049  0.1422
 9099TIP3    H148788   0.159   5.152   3.593 -1.4397 -1.1809 -0.8746
 9099TIP3    H248789   0.176   5.293   3.541 -0.5859 -0.3846  1.4382
 9100TIP3   OH248790   3.302   3.653  14.484 -0.4976 -0.0375 -0.8535
 9100TIP3    H148791   3.325   3.577  14.431  0.7799 -2.2181  2.5058
 9100TIP3    H248792   3.208   3.642  14.501 -0.3815 -0.7191 -0.6244
 9101TIP3   OH248793   0.683   0.687  11.539 -0.1412  0.0001  0.4521
 9101TIP3    H148794   0.735   0.765  11.560  2.3474 -1.8304  1.6263
 9101TIP3    H248795   0.607   0.693  11.597  0.2043  1.3290  0.8175
 9102TIP3   OH248796   1.504   5.448   0.158 -0.7326 -0.5323  0.2578
 9102TIP3    H148797   1.438   5.425   0.223 -0.0611 -0.4361  0.9931
 9102TIP3    H248798   1.465   5.520   0.108 -0.3658  1.0192  2.1036
 9103TIP3   OH248799   2.726   2.957  16.050  0.0528  0.3052  0.9474
 9103TIP3    H148800   2.791   2.904  16.004 -1.1434 -0.1457 -0.2796
 9103TIP3    H248801   2.718   3.036  15.998 -1.8482 -0.5185 -0.1278
 9104TIP3   OH248802   3.904   2.065  12.906 -0.3769  0.0126 -0.2285
 9104TIP3    H148803   3.990   2.106  12.895  1.5503 -3.9326 -1.8602
 9104TIP3    H248804   3.904   2.034  12.997  0.4201 -0.7951 -0.4833
 9105TIP3   OH248805   5.910   1.175   4.831  0.1496 -0.2225  0.1947
 9105TIP3    H148806   5.969   1.216   4.894 -1.9519  0.8818  1.5511
 9105TIP3    H248807   5.845   1.129   4.885 -0.9663 -0.3337 -1.1820
 9106TIP3   OH248808   5.648   3.455   6.009  0.0324 -0.6136 -0.2588
 9106TIP3    H148809   5.553   3.442   6.012  0.0565 -1.1080 -1.2299
 9106TIP3    H248810   5.675   3.450   6.100 -1.1721  2.1675  0.3731
 9107TIP3   OH248811   5.282   6.705   3.030  0.7601  0.8094 -0.0049
 9107TIP3    H148812   5.315   6.748   3.110  3.1139  2.3874 -1.6898
 9107TIP3    H248813   5.211   6.762   3.000 -0.6417 -0.1853  1.2701
 9108TIP3   OH248814   2.003   5.530  12.944 -0.2703  0.1149 -0.2042
 9108TIP3    H148815   1.934   5.557  12.884  0.1315 -0.1335 -0.7904
 9108TIP3    H248816   2.028   5.442  12.914  1.5312  0.8832 -1.1394
 9109TIP3   OH248817   0.864   2.512  12.531  0.5402  0.6425  0.1237
 9109TIP3    H148818   0.774   2.527  12.502  0.0052  1.4962  2.1060
 9109TIP3    H248819   0.865   2.420  12.559 -0.2766  1.1527  1.9155
 9110TIP3   OH248820   0.305   1.867   1.270  0.2495 -0.0804  0.0783
 9110TIP3    H148821   0.311   1.961   1.256 -1.0250  0.0528  0.2396
 9110TIP3    H248822   0.269   1.859   1.359 -0.3372 -0.6833 -0.2032
 9111TIP3   OH248823   4.833   2.384   1.556 -0.0248  0.4510  0.4096
 9111TIP3    H148824   4.827   2.479   1.566 -1.7046  0.3378  0.8197
 9111TIP3    H248825   4.777   2.349   1.626  0.2227 -0.8277 -0.0075
 9112TIP3   OH248826   4.297   1.825  15.514  0.3245 -0.1048  0.0103
 9112TIP3    H148827   4.297   1.730  15.530  1.6193  0.3186  3.5676
 9112TIP3    H248828   4.207   1.852  15.531  0.1156 -0.6164 -0.2691
 9113TIP3   OH248829   1.159   1.764   1.768 -0.0556  0.1639 -0.2813
 9113TIP3    H148830   1.177   1.799   1.681 -0.5197 -1.2319 -0.9699
 9113TIP3    H248831   1.070   1.792   1.788 -0.7844 -1.3154 -1.2388
 9114TIP3   OH248832   1.009   1.016   3.246 -0.5251  0.0840 -0.3805
 9114TIP3    H148833   1.023   1.057   3.331  0.5409 -1.8475  0.4302
 9114TIP3    H248834   1.070   1.060   3.187 -0.0786  0.2994  0.2370
 9115TIP3   OH248835   5.858   2.832  11.980  0.3591 -0.1935 -0.3312
 9115TIP3    H148836   5.833   2.750  12.021 -0.8232  0.7835  0.9996
 9115TIP3    H248837   5.954   2.836  11.989  0.3083 -0.9100  0.5948
 9116TIP3   OH248838   1.142   4.484   1.443 -0.1241 -0.2435 -0.0113
 9116TIP3    H148839   1.081   4.557   1.434 -1.7202 -1.6587 -1.1056
 9116TIP3    H248840   1.087   4.406   1.450  1.4817 -1.3178  2.3027
 9117TIP3   OH248841   5.219   2.190   2.282  0.4211  0.0081  0.1899
 9117TIP3    H148842   5.242   2.180   2.189 -0.0629 -1.0375  0.1635
 9117TIP3    H248843   5.218   2.100   2.316 -1.5404  0.1556  0.6733
 9118TIP3   OH248844   3.698   4.906   4.913 -0.8927 -0.1885  0.2401
 9118TIP3    H148845   3.705   4.979   4.851 -2.3953  0.1155  0.3776
 9118TIP3    H248846   3.613   4.920   4.956 -2.0112 -2.9041 -0.8796
 9119TIP3   OH248847   2.534   1.521  15.084 -0.0751 -0.3414  0.1894
 9119TIP3    H148848   2.597   1.485  15.147  0.9364 -0.6160 -0.9512
 9119TIP3    H248849   2.575   1.602  15.054  0.3362 -1.1089 -1.4379
 9120TIP3   OH248850   1.474   4.052   4.720 -0.6656 -0.3742  0.3808
 9120TIP3    H148851   1.558   4.093   4.701 -0.1300 -0.8337  1.6696
 9120TIP3    H248852   1.453   4.079   4.809 -2.8933  1.3644 -0.5512
 9121TIP3   OH248853   3.009   6.045  15.368 -0.7829 -1.0168 -0.0488
 9121TIP3    H148854   3.043   6.085  15.447 -2.4140  1.5031 -0.4890
 9121TIP3    H248855   3.031   5.953  15.375 -0.6338 -0.8230  3.1948
 9122TIP3   OH248856   4.372   5.083   4.537  0.6051 -0.3669 -0.7172
 9122TIP3    H148857   4.375   4.987   4.535  0.0885 -0.3913 -0.3168
 9122TIP3    H248858   4.295   5.104   4.589  0.6403  0.2703 -0.9169
 9123TIP3   OH248859   1.722   1.784   1.565  0.7772  0.0403  0.1050
 9123TIP3    H148860   1.727   1.688   1.565  0.6044  0.0180  1.0784
 9123TIP3    H248861   1.728   1.808   1.473  2.6399 -0.7963 -0.0361
 9124TIP3   OH248862   6.406   1.166  17.483 -0.2033 -0.4689 -0.9357
 9124TIP3    H148863   6.374   1.198  17.567 -0.6195 -1.0249 -0.8751
 9124TIP3    H248864   6.406   1.243  17.426 -2.4678 -0.5755 -1.1805
 9125TIP3   OH248865   1.377   2.046  11.486 -0.7097 -0.1352  0.2060
 9125TIP3    H148866   1.326   2.041  11.405 -0.6938 -0.9738  0.2380
 9125TIP3    H248867   1.458   2.091  11.461 -0.2127 -1.3966 -0.5071
 9126TIP3   OH248868   4.197   0.279   2.206  0.1165 -0.0298  0.0624
 9126TIP3    H148869   4.242   0.335   2.269 -1.4192  0.6266  0.6270
 9126TIP3    H248870   4.110   0.318   2.197 -0.4262 -1.3727 -0.8187
 9127TIP3   OH248871   2.415   6.629  16.153  0.3317  0.9623 -0.5656
 9127TIP3    H148872   2.378   6.641  16.066 -0.4068  0.8355 -0.2819
 9127TIP3    H248873   2.410   6.715  16.194  0.9637  1.0901 -0.7536
 9128TIP3   OH248874   3.928   6.156  12.530 -0.5826 -0.2262  0.9989
 9128TIP3    H148875   3.884   6.092  12.474  0.1050 -1.0428  1.3751
 9128TIP3    H248876   3.861   6.180  12.595 -1.4346  0.8408 -0.2158
 9129TIP3   OH248877   0.832   5.136   4.874 -0.1767  0.0290 -0.5288
 9129TIP3    H148878   0.811   5.071   4.942 -0.1407 -0.2526 -0.7848
 9129TIP3    H248879   0.773   5.114   4.802 -0.7135  0.7666 -0.3243
 9130TIP3   OH248880   6.258   1.049   0.492 -0.6900  0.3923 -0.0644
 9130TIP3    H148881   6.338   1.093   0.522  0.0225 -0.2737 -0.9029
 9130TIP3    H248882   6.289   0.965   0.457 -1.7169  0.2897 -0.7689
 9131TIP3   OH248883   0.345   2.953   3.342  0.0610  0.4145 -0.3333
 9131TIP3    H148884   0.382   2.927   3.426  0.9943 -1.2468 -1.2108
 9131TIP3    H248885   0.278   3.018   3.364 -0.4711 -0.7657  1.7890
 9132TIP3   OH248886   4.747   2.286   0.562  0.0396  0.0972  0.0633
 9132TIP3    H148887   4.748   2.209   0.506  1.1275 -0.1659  0.4203
 9132TIP3    H248888   4.775   2.358   0.505 -0.9122  0.2400 -0.2520
 9133TIP3   OH248889   5.764   1.842   2.858 -0.5442 -0.0877 -0.4112
 9133TIP3    H148890   5.743   1.749   2.863 -3.6439  0.5067 -0.1627
 9133TIP3    H248891   5.779   1.869   2.948  0.9839 -0.4302 -0.5438
 9134TIP3   OH248892   0.758   6.457  10.657  0.0832  0.6465 -0.0428
 9134TIP3    H148893   0.733   6.534  10.607  1.7069  1.8742  0.9503
 9134TIP3    H248894   0.821   6.411  10.601 -1.5040 -0.4979 -0.9975
 9135TIP3   OH248895   2.296   6.092  17.081  0.1222 -0.1365  0.0843
 9135TIP3    H148896   2.203   6.113  17.082  0.1600  0.0729 -0.7105
 9135TIP3    H248897   2.327   6.120  16.995  0.5822 -1.6232 -0.2707
 9136TIP3   OH248898   5.265   0.941  13.645 -0.5282  0.0752 -0.0125
 9136TIP3    H148899   5.303   0.853  13.638  0.0147  0.0594  2.2566
 9136TIP3    H248900   5.216   0.953  13.564 -0.7930 -2.4112 -0.2984
 9137TIP3   OH248901   6.245   4.481   4.911  0.5856  0.1775 -0.0286
 9137TIP3    H148902   6.264   4.388   4.921  1.1229  0.2156 -0.6387
 9137TIP3    H248903   6.325   4.525   4.940  0.3458  0.4472  0.2240
 9138TIP3   OH248904   5.432   0.421   0.758 -0.1484 -0.0740  0.4453
 9138TIP3    H148905   5.518   0.459   0.779 -1.0918  1.6178  1.4696
 9138TIP3    H248906   5.396   0.479   0.691  0.0354 -1.5694 -1.0028
 9139TIP3   OH248907   0.987   3.062   4.130 -0.5648  0.0739  0.4910
 9139TIP3    H148908   0.987   3.124   4.203 -0.3798  1.0666 -0.3168
 9139TIP3    H248909   1.079   3.036   4.121 -0.7596 -0.9837  1.3482
 9140TIP3   OH248910   1.755   2.622   1.831  0.2000  0.4759 -0.1141
 9140TIP3    H148911   1.737   2.691   1.894 -2.9326  0.6665 -1.0343
 9140TIP3    H248912   1.715   2.544   1.869  1.6605 -0.3373 -0.1656
 9141TIP3   OH248913   2.124   4.051  13.727  0.2113 -0.4811  0.6164
 9141TIP3    H148914   2.066   4.081  13.656 -0.1703 -0.0057  1.1181
 9141TIP3    H248915   2.099   3.960  13.741 -0.7262 -0.1616  1.1164
 9142TIP3   OH248916   4.116   4.570  17.408 -0.4291  0.4472  0.2715
 9142TIP3    H148917   4.040   4.557  17.465 -2.6962 -0.7882 -2.7348
 9142TIP3    H248918   4.078   4.593  17.323  2.4117 -1.8723 -1.8314
 9143TIP3   OH248919   3.104   4.230   0.139  0.8887  0.4964 -0.3255
 9143TIP3    H148920   3.137   4.246   0.227  0.2523 -0.6736  0.1460
 9143TIP3    H248921   3.099   4.317   0.099  0.9460  1.0723  0.8819
 9144TIP3   OH248922   0.719   3.873  13.036  0.0332 -0.3544 -0.5164
 9144TIP3    H148923   0.651   3.821  13.079 -0.3639  0.1048 -0.5817
 9144TIP3    H248924   0.789   3.878  13.101 -0.3342 -0.1380 -0.1304
 9145TIP3   OH248925   0.505   5.436  11.383  0.1203 -0.2776  0.0880
 9145TIP3    H148926   0.587   5.472  11.417 -0.0627  1.9557 -1.5792
 9145TIP3    H248927   0.525   5.413  11.293 -1.0511  0.2615 -0.3282
 9146TIP3   OH248928   1.927   3.469  15.042  0.2090  0.3844 -0.0979
 9146TIP3    H148929   1.903   3.414  15.116  0.0238  0.7607  0.1263
 9146TIP3    H248930   1.995   3.419  14.996  2.3918  1.3215  1.8917
 9147TIP3   OH248931   1.291   6.371  17.082 -0.1374 -0.3664 -0.5137
 9147TIP3    H148932   1.353   6.299  17.067  0.2106  0.0934 -1.3474
 9147TIP3    H248933   1.217   6.350  17.025 -1.3911 -1.6136  1.4437
 9148TIP3   OH248934   3.397   6.553   1.802 -0.3094 -0.0094  0.6001
 9148TIP3    H148935   3.396   6.623   1.867 -1.9371 -0.3355  0.9831
 9148TIP3    H248936   3.323   6.572   1.745 -0.2056 -0.9061  0.1510
 9149TIP3   OH248937   6.533   4.567   2.371 -0.1424  0.1615  0.0422
 9149TIP3    H148938   6.513   4.596   2.460  0.3605 -0.5165  0.3806
 9149TIP3    H248939   6.627   4.576   2.363 -0.0216 -0.9947  0.0251
 9150TIP3   OH248940   3.925   6.295   5.114 -0.9590  0.1752  0.1878
 9150TIP3    H148941   3.941   6.201   5.119 -0.2820  0.2116 -0.9319
 9150TIP3    H248942   3.853   6.304   5.053 -1.0886  0.3786  0.3692
 9151TIP3   OH248943   2.831   1.230  13.900 -0.0495 -0.2245  0.6771
 9151TIP3    H148944   2.904   1.262  13.954 -0.6529  0.7835  0.9092
 9151TIP3    H248945   2.802   1.306  13.850 -0.3961 -0.8246 -0.0526
 9152TIP3   OH248946   5.763   0.590  15.828 -0.0797 -0.5772  0.1094
 9152TIP3    H148947   5.685   0.634  15.795 -0.3626 -0.6841  0.6204
 9152TIP3    H248948   5.798   0.542  15.753 -0.0177  0.1604 -0.3390
 9153TIP3   OH248949   2.074   2.098  15.866 -0.1359  0.0519 -0.0167
 9153TIP3    H148950   2.096   2.040  15.793  0.0368 -0.5257  0.4851
 9153TIP3    H248951   2.142   2.166  15.863 -0.0122 -0.0800 -0.2745
 9154TIP3   OH248952   2.798   6.369   0.878 -0.4013  0.0034 -0.8635
 9154TIP3    H148953   2.752   6.401   0.955  1.3729  3.3505 -1.0514
 9154TIP3    H248954   2.775   6.430   0.808  0.6148 -1.0193 -2.1623
 9155TIP3   OH248955   1.567   1.439  12.710 -0.2506  0.0472  0.0951
 9155TIP3    H148956   1.628   1.443  12.636 -0.9134  0.5126 -0.4418
 9155TIP3    H248957   1.586   1.355  12.752 -1.0046 -1.0451 -1.6326
 9156TIP3   OH248958   6.698   0.303   3.165 -0.5375  0.0538  0.1546
 9156TIP3    H148959   6.785   0.328   3.135 -1.1326  0.3827 -1.3981
 9156TIP3    H248960   6.640   0.369   3.127 -1.3667  0.5092  2.0984
 9157TIP3   OH248961   4.472   4.036   3.588 -0.6875  0.2222 -0.0608
 9157TIP3    H148962   4.518   4.116   3.615 -0.1930  0.0930 -0.4950
 9157TIP3    H248963   4.475   3.980   3.665  0.8973 -0.2295 -0.4034
 9158TIP3   OH248964   0.218   1.625   2.023 -0.0657 -0.0707  0.8143
 9158TIP3    H148965   0.223   1.709   1.977 -1.1592 -1.3270 -1.8247
 9158TIP3    H248966   0.307   1.609   2.054  0.2570  1.8368  0.9936
 9159TIP3   OH248967   0.021   1.554  12.522  0.6232 -0.0137  0.0217
 9159TIP3    H148968   0.008   1.603  12.603  2.7634  0.3492  0.2194
 9159TIP3    H248969   0.116   1.551  12.511  0.4816 -2.0362 -1.2801
 9160TIP3   OH248970   2.640   3.239  10.754  0.1932  0.4836  0.1558
 9160TIP3    H148971   2.731   3.211  10.749  0.4046  1.3279 -1.0296
 9160TIP3    H248972   2.644   3.322  10.803 -0.0236  0.2143  0.6398
 9161TIP3   OH248973   3.430   2.051   3.856 -0.5736 -0.0038 -0.0945
 9161TIP3    H148974   3.498   2.011   3.910  0.6557  0.3301 -1.3331
 9161TIP3    H248975   3.350   2.045   3.909  0.1420 -1.5690  0.8755
 9162TIP3   OH248976   1.603   0.169  15.362 -0.4944  0.6219 -0.1781
 9162TIP3    H148977   1.587   0.095  15.420  0.7166 -0.2060 -0.8595
 9162TIP3    H248978   1.677   0.216  15.401  0.9640 -0.4856 -1.4834
 9163TIP3   OH248979   1.891   6.669  12.132  0.3443 -0.8162 -0.3870
 9163TIP3    H148980   1.870   6.690  12.041 -0.0569 -1.0851 -0.3590
 9163TIP3    H248981   1.885   6.574  12.137 -1.0344 -0.7218  0.2566
 9164TIP3   OH248982   1.821   0.946   2.876 -0.1034  0.1093  0.1425
 9164TIP3    H148983   1.776   0.919   2.796  1.1050 -1.8957  0.0720
 9164TIP3    H248984   1.813   1.042   2.877 -2.1015  0.0092 -1.1660
 9165TIP3   OH248985   3.390   5.545   0.282 -0.2067  0.2755 -0.0811
 9165TIP3    H148986   3.460   5.485   0.308 -0.3821  0.1769  0.1641
 9165TIP3    H248987   3.407   5.625   0.332 -0.4742  0.1275  0.2525
 9166TIP3   OH248988   2.534   5.965   4.956  0.6959 -0.5278  0.0985
 9166TIP3    H148989   2.510   6.013   5.035 -0.7573  1.6083 -1.5232
 9166TIP3    H248990   2.628   5.953   4.964  0.6509 -0.0597  1.9810
 9167TIP3   OH248991   3.792   2.901  13.130  0.1219  0.3178  0.2668
 9167TIP3    H148992   3.839   2.969  13.082 -0.7854  1.3473  0.7938
 9167TIP3    H248993   3.700   2.915  13.108 -0.0319 -1.2728 -0.2562
 9168TIP3   OH248994   5.310   4.568   5.382 -0.6994 -0.7867 -0.5175
 9168TIP3    H148995   5.219   4.569   5.353 -0.8914 -1.2116  0.0399
 9168TIP3    H248996   5.320   4.485   5.429 -0.5784  0.0863  1.0972
 9169TIP3   OH248997   6.743   6.712   4.319 -0.5891  0.1481  0.6059
 9169TIP3    H148998   6.779   6.721   4.231  1.4346 -1.5774  1.1704
 9169TIP3    H248999   6.734   6.802   4.350  1.5793  0.7363 -0.2855
 9170TIP3   OH249000   6.670   3.591  12.207  0.2531 -0.2154 -0.3535
 9170TIP3    H149001   6.617   3.515  12.233  0.7283 -1.7958 -3.4501
 9170TIP3    H249002   6.751   3.553  12.173  0.9551  1.7549 -1.0278
 9171TIP3   OH249003   4.024   2.879  17.470  0.1465  0.1122  0.3357
 9171TIP3    H149004   4.111   2.891  17.433  1.0996 -0.9807  2.0521
 9171TIP3    H249005   3.966   2.873  17.395  1.9935 -2.2695 -1.0713
 9172TIP3   OH249006   4.440   5.247   1.373 -0.5072  0.0774 -0.1125
 9172TIP3    H149007   4.345   5.258   1.363 -0.5732 -0.6921 -0.4003
 9172TIP3    H249008   4.450   5.204   1.457 -0.2906  1.6907  0.7206
 9173TIP3   OH249009   1.034   3.287   1.646 -0.2921 -0.1940  0.1176
 9173TIP3    H149010   1.116   3.312   1.602 -1.0997  2.9749  0.1473
 9173TIP3    H249011   1.062   3.252   1.730  1.1107  2.3087  0.8052
 9174TIP3   OH249012   4.082   5.609   5.726  0.2466 -0.1134 -0.0904
 9174TIP3    H149013   4.057   5.566   5.644 -0.2163 -0.8442  0.4260
 9174TIP3    H249014   4.168   5.647   5.707 -0.6210  1.2981 -1.4782
 9175TIP3   OH249015   0.420   4.550  16.954 -0.0906 -0.0917 -0.5299
 9175TIP3    H149016   0.360   4.494  16.905 -0.5879  1.2803 -1.5773
 9175TIP3    H249017   0.499   4.497  16.967 -0.7969 -1.2496 -0.8645
 9176TIP3   OH249018   3.159   3.717  11.364 -0.0381 -0.0122  0.3458
 9176TIP3    H149019   3.211   3.767  11.301 -0.8188 -0.2170 -0.4876
 9176TIP3    H249020   3.069   3.723  11.331 -0.3430 -0.8437  0.9770
 9177TIP3   OH249021   6.369   0.037  13.725  0.0085  0.0404 -0.0364
 9177TIP3    H149022   6.378   0.019  13.631  2.4599  1.0294 -0.0633
 9177TIP3    H249023   6.370   0.132  13.732  0.9637 -0.0150  1.0339
 9178TIP3   OH249024   2.965   1.190   3.023  0.1163  0.8538  0.3594
 9178TIP3    H149025   2.919   1.273   3.021 -0.9704  0.2992  1.1398
 9178TIP3    H249026   3.058   1.214   3.025 -0.1252  1.9964 -1.0025
 9179TIP3   OH249027   2.157   4.252  14.711 -0.4367  0.1146  0.4163
 9179TIP3    H149028   2.167   4.177  14.769 -0.8633 -1.9011 -1.9855
 9179TIP3    H249029   2.062   4.263  14.703 -0.4211  1.9764  1.9344
 9180TIP3   OH249030   3.761   1.683   0.723  0.1000 -0.2982  0.7249
 9180TIP3    H149031   3.690   1.642   0.673  1.3330  0.5865 -1.9225
 9180TIP3    H249032   3.841   1.646   0.685  1.1861 -2.1002  4.3622
 9181TIP3   OH249033   1.633   1.070  11.501  0.1783  0.5286  0.2275
 9181TIP3    H149034   1.569   1.117  11.555  0.0796  0.5439  0.0992
 9181TIP3    H249035   1.584   1.047  11.422  0.5768  1.3589 -0.2810
 9182TIP3   OH249036   6.255   3.176   0.677  0.8591 -0.3207  0.1251
 9182TIP3    H149037   6.172   3.149   0.717  2.4746 -4.2348  1.3399
 9182TIP3    H249038   6.253   3.138   0.590  1.7586 -1.3980  0.5540
 9183TIP3   OH249039   3.506   3.591  12.928  0.5122 -0.4943 -0.0471
 9183TIP3    H149040   3.418   3.568  12.899  0.6325 -0.3964 -0.5036
 9183TIP3    H249041   3.508   3.569  13.021  0.2668 -1.2678 -0.2222
 9184TIP3   OH249042   1.731   0.677   4.113  0.4212 -0.4644 -0.3199
 9184TIP3    H149043   1.770   0.650   4.196 -0.1096  1.2748  0.5392
 9184TIP3    H249044   1.753   0.770   4.105 -0.6932 -0.2693 -1.4553
 9185TIP3   OH249045   0.455   6.601  16.729 -0.5421 -0.0373 -0.4711
 9185TIP3    H149046   0.458   6.558  16.643  1.8916 -2.8147  0.8303
 9185TIP3    H249047   0.547   6.618  16.750 -1.1830  1.8567  1.0561
 9186TIP3   OH249048   1.392   6.736  10.977 -0.0503  0.0999 -0.5326
 9186TIP3    H149049   1.355   6.662  10.929  1.1046  0.1572 -1.5719
 9186TIP3    H249050   1.486   6.718  10.981 -0.0512  0.2641  1.4661
 9187TIP3   OH249051   1.532   1.862   2.236 -0.5322 -0.4174 -0.1967
 9187TIP3    H149052   1.551   1.854   2.330  1.6701 -0.4513 -0.5872
 9187TIP3    H249053   1.521   1.772   2.206 -0.7591 -0.4365 -0.0592
 9188TIP3   OH249054   4.138   3.647  11.879  0.3043  0.1029 -0.0455
 9188TIP3    H149055   4.063   3.689  11.921 -0.9434 -1.7230 -0.3330
 9188TIP3    H249056   4.134   3.677  11.788  0.5331  0.7804  0.1584
 9189TIP3   OH249057   1.586   0.125  16.150  0.0537  0.4765  0.2277
 9189TIP3    H149058   1.654   0.060  16.130 -1.1975 -0.5319 -0.9686
 9189TIP3    H249059   1.622   0.208  16.119  1.7094  0.4154  1.8356
 9190TIP3   OH249060   4.582   3.030   1.598  0.2178 -0.0320 -0.0427
 9190TIP3    H149061   4.670   3.047   1.565 -0.6967  0.5704 -2.3887
 9190TIP3    H249062   4.571   2.935   1.587  0.8570 -0.2474  1.0800
 9191TIP3   OH249063   1.119   3.232  13.769 -0.3330  0.4745  0.6363
 9191TIP3    H149064   1.178   3.299  13.735  0.7240 -0.3939  0.7299
 9191TIP3    H249065   1.110   3.169  13.698  1.7162 -1.2402  1.7682
 9192TIP3   OH249066   2.870   5.282  13.025 -0.1021 -0.6251  0.1616
 9192TIP3    H149067   2.790   5.232  13.039  0.3132 -1.1673  0.6049
 9192TIP3    H249068   2.937   5.235  13.073  1.0738 -1.7145 -2.3710
 9193TIP3   OH249069   3.035   6.157   3.292  0.0237  0.1229 -0.2075
 9193TIP3    H149070   2.979   6.134   3.218 -0.2591 -0.4619  0.1753
 9193TIP3    H249071   2.992   6.232   3.333 -0.7723 -0.6310  0.3804
 9194TIP3   OH249072   0.070   6.708   1.914  0.2156 -0.3758 -0.5398
 9194TIP3    H149073  -0.003   6.646   1.924  1.6830 -2.0058  0.9610
 9194TIP3    H249074   0.134   6.661   1.860  1.2301 -0.0813  0.3571
 9195TIP3   OH249075   4.167   6.231  13.465 -0.2852  0.2424 -0.5140
 9195TIP3    H149076   4.236   6.238  13.400  0.2176  0.3286  0.0192
 9195TIP3    H249077   4.197   6.286  13.537 -0.1784 -0.9128  0.3528
 9196TIP3   OH249078   2.452   1.306  14.732 -0.1380  0.1848  0.2276
 9196TIP3    H149079   2.406   1.390  14.728  0.3027  0.4194  0.0298
 9196TIP3    H249080   2.456   1.284  14.825  0.3778  0.7353  0.3360
 9197TIP3   OH249081   4.412   4.384  15.105  0.2605 -0.1779 -0.7286
 9197TIP3    H149082   4.430   4.316  15.170  0.1513  0.8395  0.3856
 9197TIP3    H249083   4.494   4.392  15.055  1.9340  1.9967  2.0760
 9198TIP3   OH249084   4.837   1.865   5.290  0.2791  0.3682  0.2468
 9198TIP3    H149085   4.917   1.832   5.332 -0.2218 -0.1514  0.8026
 9198TIP3    H249086   4.864   1.947   5.250  0.7247  1.0166  1.8010
 9199TIP3   OH249087   5.021   5.191  13.263 -0.2688  0.8473  0.1886
 9199TIP3    H149088   5.066   5.275  13.266 -0.4714  1.0583 -1.4416
 9199TIP3    H249089   5.069   5.141  13.196  0.1258 -0.5203  1.4482
 9200TIP3   OH249090   4.546   5.921  13.930  0.2408 -0.3953  0.5442
 9200TIP3    H149091   4.494   5.865  13.987 -0.8972  0.1299  0.0458
 9200TIP3    H249092   4.500   6.005  13.930  0.5820 -0.1959 -0.6361
 9201TIP3   OH249093   2.810   1.304   4.698 -0.8555  0.1195 -0.0263
 9201TIP3    H149094   2.828   1.212   4.715 -1.0183  0.1069  0.0739
 9201TIP3    H249095   2.806   1.345   4.784 -3.3740 -0.2505  0.0899
 9202TIP3   OH249096   3.544   6.616  15.636  0.2180 -0.3695  0.5629
 9202TIP3    H149097   3.455   6.597  15.607 -0.5926  1.5341  1.6225
 9202TIP3    H249098   3.536   6.696  15.688  2.4872 -0.4010  1.0728
 9203TIP3   OH249099   0.112   3.951   5.625  0.0535  0.0390  0.9670
 9203TIP3    H149100   0.097   4.037   5.663  1.5970  0.6666  0.2336
 9203TIP3    H249101   0.145   3.969   5.537 -1.6379 -1.3526 -0.0379
 9204TIP3   OH249102   5.879   6.481   4.440  0.1268  0.0048 -0.3730
 9204TIP3    H149103   5.945   6.460   4.506 -1.6586 -0.2088  1.4729
 9204TIP3    H249104   5.833   6.398   4.425 -1.1570  0.5965  0.1220
 9205TIP3   OH249105   4.764   3.328  11.982  0.2780 -0.4053 -0.0111
 9205TIP3    H149106   4.743   3.399  12.042  0.6335  0.6703 -1.1146
 9205TIP3    H249107   4.685   3.274  11.981 -0.2503  0.3345  0.3645
 9206TIP3   OH249108   5.756   2.748   5.500  0.5583  0.2825 -0.4220
 9206TIP3    H149109   5.815   2.683   5.462 -1.2961 -2.7429  1.4893
 9206TIP3    H249110   5.811   2.798   5.560  1.6645 -0.8937 -0.4090
 9207TIP3   OH249111   3.602   5.561   0.611  0.3106 -0.4058 -0.1873
 9207TIP3    H149112   3.686   5.578   0.654  1.4445 -1.6133 -1.8116
 9207TIP3    H249113   3.607   5.470   0.583 -1.8213 -0.7002  0.1953
 9208TIP3   OH249114   1.858   4.783  14.640  0.3848  1.0852 -0.8793
 9208TIP3    H149115   1.767   4.791  14.611  0.0502  1.1164  0.1522
 9208TIP3    H249116   1.867   4.848  14.710  0.4256 -0.7424  0.8797
 9209TIP3   OH249117   4.176   4.716   5.067 -1.2526  0.1201  0.1924
 9209TIP3    H149118   4.218   4.636   5.098  0.9197  0.0915 -2.4167
 9209TIP3    H249119   4.165   4.770   5.145  0.8318 -1.1825  1.4771
 9210TIP3   OH249120   6.254   1.843   0.037  0.6839  0.4786 -0.0705
 9210TIP3    H149121   6.193   1.915   0.048 -1.5138 -1.2016 -0.5277
 9210TIP3    H249122   6.209   1.781  -0.021  2.1025 -1.6469  0.9441
 9211TIP3   OH249123   6.391   2.818  14.871 -0.1068 -0.2130  0.1044
 9211TIP3    H149124   6.385   2.812  14.966  0.3548 -3.2346  0.0456
 9211TIP3    H249125   6.435   2.902  14.855 -1.3406  0.9620  2.4418
 9212TIP3   OH249126   5.826   5.274   4.061  0.0921  0.3931  0.1669
 9212TIP3    H149127   5.777   5.216   4.118  1.9463 -0.4798  0.9686
 9212TIP3    H249128   5.771   5.285   3.984 -2.7399  2.0578  2.2539
 9213TIP3   OH249129   5.796   6.466  16.151  0.6923  0.5491  0.1935
 9213TIP3    H149130   5.761   6.388  16.194 -1.1690  1.8221  1.1270
 9213TIP3    H249131   5.737   6.481  16.077  1.0260  1.0711  0.0287
 9214TIP3   OH249132   2.955   2.410  13.671  0.0007 -0.7941  0.3042
 9214TIP3    H149133   2.914   2.324  13.683 -1.4176 -0.1889  0.0489
 9214TIP3    H249134   2.919   2.464  13.742 -1.9125  0.5210 -1.5442
 9215TIP3   OH249135   3.404   2.166   4.315 -0.0660 -0.5439  0.1361
 9215TIP3    H149136   3.346   2.103   4.356 -0.0324 -1.9686 -1.8692
 9215TIP3    H249137   3.348   2.216   4.255  0.2808 -0.0318  0.2255
 9216TIP3   OH249138   0.530   1.913   4.327  0.4918 -0.2646 -0.2954
 9216TIP3    H149139   0.551   1.985   4.268 -0.0836 -0.2397 -0.4786
 9216TIP3    H249140   0.563   1.942   4.413  2.9420 -1.0507 -0.8952
 9217TIP3   OH249141   6.690   2.114   1.143 -0.9797 -0.4551  0.4714
 9217TIP3    H149142   6.781   2.118   1.112 -0.6326  2.1844  1.5681
 9217TIP3    H249143   6.677   2.196   1.189 -3.6174 -1.2640  1.3363
 9218TIP3   OH249144   0.461   4.549  14.884 -0.4098 -0.0456 -0.1512
 9218TIP3    H149145   0.524   4.555  14.956  0.4682 -1.7385 -0.7379
 9218TIP3    H249146   0.403   4.477  14.910 -0.8788  0.1850 -0.5507
 9219TIP3   OH249147   4.360   0.037   2.853 -0.1091 -0.3705 -0.4002
 9219TIP3    H149148   4.360   0.105   2.785  2.6437  0.8834  0.7198
 9219TIP3    H249149   4.331   0.082   2.932 -3.0990 -1.7801 -0.5544
 9220TIP3   OH249150   1.234   3.903  13.714 -0.9260 -0.1660 -0.3549
 9220TIP3    H149151   1.283   3.855  13.647 -1.3721  0.2584 -1.0077
 9220TIP3    H249152   1.185   3.835  13.760  1.2392 -0.7659  1.2085
 9221TIP3   OH249153   5.303   4.770   3.194  0.4061  0.1975  0.2445
 9221TIP3    H149154   5.376   4.832   3.193  0.9450 -0.4313 -0.6959
 9221TIP3    H249155   5.276   4.768   3.286  1.5788  0.4374  0.6233
 9222TIP3   OH249156   2.185   1.431   5.618  0.4146 -0.7745  0.1466
 9222TIP3    H149157   2.151   1.373   5.550  0.5505 -2.0318  1.0983
 9222TIP3    H249158   2.108   1.475   5.654  0.0377 -1.9225  0.7845
 9223TIP3   OH249159   6.151   5.232  15.037 -0.3944 -0.6542 -0.7011
 9223TIP3    H149160   6.165   5.308  14.982  0.0224 -0.0907  0.1575
 9223TIP3    H249161   6.057   5.217  15.035 -0.2232 -1.9186 -3.1879
 9224TIP3   OH249162   3.719   0.390  15.315  0.3885 -0.2881  0.0177
 9224TIP3    H149163   3.734   0.484  15.305 -1.2982  0.1647  1.2164
 9224TIP3    H249164   3.806   0.352  15.328  0.9290  1.4276  1.7741
 9225TIP3   OH249165   1.018   2.801   3.966 -0.2862 -0.0025 -0.0170
 9225TIP3    H149166   0.947   2.738   3.963  0.5787 -1.2752  2.7340
 9225TIP3    H249167   0.976   2.886   3.950 -1.8701 -0.9974 -1.3891
 9226TIP3   OH249168   0.458   5.067   0.270 -0.6257  0.0473  0.3089
 9226TIP3    H149169   0.449   5.162   0.268 -3.8252 -0.1200  0.8839
 9226TIP3    H249170   0.374   5.036   0.304  0.3426 -2.9988  0.2233
 9227TIP3   OH249171   5.886   4.426  14.022 -0.1917 -0.5736  0.1876
 9227TIP3    H149172   5.927   4.474  13.950 -1.4195  1.3460  0.6743
 9227TIP3    H249173   5.893   4.486  14.097 -2.1373 -0.9786  0.7363
 9228TIP3   OH249174   4.953   0.202  14.954 -0.2820  0.5883  0.0438
 9228TIP3    H149175   5.012   0.258  14.905  1.8168  0.4745  2.2523
 9228TIP3    H249176   5.003   0.123  14.971 -1.4025  0.0843  1.2118
 9229TIP3   OH249177   6.664   4.149  11.915  0.2933  0.2739 -0.4151
 9229TIP3    H149178   6.744   4.104  11.942 -0.0055  0.7132  1.3200
 9229TIP3    H249179   6.626   4.181  11.997 -1.6382  0.1022 -1.2014
 9230TIP3   OH249180   4.411   1.030   2.842  0.3673  0.3042 -0.1337
 9230TIP3    H149181   4.476   1.065   2.903 -1.6689  1.6672  1.4249
 9230TIP3    H249182   4.408   1.094   2.771 -0.0460  0.8847  0.3866
 9231TIP3   OH249183   2.028   5.474  11.372 -0.3743  0.3489 -0.5821
 9231TIP3    H149184   2.055   5.389  11.406 -1.6378 -0.2298 -0.9723
 9231TIP3    H249185   2.077   5.484  11.291 -1.1108 -0.5738 -1.1615
 9232TIP3   OH249186   6.316   5.596   2.160  0.1852 -0.2838 -0.3481
 9232TIP3    H149187   6.254   5.555   2.220 -0.6126 -2.4913 -2.5163
 9232TIP3    H249188   6.263   5.659   2.112  0.4090  0.1757 -0.0024
 9233TIP3   OH249189   3.365   2.832  17.188 -0.9258  0.4907  0.1124
 9233TIP3    H149190   3.383   2.926  17.193  0.2740  0.3294 -0.9391
 9233TIP3    H249191   3.296   2.818  17.254  1.1139  1.5352  2.6598
 9234TIP3   OH249192   6.036   1.347  11.844 -0.7237 -0.3451 -0.0224
 9234TIP3    H149193   6.004   1.435  11.863  0.5973 -0.2502  2.1022
 9234TIP3    H249194   6.105   1.361  11.778  0.7811  0.5065  1.6531
 9235TIP3   OH249195   4.081   4.302   6.112 -0.3387 -0.1608 -0.1932
 9235TIP3    H149196   4.035   4.375   6.154 -0.1750 -0.6460  0.8572
 9235TIP3    H249197   4.016   4.264   6.053 -1.3703 -0.9390  1.3864
 9236TIP3   OH249198   1.291   0.111  12.412 -0.1603 -0.0330 -0.4152
 9236TIP3    H149199   1.253   0.171  12.476 -1.1659 -0.2337 -0.8055
 9236TIP3    H249200   1.327   0.168  12.343 -0.5682  0.1354 -0.4887
 9237TIP3   OH249201   5.226   3.573  17.395 -0.0155  0.3920  0.4665
 9237TIP3    H149202   5.130   3.570  17.396 -0.0205  0.6123  0.7265
 9237TIP3    H249203   5.249   3.543  17.307 -0.2074 -2.2382  1.2349
 9238TIP3   OH249204   6.687   1.291   5.797 -0.6986  0.2487  0.3060
 9238TIP3    H149205   6.736   1.285   5.879 -0.3031 -1.9441 -0.0516
 9238TIP3    H249206   6.717   1.217   5.745 -2.9264  0.0026 -0.7408
 9239TIP3   OH249207   4.796   5.034   5.068 -0.5530  0.2140  0.0463
 9239TIP3    H149208   4.752   4.974   5.009 -0.0705 -3.3438  2.9790
 9239TIP3    H249209   4.889   5.012   5.061 -0.2111  1.4013  0.4601
 9240TIP3   OH249210   1.127   0.900  13.563  0.2881  0.3614 -0.1233
 9240TIP3    H149211   1.119   0.898  13.658 -0.8154 -2.0852 -0.1810
 9240TIP3    H249212   1.192   0.833  13.543  0.3996  0.7489 -1.1171
 9241TIP3   OH249213   3.066   1.320  16.564 -0.2984 -0.4331  0.0878
 9241TIP3    H149214   3.147   1.340  16.611  0.4784 -0.7838 -1.0634
 9241TIP3    H249215   3.029   1.245  16.610  0.5270 -0.8610  0.0664
 9242TIP3   OH249216   0.207   3.269  15.714 -0.4485  0.5163  0.3936
 9242TIP3    H149217   0.168   3.355  15.694 -0.1855  0.8633  1.3462
 9242TIP3    H249218   0.145   3.206  15.676 -0.1276  1.1248 -1.2609
 9243TIP3   OH249219   3.787   2.788   2.240  0.0869  0.3054  0.2436
 9243TIP3    H149220   3.776   2.710   2.295 -1.3731  0.4441  0.1795
 9243TIP3    H249221   3.740   2.857   2.286 -0.9041  0.5013 -1.0132
 9244TIP3   OH249222   0.466   1.341   0.141 -0.2412  0.5701  0.2882
 9244TIP3    H149223   0.408   1.409   0.176 -1.7852 -1.0582  1.0326
 9244TIP3    H249224   0.550   1.358   0.182 -1.0470  1.0024  1.8336
 9245TIP3   OH249225   5.449   5.154  13.689  0.1824  0.0186  0.3188
 9245TIP3    H149226   5.367   5.139  13.642 -0.5310 -0.4196  1.6510
 9245TIP3    H249227   5.431   5.125  13.778  1.2259  1.6002  1.0849
 9246TIP3   OH249228   4.161   3.193  17.140  0.1716 -0.1761  0.5136
 9246TIP3    H149229   4.212   3.266  17.104  1.5129  0.1940  2.8868
 9246TIP3    H249230   4.151   3.132  17.068  2.3050  0.6659 -0.5768
 9247TIP3   OH249231   0.465   5.450   1.443  0.3336  0.1075  0.3805
 9247TIP3    H149232   0.535   5.398   1.404 -0.4372 -0.1937 -0.6616
 9247TIP3    H249233   0.407   5.386   1.484 -0.8183  0.0382 -1.2305
 9248TIP3   OH249234   2.164   4.193   4.458  0.1397 -0.4678  0.4035
 9248TIP3    H149235   2.160   4.230   4.546 -1.2520 -0.6225  0.4255
 9248TIP3    H249236   2.084   4.142   4.449  0.1631 -0.3063 -1.0144
 9249TIP3   OH249237   2.280   5.461  15.488 -0.2835 -0.1945 -0.6431
 9249TIP3    H149238   2.366   5.420  15.487 -0.5355 -0.7729  0.2738
 9249TIP3    H249239   2.282   5.520  15.563 -0.7997 -0.4887 -0.3889
 9250TIP3   OH249240   2.416   1.604   5.649 -0.0454  0.0151 -0.3149
 9250TIP3    H149241   2.327   1.573   5.664 -0.5374  1.7459  0.6073
 9250TIP3    H249242   2.426   1.605   5.554 -2.1723  2.7061 -0.6283
 9251TIP3   OH249243   0.043   6.034  16.883 -0.1853 -0.0900 -0.0706
 9251TIP3    H149244   0.131   5.997  16.884 -0.0270  0.2882  0.9568
 9251TIP3    H249245  -0.008   5.979  16.942 -0.4316  0.1843 -0.0197
 9252TIP3   OH249246   2.437   4.233  17.438 -0.0904  0.1146 -0.1071
 9252TIP3    H149247   2.378   4.300  17.471 -1.3424 -0.9933 -0.0017
 9252TIP3    H249248   2.482   4.201  17.516  0.1795  0.5216 -0.0958
 9253TIP3   OH249249   5.934   2.962  12.781 -0.4488  0.5003 -0.1196
 9253TIP3    H149250   5.858   3.018  12.767 -0.0594  1.3284  0.9507
 9253TIP3    H249251   6.007   3.007  12.738 -0.3885  0.1521 -0.3874
 9254TIP3   OH249252   6.085   2.668  13.955 -0.1427  0.2210 -0.1895
 9254TIP3    H149253   6.090   2.760  13.927 -0.1306  0.0873 -0.6293
 9254TIP3    H249254   6.172   2.633  13.938 -0.7927 -0.5204 -2.3143
 9255TIP3   OH249255   5.340   5.070  11.749  0.0261  0.2881  1.1576
 9255TIP3    H149256   5.260   5.122  11.754  0.0168  0.2907  0.9759
 9255TIP3    H249257   5.396   5.107  11.818 -0.2897  0.0045  1.5702
 9256TIP3   OH249258   2.586   5.648   2.161 -0.0112  0.1225  0.0905
 9256TIP3    H149259   2.575   5.742   2.176  0.0885  0.3915 -1.3325
 9256TIP3    H249260   2.680   5.635   2.152 -0.0772  0.0552 -0.5977
 9257TIP3   OH249261   0.108   1.138   6.356  0.5325  0.3969 -0.2818
 9257TIP3    H149262   0.039   1.083   6.393  1.0767 -0.9932 -1.2314
 9257TIP3    H249263   0.187   1.115   6.406  0.7447  0.3739 -0.6223
 9258TIP3   OH249264   6.417   2.068   3.875  0.0266  0.3458 -0.7909
 9258TIP3    H149265   6.357   1.997   3.852 -1.2024  0.8419  0.6921
 9258TIP3    H249266   6.360   2.136   3.912  0.9997  2.5648 -3.0882
 9259TIP3   OH249267   6.695   4.319   3.225 -0.4220 -0.4581  0.3759
 9259TIP3    H149268   6.743   4.279   3.297  0.9797  0.8838  0.2488
 9259TIP3    H249269   6.758   4.322   3.153 -0.4410  1.8568  0.3669
 9260TIP3   OH249270   1.669   4.524  12.428  0.5343 -0.2746  0.4433
 9260TIP3    H149271   1.691   4.459  12.361 -1.1739  1.3034 -1.7880
 9260TIP3    H249272   1.646   4.472  12.505 -0.1084 -2.3117 -1.0442
 9261TIP3   OH249273   3.492   4.827  14.464  0.3864  0.8757  0.0288
 9261TIP3    H149274   3.509   4.873  14.546  0.6081  1.9950 -0.6267
 9261TIP3    H249275   3.409   4.862  14.432 -1.2347 -1.6171  1.1565
 9262TIP3   OH249276   1.349   6.040  11.117 -0.0475  0.8935  0.0961
 9262TIP3    H149277   1.304   6.057  11.034 -0.3947 -0.7519 -0.0866
 9262TIP3    H249278   1.350   6.125  11.162  1.2450  2.1252 -2.0896
 9263TIP3   OH249279   0.892   5.980  13.329 -0.2568 -0.2500  0.1100
 9263TIP3    H149280   0.942   5.902  13.355 -1.3119 -0.1329  2.8358
 9263TIP3    H249281   0.860   6.016  13.412 -2.3469  1.3656 -1.3092
 9264TIP3   OH249282   4.963   2.885  14.488  0.0418 -0.1256  0.2692
 9264TIP3    H149283   5.045   2.845  14.518  0.0110 -1.1474 -0.8843
 9264TIP3    H249284   4.895   2.827  14.520 -0.2829  0.9164  1.5300
 9265TIP3   OH249285   4.949   1.077  16.197  0.1122 -0.0818  0.2410
 9265TIP3    H149286   4.889   1.105  16.127  0.0152  1.0072  0.7347
 9265TIP3    H249287   5.009   1.151  16.208 -0.6087  0.2821  2.1074
 9266TIP3   OH249288   0.746   5.641  16.220  0.6407  1.0289  0.2854
 9266TIP3    H149289   0.840   5.657  16.214  0.7462  1.3118  2.1104
 9266TIP3    H249290   0.706   5.727  16.206  0.5666  0.7460 -1.4561
 9267TIP3   OH249291   5.008   1.235   1.856 -0.1747  0.0312 -0.9988
 9267TIP3    H149292   5.028   1.147   1.825  1.1917 -0.0792  0.0907
 9267TIP3    H249293   4.914   1.235   1.871 -0.1396 -1.3633 -0.6570
 9268TIP3   OH249294   6.438   0.158  12.571 -0.4064  0.1388  0.9369
 9268TIP3    H149295   6.411   0.067  12.556  0.7181 -0.9073  4.2765
 9268TIP3    H249296   6.521   0.166  12.525 -0.9121 -0.2416 -0.0672
 9269TIP3   OH249297   2.456   4.661  16.420  0.1035 -0.8212 -0.5212
 9269TIP3    H149298   2.409   4.710  16.487 -0.8048 -2.0244 -0.2346
 9269TIP3    H249299   2.545   4.655  16.453  0.6762  1.9303 -1.3121
 9270TIP3   OH249300   6.543   3.393   2.553  0.4158  0.1784  0.7116
 9270TIP3    H149301   6.633   3.407   2.523 -0.4671  2.2183 -1.3031
 9270TIP3    H249302   6.517   3.477   2.592 -1.1434  0.2337 -0.3544
 9271TIP3   OH249303   2.816   2.073   3.386 -0.6183 -0.2670 -0.6296
 9271TIP3    H149304   2.777   1.985   3.384 -1.1210 -0.0482 -0.3828
 9271TIP3    H249305   2.797   2.106   3.473  0.0958 -0.1427 -0.5163
 9272TIP3   OH249306   3.601   4.192  15.060  0.4066 -0.1397  0.1055
 9272TIP3    H149307   3.604   4.120  15.124  0.9524  0.2565  0.5347
 9272TIP3    H249308   3.560   4.264  15.108  0.0423 -0.0948 -0.2646
 9273TIP3   OH249309   2.272   0.885   2.985  0.3354 -0.5976  0.2800
 9273TIP3    H149310   2.188   0.855   2.952 -0.4448  1.5030  0.1822
 9273TIP3    H249311   2.284   0.839   3.068 -1.7578  0.2690  1.1293
 9274TIP3   OH249312   5.854   0.039  11.557 -0.1774 -0.0990 -0.2936
 9274TIP3    H149313   5.897  -0.023  11.498 -1.3632  0.4372 -1.7882
 9274TIP3    H249314   5.926   0.089  11.595  0.6961 -1.3575 -0.2574
 9275TIP3   OH249315   1.293   0.193  12.757 -0.1737  0.4499 -0.2306
 9275TIP3    H149316   1.264   0.265  12.701  0.2931  1.4939  0.8221
 9275TIP3    H249317   1.388   0.192  12.749 -0.1402  0.2641  0.1216
 9276TIP3   OH249318   3.248   3.517   2.703  0.3168  0.0517  0.5190
 9276TIP3    H149319   3.157   3.496   2.724 -0.1960 -0.4042 -1.8585
 9276TIP3    H249320   3.255   3.612   2.717 -0.7134  0.1929  0.1324
 9277TIP3   OH249321   6.482   3.360   3.944  0.1907  0.5850  0.0732
 9277TIP3    H149322   6.462   3.380   3.853 -0.2444  2.3051  0.5080
 9277TIP3    H249323   6.478   3.265   3.949  0.5897  0.4315 -1.7735
 9278TIP3   OH249324   6.019   1.530   4.920  0.4347 -0.4538 -0.4673
 9278TIP3    H149325   5.937   1.569   4.891  0.0033 -0.8384  0.2252
 9278TIP3    H249326   6.077   1.605   4.933 -0.1880 -0.0854  0.2239
 9279TIP3   OH249327   3.371   5.378  16.025 -0.0248  0.6412 -0.1502
 9279TIP3    H149328   3.422   5.381  15.943  0.2465  1.9374  0.0377
 9279TIP3    H249329   3.305   5.447  16.014 -1.1411 -0.3838  0.0055
 9280TIP3   OH249330   5.889   0.943  13.079 -0.2736 -1.1009 -0.1371
 9280TIP3    H149331   5.852   0.869  13.128 -1.0317 -1.7949 -1.6915
 9280TIP3    H249332   5.980   0.919  13.066 -0.2786 -1.3175  0.1924
 9281TIP3   OH249333   1.859   2.451   1.650  0.3147  0.5557  0.1818
 9281TIP3    H149334   1.856   2.478   1.559  1.6227 -1.6328 -0.6013
 9281TIP3    H249335   1.833   2.528   1.700 -2.1279  1.3068 -2.0782
 9282TIP3   OH249336   3.927   1.489  17.453 -0.3684  0.0535  0.2368
 9282TIP3    H149337   3.836   1.472  17.475 -0.3061 -0.6204 -0.0096
 9282TIP3    H249338   3.938   1.454  17.365  0.6774 -1.8995  1.0817
 9283TIP3   OH249339   2.661   2.152  14.985  0.3200 -0.2684  0.2452
 9283TIP3    H149340   2.641   2.239  15.021 -1.5277  0.2338 -1.8240
 9283TIP3    H249341   2.714   2.170  14.907  0.3965 -1.0476  0.1147
 9284TIP3   OH249342   0.088   2.515  16.231  0.1575 -0.3271  0.2773
 9284TIP3    H149343   0.146   2.578  16.274  2.2125 -1.3679 -0.8190
 9284TIP3    H249344   0.001   2.538  16.263  1.1977  0.9239  2.5001
 9285TIP3   OH249345   0.387   0.912   2.743  0.1946 -0.0279 -0.1648
 9285TIP3    H149346   0.351   0.835   2.698 -0.7034  0.2545  0.0607
 9285TIP3    H249347   0.319   0.978   2.737  1.6224  1.3679 -1.8778
 9286TIP3   OH249348   1.071   1.262  10.917 -0.1460 -0.1212  0.0818
 9286TIP3    H149349   1.129   1.336  10.900 -1.6800  1.3872  1.0267
 9286TIP3    H249350   0.983   1.298  10.903 -0.9732 -1.5497  1.3654
 9287TIP3   OH249351   0.648   1.257   0.350  0.6821  0.1362  0.0926
 9287TIP3    H149352   0.591   1.261   0.426 -0.8549  3.9115 -1.0008
 9287TIP3    H249353   0.728   1.303   0.377  1.7264 -1.8109  0.4707
 9288TIP3   OH249354   4.986   0.475   2.373 -0.3248 -0.0889 -0.4011
 9288TIP3    H149355   4.900   0.496   2.410 -0.4065 -0.2613 -0.4942
 9288TIP3    H249356   5.040   0.456   2.449  0.0466  1.5047 -0.2270
 9289TIP3   OH249357   6.667   3.427  13.766 -0.4852  0.1172 -0.6552
 9289TIP3    H149358   6.659   3.522  13.774 -2.1226 -0.0473  0.0087
 9289TIP3    H249359   6.579   3.394  13.781  0.3029 -1.6141  0.5440
 9290TIP3   OH249360   4.296   4.047   1.266  0.5230  0.1567 -0.4058
 9290TIP3    H149361   4.224   4.107   1.284  0.8597  1.7480 -3.6399
 9290TIP3    H249362   4.255   3.973   1.222  0.5953 -0.1973  0.1072
 9291TIP3   OH249363   6.043   3.570  12.961  0.0481 -0.3085  0.0172
 9291TIP3    H149364   6.107   3.510  12.922 -0.2467 -1.3399  1.0777
 9291TIP3    H249365   5.966   3.562  12.905 -0.2453 -1.4972  0.5672
 9292TIP3   OH249366   1.462   0.085   3.074 -0.2630 -0.1536  0.7157
 9292TIP3    H149367   1.404   0.051   3.006 -0.8746 -0.0679  1.1848
 9292TIP3    H249368   1.480   0.176   3.048  2.6324 -1.1904 -1.3778
 9293TIP3   OH249369   0.031   5.756  11.851  0.0837 -0.1395  0.3501
 9293TIP3    H149370   0.118   5.748  11.814 -0.9967 -1.3893 -2.1593
 9293TIP3    H249371   0.018   5.675  11.900 -0.1207 -0.5338 -0.3495
 9294TIP3   OH249372   4.803   6.622   0.164 -0.1006 -0.1770 -0.4841
 9294TIP3    H149373   4.858   6.628   0.086 -0.2957 -1.5878 -0.7604
 9294TIP3    H249374   4.859   6.579   0.229 -0.0462  0.7049  0.0688
 9295TIP3   OH249375   0.970   0.727   3.136  0.4723  0.1362  0.2116
 9295TIP3    H149376   0.913   0.794   3.173  0.1200 -1.3955  2.7269
 9295TIP3    H249377   0.911   0.653   3.119  1.5186 -1.4010  2.6605
 9296TIP3   OH249378   6.439   1.676   5.666  0.7480 -1.0289  0.4615
 9296TIP3    H149379   6.500   1.684   5.592  1.1876  0.1014  0.9180
 9296TIP3    H249380   6.488   1.628   5.733  0.7723 -1.0175  0.4520
 9297TIP3   OH249381   4.613   3.085  10.697  0.2371  0.0885 -0.3649
 9297TIP3    H149382   4.694   3.112  10.656  0.6692  0.1037  0.4789
 9297TIP3    H249383   4.576   3.165  10.733  1.2720 -0.2853  1.7037
 9298TIP3   OH249384   6.278   6.082  13.879 -0.1881  0.3393 -0.8759
 9298TIP3    H149385   6.348   6.104  13.940 -1.1007 -1.7418  1.0616
 9298TIP3    H249386   6.219   6.156  13.881 -0.8355 -0.1786  1.8096
 9299TIP3   OH249387   4.157   3.508   4.619 -0.4708 -0.4699  0.1960
 9299TIP3    H149388   4.161   3.540   4.529  2.0824 -0.2497  0.3275
 9299TIP3    H249389   4.162   3.413   4.612 -5.1515 -0.9369 -0.0316
 9300TIP3   OH249390   4.857   4.909   4.614 -0.5783 -0.6552 -0.6651
 9300TIP3    H149391   4.789   4.897   4.680 -0.3940  0.5762 -0.2260
 9300TIP3    H249392   4.811   4.939   4.536 -0.6743 -1.1099 -0.7894
 9301TIP3   OH249393   0.491   1.435  12.207  0.1880 -0.8585  0.2063
 9301TIP3    H149394   0.509   1.388  12.288 -1.4661  0.1558  1.2182
 9301TIP3    H249395   0.567   1.492  12.194  0.0098 -0.2532  1.6484
 9302TIP3   OH249396   2.915   3.205  17.165  0.8191  1.4175 -0.5028
 9302TIP3    H149397   2.950   3.245  17.245  0.9846  1.4291 -0.5801
 9302TIP3    H249398   2.873   3.277  17.119 -0.4367  1.1635  0.1957
 9303TIP3   OH249399   1.414   1.255  16.497  0.3978 -0.1120  0.2812
 9303TIP3    H149400   1.466   1.324  16.456 -0.5622  0.5244  0.0947
 9303TIP3    H249401   1.459   1.236  16.579  0.1221  1.4831  0.8374
 9304TIP3   OH249402   1.230   2.878   0.925  0.8745  0.2108  0.2380
 9304TIP3    H149403   1.144   2.861   0.888  0.6460  1.3812  0.1910
 9304TIP3    H249404   1.285   2.806   0.893  0.1742  0.0394 -0.6027
 9305TIP3   OH249405   3.921   6.332  14.967 -0.8097 -0.3348 -0.1353
 9305TIP3    H149406   3.945   6.246  15.003 -0.1764  0.5663  1.7353
 9305TIP3    H249407   3.894   6.383  15.043 -1.0073  1.1881 -1.1867
 9306TIP3   OH249408   1.073   0.827   4.806  0.0918  0.3426  0.3556
 9306TIP3    H149409   1.150   0.884   4.796 -0.3758  0.9656  0.2955
 9306TIP3    H249410   1.087   0.785   4.891  0.2404  0.8534  0.5906
 9307TIP3   OH249411   3.176   3.953   6.214 -0.4119 -0.1916  0.1778
 9307TIP3    H149412   3.112   4.016   6.181  1.5439  1.8323  0.0219
 9307TIP3    H249413   3.237   3.941   6.142  1.8700  1.4660  1.6861
 9308TIP3   OH249414   0.016   6.028  12.775  0.3404  0.5569  0.3839
 9308TIP3    H149415  -0.044   6.008  12.847  0.3612  2.3519  0.9522
 9308TIP3    H249416   0.095   6.061  12.818  0.5308  1.2032 -0.4330
 9309TIP3   OH249417   0.139   3.362  17.086  0.2302 -0.6967 -0.1416
 9309TIP3    H149418   0.181   3.447  17.095 -0.9227 -0.0822 -0.3600
 9309TIP3    H249419   0.066   3.365  17.149 -0.2510 -1.2410 -0.6638
 9310TIP3   OH249420   0.813   3.094   0.478 -0.1500 -0.5729 -0.4208
 9310TIP3    H149421   0.812   3.030   0.407 -1.7888 -0.2446 -0.7356
 9310TIP3    H249422   0.732   3.079   0.525  0.6850 -0.4591  1.1233
 9311TIP3   OH249423   4.961   1.052  12.640  0.0959  0.8220  0.5073
 9311TIP3    H149424   4.964   1.140  12.603 -1.6746 -0.0735 -2.0544
 9311TIP3    H249425   4.898   1.005  12.586 -0.0531 -1.6789  2.6188
 9312TIP3   OH249426   3.785   5.845  17.139 -0.5372  0.2854  0.2854
 9312TIP3    H149427   3.738   5.906  17.083  0.3318  0.5216 -0.2043
 9312TIP3    H249428   3.726   5.829  17.213 -0.2452  2.7948  1.1655
 9313TIP3   OH249429   3.131   2.173   2.978  0.4925  0.6749  0.0449
 9313TIP3    H149430   3.159   2.090   3.018  0.9084  0.5138 -0.5599
 9313TIP3    H249431   3.111   2.149   2.888  0.3857  1.1944 -0.0680
 9314TIP3   OH249432   3.472   2.169   5.398  0.2769  0.3542  0.2437
 9314TIP3    H149433   3.378   2.183   5.404 -0.0921 -1.4588 -0.5330
 9314TIP3    H249434   3.495   2.123   5.479 -0.2219 -2.3519 -1.0340
 9315TIP3   OH249435   2.849   3.342  13.799  0.1509 -0.1914 -0.1382
 9315TIP3    H149436   2.848   3.436  13.779 -2.2690  0.0686  0.8338
 9315TIP3    H249437   2.918   3.332  13.865  2.3980  0.3483 -2.2837
 9316TIP3   OH249438   0.817   3.619  14.340 -0.2517 -0.4172  0.0013
 9316TIP3    H149439   0.826   3.548  14.404  0.4456 -0.5674 -0.2561
 9316TIP3    H249440   0.760   3.584  14.273 -2.0094  0.1683  1.1315
 9317TIP3   OH249441   0.758   4.622   5.323 -0.0246 -0.7495 -0.3303
 9317TIP3    H149442   0.823   4.592   5.386 -0.1904 -1.2501 -0.3979
 9317TIP3    H249443   0.678   4.631   5.374  0.2595  0.6059 -0.0748
 9318TIP3   OH249444   1.922   1.513  11.388  0.2689  0.0033 -0.2363
 9318TIP3    H149445   1.872   1.574  11.442 -0.8062  0.6032 -1.8697
 9318TIP3    H249446   2.003   1.559  11.367  0.0229  0.3494 -0.4118
 9319TIP3   OH249447   5.478   5.011   5.377  0.4594 -0.4983  0.0560
 9319TIP3    H149448   5.546   4.994   5.312  0.0035 -0.4603 -0.4374
 9319TIP3    H249449   5.511   5.084   5.429  0.1324  0.5385 -1.1506
 9320TIP3   OH249450   5.114   4.245  11.601  0.9645  0.0733 -0.1965
 9320TIP3    H149451   5.201   4.240  11.561  1.2329 -1.7669  0.5197
 9320TIP3    H249452   5.123   4.198  11.683 -0.7225 -0.1852 -0.1363
 9321TIP3   OH249453   5.379   3.166  14.115  0.3503 -0.0258 -0.3436
 9321TIP3    H149454   5.356   3.078  14.085 -0.6776  0.3229 -0.6085
 9321TIP3    H249455   5.302   3.219  14.096  1.4692  1.2582 -1.4738
 9322TIP3   OH249456   5.581   0.457   2.525  0.5935 -1.0957  0.4179
 9322TIP3    H149457   5.669   0.489   2.544  0.1340  0.3821  0.2083
 9322TIP3    H249458   5.586   0.423   2.436  0.4472  1.1359 -0.4935
 9323TIP3   OH249459   2.124   6.652   0.942 -0.4838 -0.6081  0.2797
 9323TIP3    H149460   2.101   6.595   0.868 -2.0346  0.4594 -0.0944
 9323TIP3    H249461   2.074   6.617   1.016  1.1215 -1.7216  0.9054
 9324TIP3   OH249462   1.026   0.033  13.876  0.1898 -0.1041  0.3500
 9324TIP3    H149463   1.041   0.078  13.792  2.6595 -0.6715  0.4016
 9324TIP3    H249464   0.931   0.021  13.880  0.0333 -0.6761 -2.6870
 9325TIP3   OH249465   0.558   3.258   0.530  0.4775  0.3813 -0.3778
 9325TIP3    H149466   0.511   3.300   0.603  2.6468  1.1301  0.6662
 9325TIP3    H249467   0.578   3.330   0.471  0.3470  0.0719 -0.7985
 9326TIP3   OH249468   3.001   2.482  11.715  0.0026 -0.1939  0.1386
 9326TIP3    H149469   3.034   2.442  11.795 -0.8817 -0.3065  0.4641
 9326TIP3    H249470   3.001   2.576  11.734 -1.4265 -0.2905  0.7868
 9327TIP3   OH249471   1.258   4.396  15.472 -0.0899 -0.4460  0.1913
 9327TIP3    H149472   1.194   4.447  15.422 -2.2753 -0.3537  2.8283
 9327TIP3    H249473   1.229   4.306  15.462 -0.7238 -0.4002  1.4291
 9328TIP3   OH249474   1.929   4.797  15.236  0.0105 -0.6623  0.5512
 9328TIP3    H149475   1.993   4.809  15.166  2.3214  0.2039  2.6572
 9328TIP3    H249476   1.894   4.885  15.252 -0.4024 -0.8321  0.5968
 9329TIP3   OH249477   1.010   3.226  12.202  0.3486  0.8034  0.7012
 9329TIP3    H149478   0.988   3.150  12.148  0.1875  0.6189  1.0226
 9329TIP3    H249479   1.100   3.210  12.231  0.0543  0.3602  1.3901
 9330TIP3   OH249480   4.779   4.775  15.411  0.1221  0.1191  0.1015
 9330TIP3    H149481   4.799   4.867  15.428 -1.5352  0.5975 -0.3349
 9330TIP3    H249482   4.763   4.738  15.498 -0.1874  0.5024  0.2143
 9331TIP3   OH249483   5.172   3.414  15.351  0.4474  0.0786  0.5214
 9331TIP3    H149484   5.203   3.357  15.421  0.6874 -0.8925 -0.3591
 9331TIP3    H249485   5.223   3.389  15.274  1.3877  2.2713  0.3559
 9332TIP3   OH249486   1.462   5.827  13.689 -0.0744 -0.5320  0.2940
 9332TIP3    H149487   1.477   5.801  13.780 -0.6503  0.6011  0.7435
 9332TIP3    H249488   1.388   5.887  13.694 -0.2157 -0.5787 -0.9547
 9333TIP3   OH249489   6.229   3.435  12.787  0.0024 -0.3478  0.2436
 9333TIP3    H149490   6.313   3.479  12.798 -0.3952  0.0909  1.7355
 9333TIP3    H249491   6.210   3.443  12.694  1.5594 -0.3648 -0.0976
 9334TIP3   OH249492   4.362   2.195   4.852 -0.1145 -0.3684  0.1806
 9334TIP3    H149493   4.375   2.165   4.762  0.7012 -2.1185  0.8350
 9334TIP3    H249494   4.267   2.204   4.861 -0.3226 -1.6166 -0.4443
 9335TIP3   OH249495   0.100   2.669   5.200  0.4736  0.1477  0.0022
 9335TIP3    H149496   0.064   2.739   5.146  3.0787 -0.0750 -2.2164
 9335TIP3    H249497   0.047   2.671   5.280 -2.3017  1.7826 -1.7159
 9336TIP3   OH249498   0.712   3.057  10.626 -0.3067 -0.4988  0.4201
 9336TIP3    H149499   0.673   2.970  10.637 -1.3166 -0.0439  0.5323
 9336TIP3    H249500   0.671   3.110  10.694  0.5797 -0.0112  0.5955
 9337TIP3   OH249501   5.945   3.986   2.324 -0.1045  0.3174  0.6691
 9337TIP3    H149502   6.008   4.058   2.321 -0.6022  0.7419 -0.0754
 9337TIP3    H249503   5.860   4.029   2.336 -0.5370 -0.0427 -0.8728
 9338TIP3   OH249504   1.892   2.409  12.861  0.0728 -0.4091 -0.2750
 9338TIP3    H149505   1.925   2.418  12.771  1.9381 -2.8000  0.0581
 9338TIP3    H249506   1.798   2.400  12.851  0.0630  0.9161 -1.8376
 9339TIP3   OH249507   1.989   0.789   5.285 -0.1022 -0.3656  0.0331
 9339TIP3    H149508   1.970   0.865   5.340  2.0132 -0.3430  0.8099
 9339TIP3    H249509   2.070   0.812   5.239 -1.4915 -0.6256 -2.7150
 9340TIP3   OH249510   0.668   2.366   4.383 -0.4864  0.0092  0.0233
 9340TIP3    H149511   0.657   2.458   4.358 -0.1476  0.0109 -0.1210
 9340TIP3    H249512   0.667   2.366   4.478  0.3016  0.2595  0.0346
 9341TIP3   OH249513   4.952   0.732  17.314  0.1491 -0.3776 -0.0709
 9341TIP3    H149514   4.984   0.814  17.352 -2.8968  0.4391  1.0214
 9341TIP3    H249515   4.935   0.676  17.390 -1.0427 -0.6992 -0.5496
 9342TIP3   OH249516   6.522   4.664  13.334  0.8194 -0.6516  0.3114
 9342TIP3    H149517   6.462   4.695  13.402  1.2027  0.0276  0.3557
 9342TIP3    H249518   6.474   4.594  13.290  0.4519 -0.9087  1.0898
 9343TIP3   OH249519   3.978   3.150   0.463  0.2261 -0.5276  0.1782
 9343TIP3    H149520   4.036   3.196   0.402  1.5214 -2.2050  0.0651
 9343TIP3    H249521   3.929   3.220   0.506  1.4679  0.8969 -0.5975
 9344TIP3   OH249522   6.477   0.231  11.879  0.5286 -0.1300  0.2853
 9344TIP3    H149523   6.481   0.139  11.902 -1.8434 -0.3082  0.2357
 9344TIP3    H249524   6.439   0.232  11.790 -0.2259  0.8764  0.5895
 9345TIP3   OH249525   5.319   2.889  16.009  0.3107 -0.2515  0.8676
 9345TIP3    H149526   5.392   2.846  16.052  0.4463  0.5132  1.4270
 9345TIP3    H249527   5.360   2.951  15.948  0.1360  0.2057  1.2081
 9346TIP3   OH249528   6.526   2.870   3.090  0.2783  0.3065 -0.2346
 9346TIP3    H149529   6.515   2.938   3.156 -0.1581 -0.8240  0.8869
 9346TIP3    H249530   6.499   2.911   3.008 -1.2963  1.0651  0.6358
 9347TIP3   OH249531   5.332   4.322  16.902 -0.4658 -0.7636  0.3053
 9347TIP3    H149532   5.255   4.350  16.952  0.0791 -0.5327  1.0365
 9347TIP3    H249533   5.406   4.360  16.949  0.0806 -0.7613 -0.5445
 9348TIP3   OH249534   3.609   3.348   2.211  0.8052 -0.7807 -0.5787
 9348TIP3    H149535   3.632   3.387   2.127 -0.0401  1.4041  0.1107
 9348TIP3    H249536   3.653   3.403   2.276 -1.9378  0.3096  0.5377
 9349TIP3   OH249537   4.751   3.552   5.461  0.4300  0.5490  0.2053
 9349TIP3    H149538   4.713   3.472   5.423 -0.6553  1.5314 -0.8949
 9349TIP3    H249539   4.809   3.585   5.392  0.9641  0.6609  0.7042
 9350TIP3   OH249540   1.362   5.708   6.412 -0.0804  0.1607  0.6916
 9350TIP3    H149541   1.283   5.742   6.454  0.1203  0.0555  1.1628
 9350TIP3    H249542   1.415   5.674   6.484  0.4874  0.4136  0.3997
 9351TIP3   OH249543   1.138   3.717  13.347 -0.3424  0.2403 -0.3413
 9351TIP3    H149544   1.071   3.723  13.415 -1.5314 -0.2152 -1.4316
 9351TIP3    H249545   1.221   3.719  13.395 -1.1219 -2.4615  1.3637
 9352TIP3   OH249546   4.241   4.127  13.251  0.2151  0.0458  0.3361
 9352TIP3    H149547   4.328   4.132  13.213  0.2397  0.5481  0.4512
 9352TIP3    H249548   4.244   4.185  13.327 -0.5269  0.9354 -0.2894
 9353TIP3   OH249549   2.055   0.227   3.522  0.1118 -0.1492 -0.5075
 9353TIP3    H149550   2.012   0.141   3.521 -0.2811  0.0264  0.0850
 9353TIP3    H249551   2.097   0.231   3.608 -0.4406  0.5132 -0.2538
 9354TIP3   OH249552   2.214   6.669   4.579 -0.2404  0.3912 -0.1525
 9354TIP3    H149553   2.271   6.686   4.505 -1.4648 -0.5038 -1.3618
 9354TIP3    H249554   2.270   6.680   4.656  1.5242 -0.3391 -1.2629
 9355TIP3   OH249555   6.442   5.460   0.930  0.1663 -0.6101  0.1474
 9355TIP3    H149556   6.448   5.516   1.007  0.5213  0.4032 -0.5880
 9355TIP3    H249557   6.369   5.401   0.948 -0.9280  0.7966  0.5195
 9356TIP3   OH249558   2.172   5.509   6.424 -0.3457 -0.8439  0.4010
 9356TIP3    H149559   2.196   5.461   6.504 -0.1710  1.4421  1.7942
 9356TIP3    H249560   2.255   5.528   6.381 -0.2082  0.2106  1.0949
 9357TIP3   OH249561   2.285   1.312  14.149  0.0485 -0.1044  0.1742
 9357TIP3    H149562   2.209   1.312  14.207 -0.5456 -0.2083 -0.5805
 9357TIP3    H249563   2.334   1.234  14.173 -0.6591 -0.6288 -0.0458
 9358TIP3   OH249564   2.063   2.189  12.985 -0.6430 -0.7162 -0.0532
 9358TIP3    H149565   1.979   2.168  13.026 -1.5404  0.3970 -1.2283
 9358TIP3    H249566   2.041   2.251  12.915  1.0238 -1.2369 -1.1048
 9359TIP3   OH249567   5.590   0.389  17.322  0.6873 -0.7886  0.3792
 9359TIP3    H149568   5.515   0.410  17.266 -0.2455 -2.3860  0.9568
 9359TIP3    H249569   5.623   0.474  17.351 -1.4209 -0.0377  0.7501
 9360TIP3   OH249570   6.130   4.774  15.469 -0.4182  0.5033 -0.2335
 9360TIP3    H149571   6.121   4.737  15.556  2.0665 -1.0711 -0.5349
 9360TIP3    H249572   6.091   4.708  15.411  1.3632 -0.3418 -0.5427
 9361TIP3   OH249573   1.685   0.993   2.600  0.0260 -0.4981 -0.0829
 9361TIP3    H149574   1.624   1.065   2.613  0.1978 -0.2236 -0.7590
 9361TIP3    H249575   1.630   0.916   2.587 -0.1622 -0.3650 -0.0724
 9362TIP3   OH249576   4.710   4.054  12.262  0.0472  0.2555  0.7477
 9362TIP3    H149577   4.648   4.104  12.316  0.8748  0.9629  1.0577
 9362TIP3    H249578   4.664   3.971  12.244 -1.9445  1.5941 -0.8986
 9363TIP3   OH249579   5.240   5.224   4.428  0.1233 -0.2731 -0.3910
 9363TIP3    H149580   5.204   5.154   4.375 -1.1178  1.3125 -1.7714
 9363TIP3    H249581   5.170   5.290   4.432  1.7518  1.5661 -0.4718
 9364TIP3   OH249582   1.306   0.889  14.722  0.0952  0.2439  0.0337
 9364TIP3    H149583   1.347   0.897  14.808 -0.9283  1.0622  0.4728
 9364TIP3    H249584   1.288   0.795  14.712 -0.2976  0.2082  0.9710
 9365TIP3   OH249585   1.234   4.850   1.815  0.0494  0.4031 -0.1451
 9365TIP3    H149586   1.322   4.839   1.778  1.2660  0.7144  2.3833
 9365TIP3    H249587   1.198   4.926   1.769  1.2027  0.4195 -1.0726
 9366TIP3   OH249588   4.841   0.388   3.406  0.1225  0.4051 -0.0038
 9366TIP3    H149589   4.837   0.473   3.450  1.9605 -0.6712  2.4186
 9366TIP3    H249590   4.756   0.348   3.425 -1.1377  1.9581 -1.9421
 9367TIP3   OH249591   4.631   3.276  15.915 -0.3562 -0.3729  0.3469
 9367TIP3    H149592   4.536   3.267  15.904 -0.3785 -0.4733  0.6251
 9367TIP3    H249593   4.644   3.366  15.944 -0.5571 -0.9624  2.4217
 9368TIP3   OH249594   0.369   3.987   1.594  0.6061 -0.4636  0.4193
 9368TIP3    H149595   0.392   4.072   1.633 -0.6373 -0.3976  1.0537
 9368TIP3    H249596   0.381   4.000   1.500  1.2829  0.1357  0.5798
 9369TIP3   OH249597   3.205   0.425   5.488 -0.2687  0.2719 -0.7792
 9369TIP3    H149598   3.116   0.447   5.515 -1.1243 -2.1270 -1.3125
 9369TIP3    H249599   3.197   0.336   5.452  2.6090 -0.6586  0.5729
 9370TIP3   OH249600   6.449   0.102   4.406  0.2061 -0.3112 -0.0890
 9370TIP3    H149601   6.535   0.109   4.448  0.4515 -1.6829 -0.3381
 9370TIP3    H249602   6.449   0.172   4.340  0.4212  0.8478  1.0823
 9371TIP3   OH249603   2.921   5.532  12.915  0.0211  0.2707  0.3449
 9371TIP3    H149604   2.883   5.463  12.969 -0.2373  0.7052  0.7292
 9371TIP3    H249605   2.985   5.487  12.859  0.2894 -0.1906  1.0072
 9372TIP3   OH249606   5.225   0.911  12.189  0.7950  0.1189 -0.6899
 9372TIP3    H149607   5.290   0.896  12.258  0.5422  0.9070 -0.2687
 9372TIP3    H249608   5.192   0.999  12.207 -0.4281 -0.2964 -0.8730
 9373TIP3   OH249609   6.493   3.412  13.323  0.1216  0.2047  0.1456
 9373TIP3    H149610   6.517   3.491  13.371 -0.6091  0.2286  0.5016
 9373TIP3    H249611   6.414   3.437  13.274 -0.2249 -0.3414  0.4066
 9374TIP3   OH249612   0.448   1.717  16.877  0.0824 -0.6142 -0.1565
 9374TIP3    H149613   0.391   1.646  16.905 -0.3767  0.0949  0.7400
 9374TIP3    H249614   0.392   1.773  16.823 -0.0843  0.0758  0.7127
 9375TIP3   OH249615   3.195   6.046  12.763 -0.2133 -0.3553  0.3091
 9375TIP3    H149616   3.277   6.041  12.812  0.5162  0.1336 -0.8294
 9375TIP3    H249617   3.221   6.040  12.671 -1.6998 -2.9210 -0.0179
 9376TIP3   OH249618   5.420   3.893   5.747 -0.7214 -0.2901 -0.2494
 9376TIP3    H149619   5.513   3.877   5.765 -1.3406 -1.3141  2.5696
 9376TIP3    H249620   5.379   3.806   5.753 -2.0382  0.3129 -0.0486
 9377TIP3   OH249621   0.655   0.936   2.799  0.3289  0.0314  0.0019
 9377TIP3    H149622   0.669   1.027   2.773  1.7872  0.5898  2.4027
 9377TIP3    H249623   0.562   0.921   2.785  0.0244  1.9576 -0.2726
 9378TIP3   OH249624   0.957   4.672   3.141  0.9356 -0.2702  0.3937
 9378TIP3    H149625   0.921   4.674   3.229  2.0048 -0.6662  0.8519
 9378TIP3    H249626   0.952   4.763   3.111  0.5587 -0.1349  0.8527
 9379TIP3   OH249627   3.321   1.040  16.618 -0.3280 -0.4928 -0.2770
 9379TIP3    H149628   3.371   0.964  16.590 -0.9008 -0.4567 -1.4859
 9379TIP3    H249629   3.347   1.054  16.709  0.8563 -1.2545 -0.4723
 9380TIP3   OH249630   3.239   0.237   5.117 -0.1409 -0.2701 -0.2362
 9380TIP3    H149631   3.165   0.237   5.055 -0.0226 -0.2705 -0.3771
 9380TIP3    H249632   3.250   0.329   5.141 -1.8124 -0.4978  1.7294
 9381TIP3   OH249633   1.487   4.620   4.371 -0.1567  1.0210 -0.0322
 9381TIP3    H149634   1.479   4.609   4.466 -0.4038  1.5205  0.0083
 9381TIP3    H249635   1.434   4.549   4.335  1.0053  0.0113  0.1803
 9382TIP3   OH249636   2.461   1.594   1.704 -0.0434  0.3491  0.4622
 9382TIP3    H149637   2.389   1.633   1.754 -0.1967  0.2981  0.2842
 9382TIP3    H249638   2.492   1.522   1.759 -1.5955 -1.0710 -0.4164
 9383TIP3   OH249639   1.666   2.559  15.620 -0.3999 -0.0169  0.3504
 9383TIP3    H149640   1.633   2.629  15.676 -1.9081 -0.4861  0.0961
 9383TIP3    H249641   1.644   2.586  15.531 -0.3277 -0.4658  0.1906
 9384TIP3   OH249642   6.182   2.464  11.290 -0.6163 -0.8685 -0.0302
 9384TIP3    H149643   6.105   2.479  11.345  0.5445  0.6982  1.2779
 9384TIP3    H249644   6.151   2.478  11.201 -2.2149 -2.0133  0.2914
 9385TIP3   OH249645   2.607   2.230  11.216  0.3430  0.1343 -0.2757
 9385TIP3    H149646   2.690   2.211  11.173  0.6362  2.0087 -0.6302
 9385TIP3    H249647   2.547   2.252  11.145 -0.5879 -1.5312 -0.0502
 9386TIP3   OH249648   2.897   2.359   5.164  0.0541  0.4976  0.3953
 9386TIP3    H149649   2.904   2.430   5.228 -1.1727 -0.8250  2.1180
 9386TIP3    H249650   2.815   2.376   5.118 -0.2242  0.2405  0.7870
 9387TIP3   OH249651   4.603   3.408  14.494  0.4135  0.4574  0.2076
 9387TIP3    H149652   4.599   3.502  14.509  0.0290  0.4478  0.1838
 9387TIP3    H249653   4.671   3.377  14.553 -1.0021  0.4299  1.9166
 9388TIP3   OH249654   0.684   2.085  13.744 -0.9623 -0.2948  0.6147
 9388TIP3    H149655   0.600   2.041  13.730 -1.0423 -1.1891  3.3843
 9388TIP3    H249656   0.661   2.178  13.750 -1.6604 -0.4655  0.7248
 9389TIP3   OH249657   1.759   2.451   0.217  0.0121 -0.6093 -0.2315
 9389TIP3    H149658   1.790   2.399   0.144  0.1092  0.4333 -0.9604
 9389TIP3    H249659   1.704   2.391   0.268  3.1890 -2.5744  1.1869
 9390TIP3   OH249660   4.625   1.081   4.214 -0.0793 -0.0921  0.2255
 9390TIP3    H149661   4.644   1.023   4.140  0.4525  1.4516 -0.9080
 9390TIP3    H249662   4.661   1.165   4.188 -1.0240  0.8198  1.7205
 9391TIP3   OH249663   0.250   2.339   0.619  0.1765 -0.6593 -0.0197
 9391TIP3    H149664   0.296   2.362   0.700  0.1648 -2.2101  0.4527
 9391TIP3    H249665   0.157   2.347   0.641  0.1804 -0.4327 -0.0833
 9392TIP3   OH249666   5.502   0.363  17.015  0.2211 -0.4080 -0.0833
 9392TIP3    H149667   5.538   0.351  16.927  0.2377  1.8611 -0.4450
 9392TIP3    H249668   5.421   0.312  17.014  1.3610 -2.3640 -0.5612
 9393TIP3   OH249669   6.430   4.938   1.742 -0.2443 -0.2342 -0.1990
 9393TIP3    H149670   6.372   4.875   1.786  0.1894 -0.1636  0.4896
 9393TIP3    H249671   6.500   4.954   1.805 -0.6322  1.3651 -0.1192
 9394TIP3   OH249672   6.274   5.945  16.864  0.1068 -0.0123  0.1901
 9394TIP3    H149673   6.280   6.034  16.830  0.0390  0.2478  0.8441
 9394TIP3    H249674   6.281   5.889  16.787  1.1176  0.5309 -0.1364
 9395TIP3   OH249675   6.094   1.577   4.332  0.5247  0.3819  0.6707
 9395TIP3    H149676   6.183   1.597   4.362  0.7635  0.3214  0.0398
 9395TIP3    H249677   6.044   1.563   4.411  1.6096 -1.9103  1.0194
 9396TIP3   OH249678   1.234   1.352   4.148  0.6225 -0.0063 -0.9165
 9396TIP3    H149679   1.319   1.324   4.183  0.9028  0.6519 -1.0534
 9396TIP3    H249680   1.212   1.430   4.200 -1.7532 -2.2768  1.8229
 9397TIP3   OH249681   4.637   5.348  13.329  0.1080  0.3572  0.1964
 9397TIP3    H149682   4.629   5.271  13.385  0.6987 -0.4552 -0.7927
 9397TIP3    H249683   4.610   5.318  13.242  2.8007  0.4894 -0.7964
 9398TIP3   OH249684   6.344   1.542   4.440 -0.8959 -0.0579  0.1873
 9398TIP3    H149685   6.386   1.513   4.521  0.3389 -0.9930 -0.7565
 9398TIP3    H249686   6.403   1.608   4.405  0.0975 -1.7173 -1.3943
 9399TIP3   OH249687   6.762   2.028   6.623  0.4107 -0.6364 -0.0518
 9399TIP3    H149688   6.769   1.933   6.614 -0.6338 -0.5125 -3.3881
 9399TIP3    H249689   6.669   2.043   6.641  0.7308 -0.2298  1.4274
 9400TIP3   OH249690   4.170   6.682  15.855 -0.2708 -0.2214 -0.7734
 9400TIP3    H149691   4.172   6.615  15.923  0.2451  1.9494  1.4912
 9400TIP3    H249692   4.229   6.751  15.887 -0.3560  1.1085 -3.2326
 9401TIP3   OH249693   3.264   0.820   1.699  0.1725  0.2100 -0.1066
 9401TIP3    H149694   3.333   0.760   1.672  1.5039  2.6111 -2.4672
 9401TIP3    H249695   3.309   0.902   1.716 -2.1109  2.4354 -3.5510
 9402TIP3   OH249696   2.445   2.965   4.487  0.6765 -0.1101 -0.2390
 9402TIP3    H149697   2.451   3.056   4.459  0.5906  0.4399  1.4361
 9402TIP3    H249698   2.535   2.935   4.493  0.8401  0.6270  1.4847
 9403TIP3   OH249699   0.454   0.864   0.178 -0.4503  0.4185 -0.5139
 9403TIP3    H149700   0.366   0.830   0.165 -0.5884  0.5168  0.1416
 9403TIP3    H249701   0.442   0.944   0.229  0.1357 -0.5995  1.3359
 9404TIP3   OH249702   5.724   5.927  14.121 -0.4319 -0.0422  0.4969
 9404TIP3    H149703   5.815   5.924  14.152 -1.0069 -1.8628  2.2207
 9404TIP3    H249704   5.715   6.015  14.083  2.3449 -0.2011 -0.7875
 9405TIP3   OH249705   4.791   4.521   6.145 -0.9031 -0.6523  0.3426
 9405TIP3    H149706   4.761   4.565   6.224  0.5643  1.2090 -0.0737
 9405TIP3    H249707   4.733   4.446   6.136 -2.0074 -0.1095  2.3877
 9406TIP3   OH249708   5.908   3.626   5.945  0.5735  0.1055 -0.0332
 9406TIP3    H149709   5.964   3.624   6.023  1.1774  0.3596 -0.4461
 9406TIP3    H249710   5.878   3.536   5.934 -0.2031  0.2167  0.9638
 9407TIP3   OH249711   2.855   4.067  15.345 -0.0531  0.1499  0.4531
 9407TIP3    H149712   2.870   3.994  15.405  0.5464 -1.1150 -1.1711
 9407TIP3    H249713   2.764   4.057  15.316  0.0638 -0.0258  0.1428
 9408TIP3   OH249714   3.160   1.672   4.479 -0.4110  0.0063 -0.2930
 9408TIP3    H149715   3.224   1.634   4.539 -0.0246  0.1999 -0.5792
 9408TIP3    H249716   3.204   1.672   4.394 -1.2303 -0.9629 -0.7322
 9409TIP3   OH249717   0.528   2.702  11.830  0.0166  0.0610  0.3460
 9409TIP3    H149718   0.495   2.614  11.844  0.4341 -0.1485  0.0283
 9409TIP3    H249719   0.616   2.702  11.868  0.3589  0.0803 -0.4164
 9410TIP3   OH249720   0.571   0.602   0.660 -0.4173 -0.7079  0.1120
 9410TIP3    H149721   0.571   0.607   0.564 -1.0117  0.4863  0.1532
 9410TIP3    H249722   0.599   0.688   0.688 -0.4049 -1.0021  1.0263
 9411TIP3   OH249723   1.882   2.275   5.495  0.0575  0.0019  0.5142
 9411TIP3    H149724   1.890   2.237   5.582  1.8878  1.0019  0.8466
 9411TIP3    H249725   1.913   2.365   5.505  0.5944  0.0584 -1.2139
 9412TIP3   OH249726   4.196   1.205   0.094 -0.5739 -0.1700  0.6767
 9412TIP3    H149727   4.178   1.270   0.162 -0.6874 -0.3661  0.8400
 9412TIP3    H249728   4.152   1.125   0.126 -1.9812  0.1403 -0.3836
 9413TIP3   OH249729   3.240   0.443  15.588  0.5424 -0.4433  0.5919
 9413TIP3    H149730   3.246   0.518  15.647  0.4817  1.0570 -1.2013
 9413TIP3    H249731   3.323   0.442  15.540 -0.7452  0.7234 -1.8661
 9414TIP3   OH249732   2.097   2.757  11.192  0.1256  0.0081  0.3856
 9414TIP3    H149733   2.092   2.675  11.240  0.3068 -0.8119 -0.9613
 9414TIP3    H249734   2.179   2.751  11.143 -1.0575 -0.1309 -1.6893
 9415TIP3   OH249735   5.911   2.216   3.638  0.3136 -0.5473 -0.5539
 9415TIP3    H149736   5.961   2.158   3.696 -0.1223  0.2628  0.6725
 9415TIP3    H249737   5.861   2.271   3.697  1.5897  1.9163 -1.6109
 9416TIP3   OH249738   4.613   0.713   5.245  0.3193 -0.5181  0.0747
 9416TIP3    H149739   4.678   0.763   5.196 -0.6264  0.6406 -0.0411
 9416TIP3    H249740   4.552   0.779   5.279 -0.2930 -1.4931  0.9346
 9417TIP3   OH249741   0.787   4.480   6.229 -0.0735 -0.1088 -0.2226
 9417TIP3    H149742   0.726   4.552   6.212 -1.8255 -0.8999  2.0392
 9417TIP3    H249743   0.841   4.510   6.301  0.2751 -0.4579 -0.3330
 9418TIP3   OH249744   3.764   4.626  13.140  0.1590  0.0632  0.0265
 9418TIP3    H149745   3.844   4.679  13.138 -0.7931  1.6792  1.8316
 9418TIP3    H249746   3.694   4.687  13.119 -0.6804 -1.3038 -1.3900
 9419TIP3   OH249747   2.933   0.869   3.388  0.0806 -0.2675  0.6981
 9419TIP3    H149748   2.853   0.816   3.383 -0.0704 -0.1748  1.8609
 9419TIP3    H249749   2.997   0.819   3.336 -1.2350  0.7053 -2.0594
 9420TIP3   OH249750   1.820   1.925  12.895  0.0800 -0.0354 -0.3958
 9420TIP3    H149751   1.736   1.947  12.937  0.1350 -2.8261  1.4564
 9420TIP3    H249752   1.804   1.939  12.802 -2.3321 -0.0059 -0.0570
 9421TIP3   OH249753   1.196   1.845   2.935  0.3791  0.0514  0.0035
 9421TIP3    H149754   1.212   1.813   2.846 -1.4270 -1.2248  0.0688
 9421TIP3    H249755   1.177   1.766   2.986  1.0401  0.7961  1.4656
 9422TIP3   OH249756   0.869   3.508   2.579 -0.3444 -0.6854 -0.2477
 9422TIP3    H149757   0.838   3.591   2.614 -1.2857 -0.7835 -0.8037
 9422TIP3    H249758   0.793   3.471   2.534  0.6076 -0.8892 -1.7651
 9423TIP3   OH249759   3.352   5.402  11.631  0.1539 -0.4847 -0.9720
 9423TIP3    H149760   3.339   5.472  11.567  0.6503 -1.2491 -1.9582
 9423TIP3    H249761   3.431   5.357  11.600  0.9445 -0.3080  0.7299
 9424TIP3   OH249762   1.072   6.180  13.732 -0.0542  0.6033  0.5131
 9424TIP3    H149763   1.141   6.191  13.797 -1.0642  1.1538  1.5325
 9424TIP3    H249764   1.066   6.265  13.689  1.4198 -0.0940 -1.1805
 9425TIP3   OH249765   6.343   4.219   1.172 -0.1853  0.0879  0.4045
 9425TIP3    H149766   6.297   4.162   1.112  0.0560  0.8153 -0.4911
 9425TIP3    H249767   6.322   4.185   1.259 -2.7437  0.6525  0.0609
 9426TIP3   OH249768   5.621   6.007  15.549  0.3641 -0.2703 -0.2135
 9426TIP3    H149769   5.558   6.068  15.589  1.1162  0.7649 -0.5599
 9426TIP3    H249770   5.573   5.969  15.475  0.4341  1.2751 -1.1006
 9427TIP3   OH249771   4.666   0.266   2.500  0.3064  0.3432 -0.1429
 9427TIP3    H149772   4.715   0.316   2.565 -0.1016  0.1011  0.3649
 9427TIP3    H249773   4.595   0.324   2.473  0.0665  0.1907  0.1511
 9428TIP3   OH249774   2.632   3.586  13.265 -0.2607  0.1100 -0.2590
 9428TIP3    H149775   2.644   3.570  13.359 -0.0177 -1.4468 -0.5357
 9428TIP3    H249776   2.542   3.618  13.258 -0.3085  0.1574  0.5009
 9429TIP3   OH249777   4.116   3.325   1.316  0.7111  0.0786  0.3854
 9429TIP3    H149778   4.081   3.236   1.308  0.9200  0.0778 -0.6619
 9429TIP3    H249779   4.137   3.334   1.409  0.9531 -1.0713  0.4592
 9430TIP3   OH249780   4.547   4.562   4.703 -0.5417 -0.0895  0.7864
 9430TIP3    H149781   4.640   4.576   4.716  0.2833 -2.3452 -1.7171
 9430TIP3    H249782   4.516   4.642   4.661  0.7244 -0.0371 -0.0972
 9431TIP3   OH249783   1.371   3.871   4.089 -0.1747 -0.1480  0.6232
 9431TIP3    H149784   1.432   3.797   4.094  1.4918  1.2135  1.4614
 9431TIP3    H249785   1.305   3.851   4.155 -0.7862 -1.7185 -0.3898
 9432TIP3   OH249786   0.053   3.057  17.487 -0.0730 -0.5184 -0.0034
 9432TIP3    H149787   0.092   2.987  17.540  1.3943 -0.1686 -0.5684
 9432TIP3    H249788   0.125   3.120  17.474 -0.8917  0.2577 -0.9243
 9433TIP3   OH249789   2.738   0.109  13.316 -0.2856 -0.1684  0.0024
 9433TIP3    H149790   2.741   0.048  13.242  1.3875  0.9177 -0.8976
 9433TIP3    H249791   2.690   0.185  13.282  0.9928  0.5721 -0.2013
 9434TIP3   OH249792   5.014   0.476   5.168  0.1915  0.4728 -0.5857
 9434TIP3    H149793   4.920   0.487   5.161  0.3788  1.4557 -2.3240
 9434TIP3    H249794   5.050   0.556   5.129  1.7531  0.5042  0.8212
 9435TIP3   OH249795   5.883   5.673  11.847 -0.6575 -0.5627  0.3196
 9435TIP3    H149796   5.812   5.642  11.904 -0.1206 -0.0550  1.2892
 9435TIP3    H249797   5.955   5.612  11.862  0.0652  0.5319  1.4922
 9436TIP3   OH249798   5.108   2.365  13.714  0.5906  0.4161 -0.0865
 9436TIP3    H149799   5.190   2.327  13.683 -0.8723 -1.3520 -2.1216
 9436TIP3    H249800   5.081   2.308  13.786  0.2686 -0.1687 -0.6542
 9437TIP3   OH249801   1.112   3.062  13.549 -0.1616 -0.4942 -0.5033
 9437TIP3    H149802   1.072   2.976  13.541  1.5314 -1.2692 -1.0178
 9437TIP3    H249803   1.205   3.045  13.560  0.2111  1.2695 -0.5322
 9438TIP3   OH249804   2.612   2.026  15.375  0.2641  0.4518  0.3632
 9438TIP3    H149805   2.569   2.077  15.444 -0.2604  0.2571  0.1923
 9438TIP3    H249806   2.603   1.935  15.404 -0.0561  0.3617 -0.0103
 9439TIP3   OH249807   5.663   0.359   2.872  0.5492 -0.7783  0.4560
 9439TIP3    H149808   5.602   0.343   2.944 -1.2405  1.3813 -0.4442
 9439TIP3    H249809   5.617   0.326   2.795  0.5210  0.7643 -0.2201
 9440TIP3   OH249810   2.251   6.404  15.661  0.1916 -0.5500  0.2280
 9440TIP3    H149811   2.310   6.480  15.659  0.5652 -0.6324 -4.6717
 9440TIP3    H249812   2.177   6.431  15.607 -1.3222 -2.5631  1.2003
 9441TIP3   OH249813   1.432   0.068   3.824  0.2444 -0.1577  0.1323
 9441TIP3    H149814   1.496   0.139   3.834 -0.9300  0.7218  2.2768
 9441TIP3    H249815   1.468  -0.004   3.876  0.8628 -0.7142 -1.0549
 9442TIP3   OH249816   3.707   5.960   1.447 -0.5075 -0.7023  0.3753
 9442TIP3    H149817   3.764   6.012   1.391 -2.9912  0.0966 -1.5916
 9442TIP3    H249818   3.747   5.873   1.447 -0.3373 -0.7412 -2.7301
 9443TIP3   OH249819   3.713   6.123   2.447 -0.0405  0.2512 -0.0361
 9443TIP3    H149820   3.774   6.068   2.397  0.4121  0.2728  0.4805
 9443TIP3    H249821   3.769   6.185   2.494 -0.3733 -0.3291  1.1854
 9444TIP3   OH249822   4.872   4.329   0.008  0.5119  0.6490  0.0638
 9444TIP3    H149823   4.880   4.234  -0.003  0.7770  0.6850 -0.0517
 9444TIP3    H249824   4.958   4.364  -0.016  0.6188  0.8648  0.7243
 9445TIP3   OH249825   0.672   4.400  16.306  0.0931 -0.2484  0.3958
 9445TIP3    H149826   0.651   4.491  16.326  1.4946  0.0565  0.5635
 9445TIP3    H249827   0.610   4.349  16.359 -0.9949  0.5966 -0.0360
 9446TIP3   OH249828   2.791   2.321   3.546  0.7341  0.7380  0.0963
 9446TIP3    H149829   2.807   2.304   3.453 -0.3976  3.3787 -0.6637
 9446TIP3    H249830   2.844   2.398   3.565 -1.8118  2.4533  0.6298
 9447TIP3   OH249831   2.417   0.217   6.307  0.1977  0.3019  0.7581
 9447TIP3    H149832   2.388   0.128   6.328 -0.8657  0.5807  0.5148
 9447TIP3    H249833   2.342   0.257   6.264 -0.2941  2.1396  3.1440
 9448TIP3   OH249834   6.319   3.555   4.201  0.5009 -0.1979 -0.8588
 9448TIP3    H149835   6.338   3.584   4.290 -0.5005  0.0260 -0.7090
 9448TIP3    H249836   6.378   3.606   4.146  0.3723  0.4456 -0.4028
 9449TIP3   OH249837   4.262   3.818  11.648  0.0025 -0.5133 -0.0732
 9449TIP3    H149838   4.290   3.899  11.604 -0.5677 -0.1442  0.2302
 9449TIP3    H249839   4.172   3.835  11.675  0.2768 -0.8035  1.0834
 9450TIP3   OH249840   5.388   4.125  14.055 -0.5458  0.3941  0.0684
 9450TIP3    H149841   5.352   4.073  14.127 -0.1961 -0.4665 -0.3576
 9450TIP3    H249842   5.473   4.083  14.037 -0.4097  0.9177 -0.5074
 9451TIP3   OH249843   4.554   3.824   0.957 -0.0259  0.1827  0.3579
 9451TIP3    H149844   4.612   3.895   0.929 -0.4825  0.4026 -0.0325
 9451TIP3    H249845   4.589   3.797   1.042  1.2207 -0.3174 -0.2821
 9452TIP3   OH249846   3.595   2.237  14.461 -0.8964  0.0891  0.0590
 9452TIP3    H149847   3.662   2.200  14.404 -0.6392  2.8874 -1.6243
 9452TIP3    H249848   3.606   2.332  14.453 -2.5511  0.6273  2.7987
 9453TIP3   OH249849   1.211   3.549   1.670  0.0040 -0.1436 -0.3749
 9453TIP3    H149850   1.258   3.485   1.616  1.0885 -0.7839  1.2546
 9453TIP3    H249851   1.166   3.496   1.736 -2.0708  0.5541 -1.1655
 9454TIP3   OH249852   6.558   1.181  15.912  0.3000 -0.4408  0.0727
 9454TIP3    H149853   6.607   1.197  15.832 -1.4860  2.9258 -0.5039
 9454TIP3    H249854   6.486   1.124  15.886  1.0703 -1.3688 -0.1096
 9455TIP3   OH249855   0.352   4.281   1.611  0.7965 -0.1703  0.3717
 9455TIP3    H149856   0.263   4.291   1.577 -0.1574 -2.1833  2.0907
 9455TIP3    H249857   0.360   4.350   1.677  0.9985  0.7827 -0.6094
 9456TIP3   OH249858   2.070   6.007   2.776  0.3858 -0.4175 -0.2544
 9456TIP3    H149859   2.152   6.016   2.727  0.5446 -0.2668  0.0392
 9456TIP3    H249860   2.021   6.087   2.754  0.2953 -0.5303 -0.4677
 9457TIP3   OH249861   2.244   5.808  13.691  0.2146 -0.4987 -0.0917
 9457TIP3    H149862   2.238   5.821  13.786  1.9460  0.2596 -0.0466
 9457TIP3    H249863   2.318   5.749  13.679 -0.1407 -0.7845 -0.9657
 9458TIP3   OH249864   3.511   3.614  15.654 -0.1323 -0.2898 -0.4601
 9458TIP3    H149865   3.483   3.693  15.699  0.2361 -1.2447  1.5675
 9458TIP3    H249866   3.431   3.579  15.614 -0.4025  0.7673 -0.8614
 9459TIP3   OH249867   4.003   2.169  11.976  0.3969 -0.0471  0.1029
 9459TIP3    H149868   4.039   2.190  11.890 -0.3144 -2.4796 -0.8803
 9459TIP3    H249869   3.908   2.167  11.962  0.2930 -0.7979  0.8322
 9460TIP3   OH249870   3.956   4.586   5.882  0.1772  0.1798 -0.2280
 9460TIP3    H149871   3.916   4.636   5.811  1.7131 -0.1542 -1.3818
 9460TIP3    H249872   3.883   4.542   5.925 -0.9081  1.3182 -0.8607
 9461TIP3   OH249873   2.675   5.184  11.315 -0.1886  0.3539  1.0600
 9461TIP3    H149874   2.607   5.179  11.249 -0.4644 -1.5449  1.4288
 9461TIP3    H249875   2.752   5.219  11.269 -0.7072  0.1797  0.0562
 9462TIP3   OH249876   3.024   4.243   1.881  0.2838  0.7905 -0.3805
 9462TIP3    H149877   3.001   4.217   1.970  2.2676 -0.3559 -0.1419
 9462TIP3    H249878   2.957   4.306   1.857 -0.8623  0.4080  1.5595
 9463TIP3   OH249879   2.360   6.030  13.971  0.3661  0.0836 -0.4604
 9463TIP3    H149880   2.453   6.005  13.971  0.4201  0.1196  1.5629
 9463TIP3    H249881   2.315   5.953  14.006 -0.5119 -0.2352 -2.1779
 9464TIP3   OH249882   5.152   3.096   1.976  0.3315 -0.5045  0.6185
 9464TIP3    H149883   5.156   3.190   1.956 -0.8221 -0.2454  1.5198
 9464TIP3    H249884   5.242   3.073   1.999  0.8997  0.0677 -0.8999
 9465TIP3   OH249885   0.910   3.003  16.046 -0.3650  0.7456  0.5106
 9465TIP3    H149886   0.972   2.935  16.074 -0.2741 -0.1879 -1.6966
 9465TIP3    H249887   0.966   3.077  16.022  0.1676 -0.4747 -2.5467
 9466TIP3   OH249888   6.331   4.996   2.705 -0.2315  0.6265  0.2760
 9466TIP3    H149889   6.391   4.926   2.733  0.0071  0.4332 -0.6740
 9466TIP3    H249890   6.314   4.977   2.613 -0.7626  1.4061  0.2070
 9467TIP3   OH249891   0.665   2.150  15.107 -0.1208  0.2669 -0.4699
 9467TIP3    H149892   0.756   2.127  15.122 -0.3247  0.3108  1.0369
 9467TIP3    H249893   0.666   2.208  15.032  1.0636  0.0585 -0.6213
 9468TIP3   OH249894   3.819   6.232  14.337  0.0873 -0.7599 -0.0745
 9468TIP3    H149895   3.811   6.163  14.271 -0.7674 -2.9051  2.1188
 9468TIP3    H249896   3.786   6.192  14.417 -0.7975  2.3641  1.2537
 9469TIP3   OH249897   0.707   0.454   4.479 -0.0310  0.0364  0.0305
 9469TIP3    H149898   0.703   0.512   4.404  1.7718 -0.8515 -0.8366
 9469TIP3    H249899   0.799   0.458   4.507  0.0845 -2.1061  0.1288
 9470TIP3   OH249900   2.407   3.155   2.960  0.4731  0.2956 -0.1116
 9470TIP3    H149901   2.321   3.150   2.917  0.3774  0.6737  0.0241
 9470TIP3    H249902   2.423   3.249   2.969 -0.1092  0.2570  1.8610
 9471TIP3   OH249903   2.960   3.516   5.788 -0.7290  0.4494 -0.8992
 9471TIP3    H149904   2.966   3.593   5.844  0.3198  0.8471 -1.5257
 9471TIP3    H249905   2.911   3.546   5.711 -1.8843 -0.0074 -0.3593
 9472TIP3   OH249906   3.564   2.259   0.791  0.0671 -0.7090 -0.1769
 9472TIP3    H149907   3.516   2.219   0.864  0.0165 -0.3547 -0.0111
 9472TIP3    H249908   3.568   2.191   0.725 -1.1678 -0.5732 -0.4172
 9473TIP3   OH249909   1.053   2.548   4.554  0.2019 -0.0458 -0.2123
 9473TIP3    H149910   1.004   2.549   4.636  0.8714 -2.0285  0.2729
 9473TIP3    H249911   1.015   2.476   4.503  1.5086 -0.5797 -0.4937
 9474TIP3   OH249912   5.180   5.082   0.272 -0.3184  0.1096  0.6840
 9474TIP3    H149913   5.090   5.092   0.241 -0.7607  0.1810  1.9283
 9474TIP3    H249914   5.197   5.159   0.325  0.1384 -0.3563  1.2396
 9475TIP3   OH249915   2.643   4.909   1.792  0.2755  0.3343  0.6185
 9475TIP3    H149916   2.605   4.947   1.871 -0.4164  1.1321 -0.0834
 9475TIP3    H249917   2.735   4.933   1.796  0.2307  0.4466  1.1226
 9476TIP3   OH249918   5.715   5.029  17.199 -0.5814  0.0228 -0.0710
 9476TIP3    H149919   5.799   5.066  17.175 -1.4010  1.8294 -0.3448
 9476TIP3    H249920   5.691   4.974  17.125 -0.9881  1.9147 -1.4338
 9477TIP3   OH249921   0.280   4.455  15.397  0.2977  0.2943  0.0450
 9477TIP3    H149922   0.371   4.436  15.375  0.2642 -0.1130  0.2421
 9477TIP3    H249923   0.257   4.531  15.343  0.7887  0.4744  0.0877
 9478TIP3   OH249924   0.781   5.449   2.434 -0.3508  0.2282  0.5945
 9478TIP3    H149925   0.864   5.431   2.478  0.4906 -0.0469 -1.0214
 9478TIP3    H249926   0.768   5.375   2.375  0.4965  2.2042 -2.3129
 9479TIP3   OH249927   3.930   0.137  12.240  0.1095 -0.2046 -0.4009
 9479TIP3    H149928   4.007   0.193  12.242  0.1320 -0.2320 -0.4866
 9479TIP3    H249929   3.938   0.081  12.317 -0.7682  1.0428  0.6355
 9480TIP3   OH249930   5.506   3.446   4.978 -0.1968  0.3607  0.2753
 9480TIP3    H149931   5.426   3.393   4.984 -1.5586  2.1126 -1.1436
 9480TIP3    H249932   5.476   3.536   4.991  1.2405  1.2427 -1.9668
 9481TIP3   OH249933   4.546   0.291   1.368  0.3711 -0.2252 -0.5826
 9481TIP3    H149934   4.517   0.244   1.290  0.3877 -0.7004 -0.3065
 9481TIP3    H249935   4.608   0.231   1.410 -0.2527 -0.3130  0.2282
 9482TIP3   OH249936   6.318   4.245   0.578 -0.9233 -0.1284 -0.0540
 9482TIP3    H149937   6.371   4.324   0.578  0.0031 -0.7247  1.3141
 9482TIP3    H249938   6.288   4.236   0.487  0.5129  0.7468 -0.6379
 9483TIP3   OH249939   0.273   3.799  15.443  0.5524  0.0912 -0.2710
 9483TIP3    H149940   0.191   3.816  15.398  1.7788  2.3691 -1.8527
 9483TIP3    H249941   0.315   3.729  15.393  1.3264  1.7296 -2.0450
 9484TIP3   OH249942   1.338   6.117  16.904  0.7921  0.4230  0.3273
 9484TIP3    H149943   1.341   6.035  16.856 -1.8059  0.2723  0.3108
 9484TIP3    H249944   1.420   6.118  16.955  2.3844 -0.6064 -2.0457
 9485TIP3   OH249945   6.662   1.444  13.274 -0.1488  0.5475  0.3416
 9485TIP3    H149946   6.589   1.408  13.325  0.4840 -1.1920  0.0709
 9485TIP3    H249947   6.706   1.367  13.238  0.2336  1.6697 -1.7158
 9486TIP3   OH249948   6.114   2.513  15.028 -0.0260 -0.2687 -0.0775
 9486TIP3    H149949   6.206   2.529  15.048  0.1398  0.3297 -1.2515
 9486TIP3    H249950   6.074   2.600  15.027 -0.7924 -0.5916  1.2623
 9487TIP3   OH249951   1.416   1.108   2.520  0.6688  0.2879  0.3763
 9487TIP3    H149952   1.421   1.193   2.476 -2.2198  0.6003  0.5005
 9487TIP3    H249953   1.386   1.048   2.452  1.0817 -0.3144  0.7111
 9488TIP3   OH249954   2.708   4.320  15.731 -0.3461 -0.1134 -0.0053
 9488TIP3    H149955   2.746   4.314  15.643 -1.3349 -0.3903 -0.4191
 9488TIP3    H249956   2.744   4.401  15.767 -3.4047  2.5053 -2.3638
 9489TIP3   OH249957   1.821   1.404   5.315 -0.3213  0.3985 -0.1093
 9489TIP3    H149958   1.911   1.432   5.300 -0.4457  0.8219 -0.1024
 9489TIP3    H249959   1.769   1.463   5.260 -0.6229  0.4553  0.2333
 9490TIP3   OH249960   5.862   2.936   3.685 -0.5339 -0.5160 -0.0876
 9490TIP3    H149961   5.771   2.913   3.668 -0.6591  0.7978 -1.4150
 9490TIP3    H249962   5.911   2.855   3.670 -1.5484 -1.4704  1.5541
 9491TIP3   OH249963   4.936   0.571   2.065  0.5796  0.4058 -0.0960
 9491TIP3    H149964   4.966   0.541   2.151 -0.1756  1.0016  0.3917
 9491TIP3    H249965   4.959   0.664   2.062 -0.9067  0.8106  0.1818
 9492TIP3   OH249966   0.168   0.889  16.700  0.0256  0.3091 -0.0432
 9492TIP3    H149967   0.109   0.929  16.636 -1.4170 -1.2791  0.2269
 9492TIP3    H249968   0.164   0.948  16.776  1.7561  2.2107 -1.3169
 9493TIP3   OH249969   2.117   0.256  12.010 -0.0920  0.5918 -0.8990
 9493TIP3    H149970   2.202   0.268  12.052 -0.3859  1.9830 -0.6443
 9493TIP3    H249971   2.059   0.316  12.057 -1.3395 -0.6748 -0.7603
 9494TIP3   OH249972   0.172   6.688  15.008  0.3217 -0.7108  0.0568
 9494TIP3    H149973   0.194   6.781  15.002 -0.3342 -0.6296 -2.0054
 9494TIP3    H249974   0.178   6.656  14.918  0.6212 -2.7118  0.7240
 9495TIP3   OH249975   5.206   1.060   3.613  0.7499  0.6111  0.0038
 9495TIP3    H149976   5.156   0.980   3.628  0.7550  0.7545  0.8103
 9495TIP3    H249977   5.294   1.041   3.646  0.3185  1.4835  1.7733
 9496TIP3   OH249978   2.827   5.902   6.338  0.2611  0.2241 -0.1495
 9496TIP3    H149979   2.780   5.926   6.418  1.8761 -0.6302  1.1178
 9496TIP3    H249980   2.758   5.883   6.274 -1.0822  2.8581  0.3681
 9497TIP3   OH249981   4.339   1.235  13.786 -0.0301 -0.1184 -0.9053
 9497TIP3    H149982   4.367   1.215  13.875 -0.0055 -0.1794 -0.9276
 9497TIP3    H249983   4.274   1.305  13.797  0.6330  0.5076 -0.9048
 9498TIP3   OH249984   5.454   2.197  11.437 -0.5693 -0.4160  0.0322
 9498TIP3    H149985   5.359   2.186  11.438 -0.4846 -1.1778  0.4001
 9498TIP3    H249986   5.477   2.220  11.527 -0.2937 -1.3801  0.2260
 9499TIP3   OH249987   3.439   0.550  14.578  0.4683  0.4543 -0.4695
 9499TIP3    H149988   3.449   0.457  14.559 -2.3385 -0.1076  0.3441
 9499TIP3    H249989   3.479   0.562  14.664  1.1728  0.0990 -0.7423
 9500TIP3   OH249990   0.469   4.176  10.742 -0.1193 -0.0758 -0.1789
 9500TIP3    H149991   0.418   4.248  10.706 -1.8478 -2.0648 -2.0445
 9500TIP3    H249992   0.415   4.141  10.813  1.0714  0.8686  1.2550
 9501TIP3   OH249993   5.606   1.691   3.706  0.2065 -0.2681 -0.1996
 9501TIP3    H149994   5.598   1.752   3.632 -1.2840 -1.1886 -0.8302
 9501TIP3    H249995   5.647   1.613   3.669  2.2980  0.3576  0.6498
 9502TIP3   OH249996   6.433   5.731  15.701 -0.2017  0.2354  0.0091
 9502TIP3    H149997   6.367   5.730  15.770 -0.1918  0.5045  0.0201
 9502TIP3    H249998   6.402   5.795  15.638  0.7522  1.4021  0.6915
 9503TIP3   OH249999   4.620   1.899   0.606 -0.7722 -0.3509  0.8344
 9503TIP3    H150000   4.661   1.939   0.529  0.4699 -0.8897  1.1911
 9503TIP3    H250001   4.527   1.921   0.598 -0.8421 -1.1425 -1.2977
 9504TIP3   OH250002   2.631   2.259  15.241  0.2036  0.2455  0.6788
 9504TIP3    H150003   2.626   2.176  15.289 -0.0414  0.1522  0.4941
 9504TIP3    H250004   2.539   2.282  15.223  0.3021 -1.1333 -2.1554
 9505TIP3   OH250005   2.558   2.035  14.075  0.2236  0.1120  0.4683
 9505TIP3    H150006   2.558   1.941  14.093  0.7090  0.2613  1.3277
 9505TIP3    H250007   2.648   2.054  14.049 -0.3222  0.0188 -1.5920
 9506TIP3   OH250008   2.897   3.733  11.545 -0.0010 -0.6972  0.4103
 9506TIP3    H150009   2.978   3.691  11.573  0.7525 -0.3252 -1.1043
 9506TIP3    H250010   2.902   3.732  11.449 -2.3338 -1.7443  0.2199
 9507TIP3   OH250011   1.506   5.852   4.561  0.2479 -0.3883 -0.2542
 9507TIP3    H150012   1.423   5.876   4.602  0.0390 -0.4235 -0.6560
 9507TIP3    H250013   1.529   5.927   4.507  0.5300 -0.3373 -0.0667
 9508TIP3   OH250014   3.443   6.604  13.119 -0.2120  0.5154 -0.3141
 9508TIP3    H150015   3.350   6.596  13.140  0.1909  0.5789  1.6864
 9508TIP3    H250016   3.454   6.696  13.093 -0.4756  0.9135  0.8955
 9509TIP3   OH250017   4.089   0.464  15.268  0.6086  0.6628 -0.4908
 9509TIP3    H150018   4.107   0.497  15.180  0.8770 -0.1714 -0.7547
 9509TIP3    H250019   4.154   0.507  15.324  2.0726 -0.6629 -1.0921
 9510TIP3   OH250020   6.158   1.256  13.658  0.0996  0.3092  0.2642
 9510TIP3    H150021   6.202   1.172  13.655 -0.8007 -0.2729  2.0204
 9510TIP3    H250022   6.066   1.236  13.646  0.0163  1.2289 -0.8128
 9511TIP3   OH250023   4.627   3.534  15.702 -0.6276 -0.5513 -0.2806
 9511TIP3    H150024   4.653   3.599  15.637  1.6543 -0.1731  0.9198
 9511TIP3    H250025   4.695   3.467  15.698 -0.8547 -0.8966  1.1855
 9512TIP3   OH250026   6.528   6.312   5.725 -0.0581 -0.6458  0.0119
 9512TIP3    H150027   6.507   6.223   5.695  0.7218 -0.9283  0.2874
 9512TIP3    H250028   6.522   6.307   5.820 -2.1749  0.1605 -0.0165
 9513TIP3   OH250029   6.267   1.192   4.536 -0.5717 -0.4318  0.7351
 9513TIP3    H150030   6.310   1.197   4.622 -0.4212  1.0310  0.5872
 9513TIP3    H250031   6.208   1.266   4.535 -1.0840 -0.8469 -0.1718
 9514TIP3   OH250032   2.036   6.696  13.513 -0.2077 -0.6233  0.2039
 9514TIP3    H150033   1.980   6.618  13.512  2.2040 -2.5050 -1.5812
 9514TIP3    H250034   2.007   6.748  13.439  0.5611 -1.7683 -0.9390
 9515TIP3   OH250035   1.091   3.916   1.690 -0.2877  0.0992  0.3312
 9515TIP3    H150036   1.127   3.827   1.690 -0.1536  0.1534  0.3280
 9515TIP3    H250037   1.164   3.972   1.718 -0.3306  0.2247  0.1939
 9516TIP3   OH250038   2.481   3.249   4.449  0.0599 -0.2815 -0.3398
 9516TIP3    H150039   2.423   3.308   4.498 -0.7638 -0.5408 -0.9919
 9516TIP3    H250040   2.476   3.280   4.359  0.8235 -0.4087 -0.4319
 9517TIP3   OH250041   4.713   0.083   2.958  0.5408 -0.3383 -0.0875
 9517TIP3    H150042   4.661   0.123   2.888  0.3609 -0.1056  0.1730
 9517TIP3    H250043   4.677   0.121   3.038 -0.2192 -1.6851  0.2380
 9518TIP3   OH250044   6.306   3.760  11.185  0.4053  0.0842 -0.1707
 9518TIP3    H150045   6.222   3.792  11.151 -0.1009  0.0156  0.9769
 9518TIP3    H250046   6.358   3.742  11.107 -0.8034 -0.2793 -0.9181
 9519TIP3   OH250047   2.122   3.900  16.413 -0.2432  0.3992 -0.4503
 9519TIP3    H150048   2.150   3.852  16.335  0.2535 -0.0373  0.0009
 9519TIP3    H250049   2.045   3.949  16.383  1.8012  2.8390 -2.1407
 9520TIP3   OH250050   2.764   3.949  14.220 -0.0323  0.1969 -0.0399
 9520TIP3    H150051   2.707   3.935  14.295 -0.2177 -0.1864 -0.2494
 9520TIP3    H250052   2.714   3.918  14.145  1.1525 -2.0430 -0.0064
 9521TIP3   OH250053   1.288   0.494  17.063 -0.5802  0.3324  0.4461
 9521TIP3    H150054   1.365   0.471  17.012 -0.0540  1.9693  0.4740
 9521TIP3    H250055   1.317   0.561  17.124 -2.2249  1.8139 -0.2824
 9522TIP3   OH250056   5.517   4.484  16.653  0.0382  0.5798  0.1195
 9522TIP3    H150057   5.594   4.462  16.706 -0.7375 -1.2064  0.5915
 9522TIP3    H250058   5.508   4.412  16.591 -2.5686 -0.5586  1.6311
 9523TIP3   OH250059   6.706   4.697  16.178  0.4487  0.0630  0.0541
 9523TIP3    H150060   6.756   4.626  16.219  1.4153  0.2288 -0.8077
 9523TIP3    H250061   6.772   4.760  16.150 -0.2385  0.3117 -1.0724
 9524TIP3   OH250062   3.352   6.381   2.425 -0.2047  0.2763 -0.6393
 9524TIP3    H150063   3.438   6.420   2.444  0.5114 -1.7255  0.5662
 9524TIP3    H250064   3.373   6.303   2.373 -1.0044 -1.5329  1.5941
 9525TIP3   OH250065   2.357   5.996  11.781  0.2515 -0.0363 -0.5436
 9525TIP3    H150066   2.382   5.957  11.697 -0.9979  0.2984 -1.0961
 9525TIP3    H250067   2.353   6.090  11.764  1.3928  0.1782  0.2834
 9526TIP3   OH250068   5.552   6.324  12.282  0.0905  0.5787 -0.1914
 9526TIP3    H150069   5.583   6.290  12.198 -1.9872 -0.0186 -0.7748
 9526TIP3    H250070   5.541   6.246  12.337 -2.7091  0.3663 -0.8637
 9527TIP3   OH250071   6.079   4.273  11.575  0.5428  0.6366 -0.3142
 9527TIP3    H150072   6.021   4.289  11.501 -0.3909  1.3901  0.5402
 9527TIP3    H250073   6.053   4.187  11.609 -0.3794  1.1381  0.3016
 9528TIP3   OH250074   3.966   1.235  11.629 -0.0407  0.5095  0.1057
 9528TIP3    H150075   3.953   1.329  11.641  0.7325  0.5881  0.3556
 9528TIP3    H250076   4.040   1.227  11.569  0.2326  0.0650  0.4878
 9529TIP3   OH250077   5.497   1.088   4.416  0.0213  0.7818  0.3645
 9529TIP3    H150078   5.527   1.000   4.395 -1.3518  0.3022  0.3323
 9529TIP3    H250079   5.572   1.144   4.395  0.7089 -0.3029 -0.1857
 9530TIP3   OH250080   1.300   4.502  12.789 -0.7480 -0.2775 -0.0350
 9530TIP3    H150081   1.335   4.427  12.837  0.7209  0.2141 -0.2915
 9530TIP3    H250082   1.324   4.485  12.698 -1.2004  0.0746 -0.2236
 9531TIP3   OH250083   3.762   2.747  15.106 -0.1472 -0.1480 -0.2555
 9531TIP3    H150084   3.850   2.752  15.144 -0.3835 -1.8847  0.6349
 9531TIP3    H250085   3.726   2.666  15.142 -2.4212  0.9315  0.0567
 9532TIP3   OH250086   5.295   0.612  14.955 -0.3041 -0.0821  0.1760
 9532TIP3    H150087   5.248   0.668  15.017 -0.8675  1.3965 -1.5322
 9532TIP3    H250088   5.273   0.523  14.982  0.3959  0.4403  2.8086
 9533TIP3   OH250089   3.148   4.622   1.477 -0.0707 -1.0688  0.2179
 9533TIP3    H150090   3.212   4.601   1.409 -1.0253  0.6805 -1.3208
 9533TIP3    H250091   3.100   4.540   1.491  1.0158 -1.8059 -0.2502
 9534TIP3   OH250092   4.979   3.738  12.828 -0.3328  0.3622  0.3735
 9534TIP3    H150093   4.946   3.680  12.896 -2.6540  0.0396 -0.9455
 9534TIP3    H250094   5.075   3.734  12.837 -0.4685 -2.3617  1.3783
 9535TIP3   OH250095   3.103   3.445  11.445  0.1968 -0.2456  0.9430
 9535TIP3    H150096   3.160   3.421  11.372 -0.1996 -1.3960  0.9864
 9535TIP3    H250097   3.107   3.541  11.449  0.9658 -0.2285  0.0257
 9536TIP3   OH250098   5.628   6.258   1.409  0.0935 -0.2779  0.3932
 9536TIP3    H150099   5.700   6.211   1.450  0.9378  1.1072  0.5710
 9536TIP3    H250100   5.615   6.335   1.465  0.2664  0.8767 -1.0908
 9537TIP3   OH250101   0.126   3.861   6.044  0.4585  0.0196 -0.7441
 9537TIP3    H150102   0.107   3.814   6.125 -2.7750  1.6190 -0.4200
 9537TIP3    H250103   0.165   3.944   6.074  0.2778  0.1579 -0.8941
 9538TIP3   OH250104   0.591   0.146   2.904  0.2401  0.5090  0.7383
 9538TIP3    H150105   0.579   0.101   2.820 -1.4574  1.6844  0.3039
 9538TIP3    H250106   0.668   0.202   2.890  0.1083  0.5274  0.0442
 9539TIP3   OH250107   2.343   4.078  14.480  0.0056 -0.3946 -0.0462
 9539TIP3    H150108   2.262   4.095  14.431 -0.1038 -1.5815 -0.3252
 9539TIP3    H250109   2.366   4.162  14.520 -2.0764 -0.3031  1.1101
 9540TIP3   OH250110   1.457   2.842   0.481 -0.5523  0.2926  0.8530
 9540TIP3    H150111   1.474   2.849   0.387 -2.3103  1.6582  0.5998
 9540TIP3    H250112   1.362   2.851   0.489 -0.4132  0.3575  2.7765
 9541TIP3   OH250113   5.289   3.684  12.800  0.2157 -0.2941 -0.5661
 9541TIP3    H150114   5.319   3.692  12.891 -1.5446  2.0848 -0.0836
 9541TIP3    H250115   5.264   3.592  12.791 -0.7990 -0.3165  1.8037
 9542TIP3   OH250116   1.451   3.499  15.739  0.2635  0.3966 -0.2605
 9542TIP3    H150117   1.420   3.489  15.829  0.1763 -1.1447 -0.4410
 9542TIP3    H250118   1.538   3.538  15.748  0.4504 -0.1729  0.5256
 9543TIP3   OH250119   1.284   5.581   5.340  0.0289 -0.0077  0.0823
 9543TIP3    H150120   1.344   5.550   5.273 -2.6528 -0.1129 -2.4831
 9543TIP3    H250121   1.321   5.665   5.368  0.4622  0.8835 -2.8081
 9544TIP3   OH250122   0.365   2.935  14.292 -0.1566  0.2397  0.1118
 9544TIP3    H150123   0.404   2.983  14.219 -1.0646 -1.1510 -1.3466
 9544TIP3    H250124   0.395   2.982  14.370 -1.1102  3.2461 -1.1952
 9545TIP3   OH250125   2.015   6.446   1.589  0.1150  0.0157  0.1043
 9545TIP3    H150126   1.956   6.508   1.546 -0.1041 -1.5594 -2.0388
 9545TIP3    H250127   2.093   6.497   1.610 -1.5483  1.9281  2.1720
 9546TIP3   OH250128   5.523   2.598  12.628  0.2411  0.6367  0.3324
 9546TIP3    H150129   5.488   2.533  12.568  0.5184  1.2189 -0.4766
 9546TIP3    H250130   5.499   2.566  12.715  1.0977 -0.9830  0.0140
 9547TIP3   OH250131   1.984   3.517   1.963 -0.0108 -0.1093  0.7158
 9547TIP3    H150132   2.069   3.536   1.923 -1.6447 -1.1304 -3.7747
 9547TIP3    H250133   1.993   3.429   1.998  1.0150  0.1736  1.2005
 9548TIP3   OH250134   1.707   1.221   5.054  0.0963  0.2291  0.4795
 9548TIP3    H150135   1.713   1.292   4.990 -0.2261  0.4024  0.6425
 9548TIP3    H250136   1.786   1.230   5.107 -0.9274  1.7200  1.8014
 9549TIP3   OH250137   2.351   1.309  12.568 -0.4838 -0.3359 -0.2111
 9549TIP3    H150138   2.373   1.383  12.512 -1.0058  0.1149  0.1714
 9549TIP3    H250139   2.266   1.278  12.535 -1.3184  0.5928  0.9635
 9550TIP3   OH250140   3.552   2.870  13.625 -0.3286 -0.9649 -0.1182
 9550TIP3    H150141   3.581   2.843  13.538  0.4750 -2.6908  0.6470
 9550TIP3    H250142   3.458   2.888  13.614  0.1087  0.6209 -1.7002
 9551TIP3   OH250143   5.233   0.474   4.835  0.0519  0.0635  0.0619
 9551TIP3    H150144   5.192   0.560   4.846 -0.7553 -0.4238  0.9709
 9551TIP3    H250145   5.161   0.415   4.812  0.8917 -0.0019 -2.9515
 9552TIP3   OH250146   0.564   1.392  16.245 -0.0313  0.4442  0.0652
 9552TIP3    H150147   0.527   1.391  16.157 -0.0282  1.7944  0.0336
 9552TIP3    H250148   0.493   1.428  16.300  0.2720  0.4362  0.4680
 9553TIP3   OH250149   2.363   6.546   4.863 -0.0657  0.6125  0.2716
 9553TIP3    H150150   2.272   6.566   4.880 -0.3640 -0.3163 -0.1522
 9553TIP3    H250151   2.364   6.452   4.844  1.3371  0.0177  2.8618
 9554TIP3   OH250152   0.271   2.854  12.737 -0.3439  0.2126 -0.3702
 9554TIP3    H150153   0.235   2.878  12.652  1.2497  0.2950 -1.0408
 9554TIP3    H250154   0.345   2.913  12.751 -0.2558 -0.1441  0.8418
 9555TIP3   OH250155   6.469   2.342   3.203 -0.5808 -0.1580  0.5513
 9555TIP3    H150156   6.456   2.308   3.291 -2.4224  0.9613  0.7666
 9555TIP3    H250157   6.562   2.328   3.185 -0.4582 -1.6453  2.1201
 9556TIP3   OH250158   2.279   4.046  16.195  0.3937 -0.2507 -0.8113
 9556TIP3    H150159   2.282   4.135  16.232 -1.1316 -0.9276  1.1673
 9556TIP3    H250160   2.353   4.001  16.235 -0.0769 -0.4311 -0.1300
 9557TIP3   OH250161   4.566   1.321   4.035  0.6031  0.5287 -0.3197
 9557TIP3    H150162   4.521   1.264   3.973 -1.2880  1.7757 -0.1946
 9557TIP3    H250163   4.642   1.353   3.987  0.3106 -0.1610 -1.2664
 9558TIP3   OH250164   4.001   0.489  12.418 -0.1247 -0.1047 -0.3573
 9558TIP3    H150165   3.906   0.480  12.421 -0.4495  2.0871 -1.9236
 9558TIP3    H250166   4.019   0.526  12.332  2.0026  0.9532  0.4674
 9559TIP3   OH250167   6.756   4.790  11.147 -0.1123 -0.0632  0.1314
 9559TIP3    H150168   6.820   4.803  11.077  0.5739 -0.2134  0.7133
 9559TIP3    H250169   6.672   4.781  11.102  0.2950  0.0106 -0.6583
 9560TIP3   OH250170   0.986   4.983   5.459 -0.1978 -0.2176 -0.5216
 9560TIP3    H150171   0.945   5.048   5.516 -0.1695 -0.3474 -0.3508
 9560TIP3    H250172   1.046   4.935   5.516 -0.8957 -1.0046 -0.4282
 9561TIP3   OH250173   2.070   0.796  16.241 -0.0408  0.7684  0.2417
 9561TIP3    H150174   2.093   0.707  16.212  2.2299  1.8091 -1.4583
 9561TIP3    H250175   1.991   0.817  16.191  2.0747  1.3672 -3.1261
 9562TIP3   OH250176   5.400   5.067  15.685  0.3923  0.2177 -0.1046
 9562TIP3    H150177   5.388   5.162  15.687  5.9165  1.3040  2.5605
 9562TIP3    H250178   5.344   5.034  15.756 -2.5335  1.0961 -1.8326
 9563TIP3   OH250179   5.092   0.495  12.841  0.3190 -0.1432  0.2147
 9563TIP3    H150180   5.185   0.489  12.818  0.0865 -0.6026 -0.6746
 9563TIP3    H250181   5.084   0.578  12.888  0.4147  2.5627 -3.9396
 9564TIP3   OH250182   3.895   0.485   4.676  0.2183 -0.5715  0.2581
 9564TIP3    H150183   3.956   0.507   4.606 -0.7287 -0.3179 -0.5030
 9564TIP3    H250184   3.823   0.439   4.632  0.0838 -1.3073  1.2079
 9565TIP3   OH250185   3.753   5.144   0.000  0.1883 -0.0608 -0.0461
 9565TIP3    H150186   3.750   5.050  -0.017 -2.0533 -0.0060 -0.1976
 9565TIP3    H250187   3.761   5.184  -0.086  0.4549 -0.0735 -0.0298
 9566TIP3   OH250188   2.439   6.135   0.057 -0.3772 -0.7819  0.1962
 9566TIP3    H150189   2.398   6.170   0.136 -0.3494 -0.9139  0.2682
 9566TIP3    H250190   2.374   6.147  -0.012 -0.5451 -1.0200  0.3161
 9567TIP3   OH250191   3.031   4.403   1.158 -1.5541 -0.0245  0.0536
 9567TIP3    H150192   2.955   4.461   1.167 -0.2521  1.9619 -1.1759
 9567TIP3    H250193   3.049   4.402   1.065 -0.0841 -0.4913  0.3310
 9568TIP3   OH250194   3.058   6.057   4.581 -0.6508 -0.2607 -0.9174
 9568TIP3    H150195   3.153   6.054   4.590 -0.5343 -1.3006 -2.1263
 9568TIP3    H250196   3.027   5.981   4.630 -1.0973  1.3581  1.4534
 9569TIP3   OH250197   6.614   1.470   2.278  0.0340  0.2259  0.0776
 9569TIP3    H150198   6.643   1.560   2.268 -1.5944  0.8609  0.7856
 9569TIP3    H250199   6.636   1.428   2.194  1.0501  1.1821 -0.1533
 9570TIP3   OH250200   5.822   1.205   0.477 -0.2634 -0.0417 -0.0833
 9570TIP3    H150201   5.770   1.143   0.530  0.0251 -0.9539 -0.8363
 9570TIP3    H250202   5.757   1.250   0.424 -0.5667  0.9577  1.1045
 9571TIP3   OH250203   3.549   2.935  17.417  0.0503  0.1767  0.1706
 9571TIP3    H150204   3.541   2.847  17.380 -0.4052  0.1630  0.2929
 9571TIP3    H250205   3.583   2.921  17.506  0.4002  0.1585  0.0386
 9572TIP3   OH250206   5.435   1.026   6.608  0.3213  0.1184  1.3887
 9572TIP3    H150207   5.432   1.119   6.585  0.8945  0.3474  2.2084
 9572TIP3    H250208   5.350   1.009   6.648 -1.9862 -0.9896 -3.2374
 9573TIP3   OH250209   0.118   6.636   2.331  0.3699  0.3325 -0.1372
 9573TIP3    H150210   0.108   6.718   2.282 -1.7130 -0.1279 -0.5874
 9573TIP3    H250211   0.030   6.615   2.360  0.2535 -3.1241 -2.3755
 9574TIP3   OH250212   2.232   1.986  15.187  0.2654 -0.3774 -0.3435
 9574TIP3    H150213   2.221   2.006  15.280 -0.3641  0.7005 -0.6235
 9574TIP3    H250214   2.259   2.069  15.148 -0.5509 -0.5412 -1.2877
 9575TIP3   OH250215   1.472   2.580  17.371  0.7104 -0.2529  0.4283
 9575TIP3    H150216   1.511   2.510  17.319  4.5102  2.3787 -0.7012
 9575TIP3    H250217   1.519   2.577  17.455  0.5630  0.6140  0.5532
 9576TIP3   OH250218   0.830   1.770  14.523 -0.4927 -0.1100 -0.1536
 9576TIP3    H150219   0.740   1.741  14.504 -2.0244  2.7994  1.9767
 9576TIP3    H250220   0.852   1.728  14.606 -0.4071  0.2140 -0.0117
 9577TIP3   OH250221   4.574   0.940  15.895 -0.2161 -0.6438  0.2398
 9577TIP3    H150222   4.609   0.994  15.824 -1.1355  0.4348  0.5869
 9577TIP3    H250223   4.598   0.850  15.870  1.3431 -0.0962 -0.3362
 9578TIP3   OH250224   5.709   6.661  13.528 -0.0752 -0.6538 -0.6127
 9578TIP3    H150225   5.744   6.703  13.449 -1.8634  0.8977 -0.6628
 9578TIP3    H250226   5.774   6.681  13.596  0.3930 -0.0567 -1.2193
 9579TIP3   OH250227   6.290   5.812  13.699 -0.0887  0.3127 -0.9415
 9579TIP3    H150228   6.266   5.898  13.734 -0.9397  0.3001 -1.4679
 9579TIP3    H250229   6.385   5.814  13.694 -0.0865  1.1552 -0.7579
 9580TIP3   OH250230   4.896   2.173   2.700 -0.0604 -0.2351 -0.8113
 9580TIP3    H150231   4.871   2.231   2.628  1.1100  0.2165 -0.8793
 9580TIP3    H250232   4.905   2.087   2.660  0.8250  0.0597 -1.2738
 9581TIP3   OH250233   6.028   3.686  13.213  0.3744  0.4768 -0.1298
 9581TIP3    H150234   6.039   3.656  13.122 -0.6566  2.0206 -0.8105
 9581TIP3    H250235   6.071   3.772  13.215  0.9067  0.1972  1.0201
 9582TIP3   OH250236   2.679   1.154  16.730  0.3900  0.0485  0.0801
 9582TIP3    H150237   2.760   1.114  16.699  0.4490  0.2876 -0.0776
 9582TIP3    H250238   2.707   1.237  16.768  0.3476 -0.3370  0.9792
 9583TIP3   OH250239   6.183   3.675   3.400  0.2849 -0.3813 -0.1465
 9583TIP3    H150240   6.151   3.680   3.310 -0.2067  0.3162  0.0616
 9583TIP3    H250241   6.270   3.715   3.396 -0.1527  0.5808 -0.1188
 9584TIP3   OH250242   0.097   3.593  16.562  0.2239 -0.4613  0.3191
 9584TIP3    H150243   0.093   3.675  16.610  0.2548 -0.8377  0.9737
 9584TIP3    H250244   0.065   3.527  16.624 -1.3980 -0.7290 -0.7178
 9585TIP3   OH250245   1.075   5.780  12.728  0.2449 -0.2383 -0.5912
 9585TIP3    H150246   1.067   5.685  12.742 -1.6326 -0.1040 -0.5279
 9585TIP3    H250247   1.102   5.789  12.637 -0.0837 -0.8195 -0.7485
 9586TIP3   OH250248   0.828   3.733   1.619 -0.0625 -0.5055 -0.3745
 9586TIP3    H150249   0.848   3.639   1.623 -0.3192 -0.5507 -0.1019
 9586TIP3    H250250   0.814   3.758   1.711 -2.3127 -0.7145 -0.5842
 9587TIP3   OH250251   3.846   2.439   1.263 -0.0896 -0.3232 -0.2889
 9587TIP3    H150252   3.882   2.527   1.249  0.5416 -0.4567  0.4699
 9587TIP3    H250253   3.819   2.411   1.175  0.1648  0.4273 -0.6189
 9588TIP3   OH250254   3.968   3.351   4.397 -0.2963  0.3504 -0.5400
 9588TIP3    H150255   3.950   3.286   4.464  1.3159 -0.8890 -1.2556
 9588TIP3    H250256   3.980   3.433   4.446  0.0727 -0.3712  0.6205
 9589TIP3   OH250257   2.698   0.432   1.915 -0.3694  0.1002 -0.2853
 9589TIP3    H150258   2.724   0.523   1.933 -0.5781  0.0024  0.5280
 9589TIP3    H250259   2.633   0.412   1.982  1.7056 -1.5828  1.3677
 9590TIP3   OH250260   1.283   2.000  13.911 -0.2356  0.1588 -0.6424
 9590TIP3    H150261   1.363   2.052  13.918  1.0315 -1.4683 -2.1418
 9590TIP3    H250262   1.281   1.970  13.820 -2.1750 -0.4614 -0.4576
 9591TIP3   OH250263   2.840   3.975   6.239  0.7257 -0.5464 -0.0703
 9591TIP3    H150264   2.745   3.974   6.238  0.6347 -3.6877 -2.0930
 9591TIP3    H250265   2.864   4.058   6.198 -1.1192  0.0369 -0.0313
 9592TIP3   OH250266   3.711   3.001   1.719 -0.6786 -0.4756 -0.4372
 9592TIP3    H150267   3.800   2.965   1.724 -0.0900  0.7393 -1.5460
 9592TIP3    H250268   3.655   2.925   1.707  0.1233 -1.3368  0.9909
 9593TIP3   OH250269   6.727   2.763   2.564  0.0719  0.1089  0.5637
 9593TIP3    H150270   6.759   2.685   2.609  2.5534  1.7583  1.9184
 9593TIP3    H250271   6.767   2.836   2.611  0.4753  2.1062 -2.5295
 9594TIP3   OH250272   6.398   1.284  10.891  0.2238  0.8352 -0.1575
 9594TIP3    H150273   6.304   1.301  10.898  0.0060 -0.2923 -0.1932
 9594TIP3    H250274   6.427   1.274  10.982  0.1851  0.5593 -0.1745
 9595TIP3   OH250275   5.710   4.895  16.920 -0.2030  0.0457 -0.1249
 9595TIP3    H150276   5.637   4.843  16.953  0.1525 -1.0331 -0.9630
 9595TIP3    H250277   5.687   4.913  16.829  0.1571  0.4739 -0.1344
 9596TIP3   OH250278   1.215   6.017   5.245  0.1698 -0.0651  0.2182
 9596TIP3    H150279   1.166   6.054   5.172 -1.2756 -1.7442  0.2518
 9596TIP3    H250280   1.166   6.044   5.323  0.3770 -0.1802  0.3879
 9597TIP3   OH250281   3.257   5.401   4.799  0.1453 -0.6608 -0.3180
 9597TIP3    H150282   3.293   5.421   4.712  0.7876  3.6451  0.7443
 9597TIP3    H250283   3.167   5.434   4.795  0.6080  0.8469  0.9999
 9598TIP3   OH250284   6.393   2.708   3.277 -0.0975 -0.3718 -0.4185
 9598TIP3    H150285   6.344   2.639   3.231  0.1720 -0.5720 -0.4053
 9598TIP3    H250286   6.470   2.722   3.222  0.9022 -1.5364  0.6348
 9599TIP3   OH250287   4.004   3.508   2.414  0.9980  0.1326  0.1257
 9599TIP3    H150288   4.039   3.425   2.382 -0.0869 -0.8064  1.2599
 9599TIP3    H250289   4.072   3.572   2.394  1.2571 -0.7336 -2.1151
 9600TIP3   OH250290   0.204   5.947  14.553 -0.3815 -0.0135 -0.0534
 9600TIP3    H150291   0.269   6.017  14.562 -0.9579  0.5181  0.1154
 9600TIP3    H250292   0.251   5.875  14.512  1.0909 -0.7433  2.7436
 9601TIP3   OH250293   1.775   0.621   1.999 -0.0260 -0.4939 -0.0279
 9601TIP3    H150294   1.737   0.568   1.928  0.4587  0.0941 -0.7394
 9601TIP3    H250295   1.804   0.557   2.064 -1.0362 -1.0124 -0.0683
 9602TIP3   OH250296   1.391   1.180  10.635  0.1377 -0.4462  0.0706
 9602TIP3    H150297   1.409   1.098  10.588 -2.5856 -0.0082 -2.0083
 9602TIP3    H250298   1.383   1.153  10.727  0.7035 -2.2477 -0.3587
 9603TIP3   OH250299   3.198   3.410  13.623  0.5074 -0.3785  0.3572
 9603TIP3    H150300   3.200   3.428  13.717 -0.7270 -0.6208  0.4456
 9603TIP3    H250301   3.288   3.385  13.602  0.7975 -0.3440  1.4729
 9604TIP3   OH250302   0.437   4.654   3.480 -0.1086 -0.4333  0.5808
 9604TIP3    H150303   0.512   4.596   3.499  0.8842  0.1161 -1.4255
 9604TIP3    H250304   0.390   4.659   3.564  1.8914 -1.0756  1.8299
 9605TIP3   OH250305   3.988   1.554   3.295  0.1110  0.2918 -0.0143
 9605TIP3    H150306   4.061   1.611   3.267  0.1942  0.4084  0.4291
 9605TIP3    H250307   4.013   1.467   3.264  0.4316  0.3348  0.1138
 9606TIP3   OH250308   0.988   5.385  15.869 -0.2622 -0.3179  0.3915
 9606TIP3    H150309   0.985   5.381  15.774  0.6148  1.1920  0.2668
 9606TIP3    H250310   1.070   5.342  15.893  0.4569  0.9559  0.3029
 9607TIP3   OH250311   1.629   2.695  13.225  0.3050 -0.2397 -0.5396
 9607TIP3    H150312   1.636   2.790  13.218 -1.7173  0.0692  0.7345
 9607TIP3    H250313   1.690   2.672  13.296 -0.5473  0.3903  0.4365
 9608TIP3   OH250314   1.589   3.987   3.531  0.1522  0.0814  0.1511
 9608TIP3    H150315   1.521   4.039   3.489  0.9360 -0.5597 -2.0234
 9608TIP3    H250316   1.670   4.034   3.512  0.7021 -1.1233 -0.5645
 9609TIP3   OH250317   3.881   3.281   1.812 -0.0511  0.2988 -0.0683
 9609TIP3    H150318   3.843   3.313   1.894  1.2243  0.6737  0.3879
 9609TIP3    H250319   3.968   3.251   1.836 -0.8825 -2.8985 -0.6187
 9610TIP3   OH250320   1.776   4.672   5.270  0.1549  0.2984  0.0820
 9610TIP3    H150321   1.841   4.651   5.204  0.2398 -1.0789  0.5617
 9610TIP3    H250322   1.826   4.693   5.349  0.0399  0.8571  0.0090
 9611TIP3   OH250323   6.606   5.055  14.773 -0.8741 -0.1229 -0.6172
 9611TIP3    H150324   6.531   5.033  14.828 -1.5711  1.4046 -0.9140
 9611TIP3    H250325   6.647   5.129  14.817  0.0762 -0.5090 -0.8254
 9612TIP3   OH250326   3.009   4.780  15.962 -0.4882  0.4846  0.2355
 9612TIP3    H150327   3.080   4.838  15.992  0.4069 -0.3700 -0.1617
 9612TIP3    H250328   2.940   4.791  16.027 -0.5050  2.2706 -0.0233
 9613TIP3   OH250329   4.772   5.052  16.545  0.4780  0.9450  0.6572
 9613TIP3    H150330   4.838   5.082  16.608 -0.0932  1.1993  1.1332
 9613TIP3    H250331   4.690   5.090  16.575  0.0290  0.2711  0.3146
 9614TIP3   OH250332   3.369   6.446  12.871  0.6786  0.4410  0.1993
 9614TIP3    H150333   3.384   6.525  12.922 -1.2530 -0.3023  2.0617
 9614TIP3    H250334   3.307   6.395  12.923 -0.9160 -0.6918 -2.5958
 9615TIP3   OH250335   1.068   3.707   4.062  0.3267 -0.9654  0.3017
 9615TIP3    H150336   1.132   3.776   4.081  0.6094 -0.9957 -0.5085
 9615TIP3    H250337   1.114   3.625   4.079  0.3400 -0.9776  0.2065
 9616TIP3   OH250338   0.989   4.697   1.633  0.2383 -0.4702 -0.2081
 9616TIP3    H150339   1.034   4.773   1.670  0.7101 -0.3506 -1.0065
 9616TIP3    H250340   1.055   4.628   1.631  0.4463 -0.2656 -1.4758
 9617TIP3   OH250341   5.042   5.846   0.523 -0.1254  0.2704  0.1341
 9617TIP3    H150342   4.973   5.877   0.581 -0.5195  0.3649 -0.3727
 9617TIP3    H250343   4.996   5.790   0.460  0.0308  1.4586 -1.0681
 9618TIP3   OH250344   2.142   1.238  16.777  0.1080 -0.0842 -0.5063
 9618TIP3    H150345   2.193   1.309  16.815 -0.2182  0.5852 -1.2976
 9618TIP3    H250346   2.080   1.281  16.719 -1.3275 -0.8813  0.3658
 9619TIP3   OH250347   1.989   5.016   0.028 -0.3074 -0.2030  0.6872
 9619TIP3    H150348   2.074   5.020  -0.015  0.0199 -0.5629  1.2916
 9619TIP3    H250349   1.926   5.040  -0.040  0.4107  1.8022  0.6523
 9620TIP3   OH250350   4.380   1.799   4.522 -0.0334 -0.2400  0.1234
 9620TIP3    H150351   4.420   1.766   4.442  2.1520  2.3748 -0.0071
 9620TIP3    H250352   4.437   1.768   4.592  0.2570  0.6025  0.2741
 9621TIP3   OH250353   6.274   3.877  16.587 -0.2749  0.1622 -0.9210
 9621TIP3    H150354   6.224   3.959  16.581 -0.7627  0.2093  2.2795
 9621TIP3    H250355   6.359   3.904  16.621  0.6574 -0.3872 -2.6871
 9622TIP3   OH250356   6.228   5.812   4.395  0.4473  0.0895  0.0512
 9622TIP3    H150357   6.284   5.873   4.348 -1.4308  2.5669  0.8088
 9622TIP3    H250358   6.273   5.797   4.478  0.1622  1.8421  0.5531
 9623TIP3   OH250359   5.141   4.453  15.283 -0.3852 -0.0263 -0.5938
 9623TIP3    H150360   5.123   4.547  15.283  2.5068  0.6210 -0.0888
 9623TIP3    H250361   5.223   4.445  15.233 -0.2414 -2.1946 -0.0682
 9624TIP3   OH250362   6.102   4.279   3.123  0.2527 -0.5203 -0.6888
 9624TIP3    H150363   6.072   4.190   3.106 -1.2377  0.2143 -2.1221
 9624TIP3    H250364   6.108   4.284   3.218  0.9258 -2.3059 -0.5878
 9625TIP3   OH250365   4.808   3.972  13.359  0.0305  0.1643  0.1727
 9625TIP3    H150366   4.736   4.034  13.366  1.3045  1.6834  0.2512
 9625TIP3    H250367   4.813   3.950  13.266 -1.5270 -1.2335  0.3718
 9626TIP3   OH250368   5.423   2.073  12.221  0.4530  0.2095  0.1748
 9626TIP3    H150369   5.343   2.044  12.179  1.0071 -1.3397  0.1148
 9626TIP3    H250370   5.468   2.125  12.155  0.5187 -0.7712 -0.5702
 9627TIP3   OH250371   3.988   3.797   0.864 -0.3547 -0.0779 -0.3221
 9627TIP3    H150372   4.048   3.765   0.932 -1.4623  0.2252  0.8318
 9627TIP3    H250373   4.006   3.891   0.859 -0.5279 -0.0379 -0.1889
 9628TIP3   OH250374   3.021   2.581   4.673  0.4227 -0.5018 -0.5670
 9628TIP3    H150375   3.000   2.614   4.585 -1.6394  1.9907  0.7330
 9628TIP3    H250376   2.937   2.578   4.718  1.6363  0.0731  1.9108
 9629TIP3   OH250377   3.312   3.129  16.089  0.2620 -0.5615  0.1289
 9629TIP3    H150378   3.255   3.092  16.157  2.0044 -0.3468  1.7767
 9629TIP3    H250379   3.284   3.220  16.080 -0.5457 -0.8216 -0.1044
 9630TIP3   OH250380   2.794   0.537  12.668  0.6369  0.3117  0.3564
 9630TIP3    H150381   2.878   0.562  12.706 -0.0676  1.1506  1.4071
 9630TIP3    H250382   2.738   0.613  12.681 -0.5032 -0.5058  0.3299
 9631TIP3   OH250383   0.881   1.166   3.727 -0.1764  0.2512  0.2449
 9631TIP3    H150384   0.820   1.108   3.683 -1.8377 -0.1533  2.8700
 9631TIP3    H250385   0.829   1.243   3.751  0.4577  0.2302  1.8727
 9632TIP3   OH250386   5.167   5.790   5.281  0.0371 -0.9342  0.1621
 9632TIP3    H150387   5.236   5.825   5.224 -0.1831  4.0547  2.4464
 9632TIP3    H250388   5.088   5.838   5.255 -0.7670 -0.8987  2.4409
 9633TIP3   OH250389   2.201   4.185   1.793  0.6909 -0.2264  0.0651
 9633TIP3    H150390   2.238   4.116   1.738  0.2068 -1.1552  0.8876
 9633TIP3    H250391   2.114   4.201   1.757 -0.7769 -2.7888  2.1172
 9634TIP3   OH250392   4.313   5.611  11.670 -0.2452 -0.3465 -0.5004
 9634TIP3    H150393   4.353   5.529  11.642 -1.5531 -0.7962 -1.0942
 9634TIP3    H250394   4.259   5.639  11.597  0.5442  1.3243 -0.5077
 9635TIP3   OH250395   5.877   2.244  11.325  0.3933 -0.0507  0.2967
 9635TIP3    H150396   5.834   2.161  11.308  0.0682  0.2452 -0.3503
 9635TIP3    H250397   5.812   2.310  11.303  0.5891  0.3832  0.9657
 9636TIP3   OH250398   0.688   4.866  15.775 -0.2177 -0.1027  0.4737
 9636TIP3    H150399   0.671   4.812  15.698 -0.1252  0.3492  0.1340
 9636TIP3    H250400   0.626   4.939  15.768 -0.4841 -0.2648  1.0351
 9637TIP3   OH250401   5.266   4.642  16.308  0.0364 -0.5506 -0.1736
 9637TIP3    H150402   5.350   4.666  16.349 -0.8151  0.4561  1.0464
 9637TIP3    H250403   5.280   4.661  16.215  0.0549  3.3156  0.4146
 9638TIP3   OH250404   3.169   5.708   2.193 -0.1673  0.3430 -0.1424
 9638TIP3    H150405   3.255   5.744   2.169 -0.4906  0.4961 -1.1139
 9638TIP3    H250406   3.137   5.668   2.113  0.1879 -2.2328  0.9104
 9639TIP3   OH250407   5.172   0.416   5.920  0.4706 -0.1735 -0.4407
 9639TIP3    H150408   5.077   0.411   5.933  0.4793 -1.6514 -0.7885
 9639TIP3    H250409   5.191   0.346   5.857  1.8292 -0.1104 -0.1175
 9640TIP3   OH250410   2.473   6.739   5.105 -0.4803  0.1808 -0.0126
 9640TIP3    H150411   2.403   6.688   5.145 -2.0424  0.1584 -2.5421
 9640TIP3    H250412   2.503   6.685   5.032  1.9835  0.3786  0.7511
 9641TIP3   OH250413   0.388   2.862  15.192 -0.2808  0.4544  0.1324
 9641TIP3    H150414   0.394   2.880  15.098  0.1199  1.9346  0.4098
 9641TIP3    H250415   0.400   2.948  15.234  0.1768 -0.2668  1.5619
 9642TIP3   OH250416   2.297   4.983  11.600  0.0162 -0.1535 -0.2955
 9642TIP3    H150417   2.359   5.000  11.529 -0.2674  1.7028 -0.1372
 9642TIP3    H250418   2.312   5.053  11.663  1.3294 -2.5449  2.3106
 9643TIP3   OH250419   0.623   0.367  10.965  0.2354  0.0852  0.1364
 9643TIP3    H150420   0.616   0.429  10.893  0.3422 -1.1583 -0.9760
 9643TIP3    H250421   0.533   0.347  10.989  0.1756 -0.5007 -0.5528
 9644TIP3   OH250422   5.446   1.044   6.310  0.0154  0.2238 -0.1693
 9644TIP3    H150423   5.433   1.064   6.403 -1.1048 -2.4632  0.3381
 9644TIP3    H250424   5.445   1.130   6.267 -0.4650  1.4746  2.1762
 9645TIP3   OH250425   0.376   5.249   2.027 -0.0086 -0.3532 -0.0087
 9645TIP3    H150426   0.382   5.211   2.115 -1.5667 -0.4654  0.0689
 9645TIP3    H250427   0.439   5.322   2.029  0.4241 -0.7337  0.9943
 9646TIP3   OH250428   2.930   1.093  16.651  0.3856 -0.0667  0.2155
 9646TIP3    H150429   3.002   1.045  16.693  0.2788 -0.0379  0.4299
 9646TIP3    H250430   2.926   1.057  16.562  0.0540 -0.7266  0.4889
 9647TIP3   OH250431   0.830   1.863  10.953  0.5219  0.0611 -0.1325
 9647TIP3    H150432   0.818   1.935  10.892 -1.5554  0.7185  0.9502
 9647TIP3    H250433   0.777   1.792  10.918  0.8776 -0.2370 -0.0813
 9648TIP3   OH250434   0.808   5.670  17.124  0.0398 -0.5212 -0.7400
 9648TIP3    H150435   0.899   5.642  17.122  0.4215 -0.1100  3.3640
 9648TIP3    H250436   0.767   5.616  17.192 -2.4521  0.2301 -1.5246
 9649TIP3   OH250437   3.590   6.444  13.897 -0.0206 -0.0799  0.0725
 9649TIP3    H150438   3.655   6.510  13.922  0.8353 -1.0040  0.3488
 9649TIP3    H250439   3.586   6.449  13.802  1.2266 -0.6970 -0.0326
 9650TIP3   OH250440   6.260   2.195   2.497 -0.3343  0.2326 -0.2572
 9650TIP3    H150441   6.196   2.221   2.563  1.1521 -1.5452  2.0535
 9650TIP3    H250442   6.238   2.105   2.477  1.6884 -0.6105  1.0253
 9651TIP3   OH250443   1.155   1.453   0.841 -0.5462 -0.3792  0.4511
 9651TIP3    H150444   1.225   1.509   0.809 -1.5165  0.5139 -0.1882
 9651TIP3    H250445   1.186   1.364   0.825 -0.8716 -0.0147 -2.9499
 9652TIP3   OH250446   1.636   2.368  12.802 -0.4945 -0.2529  0.6074
 9652TIP3    H150447   1.613   2.428  12.731 -2.9859 -0.2527  1.3199
 9652TIP3    H250448   1.570   2.384  12.869  1.4103 -0.6862  2.7231
 9653TIP3   OH250449   6.067   1.024   0.885 -0.1737  0.1513 -0.1355
 9653TIP3    H150450   6.007   0.962   0.844  0.5126 -0.9033  0.4096
 9653TIP3    H250451   6.150   0.978   0.890  0.2660  0.9850  0.6203
 9654TIP3   OH250452   1.890   6.563  10.656 -0.6792 -0.3122 -0.4310
 9654TIP3    H150453   1.931   6.534  10.737 -0.3001 -1.1433 -0.9081
 9654TIP3    H250454   1.809   6.606  10.684 -0.2381 -0.0010  0.4224
 9655TIP3   OH250455   3.995   3.400  13.006  0.2009  0.4994 -0.4816
 9655TIP3    H150456   4.050   3.421  13.081 -0.2490 -0.3654  0.0964
 9655TIP3    H250457   3.915   3.451  13.020  0.8299  1.7810 -1.3384
 9656TIP3   OH250458   2.756   0.875   0.776  0.1942  0.4835  0.1693
 9656TIP3    H150459   2.675   0.826   0.764  1.2328 -1.0369 -0.9677
 9656TIP3    H250460   2.782   0.856   0.867 -0.7125  1.0079  0.5517
 9657TIP3   OH250461   1.873   0.188  17.001 -0.4181 -0.2546 -0.4990
 9657TIP3    H150462   1.862   0.137  17.082 -1.3644 -0.6847 -0.8905
 9657TIP3    H250463   1.961   0.226  17.010  0.2287 -1.7353 -0.0640
 9658TIP3   OH250464   6.201   2.300  15.862 -0.2963 -0.1906 -0.3360
 9658TIP3    H150465   6.252   2.346  15.928 -0.6654  0.4356 -0.4834
 9658TIP3    H250466   6.164   2.369  15.807  0.3836 -0.7040 -1.4886
 9659TIP3   OH250467   6.019   1.107   2.292  0.0952  0.0851 -0.3187
 9659TIP3    H150468   5.937   1.081   2.252 -0.0543  1.3216 -0.8799
 9659TIP3    H250469   5.998   1.186   2.343  0.1724 -1.6755  2.6825
 9660TIP3   OH250470   5.970   5.310   1.372  0.3032 -0.1072  0.0459
 9660TIP3    H150471   5.985   5.224   1.411 -0.5096  0.1992  1.1087
 9660TIP3    H250472   5.878   5.309   1.348  0.3759  0.3490 -0.2522
 9661TIP3   OH250473   5.222   0.531   3.750  0.2496  0.3541  0.7083
 9661TIP3    H150474   5.263   0.464   3.695 -0.0592 -0.1614  1.0900
 9661TIP3    H250475   5.266   0.522   3.835  0.7388  1.1586  0.5489
 9662TIP3   OH250476   4.545   3.768   4.306 -0.0296 -0.3808  0.6968
 9662TIP3    H150477   4.526   3.819   4.384  0.9281  0.2339  0.5518
 9662TIP3    H250478   4.637   3.789   4.285  0.5246 -2.4481  0.8362
 9663TIP3   OH250479   5.388   2.484   3.431 -0.0327 -0.2594  0.2151
 9663TIP3    H150480   5.383   2.406   3.375 -1.2182 -0.0427 -0.0029
 9663TIP3    H250481   5.424   2.452   3.513  1.1034 -0.7104 -0.4316
 9664TIP3   OH250482   4.566   3.138   4.590  0.3380  0.1680 -0.1494
 9664TIP3    H150483   4.584   3.096   4.506 -0.7736  0.4525 -0.5460
 9664TIP3    H250484   4.634   3.205   4.598  0.0732  0.5794 -1.1415
 9665TIP3   OH250485   3.930   3.502   3.998  0.0276  0.2025  0.9073
 9665TIP3    H150486   3.927   3.497   3.902  1.0841 -0.7560  0.8978
 9665TIP3    H250487   3.919   3.595   4.017  2.3500  0.8208 -0.3175
 9666TIP3   OH250488   0.542   1.237  13.387  0.0587 -0.4179 -0.3088
 9666TIP3    H150489   0.575   1.326  13.375 -1.8929  0.2741 -0.9212
 9666TIP3    H250490   0.450   1.248  13.408 -0.2397 -2.3133 -0.4469
 9667TIP3   OH250491   6.581   1.446  13.719 -0.6704  0.5089  0.5693
 9667TIP3    H150492   6.486   1.455  13.724 -0.9344 -2.0329  1.8424
 9667TIP3    H250493   6.603   1.473  13.629 -2.7237  0.2071 -0.0774
 9668TIP3   OH250494   6.483   4.586   4.648  0.2292 -0.0186 -0.0765
 9668TIP3    H150495   6.555   4.557   4.705  0.4587 -0.1463 -0.4271
 9668TIP3    H250496   6.523   4.653   4.592 -0.7435  2.5036  2.0353
 9669TIP3   OH250497   0.843   4.381   5.191 -0.0434 -0.5536 -0.4424
 9669TIP3    H150498   0.801   4.440   5.253  2.7816 -0.9081  2.0513
 9669TIP3    H250499   0.851   4.298   5.239  0.2295 -1.5756 -2.1622
 9670TIP3   OH250500   0.632   3.136  10.386  0.3112 -0.0901 -0.1749
 9670TIP3    H150501   0.644   3.145  10.481  1.0528 -2.1743 -0.0297
 9670TIP3    H250502   0.634   3.226  10.354  0.3749  0.6515  1.7477
 9671TIP3   OH250503   5.056   2.772   5.525 -0.1530 -0.2429  0.3037
 9671TIP3    H150504   5.014   2.840   5.577  0.9801 -0.3776  1.4466
 9671TIP3    H250505   5.127   2.740   5.580  1.3994 -0.0791 -1.4972
 9672TIP3   OH250506   5.405   2.202   3.304  0.3657 -0.1849  0.5149
 9672TIP3    H150507   5.344   2.157   3.246  0.3096 -0.3003  0.6654
 9672TIP3    H250508   5.403   2.153   3.386  0.3122  0.0817  0.6772
 9673TIP3   OH250509   4.199   5.480  17.302 -0.6124 -0.1066  0.4126
 9673TIP3    H150510   4.163   5.412  17.359 -1.5548 -0.8273 -0.9827
 9673TIP3    H250511   4.123   5.535  17.280 -0.7548 -1.1474 -1.8881
 9674TIP3   OH250512   5.932   4.207   6.698 -0.6504  0.2991 -0.1133
 9674TIP3    H150513   6.014   4.237   6.660 -0.4123 -0.4588 -0.2159
 9674TIP3    H250514   5.882   4.173   6.623 -1.1834  1.0226 -0.0968
 9675TIP3   OH250515   3.051   5.009   6.721  0.2731  0.2895  0.4799
 9675TIP3    H150516   3.117   5.008   6.790 -1.2707 -0.9298  2.0358
 9675TIP3    H250517   2.981   5.064   6.755  0.1587  0.9971 -0.8397
 9676TIP3   OH250518   0.114   5.082   0.650 -0.5809 -0.2914 -0.0769
 9676TIP3    H150519   0.167   5.143   0.600 -0.7673  1.8557  2.1517
 9676TIP3    H250520   0.131   5.104   0.741 -2.3253 -2.1648  0.7959
 9677TIP3   OH250521   0.406   3.110   1.181  0.5854  0.1939  0.2714
 9677TIP3    H150522   0.443   3.164   1.112  0.0814  0.0592 -0.1118
 9677TIP3    H250523   0.322   3.080   1.145  0.1721  0.3833  1.0651
 9678TIP3   OH250524   6.661   0.962   2.293  0.5989 -0.0448 -0.2941
 9678TIP3    H150525   6.675   0.968   2.387  2.0016 -0.1035 -0.4824
 9678TIP3    H250526   6.689   1.047   2.259  1.6495 -0.5759 -0.8131
 9679TIP3   OH250527   3.710   5.291   5.433  0.0116  0.1691  0.1247
 9679TIP3    H150528   3.655   5.224   5.391  1.5649 -1.4980  0.6026
 9679TIP3    H250529   3.650   5.338   5.491 -0.7321 -2.5678  1.7864
 9680TIP3   OH250530   2.721   6.328  14.870 -0.8226 -0.1067 -0.2710
 9680TIP3    H150531   2.627   6.343  14.858 -0.7708  0.4510  0.0073
 9680TIP3    H250532   2.755   6.411  14.905  0.1858  0.5670 -2.5785
 9681TIP3   OH250533   5.567   0.070  12.997  0.4782 -0.3855  0.2121
 9681TIP3    H150534   5.490   0.062  12.940  0.1211  0.3154  0.5817
 9681TIP3    H250535   5.548   0.012  13.071 -0.0775  0.3965  0.7010
 9682TIP3   OH250536   1.439   5.505   1.850  0.2272 -0.6445  0.6538
 9682TIP3    H150537   1.409   5.584   1.804  1.2560 -1.3417 -1.3261
 9682TIP3    H250538   1.532   5.500   1.831  0.2901 -2.0283  1.2311
 9683TIP3   OH250539   1.437   2.387  12.970 -0.2389  0.6332 -0.1468
 9683TIP3    H150540   1.368   2.447  12.941  0.8625  1.1931 -1.7505
 9683TIP3    H250541   1.390   2.313  13.007 -1.8039  0.1452 -2.8884
 9684TIP3   OH250542   3.932   0.379  16.702 -0.6656 -0.2136 -0.0488
 9684TIP3    H150543   3.895   0.341  16.782 -0.2535 -0.6515 -0.0585
 9684TIP3    H250544   4.009   0.326  16.684 -0.2806  0.4123 -0.2721
 9685TIP3   OH250545   0.967   5.134  14.471 -0.8365 -0.0990 -0.1148
 9685TIP3    H150546   1.049   5.183  14.477 -0.4267 -0.8617  0.7492
 9685TIP3    H250547   0.903   5.189  14.515  0.1539 -1.3889  3.2292
 9686TIP3   OH250548   5.236   1.908   4.039  0.4793 -0.0605 -0.1268
 9686TIP3    H150549   5.267   1.824   4.074 -0.1053  0.0476  0.6823
 9686TIP3    H250550   5.145   1.913   4.067  0.8970  1.5138  1.1382
 9687TIP3   OH250551   4.520   5.537   2.218 -0.0994 -0.1989  0.2553
 9687TIP3    H150552   4.555   5.559   2.304  0.0468  0.8186 -0.0618
 9687TIP3    H250553   4.569   5.458   2.193  0.2368 -0.1959  0.8658
 9688TIP3   OH250554   0.787   3.885   1.358  0.5385 -0.1779  0.1105
 9688TIP3    H150555   0.751   3.845   1.279  3.4895 -2.5298 -0.2177
 9688TIP3    H250556   0.765   3.824   1.428 -0.2754  0.8479  0.7715
 9689TIP3   OH250557   0.422   3.054   4.622 -0.1593  0.1258  0.3278
 9689TIP3    H150558   0.447   3.087   4.708 -0.8701  1.3685  0.0782
 9689TIP3    H250559   0.491   2.991   4.599 -0.8186 -1.5068  2.5012
 9690TIP3   OH250560   1.626   5.831   6.569 -0.2055 -0.8841 -0.1649
 9690TIP3    H150561   1.664   5.831   6.657  0.2052 -2.4060 -0.3147
 9690TIP3    H250562   1.549   5.774   6.577 -0.8715 -0.0657 -0.5274
 9691TIP3   OH250563   5.046   1.592   1.234 -0.2019 -0.2027 -0.0836
 9691TIP3    H150564   4.969   1.641   1.260 -0.1344 -0.5165  0.7320
 9691TIP3    H250565   5.048   1.599   1.138 -0.1707  1.4056  0.0111
 9692TIP3   OH250566   4.070   4.013  16.629 -0.8269  0.5292 -0.1168
 9692TIP3    H150567   4.048   4.066  16.706 -0.8765 -0.4230  0.5375
 9692TIP3    H250568   3.991   4.013  16.576 -0.8057  1.1577 -0.1549
 9693TIP3   OH250569   2.471   4.203  12.331  0.1962  0.3664 -0.4729
 9693TIP3    H150570   2.497   4.139  12.265  0.7547  1.3621 -1.2528
 9693TIP3    H250571   2.378   4.188  12.344  0.0236  0.2784 -1.6594
 9694TIP3   OH250572   4.021   0.039   6.515 -0.1876  0.7282 -0.2731
 9694TIP3    H150573   3.963   0.006   6.446  0.5145  0.4574 -0.7436
 9694TIP3    H250574   3.977   0.119   6.546 -1.3503 -0.0394  0.1368
 9695TIP3   OH250575   6.566   1.245   4.159  0.0299 -0.2295  0.4824
 9695TIP3    H150576   6.564   1.339   4.145  3.6884  0.7193  4.4996
 9695TIP3    H250577   6.617   1.211   4.085 -3.8101  0.1784 -2.7085
 9696TIP3   OH250578   2.232   3.686  15.907  0.1590  0.4925  0.2364
 9696TIP3    H150579   2.316   3.725  15.883 -0.3785  0.5330 -1.7474
 9696TIP3    H250580   2.237   3.597  15.872 -0.2174  0.1238  1.0914
 9697TIP3   OH250581   2.560   0.176   4.259 -0.1323  0.1841 -0.0676
 9697TIP3    H150582   2.640   0.193   4.309 -0.9459  1.5808  0.8205
 9697TIP3    H250583   2.539   0.084   4.278 -0.3393  0.6179  2.0899
 9698TIP3   OH250584   1.758   2.595   2.216  0.2119 -0.0560 -0.1699
 9698TIP3    H150585   1.833   2.564   2.163  0.2653 -0.6018  0.2146
 9698TIP3    H250586   1.724   2.669   2.167  0.1980 -0.6147 -1.0362
 9699TIP3   OH250587   5.655   6.355  14.695  0.5110  0.4623 -0.2840
 9699TIP3    H150588   5.659   6.431  14.637  1.7307 -0.2434 -1.1695
 9699TIP3    H250589   5.632   6.392  14.781 -1.8136  1.4651 -1.2544
 9700TIP3   OH250590   0.944   5.827  11.997  0.0290 -0.0500  0.2230
 9700TIP3    H150591   0.852   5.842  11.978 -0.1969 -2.1480 -0.5994
 9700TIP3    H250592   0.972   5.906  12.044 -1.9102  1.0499 -0.3638
 9701TIP3   OH250593   5.662   3.683  16.491 -0.0851  0.5038 -0.1051
 9701TIP3    H150594   5.638   3.686  16.584 -0.8797  0.4914 -0.2978
 9701TIP3    H250595   5.614   3.606  16.457  1.8576 -0.7826 -0.0819
 9702TIP3   OH250596   2.587   1.529  16.535 -0.4640 -0.2163 -0.7692
 9702TIP3    H150597   2.593   1.537  16.630  1.5098  1.8108 -0.9770
 9702TIP3    H250598   2.530   1.454  16.521 -0.3551 -0.9344  2.0102
 9703TIP3   OH250599   0.519   0.778   3.529  0.1578 -0.6402  0.0293
 9703TIP3    H150600   0.500   0.779   3.436 -0.9148 -1.3264  0.2223
 9703TIP3    H250601   0.581   0.705   3.540 -0.7806 -1.4576  0.0247
 9704TIP3   OH250602   0.166   1.927   1.986  0.7842  0.1721 -0.0294
 9704TIP3    H150603   0.242   1.962   2.032  0.8027  1.5687 -1.0656
 9704TIP3    H250604   0.091   1.951   2.042  0.8913  0.9926 -0.2300
 9705TIP3   OH250605   6.507   2.174  13.093  0.2971  0.0844  0.1346
 9705TIP3    H150606   6.434   2.135  13.044  0.2076 -0.6844  0.8536
 9705TIP3    H250607   6.565   2.100  13.112  0.7521  0.5174  0.4453
 9706TIP3   OH250608   4.188   1.554  12.277  0.3381 -0.4866  0.4003
 9706TIP3    H150609   4.263   1.558  12.336  0.9733 -0.8931 -0.3622
 9706TIP3    H250610   4.148   1.641  12.283  1.8476  0.3141 -0.4219
 9707TIP3   OH250611   4.102   3.621   2.767  0.0046  0.5474  0.6544
 9707TIP3    H150612   4.078   3.594   2.856 -2.4957 -0.9543 -0.3645
 9707TIP3    H250613   4.138   3.709   2.778  0.3018  0.1866  3.1921
 9708TIP3   OH250614   2.124   4.184   5.587  0.6481  0.4359  0.2924
 9708TIP3    H150615   2.202   4.240   5.588 -0.5427  2.2980 -1.2895
 9708TIP3    H250616   2.085   4.195   5.673  1.5354  0.3636  0.7135
 9709TIP3   OH250617   4.791   6.052   0.994 -0.0787 -0.1108  0.7439
 9709TIP3    H150618   4.859   6.081   0.932 -0.8270  0.4323  0.1508
 9709TIP3    H250619   4.810   5.960   1.009  1.2351  0.2051  1.1809
 9710TIP3   OH250620   6.286   3.429  14.192  0.1142 -0.4119 -0.6893
 9710TIP3    H150621   6.211   3.450  14.248  0.5501  0.9829 -0.5814
 9710TIP3    H250622   6.249   3.418  14.105 -0.2450  0.2250 -0.6265
 9711TIP3   OH250623   3.185   0.893  17.202  0.4614  0.4538  0.3645
 9711TIP3    H150624   3.181   0.981  17.166  0.7726  0.6411  0.7838
 9711TIP3    H250625   3.124   0.894  17.276 -1.1141 -0.2794 -0.8682
 9712TIP3   OH250626   1.974   4.687   3.205  0.1678  0.0811  0.2129
 9712TIP3    H150627   1.921   4.621   3.250 -0.4293 -0.8849 -1.8100
 9712TIP3    H250628   2.055   4.641   3.184  0.6756  0.7026  0.7956
 9713TIP3   OH250629   4.329   0.497   6.230 -0.6394  0.0825 -0.1993
 9713TIP3    H150630   4.305   0.542   6.311  0.2379 -0.9984  0.7080
 9713TIP3    H250631   4.425   0.501   6.229 -0.5770 -1.1698 -0.4290
 9714TIP3   OH250632   1.084   1.156  11.628  0.4827  0.3746 -0.0004
 9714TIP3    H150633   1.004   1.121  11.588  2.4245 -1.2614 -2.8947
 9714TIP3    H250634   1.073   1.251  11.627 -0.7863  0.2507 -1.9059
 9715TIP3   OH250635   3.494   5.400  14.999 -0.0519 -0.7703  0.1230
 9715TIP3    H150636   3.523   5.484  15.036 -1.6634 -0.6373  1.1831
 9715TIP3    H250637   3.422   5.423  14.940  0.7945 -1.2495 -1.1445
 9716TIP3   OH250638   6.579   4.270   0.007  0.0038  0.2088 -1.0173
 9716TIP3    H150639   6.610   4.223   0.084  0.5165  2.8264  0.5228
 9716TIP3    H250640   6.608   4.218  -0.068  0.8148 -1.6484  0.5155
 9717TIP3   OH250641   1.112   0.759  13.829  0.6422  0.0822  0.3457
 9717TIP3    H150642   1.184   0.813  13.861  1.0848 -0.1288 -0.2721
 9717TIP3    H250643   1.056   0.746  13.905  2.7695 -2.2363  1.6442
 9718TIP3   OH250644   5.728   5.482   4.228 -0.6857  0.2909  0.3455
 9718TIP3    H150645   5.721   5.387   4.223 -1.7554  0.4023 -0.8309
 9718TIP3    H250646   5.822   5.500   4.234 -0.5387 -0.8732  2.1563
 9719TIP3   OH250647   3.454   1.745   5.649 -0.5597  0.0671  0.6630
 9719TIP3    H150648   3.388   1.760   5.717 -1.0495 -0.5243  0.3202
 9719TIP3    H250649   3.421   1.671   5.599  1.2265 -1.4221  1.5711
 9720TIP3   OH250650   6.324   0.456   4.035  0.0954 -0.0870 -0.2828
 9720TIP3    H150651   6.237   0.470   4.072  0.5909  0.8027  0.6194
 9720TIP3    H250652   6.309   0.413   3.951 -1.2214  0.2245 -0.2181
 9721TIP3   OH250653   5.184   5.553  13.548  0.1833  0.3303  0.4968
 9721TIP3    H150654   5.192   5.617  13.477  2.1905 -1.9891 -1.5246
 9721TIP3    H250655   5.099   5.512  13.534 -0.1684  1.0467  0.4912
 9722TIP3   OH250656   6.135   4.504   3.347  0.9410  0.0867 -0.2524
 9722TIP3    H150657   6.136   4.506   3.443  1.3638  1.2581 -0.2706
 9722TIP3    H250658   6.207   4.445   3.324 -0.7509 -2.2905  0.1500
 9723TIP3   OH250659   2.016   6.285   2.966  0.3552  0.2137  0.2681
 9723TIP3    H150660   2.107   6.284   2.996  0.5766 -0.1605 -0.3857
 9723TIP3    H250661   1.984   6.196   2.984 -0.4301  0.8361  2.0903
 9724TIP3   OH250662   1.492   6.709   1.654 -0.6310 -0.1532 -0.3040
 9724TIP3    H150663   1.520   6.645   1.719 -0.6844  0.9366  0.8467
 9724TIP3    H250664   1.410   6.674   1.619 -0.3563 -0.9894 -0.1224
 9725TIP3   OH250665   2.585   5.979  16.624 -0.2147  0.1666 -0.3321
 9725TIP3    H150666   2.490   5.972  16.620 -0.3365  0.5970  1.2725
 9725TIP3    H250667   2.607   6.041  16.554 -1.1580  0.4427 -0.4018
 9726TIP3   OH250668   0.061   3.213   5.142 -0.4682  0.4337  0.4041
 9726TIP3    H150669   0.023   3.301   5.135 -1.0243  0.2591  1.1099
 9726TIP3    H250670   0.099   3.196   5.056 -0.4680  1.3156  0.2194
 9727TIP3   OH250671   6.159   0.545  12.528  0.1182 -0.0489  0.7747
 9727TIP3    H150672   6.224   0.480  12.553 -0.2353 -0.0560  1.7218
 9727TIP3    H250673   6.146   0.597  12.607 -0.3023  0.5677  0.3043
 9728TIP3   OH250674   5.815   3.866  12.762  0.4947 -0.2144  0.0430
 9728TIP3    H150675   5.740   3.913  12.800 -0.0768 -0.1293 -1.1230
 9728TIP3    H250676   5.831   3.910  12.678  1.5871 -0.5023  0.0848
 9729TIP3   OH250677   2.484   0.820   0.861 -0.3841  0.0211  0.3027
 9729TIP3    H150678   2.403   0.771   0.876 -0.2859  0.0370  0.8869
 9729TIP3    H250679   2.536   0.807   0.940  0.2056 -0.0198 -0.0863
 9730TIP3   OH250680   4.039   0.621  12.200 -0.4049 -0.2174  0.3247
 9730TIP3    H150681   3.968   0.653  12.144 -0.4589  1.5111  1.3175
 9730TIP3    H250682   4.115   0.616  12.141 -0.7788  0.2522 -0.2086
 9731TIP3   OH250683   6.526   2.659   1.285 -0.1532 -0.5754  0.0472
 9731TIP3    H150684   6.459   2.721   1.313 -0.1717 -0.1277 -0.9424
 9731TIP3    H250685   6.527   2.666   1.189  2.2327  0.4460  0.0747
 9732TIP3   OH250686   2.604   3.947  14.450  0.2741 -0.4781  0.1308
 9732TIP3    H150687   2.593   3.879  14.517 -0.2857 -1.1571 -0.6341
 9732TIP3    H250688   2.527   4.003  14.460  1.2719  0.7502  1.5050
 9733TIP3   OH250689   4.136   2.323   3.234  0.3813  0.0107  0.2376
 9733TIP3    H150690   4.183   2.391   3.186 -0.7633  0.4464 -0.3075
 9733TIP3    H250691   4.065   2.369   3.278 -1.2249 -0.9671 -1.2094
 9734TIP3   OH250692   6.149   4.024  14.128 -0.3167 -0.3320  0.5672
 9734TIP3    H150693   6.062   4.025  14.167 -0.3193 -1.2353  0.6079
 9734TIP3    H250694   6.166   3.931  14.110 -0.3006  0.0340 -1.5366
 9735TIP3   OH250695   2.307   3.308   6.307  0.2768  0.7679 -0.1245
 9735TIP3    H150696   2.398   3.329   6.288  0.3748  2.2598  1.7147
 9735TIP3    H250697   2.281   3.371   6.374 -1.6035 -0.6702  0.6040
 9736TIP3   OH250698   3.845   4.298  15.487 -0.0428 -0.1520  0.4993
 9736TIP3    H150699   3.876   4.294  15.396 -0.5850  1.0666  0.2374
 9736TIP3    H250700   3.778   4.230  15.492 -0.7688  0.4789 -0.3338
 9737TIP3   OH250701   1.119   0.729   4.505  0.3507  0.1881 -0.3966
 9737TIP3    H150702   1.105   0.814   4.465 -0.5225  1.2608  2.0240
 9737TIP3    H250703   1.124   0.746   4.599  1.0553 -2.3276  0.1194
 9738TIP3   OH250704   5.149   3.784   1.577 -0.0151 -0.2800  0.1700
 9738TIP3    H150705   5.086   3.712   1.577 -1.8188  1.2254 -0.1644
 9738TIP3    H250706   5.173   3.796   1.669 -0.1174 -0.9455  0.2826
 9739TIP3   OH250707   1.337   4.366   3.503 -0.3051  0.3765  0.4411
 9739TIP3    H150708   1.282   4.409   3.568 -2.4437 -0.5761 -0.6167
 9739TIP3    H250709   1.326   4.419   3.423  0.0898  0.0032  0.1299
 9740TIP3   OH250710   1.569   0.393   6.506  0.3465  0.0664 -0.2287
 9740TIP3    H150711   1.530   0.308   6.485 -0.6967 -0.0321  1.8275
 9740TIP3    H250712   1.504   0.457   6.478  0.2564  0.0723 -0.0127
 9741TIP3   OH250713   2.800   0.828  14.892 -0.0035 -0.0390 -0.4353
 9741TIP3    H150714   2.724   0.782  14.927 -0.1384 -0.5204 -1.3509
 9741TIP3    H250715   2.863   0.826  14.964 -1.4210  1.8460  0.9716
 9742TIP3   OH250716   2.539   2.689   0.228  0.2294  0.5324 -0.2999
 9742TIP3    H150717   2.510   2.695   0.319  1.9651 -0.9874  0.3930
 9742TIP3    H250718   2.632   2.669   0.233  0.2524 -0.1576 -2.4173
 9743TIP3   OH250719   5.003   3.236   0.968 -0.2024 -0.3256 -0.3240
 9743TIP3    H150720   5.054   3.313   0.994  1.0642 -1.7268  1.5022
 9743TIP3    H250721   4.920   3.245   1.016  0.1461 -0.3500  0.2876
 9744TIP3   OH250722   0.316   3.661   5.155  0.1353 -0.6897  0.9664
 9744TIP3    H150723   0.275   3.625   5.076 -1.6919 -1.2816  2.1252
 9744TIP3    H250724   0.331   3.585   5.211  0.1636 -0.1410  1.7224
 9745TIP3   OH250725   0.307   5.561   4.897  0.4120  0.3793 -0.2231
 9745TIP3    H150726   0.217   5.590   4.910  0.9528  1.9361  0.2904
 9745TIP3    H250727   0.332   5.598   4.813  0.7069  0.3035 -0.1699
 9746TIP3   OH250728   4.443   0.572  17.116 -0.4055 -0.3641 -0.2961
 9746TIP3    H150729   4.383   0.526  17.058 -1.4842 -1.6077  1.6647
 9746TIP3    H250730   4.413   0.548  17.204  1.0855  1.4788  0.7818
 9747TIP3   OH250731   2.055   3.028  14.299  0.7201  0.3294  0.5675
 9747TIP3    H150732   2.073   3.055  14.209 -2.5157  0.5589 -0.1205
 9747TIP3    H250733   2.039   2.933  14.292 -2.2758  0.7511  0.2615
 9748TIP3   OH250734   0.802   2.268   5.636 -1.1209  0.8134 -0.0267
 9748TIP3    H150735   0.777   2.188   5.589 -0.1979  1.0334 -0.9215
 9748TIP3    H250736   0.877   2.242   5.689  1.0706  1.6983 -2.5079
 9749TIP3   OH250737   0.956   2.844  13.497  0.0880  0.3835 -0.1650
 9749TIP3    H150738   1.000   2.760  13.485 -1.5385 -0.8103  1.5946
 9749TIP3    H250739   0.864   2.820  13.515 -0.7828  2.6260 -1.3125
 9750TIP3   OH250740   2.911   5.003  13.585  0.4302  0.3473 -0.2971
 9750TIP3    H150741   2.889   5.039  13.499 -1.7464  1.2167  0.5427
 9750TIP3    H250742   2.884   4.911  13.580  2.8478 -0.3782 -1.3540
 9751TIP3   OH250743   0.750   2.417  14.926 -0.3843  0.2268 -0.2238
 9751TIP3    H150744   0.725   2.401  14.835  1.1306  0.4639 -0.7216
 9751TIP3    H250745   0.843   2.439  14.921 -0.8332  2.8516  1.0899
 9752TIP3   OH250746   1.993   5.118  16.919 -0.7193  0.2011 -0.2754
 9752TIP3    H150747   1.938   5.150  16.991  0.4635 -0.2396  0.8613
 9752TIP3    H250748   1.980   5.024  16.919  1.2949 -0.1485  1.1689
 9753TIP3   OH250749   5.799   0.993   6.341 -0.0798  0.1477 -0.2941
 9753TIP3    H150750   5.853   0.920   6.311  1.1485  1.2644 -0.8747
 9753TIP3    H250751   5.764   0.963   6.425  1.3449 -0.6776  0.0452
 9754TIP3   OH250752   5.788   0.149  12.775  0.2215 -0.8297 -0.1902
 9754TIP3    H150753   5.726   0.078  12.789  0.5895 -1.5293 -1.8357
 9754TIP3    H250754   5.742   0.227  12.804 -0.5275 -1.6146  0.8154
 9755TIP3   OH250755   6.141   5.769   2.036 -0.5627 -0.1880  0.2943
 9755TIP3    H150756   6.184   5.841   2.083  0.2807 -0.4365 -0.0899
 9755TIP3    H250757   6.089   5.813   1.969 -1.6233  0.1617  1.2982
 9756TIP3   OH250758   3.522   3.647   0.822  0.2309 -0.2725 -0.4001
 9756TIP3    H150759   3.496   3.628   0.732  1.5037 -1.5526 -0.5384
 9756TIP3    H250760   3.583   3.720   0.814  0.0730 -0.1561 -0.5384
 9757TIP3   OH250761   2.802   5.459   6.682 -0.2060  0.8588  0.3716
 9757TIP3    H150762   2.831   5.373   6.655  1.9404  1.0823  1.7353
 9757TIP3    H250763   2.748   5.443   6.760  1.2325  0.7722  1.3892
 9758TIP3   OH250764   6.194   5.477   3.634  0.4905 -0.3772  0.4934
 9758TIP3    H150765   6.142   5.397   3.624  0.1412 -0.4831  2.6400
 9758TIP3    H250766   6.253   5.477   3.559 -0.9355 -1.5360 -0.7004
 9759TIP3   OH250767   1.785   3.526   3.958  1.0251  0.3744 -0.6946
 9759TIP3    H150768   1.701   3.563   3.928  1.8298  2.6760 -0.3487
 9759TIP3    H250769   1.807   3.460   3.893 -0.8167  0.0740 -1.0702
 9760TIP3   OH250770   3.767   5.738   0.954 -0.1720  0.2945 -0.3338
 9760TIP3    H150771   3.711   5.730   1.031  0.5105  2.3258  0.4252
 9760TIP3    H250772   3.736   5.817   0.910  1.7385  1.2130 -0.1384
 9761TIP3   OH250773   3.927   3.164   2.401  0.2073 -0.5636 -0.1120
 9761TIP3    H150774   3.978   3.089   2.431 -0.3564 -0.5473  0.9320
 9761TIP3    H250775   3.913   3.216   2.479  0.1830  0.3945 -0.7413
 9762TIP3   OH250776   0.950   2.214   2.607 -0.0069 -0.3168 -0.2332
 9762TIP3    H150777   0.867   2.230   2.562  0.4353  2.1652 -0.3187
 9762TIP3    H250778   0.925   2.182   2.693 -1.2467  2.4676  0.5767
 9763TIP3   OH250779   3.688   4.528   1.793 -0.0643 -0.6850  0.3367
 9763TIP3    H150780   3.636   4.485   1.724 -0.7751  1.9317 -0.8646
 9763TIP3    H250781   3.623   4.553   1.859 -0.3524  1.9388 -0.8266
 9764TIP3   OH250782   1.193   2.567   0.393 -0.4752  0.1411  0.0662
 9764TIP3    H150783   1.146   2.560   0.310 -1.0488  0.5790  0.3411
 9764TIP3    H250784   1.283   2.544   0.372 -0.2017  2.0200 -1.0665
 9765TIP3   OH250785   2.265   5.043   4.404 -0.1123  0.0288  0.1160
 9765TIP3    H150786   2.280   5.079   4.317  0.9543 -1.3981 -0.3207
 9765TIP3    H250787   2.255   5.120   4.460  0.6927  0.9803 -0.9986
 9766TIP3   OH250788   1.044   6.439   2.745 -0.5137 -0.2540 -0.1537
 9766TIP3    H150789   0.999   6.511   2.701 -2.6847 -0.7013  1.1582
 9766TIP3    H250790   1.051   6.467   2.836  0.5302 -0.8518 -0.0280
 9767TIP3   OH250791   4.504   6.615   5.378  0.2575  1.1293  0.1187
 9767TIP3    H150792   4.581   6.577   5.419  1.5627  2.6157 -0.8402
 9767TIP3    H250793   4.524   6.708   5.371 -0.7970  1.2609 -1.9176
 9768TIP3   OH250794   1.604   4.960   6.029 -0.1363 -0.4603  0.1701
 9768TIP3    H150795   1.569   4.872   6.039  0.1833 -0.5469  0.5619
 9768TIP3    H250796   1.541   5.016   6.075  0.2652 -0.6225  0.9255
 9769TIP3   OH250797   1.223   0.016  11.172  0.1152  0.4359 -0.4070
 9769TIP3    H150798   1.292  -0.015  11.231  0.1566  1.5684  0.1650
 9769TIP3    H250799   1.268   0.027  11.088  0.3233 -0.0896 -0.3690
 9770TIP3   OH250800   1.403   2.431   3.257  0.1431 -0.0978  0.2647
 9770TIP3    H150801   1.406   2.440   3.162  0.6619 -1.5181  0.1216
 9770TIP3    H250802   1.483   2.383   3.279 -0.2651 -0.3072  1.3410
 9771TIP3   OH250803   5.898   1.527   6.116 -0.1237  0.0915  0.1946
 9771TIP3    H150804   5.838   1.484   6.055  0.4031  0.0404 -0.3033
 9771TIP3    H250805   5.966   1.461   6.133  1.0147  0.8895 -1.0415
 9772TIP3   OH250806   4.605   3.577   2.556  0.1465  0.5698 -0.3600
 9772TIP3    H150807   4.532   3.531   2.597 -0.8251  1.6237 -0.8537
 9772TIP3    H250808   4.568   3.615   2.476  1.3168  0.8541 -0.7931
 9773TIP3   OH250809   0.267   2.288  13.577  0.5587  0.0992 -0.1646
 9773TIP3    H150810   0.294   2.317  13.490  1.4805  0.2532  0.1650
 9773TIP3    H250811   0.171   2.291  13.575  0.5896  1.2322 -0.7948
 9774TIP3   OH250812   6.040   3.971   6.082  0.0537  0.6358  0.9351
 9774TIP3    H150813   6.086   3.998   6.161  0.2586  0.9193  0.7207
 9774TIP3    H250814   5.950   3.953   6.111  0.2252  0.3541  1.3019
 9775TIP3   OH250815   4.178   5.560  16.672  0.1132 -0.3411 -0.2062
 9775TIP3    H150816   4.118   5.605  16.612  0.2905  0.4591  0.2142
 9775TIP3    H250817   4.149   5.586  16.759  1.4918  0.6183 -0.0015
 9776TIP3   OH250818   4.475   3.497  14.209  0.2503 -0.0497  0.3097
 9776TIP3    H150819   4.428   3.466  14.286  1.8072  0.2186  1.4270
 9776TIP3    H250820   4.549   3.547  14.245  1.5308 -0.6683 -1.3446
 9777TIP3   OH250821   1.236   5.805   3.349  0.2328  0.9779  0.0996
 9777TIP3    H150822   1.230   5.742   3.278 -0.8564  0.8596  0.2645
 9777TIP3    H250823   1.314   5.857   3.330  0.6316  0.1662 -0.5181
 9778TIP3   OH250824   1.917   5.170  14.651 -0.4020 -0.0314 -0.3114
 9778TIP3    H150825   2.002   5.203  14.681  0.0037  0.9785 -2.4000
 9778TIP3    H250826   1.855   5.239  14.676 -0.9976 -1.5225  2.7685
 9779TIP3   OH250827   0.919   3.948   4.453  0.0382 -0.2609 -0.4215
 9779TIP3    H150828   0.916   3.867   4.503  0.5407 -0.6971 -1.0767
 9779TIP3    H250829   0.834   3.953   4.409  0.1324 -0.6087 -0.6458
 9780TIP3   OH250830   0.643   1.623  15.945 -0.4739  0.7034 -0.5470
 9780TIP3    H150831   0.675   1.576  15.868  0.8598 -0.2484  0.5422
 9780TIP3    H250832   0.573   1.567  15.980 -0.5070  0.7157 -0.5941
 9781TIP3   OH250833   4.583   4.689   2.741  0.2879 -0.0110  0.3096
 9781TIP3    H150834   4.503   4.638   2.744  0.2320  0.1219  1.9828
 9781TIP3    H250835   4.628   4.670   2.824  0.7202  1.8926  0.5756
 9782TIP3   OH250836   1.684   5.494   1.638  0.4807 -0.2916 -0.3385
 9782TIP3    H150837   1.715   5.464   1.553 -1.9716  1.1698 -1.8514
 9782TIP3    H250838   1.700   5.588   1.638 -0.6247 -0.0788  0.2820
 9783TIP3   OH250839   3.140   3.742   0.264 -0.0386  0.2176 -0.5212
 9783TIP3    H150840   3.106   3.790   0.340  1.7212 -0.6324  0.8862
 9783TIP3    H250841   3.064   3.698   0.227 -1.2168  1.9437 -0.2504
 9784TIP3   OH250842   0.180   2.787  12.987 -0.2135 -0.5640 -0.6283
 9784TIP3    H150843   0.154   2.867  13.032 -1.6377 -1.0247 -0.5796
 9784TIP3    H250844   0.216   2.818  12.904 -0.9977  0.1390 -0.7276
 9785TIP3   OH250845   2.494   1.603  11.289  0.2810  0.3479  0.0142
 9785TIP3    H150846   2.422   1.650  11.248  0.3383  0.3155 -0.1250
 9785TIP3    H250847   2.566   1.608  11.226  0.4441  0.4967  0.2106
 9786TIP3   OH250848   4.387   5.012   4.012  0.0195 -0.0113  0.6053
 9786TIP3    H150849   4.340   5.068   4.075  0.3530  0.9459  0.0211
 9786TIP3    H250850   4.350   5.036   3.927 -1.2420 -2.1139  0.5007
 9787TIP3   OH250851   0.701   1.795  13.551  0.1828 -0.1946  0.3316
 9787TIP3    H150852   0.719   1.830  13.638  0.5159 -2.1204  1.0785
 9787TIP3    H250853   0.754   1.716  13.544 -1.2032 -1.0834 -0.9067
 9788TIP3   OH250854   4.651   0.901  15.177  0.3809  0.0039 -0.1510
 9788TIP3    H150855   4.643   0.879  15.270 -2.7595 -1.6659 -0.6750
 9788TIP3    H250856   4.697   0.985  15.176  0.3185  0.1878  2.9152
 9789TIP3   OH250857   6.220   5.010   2.956 -0.4414  0.0198  0.2212
 9789TIP3    H150858   6.256   5.004   2.867  0.8176  1.5191  0.5904
 9789TIP3    H250859   6.225   4.921   2.990 -1.1378 -0.6317 -1.2512
 9790TIP3   OH250860   0.574   3.334   3.930  0.1411 -0.0299 -0.2319
 9790TIP3    H150861   0.495   3.312   3.978  0.8469 -1.7969  0.2093
 9790TIP3    H250862   0.611   3.250   3.904  1.3855  0.7802 -1.2432
 9791TIP3   OH250863   2.911   2.128   5.378 -0.7882 -0.4405 -0.0421
 9791TIP3    H150864   2.894   2.217   5.348 -1.1938  0.2095  1.9790
 9791TIP3    H250865   3.002   2.129   5.406 -0.8659 -0.5743  0.2241
 9792TIP3   OH250866   4.814   5.782  14.421 -0.5224 -0.4362  0.1494
 9792TIP3    H150867   4.732   5.831  14.428 -1.0676 -0.7548 -2.6590
 9792TIP3    H250868   4.804   5.730  14.341  2.4365 -0.4089 -0.3534
 9793TIP3   OH250869   5.796   2.057  17.187 -0.0375 -0.3627  0.2211
 9793TIP3    H150870   5.827   2.026  17.272 -0.3121  3.8384  2.0844
 9793TIP3    H250871   5.702   2.069  17.198 -0.0108  0.6642 -0.5360
 9794TIP3   OH250872   5.688   3.119   4.199  0.7834  0.3195  0.0785
 9794TIP3    H150873   5.741   3.176   4.254  0.8001  0.2994  0.0834
 9794TIP3    H250874   5.741   3.107   4.119  0.5428  0.7367 -0.1419
 9795TIP3   OH250875   5.738   2.778   3.332  0.1889 -0.0897 -0.3748
 9795TIP3    H150876   5.736   2.684   3.349  1.9001  0.0988  1.2093
 9795TIP3    H250877   5.780   2.787   3.247 -0.5258 -0.7617 -0.8133
 9796TIP3   OH250878   5.554   4.716  13.037  0.2384 -0.6334  0.0291
 9796TIP3    H150879   5.484   4.751  12.983  0.2297 -1.0228 -0.2170
 9796TIP3    H250880   5.601   4.655  12.980 -0.2051 -1.5943  0.6468
 9797TIP3   OH250881   4.819   5.309   3.164 -0.1544  0.0261  0.6213
 9797TIP3    H150882   4.725   5.293   3.172 -0.3081  0.0965 -0.7687
 9797TIP3    H250883   4.828   5.361   3.084  1.1571 -0.9335  0.1063
 9798TIP3   OH250884   2.690   1.810  15.519  0.0912  0.2117 -0.0915
 9798TIP3    H150885   2.637   1.745  15.565  0.6764  0.0937  0.4357
 9798TIP3    H250886   2.741   1.852  15.588  1.2665 -0.2377 -0.6633
 9799TIP3   OH250887   0.644   6.742   3.488  0.3201  0.4660  0.1012
 9799TIP3    H150888   0.557   6.746   3.447  0.2005 -1.2097  0.1003
 9799TIP3    H250889   0.675   6.832   3.487 -1.7131  1.2327  0.7422
 9800TIP3   OH250890   4.392   3.802   3.110 -0.4590 -0.2033  0.6394
 9800TIP3    H150891   4.413   3.767   3.024 -1.1990 -1.7852  1.0559
 9800TIP3    H250892   4.439   3.885   3.115  2.9587 -1.9314  0.2509
 9801TIP3   OH250893   1.253   5.929  14.100  0.6889 -0.2459 -0.0241
 9801TIP3    H150894   1.198   5.922  14.022  2.4843 -0.4327 -1.3388
 9801TIP3    H250895   1.201   5.980  14.162 -0.9611 -0.4719 -1.1796
 9802TIP3   OH250896   2.888   4.046   5.092 -0.1246  0.2582 -0.4599
 9802TIP3    H150897   2.924   3.980   5.034  0.7699  1.2885 -1.1001
 9802TIP3    H250898   2.890   4.005   5.179  0.4605 -0.5335 -0.8359
 9803TIP3   OH250899   4.131   4.440   7.159 -0.2988  0.2750 -0.1064
 9803TIP3    H150900   4.223   4.453   7.136 -0.3405  0.0731 -0.3920
 9803TIP3    H250901   4.129   4.352   7.198 -0.6094 -0.3416 -1.4479
 9804TIP3   OH250902   4.244   4.305   0.977  0.1585 -0.5972  0.1734
 9804TIP3    H150903   4.209   4.394   0.984 -0.1561 -0.7874  1.1551
 9804TIP3    H250904   4.315   4.302   1.042  0.2620 -1.0214  0.0423
 9805TIP3   OH250905   1.070   2.533  15.837  0.1302  0.5392 -0.8935
 9805TIP3    H150906   1.101   2.510  15.925 -1.6735 -0.2007 -0.3983
 9805TIP3    H250907   1.124   2.607  15.811  2.2932 -0.6867 -0.1597
 9806TIP3   OH250908   2.552   4.748   6.459  0.3212 -0.3368  0.2070
 9806TIP3    H150909   2.562   4.838   6.491 -0.0477 -0.5402  0.9034
 9806TIP3    H250910   2.499   4.757   6.380 -0.6339 -0.0399  0.8689
 9807TIP3   OH250911   0.535   4.263  12.405  0.0940 -0.1184  0.1272
 9807TIP3    H150912   0.443   4.285  12.420  0.1534  0.2852 -0.0868
 9807TIP3    H250913   0.550   4.286  12.313 -0.3930 -2.9878 -0.7668
 9808TIP3   OH250914   6.028   4.693  12.566  0.1142  0.3441 -0.3905
 9808TIP3    H150915   5.947   4.741  12.586 -0.1696 -0.0494 -0.5731
 9808TIP3    H250916   6.090   4.761  12.541 -1.2851  0.4814 -4.1946
 9809TIP3   OH250917   6.061   1.078   1.466 -0.6918  0.1240 -0.0940
 9809TIP3    H150918   6.022   1.110   1.385 -0.4561 -0.5455 -0.4739
 9809TIP3    H250919   5.990   1.084   1.531 -1.0328  0.1711 -0.4674
 9810TIP3   OH250920   4.046   0.390   2.695 -0.5314  0.7243 -0.2994
 9810TIP3    H150921   3.974   0.344   2.738  1.5395 -0.3191  2.3903
 9810TIP3    H250922   4.005   0.437   2.623 -3.5901 -1.1994 -0.0159
 9811TIP3   OH250923   2.489   6.333   6.452 -0.2613 -0.5489 -0.6526
 9811TIP3    H150924   2.417   6.284   6.413  0.0493 -2.3743  0.9290
 9811TIP3    H250925   2.565   6.275   6.446  0.4142  0.1949  0.2258
 9812TIP3   OH250926   4.606   3.727   6.417 -0.1419 -0.1169 -0.3344
 9812TIP3    H150927   4.674   3.755   6.478  0.4621  1.6403 -1.7486
 9812TIP3    H250928   4.551   3.668   6.469  1.9051 -0.8848  1.0929
 9813TIP3   OH250929   2.265   4.230   2.362  0.0616  0.0762  0.3965
 9813TIP3    H150930   2.359   4.247   2.350  0.0022  0.1113 -0.0118
 9813TIP3    H250931   2.231   4.219   2.274 -0.1352 -0.9402  0.5864
 9814TIP3   OH250932   6.021   6.009   1.593  0.2795  0.3787 -0.2807
 9814TIP3    H150933   6.110   6.042   1.608  1.2446 -2.1160 -0.0345
 9814TIP3    H250934   5.989   5.986   1.680 -0.3841  0.6761 -0.4411
 9815TIP3   OH250935   2.737   2.733  15.422 -0.2563 -0.0727 -0.4277
 9815TIP3    H150936   2.772   2.644  15.420  0.8893  0.3464  0.0069
 9815TIP3    H250937   2.659   2.728  15.476  0.7251 -0.5286  1.0142
 9816TIP3   OH250938   4.401   2.933  15.945 -0.1196  0.1750 -0.2344
 9816TIP3    H150939   4.344   2.865  15.980 -1.8025  2.3103  1.5214
 9816TIP3    H250940   4.454   2.960  16.020  1.7935 -0.3471 -1.3407
 9817TIP3   OH250941   1.189   5.270  17.185  0.3688 -0.4847  0.0108
 9817TIP3    H150942   1.208   5.358  17.218  2.7156 -0.7949 -0.3936
 9817TIP3    H250943   1.153   5.224  17.261  1.3458  0.1548  0.8920
 9818TIP3   OH250944   4.641   5.295  11.381  0.8009  0.8200  1.0550
 9818TIP3    H150945   4.595   5.343  11.449  0.1032  0.7963  0.6068
 9818TIP3    H250946   4.645   5.205  11.413 -2.2210  0.1235 -0.2192
 9819TIP3   OH250947   5.915   5.951   0.167 -0.1522  0.3974  0.5482
 9819TIP3    H150948   5.991   5.939   0.109  0.1507 -2.4506  1.3424
 9819TIP3    H250949   5.928   5.886   0.236 -2.2647  1.3089  1.9066
 9820TIP3   OH250950   4.789   6.730  15.559  0.0600  0.3106 -0.0235
 9820TIP3    H150951   4.726   6.801  15.570 -0.8043 -0.2326 -1.2623
 9820TIP3    H250952   4.867   6.771  15.524 -0.5776  0.6000 -1.1192
 9821TIP3   OH250953   3.551   0.672  15.642 -0.1179  0.2577 -0.0402
 9821TIP3    H150954   3.581   0.677  15.732 -0.2728 -1.6610  0.1709
 9821TIP3    H250955   3.485   0.741  15.635 -0.7832 -0.1582  1.5996
 9822TIP3   OH250956   1.381   5.947   4.055  0.5040 -0.4419  0.1364
 9822TIP3    H150957   1.301   6.001   4.051  1.5108  1.0431 -1.3888
 9822TIP3    H250958   1.451   6.010   4.071  1.3174 -1.8470  2.4372
 9823TIP3   OH250959   0.964   5.817  14.342  0.5595  0.1351 -0.1120
 9823TIP3    H150960   1.035   5.880  14.332 -0.5892  1.6760  0.9012
 9823TIP3    H250961   0.888   5.862  14.304 -0.1854 -0.8342  0.2049
 9824TIP3   OH250962   0.267   1.251   1.991 -0.2912 -0.0360 -0.2149
 9824TIP3    H150963   0.280   1.204   1.909 -0.1074 -1.4453  0.5769
 9824TIP3    H250964   0.350   1.294   2.009 -0.6806  1.2357 -1.3102
 9825TIP3   OH250965   4.960   2.014   3.290 -0.3021  0.0006 -0.4678
 9825TIP3    H150966   4.949   1.925   3.321 -0.6793  0.2204  0.0355
 9825TIP3    H250967   4.890   2.026   3.225 -0.8651  0.2487  0.1785
 9826TIP3   OH250968   1.761   3.564  16.045  0.0828  0.8301 -0.0829
 9826TIP3    H150969   1.804   3.480  16.060 -0.4908  0.0041 -2.5075
 9826TIP3    H250970   1.712   3.580  16.125  1.3422 -0.4233  0.9936
 9827TIP3   OH250971   6.025   1.305   0.106 -0.4236  0.2978 -0.0425
 9827TIP3    H150972   5.930   1.305   0.097 -0.3870  1.8160 -0.6994
 9827TIP3    H250973   6.057   1.307   0.016  0.2502 -0.5218  0.1647
 9828TIP3   OH250974   4.713   6.404   2.458 -0.1302  0.1514 -0.5431
 9828TIP3    H150975   4.687   6.418   2.367  2.6018 -1.8978 -1.7741
 9828TIP3    H250976   4.699   6.311   2.472 -1.9204  0.6741  1.7428
 9829TIP3   OH250977   3.050   2.734  12.419  0.2152 -0.0414 -0.6578
 9829TIP3    H150978   3.085   2.765  12.336  0.9479 -0.1102 -0.3828
 9829TIP3    H250979   2.988   2.802  12.446  0.5415  0.3472 -0.8835
 9830TIP3   OH250980   2.255   5.775  11.956 -0.2522 -0.1337  0.0027
 9830TIP3    H150981   2.280   5.842  11.893  0.7713 -0.3183  0.1865
 9830TIP3    H250982   2.235   5.824  12.036  3.2484 -0.1254  1.0212
 9831TIP3   OH250983   1.173   1.071  15.512  0.4221  0.1478 -0.2037
 9831TIP3    H150984   1.100   1.127  15.484 -1.6491 -0.4940  3.3853
 9831TIP3    H250985   1.149   0.983  15.482 -1.1885 -0.3328  2.2720
 9832TIP3   OH250986   3.198   0.535  12.401  0.2471 -0.2226  0.1867
 9832TIP3    H150987   3.154   0.450  12.404  1.2032 -0.7704 -0.6422
 9832TIP3    H250988   3.263   0.531  12.471 -0.6783  0.4201  1.1224
 9833TIP3   OH250989   6.390   6.747  13.068 -0.8242 -0.2393 -0.4976
 9833TIP3    H150990   6.430   6.739  13.155 -0.0514 -2.7166 -0.9821
 9833TIP3    H250991   6.391   6.841  13.050 -1.2270  0.3892  2.2257
 9834TIP3   OH250992   0.123   5.953  17.424 -0.0005  0.3639  0.2546
 9834TIP3    H150993   0.060   6.007  17.376 -0.2862  0.0194  0.2430
 9834TIP3    H250994   0.183   5.921  17.357 -0.3999 -0.1182  0.1230
 9835TIP3   OH250995   0.113   1.171   3.827 -0.1999 -0.0584 -0.2704
 9835TIP3    H150996   0.199   1.153   3.790  0.2386  0.4959  0.4479
 9835TIP3    H250997   0.128   1.175   3.922 -0.8943  0.6763 -0.1829
 9836TIP3   OH250998   1.470   6.371  15.253  0.4681  0.6178  0.1588
 9836TIP3    H150999   1.425   6.302  15.204  0.2142 -0.5064  1.8855
 9836TIP3    H251000   1.416   6.449  15.239  0.1063  0.1922 -0.8852
 9837TIP3   OH251001   3.456   1.081   2.858 -0.3699 -0.1194 -0.3565
 9837TIP3    H151002   3.380   1.105   2.910 -0.2522 -1.6257  0.5428
 9837TIP3    H251003   3.510   1.027   2.916  1.0775  0.3805 -1.1793
 9838TIP3   OH251004   2.996   0.840  11.457  0.0307 -0.5615 -0.4323
 9838TIP3    H151005   2.940   0.799  11.522 -0.1132 -0.9844 -0.8185
 9838TIP3    H251006   3.053   0.769  11.427 -1.1750 -0.8604 -2.1469
 9839TIP3   OH251007   2.335   1.677   1.485 -0.2144  0.1676  0.2699
 9839TIP3    H151008   2.380   1.649   1.565  1.1032  0.6241 -0.2776
 9839TIP3    H251009   2.251   1.711   1.515  0.0245 -0.1978  1.3979
 9840TIP3   OH251010   5.903   0.940   2.903  0.0215 -0.0821  0.4726
 9840TIP3    H151011   5.859   1.022   2.927  0.7882  0.1995  0.9733
 9840TIP3    H251012   5.851   0.904   2.832  0.4001  1.5156 -0.6713
 9841TIP3   OH251013   5.297   3.181  16.143  0.2970  0.1290 -0.5959
 9841TIP3    H151014   5.264   3.187  16.232 -0.3342 -0.1921 -0.7999
 9841TIP3    H251015   5.242   3.115  16.101  1.1872 -0.4093 -0.9604
 9842TIP3   OH251016   6.498   0.310   5.909  0.3799 -0.1616  0.0716
 9842TIP3    H151017   6.453   0.330   5.827  0.0806 -0.7863  0.0853
 9842TIP3    H251018   6.585   0.280   5.882  0.4703  0.1508  0.0091
 9843TIP3   OH251019   3.204   0.103  17.354 -0.5331 -0.2233  0.9073
 9843TIP3    H151020   3.294   0.088  17.324 -0.4277  1.1784  0.4443
 9843TIP3    H251021   3.151   0.044  17.301  0.3904 -4.5304  4.2167
 9844TIP3   OH251022   5.504   1.505  12.282  0.0734  0.2011 -0.7680
 9844TIP3    H151023   5.559   1.437  12.243  1.4240  0.8404 -0.0522
 9844TIP3    H251024   5.516   1.494  12.376  0.3670  1.4451 -0.6390
 9845TIP3   OH251025   2.078   3.739  12.683  0.5157 -0.5248 -0.4877
 9845TIP3    H151026   2.023   3.799  12.633 -0.7771  1.4881  2.9714
 9845TIP3    H251027   2.161   3.785  12.693  0.4395 -0.4926  0.0046
 9846TIP3   OH251028   6.110   1.030  17.337  0.5300 -0.0094 -0.4644
 9846TIP3    H151029   6.131   1.017  17.430  1.9874 -1.6380 -0.9784
 9846TIP3    H251030   6.097   1.125  17.329 -0.4360  0.0793  1.5321
 9847TIP3   OH251031   3.722   0.573   4.093 -0.1136  0.0466 -0.5560
 9847TIP3    H151032   3.783   0.532   4.155 -0.2312  0.5807 -0.0821
 9847TIP3    H251033   3.721   0.665   4.118 -1.5695 -0.0534 -0.1815
 9848TIP3   OH251034   2.718   3.255   3.632  0.3776  0.2961 -0.3165
 9848TIP3    H151035   2.699   3.166   3.662  1.1205  0.3955  0.4740
 9848TIP3    H251036   2.798   3.279   3.677 -0.4051  1.7975  0.3311
 9849TIP3   OH251037   0.020   1.207   2.330  0.4774  0.2919  0.3203
 9849TIP3    H151038   0.030   1.272   2.261 -1.1504 -0.2420 -0.4598
 9849TIP3    H251039   0.009   1.259   2.410  1.8666  0.9164  0.1207
 9850TIP3   OH251040   0.396   6.513  11.995 -0.2708 -0.1865  0.4781
 9850TIP3    H151041   0.414   6.439  12.052  0.4418 -0.8678 -0.6009
 9850TIP3    H251042   0.361   6.474  11.915  1.9754  0.4538 -0.8908
 9851TIP3   OH251043   1.944   4.473  14.776 -0.6330 -0.0197  0.4589
 9851TIP3    H151044   1.931   4.495  14.868  1.9345  1.6600  0.5308
 9851TIP3    H251045   1.982   4.552  14.737  0.8635 -1.5279 -1.3942
 9852TIP3   OH251046   2.405   4.254   4.316 -0.4389 -0.0790 -0.6178
 9852TIP3    H151047   2.407   4.343   4.350 -0.8976 -0.1918 -0.2819
 9852TIP3    H251048   2.343   4.208   4.373  0.4107 -0.8231 -0.2788
 9853TIP3   OH251049   0.829   0.032   2.550 -0.0798  0.1108  0.2536
 9853TIP3    H151050   0.873   0.033   2.635 -0.3367 -0.1516  0.3893
 9853TIP3    H251051   0.739   0.055   2.569 -0.1785 -0.1218  0.0760
 9854TIP3   OH251052   2.572   6.257   3.265 -0.7856 -0.2031  0.1771
 9854TIP3    H151053   2.568   6.226   3.175 -1.2665  0.6424 -0.1015
 9854TIP3    H251054   2.629   6.334   3.262  2.7738 -2.5278  1.3355
 9855TIP3   OH251055   5.848   4.873   2.135  0.2769 -0.2270 -0.4846
 9855TIP3    H151056   5.818   4.913   2.217  0.7000 -0.0502 -0.4126
 9855TIP3    H251057   5.896   4.943   2.091  2.5254 -1.0906  0.4288
 9856TIP3   OH251058   4.483   1.270   4.889 -0.5943 -0.4366 -0.3876
 9856TIP3    H151059   4.402   1.249   4.934 -0.3002 -0.0172  0.3545
 9856TIP3    H251060   4.526   1.185   4.877 -1.5599 -0.7684 -1.6341
 9857TIP3   OH251061   4.130   6.489  16.772  0.1990 -0.3740  0.0793
 9857TIP3    H151062   4.095   6.433  16.841 -0.4696 -0.0526  0.0116
 9857TIP3    H251063   4.207   6.443  16.740  0.4879 -0.5503  1.0060
 9858TIP3   OH251064   2.837   6.055   3.731 -0.6178 -0.0164  0.3443
 9858TIP3    H151065   2.814   6.077   3.641 -1.9000  0.9797  0.8765
 9858TIP3    H251066   2.891   6.129   3.760 -1.5671  0.4930  0.8747
 9859TIP3   OH251067   3.266   5.950  13.291  0.1552 -0.4691 -0.3220
 9859TIP3    H151068   3.337   6.004  13.326  0.7715 -2.3482  1.5794
 9859TIP3    H251069   3.309   5.870  13.262 -1.2290 -2.2769  2.2249
 9860TIP3   OH251070   1.128   1.493  12.567 -0.2876  0.4924  0.1936
 9860TIP3    H151071   1.130   1.436  12.644  1.6473 -3.6041 -2.4949
 9860TIP3    H251072   1.037   1.487  12.536 -0.1010 -1.4213 -0.1068
 9861TIP3   OH251073   4.318   2.402   4.245 -0.0911  0.3320  0.6645
 9861TIP3    H151074   4.321   2.493   4.273 -0.4868  0.9385 -1.1269
 9861TIP3    H251075   4.245   2.397   4.183  0.4280 -1.0044  0.0970
 9862TIP3   OH251076   2.175   4.832  13.031  0.5341  0.0204  0.0680
 9862TIP3    H151077   2.107   4.855  12.968  0.1598 -0.6956  0.1964
 9862TIP3    H251078   2.127   4.798  13.107  1.0254 -0.3208  0.2308
 9863TIP3   OH251079   1.298   2.412   4.446 -0.2496 -0.5187 -0.2368
 9863TIP3    H151080   1.206   2.422   4.467 -0.3541 -0.7592 -0.5596
 9863TIP3    H251081   1.314   2.478   4.377  0.1389  0.4089  0.7120
 9864TIP3   OH251082   1.033   6.303  11.165 -0.4199  0.4491 -0.7762
 9864TIP3    H151083   1.125   6.327  11.149  0.0310 -1.2065 -0.9015
 9864TIP3    H251084   0.998   6.286  11.078 -0.2150 -0.9481 -0.6149
 9865TIP3   OH251085   6.661   3.649  14.447 -0.4475  0.2050  0.2898
 9865TIP3    H151086   6.583   3.598  14.428 -0.0606  0.2769 -1.7929
 9865TIP3    H251087   6.690   3.681  14.361  0.8611  1.6564  1.2105
 9866TIP3   OH251088   4.790   2.856   4.057  0.1089 -0.3116 -0.7485
 9866TIP3    H151089   4.732   2.798   4.106 -0.3839  0.3648 -0.5384
 9866TIP3    H251090   4.860   2.797   4.026  1.5298 -0.4718  2.3772
 9867TIP3   OH251091   3.269   0.729   6.156  0.0677 -0.2442  0.1882
 9867TIP3    H151092   3.308   0.680   6.084  0.0949  0.3413 -0.1971
 9867TIP3    H251093   3.183   0.688   6.169 -0.3452  0.2590 -0.8263
 9868TIP3   OH251094   0.249   3.157  15.979 -0.3544  0.2839 -0.0979
 9868TIP3    H151095   0.237   3.187  15.889 -0.3074 -0.0158 -0.2051
 9868TIP3    H251096   0.259   3.062  15.972 -1.3062  0.1416  0.3091
 9869TIP3   OH251097   1.829   0.043  13.349  0.3525  0.0367 -0.0026
 9869TIP3    H151098   1.779   0.103  13.405  1.9785 -0.5980  2.2763
 9869TIP3    H251099   1.771  -0.033  13.339 -0.6841  0.8939 -0.7517
 9870TIP3   OH251100   5.063   4.449  15.895  0.0759 -1.0681 -0.0383
 9870TIP3    H151101   5.116   4.394  15.954 -1.2621 -1.0536  1.2368
 9870TIP3    H251102   5.041   4.525  15.948  2.1725  0.9613 -1.8787
 9871TIP3   OH251103   1.365   2.356  12.646 -0.0441  0.0070  0.2228
 9871TIP3    H151104   1.414   2.434  12.672 -0.4753  0.1462  0.6416
 9871TIP3    H251105   1.293   2.390  12.592  0.6230 -0.2450 -0.8413
 9872TIP3   OH251106   1.428   0.746  13.100  0.7987 -0.0038  0.1581
 9872TIP3    H151107   1.417   0.672  13.160 -1.1132 -0.1933 -0.3693
 9872TIP3    H251108   1.519   0.774  13.113  1.0434 -1.3405  1.6195
 9873TIP3   OH251109   1.038   2.710   1.277 -0.2580 -0.1312  0.1004
 9873TIP3    H151110   1.069   2.641   1.219 -0.7569 -0.3618  0.1002
 9873TIP3    H251111   1.059   2.678   1.365 -0.4423 -0.2621  0.0976
 9874TIP3   OH251112   2.378   0.719   5.393  0.3408  1.1621  0.0682
 9874TIP3    H151113   2.435   0.678   5.458  0.3324 -1.1833 -1.2804
 9874TIP3    H251114   2.436   0.779   5.346  1.2726  0.1678 -0.0994
 9875TIP3   OH251115   3.402   1.968  17.082 -0.2513  0.2517  0.0822
 9875TIP3    H151116   3.387   2.029  17.010  0.4697 -0.0213 -0.3102
 9875TIP3    H251117   3.471   1.910  17.050  1.0210  0.9241  1.4735
 9876TIP3   OH251118   0.793   2.831   4.165  0.0599  0.3642  0.1120
 9876TIP3    H151119   0.825   2.918   4.144  0.2379  0.5244  0.9992
 9876TIP3    H251120   0.846   2.803   4.241 -1.9903  0.7279  1.7736
 9877TIP3   OH251121   1.200   0.750   0.059  0.2721  0.3999 -0.0373
 9877TIP3    H151122   1.216   0.750   0.154  1.9486  2.9197 -0.2306
 9877TIP3    H251123   1.125   0.809   0.048  0.5930  0.7555 -0.3332
 9878TIP3   OH251124   6.256   3.107   4.856  0.2164 -0.3290  0.0533
 9878TIP3    H151125   6.349   3.105   4.837 -0.3003  0.8969 -3.1327
 9878TIP3    H251126   6.214   3.082   4.774 -2.3003  0.9301  0.8582
 9879TIP3   OH251127   6.039   5.600  13.080 -0.2491  0.0988  0.1038
 9879TIP3    H151128   6.010   5.645  13.001 -0.6366  0.0540  0.2171
 9879TIP3    H251129   6.134   5.593  13.071 -0.4241 -1.0935 -0.9824
 9880TIP3   OH251130   1.963   0.626  17.377 -0.4621  0.1972 -0.6109
 9880TIP3    H151131   1.876   0.636  17.415  0.1894  0.3533  0.9083
 9880TIP3    H251132   1.976   0.532  17.370 -1.2921  0.1601 -2.2243
 9881TIP3   OH251133   6.766   0.162   2.240  0.1371  0.6575 -0.0613
 9881TIP3    H151134   6.784   0.234   2.300 -0.0517 -1.0919  2.2406
 9881TIP3    H251135   6.844   0.157   2.184  0.1944  2.5154 -0.1816
 9882TIP3   OH251136   5.455   3.756   0.998 -0.0846  0.0781  0.0419
 9882TIP3    H151137   5.464   3.803   1.081  0.0126 -0.0989  0.1311
 9882TIP3    H251138   5.492   3.815   0.933 -2.7255  1.5077 -0.3113
 9883TIP3   OH251139   6.426   0.208  12.902 -0.4868 -0.2528  0.8519
 9883TIP3    H151140   6.353   0.267  12.883 -0.7606 -0.3739  1.4918
 9883TIP3    H251141   6.504   0.254  12.869 -0.5629  0.9425  2.2556
 9884TIP3   OH251142   2.816   0.644   0.454 -0.2422 -0.1534 -0.2224
 9884TIP3    H151143   2.852   0.726   0.489  2.6565 -1.0785 -0.8058
 9884TIP3    H251144   2.789   0.666   0.365  0.1863  0.2334 -0.2594
 9885TIP3   OH251145   6.731   5.034   4.524 -0.4733  0.2372 -0.1395
 9885TIP3    H151146   6.823   5.042   4.502 -0.6306  1.3336 -0.4532
 9885TIP3    H251147   6.686   5.030   4.439 -0.7532  0.2341  0.0070
 9886TIP3   OH251148   6.078   3.918  11.075  0.6618 -0.3678 -0.1756
 9886TIP3    H151149   6.016   3.846  11.077  0.4957 -0.3173 -2.0992
 9886TIP3    H251150   6.064   3.961  10.991  2.1900  0.6502  0.0292
 9887TIP3   OH251151   3.418   5.270   3.193  0.0197  0.4039 -0.1120
 9887TIP3    H151152   3.422   5.197   3.255 -1.8072  0.5187  0.2076
 9887TIP3    H251153   3.424   5.348   3.249  3.0589  0.5834 -0.5392
 9888TIP3   OH251154   5.054   4.759  16.497  0.1401  0.6403 -0.3249
 9888TIP3    H151155   5.052   4.847  16.458 -1.2173 -0.2068 -2.3275
 9888TIP3    H251156   5.070   4.701  16.423  0.5647 -0.8565  0.9064
 9889TIP3   OH251157   1.195   5.837   2.953  0.0422 -0.5780 -0.9321
 9889TIP3    H151158   1.163   5.923   2.979  0.5214 -0.3666 -1.0372
 9889TIP3    H251159   1.212   5.844   2.859  2.5965  0.0426 -0.5081
 9890TIP3   OH251160   5.871   2.263   0.195 -0.1492 -0.1004 -0.1764
 9890TIP3    H151161   5.929   2.313   0.253 -0.1639 -0.4826  0.1669
 9890TIP3    H251162   5.784   2.300   0.210 -0.2362 -0.5384  0.4259
 9891TIP3   OH251163   5.314   1.828  14.849 -0.0566  0.7357 -0.1831
 9891TIP3    H151164   5.317   1.750  14.795  1.0071 -0.4185  1.4716
 9891TIP3    H251165   5.403   1.839  14.882 -0.9856  0.2154  2.8638
 9892TIP3   OH251166   2.239   3.400   1.126 -0.4682 -0.1677 -0.6805
 9892TIP3    H151167   2.240   3.408   1.222  0.1284 -0.6466 -0.6416
 9892TIP3    H251168   2.331   3.399   1.101 -0.6288  0.7293 -1.3400
 9893TIP3   OH251169   3.025   3.259  15.552  0.0186 -0.2441  0.0464
 9893TIP3    H151170   3.014   3.172  15.512 -0.6658  0.1454 -0.6446
 9893TIP3    H251171   2.956   3.312  15.512 -0.1199  0.4017  1.1047
 9894TIP3   OH251172   1.048   1.045   6.432 -0.4910 -0.1428 -0.4437
 9894TIP3    H151173   0.980   1.111   6.422  0.4735  0.8189 -0.8450
 9894TIP3    H251174   1.101   1.052   6.352 -0.1454 -1.1545 -0.3274
 9895TIP3   OH251175   3.025   2.247   4.479  0.4465  0.3356 -0.3314
 9895TIP3    H151176   3.016   2.297   4.560 -0.8859  1.3051 -1.0539
 9895TIP3    H251177   2.974   2.167   4.495  1.0150  0.0544  0.1306
 9896TIP3   OH251178   1.063   3.223   0.102  0.1543 -0.2622 -0.0379
 9896TIP3    H151179   1.016   3.248   0.182 -0.2199  0.0113 -0.3383
 9896TIP3    H251180   1.105   3.304   0.072  1.0961 -0.5781  0.4063
 9897TIP3   OH251181   0.608   3.910  13.355  0.0795 -0.1869 -0.1577
 9897TIP3    H151182   0.541   3.930  13.420  0.5922  1.2331 -0.0311
 9897TIP3    H251183   0.678   3.972  13.373  0.9264 -0.8645 -1.0362
 9898TIP3   OH251184   6.315   3.979   3.055 -0.0084 -0.3083  0.5099
 9898TIP3    H151185   6.354   3.952   2.972 -0.8088 -0.1371  0.0686
 9898TIP3    H251186   6.389   3.987   3.115  0.6289  0.0052 -0.3057
 9899TIP3   OH251187   1.302   2.440   4.028 -0.3038 -0.2825 -0.1998
 9899TIP3    H151188   1.255   2.489   4.096 -0.3097  0.0230 -0.4236
 9899TIP3    H251189   1.393   2.468   4.037 -0.4287  0.3498 -0.8249
 9900TIP3   OH251190   6.552   5.710   3.206  0.2390  0.3076 -0.3554
 9900TIP3    H151191   6.493   5.721   3.280  0.6503 -1.1153  0.2123
 9900TIP3    H251192   6.631   5.671   3.243  1.0811  1.0234 -1.3034
 9901TIP3   OH251193   5.168   6.675  14.541  0.2140  1.0997  0.0312
 9901TIP3    H151194   5.123   6.758  14.522  0.6110  1.9312  2.4100
 9901TIP3    H251195   5.110   6.629  14.601  0.6873  0.3064 -0.1027
 9902TIP3   OH251196   2.401   4.062  12.606 -0.4909 -0.0809  0.7892
 9902TIP3    H151197   2.312   4.090  12.583 -0.5641 -0.4986  0.5505
 9902TIP3    H251198   2.457   4.118  12.553 -0.6311 -0.2632  0.4444
 9903TIP3   OH251199   3.828   3.635   0.592  0.2038  0.3553  0.5339
 9903TIP3    H151200   3.812   3.717   0.638  0.2089 -0.7773  2.6864
 9903TIP3    H251201   3.754   3.580   0.614  0.3955 -0.3704 -0.5533
 9904TIP3   OH251202   2.663   5.891   2.326 -0.0221 -0.2721  0.0651
 9904TIP3    H151203   2.697   5.975   2.296 -1.3390  0.6777  1.1221
 9904TIP3    H251204   2.703   5.877   2.412 -2.6095  1.1965  1.6467
 9905TIP3   OH251205   0.041   1.251  11.868  0.0183 -0.7035  0.0710
 9905TIP3    H151206   0.045   1.167  11.915  1.0792 -1.7634 -1.7747
 9905TIP3    H251207   0.033   1.317  11.937  1.2940 -2.1755  1.7222
 9906TIP3   OH251208   4.678   6.658   1.019  0.0730 -0.0853 -0.0963
 9906TIP3    H151209   4.739   6.732   1.030  0.5220 -0.4625 -0.0064
 9906TIP3    H251210   4.658   6.658   0.925 -0.1348  0.3051 -0.0569
 9907TIP3   OH251211   5.488   2.025   5.511 -0.8611 -0.4073  0.6166
 9907TIP3    H151212   5.464   1.932   5.503  1.0974 -0.8236 -1.4795
 9907TIP3    H251213   5.415   2.072   5.471 -0.9324 -1.2305 -0.2745
 9908TIP3   OH251214   5.067   2.226   1.283 -0.0381 -0.5662 -0.2053
 9908TIP3    H151215   5.104   2.289   1.344 -1.2952  0.5871 -0.5902
 9908TIP3    H251216   5.118   2.238   1.203 -0.4996  0.2483 -0.3925
 9909TIP3   OH251217   1.260   1.267   0.491  0.2377 -0.3518 -0.4227
 9909TIP3    H151218   1.325   1.336   0.486  0.3098 -0.4917 -1.9567
 9909TIP3    H251219   1.301   1.191   0.449 -0.1288 -1.1003  0.5241
 9910TIP3   OH251220   2.721   5.759  15.018 -0.2567 -0.0975  0.7478
 9910TIP3    H151221   2.677   5.684  14.979 -2.6482  1.7729 -0.4895
 9910TIP3    H251222   2.771   5.797  14.946  1.0983 -0.5694  1.4140
 9911TIP3   OH251223   2.209   4.628   5.464  0.4972  0.0447 -0.1510
 9911TIP3    H151224   2.146   4.656   5.530  0.5229 -1.9797  0.7856
 9911TIP3    H251225   2.170   4.656   5.381 -0.9683  0.0653  0.5076
 9912TIP3   OH251226   4.192   5.536  13.665 -0.3361  0.8724  0.8560
 9912TIP3    H151227   4.233   5.573  13.587 -1.4880 -0.3337 -0.3800
 9912TIP3    H251228   4.214   5.597  13.735 -1.4991  3.5308 -0.9081
 9913TIP3   OH251229   4.425   3.243   3.159  0.5798 -0.0400  0.1152
 9913TIP3    H151230   4.351   3.284   3.115  0.0074 -2.7008 -1.6662
 9913TIP3    H251231   4.388   3.199   3.235  0.8355  0.9231  0.8119
 9914TIP3   OH251232   4.760   4.272  15.853  0.0647 -0.0890  0.4175
 9914TIP3    H151233   4.713   4.355  15.863  1.4043  0.6112  1.3508
 9914TIP3    H251234   4.852   4.298  15.851  0.5001 -1.5587  0.5441
 9915TIP3   OH251235   0.881   2.188  15.456 -0.0475 -0.0089  0.3652
 9915TIP3    H151236   0.802   2.141  15.483 -0.8748  2.1726  1.9831
 9915TIP3    H251237   0.891   2.165  15.363 -2.6083 -0.3185  0.0865
 9916TIP3   OH251238   4.188   5.185   2.716 -0.6705 -0.7331 -0.3695
 9916TIP3    H151239   4.185   5.261   2.657 -0.1574 -1.8556 -1.9235
 9916TIP3    H251240   4.096   5.163   2.732 -0.8239 -0.6651 -1.1213
 9917TIP3   OH251241   4.874   2.635   1.610 -0.1337  0.0355  0.5423
 9917TIP3    H151242   4.842   2.638   1.700  1.4394  0.2037  1.1249
 9917TIP3    H251243   4.916   2.720   1.597  0.6926 -0.4345  0.0564
 9918TIP3   OH251244   3.932   2.134   3.576 -0.2047  0.2632  0.1999
 9918TIP3    H151245   3.874   2.103   3.646 -0.2434 -0.7404 -0.2567
 9918TIP3    H251246   3.966   2.054   3.537  0.3033  0.8282 -0.5310
 9919TIP3   OH251247   2.468   6.760   4.692 -0.2177 -0.3525 -0.4034
 9919TIP3    H151248   2.477   6.702   4.768  1.3728  1.4873  0.9556
 9919TIP3    H251249   2.544   6.740   4.637  0.7478  0.8128  0.4287
 9920TIP3   OH251250   6.096   4.577   1.863 -0.1346  0.6256 -0.3573
 9920TIP3    H151251   6.101   4.485   1.888  1.1696  0.6691 -0.3898
 9920TIP3    H251252   6.073   4.575   1.770  0.7383  0.2980 -0.5752
 9921TIP3   OH251253   5.897   2.783   1.128 -0.1485 -0.2859  0.3417
 9921TIP3    H151254   5.935   2.794   1.215  0.7125  0.0916 -0.0744
 9921TIP3    H251255   5.926   2.860   1.079 -2.4114  0.6526  0.3284
 9922TIP3   OH251256   3.419   3.499  12.622 -0.3097 -0.7009  0.3701
 9922TIP3    H151257   3.479   3.426  12.603 -0.4115 -0.6675 -0.0788
 9922TIP3    H251258   3.381   3.522  12.538  0.2443  0.3375  0.3892
 9923TIP3   OH251259   0.569   3.340  12.263  0.1524  0.1236 -0.0648
 9923TIP3    H151260   0.475   3.348  12.282  0.2821 -1.4021  1.4379
 9923TIP3    H251261   0.573   3.272  12.196  0.1914  0.0515  0.0106
 9924TIP3   OH251262   2.856   2.110   0.511 -0.0996 -0.3717 -0.0495
 9924TIP3    H151263   2.828   2.068   0.593 -1.0455  0.9692  0.3453
 9924TIP3    H251264   2.777   2.116   0.458 -0.0192  0.9739 -0.0507
 9925TIP3   OH251265   2.151   4.387  13.065 -1.0527 -0.3834 -0.1538
 9925TIP3    H151266   2.242   4.386  13.036 -1.1354 -0.3536 -0.4183
 9925TIP3    H251267   2.117   4.300  13.043 -1.2947 -0.1490 -0.7347
 9926TIP3   OH251268   3.848   6.620  16.841 -0.8730  0.2275 -0.0455
 9926TIP3    H151269   3.823   6.534  16.875 -2.3209  0.8529  0.5869
 9926TIP3    H251270   3.776   6.678  16.868 -0.6996  1.3258 -1.7938
 9927TIP3   OH251271   5.113   4.995  12.784  0.4333  0.0710 -0.0181
 9927TIP3    H151272   5.030   5.017  12.743  0.3182  1.2074  0.7799
 9927TIP3    H251273   5.168   5.072  12.771  1.6455 -0.9449 -1.1886
 9928TIP3   OH251274   3.444   6.348  14.716  0.4274 -0.2758  0.1161
 9928TIP3    H151275   3.478   6.436  14.732  2.0559 -0.3036 -2.5221
 9928TIP3    H251276   3.403   6.353  14.630 -0.0007 -1.9609  0.1792
 9929TIP3   OH251277   5.406   4.782   1.771  0.1077  0.2473  0.9945
 9929TIP3    H151278   5.463   4.706   1.786  1.2157  0.9580  0.4646
 9929TIP3    H251279   5.414   4.834   1.851  1.1024  0.9083  0.4766
 9930TIP3   OH251280   3.294   4.241   1.597  0.0204 -0.2396  0.4490
 9930TIP3    H151281   3.328   4.172   1.540 -1.8737  0.5781 -1.8862
 9930TIP3    H251282   3.231   4.197   1.654  0.5454 -0.7941  0.6056
 9931TIP3   OH251283   2.535   6.384   5.315  0.5497 -0.1980  0.2453
 9931TIP3    H151284   2.566   6.306   5.360  1.2603  0.7222  1.4095
 9931TIP3    H251285   2.545   6.454   5.379  1.7988  1.2105 -1.3915
 9932TIP3   OH251286   4.479   6.444   3.224 -0.5033 -0.3526  0.4676
 9932TIP3    H151287   4.522   6.431   3.140 -0.2175 -1.3258  0.7517
 9932TIP3    H251288   4.550   6.456   3.286 -0.7040  2.9952  0.2423
 9933TIP3   OH251289   3.322   1.228   0.357  0.3165 -0.2261  0.3339
 9933TIP3    H151290   3.251   1.275   0.402  0.1424 -1.6998  1.6809
 9933TIP3    H251291   3.399   1.283   0.372  0.0208 -0.0758  1.4244
 9934TIP3   OH251292   0.673   4.599  17.173 -0.1917  0.7506 -0.2003
 9934TIP3    H151293   0.592   4.601  17.223  0.0196  1.3401  0.1291
 9934TIP3    H251294   0.672   4.514  17.128 -1.2170  0.9712 -0.6026
 9935TIP3   OH251295   2.960   2.369  17.334 -0.7252 -0.4657 -0.4559
 9935TIP3    H151296   2.994   2.309  17.268 -0.3158 -0.2979 -0.4021
 9935TIP3    H251297   3.003   2.453  17.316 -1.1911 -0.2226 -0.4494
 9936TIP3   OH251298   5.357   4.462  15.129 -0.1306  0.1404 -0.7268
 9936TIP3    H151299   5.411   4.410  15.068  0.9349 -0.5612  0.7332
 9936TIP3    H251300   5.410   4.540  15.146 -0.7832  0.7115 -1.3034
 9937TIP3   OH251301   0.859   2.236  17.223 -0.3788 -0.0096  0.1989
 9937TIP3    H151302   0.828   2.174  17.157  0.0854  0.4714 -0.4737
 9937TIP3    H251303   0.801   2.222  17.298 -0.0496 -1.5389  0.2124
 9938TIP3   OH251304   3.957   3.468  15.050 -0.1122  0.2775 -1.0141
 9938TIP3    H151305   3.924   3.517  14.975 -1.1887 -2.2505 -2.3033
 9938TIP3    H251306   3.882   3.417  15.081  0.7349  0.0135  0.7818
 9939TIP3   OH251307   3.817   1.705  17.057  0.3196  0.1814 -0.0870
 9939TIP3    H151308   3.904   1.698  17.098  0.3412 -0.1407 -0.1791
 9939TIP3    H251309   3.827   1.663  16.972 -0.2869 -1.2210  0.4878
 9940TIP3   OH251310   6.160   2.057  15.719 -0.0121 -0.8056 -0.1496
 9940TIP3    H151311   6.194   2.112  15.789  1.4088 -1.3986 -0.3376
 9940TIP3    H251312   6.219   2.071  15.646 -0.1350 -1.9131 -0.4837
 9941TIP3   OH251313   5.484   4.176   2.508 -0.3464  0.0188  0.6990
 9941TIP3    H151314   5.471   4.269   2.494  0.1755 -0.0870 -0.6377
 9941TIP3    H251315   5.396   4.141   2.524 -0.6243  0.6246  0.4899
 9942TIP3   OH251316   6.031   4.778  13.636  0.3288 -0.2203  0.1110
 9942TIP3    H151317   5.971   4.847  13.609 -3.3968 -3.0555  0.3982
 9942TIP3    H251318   6.085   4.818  13.704  0.0775  2.9902 -1.4193
 9943TIP3   OH251319   0.380   6.241   4.533  0.5141  0.0602 -0.2496
 9943TIP3    H151320   0.468   6.204   4.528  0.7993  0.8364 -1.3736
 9943TIP3    H251321   0.330   6.192   4.468  0.6086  0.8607 -0.9456
 9944TIP3   OH251322   4.742   6.038  15.245 -0.5159  0.4829  0.1542
 9944TIP3    H151323   4.705   6.126  15.232 -1.9042 -0.3161 -1.9085
 9944TIP3    H251324   4.733   5.996  15.159  0.1519 -1.6695  1.0829
 9945TIP3   OH251325   5.259   3.272   4.415 -0.1060 -0.3391 -0.6563
 9945TIP3    H151326   5.336   3.294   4.467  0.2594  1.4205 -1.8157
 9945TIP3    H251327   5.294   3.233   4.335 -0.4337 -0.1589 -0.8944
 9946TIP3   OH251328   0.474   1.381  15.974 -0.1207 -0.1658  0.2292
 9946TIP3    H151329   0.386   1.370  15.939 -0.5126  0.7690  0.8863
 9946TIP3    H251330   0.524   1.309  15.936 -1.3470 -1.1665  0.4636
 9947TIP3   OH251331   2.355   3.155  16.769  0.0783  0.1413  0.2211
 9947TIP3    H151332   2.345   3.114  16.683  1.0242  0.6498 -0.1501
 9947TIP3    H251333   2.431   3.112  16.808  1.3882  1.7941 -0.3748
 9948TIP3   OH251334   5.792   1.566   2.922  0.3327  0.8341 -0.3940
 9948TIP3    H151335   5.716   1.574   2.864  0.2294 -1.8348 -0.7728
 9948TIP3    H251336   5.783   1.479   2.961  1.9013  1.4447  1.4991
 9949TIP3   OH251337   6.420   1.292  14.744  0.9653 -0.1990  0.1010
 9949TIP3    H151338   6.435   1.211  14.794  0.0453  1.2177  2.9014
 9949TIP3    H251339   6.328   1.288  14.718  1.4850 -1.0085 -1.7341
 9950TIP3   OH251340   5.251   4.580  11.683 -0.2739  0.2497 -0.3207
 9950TIP3    H151341   5.218   4.565  11.594  2.0308 -0.8582 -1.0804
 9950TIP3    H251342   5.182   4.548  11.740 -0.7728 -1.4533 -1.7803
 9951TIP3   OH251343   1.283   2.791   1.679 -0.5245  0.4193  0.2671
 9951TIP3    H151344   1.274   2.757   1.768  0.0436  0.6175  0.4031
 9951TIP3    H251345   1.226   2.735   1.627 -1.6738  0.9537  0.9138
 9952TIP3   OH251346   3.417   3.241  10.616  0.2078  0.0593  0.4840
 9952TIP3    H151347   3.355   3.206  10.552  0.5353  1.7010 -0.7998
 9952TIP3    H251348   3.394   3.197  10.698 -2.2887  0.1834 -0.0593
 9953TIP3   OH251349   3.708   1.214  13.533  0.0952 -0.6459 -0.8271
 9953TIP3    H151350   3.780   1.270  13.564 -0.1680 -0.5308 -0.4170
 9953TIP3    H251351   3.692   1.154  13.605 -3.4985  2.3943  1.2885
 9954TIP3   OH251352   4.979   4.972   6.108  0.5334  0.2448 -0.2234
 9954TIP3    H151353   5.058   4.975   6.053  1.4263  0.1897  1.0003
 9954TIP3    H251354   4.909   5.004   6.052  1.1308 -1.1464 -1.8490
 9955TIP3   OH251355   0.377   1.624  15.727 -0.3549 -0.2844 -0.0238
 9955TIP3    H151356   0.466   1.657  15.737  0.0071 -1.1198 -0.4197
 9955TIP3    H251357   0.344   1.618  15.817 -0.2133  0.5383  0.0947
 9956TIP3   OH251358   3.101   1.901  15.640  0.2572  0.5936 -0.0005
 9956TIP3    H151359   3.114   1.831  15.704 -1.5259  0.9634  0.8188
 9956TIP3    H251360   3.175   1.961  15.655  2.3149 -1.4534 -1.3040
 9957TIP3   OH251361   2.112   5.630   4.365  0.3028 -0.4495 -0.2646
 9957TIP3    H151362   2.020   5.619   4.340  0.4431 -3.4637  0.0974
 9957TIP3    H251363   2.112   5.704   4.425 -2.0293 -0.8216  0.2924
 9958TIP3   OH251364   5.256   6.073  11.319 -0.1869  0.0630  0.6079
 9958TIP3    H151365   5.290   6.016  11.250  1.2987  0.2162  1.1788
 9958TIP3    H251366   5.321   6.066  11.389 -0.9614  0.9868  1.4338
 9959TIP3   OH251367   5.141   6.752   4.685 -0.2013  0.1438 -0.1309
 9959TIP3    H151368   5.232   6.720   4.688  0.1941  1.2132 -0.0421
 9959TIP3    H251369   5.117   6.761   4.777 -0.1170  0.6040 -0.1523
 9960TIP3   OH251370   4.094   5.789  12.028 -0.5122  0.3174  0.0288
 9960TIP3    H151371   4.164   5.821  11.972 -0.2744  1.0164  0.7058
 9960TIP3    H251372   4.034   5.864  12.036 -0.6052  0.1870  0.5990
 9961TIP3   OH251373   6.731   1.190  15.151  0.0513  0.4807 -0.0763
 9961TIP3    H151374   6.701   1.100  15.157  1.0963  0.1969  1.3468
 9961TIP3    H251375   6.783   1.193  15.071 -0.3671 -0.0429 -0.3770
 9962TIP3   OH251376   1.216   0.393  16.760  0.0230 -0.4008 -0.1136
 9962TIP3    H151377   1.286   0.398  16.825 -0.1014  0.4751 -0.0253
 9962TIP3    H251378   1.251   0.441  16.684 -1.0533  1.4617  0.5028
 9963TIP3   OH251379   3.726   1.955  13.393 -0.4718  0.4748  0.2611
 9963TIP3    H151380   3.671   1.882  13.364 -0.2800  0.1640  0.6775
 9963TIP3    H251381   3.801   1.913  13.435  0.6489  0.8564 -1.2677
 9964TIP3   OH251382   2.422   3.859  14.651  0.6353  0.0627  0.4381
 9964TIP3    H151383   2.375   3.936  14.622  0.3728  0.4899  1.9167
 9964TIP3    H251384   2.387   3.788  14.598  0.1633  0.7982 -0.2490
 9965TIP3   OH251385   4.277   2.563   3.058  0.9037 -0.1435 -0.2545
 9965TIP3    H151386   4.190   2.596   3.037  0.8873  0.2361  0.3734
 9965TIP3    H251387   4.336   2.607   2.996  0.6305 -0.5715 -0.8274
 9966TIP3   OH251388   0.909   1.182   0.167  0.4567 -0.5103 -0.3604
 9966TIP3    H151389   0.907   1.222   0.080  0.5398  0.3077 -0.0033
 9966TIP3    H251390   0.818   1.161   0.186 -0.0356  2.0541  0.5487
 9967TIP3   OH251391   0.371   3.835   4.357  0.4339  0.2344  0.0216
 9967TIP3    H151392   0.398   3.773   4.424 -1.3790 -0.0671  0.5256
 9967TIP3    H251393   0.320   3.901   4.404 -2.3077 -0.8765 -1.1860
 9968TIP3   OH251394   2.167   6.468   0.139  0.2837 -0.2121 -0.1219
 9968TIP3    H151395   2.257   6.473   0.172 -0.2521 -1.4453  1.6673
 9968TIP3    H251396   2.144   6.375   0.146 -1.5420  0.2563  0.6847
 9969TIP3   OH251397   6.548   4.063   3.195  0.1094  0.5244 -0.2890
 9969TIP3    H151398   6.568   4.152   3.225  0.9591 -0.0906  1.0865
 9969TIP3    H251399   6.630   4.031   3.160  0.6211 -0.6741  1.8337
 9970TIP3   OH251400   3.100   1.279  10.967 -0.0781  0.4483  0.2550
 9970TIP3    H151401   3.140   1.215  10.908  0.3161  0.8891  0.0404
 9970TIP3    H251402   3.007   1.278  10.943 -0.2794 -0.8326  0.9871
 9971TIP3   OH251403   2.380   2.681   4.442 -0.1172 -0.2979  0.6875
 9971TIP3    H151404   2.413   2.771   4.447 -0.8246  0.0470 -0.5631
 9971TIP3    H251405   2.379   2.660   4.349  1.4764 -2.1858  1.0261
 9972TIP3   OH251406   6.085   1.927  13.498 -0.0429  0.3217 -0.6716
 9972TIP3    H151407   6.136   1.881  13.432 -1.1098 -1.6270 -0.2369
 9972TIP3    H251408   5.996   1.931  13.462 -0.2936  0.6520 -0.0414
 9973TIP3   OH251409   1.467   0.060  16.957  0.1688 -0.2722 -0.3233
 9973TIP3    H151410   1.516   0.143  16.952  0.6776 -0.5437  0.0585
 9973TIP3    H251411   1.444   0.041  16.866 -0.7089  0.7294 -0.3241
 9974TIP3   OH251412   3.857   4.815   3.248 -0.6290  0.6316 -0.7932
 9974TIP3    H151413   3.908   4.748   3.294 -0.2896  1.3544 -0.0808
 9974TIP3    H251414   3.840   4.882   3.314 -2.0089  0.6917 -1.1824
 9975TIP3   OH251415   6.097   3.364  15.459  0.0780 -0.8257  0.4068
 9975TIP3    H151416   6.191   3.357  15.446  0.1884 -1.5229  1.4404
 9975TIP3    H251417   6.079   3.311  15.537 -1.4125 -2.1056 -0.7290
 9976TIP3   OH251418   2.614   0.320  13.163  0.2621 -0.5162 -0.0727
 9976TIP3    H151419   2.581   0.406  13.138  1.2502 -0.3536 -0.8965
 9976TIP3    H251420   2.704   0.318  13.129 -0.5676 -2.8545 -2.3993
 9977TIP3   OH251421   0.831   5.676   6.877  0.0933  0.2591 -0.0298
 9977TIP3    H151422   0.879   5.643   6.953 -0.9649  0.5982  0.8171
 9977TIP3    H251423   0.766   5.735   6.914 -0.3479  0.5529 -1.2264
 9978TIP3   OH251424   6.402   5.317   1.366  0.1557 -0.3064 -0.2165
 9978TIP3    H151425   6.346   5.240   1.365 -1.3242  0.7427 -0.1725
 9978TIP3    H251426   6.344   5.389   1.388  1.6309  0.7453  0.4197
 9979TIP3   OH251427   2.288   3.458  16.787 -0.7202  0.0636 -0.0473
 9979TIP3    H151428   2.256   3.483  16.700  1.1215 -1.6602 -1.2994
 9979TIP3    H251429   2.252   3.371  16.801 -0.8425  0.2522  0.8721
 9980TIP3   OH251430   0.054   4.550  16.868 -0.1683 -0.4991  0.8434
 9980TIP3    H151431   0.055   4.599  16.950 -1.2419  1.1439 -0.0758
 9980TIP3    H251432   0.122   4.484  16.880  0.8495  0.7383  2.4231
 9981TIP3   OH251433   5.709   4.087  16.289 -0.0315 -0.1217 -0.5051
 9981TIP3    H151434   5.767   4.024  16.330 -0.3881 -0.3609 -0.3645
 9981TIP3    H251435   5.621   4.063  16.319 -0.1763  0.4194 -0.4672
 9982TIP3   OH251436   2.159   3.022   2.203  0.1989  0.1971 -0.6941
 9982TIP3    H151437   2.229   3.039   2.266 -0.2941 -0.8864  0.1871
 9982TIP3    H251438   2.115   2.944   2.237 -0.9577  0.4080 -1.6446
 9983TIP3   OH251439   3.728   6.395  12.912  0.3338 -0.2680  0.3386
 9983TIP3    H151440   3.641   6.417  12.945  0.0650  0.4554 -0.8143
 9983TIP3    H251441   3.712   6.333  12.842  0.5021  1.7577 -1.6056
 9984TIP3   OH251442   3.957   3.760   5.490  0.0104  0.1005 -0.1108
 9984TIP3    H151443   3.867   3.769   5.459 -0.3242  2.2318  1.2770
 9984TIP3    H251444   3.951   3.768   5.585  1.6073 -0.2879  0.0597
 9985TIP3   OH251445   0.965   3.088   1.092  0.4039  0.0884 -0.7837
 9985TIP3    H151446   0.960   3.127   1.180  1.0254  1.5306 -1.3548
 9985TIP3    H251447   0.928   3.001   1.103 -0.2984  0.5320  0.7389
 9986TIP3   OH251448   4.644   6.573  16.121  0.1881  0.2555 -0.5071
 9986TIP3    H151449   4.726   6.529  16.101  0.9195  2.0359 -1.7364
 9986TIP3    H251450   4.625   6.550  16.212  1.5279 -0.9533 -0.5072
 9987TIP3   OH251451   5.472   3.351   1.600 -0.2719 -0.2689 -0.4771
 9987TIP3    H151452   5.378   3.368   1.596 -0.0060  1.4402 -0.3415
 9987TIP3    H251453   5.493   3.356   1.694 -0.0003 -0.3035 -0.5340
 9988TIP3   OH251454   2.823   5.717  13.560 -0.6123 -0.2870  0.4392
 9988TIP3    H151455   2.734   5.738  13.535 -0.6140 -0.9526 -0.1467
 9988TIP3    H251456   2.852   5.653  13.495  0.1267 -0.4318  0.8950
 9989TIP3   OH251457   5.625   5.670   0.184  0.3538 -0.1968 -0.2992
 9989TIP3    H151458   5.576   5.750   0.164  1.7647  0.3973 -1.5303
 9989TIP3    H251459   5.710   5.701   0.215  0.4807 -1.2295  0.4375
 9990TIP3   OH251460   4.476   0.188   2.008  0.2568 -0.2226  0.0917
 9990TIP3    H151461   4.397   0.226   2.046  0.6295  0.6013  0.0675
 9990TIP3    H251462   4.547   0.244   2.039  0.5834  0.4310 -1.7120
 9991TIP3   OH251463   2.379   2.915   3.962  0.3314 -0.2719 -0.3549
 9991TIP3    H151464   2.300   2.956   3.995  0.9359 -0.1406  1.0404
 9991TIP3    H251465   2.450   2.955   4.013  1.4072  0.3086 -2.2186
 9992TIP3   OH251466   4.630   0.281  12.747  0.3779 -0.1581  0.2111
 9992TIP3    H151467   4.697   0.306  12.683  1.1202  2.4632  1.8423
 9992TIP3    H251468   4.676   0.224  12.809  0.7019  0.3853  0.4779
 9993TIP3   OH251469   1.782   5.256  12.299 -0.4055 -0.2332 -0.4846
 9993TIP3    H151470   1.742   5.189  12.354  0.1547  1.2485  1.8593
 9993TIP3    H251471   1.708   5.311  12.272 -0.3505  1.1817  1.9663
 9994TIP3   OH251472   4.290   1.893  13.485 -0.2766  0.3930 -0.5987
 9994TIP3    H151473   4.306   1.839  13.562  1.6530  1.8339  0.0841
 9994TIP3    H251474   4.270   1.980  13.520  1.6328  1.3235 -1.6569
 9995TIP3   OH251475   1.704   0.449   2.903  0.5597  0.2810  0.4987
 9995TIP3    H151476   1.668   0.486   2.822 -0.9055  0.0811  1.0355
 9995TIP3    H251477   1.726   0.526   2.956 -0.7254  0.4044  0.8641
 9996TIP3   OH251478   3.822   1.712   6.179  0.1647 -1.0425 -0.2545
 9996TIP3    H151479   3.838   1.805   6.191 -0.4271 -0.7902 -1.3535
 9996TIP3    H251480   3.729   1.706   6.159  0.1179 -1.9107  0.1733
 9997TIP3   OH251481   3.679   2.752   3.611 -0.3836 -0.2989 -0.0827
 9997TIP3    H151482   3.734   2.813   3.562 -1.0408  1.1256  0.8895
 9997TIP3    H251483   3.670   2.676   3.553  0.9928  0.2416 -1.0580
 9998TIP3   OH251484   0.901   2.221  11.460  0.8877 -0.3268  0.5103
 9998TIP3    H151485   0.881   2.226  11.553  1.6213  1.4969  0.6099
 9998TIP3    H251486   0.997   2.228  11.456  0.8006  0.5077 -0.4164
 9999TIP3   OH251487   5.860   5.075  12.581 -0.3604 -0.3572  0.3125
 9999TIP3    H151488   5.768   5.061  12.563  0.0612 -0.2910 -2.1923
 9999TIP3    H251489   5.868   5.170  12.595 -1.1424 -0.6983  4.2195
10000TIP3   OH251490   5.645   5.269   5.797 -0.2756  0.5789 -0.0887
10000TIP3    H151491   5.671   5.348   5.845 -0.1070  0.2619  0.3443
10000TIP3    H251492   5.688   5.197   5.843 -1.2883  0.1197  0.1768
10001TIP3   OH251493   0.767   4.748   4.195 -0.1390 -0.3481 -0.3288
10001TIP3    H151494   0.718   4.754   4.113  0.4984  0.5089 -0.6565
10001TIP3    H251495   0.808   4.662   4.192  0.5514  0.0065 -1.3007
10002TIP3   OH251496   1.609   2.158   3.626  0.2682  0.6564  0.3768
10002TIP3    H151497   1.669   2.102   3.576 -0.1593  0.0807  0.5082
10002TIP3    H251498   1.527   2.110   3.628  0.0335  1.0731  0.9007
10003TIP3   OH251499   4.252   3.296   4.392 -0.0018  0.2355  0.4318
10003TIP3    H151500   4.296   3.260   4.315 -0.0874  0.6222  0.1985
10003TIP3    H251501   4.174   3.339   4.357  0.3090  0.9870  0.6596
10004TIP3   OH251502   2.552   3.595  12.783  0.1409 -0.2260 -0.3326
10004TIP3    H151503   2.467   3.553  12.799  0.0596  0.2233  0.5005
10004TIP3    H251504   2.616   3.534  12.820  0.0857 -0.0345  0.0928
10005TIP3   OH251505   6.200   2.411  11.724 -0.1048 -0.4985 -0.1373
10005TIP3    H151506   6.267   2.464  11.679  0.6156 -0.8749  0.4632
10005TIP3    H251507   6.153   2.367  11.653 -1.0964  1.3461 -0.6964
10006TIP3   OH251508   1.510   5.739  16.862 -0.3413  0.3407 -0.6205
10006TIP3    H151509   1.467   5.654  16.850 -1.8669  1.2279 -1.7197
10006TIP3    H251510   1.596   5.727  16.821 -0.5578 -0.6612 -0.8210
10007TIP3   OH251511   2.517   3.961  16.291 -0.3946 -0.1081 -0.1923
10007TIP3    H151512   2.564   3.878  16.298 -2.1251 -1.0735  0.5006
10007TIP3    H251513   2.547   4.013  16.366 -0.3660 -0.6577  0.1778
10008TIP3   OH251514   4.578   1.623  14.533  0.0899  0.6119  0.3159
10008TIP3    H151515   4.517   1.694  14.516  0.6272  0.9136 -0.4407
10008TIP3    H251516   4.638   1.657  14.600 -0.5117  0.3435  0.9998
10009TIP3   OH251517   5.022   5.490   1.785  0.5241 -0.2461  0.1061
10009TIP3    H151518   4.956   5.551   1.817 -3.0856 -2.9511 -1.4906
10009TIP3    H251519   5.054   5.529   1.704 -0.5254  0.3188 -0.0543
10010TIP3   OH251520   5.065   2.270  16.943 -0.5371 -0.5677  0.4079
10010TIP3    H151521   5.069   2.334  17.014  0.9010  0.7263 -0.7744
10010TIP3    H251522   5.073   2.185  16.987  1.6061  0.2403  1.7369
10011TIP3   OH251523   0.538   5.091   0.958  0.0357 -0.5827  0.2693
10011TIP3    H151524   0.624   5.124   0.985  0.2841 -1.3763  0.4878
10011TIP3    H251525   0.545   5.079   0.864 -0.7224  1.8758 -0.1565
10012TIP3   OH251526   5.432   2.641  14.006  0.8002  0.5342 -0.6457
10012TIP3    H151527   5.362   2.582  14.032  0.5648  0.8470 -0.5615
10012TIP3    H251528   5.387   2.717  13.969  1.0920  0.8023 -0.4519
10013TIP3   OH251529   5.564   3.377  15.532 -0.3882  0.0710  0.3697
10013TIP3    H151530   5.547   3.304  15.472  1.8410  0.3101 -0.6569
10013TIP3    H251531   5.645   3.353  15.577 -0.1822  1.4311  0.7736
10014TIP3   OH251532   0.702   3.481   0.365 -0.3384 -0.0976 -0.2882
10014TIP3    H151533   0.744   3.511   0.446 -0.6619 -1.0995  0.2592
10014TIP3    H251534   0.617   3.525   0.365 -1.0713 -1.4536  0.8326
10015TIP3   OH251535   1.588   0.817  17.004  0.0198 -0.1430  0.2186
10015TIP3    H151536   1.670   0.769  17.013 -0.4182 -0.5021  3.5776
10015TIP3    H251537   1.614   0.909  17.001  0.6193 -0.3437 -0.9091
10016TIP3   OH251538   3.991   0.910  12.528  0.0694  0.3126  0.6343
10016TIP3    H151539   4.065   0.858  12.498 -0.0202  1.0126 -0.9369
10016TIP3    H251540   3.952   0.859  12.599  0.2784 -1.5299 -0.5140
10017TIP3   OH251541   1.692   1.191  14.828 -0.2865 -0.1276 -0.4011
10017TIP3    H151542   1.670   1.115  14.775  0.2140 -2.3351  2.2826
10017TIP3    H251543   1.610   1.240  14.836 -1.4513 -2.0778  0.2433
10018TIP3   OH251544   6.128   1.710  11.040 -0.2259  0.1356 -0.4862
10018TIP3    H151545   6.176   1.707  10.958 -1.3881 -1.8051 -1.1492
10018TIP3    H251546   6.036   1.700  11.015 -0.7922  1.2423  0.9410
10019TIP3   OH251547   4.157   6.086   5.496 -0.9353  0.4228  1.3075
10019TIP3    H151548   4.092   6.017   5.484 -0.0639 -0.0426 -1.7814
10019TIP3    H251549   4.217   6.076   5.421  0.9457  2.6904  2.3565
10020TIP3   OH251550   6.522   2.346  11.971 -0.1485  0.2306 -0.2443
10020TIP3    H151551   6.483   2.340  12.058 -0.9700  1.0535 -0.5445
10020TIP3    H251552   6.457   2.305  11.913  0.7126 -0.9765 -0.3897
10021TIP3   OH251553   5.177   1.194  13.060  0.7518  0.1882 -0.3341
10021TIP3    H151554   5.124   1.268  13.088  0.7381 -0.5929  1.9338
10021TIP3    H251555   5.232   1.174  13.136  0.8524 -2.0252 -0.9264
10022TIP3   OH251556   3.323   0.705  13.207  0.3783 -0.4637 -0.1378
10022TIP3    H151557   3.236   0.713  13.168  0.2862 -1.5471 -0.1637
10022TIP3    H251558   3.362   0.792  13.194 -0.5840 -0.0457 -0.3744
10023TIP3   OH251559   1.229   1.128   5.473  0.6193  0.2460  0.5362
10023TIP3    H151560   1.294   1.197   5.460 -0.3942  1.0070 -0.6569
10023TIP3    H251561   1.194   1.145   5.560 -1.0790  2.5751 -0.4991
10024TIP3   OH251562   4.198   1.163  14.187 -0.0938  0.4083 -0.3859
10024TIP3    H151563   4.182   1.095  14.122 -0.0450 -0.0478  0.0772
10024TIP3    H251564   4.110   1.190  14.215 -0.1536  1.3987 -1.4406
10025TIP3   OH251565   1.787   1.825  10.829  0.7637 -0.5004  0.1207
10025TIP3    H151566   1.724   1.797  10.762  0.1240  0.6930  0.2007
10025TIP3    H251567   1.868   1.839  10.781  0.9086 -1.7364 -0.0405
10026TIP3   OH251568   4.848   6.448   3.653  0.4998  0.6728 -0.3126
10026TIP3    H151569   4.828   6.514   3.587 -1.3546  0.9915  0.5027
10026TIP3    H251570   4.800   6.476   3.731  2.8002  0.4332  1.2891
10027TIP3   OH251571   3.576   6.102   4.028  0.0502  0.7058 -0.0908
10027TIP3    H151572   3.618   6.104   3.942  1.1475  1.6866  0.4279
10027TIP3    H251573   3.505   6.166   4.022  0.5269  1.2496 -0.0997
10028TIP3   OH251574   2.355   2.470  11.275 -0.4355 -0.3390  0.0186
10028TIP3    H151575   2.417   2.519  11.221 -1.5799  1.0485 -0.0883
10028TIP3    H251576   2.324   2.399  11.219  2.1341 -2.0181  0.5572
10029TIP3   OH251577   1.006   0.695   6.765 -0.0549 -0.3346  0.0184
10029TIP3    H151578   1.077   0.691   6.701 -0.2902 -0.0080 -0.2740
10029TIP3    H251579   0.964   0.780   6.748  1.5349  1.0152  2.4074
10030TIP3   OH251580   4.906   1.603  14.836  0.1140  0.5469 -0.3981
10030TIP3    H151581   4.846   1.627  14.765  0.1648  0.0505 -0.6099
10030TIP3    H251582   4.970   1.545  14.795 -1.1664 -1.6244  0.5366
10031TIP3   OH251583   0.679   6.424   0.024 -0.7934 -0.4230  0.2281
10031TIP3    H151584   0.759   6.477   0.021 -1.7393  0.9837 -1.0429
10031TIP3    H251585   0.623   6.469   0.087 -1.2861 -0.3775 -0.2438
10032TIP3   OH251586   6.259   6.107   0.960 -0.2380 -0.5541  0.1265
10032TIP3    H151587   6.259   6.090   0.866  2.0059 -2.0110  0.3071
10032TIP3    H251588   6.174   6.146   0.978 -0.7249 -0.2596 -2.4912
10033TIP3   OH251589   6.101   1.860  15.147 -0.1571  0.0437  0.1611
10033TIP3    H151590   6.008   1.838  15.140 -0.3444  0.8234  0.1337
10033TIP3    H251591   6.123   1.848  15.239 -0.8908  2.1464  0.6612
10034TIP3   OH251592   1.422   2.856   0.189 -0.0729 -0.3429  0.2209
10034TIP3    H151593   1.347   2.808   0.154  1.1297 -0.6341 -2.1300
10034TIP3    H251594   1.498   2.803   0.164  0.9643 -0.2612  2.8697
10035TIP3   OH251595   4.457   1.769   2.534  0.6748 -0.7992 -0.9568
10035TIP3    H151596   4.363   1.783   2.520  0.3356 -0.7345  1.0909
10035TIP3    H251597   4.485   1.717   2.458 -0.7014  0.3298 -2.3040
10036TIP3   OH251598   3.641   1.106  13.252 -0.2149 -0.5311  0.4728
10036TIP3    H151599   3.712   1.048  13.222  0.2494  0.0750  0.3892
10036TIP3    H251600   3.680   1.157  13.323 -0.6165 -0.3109  0.5349
10037TIP3   OH251601   0.023   3.858  11.128 -0.2953  0.0573  0.4561
10037TIP3    H151602   0.032   3.950  11.151 -0.7648 -0.3676  2.5743
10037TIP3    H251603   0.075   3.848  11.048  2.2070  1.5832  1.7455
10038TIP3   OH251604   2.977   0.956   6.240 -0.1287  0.1617 -0.2764
10038TIP3    H151605   2.911   1.024   6.250 -0.1679  0.0984 -0.1019
10038TIP3    H251606   3.060   1.002   6.244 -0.0499 -0.0643  2.3843
10039TIP3   OH251607   0.405   1.036  11.803  0.1979 -0.2264 -0.3453
10039TIP3    H151608   0.385   1.097  11.874 -1.2289  0.8500 -1.6245
10039TIP3    H251609   0.475   1.078  11.754  0.1547 -0.2695 -0.4441
10040TIP3   OH251610   1.620   2.147   5.547 -0.6460  0.3318  0.1813
10040TIP3    H151611   1.710   2.170   5.524  0.0685 -2.1395  0.1473
10040TIP3    H251612   1.610   2.178   5.637 -0.9822  3.5881 -0.8521
10041TIP3   OH251613   6.557   4.491  14.954 -0.3860  0.4752 -0.2944
10041TIP3    H151614   6.581   4.528  15.039 -1.9351  0.3734  0.2095
10041TIP3    H251615   6.467   4.460  14.965 -1.1700  1.8031 -2.4053
10042TIP3   OH251616   0.751   2.186   1.421 -0.0170  0.6787 -0.0614
10042TIP3    H151617   0.745   2.092   1.407 -0.6429  0.8083 -0.7129
10042TIP3    H251618   0.781   2.195   1.511 -0.3793 -0.1341  0.1470
10043TIP3   OH251619   4.082   3.598   1.083 -0.4567  0.2191  0.3419
10043TIP3    H151620   4.057   3.510   1.056 -2.3751  0.8987 -0.2582
10043TIP3    H251621   4.078   3.596   1.179 -0.6324 -0.2982  0.3233
10044TIP3   OH251622   0.581   5.095  15.600 -0.9128 -0.2232 -0.3990
10044TIP3    H151623   0.670   5.130  15.598 -0.1388 -1.9321  1.0274
10044TIP3    H251624   0.542   5.133  15.679 -0.1647 -2.1933  0.9967
10045TIP3   OH251625   2.205   1.377   3.257  0.1258  0.1117  1.1022
10045TIP3    H151626   2.293   1.343   3.240  0.6586  1.8006  0.1993
10045TIP3    H251627   2.207   1.466   3.222 -2.0912  0.0388  0.6491
10046TIP3   OH251628   6.363   2.020  11.548  0.0095 -0.0886  0.3981
10046TIP3    H151629   6.360   2.039  11.454 -1.2325  0.0304  0.4542
10046TIP3    H251630   6.281   2.055  11.583  1.0008  1.0067  1.7581
10047TIP3   OH251631   1.611   4.839   0.753 -0.3339 -0.3822 -0.1673
10047TIP3    H151632   1.619   4.850   0.848  0.6121 -0.5966 -0.2115
10047TIP3    H251633   1.633   4.748   0.737 -0.4722 -0.3443 -0.6047
10048TIP3   OH251634   2.128   0.213   2.005 -0.0247  0.6611  0.4943
10048TIP3    H151635   2.216   0.205   1.970 -0.9612  1.7136 -2.3837
10048TIP3    H251636   2.139   0.261   2.087  2.1067  0.1446  0.5592
10049TIP3   OH251637   6.337   0.039   6.237 -0.5784  0.3362 -0.0807
10049TIP3    H151638   6.432   0.044   6.227 -0.3476  0.9099  1.9591
10049TIP3    H251639   6.303   0.070   6.153  1.0127 -0.3304 -1.0233
10050TIP3   OH251640   5.896   4.966  13.477  0.2929  0.4275  0.1754
10050TIP3    H151641   5.810   4.984  13.439  0.1943  1.6426  0.9020
10050TIP3    H251642   5.898   5.020  13.556  1.0134 -0.9841  1.1543
10051TIP3   OH251643   1.183   6.493   1.981  0.2869 -0.7909 -0.5791
10051TIP3    H151644   1.218   6.410   2.011 -1.3111 -1.7608 -1.2630
10051TIP3    H251645   1.228   6.559   2.034  2.3956 -1.9862 -0.7864
10052TIP3   OH251646   0.076   2.897   1.762  0.0479  0.0194  0.1725
10052TIP3    H151647   0.081   2.975   1.817  0.9333  1.1826 -1.4686
10052TIP3    H251648  -0.007   2.906   1.715  0.0053 -0.1852  0.2073
10053TIP3   OH251649   5.932   4.460  12.864  0.3410  0.2604 -0.0997
10053TIP3    H151650   5.929   4.374  12.907 -0.2183 -0.1689 -0.9695
10053TIP3    H251651   5.998   4.450  12.796 -1.1032 -0.1314 -1.5004
10054TIP3   OH251652   1.811   5.681  14.223  0.0581  0.0583 -0.8591
10054TIP3    H151653   1.783   5.732  14.147 -0.9451  0.8308  0.0074
10054TIP3    H251654   1.736   5.625  14.244  0.1597  0.1676 -0.1685
10055TIP3   OH251655   1.732   2.175   0.707  0.2318  0.4702 -0.2199
10055TIP3    H151656   1.821   2.188   0.674  0.4701 -0.7730 -0.1129
10055TIP3    H251657   1.686   2.134   0.634  0.2239 -0.4632  0.2964
10056TIP3   OH251658   6.433   3.740   2.555 -0.4838 -0.4868  0.1576
10056TIP3    H151659   6.404   3.668   2.611 -1.7872  0.9843  1.4942
10056TIP3    H251660   6.375   3.737   2.480 -0.2324 -1.0894 -0.0190
10057TIP3   OH251661   3.603   0.600   3.691  0.1028  0.1878 -0.0205
10057TIP3    H151662   3.533   0.650   3.734 -1.0278 -0.6556 -0.8115
10057TIP3    H251663   3.668   0.586   3.760 -2.9919 -3.8246  2.5921
10058TIP3   OH251664   4.120   5.168  13.166 -0.5823 -0.0762 -0.3791
10058TIP3    H151665   4.208   5.201  13.185 -1.2987  0.6855  1.8819
10058TIP3    H251666   4.111   5.176  13.071  1.4312  0.6918 -0.5464
10059TIP3   OH251667   5.524   4.030   1.057  0.0982 -0.0043 -0.1252
10059TIP3    H151668   5.523   4.054   0.964 -0.8767  0.4950  0.0003
10059TIP3    H251669   5.596   4.080   1.094  1.5210 -1.3764 -0.8854
10060TIP3   OH251670   4.453   5.481  15.672 -0.2858 -0.3624  0.3253
10060TIP3    H151671   4.388   5.528  15.620  1.1942 -0.2397 -1.5023
10060TIP3    H251672   4.495   5.549  15.725 -0.1183 -0.0880 -0.1584
10061TIP3   OH251673   2.851   4.249   2.804  0.0235 -0.0512  0.0660
10061TIP3    H151674   2.813   4.168   2.838 -1.8197  1.2823  1.3635
10061TIP3    H251675   2.834   4.245   2.710 -0.9458 -0.7464  0.2478
10062TIP3   OH251676   2.218   5.280   5.432  0.1327 -0.2192  1.0350
10062TIP3    H151677   2.203   5.318   5.346  0.2932 -0.4707  0.8944
10062TIP3    H251678   2.248   5.191   5.414 -1.0591 -0.7081  1.3777
10063TIP3   OH251679   2.837   0.862   4.521 -0.5800 -0.1227 -0.4801
10063TIP3    H151680   2.848   0.945   4.568 -0.4111  0.2050 -1.0825
10063TIP3    H251681   2.770   0.815   4.571  0.2940 -0.2187  0.6520
10064TIP3   OH251682   4.639   5.416  17.233 -0.0620 -0.0955 -0.1418
10064TIP3    H151683   4.628   5.344  17.171  0.0452  1.2822 -1.8680
10064TIP3    H251684   4.564   5.474  17.215  1.0849  1.3434 -0.4560
10065TIP3   OH251685   3.156   2.277   4.228  0.3657 -0.4448 -0.2693
10065TIP3    H151686   3.087   2.277   4.295 -0.2708  0.8902 -0.8821
10065TIP3    H251687   3.144   2.360   4.182  1.8516 -0.5877 -0.9587
10066TIP3   OH251688   1.942   4.410  10.796 -0.2481  0.4596 -0.1679
10066TIP3    H151689   1.989   4.375  10.720 -2.4558  1.6581 -2.2086
10066TIP3    H251690   1.875   4.344  10.815  0.4118  0.0755  0.9171
10067TIP3   OH251691   2.236   4.582  15.111 -0.2721  0.4445  0.4856
10067TIP3    H151692   2.276   4.564  15.196 -1.3775 -1.8950  0.5797
10067TIP3    H251693   2.282   4.526  15.049  1.1789  2.8158 -0.7504
10068TIP3   OH251694   5.324   6.413   6.256 -0.7115  0.5119 -0.1203
10068TIP3    H151695   5.271   6.345   6.297  0.6819  0.7264  2.2107
10068TIP3    H251696   5.334   6.480   6.323  0.7298  1.4627 -1.2119
10069TIP3   OH251697   5.425   5.909  12.842 -0.3817 -0.7617  0.7205
10069TIP3    H151698   5.344   5.862  12.822 -1.0050  0.0884  1.1657
10069TIP3    H251699   5.399   6.001  12.847  0.8305 -0.3377 -0.2726
10070TIP3   OH251700   3.814   4.825   5.424  0.2663  0.2083  0.6678
10070TIP3    H151701   3.841   4.866   5.341  0.1353  2.1917  1.5582
10070TIP3    H251702   3.893   4.826   5.478 -0.2184  1.1396  1.3944
10071TIP3   OH251703   0.653   3.945  12.766  0.1497  0.0040  0.3771
10071TIP3    H151704   0.670   3.939  12.860  1.0349  1.9490  0.3874
10071TIP3    H251705   0.701   4.023  12.738  2.0339 -1.8882 -2.1836
10072TIP3   OH251706   5.146   0.112  13.122  0.3467  0.4694  0.4290
10072TIP3    H151707   5.109   0.058  13.192  0.0290 -0.4852 -0.4482
10072TIP3    H251708   5.074   0.167  13.093 -0.4358 -1.3367 -1.2294
10073TIP3   OH251709   1.022   4.590  16.349 -0.0954  0.1103  0.6522
10073TIP3    H151710   0.998   4.581  16.441 -0.4822  1.7524  0.7457
10073TIP3    H251711   1.046   4.683  16.339  1.0271 -0.2746 -0.6546
10074TIP3   OH251712   3.617   1.711  16.690 -0.2649  0.1629  0.0311
10074TIP3    H151713   3.625   1.735  16.597 -0.1267  1.6636  0.4101
10074TIP3    H251714   3.683   1.765  16.734  0.3010 -1.1963  0.9129
10075TIP3   OH251715   3.259   5.876  15.168  0.0832  0.3113 -0.0741
10075TIP3    H151716   3.306   5.940  15.115 -0.3302  0.6420 -0.0392
10075TIP3    H251717   3.173   5.915  15.183 -0.2092 -0.2937 -0.1412
10076TIP3   OH251718   3.674   4.134   1.623 -0.2092  0.0166  0.6159
10076TIP3    H151719   3.755   4.183   1.635 -2.2354  3.2974  2.0593
10076TIP3    H251720   3.635   4.170   1.543 -0.2965 -1.6034 -0.1296
10077TIP3   OH251721   3.094   1.970   1.881 -0.1428  0.2719  0.6529
10077TIP3    H151722   3.037   2.043   1.857  0.2773  0.4568  0.2170
10077TIP3    H251723   3.033   1.896   1.894 -0.7471  1.0722  2.7625
10078TIP3   OH251724   4.179   4.617   3.795  0.2254  0.0876 -0.0972
10078TIP3    H151725   4.131   4.545   3.754 -1.1036  0.6568  0.3992
10078TIP3    H251726   4.187   4.683   3.726 -0.0398  0.1434 -0.0743
10079TIP3   OH251727   5.531   0.928  11.995 -0.2375  0.1445 -0.3752
10079TIP3    H151728   5.468   0.962  11.932 -0.1126 -1.2413 -1.3124
10079TIP3    H251729   5.479   0.871  12.053 -0.0098 -0.3146 -0.6120
10080TIP3   OH251730   0.275   4.698   4.648  0.0891  0.0632  0.2989
10080TIP3    H151731   0.264   4.617   4.599 -1.2581  0.1452  0.4384
10080TIP3    H251732   0.233   4.765   4.594  0.5514  0.5469  0.5293
10081TIP3   OH251733   1.149   0.794   5.086  0.0320 -0.5120  0.4856
10081TIP3    H151734   1.091   0.721   5.068 -0.3113 -0.2016  0.3181
10081TIP3    H251735   1.141   0.809   5.180 -0.8726  0.1204  0.3173
10082TIP3   OH251736   2.486   2.056  11.378 -0.0251  0.4182  0.0433
10082TIP3    H151737   2.543   2.053  11.455 -0.7703 -0.2297  0.5896
10082TIP3    H251738   2.527   2.120  11.320  1.1264  0.1374  0.5188
10083TIP3   OH251739   5.698   1.890  15.586  0.0037 -0.0833  0.1221
10083TIP3    H151740   5.708   1.977  15.624  0.1520 -0.9639  2.2773
10083TIP3    H251741   5.634   1.901  15.516 -0.6664  1.5882  0.9479
10084TIP3   OH251742   3.569   3.400  13.837  0.1361 -0.4839  0.1068
10084TIP3    H151743   3.529   3.354  13.763 -1.3271 -1.7673  1.6070
10084TIP3    H251744   3.660   3.371  13.836 -0.4445 -2.4800  0.2238
10085TIP3   OH251745   5.440   0.512   3.413  0.0310 -0.1917 -0.1934
10085TIP3    H151746   5.497   0.552   3.478 -0.2209  1.6777 -1.0474
10085TIP3    H251747   5.497   0.493   3.339 -0.1703  0.1971 -0.4485
10086TIP3   OH251748   0.460   4.370  14.356 -0.3620 -0.0640 -0.4925
10086TIP3    H151749   0.432   4.434  14.421  0.2540  1.9177 -2.0552
10086TIP3    H251750   0.430   4.286  14.390 -1.0495  1.0099  1.7503
10087TIP3   OH251751   1.245   5.588  13.091  0.3066  0.6105  0.5995
10087TIP3    H151752   1.320   5.546  13.049  0.3366  2.3036 -1.2394
10087TIP3    H251753   1.168   5.549  13.048  0.3460  2.6622 -1.5593
10088TIP3   OH251754   5.692   4.357   3.407 -0.5721  0.2415  0.1788
10088TIP3    H151755   5.695   4.328   3.315  0.1315  0.8928 -0.0121
10088TIP3    H251756   5.724   4.447   3.405  2.1532 -0.5951  1.3772
10089TIP3   OH251757   4.983   5.040  11.992  0.0815  0.1246  0.7371
10089TIP3    H151758   5.036   5.107  12.035  1.7756  0.2997 -1.4578
10089TIP3    H251759   5.006   4.959  12.037 -0.3681  0.6687  2.0009
10090TIP3   OH251760   0.280   3.307  12.324  0.4649 -0.3245  0.6174
10090TIP3    H151761   0.203   3.365  12.327 -0.6146 -1.6792 -0.0229
10090TIP3    H251762   0.261   3.239  12.389  1.2739 -0.5214  0.6613
10091TIP3   OH251763   3.317   3.915   2.227  0.0990 -0.2771 -0.5500
10091TIP3    H151764   3.404   3.936   2.261  0.4839 -1.5851 -0.6836
10091TIP3    H251765   3.302   3.824   2.253 -2.4408  0.7183  1.9775
10092TIP3   OH251766   2.921   3.295  16.040  0.2812  0.3408  0.0761
10092TIP3    H151767   2.886   3.232  15.977  0.1309  0.1166  0.3866
10092TIP3    H251768   2.947   3.370  15.986 -0.0129  0.2205 -0.2342
10093TIP3   OH251769   6.019   5.971   5.187  0.8039  0.1528 -0.5140
10093TIP3    H151770   5.955   6.034   5.221  0.6597  0.1831 -0.8383
10093TIP3    H251771   5.971   5.923   5.119  0.9927 -0.1281 -0.4495
10094TIP3   OH251772   2.055   2.915   3.952 -0.0693 -0.5303 -0.0420
10094TIP3    H151773   2.048   2.834   4.004  0.8995 -0.5506  0.0676
10094TIP3    H251774   2.050   2.884   3.861  2.2473 -0.9717 -0.0755
10095TIP3   OH251775   3.928   2.907   4.413 -0.1893  0.4335  0.0908
10095TIP3    H151776   3.998   2.972   4.409 -0.9429  1.3953  1.8387
10095TIP3    H251777   3.899   2.898   4.322  1.4145  0.8746 -0.4893
10096TIP3   OH251778   1.039   3.034  13.965  0.3158 -0.3344 -0.1848
10096TIP3    H151779   1.102   3.100  13.937 -1.1593  0.5318 -1.6701
10096TIP3    H251780   0.988   3.077  14.034  0.0575 -0.2936 -0.3982
10097TIP3   OH251781   2.533   2.739   4.824 -0.5989 -0.7460 -0.1354
10097TIP3    H151782   2.626   2.755   4.810 -0.5303 -1.5938 -0.6696
10097TIP3    H251783   2.516   2.653   4.785 -1.1967 -1.5006  1.6887
10098TIP3   OH251784   3.762   5.719   0.159 -0.1031 -0.5300 -0.1013
10098TIP3    H151785   3.841   5.749   0.204 -1.2665  1.4021  0.7449
10098TIP3    H251786   3.770   5.755   0.071 -0.7721  1.0498  0.4616
10099TIP3   OH251787   4.048   6.214  16.816 -0.5271  0.3113  0.6215
10099TIP3    H151788   4.079   6.232  16.727 -1.9304  5.3345  0.8346
10099TIP3    H251789   3.954   6.195  16.806 -0.2942 -1.1802  0.9740
10100TIP3   OH251790   1.891   1.502  13.659 -0.6169  0.1628 -0.2796
10100TIP3    H151791   1.814   1.468  13.705 -0.4636  0.2283  0.0301
10100TIP3    H251792   1.955   1.518  13.728 -0.4047  0.3264 -0.5112
10101TIP3   OH251793   5.467   5.422   0.168  0.4591 -0.3842 -0.5866
10101TIP3    H151794   5.519   5.503   0.176 -0.5393  0.2350 -0.1808
10101TIP3    H251795   5.449   5.414   0.075  0.3397  0.0068 -0.5984
10102TIP3   OH251796   4.880   5.725  12.011  0.0809 -0.2957  0.2204
10102TIP3    H151797   4.810   5.725  11.946 -0.2337  0.7192  0.5403
10102TIP3    H251798   4.892   5.633  12.033 -0.4975 -0.5633 -0.5405
10103TIP3   OH251799   0.653   4.508   3.568 -0.0367  0.0735 -0.4981
10103TIP3    H151800   0.631   4.432   3.622 -0.3451  0.6043  0.1435
10103TIP3    H251801   0.741   4.490   3.535 -0.1358 -0.5886 -0.4122
10104TIP3   OH251802   5.171   4.735  13.336 -0.0226 -0.1363 -0.6709
10104TIP3    H151803   5.158   4.760  13.244  1.0826 -0.3161 -0.8878
10104TIP3    H251804   5.254   4.687  13.336 -0.8826 -1.6709  0.1398
10105TIP3   OH251805   4.670   4.522  14.668 -0.1081  0.3606  0.3731
10105TIP3    H151806   4.716   4.477  14.597  0.3309 -1.1511  1.5692
10105TIP3    H251807   4.578   4.497  14.655  0.0220 -0.2344  0.5401
10106TIP3   OH251808   1.274   5.343   5.882  0.1796 -0.2554  0.4596
10106TIP3    H151809   1.187   5.363   5.915 -0.0893 -2.4333  1.1659
10106TIP3    H251810   1.266   5.351   5.787 -0.3868  0.9682  0.5935
10107TIP3   OH251811   3.011   0.503   5.730  0.5713  0.2028 -0.2997
10107TIP3    H151812   3.105   0.492   5.743  0.8409  0.6254 -1.6976
10107TIP3    H251813   2.971   0.456   5.803  1.8329 -1.6865 -0.7427
10108TIP3   OH251814   3.551   1.818  11.697  0.5466 -0.5146 -0.3280
10108TIP3    H151815   3.489   1.879  11.658  0.7068 -0.9066 -1.2186
10108TIP3    H251816   3.629   1.872  11.715 -0.0384 -0.0165  0.8225
10109TIP3   OH251817   0.957   5.287  15.249 -0.3706 -0.0446  0.1794
10109TIP3    H151818   0.967   5.319  15.338  0.6315  0.7460 -0.2011
10109TIP3    H251819   1.043   5.253  15.225 -0.5928 -0.1272 -0.5315
10110TIP3   OH251820   5.519   1.545   0.940 -0.2341  0.2453  0.3940
10110TIP3    H151821   5.425   1.545   0.956 -0.4735 -0.7769 -0.7804
10110TIP3    H251822   5.546   1.455   0.958  0.0632 -0.0849 -1.4416
10111TIP3   OH251823   3.693   4.696   4.075 -0.2799 -0.0376 -0.5025
10111TIP3    H151824   3.684   4.757   4.002 -0.7790 -2.1331 -2.2684
10111TIP3    H251825   3.782   4.662   4.068 -0.4316 -0.4790 -0.3067
10112TIP3   OH251826   3.869   0.297   1.592 -0.2291 -0.2345  0.3719
10112TIP3    H151827   3.937   0.257   1.537  1.1122 -0.5149  2.1467
10112TIP3    H251828   3.915   0.364   1.642 -0.8519 -1.4379  2.7301
10113TIP3   OH251829   4.751   1.823  16.077  0.5363  0.1563 -0.5430
10113TIP3    H151830   4.791   1.742  16.046  0.5563 -0.0403 -0.0103
10113TIP3    H251831   4.803   1.892  16.036  1.4195 -0.1000  0.1166
10114TIP3   OH251832   3.950   6.699  15.478  0.0088 -0.4107  0.1938
10114TIP3    H151833   4.036   6.659  15.463  0.8076  1.4160 -0.4814
10114TIP3    H251834   3.926   6.672  15.566  2.4687  0.9929  1.4028
10115TIP3   OH251835   2.197   5.523   1.417 -0.2729  0.4519  0.1427
10115TIP3    H151836   2.173   5.581   1.345  1.2364  0.0088 -0.7520
10115TIP3    H251837   2.288   5.498   1.400  0.0531  0.1205  2.0643
10116TIP3   OH251838   1.122   3.940   5.727  1.0158  0.4015  0.3511
10116TIP3    H151839   1.203   3.898   5.756  1.2149 -0.9016 -1.8525
10116TIP3    H251840   1.055   3.873   5.740  0.4383  1.1299  1.2436
10117TIP3   OH251841   1.052   0.704  12.583  1.0421  0.2283 -0.0759
10117TIP3    H151842   0.981   0.757  12.621  0.0942 -0.5092 -0.7659
10117TIP3    H251843   1.026   0.614  12.600  1.6026 -0.0619 -0.7202
10118TIP3   OH251844   3.131   2.816   4.773  0.4105 -0.2638 -0.0928
10118TIP3    H151845   3.135   2.728   4.736  1.1819 -0.2635 -0.0265
10118TIP3    H251846   3.039   2.828   4.795  0.0515 -0.4983 -1.4227
10119TIP3   OH251847   0.817   4.219   4.312 -0.0426  0.0186 -0.0794
10119TIP3    H151848   0.893   4.183   4.266  0.3966  0.1891  0.5004
10119TIP3    H251849   0.784   4.146   4.365  0.6036  0.3463  0.7867
10120TIP3   OH251850   0.968   3.634  13.151  0.1358 -0.5253  0.4038
10120TIP3    H151851   0.892   3.612  13.206 -1.3414 -1.8159 -2.0009
10120TIP3    H251852   1.026   3.683  13.210 -2.5817  0.6345  2.3473
10121TIP3   OH251853   5.020   2.052   4.230 -0.0156  0.1346  0.4907
10121TIP3    H151854   5.106   2.065   4.271  0.4582 -1.1740 -0.0294
10121TIP3    H251855   4.964   2.117   4.272  0.7092 -0.4038  2.4298
10122TIP3   OH251856   5.474   2.684  12.070  0.3207  0.1101  0.3965
10122TIP3    H151857   5.403   2.625  12.096 -0.2005  0.3188 -0.5098
10122TIP3    H251858   5.441   2.772  12.089  1.3730  0.1166  2.4077
10123TIP3   OH251859   0.249   5.982  11.509  0.3910 -0.0716  0.8300
10123TIP3    H151860   0.298   5.938  11.439  2.5044  0.2952  1.9990
10123TIP3    H251861   0.238   5.916  11.577 -0.9726 -0.2025  0.5101
10124TIP3   OH251862   5.576   4.936  14.880  0.1659  0.2216  0.4493
10124TIP3    H151863   5.569   4.940  14.785  0.5826  0.6935  0.4359
10124TIP3    H251864   5.670   4.939  14.897  0.0590  2.0655  0.9491
10125TIP3   OH251865   4.516   0.989   1.932  0.1733  0.0685 -0.0798
10125TIP3    H151866   4.598   0.962   1.973  0.9634  1.9092 -0.3579
10125TIP3    H251867   4.542   1.053   1.865 -1.5362  1.5574  0.5903
10126TIP3   OH251868   1.889   4.866  13.004 -0.2509  0.3020  0.2253
10126TIP3    H151869   1.836   4.841  13.080  0.7395 -0.5116  0.6797
10126TIP3    H251870   1.835   4.928  12.956 -0.6582  1.3312  1.9341
10127TIP3   OH251871   6.417   1.411   1.086 -0.8634  0.2335  0.1666
10127TIP3    H151872   6.389   1.324   1.058 -3.0677  0.4578  1.4597
10127TIP3    H251873   6.362   1.472   1.037 -0.1220  0.8757  0.1078
10128TIP3   OH251874   6.471   3.108   0.310  0.8110  0.1977  0.4791
10128TIP3    H151875   6.457   3.200   0.288 -2.7344 -0.7558 -2.0408
10128TIP3    H251876   6.470   3.062   0.226  2.0913 -2.2558  1.6867
10129TIP3   OH251877   3.407   3.145  13.215 -0.2486 -0.6014 -0.5482
10129TIP3    H151878   3.457   3.105  13.144  0.4923  0.6235 -0.7423
10129TIP3    H251879   3.369   3.224  13.176 -1.8284 -1.1697 -0.2266
10130TIP3   OH251880   0.884   4.760  17.051  0.1882  0.5910 -0.1566
10130TIP3    H151881   0.811   4.704  17.077  0.0597  1.2975  1.0670
10130TIP3    H251882   0.867   4.779  16.959 -0.6406 -0.0516 -0.1541
10131TIP3   OH251883   5.949   0.868   5.362  0.3803  0.2072 -0.0014
10131TIP3    H151884   5.871   0.920   5.381  1.2194  1.4577  0.1536
10131TIP3    H251885   6.021   0.932   5.360  1.1243 -0.6218 -2.0896
10132TIP3   OH251886   3.736   2.305   6.143  0.1089  0.5093  0.5638
10132TIP3    H151887   3.684   2.250   6.202  1.4192 -0.6840  0.6287
10132TIP3    H251888   3.677   2.323   6.069 -0.9893  0.6639  1.4460
10133TIP3   OH251889   5.404   4.130   3.984  0.4700 -0.0364 -0.6816
10133TIP3    H151890   5.430   4.220   4.001 -0.9036  0.0980  1.0230
10133TIP3    H251891   5.339   4.137   3.913 -0.5547  0.4976  0.2752
10134TIP3   OH251892   5.000   4.040   4.246  0.3559  0.4053 -0.2854
10134TIP3    H151893   5.006   4.133   4.225  1.9191  0.3499 -0.2261
10134TIP3    H251894   5.083   4.003   4.217 -0.0196 -0.8787  0.1835
10135TIP3   OH251895   1.207   3.259  17.106  0.0626  0.5567 -0.0350
10135TIP3    H151896   1.262   3.305  17.168  0.3860 -1.0735  0.9559
10135TIP3    H251897   1.118   3.289  17.125  0.2515  0.6834  0.6666
10136TIP3   OH251898   5.482   6.069   3.222  0.5473  0.1139  0.4852
10136TIP3    H151899   5.507   6.057   3.314  0.0099  1.1308  0.7772
10136TIP3    H251900   5.393   6.032   3.217  0.0983  1.1415  0.6710
10137TIP3   OH251901   2.324   1.220  15.587  0.5787  0.0619 -0.6201
10137TIP3    H151902   2.281   1.257  15.665 -1.1767 -1.7119 -0.6721
10137TIP3    H251903   2.369   1.295  15.547 -2.1839  2.0184 -0.3470
10138TIP3   OH251904   1.862   3.910  13.754 -0.2591  0.7150 -0.2430
10138TIP3    H151905   1.844   3.981  13.816 -1.2254  0.0104  0.3294
10138TIP3    H251906   1.858   3.831  13.808 -1.4720  0.0551 -1.2391
10139TIP3   OH251907   2.287   2.422  16.646  0.0327 -0.2868  1.2713
10139TIP3    H151908   2.313   2.468  16.566 -1.4760 -1.4062  0.0748
10139TIP3    H251909   2.304   2.485  16.716  3.3044  0.0252  0.3694
10140TIP3   OH251910   2.335   2.682   3.744 -0.3575  0.7625 -0.3348
10140TIP3    H151911   2.240   2.687   3.732 -0.4720  0.7418  0.5049
10140TIP3    H251912   2.349   2.705   3.835  0.2037 -1.8423  0.3031
10141TIP3   OH251913   3.503   4.650  12.182  0.2048 -0.3090  0.0441
10141TIP3    H151914   3.518   4.715  12.113 -2.2170  1.1860  0.7971
10141TIP3    H251915   3.415   4.618  12.166  1.0752 -2.9544  0.1424
10142TIP3   OH251916   5.548   4.564  13.433 -0.1785  0.8844 -0.2326
10142TIP3    H151917   5.557   4.469  13.428  0.3266  0.8788  0.6069
10142TIP3    H251918   5.472   4.584  13.379 -0.0467  0.0467 -0.7485
10143TIP3   OH251919   0.738   6.353  16.759  0.4326  0.6472  0.4091
10143TIP3    H151920   0.741   6.427  16.820 -0.2480 -0.1664  1.4525
10143TIP3    H251921   0.647   6.324  16.760  0.7424 -0.3853  0.2277
10144TIP3   OH251922   5.961   4.276   6.295  0.3327 -0.1839 -0.1593
10144TIP3    H151923   6.011   4.331   6.235 -1.1698  0.0077 -1.3086
10144TIP3    H251924   6.006   4.191   6.294 -0.1522 -0.4759 -2.3365
10145TIP3   OH251925   6.304   4.041  15.551  0.3299  0.0099 -0.0286
10145TIP3    H151926   6.305   4.105  15.622  0.2652 -1.0055  0.9134
10145TIP3    H251927   6.393   4.005  15.551 -0.0335 -0.9256  0.4266
10146TIP3   OH251928   0.682   3.689  12.352 -0.7618  0.8439 -0.0764
10146TIP3    H151929   0.759   3.745  12.346 -1.1219  1.1926 -2.1806
10146TIP3    H251930   0.705   3.612  12.300 -0.9165 -0.2497  1.3954
10147TIP3   OH251931   4.107   3.043   3.647 -0.1665 -0.2109 -0.2123
10147TIP3    H151932   4.094   2.955   3.682  0.5661 -0.3705 -0.3192
10147TIP3    H251933   4.198   3.043   3.618 -0.1176  0.6347 -0.0693
10148TIP3   OH251934   5.995   2.324  16.277 -0.1531  0.0498 -0.0003
10148TIP3    H151935   6.056   2.395  16.255  0.6722 -0.8696 -0.7797
10148TIP3    H251936   5.910   2.367  16.283  0.6082  1.4713  1.6099
10149TIP3   OH251937   4.305   6.386   4.570  0.0666 -0.3982 -0.3740
10149TIP3    H151938   4.315   6.481   4.562  3.0453 -0.6830 -1.3993
10149TIP3    H251939   4.224   6.366   4.523 -0.8968  1.6688  0.3220
10150TIP3   OH251940   4.848   2.004  16.318 -0.6870 -0.0326  0.1885
10150TIP3    H151941   4.772   2.063  16.324 -0.3472  0.3075  1.4775
10150TIP3    H251942   4.923   2.060  16.338  0.0105 -0.1956 -1.8203
10151TIP3   OH251943   2.799   1.207   0.011  0.0816 -0.9323  0.2471
10151TIP3    H151944   2.836   1.285   0.052 -1.8423  0.0037  0.2720
10151TIP3    H251945   2.831   1.211  -0.080 -1.4743  0.9641 -0.2916
10152TIP3   OH251946   3.825   4.237   2.142 -0.0974  0.0105  0.3334
10152TIP3    H151947   3.834   4.237   2.238  1.4710 -2.5774  0.2767
10152TIP3    H251948   3.751   4.178   2.126 -0.9207  1.1185 -0.0732
10153TIP3   OH251949   1.013   1.685  14.338  0.2298 -0.2089 -0.6382
10153TIP3    H151950   0.938   1.737  14.368  0.9589  1.0988 -0.9806
10153TIP3    H251951   1.018   1.701  14.244  1.2078  0.1085 -0.5485
10154TIP3   OH251952   2.966   1.945  17.327 -0.1415 -0.1389 -0.1419
10154TIP3    H151953   3.057   1.974  17.331 -0.7830  2.2905 -0.8749
10154TIP3    H251954   2.950   1.905  17.412  0.7568  2.4174  1.3697
10155TIP3   OH251955   3.788   3.309  14.543  0.0081  0.3089 -0.3308
10155TIP3    H151956   3.779   3.401  14.567  1.7903 -0.1488  2.4792
10155TIP3    H251957   3.876   3.302  14.506  0.1102 -0.3732  0.0260
10156TIP3   OH251958   2.691   1.213  15.496  0.3093  0.3724  0.1892
10156TIP3    H151959   2.770   1.260  15.521  0.4257  0.0386  0.4593
10156TIP3    H251960   2.652   1.184  15.579 -1.6741  2.9745  0.3133
10157TIP3   OH251961   6.726   6.358  13.534  0.3756  0.3400  0.9106
10157TIP3    H151962   6.685   6.407  13.463  2.4637  2.6074  1.1090
10157TIP3    H251963   6.769   6.284  13.490  0.6546  1.0412 -0.0287
10158TIP3   OH251964   1.098   4.721  13.773 -0.3929  0.2614 -0.1760
10158TIP3    H151965   1.080   4.704  13.865 -2.5470 -1.4740 -0.8467
10158TIP3    H251966   1.087   4.816  13.764 -0.1836  0.4544  1.3249
10159TIP3   OH251967   5.449   4.707   2.473 -0.1060 -0.5932 -0.3563
10159TIP3    H151968   5.479   4.731   2.560 -0.0127 -3.1677  0.3995
10159TIP3    H251969   5.366   4.660   2.488  0.0075 -1.2511 -1.6161
10160TIP3   OH251970   6.424   3.570  11.643  0.1249 -0.1506 -0.3959
10160TIP3    H151971   6.462   3.625  11.575 -0.7644  1.7128  0.5177
10160TIP3    H251972   6.329   3.577  11.630 -0.0215 -1.5502 -0.2739
10161TIP3   OH251973   2.706   1.125   5.105 -0.8076 -0.0682 -0.2740
10161TIP3    H151974   2.683   1.195   5.044 -1.6787 -0.2821 -0.2076
10161TIP3    H251975   2.718   1.048   5.048 -2.3089 -0.4353 -0.1522
10162TIP3   OH251976   6.628   3.517   3.454  0.8057 -0.3216 -0.0441
10162TIP3    H151977   6.665   3.569   3.383  0.5470  0.2361  0.2170
10162TIP3    H251978   6.697   3.455   3.478  0.8323 -0.6290 -0.8868
10163TIP3   OH251979   1.858   4.304  17.346  0.1802  0.2368 -0.3225
10163TIP3    H151980   1.858   4.366  17.419  0.2347 -1.6698  1.3497
10163TIP3    H251981   1.768   4.307  17.313 -1.0673 -1.8465  2.5204
10164TIP3   OH251982   1.311   3.644   0.797  0.4229  0.4286 -0.1458
10164TIP3    H151983   1.314   3.662   0.891  2.1284  3.6720 -0.6802
10164TIP3    H251984   1.376   3.575   0.784 -1.5213 -1.8324  1.2273
10165TIP3   OH251985   4.079   4.354  12.230  0.0334  0.0694 -0.0887
10165TIP3    H151986   4.109   4.263  12.222 -1.1557 -0.4441  0.9686
10165TIP3    H251987   3.988   4.352  12.200  0.4434  1.2382 -1.5128
10166TIP3   OH251988   4.575   4.098   4.936  0.0892  0.2566 -0.2926
10166TIP3    H151989   4.618   4.177   4.968 -1.2836  0.1938  1.9101
10166TIP3    H251990   4.496   4.129   4.891 -0.6242  0.1683  0.8607
10167TIP3   OH251991   0.805   0.289   2.878 -0.2017  0.2824  0.1646
10167TIP3    H151992   0.796   0.322   2.789 -0.8594 -0.1819  0.0532
10167TIP3    H251993   0.881   0.231   2.874 -1.3156 -1.2028 -0.5598
10168TIP3   OH251994   0.045   5.158  12.047  0.6371  0.0376  0.2889
10168TIP3    H151995   0.103   5.209  11.991  0.3666  0.8399  0.7322
10168TIP3    H251996   0.019   5.083  11.993  1.6508 -0.0477 -0.0978
10169TIP3   OH251997   1.115   4.346   6.141  0.1161  0.0033 -0.1224
10169TIP3    H151998   1.118   4.377   6.231 -1.7671 -1.4480  0.5146
10169TIP3    H251999   1.072   4.416   6.092 -2.2564 -0.6459  0.8939
10170TIP3   OH252000   1.813   4.158   3.257 -0.3004  0.1574  0.2493
10170TIP3    H152001   1.834   4.103   3.333 -3.0782  2.1303  2.7026
10170TIP3    H252002   1.852   4.243   3.278  1.0801  0.1140 -1.8727
10171TIP3   OH252003   1.260   5.681   1.638  0.1352  0.0597 -0.2623
10171TIP3    H152004   1.237   5.762   1.592  0.0635 -0.3818 -1.0373
10171TIP3    H252005   1.176   5.640   1.659  0.1633  0.3981  0.5320
10172TIP3   OH252006   3.496   5.010  14.690 -0.5305  0.2608  0.2885
10172TIP3    H152007   3.431   5.075  14.665  1.1141  1.9032  0.0911
10172TIP3    H252008   3.579   5.058  14.693  0.4000 -1.3144  2.4610
10173TIP3   OH252009   3.540   3.960   4.463  0.2515 -0.0268 -0.0700
10173TIP3    H152010   3.591   4.039   4.445  0.3246 -0.1666 -0.4704
10173TIP3    H252011   3.461   3.992   4.506  0.5329  0.2174  0.2675
10174TIP3   OH252012   1.392   1.384   2.979 -0.1416 -0.3167 -0.0374
10174TIP3    H152013   1.437   1.305   2.950 -0.5306  0.1936 -2.1923
10174TIP3    H252014   1.445   1.456   2.945 -1.3524  0.3062 -0.6837
10175TIP3   OH252015   6.251   0.573   0.690 -0.0269 -0.2783 -0.1298
10175TIP3    H152016   6.204   0.568   0.607 -1.2005  2.3323  0.3006
10175TIP3    H252017   6.188   0.543   0.755 -0.4253  1.2070  0.2023
10176TIP3   OH252018   5.646   1.351   1.662  0.0850 -0.1026  0.3085
10176TIP3    H152019   5.588   1.363   1.587  0.0645 -2.1828 -0.0432
10176TIP3    H252020   5.589   1.316   1.731  0.4489  0.1722  0.7546
10177TIP3   OH252021   2.456   1.082   5.920  0.1460 -0.1945 -0.5030
10177TIP3    H152022   2.508   1.031   5.858  1.6936  0.3789  0.2443
10177TIP3    H252023   2.456   1.171   5.885  0.4870 -0.0004 -0.0323
10178TIP3   OH252024   3.677   4.324   0.728 -0.3766  0.5499  0.4960
10178TIP3    H152025   3.656   4.416   0.745  2.2024  1.5483 -1.0870
10178TIP3    H252026   3.643   4.308   0.640  1.8863  1.0428 -0.5378
10179TIP3   OH252027   0.345   4.689  14.117 -0.1817 -1.1554  0.1359
10179TIP3    H152028   0.312   4.757  14.057 -0.3357 -1.5022 -0.1818
10179TIP3    H252029   0.418   4.650  14.070  1.0084 -0.0838  1.0359
10180TIP3   OH252030   2.791   0.039   5.478  0.4632  0.1216 -0.5345
10180TIP3    H152031   2.825   0.127   5.494 -0.3712  0.3196  0.2406
10180TIP3    H252032   2.799  -0.005   5.563 -2.8118  0.7477  0.2401
10181TIP3   OH252033   1.214   2.191  11.897 -0.2969 -0.1224  0.2846
10181TIP3    H152034   1.261   2.137  11.961 -1.8841  0.1874  1.7846
10181TIP3    H252035   1.199   2.274  11.942 -0.7565  0.3933 -0.7916
10182TIP3   OH252036   5.515   2.200   4.882  0.6036  0.1772 -0.1401
10182TIP3    H152037   5.451   2.268   4.907 -0.8788 -0.2208 -2.5277
10182TIP3    H252038   5.585   2.209   4.946 -1.6658  0.8725  2.4836
10183TIP3   OH252039   6.432   3.796  15.327  0.1227 -0.2220  0.1261
10183TIP3    H152040   6.404   3.875  15.280 -1.1459 -0.6027  0.2046
10183TIP3    H252041   6.480   3.829  15.403 -1.7526  0.5750  1.0346
10184TIP3   OH252042   2.679   1.137  16.048  0.0465 -0.0052 -0.8217
10184TIP3    H152043   2.601   1.109  16.001 -0.4048  0.2218 -0.2244
10184TIP3    H252044   2.727   1.191  15.985 -0.5125  0.2391 -1.0451
10185TIP3   OH252045   3.124   5.232  11.603 -0.5916 -0.1502  0.4743
10185TIP3    H152046   3.200   5.277  11.639 -0.4361 -0.7954  0.9823
10185TIP3    H252047   3.073   5.300  11.560  1.2788  0.0245 -1.6739
10186TIP3   OH252048   4.579   6.771  13.617 -0.1475 -0.0826  0.4830
10186TIP3    H152049   4.670   6.746  13.631 -0.1134 -1.1474 -1.3392
10186TIP3    H252050   4.561   6.835  13.685  1.8085 -0.2231  1.1895
10187TIP3   OH252051   1.932   0.077   4.376  0.4772 -0.0112  0.5948
10187TIP3    H152052   1.855   0.039   4.418 -0.9097 -0.2679 -1.9906
10187TIP3    H252053   1.926   0.171   4.395  0.0113 -0.1398  1.1103
10188TIP3   OH252054   4.918   4.322   1.871 -0.5884  0.1635  1.0745
10188TIP3    H152055   4.939   4.275   1.791 -0.5881  0.0006  1.1702
10188TIP3    H252056   4.822   4.325   1.872 -0.5810  0.6444  0.7910
10189TIP3   OH252057   1.463   0.561   1.275 -0.1274  0.1119 -0.3095
10189TIP3    H152058   1.514   0.496   1.324  0.4845  0.5542 -0.3545
10189TIP3    H252059   1.399   0.509   1.227 -1.2745 -0.2820  1.5662
10190TIP3   OH252060   2.603   0.568   0.632  0.1376 -0.3865 -0.1536
10190TIP3    H152061   2.578   0.487   0.589 -0.4934 -1.2014  1.6738
10190TIP3    H252062   2.686   0.593   0.590 -0.2589 -1.3061 -1.5525
10191TIP3   OH252063   0.703   5.410  13.119 -0.1048 -0.3650 -0.0552
10191TIP3    H152064   0.653   5.481  13.160 -1.1617  0.9958 -3.3163
10191TIP3    H252065   0.794   5.439  13.123 -0.4365  0.8226 -0.6095
10192TIP3   OH252066   0.818   4.946  11.846  0.5856 -0.0666  0.4655
10192TIP3    H152067   0.913   4.936  11.837  1.0019  2.4994  1.4242
10192TIP3    H252068   0.789   4.975  11.760  1.1294  1.8749  0.8974
10193TIP3   OH252069   4.463   2.218  14.927 -0.2022  0.4605  0.1761
10193TIP3    H152070   4.549   2.199  14.964  0.1480  0.4055 -0.6422
10193TIP3    H252071   4.482   2.261  14.843 -0.9707  0.5265  0.0264
10194TIP3   OH252072   5.462   2.409  16.355 -0.1544 -1.2026 -0.1046
10194TIP3    H152073   5.413   2.363  16.286 -1.2590 -1.5921  0.9158
10194TIP3    H252074   5.416   2.492  16.365 -0.4649 -1.4647  0.6831
10195TIP3   OH252075   1.090   3.024  14.354  0.1349 -0.9228  0.0210
10195TIP3    H152076   1.107   2.947  14.299  1.1362 -2.1180  1.9008
10195TIP3    H252077   1.172   3.039  14.401 -0.1615  1.0978 -0.0259
10196TIP3   OH252078   3.908   3.771  11.978 -0.0871 -0.0778 -0.7001
10196TIP3    H152079   3.839   3.744  12.039 -2.3039 -0.8776 -3.3278
10196TIP3    H252080   3.903   3.866  11.977  0.0548 -0.0449  0.3795
10197TIP3   OH252081   1.223   4.891  16.781  1.0801  0.6440 -0.6659
10197TIP3    H152082   1.279   4.870  16.706 -0.2099  2.2671 -2.1935
10197TIP3    H252083   1.176   4.970  16.753  0.4524  1.2205  1.8417
10198TIP3   OH252084   6.491   4.624   4.990  0.7498 -0.3307 -0.4537
10198TIP3    H152085   6.540   4.575   4.925 -1.0400 -1.4271 -1.0648
10198TIP3    H252086   6.422   4.669   4.941 -0.2680 -0.6936  0.5697
10199TIP3   OH252087   4.149   5.340   1.040 -0.1835  0.2110  0.4336
10199TIP3    H152088   4.099   5.383   0.970 -0.1953  0.5166  0.6243
10199TIP3    H252089   4.207   5.279   0.994  0.6626  1.2655  0.0567
10200TIP3   OH252090   0.609   2.848  15.399 -0.6056  0.0395  0.0812
10200TIP3    H152091   0.602   2.901  15.478 -0.6048 -0.7600  0.6387
10200TIP3    H252092   0.541   2.881  15.341 -1.5848 -0.3025  0.9947
10201TIP3   OH252093   0.488   2.134   2.804 -0.3187 -0.2762  0.1401
10201TIP3    H152094   0.527   2.115   2.889 -2.5950 -1.3927  1.0206
10201TIP3    H252095   0.445   2.219   2.816 -0.6783 -0.4546  0.1265
10202TIP3   OH252096   5.977   1.599  15.729  0.0482  0.6674  0.5834
10202TIP3    H152097   5.916   1.604  15.656  1.0361 -0.8049 -0.3764
10202TIP3    H252098   6.036   1.673  15.716  0.3333  0.3092 -0.2394
10203TIP3   OH252099   0.057   5.977   4.674 -0.5600  0.2899  0.4143
10203TIP3    H152100   0.066   5.990   4.579 -0.7181  2.3035  0.6428
10203TIP3    H252101  -0.036   5.986   4.690 -0.4303  0.7950  0.8783
10204TIP3   OH252102   1.325   2.916   2.974 -0.0808 -0.3044 -0.3577
10204TIP3    H152103   1.243   2.962   2.994  0.3763  1.8233 -2.8031
10204TIP3    H252104   1.308   2.873   2.890  0.4013 -2.4948  0.5846
10205TIP3   OH252105   2.283   6.350   4.652 -0.2134  0.3371 -0.0630
10205TIP3    H152106   2.262   6.297   4.729  1.1880 -0.6736 -0.3414
10205TIP3    H252107   2.205   6.404   4.639 -1.9925 -2.0209 -0.0585
10206TIP3   OH252108   5.147   2.421  12.356 -0.9458  0.3833 -0.0006
10206TIP3    H152109   5.124   2.408  12.448 -0.2834  0.0917  0.1283
10206TIP3    H252110   5.134   2.335  12.316 -2.1757  0.7375 -0.3968
10207TIP3   OH252111   4.600   4.176   1.400 -0.2547  0.1027 -0.2297
10207TIP3    H152112   4.586   4.135   1.314 -2.6957 -0.5898  0.4061
10207TIP3    H252113   4.647   4.110   1.451  0.8750  0.3716 -0.8930
10208TIP3   OH252114   6.576   1.448  15.923  0.1196  0.3170  0.8357
10208TIP3    H152115   6.508   1.474  15.860  0.4415 -0.0831  0.3195
10208TIP3    H252116   6.564   1.354  15.933  1.3361  0.0429 -0.1452
10209TIP3   OH252117   6.149   0.676  15.563  0.4547 -0.1127 -0.0717
10209TIP3    H152118   6.103   0.592  15.567 -2.4161  1.4205  1.6822
10209TIP3    H252119   6.195   0.682  15.647  0.0727  0.3713  0.1028
10210TIP3   OH252120   4.245   0.877  14.366 -0.7593  0.4101  0.2483
10210TIP3    H152121   4.169   0.883  14.309 -1.2394  1.8473  0.9964
10210TIP3    H252122   4.237   0.951  14.425  1.2051  0.5745  0.3846
10211TIP3   OH252123   5.052   5.253   3.939 -0.1792 -0.4628  0.3508
10211TIP3    H152124   4.983   5.186   3.947 -1.6480  0.6981 -1.5660
10211TIP3    H252125   5.027   5.302   3.861  1.8672  1.1834  0.6719
10212TIP3   OH252126   4.279   4.186  14.086  0.3811 -0.7884  0.3584
10212TIP3    H152127   4.313   4.239  14.013 -1.0541 -1.6433 -0.9962
10212TIP3    H252128   4.264   4.249  14.156 -1.4851  0.7062 -1.2727
10213TIP3   OH252129   0.991   4.881  15.515  0.9960 -0.1333  0.2107
10213TIP3    H152130   1.040   4.812  15.470  2.7832  0.5924  0.9269
10213TIP3    H252131   0.961   4.939  15.445 -3.2448 -3.0906 -0.7571
10214TIP3   OH252132   3.579   0.559   5.780 -0.4146 -0.2687 -0.1859
10214TIP3    H152133   3.637   0.510   5.839 -1.1776  0.5751  1.3361
10214TIP3    H252134   3.638   0.605   5.721  0.4885  0.3966  1.1779
10215TIP3   OH252135   0.799   5.018   4.505  0.2257  0.4174  0.0120
10215TIP3    H152136   0.847   4.963   4.567  0.1581  0.4419  0.0863
10215TIP3    H252137   0.736   4.958   4.463  1.7034 -0.1112 -1.6046
10216TIP3   OH252138   1.001   2.253  12.565  0.1571  0.6396  0.2972
10216TIP3    H152139   0.929   2.200  12.531 -0.0348  1.2401 -0.2575
10216TIP3    H252140   1.057   2.267  12.489 -0.1254  1.7599  0.2871
10217TIP3   OH252141   6.031   1.317   1.847  0.4429  0.2513  0.2041
10217TIP3    H152142   5.957   1.371   1.819 -0.2498 -0.2905  0.9403
10217TIP3    H252143   6.030   1.322   1.942  0.3991 -1.0000  0.2858
10218TIP3   OH252144   3.032   3.474   1.761 -0.4921  0.3507 -0.1250
10218TIP3    H152145   2.954   3.480   1.706 -1.3076  0.8401  1.0551
10218TIP3    H252146   3.002   3.434   1.842  0.4466  0.6976  0.4137
10219TIP3   OH252147   4.289   1.056   4.625 -0.3789 -0.3279  0.6975
10219TIP3    H152148   4.321   0.966   4.632 -0.3260 -0.3493  0.1857
10219TIP3    H252149   4.259   1.064   4.534 -2.2508 -0.4447  1.2506
10220TIP3   OH252150   5.831   6.183   1.601  0.1949 -0.9257  0.0720
10220TIP3    H152151   5.817   6.154   1.691  1.0826 -0.5093  0.3556
10220TIP3    H252152   5.915   6.144   1.576  0.2372 -0.5568 -0.3712
10221TIP3   OH252153   6.177   4.949  13.323  0.1949  0.4974 -0.2802
10221TIP3    H152154   6.212   4.976  13.407 -1.1560  0.7852  0.2238
10221TIP3    H252155   6.121   5.022  13.295 -1.2565 -0.5430 -0.2565
10222TIP3   OH252156   5.213   0.300   1.725 -0.2185 -0.2073 -0.4323
10222TIP3    H152157   5.212   0.269   1.815 -1.2662  0.2776 -0.2570
10222TIP3    H252158   5.297   0.345   1.715 -0.6579  0.9260  0.7357
10223TIP3   OH252159   1.392   4.583   1.542 -0.1576  0.0195  0.5349
10223TIP3    H152160   1.319   4.554   1.487  1.7206  0.3710 -2.3744
10223TIP3    H252161   1.446   4.505   1.553 -0.5327 -0.0628  2.0442
10224TIP3   OH252162   1.890   6.736  15.070  0.3370  0.2621  0.2542
10224TIP3    H152163   1.855   6.649  15.088 -0.3122  0.9956  2.9765
10224TIP3    H252164   1.815   6.786  15.037  0.3629  0.2108  0.1132
10225TIP3   OH252165   3.246   5.258   1.689 -0.4776  0.0992 -0.2074
10225TIP3    H152166   3.263   5.236   1.780  0.4233 -0.6070 -0.5294
10225TIP3    H252167   3.151   5.272   1.685 -1.0242 -2.8391  0.2386
10226TIP3   OH252168   6.535   4.110  14.090 -0.1680  0.9653 -1.1039
10226TIP3    H152169   6.584   4.057  14.027  0.1896  1.5510 -1.3269
10226TIP3    H252170   6.448   4.118  14.051 -1.4662 -2.4716  0.5940
10227TIP3   OH252171   1.194   0.395  11.391 -0.0444 -0.6985  0.1656
10227TIP3    H152172   1.154   0.326  11.339  0.1153 -0.8579  0.2555
10227TIP3    H252173   1.245   0.446  11.327  1.8105 -2.0819  0.4564
10228TIP3   OH252174   5.558   5.617  15.516 -0.0514  0.2356  0.7485
10228TIP3    H152175   5.643   5.651  15.488 -0.1654 -0.2938 -0.2702
10228TIP3    H252176   5.579   5.545  15.575  0.2087  0.0780  0.4631
10229TIP3   OH252177   2.625   2.792   3.254  0.4180 -0.0962  0.0286
10229TIP3    H152178   2.682   2.748   3.318  1.2007 -1.0576 -1.2505
10229TIP3    H252179   2.651   2.884   3.257 -0.0498 -0.0002  1.5685
10230TIP3   OH252180   2.865   4.380  17.028  0.3990  0.0418 -0.1572
10230TIP3    H152181   2.881   4.290  17.057  1.8064  0.4370  0.3918
10230TIP3    H252182   2.776   4.399  17.056  0.3955 -0.8804  0.5206
10231TIP3   OH252183   2.692   4.322  17.420  0.3163  0.7415  0.6996
10231TIP3    H152184   2.757   4.268  17.375  0.1358  1.9862 -1.1767
10231TIP3    H252185   2.608   4.289  17.389  0.1829  1.4850  0.2491
10232TIP3   OH252186   2.651   2.351   0.761  0.2125  0.0083  0.0792
10232TIP3    H152187   2.648   2.443   0.732 -1.2368 -0.3675 -1.0656
10232TIP3    H252188   2.745   2.331   0.767  0.5947  1.9332  1.6601
10233TIP3   OH252189   4.970   3.338  16.813 -0.4751 -0.3107 -0.7732
10233TIP3    H152190   4.963   3.401  16.740 -0.0498  1.3194  0.5278
10233TIP3    H252191   4.959   3.392  16.891 -1.5488 -2.1086  0.3751
10234TIP3   OH252192   2.077   0.349  15.740  0.1230  0.6809  0.1371
10234TIP3    H152193   2.078   0.358  15.644  0.9981 -2.5157 -0.2564
10234TIP3    H252194   2.116   0.263  15.756  2.7181  2.2575  3.5468
10235TIP3   OH252195   1.449   0.122   3.503 -0.9155 -0.8887  0.9722
10235TIP3    H152196   1.386   0.193   3.489  0.7749  0.3317 -0.9108
10235TIP3    H252197   1.403   0.062   3.561 -2.7328  1.3284  2.0192
10236TIP3   OH252198   3.521   0.442  12.351 -0.2139  0.1660 -0.0106
10236TIP3    H152199   3.489   0.480  12.433 -0.4557 -0.8606  0.3893
10236TIP3    H252200   3.591   0.383  12.378  0.2351  0.4144 -0.6299
10237TIP3   OH252201   0.064   1.299   0.132  0.4087  0.0583  0.3866
10237TIP3    H152202   0.086   1.388   0.161 -1.5059  1.1444 -1.2538
10237TIP3    H252203   0.017   1.311   0.050 -1.3836 -2.3712  0.9352
10238TIP3   OH252204   0.580   2.510  15.955  0.5258  0.2941 -0.0928
10238TIP3    H152205   0.539   2.553  15.880  0.9352 -0.2056 -0.6164
10238TIP3    H252206   0.612   2.427  15.920 -0.0529 -0.3398  0.8482
10239TIP3   OH252207   2.885   4.458   1.762 -0.4468 -0.1059  0.1325
10239TIP3    H152208   2.857   4.545   1.733  1.7594  0.3907 -0.7470
10239TIP3    H252209   2.932   4.422   1.686  1.0294 -0.9150  1.3624
10240TIP3   OH252210   3.362   5.129  11.841  0.2301  0.1704 -0.0964
10240TIP3    H152211   3.382   5.168  11.756 -1.1433 -0.7594 -0.8808
10240TIP3    H252212   3.423   5.055  11.849  2.2704  1.8571  1.0272
10241TIP3   OH252213   4.192   2.052  11.450  0.8672 -0.3296  0.1433
10241TIP3    H152214   4.148   2.116  11.505  1.9731 -1.2844  2.2334
10241TIP3    H252215   4.127   1.983  11.435  0.5218 -0.0050  0.1556
10242TIP3   OH252216   4.238   0.829   5.653  0.3200  0.0759 -0.6597
10242TIP3    H152217   4.257   0.766   5.584 -0.4083 -1.9355  0.8516
10242TIP3    H252218   4.323   0.859   5.683  0.8653 -2.2579  0.3271
10243TIP3   OH252219   3.025   4.523   5.529  0.4192 -0.1591 -0.5553
10243TIP3    H152220   3.018   4.617   5.542  0.8561 -0.3676  1.5638
10243TIP3    H252221   3.119   4.504   5.535  0.3139 -0.7580 -0.6918
10244TIP3   OH252222   4.437   2.042   1.408  0.1873  0.5871  0.1256
10244TIP3    H152223   4.438   2.125   1.456  3.4490 -0.5813  2.4703
10244TIP3    H252224   4.440   2.068   1.316 -0.0251  3.0390  0.7381
10245TIP3   OH252225   0.797   5.585   3.456  0.7400 -0.1122  0.7121
10245TIP3    H152226   0.708   5.556   3.474  0.9095 -2.1292 -1.2251
10245TIP3    H252227   0.848   5.555   3.531  0.0377 -0.3851  1.0910
10246TIP3   OH252228   3.699   6.224   5.437  0.0494 -0.7441 -0.0168
10246TIP3    H152229   3.784   6.203   5.475  1.3496  2.7793 -0.6135
10246TIP3    H252230   3.651   6.267   5.508 -1.5540 -3.1352  0.4675
10247TIP3   OH252231   3.558   3.428  17.196  0.1054  0.3566  0.5897
10247TIP3    H152232   3.554   3.361  17.264  1.7267  0.5844  0.9567
10247TIP3    H252233   3.635   3.480  17.219  0.7881  0.3467 -1.4891
10248TIP3   OH252234   2.589   5.587   1.881  0.0382  0.2594  0.0773
10248TIP3    H152235   2.674   5.569   1.841  0.1590 -0.8217  0.7826
10248TIP3    H252236   2.608   5.598   1.974 -0.1430  3.4131 -0.1276
10249TIP3   OH252237   4.932   4.374   2.524 -0.2387 -0.3352  0.1919
10249TIP3    H152238   5.010   4.326   2.552 -0.6522  0.1931  2.4807
10249TIP3    H252239   4.943   4.461   2.562 -0.4377  0.8218 -2.2030
10250TIP3   OH252240   0.331   3.497  14.036 -0.2029  0.6530  0.3143
10250TIP3    H152241   0.316   3.416  13.988  1.0371  0.7753 -0.3287
10250TIP3    H252242   0.284   3.486  14.118 -1.2642 -0.1087 -0.3793
10251TIP3   OH252243   5.656   4.819  12.029 -0.1761 -0.0434 -0.0200
10251TIP3    H152244   5.638   4.749  11.966 -0.9254 -1.2005  1.4182
10251TIP3    H252245   5.574   4.868  12.034 -0.6822 -0.9788  1.2622
10252TIP3   OH252246   4.468   5.511   1.826  0.0912 -0.1229 -0.0710
10252TIP3    H152247   4.435   5.533   1.739  0.0568  0.6542  0.1276
10252TIP3    H252248   4.413   5.438   1.854  0.5124 -0.7936 -0.9460
10253TIP3   OH252249   0.295   6.013  15.285  0.6227 -0.3577  0.5040
10253TIP3    H152250   0.241   6.081  15.246  1.7151  0.2606  0.0216
10253TIP3    H252251   0.235   5.964  15.342 -0.7123 -0.4318 -0.8826
10254TIP3   OH252252   3.095   4.661   4.724 -0.6375 -0.2185  0.3184
10254TIP3    H152253   3.092   4.721   4.798 -0.4491  0.6324 -0.3436
10254TIP3    H252254   3.165   4.696   4.668  0.8370 -2.1691  0.8575
10255TIP3   OH252255   5.188   6.558  12.211  0.4805 -0.1475  0.0886
10255TIP3    H152256   5.263   6.561  12.151 -0.3305 -0.5706 -0.9684
10255TIP3    H252257   5.195   6.638  12.262  2.1453 -0.5895  0.6271
10256TIP3   OH252258   1.637   4.498   6.358 -0.3688  0.1653 -0.6195
10256TIP3    H152259   1.551   4.470   6.328 -0.6381 -0.5850  0.7383
10256TIP3    H252260   1.658   4.438   6.430 -0.5844  2.8757  1.9154
10257TIP3   OH252261   1.763   1.672  16.658  0.2506 -0.5954  0.2622
10257TIP3    H152262   1.738   1.746  16.603 -1.7545 -0.6829  0.9994
10257TIP3    H252263   1.689   1.612  16.653  0.2153 -0.8230  2.6771
10258TIP3   OH252264   6.594   5.703  16.982 -0.4766  0.0646  0.9125
10258TIP3    H152265   6.646   5.633  16.942 -0.2028 -0.7884  2.6604
10258TIP3    H252266   6.522   5.717  16.921  0.2579 -0.7243 -0.1776
10259TIP3   OH252267   2.864   3.279  13.172 -0.3817  0.3113  0.0706
10259TIP3    H152268   2.906   3.204  13.130 -0.4991  1.4865 -2.3017
10259TIP3    H252269   2.936   3.329  13.210  0.2939  1.4036 -2.4606
10260TIP3   OH252270   0.293   0.695   2.601 -0.0590 -0.3271 -0.0766
10260TIP3    H152271   0.275   0.602   2.617 -4.3296  0.3088  0.0716
10260TIP3    H252272   0.297   0.702   2.505  1.5652 -0.7760 -0.0693
10261TIP3   OH252273   5.741   2.343  11.814 -0.5727 -0.5953 -0.3085
10261TIP3    H152274   5.651   2.321  11.837 -1.1001  0.5446 -1.1559
10261TIP3    H252275   5.737   2.434  11.787  0.7959 -0.6059 -0.6203
10262TIP3   OH252276   1.022   2.747   3.316 -0.2767 -0.0598  0.0429
10262TIP3    H152277   1.008   2.802   3.392 -0.9129 -0.5422  0.2899
10262TIP3    H252278   1.093   2.688   3.341  1.7291  1.8177 -0.8901
10263TIP3   OH252279   5.656   2.409   1.742  0.0900 -0.3034  0.1249
10263TIP3    H152280   5.655   2.409   1.646  0.2153 -0.1412  0.1234
10263TIP3    H252281   5.670   2.501   1.765  0.0133 -0.3365  0.2999
10264TIP3   OH252282   0.690   5.723   2.642 -0.2930 -0.5236 -0.1864
10264TIP3    H152283   0.623   5.680   2.589 -1.4027  0.9148 -0.0226
10264TIP3    H252284   0.696   5.670   2.721 -1.8417 -0.2603  0.1380
10265TIP3   OH252285   3.533   1.207  17.149 -0.8024 -0.3949 -0.5731
10265TIP3    H152286   3.568   1.296  17.138 -0.0752 -0.6161 -0.1146
10265TIP3    H252287   3.486   1.210  17.232 -1.7822 -0.1377 -1.1178
10266TIP3   OH252288   3.970   4.361   4.165  0.0235  0.1658 -0.0272
10266TIP3    H152289   3.883   4.343   4.130 -0.1110 -0.5094  0.6359
10266TIP3    H252290   3.986   4.290   4.227  1.8556 -0.8728 -1.5699
10267TIP3   OH252291   4.503   0.834  10.637 -0.2108 -0.3642  0.3302
10267TIP3    H152292   4.506   0.739  10.645  0.6226 -0.3447  0.3258
10267TIP3    H252293   4.426   0.860  10.688 -0.7513 -1.0781 -0.1078
10268TIP3   OH252294   3.628   6.201   3.115  0.0277  0.0557 -0.0022
10268TIP3    H152295   3.685   6.124   3.122 -0.5296 -0.3796 -0.1909
10268TIP3    H252296   3.553   6.180   3.170  0.1124  0.6909  0.3557
10269TIP3   OH252297   6.088   4.654  16.722  0.1965 -0.1288  0.3585
10269TIP3    H152298   6.180   4.629  16.733  0.7029  1.6915  0.6210
10269TIP3    H252299   6.069   4.710  16.797 -1.0148 -0.1186  0.0692
10270TIP3   OH252300   2.143   0.640  14.104  0.4253 -0.0294  0.1325
10270TIP3    H152301   2.143   0.590  14.023 -0.8934  0.2050 -0.0290
10270TIP3    H252302   2.142   0.731  14.077  1.5537  0.0804  0.4247
10271TIP3   OH252303   6.425   3.638   5.760 -0.2863  0.6135  0.7618
10271TIP3    H152304   6.474   3.556   5.749  1.9397  1.6943  1.8460
10271TIP3    H252305   6.488   3.706   5.737 -1.5317  2.0907  1.5677
10272TIP3   OH252306   2.294   2.650  12.176 -0.0178 -0.5205 -0.1473
10272TIP3    H152307   2.319   2.639  12.085  2.0904  1.1335  0.1583
10272TIP3    H252308   2.235   2.725  12.176  0.6561  0.0237 -0.0907
10273TIP3   OH252309   5.451   2.065   0.377 -0.1828  0.5947 -0.0215
10273TIP3    H152310   5.400   2.112   0.311 -1.6727 -0.2264  0.5059
10273TIP3    H252311   5.476   1.983   0.334 -1.9004 -0.3326  0.6656
10274TIP3   OH252312   1.868   0.880  16.766  0.3438 -0.8169  0.0286
10274TIP3    H152313   1.943   0.820  16.767  0.1039 -1.2148 -1.8466
10274TIP3    H252314   1.829   0.867  16.680 -1.7638 -0.4391  0.8746
10275TIP3   OH252315   0.240   1.531   0.290  0.3511 -0.0525  0.2510
10275TIP3    H152316   0.223   1.537   0.197 -0.1049 -1.2324  0.2348
10275TIP3    H252317   0.196   1.606   0.329 -1.4357 -0.8141 -0.2441
10276TIP3   OH252318   1.839   0.021  16.799  0.1234  0.4260 -0.1155
10276TIP3    H152319   1.818  -0.059  16.847 -0.5484  0.2142 -0.7528
10276TIP3    H252320   1.875   0.080  16.866  0.9339 -0.5120  0.2967
10277TIP3   OH252321   0.359   6.608  14.721 -0.2772 -0.6358  0.1761
10277TIP3    H152322   0.314   6.524  14.729  0.2742 -0.9581 -0.0412
10277TIP3    H252323   0.451   6.589  14.742  0.3281 -0.5929 -2.1696
10278TIP3   OH252324   3.030   4.202  14.637  0.0086 -0.5049  0.0860
10278TIP3    H152325   2.999   4.127  14.687 -0.9576 -0.9607 -1.1572
10278TIP3    H252326   3.049   4.167  14.550  1.8575  0.2270  0.1325
10279TIP3   OH252327   4.870   2.971  12.411 -0.0982 -0.0837 -0.0255
10279TIP3    H152328   4.873   3.047  12.352 -1.3100  1.0002  1.2474
10279TIP3    H252329   4.795   2.920  12.381 -1.4965  1.1123  1.2437
10280TIP3   OH252330   3.127   4.761  14.912 -0.2495 -0.0555  0.0816
10280TIP3    H152331   3.204   4.778  14.966 -0.8368 -2.6953  1.9371
10280TIP3    H252332   3.159   4.707  14.840  0.0184  0.9871 -0.6071
10281TIP3   OH252333   5.533   0.775   5.819 -0.1513 -0.5169 -0.2249
10281TIP3    H152334   5.544   0.834   5.893 -1.3281  3.3646 -2.8198
10281TIP3    H252335   5.614   0.786   5.768  0.0996 -2.1410 -0.2358
10282TIP3   OH252336   6.753   4.725   5.411  0.6424  0.0272  0.5027
10282TIP3    H152337   6.730   4.756   5.323  0.3159 -1.2299  0.1205
10282TIP3    H252338   6.703   4.644   5.421 -1.1052  1.2761  2.7492
10283TIP3   OH252339   4.945   1.983  10.688 -0.2689 -0.1923  0.0928
10283TIP3    H152340   4.871   2.029  10.650  1.5583  2.1264 -0.8747
10283TIP3    H252341   5.015   1.992  10.623  1.1257 -1.5855  1.3146
10284TIP3   OH252342   4.874   5.352   4.997 -0.7667  0.2789  0.0216
10284TIP3    H152343   4.894   5.296   5.072 -0.1679  1.6514  0.9125
10284TIP3    H252344   4.902   5.300   4.921 -1.2772 -1.0809  0.7288
10285TIP3   OH252345   4.096   2.125  16.162 -0.0157  0.1822 -0.2461
10285TIP3    H152346   4.186   2.137  16.191  1.1151 -2.3115 -2.3558
10285TIP3    H252347   4.094   2.163  16.074 -1.1721  0.6102 -0.0548
10286TIP3   OH252348   3.663   3.223   3.935  0.0834  0.3436  0.6410
10286TIP3    H152349   3.625   3.139   3.960  0.4109 -0.7661 -2.2637
10286TIP3    H252350   3.735   3.235   3.996  0.4748 -1.8532  0.7025
10287TIP3   OH252351   6.158   1.603  12.153  0.5471  0.7761 -0.5825
10287TIP3    H152352   6.126   1.553  12.228 -0.7932  1.8756 -0.3701
10287TIP3    H252353   6.171   1.538  12.084  0.6606 -0.0916  0.2410
10288TIP3   OH252354   3.916   6.257   0.108 -0.2237 -0.2172  0.6250
10288TIP3    H152355   3.984   6.190   0.099 -0.2269 -0.0352 -1.0817
10288TIP3    H252356   3.965   6.340   0.104 -0.3119 -0.0877  1.8522
10289TIP3   OH252357   0.749   3.582   0.938 -0.6213 -0.0547  0.3246
10289TIP3    H152358   0.841   3.584   0.967 -0.1519  1.3438 -1.0662
10289TIP3    H252359   0.749   3.521   0.864 -1.8201 -3.6537  3.0635
10290TIP3   OH252360   2.495   1.145   4.110 -0.5259  0.1356  0.3244
10290TIP3    H152361   2.437   1.201   4.161  1.4454  2.2437  0.4019
10290TIP3    H252362   2.470   1.160   4.019  0.2333  1.5089  0.3194
10291TIP3   OH252363   1.926   2.918  12.495 -0.0434 -0.2429 -0.1491
10291TIP3    H152364   1.857   2.974  12.529 -1.9089 -1.7173 -1.3261
10291TIP3    H252365   1.962   2.968  12.421  0.2979  0.5912  0.5544
10292TIP3   OH252366   6.559   5.890  13.682 -0.1623  0.1728  0.6044
10292TIP3    H152367   6.634   5.869  13.625  0.0349  0.2262  0.8413
10292TIP3    H252368   6.593   5.876  13.770  0.2373  2.3231  0.8286
10293TIP3   OH252369   5.686   5.988   1.804  0.6920  0.1943  0.4359
10293TIP3    H152370   5.655   6.060   1.858  1.4086 -0.9916  2.5533
10293TIP3    H252371   5.681   5.911   1.861  2.3523 -0.9836 -0.8809
10294TIP3   OH252372   4.865   4.610   2.897  0.4162  0.5734 -0.2898
10294TIP3    H152373   4.883   4.516   2.902 -1.2796  0.2793  1.5551
10294TIP3    H252374   4.858   4.639   2.988 -0.0032  2.2908 -0.8276
10295TIP3   OH252375   1.253   3.196   2.370  0.3641  0.3024  0.0685
10295TIP3    H152376   1.328   3.143   2.395  1.1930  1.5256  0.2722
10295TIP3    H252377   1.246   3.261   2.440  0.9688  2.0230 -1.4041
10296TIP3   OH252378   3.947   0.999   3.038 -0.3313  0.5394  0.3409
10296TIP3    H152379   3.878   0.986   3.103  0.4534 -1.1884  0.9026
10296TIP3    H252380   4.027   1.006   3.090  0.1013  0.9070 -0.3664
10297TIP3   OH252381   5.342   4.258  12.649 -0.1406  0.4517 -0.6334
10297TIP3    H152382   5.260   4.251  12.699 -0.4134  0.6133 -1.0587
10297TIP3    H252383   5.323   4.216  12.566  1.3842 -3.2219  0.6634
10298TIP3   OH252384   3.776   5.702   4.453 -0.3909 -0.5725 -0.2070
10298TIP3    H152385   3.849   5.698   4.514 -0.4072 -1.1108 -0.2201
10298TIP3    H252386   3.788   5.627   4.395 -0.4573 -0.1565 -0.7774
10299TIP3   OH252387   0.131   2.553  13.695 -0.5646  0.0995 -0.5220
10299TIP3    H152388   0.167   2.642  13.693 -0.8994  0.2866  0.7839
10299TIP3    H252389   0.115   2.532  13.603 -0.2639  1.2966 -0.8716
10300TIP3   OH252390   2.652   4.836  11.981  0.1424 -0.2651  0.0719
10300TIP3    H152391   2.654   4.744  11.953 -1.0877 -1.0614  2.3081
10300TIP3    H252392   2.684   4.885  11.906  0.2034 -2.4701 -1.4328
10301TIP3   OH252393   0.971   6.565   2.983 -0.2473 -0.4153 -0.4870
10301TIP3    H152394   1.030   6.565   3.058 -0.6566  0.2652 -0.1662
10301TIP3    H252395   0.988   6.647   2.938 -0.4405 -0.5426 -0.8010
10302TIP3   OH252396   6.280   2.094   4.207  0.4214 -0.2135 -0.1633
10302TIP3    H152397   6.263   2.009   4.165 -1.2928 -0.0701  0.1595
10302TIP3    H252398   6.273   2.158   4.137  2.3685 -0.3575 -0.5346
10303TIP3   OH252399   1.012   3.757   0.419 -0.0597  0.3326 -0.0601
10303TIP3    H152400   0.933   3.710   0.447 -0.5387  0.6410 -0.8648
10303TIP3    H252401   1.074   3.687   0.399 -0.1956  0.0809  0.3566
10304TIP3   OH252402   1.761   1.155  10.836  0.0465  0.6279  0.2323
10304TIP3    H152403   1.804   1.087  10.887  0.0864  1.7877  1.8198
10304TIP3    H252404   1.677   1.116  10.812  1.1314 -0.9557 -1.2795
10305TIP3   OH252405   0.752   5.207  16.886  0.2690  0.0687 -0.4812
10305TIP3    H152406   0.714   5.191  16.972  0.6179  2.7710  0.2664
10305TIP3    H252407   0.833   5.255  16.904  1.2338 -0.7684 -2.2853
10306TIP3   OH252408   2.830   0.315  13.930  0.1572 -0.1230 -0.3073
10306TIP3    H152409   2.840   0.369  14.009  1.0399  0.5842 -0.8718
10306TIP3    H252410   2.749   0.267  13.944 -0.1531  0.6301  0.6516
10307TIP3   OH252411   2.188   2.765  16.124  0.0898  0.4519  0.0315
10307TIP3    H152412   2.139   2.700  16.173  0.0574  1.9390  2.0896
10307TIP3    H252413   2.279   2.753  16.150  0.3044  0.2504 -0.7693
10308TIP3   OH252414   3.181   6.555  11.679  0.0215 -0.0656  0.4296
10308TIP3    H152415   3.092   6.557  11.715 -0.2145  0.7390 -0.1597
10308TIP3    H252416   3.236   6.530  11.752 -0.4489  1.4795  1.3699
10309TIP3   OH252417   5.166   4.315   2.668 -0.0681  0.3230  0.4307
10309TIP3    H152418   5.122   4.336   2.750  0.5503 -0.5180  0.9936
10309TIP3    H252419   5.258   4.335   2.684 -0.0462  0.8795 -0.3221
10310TIP3   OH252420   6.275   2.528  14.727  0.2784  0.3701  0.3047
10310TIP3    H152421   6.320   2.610  14.748  0.1523  0.7338 -0.7595
10310TIP3    H252422   6.205   2.554  14.667 -0.8400 -0.3047  1.2721
10311TIP3   OH252423   4.126   2.255   0.452 -0.1844  0.5118  0.1897
10311TIP3    H152424   4.130   2.161   0.437  0.8496  0.7553 -1.3381
10311TIP3    H252425   4.141   2.294   0.365  0.9019  2.0709  1.0174
10312TIP3   OH252426   0.182   0.132  16.806 -0.2348  0.3177  0.5715
10312TIP3    H152427   0.124   0.157  16.878 -2.4174 -0.2768 -0.8804
10312TIP3    H252428   0.247   0.202  16.802 -0.9231  1.1069  2.1711
10313TIP3   OH252429   4.067   4.439  11.172 -0.1476 -0.4032  0.8598
10313TIP3    H152430   4.053   4.434  11.267  0.5636 -1.1053  0.9436
10313TIP3    H252431   3.995   4.387  11.135 -0.3121 -0.2969  1.0263
10314TIP3   OH252432   1.555   4.681  14.747  0.3923 -0.1027  0.1811
10314TIP3    H152433   1.484   4.744  14.763  1.2889  1.5711 -1.9122
10314TIP3    H252434   1.596   4.711  14.666  4.4978 -0.0801  2.0119
10315TIP3   OH252435   4.360   4.570   5.222 -0.1592  0.1728 -0.1194
10315TIP3    H152436   4.455   4.563   5.236 -0.0240  0.4710 -0.8569
10315TIP3    H252437   4.324   4.492   5.263  0.2294  0.8950  1.7223
10316TIP3   OH252438   3.074   2.640   3.782 -0.4008  0.2732 -0.1556
10316TIP3    H152439   3.067   2.623   3.688  1.1608  0.6477 -0.3609
10316TIP3    H252440   3.153   2.693   3.791  1.2093 -2.2259  1.6797
10317TIP3   OH252441   4.106   4.051   0.221  0.0265  0.4414 -0.1414
10317TIP3    H152442   4.088   4.069   0.313  0.2939 -2.6477  0.6248
10317TIP3    H252443   4.050   3.975   0.200 -0.7470  1.6322 -2.8424
10318TIP3   OH252444   3.792   2.317   4.560  0.1651  0.0041 -0.0748
10318TIP3    H152445   3.850   2.308   4.636  1.2052 -1.0049 -0.9306
10318TIP3    H252446   3.780   2.411   4.549  0.5032  0.1808  0.9648
10319TIP3   OH252447   0.665   2.985   0.056  0.3250  0.0510  0.2918
10319TIP3    H152448   0.585   2.956   0.011  0.7118 -0.6570  0.0362
10319TIP3    H252449   0.733   2.981  -0.012  0.6344  0.3750  0.5790
10320TIP3   OH252450   4.521   6.570   0.127  0.0744 -0.5492  0.4041
10320TIP3    H152451   4.491   6.622   0.053 -0.6431 -0.6488  0.6116
10320TIP3    H252452   4.616   6.578   0.126 -0.0609  2.1584  1.4225
10321TIP3   OH252453   6.647   2.817   4.557 -0.5749  0.0005 -0.1644
10321TIP3    H152454   6.722   2.861   4.598 -1.0889  0.5021  0.2644
10321TIP3    H252455   6.613   2.882   4.495 -0.7803 -0.1453 -0.2037
10322TIP3   OH252456   2.430   5.855  12.561  0.1108 -0.6140 -0.4369
10322TIP3    H152457   2.423   5.765  12.528  1.7055 -1.0676  0.4036
10322TIP3    H252458   2.499   5.852  12.627 -0.0360  1.1730 -0.1510
10323TIP3   OH252459   3.975   0.507   4.922  0.2338 -0.3725  0.7834
10323TIP3    H152460   3.964   0.413   4.933  0.4264 -0.6260 -0.8661
10323TIP3    H252461   3.949   0.524   4.831  0.0751  1.1878  1.0866
10324TIP3   OH252462   3.401   1.802   1.886 -0.0826  0.0282  0.2735
10324TIP3    H152463   3.496   1.789   1.896 -0.2206 -1.5196 -0.1943
10324TIP3    H252464   3.388   1.814   1.792 -0.3310  0.3715  0.3533
10325TIP3   OH252465   1.322   5.813   5.592  0.3650  0.7263 -0.3961
10325TIP3    H152466   1.242   5.865   5.598  0.6838  1.0253  3.5327
10325TIP3    H252467   1.382   5.867   5.540 -1.1382  1.6314 -1.2530
10326TIP3   OH252468   5.303   0.570   5.356  0.4800  0.0528 -0.3156
10326TIP3    H152469   5.295   0.561   5.261 -0.3045  1.0549 -0.3610
10326TIP3    H252470   5.219   0.538   5.390  0.1731  1.0879 -0.0724
10327TIP3   OH252471   2.831   2.764  16.576 -0.2649  0.0444  0.4067
10327TIP3    H152472   2.852   2.769  16.483 -1.8493 -0.3352 -0.0146
10327TIP3    H252473   2.827   2.855  16.605 -0.1060  0.1767  0.0213
10328TIP3   OH252474   6.623   1.285  10.724 -0.4788 -0.0006 -0.4311
10328TIP3    H152475   6.553   1.311  10.784 -0.1083 -0.4198  0.1907
10328TIP3    H252476   6.629   1.190  10.734  1.6278  0.2347  1.1449
10329TIP3   OH252477   0.405   1.632  17.466 -0.1577  0.6360  0.2494
10329TIP3    H152478   0.364   1.547  17.447 -2.0520  1.3446  0.9454
10329TIP3    H252479   0.385   1.685  17.389  0.6805  0.5777 -0.0109
10330TIP3   OH252480   1.430   3.379   0.255  0.0362 -0.0138  0.1309
10330TIP3    H152481   1.379   3.377   0.337  0.8823 -1.4290  0.6553
10330TIP3    H252482   1.516   3.347   0.280  0.5724  0.3803 -1.1641
10331TIP3   OH252483   4.598   0.994  17.401 -0.3197 -0.0109 -0.1543
10331TIP3    H152484   4.644   0.963  17.479 -1.9598 -1.6652  0.2327
10331TIP3    H252485   4.580   1.086  17.419  1.4086  0.2782  0.3329
10332TIP3   OH252486   5.645   1.211   0.809  0.1339 -0.0424  0.2263
10332TIP3    H152487   5.731   1.248   0.827 -0.3611  2.1757 -1.6125
10332TIP3    H252488   5.645   1.127   0.856  2.5606  0.7389  1.7982
10333TIP3   OH252489   1.363   3.958  13.223  0.7849  0.3213 -0.2474
10333TIP3    H152490   1.304   3.892  13.187  0.6006 -0.6493  1.7104
10333TIP3    H252491   1.447   3.914  13.231  0.6665  0.2835  1.0602
10334TIP3   OH252492   4.992   6.149  11.207  0.1380 -0.7790 -0.0319
10334TIP3    H152493   4.952   6.089  11.144 -0.5346 -0.1610 -0.2056
10334TIP3    H252494   5.042   6.211  11.153  1.1734 -1.4181  0.1711
10335TIP3   OH252495   6.269   1.517  14.270  0.0935  0.2196  0.1898
10335TIP3    H152496   6.264   1.422  14.273  3.4741 -0.1362 -1.0028
10335TIP3    H252497   6.195   1.547  14.322 -1.4547 -3.0128  0.0853
10336TIP3   OH252498   3.652   5.138   1.412 -0.2771 -0.1933 -0.1577
10336TIP3    H152499   3.606   5.130   1.329 -1.6441 -0.4223  0.5953
10336TIP3    H252500   3.706   5.059   1.418 -0.5170 -0.3940 -0.6212
10337TIP3   OH252501   3.060   0.362   4.475 -0.4689  0.3122 -0.5493
10337TIP3    H152502   3.043   0.328   4.387 -1.2447 -0.5032 -0.0968
10337TIP3    H252503   3.031   0.453   4.471 -0.8967  0.1637 -1.0165
10338TIP3   OH252504   4.349   3.159   1.525  0.0084  0.3561 -0.0678
10338TIP3    H152505   4.400   3.137   1.603 -2.4030 -1.9100  0.9844
10338TIP3    H252506   4.394   3.113   1.454 -0.1275 -1.0032  0.7084
10339TIP3   OH252507   5.697   0.726  11.555  0.5252  0.1583  0.0282
10339TIP3    H152508   5.653   0.641  11.566  1.0357  0.0679  1.6870
10339TIP3    H252509   5.788   0.703  11.537  0.5745  0.3659  0.0117
10340TIP3   OH252510   5.983   6.013  13.429 -0.1793 -0.0793 -0.5408
10340TIP3    H152511   5.978   5.979  13.518 -0.2833  0.2233 -0.4299
10340TIP3    H252512   5.896   5.999  13.393 -0.2166  0.0499 -0.5016
10341TIP3   OH252513   6.170   2.977   6.412  0.2121  0.7616 -0.5790
10341TIP3    H152514   6.157   3.047   6.475 -0.9514  1.2436 -1.3195
10341TIP3    H252515   6.081   2.951   6.386  0.6521  0.6585 -2.0822
10342TIP3   OH252516   4.250   6.613  10.647 -0.0628  0.2741  0.2013
10342TIP3    H152517   4.288   6.540  10.597  1.2387 -0.5314  2.2334
10342TIP3    H252518   4.222   6.675  10.580  0.3837 -1.3086 -1.5595
10343TIP3   OH252519   2.789   1.431  14.877  0.6559  0.1878  0.4429
10343TIP3    H152520   2.826   1.343  14.877 -0.5075 -0.3800  2.6509
10343TIP3    H252521   2.833   1.476  14.949 -3.0478 -0.7223  3.6443
10344TIP3   OH252522   5.446   0.868  11.196 -0.1696 -0.0010 -0.3717
10344TIP3    H152523   5.365   0.819  11.211 -0.3052  0.5861  0.9457
10344TIP3    H252524   5.431   0.916  11.115 -1.1976  0.1894 -0.0805
10345TIP3   OH252525   0.839   2.554  16.095  0.1885  0.0059  0.2268
10345TIP3    H152526   0.863   2.463  16.074  2.3640  0.9304 -1.6633
10345TIP3    H252527   0.752   2.566  16.057  0.4352 -0.9238 -0.6762
10346TIP3   OH252528   6.505   6.454  12.492 -0.2231  0.6269  0.2043
10346TIP3    H152529   6.474   6.408  12.570  0.4392 -0.5829 -0.2171
10346TIP3    H252530   6.498   6.390  12.422  0.4329  1.2752 -0.4733
10347TIP3   OH252531   0.006   2.208   1.643 -0.1843  0.4328 -0.0942
10347TIP3    H152532   0.084   2.252   1.611 -0.2992 -0.6486 -2.0074
10347TIP3    H252533  -0.018   2.148   1.573 -1.1281 -1.2977  1.6232
10348TIP3   OH252534   4.283   3.887   0.928  0.4121  0.7313 -0.4025
10348TIP3    H152535   4.369   3.845   0.917  0.4015  0.7556 -0.5980
10348TIP3    H252536   4.276   3.945   0.852 -0.2962 -0.1823 -1.0683
10349TIP3   OH252537   5.650   0.306   6.140 -0.2069  0.0304  0.6149
10349TIP3    H152538   5.651   0.286   6.046  0.9549  0.4395  0.5224
10349TIP3    H252539   5.607   0.392   6.145 -0.4931 -0.1023  0.4922
10350TIP3   OH252540   3.614   1.189  16.334 -0.4823 -0.1765  0.2648
10350TIP3    H152541   3.683   1.247  16.300  0.4299 -1.1656  0.3573
10350TIP3    H252542   3.546   1.248  16.364 -0.1793  0.8129 -0.8870
10351TIP3   OH252543   5.773   6.702  17.390 -0.2347  0.3785 -0.3773
10351TIP3    H152544   5.808   6.627  17.439  0.5896  0.4902 -0.7746
10351TIP3    H252545   5.721   6.663  17.320 -1.2655  0.2142  0.4462
10352TIP3   OH252546   0.956   4.344  11.298 -0.4251 -0.3062  0.5004
10352TIP3    H152547   0.882   4.383  11.252  0.8515 -0.4749 -1.8563
10352TIP3    H252548   0.957   4.253  11.269  0.3222 -0.4638  0.9980
10353TIP3   OH252549   6.600   4.273  12.853  1.2948 -0.4670  0.6688
10353TIP3    H152550   6.543   4.285  12.930  0.5726  0.3258  0.0324
10353TIP3    H252551   6.610   4.362  12.817  0.8815 -0.9495 -0.6718
10354TIP3   OH252552   2.037   5.620  12.234 -0.1586 -0.9871  0.0578
10354TIP3    H152553   2.096   5.587  12.166 -1.2986 -1.5546 -0.6962
10354TIP3    H252554   2.010   5.541  12.282 -0.4407 -0.7607  0.2725
10355TIP3   OH252555   5.131   5.521  15.090 -0.7824 -0.3314  0.5322
10355TIP3    H152556   5.188   5.460  15.138 -1.3788  0.0144  1.7110
10355TIP3    H252557   5.188   5.558  15.023  1.0977  1.6085  2.9839
10356TIP3   OH252558   4.713   3.195   2.115 -0.3031  0.0177 -0.1574
10356TIP3    H152559   4.802   3.163   2.126  0.6687  2.0851 -1.2703
10356TIP3    H252560   4.703   3.263   2.182 -0.8800  0.0982 -0.3151
10357TIP3   OH252561   0.855   3.003  11.827  0.2088  0.4758 -0.0473
10357TIP3    H152562   0.811   3.087  11.812 -0.2257  0.7659  2.3925
10357TIP3    H252563   0.864   2.998  11.922  1.9740 -1.3856 -0.2502
10358TIP3   OH252564   3.093   5.959   0.952 -0.0326  0.5057 -0.1134
10358TIP3    H152565   3.049   5.942   0.868 -0.1696  0.3030 -0.0020
10358TIP3    H252566   3.076   5.880   1.004 -0.8905  1.0784  0.5102
10359TIP3   OH252567   0.154   6.680   6.646 -0.2487  0.2981 -0.2724
10359TIP3    H152568   0.126   6.612   6.708  0.5844  0.1276 -0.0602
10359TIP3    H252569   0.077   6.734   6.632 -0.7777 -0.3768 -0.0174
10360TIP3   OH252570   1.387   3.253   3.741 -0.3042 -0.4812 -0.5010
10360TIP3    H152571   1.334   3.250   3.661 -2.4754 -0.5617  0.8690
10360TIP3    H252572   1.340   3.197   3.803  3.2708 -3.5618 -0.1901
10361TIP3   OH252573   2.546   1.698   0.637 -0.2061  0.0503 -0.1152
10361TIP3    H152574   2.629   1.707   0.682 -0.2891  2.8286 -0.3503
10361TIP3    H252575   2.566   1.716   0.545 -0.8633 -0.5197 -0.3815
10362TIP3   OH252576   5.555   4.698   0.740  0.6050  0.7348  0.3403
10362TIP3    H152577   5.650   4.697   0.735  0.5842  2.5155 -2.3667
10362TIP3    H252578   5.525   4.650   0.663 -0.8561 -2.4389  2.6524
10363TIP3   OH252579   2.126   5.179  16.699 -0.6926 -0.0203  0.4219
10363TIP3    H152580   2.096   5.266  16.671  1.8062  1.3034  1.4489
10363TIP3    H252581   2.069   5.156  16.772 -1.0818  1.0223  0.4661
10364TIP3   OH252582   2.170   3.276  16.103 -0.4688 -0.1751  0.1879
10364TIP3    H152583   2.155   3.190  16.141 -1.5695  0.1828  0.6192
10364TIP3    H252584   2.261   3.297  16.122 -0.8666 -0.1842  2.2817
10365TIP3   OH252585   6.674   0.972   6.189 -0.2382 -0.1550 -0.0592
10365TIP3    H152586   6.633   0.890   6.161 -0.9457  0.2720 -0.2999
10365TIP3    H252587   6.665   0.971   6.284  0.2424 -0.6059 -0.0142
10366TIP3   OH252588   1.991   2.539  16.114 -0.1987  0.6160 -0.0041
10366TIP3    H152589   1.936   2.502  16.182 -0.5379 -0.2067 -0.7005
10366TIP3    H252590   2.008   2.466  16.055 -2.1567  1.8198 -2.2619
10367TIP3   OH252591   0.338   2.268  14.481 -0.3350  0.0253  0.3950
10367TIP3    H152592   0.315   2.179  14.509 -1.1554 -0.6339 -2.0674
10367TIP3    H252593   0.426   2.282  14.517 -0.9276 -1.0087  2.4113
10368TIP3   OH252594   5.604   4.310  13.200  0.0102  0.1707 -0.0044
10368TIP3    H152595   5.656   4.271  13.130 -0.8432 -1.3925  0.1803
10368TIP3    H252596   5.538   4.244  13.220  0.3278  0.5113  2.3911
10369TIP3   OH252597   2.484   0.910  12.216 -0.1276 -0.0589  0.0386
10369TIP3    H152598   2.518   0.906  12.306 -1.6702 -2.3099  0.6034
10369TIP3    H252599   2.552   0.869  12.163  1.0476  1.7857  0.0156
10370TIP3   OH252600   4.790   2.120   5.820  0.0753 -0.0308 -0.5295
10370TIP3    H152601   4.746   2.161   5.746  1.2923  0.1922 -1.1563
10370TIP3    H252602   4.879   2.154   5.817 -0.0773  0.7444  1.6140
10371TIP3   OH252603   1.182   5.105  16.451 -0.6233  0.1212 -0.0578
10371TIP3    H152604   1.263   5.105  16.503 -0.2021  2.4173 -0.5946
10371TIP3    H252605   1.172   5.196  16.422 -1.0690 -0.9043 -3.6174
10372TIP3   OH252606   6.544   1.014   1.313  0.5306 -0.2997  0.6292
10372TIP3    H152607   6.462   1.057   1.338  0.2218 -0.7039  0.3354
10372TIP3    H252608   6.535   1.000   1.219 -0.0717 -2.4391  0.9573
10373TIP3   OH252609   4.118   1.085   2.212 -0.3348  0.2994 -0.4912
10373TIP3    H152610   4.081   1.167   2.180  0.2743  0.1870 -1.5223
10373TIP3    H252611   4.208   1.086   2.179 -0.0913 -0.4276  0.1468
10374TIP3   OH252612   4.118   2.317   4.568  0.2213  0.0340 -0.2155
10374TIP3    H152613   4.120   2.231   4.526  2.1099 -0.0580 -0.0300
10374TIP3    H252614   4.104   2.298   4.661  0.9953 -0.1036 -0.1242
10375TIP3   OH252615   0.628   4.536  12.521 -0.2585  0.0120  0.0304
10375TIP3    H152616   0.606   4.444  12.508  0.1173  0.2033 -2.4684
10375TIP3    H252617   0.570   4.583  12.461 -1.2824  1.5596  2.1097
10376TIP3   OH252618   3.662   0.952   2.470  0.7316 -0.3163 -0.3140
10376TIP3    H152619   3.589   1.002   2.506  2.5744  2.1484  0.2201
10376TIP3    H252620   3.667   0.980   2.378  0.6396 -0.9576 -0.5203
10377TIP3   OH252621   6.192   4.696   4.618  0.0360  0.0910  0.1029
10377TIP3    H152622   6.213   4.755   4.546 -2.0592 -0.3578 -0.9603
10377TIP3    H252623   6.269   4.640   4.627 -0.0997 -0.7022 -2.7203
10378TIP3   OH252624   6.609   0.587  13.943 -0.3478 -0.1957 -0.2859
10378TIP3    H152625   6.684   0.605  13.887 -1.2034 -2.1172 -2.2519
10378TIP3    H252626   6.634   0.510  13.994 -1.0828 -1.2158 -1.3782
10379TIP3   OH252627   0.876   3.944   2.084 -0.3379  0.5428  0.2207
10379TIP3    H152628   0.782   3.949   2.096 -0.1626  1.5230  1.3289
10379TIP3    H252629   0.887   3.923   1.991 -1.6418  0.0154  0.1649
10380TIP3   OH252630   0.800   2.681  12.742  0.0461 -0.3873  0.4371
10380TIP3    H152631   0.862   2.670  12.814  0.7197  0.1775 -0.0409
10380TIP3    H252632   0.849   2.655  12.664 -0.6050 -0.7763  0.1432
10381TIP3   OH252633   0.135   5.368  11.896 -0.1727 -0.5533 -0.6401
10381TIP3    H152634   0.137   5.368  11.800  0.2439 -0.6682 -0.6337
10381TIP3    H252635   0.059   5.422  11.919 -0.9474 -1.4458 -1.0429
10382TIP3   OH252636   1.287   5.756   1.221  0.2355 -0.0597  0.2101
10382TIP3    H152637   1.300   5.810   1.299  1.8976  1.8071 -1.2550
10382TIP3    H252638   1.262   5.819   1.153 -1.8407 -1.7128 -0.6697
10383TIP3   OH252639   3.857   1.386   0.218  0.4694 -0.5424  0.2357
10383TIP3    H152640   3.934   1.353   0.264 -0.2028 -0.5495  1.4013
10383TIP3    H252641   3.810   1.307   0.191  0.2288 -0.5516  0.6631
10384TIP3   OH252642   0.975   0.907  16.701  0.6149 -0.1743 -0.1447
10384TIP3    H152643   0.891   0.952  16.714  0.0884 -1.2162  0.1320
10384TIP3    H252644   1.016   0.909  16.788  0.9582  0.4750 -0.3157
10385TIP3   OH252645   3.566   0.640   0.160 -0.8171 -0.1198  0.1618
10385TIP3    H152646   3.507   0.619   0.087 -1.4447 -0.4192  0.7426
10385TIP3    H252647   3.578   0.735   0.155  1.1602 -0.3829 -1.8264
10386TIP3   OH252648   5.195   2.261   1.009  0.0309  0.3344 -0.3152
10386TIP3    H152649   5.177   2.295   0.921  1.6608  2.9826  0.2514
10386TIP3    H252650   5.285   2.228   1.003  0.3549  1.0431  0.4462
10387TIP3   OH252651   5.043   4.394  16.962 -0.1029 -0.3191 -0.0113
10387TIP3    H152652   5.014   4.325  16.902  0.2333 -0.2550 -0.2519
10387TIP3    H252653   5.014   4.475  16.919  3.5356  0.0524 -2.1671
10388TIP3   OH252654   2.176   6.247   5.202 -0.0057 -0.0521  0.4013
10388TIP3    H152655   2.205   6.198   5.279  0.0637  1.2112  1.2177
10388TIP3    H252656   2.097   6.202   5.173  0.2105 -0.8010  0.9590
10389TIP3   OH252657   6.771   6.255   5.276  0.3268 -0.8369 -0.1677
10389TIP3    H152658   6.676   6.262   5.285 -0.1468 -3.7608 -1.7782
10389TIP3    H252659   6.805   6.306   5.350 -2.4327  0.4723  0.3549
10390TIP3   OH252660   5.702   2.416  12.404 -0.2614 -0.0984 -0.1300
10390TIP3    H152661   5.610   2.394  12.420 -0.5865  2.1459  1.6815
10390TIP3    H252662   5.742   2.415  12.491  1.3436 -0.6050 -0.8397
10391TIP3   OH252663   3.037   0.597  12.743 -0.2554  0.0994  0.2182
10391TIP3    H152664   3.107   0.543  12.780  0.5671  0.8802 -0.1620
10391TIP3    H252665   3.045   0.681  12.787  1.3686  1.3905 -2.2433
10392TIP3   OH252666   2.479   2.909  16.905 -0.3235 -0.6181 -0.1181
10392TIP3    H152667   2.501   2.816  16.905 -0.6496 -0.7084 -1.1805
10392TIP3    H252668   2.392   2.913  16.945 -0.1819 -0.7316  0.2043
10393TIP3   OH252669   1.125   0.284   4.325 -0.0295 -0.2856 -0.3325
10393TIP3    H152670   1.086   0.368   4.350 -0.1318 -0.7429  1.1476
10393TIP3    H252671   1.102   0.225   4.397  0.1620 -1.5528 -1.2745
10394TIP3   OH252672   0.464   0.671  12.338 -0.1523  0.4765  0.2387
10394TIP3    H152673   0.439   0.580  12.322  0.8974 -0.0870  1.6587
10394TIP3    H252674   0.547   0.666  12.384 -0.2525  2.1583  0.6828
10395TIP3   OH252675   4.200   3.610   3.839 -0.3144 -0.1073  0.1821
10395TIP3    H152676   4.147   3.588   3.915 -0.9494 -0.0857 -0.2404
10395TIP3    H252677   4.284   3.638   3.875 -0.1909 -1.2592  0.8147
10396TIP3   OH252678   0.170   2.683  15.180 -0.2688 -0.8124 -0.7486
10396TIP3    H152679   0.228   2.760  15.181 -0.8498 -0.3668 -0.2954
10396TIP3    H252680   0.083   2.719  15.200 -0.7421 -1.4449 -1.6108
10397TIP3   OH252681   1.151   6.126   1.127 -0.0213 -0.0871  0.4011
10397TIP3    H152682   1.097   6.193   1.087 -1.5295  0.3850  2.9868
10397TIP3    H252683   1.115   6.115   1.215  1.2235 -3.1022  0.6746
10398TIP3   OH252684   1.724   2.965  16.311 -0.0429 -0.5544  0.1312
10398TIP3    H152685   1.637   2.938  16.340  0.2757 -0.4396  1.2058
10398TIP3    H252686   1.747   3.038  16.367  1.0957 -1.1173  0.4160
10399TIP3   OH252687   5.886   6.149  14.404  0.1551  0.1453  0.3061
10399TIP3    H152688   5.934   6.122  14.326 -1.0520  0.8456 -0.7015
10399TIP3    H252689   5.954   6.163  14.470  1.3579  1.1691 -1.0873
10400TIP3   OH252690   2.435   3.177  12.751 -0.3420  0.6555 -0.6289
10400TIP3    H152691   2.441   3.171  12.656  1.1575  0.1953 -0.5299
10400TIP3    H252692   2.359   3.123  12.774 -0.0281 -0.1799 -1.4921
10401TIP3   OH252693   2.709   0.931  13.238 -0.9009 -0.5767  0.2740
10401TIP3    H152694   2.795   0.955  13.273  0.1753 -1.4068 -1.6987
10401TIP3    H252695   2.650   0.999  13.272  0.2811 -0.6111  2.5738
10402TIP3   OH252696   3.699   3.049   2.349  0.0953 -0.2462  0.6037
10402TIP3    H152697   3.778   3.103   2.345  0.4051 -0.7383 -0.1982
10402TIP3    H252698   3.652   3.081   2.426  0.8377  0.3788  0.8126
10403TIP3   OH252699   3.549   2.440  14.060  0.1231  0.1557 -0.2679
10403TIP3    H152700   3.581   2.495  13.988  2.0931 -2.0965 -1.2452
10403TIP3    H252701   3.611   2.455  14.131  0.6573 -0.7348 -0.5311
10404TIP3   OH252702   4.926   3.472  16.578  0.4466  0.5108 -0.1263
10404TIP3    H152703   4.840   3.470  16.537 -0.1122  0.5989  1.0003
10404TIP3    H252704   4.966   3.553  16.547  0.2621  0.2997 -0.9229
10405TIP3   OH252705   6.284   5.843  11.493  0.2437 -0.8007 -0.0935
10405TIP3    H152706   6.306   5.931  11.464  0.0325 -0.2756  1.2502
10405TIP3    H252707   6.266   5.795  11.412  0.6894  0.2873 -0.8665
10406TIP3   OH252708   4.783   3.068   5.897 -0.0352  0.0671  0.2549
10406TIP3    H152709   4.809   3.142   5.951 -0.5731 -0.8162  1.7696
10406TIP3    H252710   4.834   3.078   5.817  1.8325  0.6610  1.4666
10407TIP3   OH252711   1.887   0.051   5.871 -0.0005 -0.2201 -0.0289
10407TIP3    H152712   1.959   0.044   5.933 -0.9724  0.1316  1.1729
10407TIP3    H252713   1.858   0.142   5.877 -0.5201 -0.3402 -0.5308
10408TIP3   OH252714   3.535   4.194  11.476 -0.1552  0.5287  0.0538
10408TIP3    H152715   3.483   4.224  11.550 -1.9096 -0.9922 -0.4874
10408TIP3    H252716   3.471   4.159  11.414  1.5268 -1.9795 -0.4074
10409TIP3   OH252717   0.588   3.890  15.279  0.5356  0.0260 -0.4815
10409TIP3    H152718   0.493   3.899  15.272  0.5429 -0.6020 -1.4413
10409TIP3    H252719   0.602   3.799  15.304  0.8895  0.1367 -0.2676
10410TIP3   OH252720   1.631   0.000   6.137  0.4536 -0.0716  0.1476
10410TIP3    H152721   1.600   0.064   6.201  0.1266  0.1066 -0.1821
10410TIP3    H252722   1.714  -0.031   6.172  1.3215  1.5591 -0.3385
10411TIP3   OH252723   0.398   5.531   6.343  0.4403 -0.0747 -0.3677
10411TIP3    H152724   0.493   5.535   6.357  0.4711  0.7131 -0.7819
10411TIP3    H252725   0.363   5.606   6.392  0.1298  0.1868 -0.9784
10412TIP3   OH252726   0.168   1.080   6.880  0.1456 -0.4079  0.1331
10412TIP3    H152727   0.098   1.042   6.826 -0.0710  0.3044 -0.0990
10412TIP3    H252728   0.233   1.010   6.888 -1.7074 -2.0215  2.5001
10413TIP3   OH252729   0.084   3.601  13.129  0.1702  0.3054  0.3263
10413TIP3    H152730   0.166   3.560  13.156  0.0766 -0.5984 -0.6929
10413TIP3    H252731   0.103   3.641  13.044 -0.7693 -1.1369 -0.6157
10414TIP3   OH252732   5.895   5.381   2.735  0.5713  0.2068 -0.1572
10414TIP3    H152733   5.952   5.456   2.721 -0.9476  1.5993  0.7007
10414TIP3    H252734   5.860   5.394   2.823  1.2414 -2.2307  0.5409
10415TIP3   OH252735   1.849   3.767  12.496  0.1398  0.6316 -0.9636
10415TIP3    H152736   1.857   3.674  12.480 -0.9307  0.2551  0.4102
10415TIP3    H252737   1.764   3.776  12.541  1.2976  1.9199  1.1179
10416TIP3   OH252738   6.682   0.419  15.714 -0.3069 -0.0025  0.3474
10416TIP3    H152739   6.699   0.465  15.797  0.1322 -1.6844  1.2192
10416TIP3    H252740   6.727   0.472  15.648 -0.0934  1.0084  1.2711
10417TIP3   OH252741   6.139   6.618  14.900  0.0223  0.0107 -0.2800
10417TIP3    H152742   6.205   6.549  14.893 -0.9563 -1.2679  2.1117
10417TIP3    H252743   6.101   6.623  14.812  1.0361 -1.5477 -0.8585
10418TIP3   OH252744   3.882   0.982  11.492 -0.2336 -0.0502 -0.4185
10418TIP3    H152745   3.815   1.045  11.466  1.1596  0.8991 -1.8822
10418TIP3    H252746   3.928   1.024  11.564 -0.4719 -0.2095 -0.1707
10419TIP3   OH252747   3.963   0.642  16.661 -0.0169 -0.0745 -0.3729
10419TIP3    H152748   3.962   0.546  16.657 -0.1041 -0.1980  1.5778
10419TIP3    H252749   4.046   0.663  16.704 -0.8806  0.6058  1.0146
10420TIP3   OH252750   5.094   6.429  14.205  0.4124  0.4363  0.2229
10420TIP3    H152751   5.039   6.371  14.258 -0.1718  1.5964  0.9320
10420TIP3    H252752   5.183   6.399  14.222  0.2602  0.8914  2.0618
10421TIP3   OH252753   4.347   0.676  13.336  0.0930 -0.9220  0.0602
10421TIP3    H152754   4.371   0.618  13.408 -2.3599 -0.7539  1.1148
10421TIP3    H252755   4.319   0.618  13.266  0.5104 -1.0428 -0.0099
10422TIP3   OH252756   5.112   0.862   5.162  0.4488 -0.1314  0.1254
10422TIP3    H152757   5.059   0.888   5.236  0.2497  0.0169 -0.0681
10422TIP3    H252758   5.167   0.938   5.142 -0.6712  0.4448 -0.9207
10423TIP3   OH252759   0.221   3.748   0.178 -0.0474 -0.0686  0.3440
10423TIP3    H152760   0.231   3.819   0.115  2.7407  0.0881  0.8552
10423TIP3    H252761   0.300   3.751   0.232 -0.3253 -2.8953  1.0928
10424TIP3   OH252762   0.189   1.497   6.068 -1.1964 -0.1854 -0.0248
10424TIP3    H152763   0.139   1.417   6.048  1.0128 -1.1725 -2.1287
10424TIP3    H252764   0.171   1.554   5.993 -0.7730  0.2618  0.2146
10425TIP3   OH252765   0.316   1.627  13.027 -0.2280 -0.1198  0.2027
10425TIP3    H152766   0.327   1.532  13.019 -0.9141 -0.0825 -1.6167
10425TIP3    H252767   0.350   1.647  13.114 -1.3381 -2.2180  1.2166
10426TIP3   OH252768   2.219   0.932   1.945  0.2422  0.1273  0.2942
10426TIP3    H152769   2.154   0.864   1.927 -0.9186  1.3929 -0.4694
10426TIP3    H252770   2.281   0.925   1.872 -0.2471  0.3114 -0.1497
10427TIP3   OH252771   5.651   4.765   4.570  0.3748  0.7442 -0.1315
10427TIP3    H152772   5.735   4.741   4.531  0.3277  1.7335 -0.8896
10427TIP3    H252773   5.666   4.758   4.664  0.5631 -1.4811 -0.2692
10428TIP3   OH252774   6.217   4.029   1.001  0.3276  0.3227 -0.3693
10428TIP3    H152775   6.190   3.958   1.059  1.0719 -0.1262 -0.5598
10428TIP3    H252776   6.283   3.990   0.943 -1.1158  0.4745 -2.2164
10429TIP3   OH252777   0.909   4.581  13.624  0.6077 -0.1021 -0.6931
10429TIP3    H152778   0.987   4.602  13.675 -0.3432 -0.1473  0.8707
10429TIP3    H252779   0.906   4.646  13.555  1.0770  1.0260  0.3224
10430TIP3   OH252780   0.726   2.785  14.061  0.2282  0.3812  0.3184
10430TIP3    H152781   0.733   2.792  13.966 -0.5197  0.4833  0.2658
10430TIP3    H252782   0.809   2.746  14.089  0.2020 -0.2320 -0.4413
10431TIP3   OH252783   5.481   6.020   4.260  0.4584  0.4999 -0.0511
10431TIP3    H152784   5.514   5.953   4.200 -0.5133 -0.5431  0.5589
10431TIP3    H252785   5.412   6.065   4.210 -0.5054 -0.5147  0.3306
10432TIP3   OH252786   4.677   2.878  11.398  0.1621 -0.1332 -0.2087
10432TIP3    H152787   4.701   2.835  11.480 -0.2906  0.2764  0.1453
10432TIP3    H252788   4.605   2.937  11.422 -0.0071 -0.0477 -0.9099
10433TIP3   OH252789   2.374   2.131   6.163  0.0402  0.2414  0.2278
10433TIP3    H152790   2.431   2.086   6.225 -0.7223 -0.0955  0.7055
10433TIP3    H252791   2.416   2.215   6.148  2.0505 -0.9950 -1.5076
10434TIP3   OH252792   2.503   5.556  14.042  0.3860 -0.0740 -0.3379
10434TIP3    H152793   2.443   5.542  13.969 -0.9937 -2.6029  1.1369
10434TIP3    H252794   2.447   5.591  14.112  0.9316 -0.9496  0.5616
10435TIP3   OH252795   4.111   2.807   3.796  0.2277  0.0341  0.1200
10435TIP3    H152796   4.195   2.793   3.838  0.3719 -0.1740 -0.2327
10435TIP3    H252797   4.062   2.725   3.812 -1.3196  1.4263  3.4961
10436TIP3   OH252798   2.189   6.519  11.644 -0.2246 -0.4052 -0.1511
10436TIP3    H152799   2.270   6.470  11.631  0.3646  0.8840 -1.6469
10436TIP3    H252800   2.179   6.524  11.739  0.2782 -2.4011  0.0583
10437TIP3   OH252801   1.028   0.494   3.723  0.8492 -0.0877  0.0271
10437TIP3    H152802   1.122   0.506   3.707  1.1683 -0.5400  1.4037
10437TIP3    H252803   1.021   0.404   3.755  0.0004  0.0648  0.2767
10438TIP3   OH252804   1.913   1.721  13.988  0.3075  0.2417 -0.7681
10438TIP3    H152805   1.977   1.783  13.954  0.7113  0.5003  0.4020
10438TIP3    H252806   1.830   1.767  13.982  0.6942  1.2652  0.7979
10439TIP3   OH252807   0.546   4.610   0.355  0.0816 -0.4957  0.5171
10439TIP3    H152808   0.565   4.581   0.265 -1.2746 -2.4258  0.7902
10439TIP3    H252809   0.452   4.625   0.356  0.0053 -0.9855  1.7488
10440TIP3   OH252810   6.230   2.258   1.168 -0.5484 -0.2747 -0.3609
10440TIP3    H152811   6.186   2.189   1.218  0.6819 -0.8181  0.0120
10440TIP3    H252812   6.321   2.253   1.195 -0.0315  0.1002 -1.9029
10441TIP3   OH252813   3.785   3.656  15.311  0.1608  0.2960  0.6614
10441TIP3    H152814   3.875   3.689  15.308  0.5128 -0.6989 -0.8080
10441TIP3    H252815   3.794   3.562  15.325 -0.5398 -0.1321 -1.4834
10442TIP3   OH252816   2.498   1.542   6.670 -0.0055 -0.2572 -0.3420
10442TIP3    H152817   2.404   1.532   6.656 -0.2071  0.0935  0.6617
10442TIP3    H252818   2.535   1.456   6.650 -0.8613 -1.1467  1.6878
10443TIP3   OH252819   1.527   5.882  11.882  0.4831 -0.1159 -0.5029
10443TIP3    H152820   1.525   5.936  11.961  0.8598  0.4962 -0.9053
10443TIP3    H252821   1.447   5.829  11.887  0.0545  0.5571 -0.1603
10444TIP3   OH252822   3.000   1.826   3.942  0.2751  0.5425  0.6362
10444TIP3    H152823   3.021   1.740   3.976  1.2408 -0.2809 -1.8457
10444TIP3    H252824   3.038   1.887   4.006 -0.6861 -0.7878  2.5852
10445TIP3   OH252825   5.585   3.449  11.315  0.4202  0.5302 -0.5038
10445TIP3    H152826   5.678   3.441  11.293  0.7302 -0.5456  1.0203
10445TIP3    H252827   5.548   3.502  11.244  2.1977  1.0532 -1.1010
10446TIP3   OH252828   5.081   2.596   2.583  0.3014 -0.0881 -0.4795
10446TIP3    H152829   5.173   2.575   2.569  0.5807  0.5990  0.2499
10446TIP3    H252830   5.078   2.636   2.670 -0.6769 -0.0381 -0.5200
10447TIP3   OH252831   0.801   3.037   2.871  0.7316 -0.3787 -0.0063
10447TIP3    H152832   0.795   3.126   2.904  1.1507 -0.5274  0.4871
10447TIP3    H252833   0.783   2.982   2.947  0.4509 -0.7150 -0.3147
10448TIP3   OH252834   0.191   3.088   3.933  0.0627  0.2801 -0.1927
10448TIP3    H152835   0.169   3.039   4.013 -1.7457 -1.7530 -1.8035
10448TIP3    H252836   0.107   3.120   3.901  0.5700 -0.0003 -1.9009
10449TIP3   OH252837   4.850   0.659   0.927 -0.4840  0.1849  0.1741
10449TIP3    H152838   4.922   0.714   0.958 -0.0011 -1.0067  1.2729
10449TIP3    H252839   4.886   0.614   0.850 -0.9273  1.4567 -0.8133
10450TIP3   OH252840   4.984   1.697  16.912 -0.5485 -0.2203 -0.0293
10450TIP3    H152841   4.959   1.619  16.961 -1.8366  0.0476 -0.2298
10450TIP3    H252842   5.053   1.738  16.965 -1.1587 -0.5113  1.0137
10451TIP3   OH252843   5.326   2.861   5.897 -0.6329 -0.1641 -0.4838
10451TIP3    H152844   5.285   2.811   5.827  0.9977 -2.0547 -0.1717
10451TIP3    H252845   5.327   2.802   5.972  2.7366 -0.3578 -0.5293
10452TIP3   OH252846   3.874   6.110   1.288  0.4072 -0.4148 -0.4004
10452TIP3    H152847   3.811   6.159   1.236  0.2878  0.6712  0.7485
10452TIP3    H252848   3.959   6.128   1.247  0.3797  0.8749  0.0797
10453TIP3   OH252849   5.353   2.582   3.844  0.0329 -0.4708  0.3580
10453TIP3    H152850   5.289   2.590   3.773  0.3117 -1.6531 -0.0528
10453TIP3    H252851   5.396   2.498   3.828  0.0473 -0.8100  1.9622
10454TIP3   OH252852   5.416   1.873   3.808  0.0274  0.3232 -0.1361
10454TIP3    H152853   5.372   1.889   3.891  1.6004 -0.6092  0.9292
10454TIP3    H252854   5.381   1.790   3.777 -0.0631  0.3325 -0.0576
10455TIP3   OH252855   6.606   5.598   2.162  0.0568  0.1726 -0.1449
10455TIP3    H152856   6.635   5.594   2.070 -1.1595 -0.7545 -0.5086
10455TIP3    H252857   6.511   5.602   2.157  0.0382  2.3926  1.0528
10456TIP3   OH252858   2.235   2.162  13.578 -0.0986 -0.2797 -0.4091
10456TIP3    H152859   2.324   2.179  13.547  0.1013 -0.6928 -0.0807
10456TIP3    H252860   2.230   2.066  13.583 -0.7474 -0.2794 -0.9621
10457TIP3   OH252861   0.544   1.475  13.604 -0.1425  0.9631 -0.1417
10457TIP3    H152862   0.461   1.522  13.615 -1.9837 -1.9722 -0.4511
10457TIP3    H252863   0.574   1.501  13.516 -2.3320 -0.1077 -1.2950
10458TIP3   OH252864   5.323   6.451   2.194 -0.0825 -0.3270 -0.1972
10458TIP3    H152865   5.401   6.424   2.145  0.3265  0.3960  0.0359
10458TIP3    H252866   5.254   6.455   2.128 -0.0425 -1.4397 -0.3213
10459TIP3   OH252867   3.212   3.146  14.215 -0.1975 -0.3047 -0.0722
10459TIP3    H152868   3.231   3.065  14.169  0.6333  0.3606 -0.9419
10459TIP3    H252869   3.264   3.141  14.295  0.2510 -0.4100 -0.3677
10460TIP3   OH252870   1.319   1.083   2.128 -0.2350 -0.0855  0.0869
10460TIP3    H152871   1.262   1.155   2.100  1.2453  0.5295 -1.5676
10460TIP3    H252872   1.344   1.040   2.047  0.8278 -0.9654  0.8566
10461TIP3   OH252873   4.803   2.206   1.321 -0.1466  0.1249 -0.1543
10461TIP3    H152874   4.888   2.221   1.280 -0.6881  1.0222 -0.9984
10461TIP3    H252875   4.781   2.289   1.362 -0.3058 -0.3135  0.6544
10462TIP3   OH252876   0.110   5.658  16.933 -0.0586  0.1458  0.1847
10462TIP3    H152877   0.190   5.688  16.891  0.3431  0.6779  1.3031
10462TIP3    H252878   0.071   5.737  16.971  0.2029 -0.4666  1.8041
10463TIP3   OH252879   5.195   2.600  16.723 -0.0372  0.1548  0.1234
10463TIP3    H152880   5.285   2.603  16.756 -0.4575  0.5954  1.2985
10463TIP3    H252881   5.158   2.522  16.764 -0.1910 -0.0237 -0.3570
10464TIP3   OH252882   6.188   3.382   1.354  0.2098  0.3099 -0.0810
10464TIP3    H152883   6.120   3.366   1.420  0.8093  1.5496  0.8761
10464TIP3    H252884   6.148   3.354   1.272 -0.5781 -1.2394  0.7737
10465TIP3   OH252885   5.774   0.455   5.136 -0.3062 -0.2367 -0.4874
10465TIP3    H152886   5.815   0.523   5.190  2.2192 -1.9269 -0.1088
10465TIP3    H252887   5.776   0.491   5.047 -0.5993  0.8351 -0.0882
10466TIP3   OH252888   3.549   0.954  12.084 -0.1800  0.1471 -0.0001
10466TIP3    H152889   3.557   1.048  12.100 -1.7216  0.3065 -0.0294
10466TIP3    H252890   3.594   0.940  12.000  0.5191  0.7509  0.2652
10467TIP3   OH252891   5.224   5.525   0.643 -0.3392  0.2707  0.7097
10467TIP3    H152892   5.188   5.564   0.722  1.1214 -0.7966  1.9501
10467TIP3    H252893   5.147   5.500   0.592 -1.4612 -1.9396  3.2579
10468TIP3   OH252894   2.374   2.151   1.720 -0.6884 -0.2587 -0.3810
10468TIP3    H152895   2.388   2.169   1.627 -0.8404  0.9619 -0.1952
10468TIP3    H252896   2.406   2.230   1.764 -1.1185 -0.5950  0.5572
10469TIP3   OH252897   6.068   2.925  15.982  0.1550 -0.1107  0.0414
10469TIP3    H152898   5.997   2.981  16.012  1.3850  1.4986  0.0858
10469TIP3    H252899   6.143   2.983  15.975  1.8772 -2.0237  1.4199
10470TIP3   OH252900   1.127   5.378  12.461 -0.0388  0.2973  0.4711
10470TIP3    H152901   1.107   5.314  12.528 -1.1459 -1.3582 -1.3502
10470TIP3    H252902   1.211   5.349  12.424 -1.2216 -1.0793 -1.3311
10471TIP3   OH252903   0.541   4.489   5.675 -0.3515  1.3697  0.0142
10471TIP3    H152904   0.591   4.416   5.639 -1.1223  1.0867 -0.4986
10471TIP3    H252905   0.571   4.495   5.766 -2.3794 -1.5591  1.0294
10472TIP3   OH252906   0.836   0.460  14.429  0.1913  0.3645 -0.0765
10472TIP3    H152907   0.882   0.456  14.513 -1.4095 -1.3151  0.8025
10472TIP3    H252908   0.894   0.417  14.367  0.3270 -0.7094  0.7575
10473TIP3   OH252909   2.007   1.280   6.327 -0.1602 -0.1703 -0.3557
10473TIP3    H152910   1.972   1.207   6.377 -0.6782  0.0627 -0.3654
10473TIP3    H252911   1.938   1.347   6.332 -1.0412 -0.7787 -2.8604
10474TIP3   OH252912   6.487   2.176   6.521 -0.2735  0.0541  0.2649
10474TIP3    H152913   6.399   2.170   6.484 -1.2828  3.3065  1.7010
10474TIP3    H252914   6.520   2.261   6.492  2.3633 -0.9691 -0.0310
10475TIP3   OH252915   5.742   0.989  11.495  0.3768  0.3141 -0.2823
10475TIP3    H152916   5.773   1.054  11.558 -1.5189 -0.2933  1.3715
10475TIP3    H252917   5.735   0.908  11.546 -0.3475 -0.4133 -1.4987
10476TIP3   OH252918   0.077   4.725   4.868  0.3170  0.8104 -0.2132
10476TIP3    H152919   0.089   4.813   4.904  1.6332  1.1207 -1.3232
10476TIP3    H252920   0.142   4.719   4.798 -1.1620 -0.2785 -1.5724
10477TIP3   OH252921   6.177   1.296   3.427 -0.5305 -0.2400  0.0110
10477TIP3    H152922   6.162   1.259   3.514  0.0549  0.9452  0.6348
10477TIP3    H252923   6.089   1.301   3.388 -0.7888 -0.8327  0.5009
10478TIP3   OH252924   6.518   2.140  14.350 -0.4007 -0.2989  0.0256
10478TIP3    H152925   6.445   2.139  14.411 -0.2801  0.0729  0.1825
10478TIP3    H252926   6.591   2.174  14.401  0.2114 -1.8420  0.2181
10479TIP3   OH252927   2.678   4.520   6.528 -0.4779  0.8331 -0.2418
10479TIP3    H152928   2.640   4.607   6.515  0.2444  1.6311  2.3172
10479TIP3    H252929   2.773   4.534   6.520 -0.2475  0.6596  1.6122
10480TIP3   OH252930   1.592   0.076  11.735 -0.7559 -0.0116 -0.0076
10480TIP3    H152931   1.553   0.141  11.793 -0.1012 -0.5013  1.0045
10480TIP3    H252932   1.581   0.113  11.647  0.1899  1.7924  0.5681
10481TIP3   OH252933   2.177   4.857   6.366  0.0602  0.6222  0.2792
10481TIP3    H152934   2.201   4.903   6.286 -0.7789  0.9699  0.2223
10481TIP3    H252935   2.261   4.841   6.410  0.7427 -1.1423 -1.4726
10482TIP3   OH252936   5.949   4.596  16.090  0.9168  0.2624 -0.0713
10482TIP3    H152937   5.950   4.662  16.020 -2.9179  0.0131 -0.5483
10482TIP3    H252938   5.963   4.647  16.170 -1.2462  1.6356 -0.4974
10483TIP3   OH252939   4.495   6.617   0.772 -0.4034  0.2654 -0.4292
10483TIP3    H152940   4.519   6.527   0.794  0.3936  0.6011  0.1330
10483TIP3    H252941   4.503   6.621   0.677  0.7727  0.0632 -0.3559
10484TIP3   OH252942   4.875   1.174  13.849  0.0944 -0.5006 -0.3645
10484TIP3    H152943   4.799   1.218  13.886  0.3854  0.5993 -1.0504
10484TIP3    H252944   4.943   1.241  13.844  1.7786 -1.8816  2.0162
10485TIP3   OH252945   2.973   0.485  15.239  0.0999  0.2389  0.3688
10485TIP3    H152946   3.057   0.532  15.238 -0.1484  0.7259  1.3754
10485TIP3    H252947   2.996   0.394  15.257  0.7422 -0.4470 -3.1257
10486TIP3   OH252948   5.938   3.858   4.629  0.3132 -0.6496 -0.8140
10486TIP3    H152949   5.851   3.852   4.591 -0.6484 -1.7706  1.3912
10486TIP3    H252950   5.980   3.776   4.605 -0.6998 -1.8764  1.2837
10487TIP3   OH252951   0.308   3.676   3.776  0.3220 -0.4442  0.3413
10487TIP3    H152952   0.318   3.771   3.777  0.4223 -0.4466  1.9257
10487TIP3    H252953   0.215   3.662   3.758  0.0106  0.0006  1.5273
10488TIP3   OH252954   1.731   0.222   1.229 -0.3244 -0.5996 -0.0148
10488TIP3    H152955   1.715   0.288   1.296 -1.0084 -0.3052 -0.4607
10488TIP3    H252956   1.684   0.145   1.259 -0.4106 -0.5504 -0.0234
10489TIP3   OH252957   5.135   5.708   2.869 -0.2834  0.1392 -0.2845
10489TIP3    H152958   5.146   5.632   2.812  1.5326 -0.4698  0.7859
10489TIP3    H252959   5.098   5.672   2.950 -0.3952  0.5687 -0.1433
10490TIP3   OH252960   2.538   2.017  16.887 -0.1500 -0.3152 -0.0725
10490TIP3    H152961   2.504   2.052  16.969  0.3403 -1.7560  0.7823
10490TIP3    H252962   2.504   2.076  16.820  2.1741  2.9514  1.3752
10491TIP3   OH252963   0.503   6.024   6.213 -0.7287 -0.3242  0.6227
10491TIP3    H152964   0.422   6.075   6.205 -0.3679  0.4523  1.6713
10491TIP3    H252965   0.552   6.068   6.283  0.7462 -0.5817 -0.2159
10492TIP3   OH252966   3.899   2.078   2.562 -0.5079 -0.0493  0.1724
10492TIP3    H152967   3.882   2.158   2.612 -0.8561  0.6256 -1.0061
10492TIP3    H252968   3.816   2.058   2.519  0.1713  0.2197 -1.3098
10493TIP3   OH252969   4.965   2.502  11.798 -0.0846  0.1193 -0.5202
10493TIP3    H152970   5.057   2.529  11.804 -0.7753  2.2988  2.6552
10493TIP3    H252971   4.915   2.582  11.816 -2.5910 -1.2973 -0.7141
10494TIP3   OH252972   0.914   5.316   1.576 -0.4398  0.3783 -0.2103
10494TIP3    H152973   0.895   5.259   1.651 -0.6244  1.4011  0.5343
10494TIP3    H252974   0.915   5.256   1.501  0.0951 -0.7163  0.6405
10495TIP3   OH252975   2.241   4.485   3.364 -0.3977 -0.2856  0.1777
10495TIP3    H152976   2.231   4.511   3.272 -1.2339  2.2363  0.9024
10495TIP3    H252977   2.155   4.450   3.388  0.0979 -1.8673 -0.1965
10496TIP3   OH252978   1.234   3.548   0.178  0.3053  0.0051 -0.4285
10496TIP3    H152979   1.196   3.554   0.266 -1.2859  0.4480 -1.0974
10496TIP3    H252980   1.312   3.494   0.189  0.6160  0.7398  1.3986
10497TIP3   OH252981   0.031   5.094   1.532  0.1233  0.1474  0.2398
10497TIP3    H152982   0.049   5.073   1.624  0.8138 -1.2293 -0.1759
10497TIP3    H252983  -0.061   5.072   1.520  0.5004 -1.5978  0.1573
10498TIP3   OH252984   3.871   4.817   2.622  0.0297 -0.5367 -0.7030
10498TIP3    H152985   3.869   4.722   2.616  0.3625 -0.5932 -0.0688
10498TIP3    H252986   3.797   4.846   2.569  0.2378 -1.1171 -1.3298
10499TIP3   OH252987   2.818   4.165   3.373 -0.3670 -0.9177 -0.3425
10499TIP3    H152988   2.833   4.083   3.420 -0.1425 -1.1097 -0.7511
10499TIP3    H252989   2.723   4.178   3.377 -0.2996 -0.6341  0.6665
10500TIP3   OH252990   5.577   5.589  12.767  0.0395 -0.1174  0.2346
10500TIP3    H152991   5.620   5.675  12.768  1.8517 -0.9579  1.6385
10500TIP3    H252992   5.565   5.567  12.860 -1.2648 -0.9857 -0.1135
10501TIP3   OH252993   2.154   5.768   1.612 -0.2131 -0.0592 -0.0825
10501TIP3    H152994   2.183   5.722   1.533  2.2315 -1.2581  1.4013
10501TIP3    H252995   2.106   5.701   1.662  1.6763 -0.5195  1.1998
10502TIP3   OH252996   1.077   4.093   2.945 -0.2695 -0.3199  0.5452
10502TIP3    H152997   1.162   4.120   2.910 -0.5931 -0.4150 -0.3354
10502TIP3    H252998   1.099   4.044   3.025  0.5118 -0.4664  0.2514
10503TIP3   OH252999   3.004   0.618   0.749  0.1679  0.1305 -0.0108
10503TIP3    H153000   2.925   0.609   0.801 -0.3551 -2.8706 -1.0744
10503TIP3    H253001   2.977   0.596   0.660  2.0404 -0.3710 -0.5152
10504TIP3   OH253002   4.353   1.059  12.571 -0.1398 -0.0660  0.9164
10504TIP3    H153003   4.348   0.988  12.508 -1.0128  0.8405 -0.0753
10504TIP3    H253004   4.279   1.116  12.550  0.7951  1.3794  1.3634
10505TIP3   OH253005   1.023   0.645  14.263 -0.0048 -0.1801  0.1592
10505TIP3    H153006   0.989   0.697  14.336 -0.1157  1.4509 -0.9940
10505TIP3    H253007   0.960   0.660  14.193  0.5374 -1.0652 -0.5250
10506TIP3   OH253008   3.070   5.043  13.139 -0.0112 -0.4742  0.6617
10506TIP3    H153009   3.082   4.950  13.123 -0.8153 -0.5125  0.2339
10506TIP3    H253010   3.159   5.077  13.149  0.3034 -1.2295  0.5082
10507TIP3   OH253011   0.018   0.996  11.992  0.1531  0.2355 -0.6200
10507TIP3    H153012  -0.051   0.947  12.037  1.3180  0.6635  1.8142
10507TIP3    H253013   0.093   0.936  11.993  1.1018  1.3600  0.9171
10508TIP3   OH253014   2.526   1.594  14.327 -0.8074 -0.2003 -0.1416
10508TIP3    H153015   2.550   1.657  14.396 -1.3839  0.4851 -0.5464
10508TIP3    H253016   2.477   1.526  14.373 -1.4086  0.3828  0.1144
10509TIP3   OH253017   2.365   3.029  16.503  0.1415 -0.1851 -0.4668
10509TIP3    H153018   2.459   3.045  16.505 -0.0005  0.5451  1.0542
10509TIP3    H253019   2.357   2.936  16.478  1.1904  0.0729 -1.8910
10510TIP3   OH253020   3.802   2.097  15.618  0.2703  0.3653  0.1370
10510TIP3    H153021   3.849   2.014  15.621 -0.5564 -0.0795  1.4325
10510TIP3    H253022   3.746   2.089  15.540 -2.9336 -2.1391  2.4045
10511TIP3   OH253023   3.612   2.598   5.818 -0.1403 -0.6283 -0.4010
10511TIP3    H153024   3.601   2.617   5.725 -0.9274  0.7313 -0.0586
10511TIP3    H253025   3.690   2.647   5.843 -0.9016  0.4234  0.0005
10512TIP3   OH253026   6.087   0.130  13.803  0.4012  0.7604 -0.1080
10512TIP3    H153027   6.082   0.121  13.898  1.5252 -0.0263 -0.1088
10512TIP3    H253028   6.152   0.065  13.776 -0.8015  0.0897 -1.5533
10513TIP3   OH253029   5.229   2.603  12.172  0.2215 -0.6673 -0.2828
10513TIP3    H153030   5.212   2.686  12.218 -2.9249 -1.2400 -0.2310
10513TIP3    H253031   5.211   2.536  12.238  0.6527 -1.4432 -0.9478
10514TIP3   OH253032   5.562   1.233  12.583 -0.0167  0.9774  0.6957
10514TIP3    H153033   5.485   1.234  12.639 -1.7257  0.4222 -1.5286
10514TIP3    H253034   5.542   1.170  12.514  2.9138 -0.0583  0.6344
10515TIP3   OH253035   5.946   4.282   3.736  0.5231 -0.1242 -0.2280
10515TIP3    H153036   5.988   4.290   3.822  0.5362 -0.3138 -0.2166
10515TIP3    H253037   5.984   4.203   3.698 -1.3485 -1.5569  0.6520
10516TIP3   OH253038   6.738   2.612  13.081 -0.4079  0.2039  0.1825
10516TIP3    H153039   6.808   2.674  13.064 -2.2616  2.0107 -1.3895
10516TIP3    H253040   6.695   2.601  12.996 -2.6355 -0.0294  1.2763
10517TIP3   OH253041   3.715   4.326  11.326  0.2829 -0.1364  0.2389
10517TIP3    H153042   3.701   4.309  11.232 -1.7528  0.8263  0.3147
10517TIP3    H253043   3.644   4.278  11.369  0.9053 -0.1548  1.2577
10518TIP3   OH253044   1.295   2.757  13.893 -0.0926  0.1810 -0.7990
10518TIP3    H153045   1.239   2.768  13.970  0.1424 -1.0749 -0.4322
10518TIP3    H253046   1.384   2.766  13.927 -0.0086  0.6305 -1.1186
10519TIP3   OH253047   1.074   5.155   2.654 -0.2332 -0.0504 -0.1941
10519TIP3    H153048   1.056   5.069   2.693  0.4702 -0.0377  0.1789
10519TIP3    H253049   1.029   5.153   2.570 -0.2903 -0.7579 -0.1546
10520TIP3   OH253050   4.425   4.268   1.163  0.7761 -0.1183  0.1272
10520TIP3    H153051   4.383   4.210   1.227  0.3164  0.6098  0.4926
10520TIP3    H253052   4.506   4.223   1.139  0.0577 -1.2941 -0.1898
10521TIP3   OH253053   0.742   6.327   1.859  0.1554 -0.2402 -0.2273
10521TIP3    H153054   0.826   6.372   1.849  0.3537 -0.4646  0.3881
10521TIP3    H253055   0.686   6.366   1.793  0.7167 -0.0140 -0.5738
10522TIP3   OH253056   0.443   2.796  13.894 -0.0586  0.3770  0.3888
10522TIP3    H153057   0.525   2.841  13.871  0.1957  0.2537  1.0484
10522TIP3    H253058   0.383   2.820  13.823  0.7839 -0.1822 -0.5485
10523TIP3   OH253059   5.754   0.973   1.401 -0.8402 -0.4150 -0.8920
10523TIP3    H153060   5.758   1.061   1.438  2.5380 -0.4978 -0.7438
10523TIP3    H253061   5.665   0.942   1.421 -1.0767  1.7108  1.9476
10524TIP3   OH253062   1.433   3.107  12.516  0.0174 -0.0429 -0.0414
10524TIP3    H153063   1.483   3.085  12.595 -1.1612  2.0114  1.3757
10524TIP3    H253064   1.496   3.150  12.459  0.3201  0.7863  0.9009
10525TIP3   OH253065   6.235   0.079  10.576 -0.3032  0.0887 -0.5153
10525TIP3    H153066   6.299   0.033  10.520 -0.8179 -1.8062  0.3865
10525TIP3    H253067   6.274   0.165  10.590  0.7227 -0.0358 -2.2675
10526TIP3   OH253068   5.153   5.034   2.552  0.0963  0.0426  0.5532
10526TIP3    H153069   5.228   4.978   2.568  0.9168  1.0521  0.3430
10526TIP3    H253070   5.186   5.104   2.496 -0.6514  1.2817  1.5935
10527TIP3   OH253071   5.600   0.969   3.902 -0.3498  0.0500 -0.1212
10527TIP3    H153072   5.648   1.007   3.828 -2.3544  0.5320 -1.2535
10527TIP3    H253073   5.643   0.885   3.918 -0.1116 -0.2598 -2.1156
10528TIP3   OH253074   0.755   0.507   3.946  0.3315 -0.4928 -0.3786
10528TIP3    H153075   0.782   0.441   3.882  0.9815 -0.3449 -0.2659
10528TIP3    H253076   0.830   0.516   4.005 -0.3444 -0.8053  0.5646
10529TIP3   OH253077   5.646   3.866   4.831  0.3806 -0.1271  0.2938
10529TIP3    H153078   5.733   3.852   4.868  0.0242 -2.2938  0.4108
10529TIP3    H253079   5.645   3.959   4.808  2.3339  0.1854  1.2567
10530TIP3   OH253080   3.470   2.692   1.752  0.3228 -0.2072  0.7992
10530TIP3    H153081   3.480   2.747   1.674 -0.6233  0.5233  1.1685
10530TIP3    H253082   3.385   2.650   1.740 -0.2970  0.6911  1.8934
10531TIP3   OH253083   4.513   3.956   4.614  0.3389 -0.9293  0.2017
10531TIP3    H153084   4.424   3.924   4.607  0.5127 -1.7908  1.6677
10531TIP3    H253085   4.560   3.888   4.662  2.0959 -1.0469 -1.5200
10532TIP3   OH253086   1.348   3.660   3.237 -0.3471  0.2804 -0.1256
10532TIP3    H153087   1.341   3.665   3.332  1.3954  0.7669  0.0113
10532TIP3    H253088   1.390   3.575   3.220 -0.6207  0.2090 -0.4551
10533TIP3   OH253089   5.491   1.442   5.012 -0.4773  0.7591  0.3856
10533TIP3    H153090   5.455   1.373   4.957  0.7912 -0.2269  0.7668
10533TIP3    H253091   5.428   1.451   5.083  0.7246 -2.1300  1.9759
10534TIP3   OH253092   4.250   4.110   4.169  0.3832 -0.1225  0.5502
10534TIP3    H153093   4.285   4.145   4.088  0.4036  0.3043  0.7421
10534TIP3    H253094   4.155   4.116   4.159  0.3548 -1.2720  0.0343
10535TIP3   OH253095   6.581   0.388  12.142 -0.7578  0.7701  0.2903
10535TIP3    H153096   6.526   0.440  12.201 -0.6628  0.0698  1.0074
10535TIP3    H253097   6.522   0.321  12.108 -0.1659 -0.5773  1.7953
10536TIP3   OH253098   6.302   2.727   5.212  0.6643 -0.1791  0.3162
10536TIP3    H153099   6.352   2.798   5.252  1.1007 -0.6945  0.6959
10536TIP3    H253100   6.261   2.767   5.135  0.5210  0.6057  0.7818
10537TIP3   OH253101   4.571   3.311   0.303  0.4975 -0.3646  0.6317
10537TIP3    H153102   4.620   3.308   0.221 -1.1487  1.4484 -0.5115
10537TIP3    H253103   4.615   3.379   0.354  0.2573  0.0089  0.3475
10538TIP3   OH253104   1.718   4.552  14.397  0.1567 -0.6325 -0.1514
10538TIP3    H153105   1.624   4.553  14.418  0.0333 -4.2256  0.0903
10538TIP3    H253106   1.757   4.498  14.466  2.5291  1.0050 -0.0894
10539TIP3   OH253107   3.808   3.987  12.486 -0.1136  0.0197 -0.5300
10539TIP3    H153108   3.790   4.069  12.440  0.7953  0.0958 -0.7813
10539TIP3    H253109   3.838   3.927  12.416 -1.2941 -0.7035 -0.4392
10540TIP3   OH253110   1.703   4.438   0.019  0.1402  0.5515 -0.2496
10540TIP3    H153111   1.756   4.518   0.010  1.3450 -0.3089 -1.2650
10540TIP3    H253112   1.644   4.456   0.091  0.5601  2.2717 -0.2941
10541TIP3   OH253113   4.740   0.392   0.667 -0.0707  0.1632 -0.2014
10541TIP3    H153114   4.717   0.367   0.577 -0.1777 -0.0830 -0.1081
10541TIP3    H253115   4.820   0.443   0.658  1.3883 -2.0133 -0.2255
10542TIP3   OH253116   2.023   1.412  13.433  0.0092 -0.4022  0.0926
10542TIP3    H153117   2.100   1.374  13.476  0.2097 -0.6012 -0.4268
10542TIP3    H253118   1.957   1.417  13.502  1.0186  1.3920  0.9901
10543TIP3   OH253119   2.230   0.951   5.231  0.2325 -0.2919 -0.2078
10543TIP3    H153120   2.201   0.975   5.319  0.0567 -0.5806 -0.1846
10543TIP3    H253121   2.316   0.911   5.244  0.2184 -0.3095 -0.1692
10544TIP3   OH253122   2.416   3.433  16.344  0.5321 -0.0483  0.8968
10544TIP3    H153123   2.434   3.393  16.259  0.7020  0.6153  0.6131
10544TIP3    H253124   2.476   3.389  16.404  0.5878 -0.3439  0.6293
10545TIP3   OH253125   6.284   5.209   4.533  0.5252  0.9197  0.5073
10545TIP3    H153126   6.217   5.155   4.490 -0.1330  0.9818  1.4187
10545TIP3    H253127   6.242   5.294   4.545 -0.1520  0.2832  3.2371
10546TIP3   OH253128   1.983   6.523  10.926 -0.3244 -0.2978 -0.9176
10546TIP3    H153129   1.970   6.602  10.977 -2.4918  0.5395 -2.6144
10546TIP3    H253130   1.979   6.452  10.990  1.4686  0.8859  0.6055
10547TIP3   OH253131   2.143   2.834   0.076  0.2070 -1.0040 -0.1170
10547TIP3    H153132   2.236   2.838   0.057 -0.1014  0.6070 -1.5144
10547TIP3    H253133   2.102   2.886   0.007 -1.9272 -3.3138 -0.7233
10548TIP3   OH253134   0.543   2.662  15.716  0.4304  0.3141  0.6274
10548TIP3    H153135   0.456   2.667  15.677  0.2538 -0.9779  0.8028
10548TIP3    H253136   0.602   2.641  15.644  0.1145 -1.9993  0.9814
10549TIP3   OH253137   4.414   1.778  16.431 -0.4580  0.0684  0.2679
10549TIP3    H153138   4.496   1.730  16.445 -0.9079 -0.2704  2.0104
10549TIP3    H253139   4.353   1.711  16.399 -0.2597  0.1600 -0.3077
10550TIP3   OH253140   6.230   6.480  11.066  0.2227  0.8771 -0.7195
10550TIP3    H153141   6.230   6.446  10.977 -0.6614  1.2863 -0.8865
10550TIP3    H253142   6.138   6.494  11.086  0.3958  0.6571  0.3137
10551TIP3   OH253143   2.813   2.821   5.131 -0.1608 -0.1296  0.0054
10551TIP3    H153144   2.808   2.843   5.038 -1.2935 -0.9618 -0.1457
10551TIP3    H253145   2.885   2.759   5.137 -0.0464 -0.0300 -0.3106
10552TIP3   OH253146   6.589   3.313  16.128  0.2826 -0.5809 -0.1003
10552TIP3    H153147   6.656   3.245  16.141  0.9610  0.4211  2.2110
10552TIP3    H253148   6.578   3.352  16.215 -3.2874 -0.6456 -0.3801
10553TIP3   OH253149   5.499   3.458   1.855  0.4987  0.4888  0.2409
10553TIP3    H153150   5.461   3.543   1.878  0.2069  0.5463 -0.4551
10553TIP3    H253151   5.477   3.402   1.930  1.6608  1.2983  1.2439
10554TIP3   OH253152   5.062   4.245  12.738  0.6187 -0.2294 -0.1848
10554TIP3    H153153   5.036   4.299  12.664  0.0886 -0.5628 -0.2457
10554TIP3    H253154   4.980   4.225  12.783  1.0149  0.5829  0.9246
10555TIP3   OH253155   2.429   2.978   3.686  0.0943 -0.5442 -0.2289
10555TIP3    H153156   2.424   2.909   3.752  0.6029  0.8534  1.3359
10555TIP3    H253157   2.515   3.019   3.700 -0.7465  1.3022 -0.1515
10556TIP3   OH253158   6.621   1.769   3.234 -0.2695  0.1530  0.3844
10556TIP3    H153159   6.584   1.854   3.211  1.2874  1.2344  1.5583
10556TIP3    H253160   6.656   1.734   3.152 -1.4959  0.3205 -0.2261
10557TIP3   OH253161   4.653   2.659   4.239 -0.0492  0.6800  0.0136
10557TIP3    H153162   4.733   2.648   4.290 -0.7464  0.8780  1.1804
10557TIP3    H253163   4.617   2.570   4.233 -0.7308  0.8623  1.1697
10558TIP3   OH253164   2.885   3.099   2.036  0.3178  0.0696 -0.0357
10558TIP3    H153165   2.948   3.039   1.997  1.0534  1.0056 -0.3386
10558TIP3    H253166   2.923   3.186   2.023 -0.6579  0.6015  0.4891
10559TIP3   OH253167   5.799   3.248   4.574  0.0677  0.4618  0.0175
10559TIP3    H153168   5.784   3.341   4.559  0.5806  0.6976  0.9260
10559TIP3    H253169   5.712   3.210   4.582 -0.1221  1.1349  1.2205
10560TIP3   OH253170   6.187   4.757  14.278 -0.1352 -0.9636  0.1349
10560TIP3    H153171   6.167   4.847  14.255  2.6168 -0.5671 -1.0737
10560TIP3    H253172   6.216   4.761  14.369 -2.0667 -1.0388  0.7995
10561TIP3   OH253173   2.030   4.277   0.871 -0.3309  0.8633  0.1422
10561TIP3    H153174   2.046   4.370   0.884 -0.5192  0.8315  0.6476
10561TIP3    H253175   1.981   4.271   0.789  1.3561  1.0456 -0.9197
10562TIP3   OH253176   1.253   5.533   0.811  0.4021 -0.4038 -0.3446
10562TIP3    H153177   1.294   5.619   0.821 -0.9129  0.2616 -0.4795
10562TIP3    H253178   1.218   5.533   0.722 -0.3275 -0.7515 -0.0627
10563TIP3   OH253179   5.906   6.073   2.152 -0.2058 -0.0576  0.1084
10563TIP3    H153180   5.998   6.055   2.131 -0.1971 -0.9158  0.8179
10563TIP3    H253181   5.902   6.067   2.248 -1.4072 -2.2099 -0.0085
10564TIP3   OH253182   0.960   3.639  16.489 -0.4296 -0.0924  0.5068
10564TIP3    H153183   1.055   3.652  16.492 -0.4661  0.3001  0.1564
10564TIP3    H253184   0.928   3.674  16.572 -0.4260  1.2720 -0.0392
10565TIP3   OH253185   6.059   3.623  13.762  1.0532  0.0370 -0.1249
10565TIP3    H153186   6.072   3.687  13.692  0.4029 -1.6153 -1.8219
10565TIP3    H253187   5.972   3.586  13.745  0.0557  0.8286  2.6351
10566TIP3   OH253188   4.984   5.816  13.623  0.0065  0.7871  0.5268
10566TIP3    H153189   5.040   5.826  13.700 -1.6765  3.3412  1.5466
10566TIP3    H253190   4.926   5.892  13.626 -1.2243  0.0712 -2.3779
10567TIP3   OH253191   6.266   3.553  10.858  0.4902 -0.7888  0.2344
10567TIP3    H153192   6.204   3.562  10.786 -1.0390  2.8223  1.7530
10567TIP3    H253193   6.347   3.594  10.826 -0.1364  0.6711  0.4470
10568TIP3   OH253194   5.669   0.099   0.543  0.4832 -0.1412  0.0028
10568TIP3    H153195   5.645   0.154   0.618  0.3183 -0.7063  0.3729
10568TIP3    H253196   5.604   0.119   0.476 -0.3145 -0.7892  0.5745
10569TIP3   OH253197   6.407   5.798  14.153  0.5137  0.2640 -0.2504
10569TIP3    H153198   6.477   5.775  14.215  1.5391  1.2036 -1.0076
10569TIP3    H253199   6.402   5.723  14.094  1.5837  0.5732 -0.7650
10570TIP3   OH253200   4.350   0.095   5.357 -0.0991  1.1515  0.3966
10570TIP3    H153201   4.343   0.056   5.269  0.1427 -0.9052  1.2220
10570TIP3    H253202   4.385   0.183   5.342  2.4733 -0.0458 -1.4344
10571TIP3   OH253203   4.663   4.120  11.636  0.1357  0.3925  0.4835
10571TIP3    H153204   4.735   4.147  11.578  0.8665 -1.1345  0.6500
10571TIP3    H253205   4.606   4.067  11.581  2.1092 -3.2020  1.5855
10572TIP3   OH253206   6.430   1.011   4.259  0.0638 -0.4511  0.2807
10572TIP3    H153207   6.471   0.962   4.187  2.6504 -0.2523  1.4945
10572TIP3    H253208   6.495   1.077   4.283 -1.0712  0.0160  2.2672
10573TIP3   OH253209   1.232   6.152   1.994 -0.3261 -0.2851  0.7881
10573TIP3    H153210   1.245   6.057   1.997 -0.1993 -0.3167 -0.2517
10573TIP3    H253211   1.307   6.188   2.043  0.6018 -0.6773 -0.2887
10574TIP3   OH253212   5.518   1.221   4.826 -0.1114 -0.6075 -0.0323
10574TIP3    H153213   5.422   1.213   4.830 -0.1711 -0.2880 -0.6387
10574TIP3    H253214   5.549   1.131   4.817 -0.1954 -0.9479  2.4381
10575TIP3   OH253215   5.152   4.701  14.517  0.4482  0.2930 -0.2636
10575TIP3    H153216   5.183   4.689  14.427 -0.2666 -1.5814 -0.3117
10575TIP3    H253217   5.146   4.612  14.552  0.7956  0.9925  1.6851
10576TIP3   OH253218   0.066   5.321  12.250 -0.0797  0.0505  0.4663
10576TIP3    H153219   0.015   5.396  12.222 -1.3273 -0.0965  2.1845
10576TIP3    H253220   0.070   5.264  12.173 -0.5118  1.1133 -0.3721
10577TIP3   OH253221   6.767   4.084   1.265 -0.3129  0.1522  0.2859
10577TIP3    H153222   6.744   4.085   1.172  0.5918 -0.3601  0.0509
10577TIP3    H253223   6.738   3.999   1.297 -0.0145  0.0602  0.3154
10578TIP3   OH253224   6.319   3.990   0.213  0.1207 -0.0070 -0.1786
10578TIP3    H153225   6.402   3.951   0.185 -0.7084 -0.6739 -1.8224
10578TIP3    H253226   6.252   3.928   0.184 -1.0146  0.8767  0.4642
10579TIP3   OH253227   4.050   1.927  15.448  0.0024 -0.8333  0.7930
10579TIP3    H153228   4.010   1.989  15.387 -0.3238 -0.7471  1.0923
10579TIP3    H253229   4.020   1.841  15.419  0.0641 -0.8158  0.6739
10580TIP3   OH253230   0.347   3.420   5.311  0.8015 -0.4114 -0.5423
10580TIP3    H153231   0.354   3.325   5.297  1.5967 -0.9035  2.4277
10580TIP3    H253232   0.437   3.447   5.331  0.7102  1.1618 -2.0319
10581TIP3   OH253233   3.466   3.468   5.223  0.1011  0.7209  0.3282
10581TIP3    H153234   3.560   3.486   5.217  0.5938 -1.3071  0.9141
10581TIP3    H253235   3.429   3.506   5.144  1.6359  0.4220 -0.5845
10582TIP3   OH253236   4.088   1.749  17.428 -0.1033 -0.9281  0.5043
10582TIP3    H153237   4.115   1.730  17.518 -1.1224 -3.4840  0.3589
10582TIP3    H253238   3.994   1.769  17.436 -0.1930 -1.1510  0.0165
10583TIP3   OH253239   1.634   0.551  13.179 -0.5174  0.8510 -0.1199
10583TIP3    H153240   1.671   0.619  13.123 -0.9126  1.0319 -0.1650
10583TIP3    H253241   1.678   0.563  13.263  0.5655  0.1545 -0.5699
10584TIP3   OH253242   1.319   6.125   5.703  0.3667 -0.1052  0.6637
10584TIP3    H153243   1.378   6.050   5.710  1.2675  0.6291  1.1658
10584TIP3    H253244   1.300   6.149   5.794 -1.4492 -0.8713  0.5272
10585TIP3   OH253245   2.429   1.088  14.274  0.1310  0.2786  0.2520
10585TIP3    H153246   2.482   1.039  14.337 -3.7653 -1.7825  2.2657
10585TIP3    H253247   2.443   1.042  14.190  2.1727  0.4746  0.4133
10586TIP3   OH253248   6.010   0.335  17.262  0.0024 -1.0852  0.6520
10586TIP3    H153249   5.943   0.379  17.210  0.6367  0.1161  0.8100
10586TIP3    H253250   5.995   0.242  17.247  0.1201 -0.8078 -1.6608
10587TIP3   OH253251   0.595   3.640  11.645 -0.1774  0.3630 -0.3247
10587TIP3    H153252   0.606   3.731  11.617 -3.8860  0.6341 -1.4952
10587TIP3    H253253   0.547   3.598  11.573 -0.5825 -1.8902  1.1465
10588TIP3   OH253254   3.421   1.456   0.789 -0.0765  0.0865 -0.0790
10588TIP3    H153255   3.417   1.363   0.767  0.3304  0.2277 -0.7750
10588TIP3    H253256   3.481   1.493   0.725  0.9354  0.5769  1.1319
10589TIP3   OH253257   2.716   2.976  15.213 -0.3002 -0.0219 -0.5975
10589TIP3    H153258   2.737   2.949  15.124 -0.1065  0.2275 -0.6294
10589TIP3    H253259   2.743   2.903  15.268  1.9586  0.8021 -0.4896
10590TIP3   OH253260   2.818   1.531  16.262 -0.4280 -0.3501 -0.2192
10590TIP3    H153261   2.760   1.457  16.281 -0.0569 -0.0037  2.8604
10590TIP3    H253262   2.758   1.605  16.249 -0.7596 -0.9035 -2.0250
10591TIP3   OH253263   1.548   3.146   2.835  0.1290 -0.4104  0.1956
10591TIP3    H153264   1.624   3.202   2.857 -1.2326  0.9506  1.7259
10591TIP3    H253265   1.472   3.203   2.847 -1.4134 -2.7248  2.4207
10592TIP3   OH253266   3.432   5.789   5.978 -0.4789 -0.0226  0.0811
10592TIP3    H153267   3.367   5.801   5.908 -0.7712  1.3223  0.5360
10592TIP3    H253268   3.384   5.744   6.047 -0.3152 -0.9552 -0.4038
10593TIP3   OH253269   0.730   0.664  16.376  0.1994 -0.1543 -0.0597
10593TIP3    H153270   0.717   0.595  16.311  0.6662 -0.0810 -0.2383
10593TIP3    H253271   0.819   0.648  16.410  0.1177  0.0596  0.2562
10594TIP3   OH253272   4.782   4.969  11.074 -0.4061 -0.0912  0.0076
10594TIP3    H153273   4.802   5.052  11.031 -0.5229 -0.9001 -1.6821
10594TIP3    H253274   4.710   4.932  11.023  0.5695 -1.8812 -0.1575
10595TIP3   OH253275   5.369   3.004   2.140 -0.3824 -0.5043 -0.2512
10595TIP3    H153276   5.452   3.033   2.102  0.1733  1.3065  2.0852
10595TIP3    H253277   5.364   2.911   2.120  1.6431 -0.4042 -1.4629
10596TIP3   OH253278   1.338   0.516   0.507 -0.0462  0.6702  0.4209
10596TIP3    H153279   1.318   0.448   0.571 -1.9858 -2.1467 -2.8836
10596TIP3    H253280   1.402   0.476   0.449 -0.6642  1.9380 -1.2039
10597TIP3   OH253281   2.661   1.593  11.022  0.1108 -1.0512  0.3283
10597TIP3    H153282   2.716   1.520  10.995 -1.4805 -2.3087  0.3345
10597TIP3    H253283   2.574   1.571  10.989 -0.7104  0.1362  1.5727
10598TIP3   OH253284   2.983   1.963   4.751  0.0076 -0.0931  0.1563
10598TIP3    H153285   2.923   1.998   4.686  1.6817  0.7419 -1.0033
10598TIP3    H253286   2.936   1.972   4.834 -0.6678  2.5778 -0.4114
10599TIP3   OH253287   3.845   3.014   2.035  0.4181  0.2691  0.7058
10599TIP3    H153288   3.836   3.008   1.940 -1.4099  1.7517  0.7346
10599TIP3    H253289   3.759   2.992   2.070  1.0257 -0.1577  2.0363
10600TIP3   OH253290   4.489   2.719   1.885 -0.1049  0.4195  0.1012
10600TIP3    H153291   4.395   2.733   1.894  0.0397  0.5861  1.5930
10600TIP3    H253292   4.528   2.768   1.957  0.9539 -1.4721  0.8904
10601TIP3   OH253293   5.015   4.118   1.682  0.2308  0.0854  0.6324
10601TIP3    H153294   4.925   4.091   1.699  0.4754 -0.9257  0.3583
10601TIP3    H253295   5.058   4.039   1.649  1.7264  0.0552  2.5428
10602TIP3   OH253296   4.808   2.404   4.013  0.2910 -0.3330 -0.6102
10602TIP3    H153297   4.800   2.439   3.924  1.8304 -0.5673 -0.8721
10602TIP3    H253298   4.873   2.334   4.006  3.7379  2.3355  1.3565
10603TIP3   OH253299   1.381   1.154  14.599 -0.1977 -0.1373 -0.3392
10603TIP3    H153300   1.343   1.082  14.548  1.0704 -0.9856 -0.1199
10603TIP3    H253301   1.319   1.167  14.671 -0.4402 -1.0295 -0.3666
10604TIP3   OH253302   6.277   2.945  15.206  0.4805  0.1933 -0.1325
10604TIP3    H153303   6.256   2.981  15.292  0.2443  2.5805 -1.1161
10604TIP3    H253304   6.330   2.868  15.225 -0.6052 -0.0752  2.1590
10605TIP3   OH253305   2.516   6.283   4.941  0.2692 -0.1564 -0.0568
10605TIP3    H153306   2.570   6.363   4.937  1.8811 -1.1165  1.2535
10605TIP3    H253307   2.575   6.213   4.915 -0.6706 -1.1167  0.3288
10606TIP3   OH253308   4.107   4.956   5.300 -0.1278 -0.3608  0.3121
10606TIP3    H153309   4.033   4.939   5.241 -0.9838  2.6855  0.3557
10606TIP3    H253310   4.099   4.888   5.367  0.0726 -3.0803 -2.2084
10607TIP3   OH253311   5.018   3.041  13.029  0.2302 -0.4209 -0.0941
10607TIP3    H153312   5.009   3.092  13.110 -2.3956 -0.4478 -0.3030
10607TIP3    H253313   5.013   2.950  13.056 -0.4094 -0.4361 -0.2571
10608TIP3   OH253314   0.932   1.074   1.236 -0.0555  0.4405 -0.1576
10608TIP3    H153315   1.007   1.028   1.200 -1.8073 -2.0767 -0.8228
10608TIP3    H253316   0.950   1.167   1.219  3.4447  0.0909  0.8936
10609TIP3   OH253317   3.771   2.046  15.957 -0.1618  0.0548  0.3899
10609TIP3    H153318   3.784   2.111  16.026 -0.9096 -0.6214  1.1894
10609TIP3    H253319   3.817   2.082  15.881 -0.1370  1.2677  0.9610
10610TIP3   OH253320   1.070   4.856  16.345  0.1884 -0.4515 -0.0254
10610TIP3    H153321   1.123   4.932  16.368  0.8013 -0.2606 -1.8438
10610TIP3    H253322   0.990   4.893  16.306  1.2227 -0.6527 -2.5018
10611TIP3   OH253323   6.572   4.136   5.004  0.2453  0.1146  0.1736
10611TIP3    H153324   6.623   4.074   5.055 -0.1821  0.9817  1.7342
10611TIP3    H253325   6.620   4.145   4.921  0.8719 -1.4494  0.3366
10612TIP3   OH253326   5.893   0.621  13.817 -0.5357 -0.6198 -0.1832
10612TIP3    H153327   5.893   0.584  13.728 -0.3502 -0.3046 -0.3137
10612TIP3    H253328   5.800   0.625  13.841 -0.5045 -2.5509  0.4113
10613TIP3   OH253329   3.665   5.964  11.995 -0.1989 -0.4391 -0.2608
10613TIP3    H153330   3.760   5.979  12.004 -0.1570  2.0431 -3.2567
10613TIP3    H253331   3.630   5.988  12.081  1.7683  0.1042  0.4667
10614TIP3   OH253332   3.766   0.860  16.825 -0.1001  0.1211 -0.4665
10614TIP3    H153333   3.678   0.845  16.860 -0.2735  0.6400 -0.6712
10614TIP3    H253334   3.766   0.816  16.740 -0.3830  0.6686 -0.7576
10615TIP3   OH253335   2.174   5.037   3.176 -0.9101 -0.2629  0.1806
10615TIP3    H153336   2.144   5.011   3.089  0.5656  1.3994 -0.9021
10615TIP3    H253337   2.154   5.130   3.181 -0.9843 -0.3396  1.6565
10616TIP3   OH253338   3.381   5.978   0.905 -0.2825  0.0928  0.2846
10616TIP3    H153339   3.397   5.887   0.882  0.1974  0.3171 -0.2941
10616TIP3    H253340   3.288   5.980   0.929 -0.2449 -0.5828  0.5079
10617TIP3   OH253341   6.446   2.978   2.853 -0.8216 -0.0248  0.4678
10617TIP3    H153342   6.371   2.944   2.804 -0.4951  0.7989 -0.6149
10617TIP3    H253343   6.496   3.028   2.790 -1.5730  3.0099  2.0943
10618TIP3   OH253344   0.230   4.229  13.185  0.1092 -0.1156 -0.1000
10618TIP3    H153345   0.319   4.210  13.216 -0.3276 -0.5453  0.9187
10618TIP3    H253346   0.239   4.233  13.090  0.9924 -1.4152 -0.1026
10619TIP3   OH253347   2.465   6.157  11.479 -1.1211 -0.0141  0.0826
10619TIP3    H153348   2.527   6.106  11.427  0.6402 -0.7792  2.7118
10619TIP3    H253349   2.490   6.248  11.465  1.2576 -0.3279  1.6704
10620TIP3   OH253350   5.302   2.781  12.575  0.3426 -0.4767  0.5324
10620TIP3    H153351   5.278   2.688  12.568 -2.0327  0.1020  0.1500
10620TIP3    H253352   5.384   2.780  12.625  1.5778 -2.8821 -1.2850
10621TIP3   OH253353   5.085   1.322  13.392  0.2994 -0.2052 -0.1156
10621TIP3    H153354   5.040   1.360  13.316 -0.5870  1.8462  1.3390
10621TIP3    H253355   5.016   1.305  13.456  1.2252  0.0372  0.9940
10622TIP3   OH253356   1.792   0.417  16.525  0.4068  0.1208  0.6110
10622TIP3    H153357   1.801   0.354  16.596  1.4645  1.0556  1.3420
10622TIP3    H253358   1.861   0.481  16.541  0.8992  0.1719 -1.4665
10623TIP3   OH253359   6.337   3.768  15.883  0.2534  0.1035 -0.1169
10623TIP3    H153360   6.308   3.792  15.795 -1.3149 -0.1322  0.3058
10623TIP3    H253361   6.290   3.687  15.902 -1.5701  1.5401  1.9442
10624TIP3   OH253362   5.457   6.662  11.745  0.5448 -0.1315 -0.0476
10624TIP3    H153363   5.417   6.634  11.663 -1.6992  0.0980  0.8900
10624TIP3    H253364   5.499   6.583  11.780 -0.5255 -0.8369 -0.3083
10625TIP3   OH253365   0.170   5.687   4.508 -0.0933  0.8526 -0.3014
10625TIP3    H153366   0.145   5.769   4.465 -1.1183  0.5229 -0.3707
10625TIP3    H253367   0.087   5.654   4.544 -0.6487 -2.3039 -3.8972
10626TIP3   OH253368   0.070   3.707   6.249  1.0679 -0.5029  0.2829
10626TIP3    H153369   0.158   3.670   6.240  0.8373 -1.2054  0.7919
10626TIP3    H253370   0.052   3.701   6.343  1.2615  1.5121  0.4861
10627TIP3   OH253371   5.922   3.570   2.405 -0.0057 -0.3611  0.2403
10627TIP3    H153372   5.999   3.513   2.414  0.4242  0.2344  0.4059
10627TIP3    H253373   5.911   3.581   2.311  0.4480  0.0015  0.2305
10628TIP3   OH253374   6.588   4.235   3.534 -0.0133  0.2612 -0.1474
10628TIP3    H153375   6.590   4.187   3.616 -2.1357  0.0036 -0.2083
10628TIP3    H253376   6.666   4.205   3.487 -0.0000 -1.3199  0.8145
10629TIP3   OH253377   3.909   2.931   3.001  0.1017  0.0849  0.0753
10629TIP3    H153378   3.939   2.905   3.088  0.5320  0.8459  0.1597
10629TIP3    H253379   3.860   2.855   2.969 -0.9945  0.2057  1.4075
10630TIP3   OH253380   5.272   2.404   5.433  0.1115 -0.5211  0.5712
10630TIP3    H153381   5.305   2.316   5.412 -1.3981 -1.1233  0.6081
10630TIP3    H253382   5.276   2.409   5.529  2.0052  0.2273  0.5140
10631TIP3   OH253383   0.794   0.867   3.855 -0.1412 -0.0811  0.4723
10631TIP3    H153384   0.760   0.918   3.928  1.3988  0.9739  0.5033
10631TIP3    H253385   0.777   0.921   3.778 -0.0492 -0.3156  0.2842
10632TIP3   OH253386   4.803   6.553  12.958 -0.0034  0.0381 -0.7400
10632TIP3    H153387   4.781   6.518  13.045  0.8171 -1.1010 -0.9611
10632TIP3    H253388   4.721   6.593  12.927 -0.2096  0.7881  0.6881
10633TIP3   OH253389   0.403   1.245   3.941 -0.4794 -0.2037  0.0036
10633TIP3    H153390   0.354   1.193   4.006  0.6217 -1.8055 -0.3878
10633TIP3    H253391   0.430   1.181   3.875  0.9989  0.8728 -0.4842
10634TIP3   OH253392   0.870   5.274   6.560  0.7980  0.3087 -0.0029
10634TIP3    H153393   0.929   5.219   6.510  0.9586  0.3734  0.1139
10634TIP3    H253394   0.920   5.298   6.639  0.2822 -0.4038  0.5528
10635TIP3   OH253395   0.752   4.841  12.258  0.7321  0.0049 -0.4878
10635TIP3    H153396   0.778   4.866  12.346 -0.7091  0.0805 -0.0538
10635TIP3    H253397   0.811   4.889  12.200  1.3247  0.3965  0.4216
10636TIP3   OH253398   6.541   3.759  16.418  0.5285 -0.1115  0.1119
10636TIP3    H153399   6.526   3.849  16.388  1.4195  0.0253  0.0302
10636TIP3    H253400   6.564   3.711  16.339 -0.4023 -0.5281  0.0842
10637TIP3   OH253401   2.316   3.907   2.894  0.1892 -0.1142 -0.1315
10637TIP3    H153402   2.231   3.864   2.890  1.0037 -1.7119 -1.2385
10637TIP3    H253403   2.296   3.997   2.922 -1.4472 -1.4733  3.6613
10638TIP3   OH253404   3.104   3.755  13.838 -0.1224  0.0157  0.3025
10638TIP3    H153405   3.058   3.837  13.820 -1.1958 -0.9108 -1.4023
10638TIP3    H253406   3.189   3.766  13.796  0.0949  0.5706  0.8594
10639TIP3   OH253407   3.946   2.275   3.938 -0.8330  0.5176  0.5753
10639TIP3    H153408   3.902   2.191   3.945  1.2932 -0.7965 -0.8221
10639TIP3    H253409   3.983   2.276   3.850  0.0481  2.4954  0.9116
10640TIP3   OH253410   0.891   3.434  14.874  0.0543 -0.3758  0.3287
10640TIP3    H153411   0.953   3.507  14.868  0.3860 -0.7131 -0.3139
10640TIP3    H253412   0.822   3.455  14.811 -0.8107  0.2910  1.4506
10641TIP3   OH253413   3.627   3.054   5.263  0.2886 -0.3130  0.3065
10641TIP3    H153414   3.708   3.104   5.266 -0.8884  1.6489  2.5256
10641TIP3    H253415   3.561   3.117   5.235 -0.6092 -1.7143 -0.8536
10642TIP3   OH253416   1.421   5.652  13.509 -0.6122 -0.0693  0.7013
10642TIP3    H153417   1.513   5.626  13.500 -0.6082  0.2604 -0.3669
10642TIP3    H253418   1.423   5.724  13.572  0.2367  1.7540 -1.3018
10643TIP3   OH253419   6.203   2.990   3.766 -1.0272 -0.4119 -0.3397
10643TIP3    H153420   6.141   2.944   3.823 -1.3944 -1.1380 -1.3019
10643TIP3    H253421   6.177   2.965   3.677  0.0499  0.0460 -0.8012
10644TIP3   OH253422   2.918   4.905  12.874  0.0566 -0.7719 -0.3242
10644TIP3    H153423   2.962   4.968  12.931  0.1558 -1.8698  0.8373
10644TIP3    H253424   2.877   4.843  12.933  0.1799 -1.9531 -1.4441
10645TIP3   OH253425   2.624   6.479  11.669  0.1820  0.0367  0.0835
10645TIP3    H153426   2.630   6.384  11.662  0.4205 -0.0227  1.0287
10645TIP3    H253427   2.628   6.497  11.763 -2.2875  0.8165  0.1141
10646TIP3   OH253428   6.198   3.424  13.939 -0.0657 -0.2610 -0.5095
10646TIP3    H153429   6.171   3.506  13.897 -1.9412 -0.6163 -0.1194
10646TIP3    H253430   6.144   3.357  13.896  0.1896 -1.0524  0.3616
10647TIP3   OH253431   3.159   0.119  13.615  0.1670 -0.3076 -0.3839
10647TIP3    H153432   3.106   0.068  13.554  0.5639 -0.9436 -0.2099
10647TIP3    H253433   3.178   0.201  13.569  0.4478 -0.7765 -1.1103
10648TIP3   OH253434   0.444   0.209  16.495 -0.6937 -0.1648  0.0397
10648TIP3    H153435   0.489   0.125  16.494 -1.3243 -0.5101 -0.9625
10648TIP3    H253436   0.436   0.231  16.588 -2.8557 -2.5125  0.5245
10649TIP3   OH253437   3.601   4.172   2.597  0.0849  1.0219 -0.1075
10649TIP3    H153438   3.671   4.151   2.659  0.1609  1.1986 -0.1337
10649TIP3    H253439   3.556   4.246   2.637 -0.3963  0.5986  0.1506
10650TIP3   OH253440   0.235   6.274   1.679  0.0074  0.1241 -0.2726
10650TIP3    H153441   0.218   6.207   1.745 -0.4674  0.5031  0.0031
10650TIP3    H253442   0.170   6.342   1.698 -1.4464 -0.5988 -2.3096
10651TIP3   OH253443   1.627   1.541   2.302 -0.1377  0.3587  0.3002
10651TIP3    H153444   1.632   1.487   2.381  0.1205  1.0387  0.7539
10651TIP3    H253445   1.717   1.567   2.285  0.0456 -1.0555 -1.1337
10652TIP3   OH253446   6.652   2.231   1.906 -0.4607 -0.0998 -0.5517
10652TIP3    H153447   6.672   2.223   1.813  1.6847  2.4292 -0.4227
10652TIP3    H253448   6.737   2.234   1.949 -1.2152  2.7547  1.0169
10653TIP3   OH253449   5.309   1.489   5.230 -0.8477 -0.3822  0.9647
10653TIP3    H153450   5.353   1.462   5.311 -0.3294 -2.3213  0.1147
10653TIP3    H253451   5.218   1.464   5.243 -0.9751  0.2787  1.3482
10654TIP3   OH253452   2.944   6.537   4.425 -0.2157  0.1732 -0.3191
10654TIP3    H153453   3.037   6.523   4.445 -0.0837  2.0725  0.6435
10654TIP3    H253454   2.904   6.550   4.511 -1.3521 -0.4140 -0.7459
10655TIP3   OH253455   0.081   1.148   4.832 -0.1111  0.3932 -0.3244
10655TIP3    H153456   0.142   1.089   4.788 -1.2540 -1.4804  0.4944
10655TIP3    H253457   0.004   1.148   4.774 -1.3542 -1.5373  1.2032
10656TIP3   OH253458   3.735   2.002  11.812 -0.3126  0.1910  0.3373
10656TIP3    H153459   3.814   2.015  11.760  0.0338 -0.1676  0.7646
10656TIP3    H253460   3.760   2.026  11.901 -0.5905 -0.2238  0.5350
10657TIP3   OH253461   3.938   2.435   0.385 -0.3516  0.2864  0.7123
10657TIP3    H153462   3.922   2.404   0.296  1.3116 -0.9770  0.8074
10657TIP3    H253463   3.986   2.364   0.427 -0.9074  0.9504  2.5731
10658TIP3   OH253464   1.128   0.166   3.735  0.0335  0.1315 -0.3336
10658TIP3    H153465   1.173   0.199   3.657  0.5546 -3.4445 -1.7522
10658TIP3    H253466   1.198   0.150   3.798 -0.0781  0.5213 -0.1037
10659TIP3   OH253467   4.327   0.115   6.812  0.1166  0.6256 -0.2999
10659TIP3    H153468   4.260   0.096   6.878  0.2575  1.9784  0.2668
10659TIP3    H253469   4.409   0.083   6.851 -0.0511 -0.1402 -0.5698
10660TIP3   OH253470   4.044   5.376   4.771  0.0121  0.3884  0.4742
10660TIP3    H153471   3.964   5.330   4.742 -0.4942  1.3103  0.3803
10660TIP3    H253472   4.109   5.306   4.781  0.0398 -0.0913 -2.2305
10661TIP3   OH253473   4.501   6.384   1.562  0.3667  0.2577 -0.5932
10661TIP3    H153474   4.424   6.329   1.577  0.5926 -0.0892 -0.6769
10661TIP3    H253475   4.502   6.398   1.467  0.3183  0.3962 -0.5737
10662TIP3   OH253476   3.997   1.081  16.733 -0.2878  0.0867 -0.2430
10662TIP3    H153477   3.902   1.092  16.735 -0.1810  1.2169 -0.6825
10662TIP3    H253478   4.014   1.037  16.650 -0.4031  0.2977 -0.3834
10663TIP3   OH253479   1.061   1.147   5.986 -0.4702  0.0923  0.4286
10663TIP3    H153480   1.094   1.138   6.075 -0.8660 -0.6402  0.5045
10663TIP3    H253481   0.966   1.149   5.996 -0.6103 -1.8635 -0.1125
10664TIP3   OH253482   2.419   2.926  15.669 -0.2501  0.3678 -0.4909
10664TIP3    H153483   2.363   2.966  15.603 -3.6406 -1.9783  0.6564
10664TIP3    H253484   2.366   2.927  15.749  1.1431 -2.3496  0.5982
10665TIP3   OH253485   1.322   1.186   4.518 -0.4473  0.1688  0.2833
10665TIP3    H153486   1.290   1.233   4.595 -1.8114  1.1490 -0.8151
10665TIP3    H253487   1.251   1.126   4.496 -0.0610 -0.1172 -0.1900
10666TIP3   OH253488   5.833   1.349  13.605  0.3030  0.1013 -0.1847
10666TIP3    H153489   5.873   1.355  13.518  0.6544  1.9047  0.0654
10666TIP3    H253490   5.776   1.425  13.611  2.0497  1.3588  2.0079
10667TIP3   OH253491   0.962   4.692   3.952 -0.1971  0.3076  0.1743
10667TIP3    H153492   0.901   4.763   3.970 -0.1211  0.0113  1.6977
10667TIP3    H253493   1.040   4.713   4.003 -0.5412 -1.3523  1.4754
10668TIP3   OH253494   6.093   6.496   5.194  0.3450  0.2378 -0.0801
10668TIP3    H153495   6.137   6.546   5.263 -0.2063  1.4941 -0.6162
10668TIP3    H253496   6.163   6.477   5.131  0.6310 -0.0168  0.3011
10669TIP3   OH253497   4.517   3.962  17.002  0.1569 -0.2492  0.3430
10669TIP3    H153498   4.514   3.897  17.072 -0.2746 -0.2579  0.3166
10669TIP3    H253499   4.437   4.013  17.013  0.4407  0.2119  0.2991
10670TIP3   OH253500   5.109   2.315  15.766  0.6497  0.2431  0.1016
10670TIP3    H153501   5.192   2.319  15.814  2.3165  0.6728 -2.6099
10670TIP3    H253502   5.097   2.222  15.747  0.6763  0.2178  0.2057
10671TIP3   OH253503   2.962   6.384   1.191 -0.1351 -0.1179  0.0926
10671TIP3    H153504   2.884   6.377   1.137  0.1170 -0.8100 -0.1875
10671TIP3    H253505   3.016   6.309   1.167 -0.0869 -0.5366  1.4320
10672TIP3   OH253506   5.203   2.451   2.217  0.4561  0.5491  0.1486
10672TIP3    H153507   5.223   2.446   2.311 -0.6716 -0.6765  0.3507
10672TIP3    H253508   5.202   2.360   2.188 -0.7122  0.8217 -0.7157
10673TIP3   OH253509   1.343   4.666  11.919  0.2869  0.3237 -0.0155
10673TIP3    H153510   1.359   4.752  11.957  0.9247  0.4630 -0.5926
10673TIP3    H253511   1.311   4.684  11.830  0.3054 -0.0325 -0.0974
10674TIP3   OH253512   6.030   3.711   4.248 -0.1689 -0.2069 -0.4010
10674TIP3    H153513   6.062   3.702   4.337  3.0546 -3.0709 -1.6333
10674TIP3    H253514   5.965   3.641   4.239 -0.7457  0.3010 -0.2284
10675TIP3   OH253515   4.353   1.577   0.743  0.2847  0.3496  0.4199
10675TIP3    H153516   4.310   1.510   0.795  0.7444 -0.0727  0.2671
10675TIP3    H253517   4.357   1.654   0.801  0.6376 -0.0586  0.9508
10676TIP3   OH253518   6.546   3.157   6.306 -0.1647  0.8635 -0.3374
10676TIP3    H153519   6.577   3.067   6.297 -1.8874  0.2722 -0.8125
10676TIP3    H253520   6.562   3.197   6.221 -0.9713  0.4592 -0.6897
10677TIP3   OH253521   1.435   3.670   1.816 -0.0418  0.1923  0.3631
10677TIP3    H153522   1.417   3.761   1.838 -1.0716  0.1454 -0.2177
10677TIP3    H253523   1.357   3.640   1.770  0.2519 -1.0073  0.5948
10678TIP3   OH253524   3.652   0.090  13.636 -0.2070  0.5090 -0.3181
10678TIP3    H153525   3.642   0.025  13.567  1.6670 -0.5508  0.3311
10678TIP3    H253526   3.573   0.081  13.690 -0.2672 -0.8184 -0.5929
10679TIP3   OH253527   4.518   5.955   0.568  0.1125 -0.4558 -0.3148
10679TIP3    H153528   4.534   5.997   0.483 -0.6403 -0.6938 -0.5823
10679TIP3    H253529   4.555   6.016   0.632  0.0370  0.0769 -0.7653
10680TIP3   OH253530   3.156   2.325   1.218 -0.4137  0.1201  0.1263
10680TIP3    H153531   3.231   2.368   1.259 -0.1948 -1.5096  1.5741
10680TIP3    H253532   3.186   2.304   1.129  1.4952 -1.9227  1.1728
10681TIP3   OH253533   0.951   6.510   2.459 -0.5175 -0.4807 -0.2035
10681TIP3    H153534   0.881   6.518   2.523  0.0711  0.5953  0.3374
10681TIP3    H253535   0.906   6.488   2.377 -1.6228  1.2193 -0.1075
10682TIP3   OH253536   4.490   2.298   0.159  0.2694 -0.2119 -0.4461
10682TIP3    H153537   4.559   2.345   0.205 -0.6467 -0.1334  0.9293
10682TIP3    H253538   4.523   2.209   0.150  0.5673 -0.1650  0.1590
10683TIP3   OH253539   3.697   6.485   2.079 -0.1779 -0.0429  0.5550
10683TIP3    H153540   3.735   6.399   2.098  1.0614  0.4556  0.4051
10683TIP3    H253541   3.602   6.471   2.083 -0.1158 -2.0730 -2.3126
10684TIP3   OH253542   1.575   5.237   1.726 -0.0577  0.3851  0.2326
10684TIP3    H153543   1.609   5.173   1.789 -0.0668  0.3254  0.1770
10684TIP3    H253544   1.595   5.322   1.765  0.9450  0.3677 -0.2208
10685TIP3   OH253545   4.816   2.240   3.420  0.3903  0.6862  0.0800
10685TIP3    H153546   4.845   2.172   3.358  0.1244  2.5665 -2.2404
10685TIP3    H253547   4.721   2.227   3.428  0.5633 -0.1851  0.9607
10686TIP3   OH253548   3.423   0.449   6.047  0.1445 -0.2484 -0.1788
10686TIP3    H153549   3.509   0.413   6.021  0.3025 -0.6673  0.8762
10686TIP3    H253550   3.429   0.458   6.142 -0.7539  0.3585 -0.1750
10687TIP3   OH253551   5.354   1.502   5.844  0.6707 -0.5475  0.0478
10687TIP3    H153552   5.278   1.495   5.902 -0.0677 -0.4280 -0.8646
10687TIP3    H253553   5.368   1.412   5.814 -1.5999 -0.1123 -2.7814
10688TIP3   OH253554   4.117   2.857  16.303  0.3221  0.4346 -0.3274
10688TIP3    H153555   4.027   2.887  16.306  0.5300  0.9931  0.8920
10688TIP3    H253556   4.163   2.909  16.369  1.4276 -0.1932 -0.5618
10689TIP3   OH253557   6.327   0.376   1.309  0.6810 -0.1012  0.3891
10689TIP3    H153558   6.362   0.455   1.350  1.1890 -0.2946  0.3308
10689TIP3    H253559   6.382   0.363   1.232 -0.1434  0.1495 -0.2570
10690TIP3   OH253560   2.098   3.905   2.208 -0.7328 -0.4796  0.2900
10690TIP3    H153561   2.069   3.966   2.141 -1.7282  0.1354  1.2493
10690TIP3    H253562   2.190   3.925   2.220 -0.5125 -0.6651 -0.9445
10691TIP3   OH253563   5.298   3.677   6.414 -0.2088 -0.6599  0.5009
10691TIP3    H153564   5.232   3.609   6.405  0.2366 -1.3973  2.3986
10691TIP3    H253565   5.253   3.750   6.456 -0.5590  0.0749 -1.0740
10692TIP3   OH253566   3.662   6.396   0.779  0.1869  0.1162 -0.1836
10692TIP3    H153567   3.731   6.367   0.838  1.0542  0.5818 -0.9576
10692TIP3    H253568   3.584   6.347   0.808  1.5382 -2.9816 -1.3652
10693TIP3   OH253569   4.125   0.664   2.576 -0.1379  0.2347 -0.6630
10693TIP3    H153570   4.178   0.719   2.634 -1.8665  0.0504  1.2204
10693TIP3    H253571   4.067   0.725   2.532 -1.3421  0.1034  0.6482
10694TIP3   OH253572   1.187   6.087   6.238 -0.2053 -0.0614 -0.5443
10694TIP3    H153573   1.255   6.020   6.251 -0.2724 -0.5908 -2.5171
10694TIP3    H253574   1.234   6.170   6.234  0.0766 -0.1820  0.2045
10695TIP3   OH253575   4.513   5.465   5.479 -0.0497 -0.0322 -0.2970
10695TIP3    H153576   4.471   5.545   5.448 -0.9316  0.6679  2.4463
10695TIP3    H253577   4.581   5.496   5.539  0.4450 -1.3351 -0.1548
10696TIP3   OH253578   5.747   5.302   1.644  0.1323  0.4744  0.2653
10696TIP3    H153579   5.652   5.311   1.651  0.1256  0.8247 -0.2577
10696TIP3    H253580   5.779   5.319   1.733 -0.2691  0.6715  0.3750
10697TIP3   OH253581   1.198   6.771  17.034 -0.0480 -0.6147  0.0365
10697TIP3    H153582   1.179   6.803  16.946  0.3791 -2.3493 -0.7355
10697TIP3    H253583   1.293   6.772  17.040 -0.0234 -1.5968  0.0122
10698TIP3   OH253584   0.827   6.579  11.705  0.5998 -0.1029  0.2972
10698TIP3    H153585   0.762   6.563  11.774  0.0890 -1.8935 -0.5407
10698TIP3    H253586   0.865   6.492  11.688  1.9467  0.6090 -0.4914
10699TIP3   OH253587   3.413   2.119   5.974 -0.0686 -0.4989 -0.2629
10699TIP3    H153588   3.439   2.209   5.996 -0.4197 -0.4682  0.0365
10699TIP3    H253589   3.339   2.129   5.914  0.6107 -0.5874 -1.1359
10700TIP3   OH253590   3.338   6.638  12.534 -0.2970 -0.0099 -0.3827
10700TIP3    H153591   3.402   6.656  12.465 -0.7322  0.2912 -0.7108
10700TIP3    H253592   3.292   6.559  12.504 -1.8918  1.2571 -1.4762
10701TIP3   OH253593   4.577   1.073  12.748 -0.3784 -0.3675 -0.4192
10701TIP3    H153594   4.543   1.050  12.662 -2.0196 -1.6722  0.5209
10701TIP3    H253595   4.571   0.992  12.799  0.3743  0.4194  0.9899
10702TIP3   OH253596   3.059   1.390   5.980  0.2368  0.4077 -0.5691
10702TIP3    H153597   3.089   1.309   5.938 -0.5732 -0.2391  0.0594
10702TIP3    H253598   2.990   1.362   6.040  0.4572  1.4816  0.2189
10703TIP3   OH253599   4.345   2.228   6.166  0.1335 -0.5434  0.2238
10703TIP3    H153600   4.330   2.186   6.081 -0.8700 -0.0895  0.1655
10703TIP3    H253601   4.300   2.172   6.228 -0.3091 -0.1217  0.2810
10704TIP3   OH253602   2.545   0.991  11.321  0.2678  0.2570  0.4312
10704TIP3    H153603   2.617   1.032  11.273  0.8136 -0.4953  0.5953
10704TIP3    H253604   2.466   1.031  11.285  0.7795  1.3427  0.4903
10705TIP3   OH253605   5.229   2.031   3.140  0.2698 -0.2085  0.6642
10705TIP3    H153606   5.153   2.024   3.198  0.3915  3.0108  1.4154
10705TIP3    H253607   5.192   2.024   3.052 -0.5187 -1.0620  1.0398
10706TIP3   OH253608   5.315   0.129  13.599  0.3905 -0.4885  0.4903
10706TIP3    H153609   5.320   0.211  13.549  3.0175  0.9679  2.8880
10706TIP3    H253610   5.254   0.148  13.670 -0.1959 -1.1916  0.1895
10707TIP3   OH253611   6.408   0.399  16.817  0.4549 -0.4317  0.2230
10707TIP3    H153612   6.415   0.350  16.899 -1.0551  0.7018  1.0885
10707TIP3    H253613   6.498   0.403  16.784  1.1034 -0.9109  1.8261
10708TIP3   OH253614   5.518   0.671   1.124 -0.0507 -0.2846  0.0837
10708TIP3    H153615   5.476   0.682   1.209 -0.8769  0.8103 -0.4373
10708TIP3    H253616   5.454   0.705   1.061 -0.8609 -3.9627 -1.3429
10709TIP3   OH253617   4.154   5.390   0.244 -0.4371  0.0176 -0.4885
10709TIP3    H153618   4.146   5.429   0.330  0.9349  1.2689 -0.8808
10709TIP3    H253619   4.064   5.378   0.213 -0.9613  2.8881 -0.3339
10710TIP3   OH253620   0.651   1.577  13.877  0.4992 -0.0205  0.1740
10710TIP3    H153621   0.591   1.527  13.821  1.4415 -0.1690 -0.7206
10710TIP3    H253622   0.677   1.515  13.946  1.2026 -0.6065 -0.5945
10711TIP3   OH253623   2.265   5.483   0.264 -0.3994 -0.0006 -0.0824
10711TIP3    H153624   2.208   5.450   0.195 -0.7790  1.1391 -0.3423
10711TIP3    H253625   2.351   5.490   0.223 -0.1843 -1.1631  0.1385
10712TIP3   OH253626   1.253   0.346  13.007 -0.2651 -0.1211  0.2648
10712TIP3    H153627   1.246   0.293  12.929 -1.7974  0.0565  0.2641
10712TIP3    H253628   1.246   0.436  12.976  2.7301  0.2129  0.2094
10713TIP3   OH253629   0.840   2.066  14.609  0.4594 -0.2900 -0.1501
10713TIP3    H153630   0.805   1.978  14.608  0.7694 -0.4356 -2.0545
10713TIP3    H253631   0.849   2.090  14.516  4.4097  0.0824  0.1294
10714TIP3   OH253632   2.206   4.084  17.378  0.2167 -0.4061 -0.1756
10714TIP3    H153633   2.183   4.103  17.469  1.5412  1.4915 -0.1983
10714TIP3    H253634   2.276   4.145  17.357  1.5346 -2.3267 -1.7862
10715TIP3   OH253635   1.666   3.479   5.810  0.0937  0.3250 -0.3046
10715TIP3    H153636   1.622   3.396   5.794  0.3312  0.1100  0.1111
10715TIP3    H253637   1.747   3.454   5.855  1.2357  0.6059 -2.0985
10716TIP3   OH253638   3.136   4.387   4.813  0.0965 -0.1972  0.1830
10716TIP3    H153639   3.205   4.352   4.757 -0.5448 -0.3258 -0.5348
10716TIP3    H253640   3.124   4.478   4.783 -0.0219 -0.1651  0.3259
10717TIP3   OH253641   2.819   0.284  11.958  0.2196 -0.1710  0.0397
10717TIP3    H153642   2.736   0.312  11.999  0.4440  0.2969  0.1782
10717TIP3    H253643   2.881   0.352  11.982  0.3522  0.1302 -1.1330
10718TIP3   OH253644   6.612   1.920  13.899 -0.1617  0.5493 -0.4725
10718TIP3    H153645   6.558   1.870  13.960 -0.0131  0.9774  0.0241
10718TIP3    H253646   6.656   1.854  13.846 -0.5409  0.1770 -0.3256
10719TIP3   OH253647   4.960   2.067   5.156  0.0804  0.0721 -0.3743
10719TIP3    H153648   5.044   2.112   5.153  0.6200 -0.7832  1.1350
10719TIP3    H253649   4.941   2.046   5.064  1.0949  1.0167 -0.8182
10720TIP3   OH253650   6.141   2.251  14.634 -0.4114 -0.5466  0.7070
10720TIP3    H153651   6.086   2.277  14.560  0.0552 -0.8008  0.2631
10720TIP3    H253652   6.145   2.155  14.628  1.7787 -0.4469 -0.5329
10721TIP3   OH253653   6.471   3.207  15.913 -0.3487 -0.7064  0.3554
10721TIP3    H153654   6.505   3.253  15.837  1.1035 -2.2023  0.0527
10721TIP3    H253655   6.521   3.241  15.987 -0.5310 -0.5301  0.4008
10722TIP3   OH253656   0.428   2.402  11.231 -0.1951 -0.4053 -0.0274
10722TIP3    H153657   0.476   2.372  11.153 -1.0318 -1.7928 -0.0477
10722TIP3    H253658   0.478   2.368  11.304  0.1083  0.1439  0.0255
10723TIP3   OH253659   5.757   2.107  14.393  0.0949  0.5066  0.1481
10723TIP3    H153660   5.835   2.102  14.337  0.3319  1.8620  0.3074
10723TIP3    H253661   5.684   2.107  14.332  0.2376 -0.3156 -0.0320
10724TIP3   OH253662   1.681   4.571  10.970  0.1723 -0.2004 -0.2728
10724TIP3    H153663   1.772   4.586  10.996 -0.4453  0.2683  1.8152
10724TIP3    H253664   1.641   4.658  10.971 -1.2116 -0.7022  2.8922
10725TIP3   OH253665   3.464   0.192   3.716 -0.0763  0.9865 -0.6644
10725TIP3    H153666   3.406   0.116   3.720 -0.2567  1.1497 -0.2024
10725TIP3    H253667   3.433   0.241   3.639 -0.6299  1.1312 -0.3579
10726TIP3   OH253668   3.158   2.043  12.089  0.0061 -0.0620 -0.6814
10726TIP3    H153669   3.162   2.092  12.007 -1.6108  0.5298 -0.4494
10726TIP3    H253670   3.202   1.960  12.069  1.2604  0.7805 -1.5882
10727TIP3   OH253671   6.462   4.225  15.799  0.2917  0.4218  0.3768
10727TIP3    H153672   6.524   4.283  15.757  0.7536 -0.5119 -0.2513
10727TIP3    H253673   6.516   4.158  15.842 -0.2447  0.0684  0.5169
10728TIP3   OH253674   1.000   6.461  14.107  0.0933  0.2080 -0.3288
10728TIP3    H153675   1.074   6.429  14.158  0.3179  2.7704  1.1400
10728TIP3    H253676   1.026   6.447  14.016  2.9765  2.0238  0.0927
10729TIP3   OH253677   2.108   3.116   6.287 -0.7431  0.0241 -0.2822
10729TIP3    H153678   2.156   3.199   6.285 -0.4910 -0.1300 -1.0534
10729TIP3    H253679   2.168   3.053   6.249 -0.4628 -0.7850  1.4013
10730TIP3   OH253680   6.333   1.251   5.137 -0.6728 -0.0110 -0.0277
10730TIP3    H153681   6.302   1.205   5.215  0.8968  0.6991  1.0694
10730TIP3    H253682   6.423   1.220   5.124  0.0076  1.7721  0.0264
10731TIP3   OH253683   0.766   0.045  13.893  0.2321  0.1465 -0.3481
10731TIP3    H153684   0.719   0.063  13.812 -0.6954 -1.9724 -0.3346
10731TIP3    H253685   0.772   0.131  13.936 -0.9321  0.9917 -1.7556
10732TIP3   OH253686   2.944   3.420  11.802  0.3680 -0.6132  0.0369
10732TIP3    H153687   2.997   3.371  11.740 -0.4221 -0.5872 -0.6876
10732TIP3    H253688   2.940   3.365  11.880  1.6533 -0.4943  0.2070
10733TIP3   OH253689   1.207   2.489  13.205 -0.8042 -0.0845 -0.2594
10733TIP3    H153690   1.222   2.395  13.198 -3.3162 -0.5165 -0.8488
10733TIP3    H253691   1.184   2.516  13.117 -0.7802  0.9645  0.0454
10734TIP3   OH253692   3.668   1.546   5.674  0.1048  0.1475 -0.3678
10734TIP3    H153693   3.645   1.573   5.763  1.3593  0.8456 -0.2423
10734TIP3    H253694   3.587   1.558   5.624 -0.2121  1.1978  0.3595
10735TIP3   OH253695   4.370   0.929  15.237 -0.2025 -0.4540  0.5316
10735TIP3    H153696   4.465   0.917  15.234 -0.1401 -0.3248 -3.5550
10735TIP3    H253697   4.335   0.839  15.232 -0.2415 -0.4169  0.0948
10736TIP3   OH253698   1.961   6.239   1.126  0.2544  0.0518 -0.2408
10736TIP3    H153699   2.045   6.236   1.173  1.5819  0.3352 -2.4359
10736TIP3    H253700   1.967   6.169   1.062 -0.6220  0.9123 -1.3063
10737TIP3   OH253701   4.094   6.601  12.179 -0.0645  0.0952 -0.3930
10737TIP3    H153702   4.154   6.671  12.208 -0.0899  0.4523 -1.1763
10737TIP3    H253703   4.091   6.541  12.253 -0.6109  1.2875  0.5856
10738TIP3   OH253704   2.034   5.372  12.400  0.1860  0.1895 -0.2197
10738TIP3    H153705   2.108   5.331  12.355  0.1008  0.6258 -0.7744
10738TIP3    H253706   1.959   5.317  12.375 -0.2821  1.7661 -2.6282
10739TIP3   OH253707   5.008   2.970  14.941  0.0643  0.0307  0.1442
10739TIP3    H153708   4.991   2.884  14.903 -1.4014  0.7512 -0.9294
10739TIP3    H253709   4.968   2.966  15.028  2.1691 -1.1397  1.1415
10740TIP3   OH253710   2.631   5.212  15.993  0.3848 -0.6153 -0.4366
10740TIP3    H153711   2.685   5.136  15.973  2.7270  1.0691 -0.8372
10740TIP3    H253712   2.618   5.207  16.088  2.2249 -0.4732 -0.1468
10741TIP3   OH253713   0.109   2.203  16.545  0.0377  0.4738  0.2219
10741TIP3    H153714   0.021   2.199  16.507 -0.3528 -0.0091  1.1344
10741TIP3    H253715   0.117   2.122  16.595  0.8967  0.6503  0.3876
10742TIP3   OH253716   1.593   1.690   5.781  0.2220  0.0518 -0.2471
10742TIP3    H153717   1.643   1.639   5.718 -0.5560 -1.8540  0.6052
10742TIP3    H253718   1.625   1.780   5.769  1.6572 -0.5951 -1.7871
10743TIP3   OH253719   3.724   1.169   4.425  0.5582 -0.0666 -0.3650
10743TIP3    H153720   3.737   1.262   4.404  0.6073  0.1528  0.6190
10743TIP3    H253721   3.632   1.153   4.402  0.4854  0.2793 -0.3233
10744TIP3   OH253722   1.885   3.733   2.466 -0.3433  0.2239 -0.7076
10744TIP3    H153723   1.914   3.708   2.379  0.7926  0.2340 -0.3522
10744TIP3    H253724   1.826   3.663   2.493  3.3477 -2.7214  0.5973
10745TIP3   OH253725   3.503   5.806  15.525 -0.0543 -0.1544 -0.1615
10745TIP3    H153726   3.543   5.803  15.612  2.9597  0.5800 -1.3723
10745TIP3    H253727   3.438   5.875  15.530  0.5809  0.3726  1.3479
10746TIP3   OH253728   1.425   1.851   3.306  0.0997  0.2049  0.4086
10746TIP3    H153729   1.518   1.850   3.285  0.0145  1.3525 -0.1141
10746TIP3    H253730   1.387   1.914   3.244 -1.0201 -0.2191  0.6308
10747TIP3   OH253731   0.877   5.184   5.662 -0.1513 -0.3431 -0.2521
10747TIP3    H153732   0.944   5.160   5.726  0.9281 -2.4487 -2.0250
10747TIP3    H253733   0.795   5.173   5.709  0.6462 -0.7492  1.1123
10748TIP3   OH253734   3.675   1.816  14.610 -0.4134  0.3759 -0.1985
10748TIP3    H153735   3.602   1.825  14.549 -0.0868  1.5809 -0.4378
10748TIP3    H253736   3.750   1.792  14.555 -0.6767 -1.1517  0.0836
10749TIP3   OH253737   6.663   1.727   1.530  0.0919  0.2256 -0.0984
10749TIP3    H153738   6.739   1.694   1.481 -0.5697 -1.3882 -0.1095
10749TIP3    H253739   6.701   1.784   1.597  1.0668  1.9846 -2.0374
10750TIP3   OH253740   1.364   6.162  12.518 -0.4347  0.0163  0.1183
10750TIP3    H153741   1.432   6.229  12.515 -1.1075  0.7041 -0.0432
10750TIP3    H253742   1.313   6.175  12.438 -1.9081  0.7664  1.1349
10751TIP3   OH253743   0.462   3.280  11.652  0.7894 -0.1641 -0.4293
10751TIP3    H153744   0.550   3.263  11.686  0.6743 -3.0030 -1.2708
10751TIP3    H253745   0.476   3.336  11.576  1.7176  0.5508  0.2478
10752TIP3   OH253746   5.122   3.835  13.446 -0.3719  0.0369  0.4753
10752TIP3    H153747   5.122   3.821  13.352  0.6245  0.4491  0.4033
10752TIP3    H253748   5.048   3.783  13.478 -0.4597 -0.4424 -0.4752
10753TIP3   OH253749   6.302   5.046  16.320 -0.2363 -0.1432 -0.3294
10753TIP3    H153750   6.229   4.986  16.306  1.0699 -1.2873 -3.0765
10753TIP3    H253751   6.378   4.989  16.329  0.6497  1.0549  0.0026
10754TIP3   OH253752   3.384   6.260  15.776  0.4259  0.1342 -0.3870
10754TIP3    H153753   3.333   6.313  15.837  1.6487  1.9810 -0.8787
10754TIP3    H253754   3.387   6.173  15.816 -2.1627  0.1977  0.1643
10755TIP3   OH253755   0.319   4.805  17.033  0.5028  0.1869 -0.3995
10755TIP3    H153756   0.385   4.835  17.096  1.1161 -2.1190  0.1491
10755TIP3    H253757   0.362   4.734  16.986 -1.3460 -0.8683 -0.5714
10756TIP3   OH253758   5.169   6.289  17.385 -0.0485  0.3240  0.2431
10756TIP3    H153759   5.249   6.295  17.333  0.5611 -1.7108  0.8477
10756TIP3    H253760   5.114   6.226  17.339 -0.3136 -0.0417  1.0370
10757TIP3   OH253761   4.037   3.564  14.101  0.1989 -0.2715  0.3754
10757TIP3    H153762   4.067   3.652  14.123  1.0045 -0.8897  1.8658
10757TIP3    H253763   3.946   3.561  14.131 -0.3783  0.5361 -1.1549
10758TIP3   OH253764   1.850   6.021   2.072  0.2093  0.0579  0.1793
10758TIP3    H153765   1.917   5.975   2.021 -1.3949  0.0041 -2.0067
10758TIP3    H253766   1.767   5.987   2.039 -0.9895  2.5755  0.3507
10759TIP3   OH253767   2.826   5.471  14.267  0.0375  0.5771 -0.7966
10759TIP3    H153768   2.906   5.421  14.249 -0.1756  0.3668 -1.1678
10759TIP3    H253769   2.756   5.418  14.229 -0.3329  0.5284 -0.0640
10760TIP3   OH253770   6.001   5.181  16.687  0.3892  0.6272 -0.2080
10760TIP3    H153771   6.035   5.195  16.599  0.1045  1.0185 -0.2578
10760TIP3    H253772   6.003   5.267  16.728 -0.8914  0.7386 -0.3398
10761TIP3   OH253773   1.095   3.482   0.434 -0.2130 -0.7389  0.0825
10761TIP3    H153774   1.118   3.456   0.523 -0.4559 -1.8196 -0.1558
10761TIP3    H253775   1.035   3.413   0.404 -3.4188  1.6010  0.4982
10762TIP3   OH253776   3.457   4.113  17.019 -0.0946 -0.4307 -0.4374
10762TIP3    H153777   3.539   4.064  17.032  0.0931  0.1473  0.6014
10762TIP3    H253778   3.478   4.202  17.046 -1.6922 -0.7431  2.1019
10763TIP3   OH253779   4.638   1.711  17.043  0.3289 -0.2038  0.1216
10763TIP3    H153780   4.552   1.703  17.084  0.6823  0.8270  1.1203
10763TIP3    H253781   4.700   1.702  17.116  1.0151  0.5835 -0.3437
10764TIP3   OH253782   2.594   0.330   5.413  0.3530 -0.4389  0.5804
10764TIP3    H153783   2.674   0.314   5.464  0.5734 -1.4738 -0.0558
10764TIP3    H253784   2.549   0.400   5.460 -0.0614 -2.1406  2.9152
10765TIP3   OH253785   2.203   1.330  15.273  0.5446 -0.1734 -0.9137
10765TIP3    H153786   2.125   1.313  15.327  0.9975 -0.9404 -0.4855
10765TIP3    H253787   2.269   1.360  15.335  1.0441 -0.9755 -1.0360
10766TIP3   OH253788   4.069   6.693  14.630 -0.3620 -0.2818 -0.4544
10766TIP3    H153789   4.120   6.644  14.566  1.2607  2.4980 -1.4345
10766TIP3    H253790   3.978   6.684  14.600  0.1654 -0.5925 -2.0118
10767TIP3   OH253791   2.346   6.001   2.801  0.7684 -0.1322 -0.3498
10767TIP3    H153792   2.401   6.056   2.857 -2.7330  1.7435  1.6645
10767TIP3    H253793   2.342   6.048   2.718  1.3661  0.2429 -0.1723
10768TIP3   OH253794   6.102   0.210   0.281 -0.2487  0.1982 -0.3274
10768TIP3    H153795   6.025   0.245   0.325  0.6220 -1.2400  2.5906
10768TIP3    H253796   6.071   0.185   0.194 -2.8184  0.5095  0.4245
10769TIP3   OH253797   5.507   1.742   5.113  0.0369  0.1591  0.3908
10769TIP3    H153798   5.437   1.721   5.052 -1.3055  1.0093  1.5712
10769TIP3    H253799   5.561   1.663   5.117 -2.4280 -1.5679  1.5061
10770TIP3   OH253800   5.708   0.436   1.542  0.2652  0.2308 -0.3214
10770TIP3    H153801   5.683   0.522   1.574 -0.3085  1.1194 -2.9105
10770TIP3    H253802   5.696   0.441   1.447 -0.3856 -2.8948 -0.5154
10771TIP3   OH253803   0.862   2.181  11.789 -0.4335  0.7021  0.1032
10771TIP3    H153804   0.914   2.127  11.848  1.1639 -0.3921 -2.1643
10771TIP3    H253805   0.863   2.268  11.829  2.1004  0.4161  0.8258
10772TIP3   OH253806   0.128   2.984   2.629  0.9335  0.0031  0.1371
10772TIP3    H153807   0.111   3.019   2.541  0.3005 -0.0714  0.2217
10772TIP3    H253808   0.222   2.967   2.630  0.6857 -1.7874 -1.1903
10773TIP3   OH253809   0.707   0.527  12.850 -0.0990 -0.0297 -0.0123
10773TIP3    H153810   0.779   0.575  12.891  0.8455 -1.5376  0.1612
10773TIP3    H253811   0.645   0.595  12.825  0.4035  1.1515  1.7287
10774TIP3   OH253812   3.422   4.439  16.803  0.4024  0.6040  0.1622
10774TIP3    H153813   3.463   4.409  16.884  1.3029  1.3208 -0.0157
10774TIP3    H253814   3.481   4.507  16.769 -0.1001  0.5109 -0.9514
10775TIP3   OH253815   5.244   6.580   6.483 -0.1391 -0.0071 -0.0241
10775TIP3    H153816   5.198   6.517   6.540 -2.2057  0.3764 -1.1657
10775TIP3    H253817   5.278   6.646   6.543 -1.4833 -0.0877  0.8709
10776TIP3   OH253818   3.945   5.676   6.866 -0.1079 -0.1291 -0.4042
10776TIP3    H153819   4.017   5.739   6.864 -0.2979  0.1626  0.9319
10776TIP3    H253820   3.929   5.655   6.774 -0.0852  1.8423 -0.9154
10777TIP3   OH253821   6.507   5.667   4.445  0.0121  0.5513 -0.6143
10777TIP3    H153822   6.590   5.640   4.486 -0.2811 -0.1043 -0.4320
10777TIP3    H253823   6.449   5.684   4.519 -1.2762 -2.9393 -0.6037
10778TIP3   OH253824   3.177   2.975  16.286 -0.5205  0.1419  0.4440
10778TIP3    H153825   3.116   3.024  16.341 -1.5553  0.3239 -0.7964
10778TIP3    H253826   3.135   2.891  16.273 -0.2996  0.1084 -0.0705
10779TIP3   OH253827   0.781   4.961  16.702 -0.6103 -0.2238 -0.0070
10779TIP3    H153828   0.781   5.046  16.746 -0.0931  0.2860 -0.9771
10779TIP3    H253829   0.825   4.902  16.764 -0.1031  0.4296  0.2665
10780TIP3   OH253830   0.353   6.587  17.411  0.0007 -0.0825  0.1064
10780TIP3    H153831   0.359   6.593  17.506 -0.9478 -1.1372  0.2528
10780TIP3    H253832   0.303   6.507  17.395  0.2144  0.0404 -1.2818
10781TIP3   OH253833   5.763   6.246   4.395 -0.0419 -0.3935  0.0993
10781TIP3    H153834   5.673   6.225   4.419  0.3207 -1.8309  0.3009
10781TIP3    H253835   5.807   6.161   4.390  1.7810  0.3449  1.9052
10782TIP3   OH253836   4.758   4.777  14.616 -0.1674  0.4536  0.4354
10782TIP3    H153837   4.739   4.694  14.659  0.0057  0.1293 -0.1048
10782TIP3    H253838   4.698   4.840  14.657 -0.0007  0.1541  1.1445
10783TIP3   OH253839   6.431   2.337  16.117  0.0907  0.2235 -0.3873
10783TIP3    H153840   6.470   2.352  16.203 -0.9845 -1.3612  0.4412
10783TIP3    H253841   6.406   2.424  16.086  3.7562  1.3079 -0.8196
10784TIP3   OH253842   0.736   6.042  12.731  0.7000 -0.2014  0.3419
10784TIP3    H153843   0.648   6.009  12.745  0.4132  0.7558  0.8727
10784TIP3    H253844   0.727   6.107  12.662  1.3484 -1.5405 -1.0895
10785TIP3   OH253845   2.163   3.414   0.365 -0.0170 -0.5690 -0.6665
10785TIP3    H153846   2.070   3.421   0.343  0.0546  1.1124 -0.5334
10785TIP3    H253847   2.207   3.474   0.305  0.6527  0.7858  1.0897
10786TIP3   OH253848   3.627   5.137  12.513 -0.3250 -0.0302 -0.2662
10786TIP3    H153849   3.606   5.159  12.604 -0.6021 -1.1530 -0.0400
10786TIP3    H253850   3.547   5.098  12.478 -0.1536  0.1967 -0.9258
10787TIP3   OH253851   0.337   3.905  15.686 -0.0257 -0.6965 -0.2734
10787TIP3    H153852   0.328   3.880  15.594 -2.1963 -1.6832  0.1327
10787TIP3    H253853   0.285   3.839  15.733 -0.5856  0.9032  1.4712
10788TIP3   OH253854   6.205   6.358  16.127 -0.2401  0.3299  0.4162
10788TIP3    H153855   6.298   6.381  16.128 -0.1710  0.4801 -2.4248
10788TIP3    H253856   6.163   6.423  16.184  1.0665  2.0301 -0.4839
10789TIP3   OH253857   5.490   2.439  13.460 -0.0949  0.0245 -0.2425
10789TIP3    H153858   5.433   2.478  13.395 -0.9890  1.6729  1.4258
10789TIP3    H253859   5.568   2.496  13.461 -0.8865  1.1478  1.3623
10790TIP3   OH253860   3.541   1.949   1.179 -0.5308  0.2281  0.2414
10790TIP3    H153861   3.474   1.919   1.241 -1.0877  3.6132  1.4907
10790TIP3    H253862   3.624   1.938   1.225 -0.5903 -0.3659  0.2194
10791TIP3   OH253863   4.674   1.055   4.690  0.2279  0.0686 -0.2386
10791TIP3    H153864   4.701   1.146   4.703 -1.8190  0.9537 -1.5952
10791TIP3    H253865   4.699   1.034   4.600 -0.2631 -0.3268 -0.2931
10792TIP3   OH253866   1.615   6.702  17.144 -0.1908  0.0952  0.3866
10792TIP3    H153867   1.707   6.724  17.131 -0.2265  0.5989  0.9063
10792TIP3    H253868   1.568   6.755  17.079 -0.2732  1.6421  1.6208
10793TIP3   OH253869   0.922   5.138   2.377 -0.5882 -0.6209 -0.1721
10793TIP3    H153870   0.906   5.204   2.310  2.3640  2.8083  2.1828
10793TIP3    H253871   0.988   5.080   2.339  0.9989  1.2293 -0.3188
10794TIP3   OH253872   6.074   6.406   4.609 -0.4367  0.4555  0.1488
10794TIP3    H153873   6.157   6.419   4.563  0.0756 -1.3701  0.4842
10794TIP3    H253874   6.079   6.463   4.686 -0.0112  1.2281 -0.4399
10795TIP3   OH253875   1.198   6.741   2.134 -0.7234 -0.0105  0.2998
10795TIP3    H153876   1.290   6.751   2.159 -0.8507 -2.9459  2.4694
10795TIP3    H253877   1.159   6.827   2.150  1.2998  0.8461  0.8888
10796TIP3   OH253878   6.504   0.021   5.126 -0.1230  0.3742 -0.3094
10796TIP3    H153879   6.452   0.064   5.194  1.0729  0.7319  0.3985
10796TIP3    H253880   6.503  -0.072   5.151 -0.5754  0.3490 -0.4102
10797TIP3   OH253881   2.473   1.406  12.055  0.1126  0.0068 -0.2643
10797TIP3    H153882   2.542   1.375  11.996  0.0770 -1.6754  0.5033
10797TIP3    H253883   2.424   1.327  12.079 -2.6369  1.2395 -1.4045
10798TIP3   OH253884   3.313   5.358   5.185  0.2356  0.6438  0.4352
10798TIP3    H153885   3.346   5.445   5.160 -0.3008  0.4560 -1.0281
10798TIP3    H253886   3.386   5.299   5.166 -0.2078  0.4871 -0.8870
10799TIP3   OH253887   2.402   2.287  17.421 -0.2976  0.6520 -0.5927
10799TIP3    H153888   2.496   2.287  17.405 -0.3137 -3.1341 -1.7149
10799TIP3    H253889   2.364   2.315  17.337 -0.1404 -0.1727 -0.9536
10800TIP3   OH253890   3.846   4.868  14.042  0.1132  0.1270  0.0786
10800TIP3    H153891   3.857   4.775  14.063  0.9887 -0.1050 -1.3186
10800TIP3    H253892   3.752   4.884  14.055 -0.6471 -1.6912 -2.3163
10801TIP3   OH253893   0.001   5.662  14.812  0.1837 -0.3386  0.7277
10801TIP3    H153894   0.025   5.592  14.872  3.6950  2.0473  2.4431
10801TIP3    H253895  -0.029   5.733  14.868  2.8020  1.6867 -0.2060
10802TIP3   OH253896   4.522   3.781   2.361  0.5198  0.1760  0.2143
10802TIP3    H153897   4.586   3.835   2.407 -0.2081  1.7103 -0.5210
10802TIP3    H253898   4.512   3.823   2.276 -1.0431 -0.3734  0.1002
10803TIP3   OH253899   3.434   6.119   1.531 -0.2657  0.0705  0.0537
10803TIP3    H153900   3.497   6.049   1.515  0.0542  0.0681  1.1893
10803TIP3    H253901   3.355   6.092   1.484  0.6993  0.2798 -1.7314
10804TIP3   OH253902   0.546   5.737  14.274  0.0699 -0.6095 -0.3721
10804TIP3    H153903   0.548   5.725  14.369 -2.2153 -0.5255 -0.2460
10804TIP3    H253904   0.605   5.811  14.258  3.5276 -2.9807  0.4563
10805TIP3   OH253905   5.537   1.214  15.664 -0.4075  0.0574  0.0148
10805TIP3    H153906   5.475   1.286  15.672  0.8949  0.9738  2.8598
10805TIP3    H253907   5.566   1.217  15.573 -1.4731  2.1745 -0.3013
10806TIP3   OH253908   2.686   3.686  11.878 -0.4519 -0.2655 -0.3828
10806TIP3    H153909   2.768   3.732  11.898  0.0391 -1.3995  0.3234
10806TIP3    H253910   2.714   3.604  11.837 -1.1190 -1.5791  1.6824
10807TIP3   OH253911   2.514   0.848  12.914  0.4676 -0.0443  0.4373
10807TIP3    H153912   2.506   0.943  12.902  0.4040 -0.1945 -0.8939
10807TIP3    H253913   2.424   0.818  12.927  0.5753  0.1715  1.8454
10808TIP3   OH253914   3.932   0.609  10.610 -0.5653  0.0113  0.1915
10808TIP3    H153915   3.975   0.529  10.638 -0.7028  0.6025  2.3095
10808TIP3    H253916   3.870   0.582  10.543  1.6716 -1.1326 -1.5258
10809TIP3   OH253917   2.043   1.716   5.125 -0.8366 -0.0191  0.4264
10809TIP3    H153918   2.031   1.742   5.034  1.2802  1.1052  0.3868
10809TIP3    H253919   2.028   1.796   5.175  1.0856  0.1984  0.7416
10810TIP3   OH253920   4.502   5.680   1.222 -0.1883  0.3184 -0.0917
10810TIP3    H153921   4.537   5.597   1.255  0.3360  0.3117 -0.6406
10810TIP3    H253922   4.407   5.671   1.230 -0.2352 -0.9938 -1.6462
10811TIP3   OH253923   3.784   6.701   3.755 -0.1176  0.1001 -0.3952
10811TIP3    H153924   3.877   6.685   3.774  0.4564  1.0849 -2.1339
10811TIP3    H253925   3.757   6.768   3.818 -0.0455 -1.0739  0.9518
10812TIP3   OH253926   1.521   6.492  12.784 -0.2590  0.1091 -0.2459
10812TIP3    H153927   1.608   6.488  12.824 -0.6425 -0.9445  0.5153
10812TIP3    H253928   1.530   6.442  12.703 -0.5809 -1.5234  0.6922
10813TIP3   OH253929   5.027   0.979  14.736 -0.4125 -0.2330 -0.5802
10813TIP3    H153930   5.052   0.887  14.737  0.3041 -0.0396 -0.3650
10813TIP3    H253931   5.059   1.012  14.652  1.2286  0.3215  0.2221
10814TIP3   OH253932   1.837   0.106  14.241  0.2264 -0.0009  0.5275
10814TIP3    H153933   1.890   0.136  14.168 -0.0376 -1.2310 -0.1958
10814TIP3    H253934   1.823   0.184  14.295  1.1233  0.7399 -0.2891
10815TIP3   OH253935   4.809   1.554   5.339 -0.0071 -0.2671 -0.1086
10815TIP3    H153936   4.800   1.580   5.431 -1.3106  0.0909 -0.3240
10815TIP3    H253937   4.903   1.541   5.328  0.1385 -0.6884  1.3701
10816TIP3   OH253938   4.306   4.509  16.995  0.8044 -0.0428  0.1457
10816TIP3    H153939   4.289   4.494  17.089 -3.0597  0.7772 -0.2432
10816TIP3    H253940   4.309   4.421  16.957  2.7657 -0.3997  1.0251
10817TIP3   OH253941   2.704   5.487   0.515  0.6540  0.3118 -0.3631
10817TIP3    H153942   2.756   5.556   0.556  1.8014  0.6787 -2.2898
10817TIP3    H253943   2.769   5.427   0.478 -0.3219 -1.2660  0.3609
10818TIP3   OH253944   4.564   2.005  16.205  0.1400 -0.4294  0.6914
10818TIP3    H153945   4.626   2.065  16.248  0.6058 -1.6415  1.7616
10818TIP3    H253946   4.616   1.929  16.182 -0.4327 -0.4121 -0.7554
10819TIP3   OH253947   6.245   3.785  15.596 -0.2726 -0.0022  0.0907
10819TIP3    H153948   6.214   3.754  15.512 -1.2706  0.1033  0.4091
10819TIP3    H253949   6.286   3.870  15.577  1.6962 -1.0552 -0.6410
10820TIP3   OH253950   6.256   2.494   3.131 -0.7954  0.0303 -0.4205
10820TIP3    H153951   6.324   2.433   3.161 -2.1021 -1.3212 -0.0845
10820TIP3    H253952   6.210   2.446   3.063 -2.5402  0.2030  0.5950
10821TIP3   OH253953   0.853   4.347   4.919  0.0093 -0.2105 -0.1471
10821TIP3    H153954   0.822   4.358   5.009 -0.8189 -1.3297 -0.2771
10821TIP3    H253955   0.846   4.434   4.881 -0.7357  0.0386  0.5284
10822TIP3   OH253956   6.120   4.763  11.459  0.2545  0.9619  0.9305
10822TIP3    H153957   6.040   4.755  11.407  0.5890  1.2795  0.3507
10822TIP3    H253958   6.152   4.851  11.440  2.4876 -0.2293 -1.4656
10823TIP3   OH253959   5.038   4.635  11.860  0.2688  0.5427 -0.0475
10823TIP3    H153960   4.977   4.592  11.920  1.5401 -1.6283 -0.2053
10823TIP3    H253961   5.000   4.622  11.773 -0.3270  1.5228  0.0470
10824TIP3   OH253962   6.743   0.421   0.546  0.4742 -0.4095  0.3757
10824TIP3    H153963   6.760   0.457   0.634 -2.0656  1.2768  0.3011
10824TIP3    H253964   6.779   0.486   0.486 -0.2112 -0.1566  0.2213
10825TIP3   OH253965   2.614   4.919   3.326  0.7971  0.2341 -0.2201
10825TIP3    H153966   2.565   4.964   3.257  0.0037  1.3470  1.0156
10825TIP3    H253967   2.637   4.989   3.388  0.6226 -0.8751  1.1351
10826TIP3   OH253968   5.954   2.571  17.304  0.2270  0.2703 -0.0199
10826TIP3    H153969   6.015   2.523  17.360 -0.4128  0.0201  0.4733
10826TIP3    H253970   5.943   2.656  17.348 -0.6364 -0.0996  0.4962
10827TIP3   OH253971   3.828   5.199   5.786  0.3162 -0.7066 -0.2307
10827TIP3    H153972   3.901   5.152   5.825 -0.8284 -1.5695  0.9526
10827TIP3    H253973   3.849   5.203   5.692  1.2964 -1.9804 -0.0813
10828TIP3   OH253974   2.268   5.479  12.785 -0.4328 -0.0774 -0.5075
10828TIP3    H153975   2.241   5.433  12.865 -0.7860 -0.0278 -0.5994
10828TIP3    H253976   2.307   5.410  12.731 -1.6698 -0.4300 -0.9728
10829TIP3   OH253977   1.318   3.910   2.864 -0.1149 -0.1091  0.2236
10829TIP3    H153978   1.330   3.999   2.830 -0.5645 -0.4677 -0.9129
10829TIP3    H253979   1.407   3.880   2.883  0.1297  0.1767 -0.4500
10830TIP3   OH253980   6.588   4.051   2.901 -0.1895  0.5895  0.5081
10830TIP3    H153981   6.678   4.045   2.933  0.0167  0.7310 -0.0240
10830TIP3    H253982   6.579   3.976   2.842  0.1306  1.4984 -0.7389
10831TIP3   OH253983   4.037   1.830  15.800 -0.3591 -0.0806 -0.2516
10831TIP3    H153984   3.974   1.827  15.728  0.1465  2.0417 -0.8334
10831TIP3    H253985   3.985   1.807  15.878 -1.5281  0.2136 -0.9181
10832TIP3   OH253986   1.187   5.573  13.364 -0.5102  0.2215 -0.7573
10832TIP3    H153987   1.258   5.597  13.423 -0.5286  0.9327 -1.0144
10832TIP3    H253988   1.222   5.587  13.276 -1.3018  1.6401 -0.8763
10833TIP3   OH253989   4.074   0.391   5.341  0.0043 -0.0719 -0.1776
10833TIP3    H153990   4.127   0.345   5.406  1.0294  2.8538  1.2279
10833TIP3    H253991   4.055   0.325   5.275  1.2727 -2.4860  1.7104
10834TIP3   OH253992   4.362   0.335  15.455 -0.1895  0.4329 -0.0535
10834TIP3    H153993   4.446   0.291  15.473 -0.3207  0.2647  0.1553
10834TIP3    H253994   4.297   0.265  15.459 -0.3985  0.6422  0.2585
10835TIP3   OH253995   1.174   0.640   2.952 -0.3204 -0.7393 -0.5624
10835TIP3    H153996   1.197   0.717   3.004 -0.0809 -1.2129  0.0404
10835TIP3    H253997   1.085   0.618   2.979 -0.2447 -0.9054 -0.4418
10836TIP3   OH253998   5.946   5.053   5.763 -0.2214 -0.3403 -0.6116
10836TIP3    H153999   5.922   5.095   5.845  3.5246  1.0942 -0.0881
10836TIP3    H254000   5.982   4.968   5.789  1.2847  0.2544 -0.6694
10837TIP3   OH254001   2.425   3.581  17.145  0.2633  0.0547  0.4979
10837TIP3    H154002   2.422   3.676  17.152  0.5982  0.1819 -0.7718
10837TIP3    H254003   2.334   3.555  17.129  0.5426  0.4851 -2.2223
10838TIP3   OH254004   0.230   6.645  12.174  0.1937  0.2682 -0.3844
10838TIP3    H154005   0.312   6.645  12.124  0.4709  1.0228  0.0474
10838TIP3    H254006   0.162   6.626  12.110  0.6497  0.2550 -0.8677
10839TIP3   OH254007   4.826   3.311  11.695  0.1200 -0.5715 -0.0986
10839TIP3    H154008   4.855   3.398  11.670  0.2738 -0.5854  0.0347
10839TIP3    H254009   4.800   3.320  11.786 -0.9640 -0.3874 -0.4099
10840TIP3   OH254010   1.286   0.915   2.345 -0.1137 -0.0239 -0.0525
10840TIP3    H154011   1.282   0.967   2.265  2.0150 -0.0133 -0.2187
10840TIP3    H254012   1.253   0.829   2.319 -0.8665  0.4074 -0.5418
10841TIP3   OH254013   6.524   4.317   1.585  0.6845 -0.5904 -0.0230
10841TIP3    H154014   6.517   4.329   1.491 -0.2687 -1.3789 -0.0678
10841TIP3    H254015   6.475   4.237   1.603 -0.2815  0.2464  1.3077
10842TIP3   OH254016   3.660   0.718   1.393 -0.5689 -0.2697 -0.0957
10842TIP3    H154017   3.746   0.679   1.411 -0.1956  0.7881  0.5058
10842TIP3    H254018   3.611   0.648   1.349 -0.2238 -1.6801  1.6417
10843TIP3   OH254019   5.516   4.905   6.554  0.5390 -0.5842  0.3973
10843TIP3    H154020   5.508   4.923   6.648 -2.9089  1.3972 -0.1378
10843TIP3    H254021   5.552   4.986   6.517 -1.6770  0.1127 -0.3635
10844TIP3   OH254022   5.124   6.648  13.511  0.6631 -0.5500 -0.8377
10844TIP3    H154023   5.140   6.677  13.421 -0.4380  0.8764 -0.5987
10844TIP3    H254024   5.037   6.609  13.509  0.4438 -0.1015 -0.3026
10845TIP3   OH254025   6.577   1.140   3.583 -0.0502 -0.4894  0.3610
10845TIP3    H154026   6.545   1.226   3.608  1.6038  0.7128 -1.3979
10845TIP3    H254027   6.502   1.098   3.541 -0.1965  1.1090 -1.0543
10846TIP3   OH254028   3.591   2.634  13.865  0.5512  0.3378 -0.2683
10846TIP3    H154029   3.526   2.637  13.795 -0.4218  2.1375  0.6286
10846TIP3    H254030   3.667   2.679  13.829  0.0935  1.1573 -0.2436
10847TIP3   OH254031   0.498   5.471  12.172  0.8053  0.1315  0.7100
10847TIP3    H154032   0.570   5.485  12.110 -0.2558  0.4041 -0.5177
10847TIP3    H254033   0.491   5.554  12.219  1.1316  0.1854  0.6685
10848TIP3   OH254034   5.839   5.940   5.933  0.2676 -0.4046  0.2291
10848TIP3    H154035   5.834   5.871   5.866  0.6314  0.4884 -0.7387
10848TIP3    H254036   5.907   5.909   5.993  1.5100 -0.2082 -1.0303
10849TIP3   OH254037   1.642   6.054  12.628 -0.1440  0.4548  0.0394
10849TIP3    H154038   1.704   6.083  12.694  0.0573 -2.7136  1.4203
10849TIP3    H254039   1.556   6.076  12.664 -0.0014 -0.5570  1.0474
10850TIP3   OH254040   4.157   0.401  15.746 -0.1816  0.6770  1.1014
10850TIP3    H154041   4.163   0.306  15.739 -3.4036  0.4585 -0.8753
10850TIP3    H254042   4.225   0.434  15.687 -0.1707 -0.4814  0.4426
10851TIP3   OH254043   1.667   3.995  16.783 -0.1558  0.2478 -0.9851
10851TIP3    H154044   1.707   3.920  16.737 -1.1344 -0.6034 -0.4904
10851TIP3    H254045   1.589   4.016  16.732 -0.2196  0.5290 -0.7758
10852TIP3   OH254046   3.740   5.966   5.335 -0.2626  0.1749 -0.3469
10852TIP3    H154047   3.689   6.038   5.372 -0.5058  0.4592 -1.1999
10852TIP3    H254048   3.683   5.889   5.343  0.1032  0.0072  0.8096
10853TIP3   OH254049   6.034   2.574   1.553  0.2147  0.0274  0.1453
10853TIP3    H154050   6.032   2.542   1.643 -0.9364 -0.2500  0.0401
10853TIP3    H254051   6.126   2.569   1.527  0.1309 -3.2956  0.0913
10854TIP3   OH254052   1.163   5.603  12.298  1.0025  0.1420 -0.9055
10854TIP3    H154053   1.155   5.529  12.359 -0.3658  0.4192 -0.7057
10854TIP3    H254054   1.250   5.639  12.314  1.9970 -1.8779 -1.5510
10855TIP3   OH254055   1.980   6.479   1.875  0.4218  0.3436  0.6521
10855TIP3    H154056   2.033   6.432   1.939 -1.5775 -1.3863  1.1522
10855TIP3    H254057   1.965   6.415   1.806  0.0169  1.2142 -0.0761
10856TIP3   OH254058   2.782   4.125   5.956 -0.0372 -0.0371 -0.1603
10856TIP3    H154059   2.723   4.151   5.885  0.2819 -0.4806 -0.5891
10856TIP3    H254060   2.732   4.061   6.007 -0.7399  1.1854  0.7633
10857TIP3   OH254061   5.859   0.800   3.173 -0.1495 -0.4304  0.2768
10857TIP3    H154062   5.859   0.832   3.083 -2.0856 -0.1176  0.3510
10857TIP3    H254063   5.903   0.715   3.168  0.6667  0.0279 -0.7641
10858TIP3   OH254064   0.578   4.405  15.703  0.4736  0.2971  0.2646
10858TIP3    H154065   0.574   4.329  15.645 -2.2174  0.0028  0.7116
10858TIP3    H254066   0.576   4.480  15.644  0.7340  0.0101 -0.1142
10859TIP3   OH254067   4.229   4.629   3.170  0.6440 -0.5193 -0.2543
10859TIP3    H154068   4.197   4.645   3.259  0.3643 -0.0487 -0.4368
10859TIP3    H254069   4.165   4.569   3.132  0.3894 -0.1803 -0.3642
10860TIP3   OH254070   0.707   0.776   6.357 -0.1640  0.1707 -0.5197
10860TIP3    H154071   0.639   0.833   6.392  0.8419  1.0075  0.1171
10860TIP3    H254072   0.674   0.688   6.369 -0.7850  0.5375  0.5415
10861TIP3   OH254073   4.287   6.120  11.910 -0.0159 -0.0424  0.0283
10861TIP3    H154074   4.321   6.034  11.886  0.2280  0.8275 -3.2565
10861TIP3    H254075   4.203   6.126  11.865  0.2543  1.6306 -0.3247
10862TIP3   OH254076   6.417   0.968  12.088  0.3922 -0.6325 -0.0582
10862TIP3    H154077   6.445   0.877  12.079 -1.3796 -1.1240 -1.0495
10862TIP3    H254078   6.415   1.002  11.999 -2.3555 -0.7631 -0.1433
10863TIP3   OH254079   1.344   4.106  11.397 -0.1395  0.6048 -0.2164
10863TIP3    H154080   1.340   4.190  11.443 -2.1615  0.9589 -0.9320
10863TIP3    H254081   1.302   4.044  11.457  0.8129  0.2130  0.0595
10864TIP3   OH254082   6.406   1.386  15.430 -0.6285  0.2631  0.2687
10864TIP3    H154083   6.312   1.379  15.444 -1.0256  1.5857 -1.4509
10864TIP3    H254084   6.423   1.335  15.351  0.8092 -3.2137  2.5803
10865TIP3   OH254085   0.427   0.484   4.514  0.0479  0.0674  0.8751
10865TIP3    H154086   0.511   0.447   4.487 -0.4356  1.0779 -2.4108
10865TIP3    H254087   0.412   0.557   4.454 -2.9191  0.2677  1.7128
10866TIP3   OH254088   3.507   3.789   0.355  0.2939 -0.1408 -0.3618
10866TIP3    H154089   3.494   3.837   0.437  0.9551  1.1697 -1.0062
10866TIP3    H254090   3.596   3.812   0.328 -0.0085 -0.3579 -1.5831
10867TIP3   OH254091   2.771   2.331   0.124 -0.4410 -0.2735  1.1840
10867TIP3    H154092   2.715   2.271   0.172  1.1068 -0.7311  2.5064
10867TIP3    H254093   2.860   2.303   0.144  0.3002  0.6908 -0.4940
10868TIP3   OH254094   1.960   0.405  14.731 -0.4419 -0.3304 -0.2922
10868TIP3    H154095   1.971   0.344  14.804 -0.2534  0.1536  0.0923
10868TIP3    H254096   1.883   0.456  14.754 -0.2415 -0.0157 -0.3071
10869TIP3   OH254097   3.557   0.762  16.914 -0.3695 -0.9252 -0.0452
10869TIP3    H154098   3.571   0.668  16.905  0.0471 -1.1634  2.3434
10869TIP3    H254099   3.463   0.772  16.928 -0.4586 -0.9438 -0.6167
10870TIP3   OH254100   0.283   2.632  12.540  0.6392 -0.3778 -0.1483
10870TIP3    H154101   0.238   2.704  12.495  1.0694 -0.2117 -0.3226
10870TIP3    H254102   0.357   2.674  12.584 -0.9669 -0.1637  2.5895
10871TIP3   OH254103   3.725   3.238   5.507 -0.0036  0.6596  0.3667
10871TIP3    H154104   3.783   3.257   5.433 -0.2719  0.1745  0.0332
10871TIP3    H254105   3.652   3.299   5.497  1.1556  2.3620  1.6392
10872TIP3   OH254106   6.622   3.785   1.905 -0.1201 -0.0396 -0.0292
10872TIP3    H154107   6.609   3.866   1.954 -0.1979 -0.2252  0.2624
10872TIP3    H254108   6.649   3.813   1.818  1.3016  0.2623  0.4933
10873TIP3   OH254109   3.849   2.981   3.547 -0.3826 -0.7801  0.1854
10873TIP3    H154110   3.784   3.032   3.595  0.4004  0.6109 -0.1682
10873TIP3    H254111   3.933   3.005   3.588 -0.0770 -2.6809  0.7595
10874TIP3   OH254112   2.008   3.581   2.245  0.2295 -0.1441 -0.2347
10874TIP3    H154113   1.931   3.525   2.262  0.0915  0.0891 -0.0790
10874TIP3    H254114   1.983   3.632   2.168  0.0660  0.2262  0.0642
10875TIP3   OH254115   2.971   6.625   0.554 -0.2334  0.5102 -0.2335
10875TIP3    H154116   3.037   6.619   0.623 -1.8457 -0.1846  1.3220
10875TIP3    H254117   3.012   6.584   0.478  2.1162  2.5335 -0.1893
10876TIP3   OH254118   0.426   0.207   0.483 -0.5294 -0.6932 -0.0950
10876TIP3    H154119   0.457   0.212   0.392  1.3275  0.3921  0.5504
10876TIP3    H254120   0.355   0.271   0.487 -1.1753 -1.3278 -0.9608
10877TIP3   OH254121   0.769   2.864   1.461  0.3260  0.0430 -0.0289
10877TIP3    H154122   0.724   2.947   1.445 -0.2567 -0.2005  0.3203
10877TIP3    H254123   0.828   2.882   1.534  1.0441  0.4515 -0.7025
10878TIP3   OH254124   3.346   0.090   2.219  0.1344 -0.2258 -0.1632
10878TIP3    H154125   3.370   0.183   2.222 -0.7633  0.0002  0.6891
10878TIP3    H254126   3.413   0.047   2.272  0.9834 -0.1900 -1.1660
10879TIP3   OH254127   4.058   1.632   1.029 -0.2097 -0.0578 -0.7921
10879TIP3    H154128   4.017   1.604   1.110  0.7147  0.7008 -0.0320
10879TIP3    H254129   4.139   1.581   1.025 -0.1806  0.0162 -1.1518
10880TIP3   OH254130   5.151   1.487   1.488 -0.0370  0.1996  0.5655
10880TIP3    H154131   5.151   1.562   1.428 -1.1594 -0.8400 -0.7962
10880TIP3    H254132   5.062   1.453   1.483  0.6377 -1.6640  0.5950
10881TIP3   OH254133   0.748   4.452  11.111 -0.4428  0.4878 -0.1404
10881TIP3    H154134   0.744   4.414  11.023 -1.6622  0.6995 -0.2021
10881TIP3    H254135   0.664   4.427  11.151 -0.5059  1.5794  0.4509
10882TIP3   OH254136   1.460   1.299   1.292 -0.1997  0.2049 -0.3727
10882TIP3    H154137   1.491   1.386   1.266  0.5312  0.2734  0.6776
10882TIP3    H254138   1.424   1.312   1.380 -0.8812 -0.3925 -0.5486
10883TIP3   OH254139   1.245   5.066  15.610 -0.1617 -0.0488  0.4459
10883TIP3    H154140   1.204   4.991  15.654 -0.1281  0.2302  0.9671
10883TIP3    H254141   1.323   5.029  15.568 -0.7819 -0.5288 -0.3180
10884TIP3   OH254142   2.640   3.392   3.415  0.6533 -0.2155 -0.2767
10884TIP3    H154143   2.603   3.331   3.352 -1.1717  0.6263 -0.0729
10884TIP3    H254144   2.667   3.337   3.489 -3.0611 -0.7210  0.9177
10885TIP3   OH254145   0.625   1.639  16.554  0.7016  0.2601 -0.0615
10885TIP3    H154146   0.687   1.702  16.517 -0.3077  0.2251 -1.9342
10885TIP3    H254147   0.543   1.655  16.506 -0.8222  0.4098  2.4196
10886TIP3   OH254148   1.267   4.030  16.306 -0.4010 -0.1999 -0.4077
10886TIP3    H154149   1.215   4.047  16.228 -1.5354 -3.0983 -0.4062
10886TIP3    H254150   1.354   4.008  16.273 -0.1924  0.9582 -0.6595
10887TIP3   OH254151   0.554   2.316   3.422 -0.6171 -0.8246 -0.2734
10887TIP3    H154152   0.469   2.306   3.465 -0.4834 -0.7568  0.0123
10887TIP3    H254153   0.551   2.403   3.383 -0.5981 -0.7346 -0.0759
10888TIP3   OH254154   3.303   1.693  12.359 -0.3216  0.1983 -0.8729
10888TIP3    H154155   3.270   1.603  12.352  1.0551 -0.3914 -0.1148
10888TIP3    H254156   3.353   1.693  12.441 -0.7745  1.8216 -0.5683
10889TIP3   OH254157   4.811   3.215   6.206  0.4212 -0.1339 -0.1101
10889TIP3    H154158   4.892   3.229   6.255 -0.3332  0.6712  0.9469
10889TIP3    H254159   4.817   3.276   6.133  0.4773  0.4150  0.3416
10890TIP3   OH254160   5.145   3.107  15.852  0.3744  0.2592  0.2334
10890TIP3    H154161   5.108   3.178  15.904 -0.7462  0.7275 -1.1338
10890TIP3    H254162   5.083   3.096  15.779  0.3695 -2.2752  0.5210
10891TIP3   OH254163   5.458   2.604   2.507  0.3238 -0.5828 -0.3579
10891TIP3    H154164   5.494   2.615   2.595  0.1856 -0.1581 -0.3576
10891TIP3    H254165   5.428   2.513   2.505 -1.1324 -0.1556  0.5663
10892TIP3   OH254166   6.536   5.416  11.702 -0.2199 -0.4570 -0.0203
10892TIP3    H154167   6.518   5.336  11.651 -0.1794 -1.7009  1.8392
10892TIP3    H254168   6.489   5.485  11.654 -0.8925 -1.7151 -1.2655
10893TIP3   OH254169   0.148   2.054  12.236  0.4747 -0.5209 -0.4416
10893TIP3    H154170   0.106   1.968  12.232 -0.0922 -0.2542 -0.1310
10893TIP3    H254171   0.204   2.050  12.314  2.2651 -1.4310 -1.6965
10894TIP3   OH254172   4.443   6.097  17.298 -0.4617  0.5605 -0.2611
10894TIP3    H154173   4.367   6.058  17.254 -0.8052  0.7213  0.1801
10894TIP3    H254174   4.405   6.146  17.371  0.1270 -0.1410  0.5361
10895TIP3   OH254175   0.532   1.594   3.486 -0.0614  0.0533  0.6433
10895TIP3    H154176   0.438   1.605   3.473 -0.5030 -1.6148  2.0939
10895TIP3    H254177   0.571   1.673   3.448 -1.6963 -0.9118 -3.6003
10896TIP3   OH254178   4.782   4.299   4.841  0.0852 -0.1845 -0.0309
10896TIP3    H154179   4.714   4.343   4.893 -1.7428  0.6582 -2.9085
10896TIP3    H254180   4.833   4.371   4.804  0.5265 -0.7110 -0.4578
10897TIP3   OH254181   2.309   5.685  16.294  1.0603 -0.2175  0.9447
10897TIP3    H154182   2.303   5.768  16.247 -2.5329  0.1643  1.7164
10897TIP3    H254183   2.335   5.621  16.228  1.3109  1.1176 -0.2967
10898TIP3   OH254184   2.262   4.002  13.425 -0.1890  0.8078 -0.6078
10898TIP3    H154185   2.273   3.947  13.348  0.6435 -1.7678  1.2001
10898TIP3    H254186   2.174   3.983  13.456 -0.2576  1.2787 -0.4961
10899TIP3   OH254187   5.409   5.149   0.137  0.1474 -0.0066  0.2591
10899TIP3    H154188   5.407   5.236   0.177 -0.7288  1.1479 -2.1240
10899TIP3    H254189   5.320   5.115   0.150 -0.0591  0.2571 -0.4204
10900TIP3   OH254190   6.764   4.179   4.176 -0.3416  0.0063 -0.0184
10900TIP3    H154191   6.708   4.152   4.248 -1.6780 -0.7560 -1.2772
10900TIP3    H254192   6.764   4.275   4.179 -0.8228 -0.0112  0.6635
10901TIP3   OH254193   3.993   4.098   4.021 -0.1608 -0.1290  0.0334
10901TIP3    H154194   3.908   4.074   4.058 -0.3313 -0.4932 -0.5759
10901TIP3    H254195   3.981   4.091   3.927  1.2287 -2.7603 -0.0719
10902TIP3   OH254196   3.204   2.698  16.624  0.1883  0.4020 -1.1648
10902TIP3    H154197   3.218   2.772  16.683 -0.7928 -0.6423  0.4531
10902TIP3    H254198   3.110   2.682  16.626  0.2858 -0.4125 -2.1035
10903TIP3   OH254199   2.886   5.393   1.861  0.4988 -0.2677 -0.1230
10903TIP3    H154200   2.849   5.393   1.950  0.5930 -0.6003 -0.0830
10903TIP3    H254201   2.971   5.436   1.872  0.2754  0.1868 -0.1529
10904TIP3   OH254202   3.564   4.283  16.377 -0.0393 -0.1471  0.1387
10904TIP3    H154203   3.558   4.260  16.469  2.2684 -0.2344  0.3322
10904TIP3    H254204   3.640   4.342  16.372  1.1840 -1.7295 -1.9240
10905TIP3   OH254205   6.335   4.715  13.543  0.3645  0.4549 -1.0483
10905TIP3    H154206   6.239   4.712  13.545  0.3770 -1.0693  0.8785
10905TIP3    H254207   6.357   4.796  13.588 -0.0198  0.8507 -1.5663
10906TIP3   OH254208   0.795   6.558   4.488  0.4655  0.1383  0.0924
10906TIP3    H154209   0.782   6.628   4.423 -0.9144  0.9513  1.1820
10906TIP3    H254210   0.889   6.539   4.484  0.8005  1.7417 -0.5578
10907TIP3   OH254211   0.846   4.808  17.342 -0.7516  0.3082 -0.2888
10907TIP3    H154212   0.760   4.794  17.301 -1.5615 -2.1047  1.9370
10907TIP3    H254213   0.834   4.780  17.433  1.7166  2.5379  0.8524
10908TIP3   OH254214   6.189   2.018  12.584 -0.0504 -0.1742  0.1459
10908TIP3    H154215   6.238   1.944  12.620 -1.8847 -2.0992 -1.1277
10908TIP3    H254216   6.223   2.028  12.495 -1.8955 -1.5790 -0.7788
10909TIP3   OH254217   6.566   1.531   5.863  0.0859  0.1844 -0.1981
10909TIP3    H154218   6.618   1.456   5.835  2.3634  1.3318  0.6920
10909TIP3    H254219   6.545   1.512   5.955  0.0458  0.3163 -0.1804
10910TIP3   OH254220   3.193   0.357  16.426  0.3898 -0.2319 -0.3672
10910TIP3    H154221   3.266   0.298  16.443  0.0327 -1.0801 -1.6163
10910TIP3    H254222   3.204   0.382  16.334 -0.8524 -0.3437 -0.5651
10911TIP3   OH254223   1.019   2.635  16.998  0.2516  0.5534 -0.2982
10911TIP3    H154224   0.948   2.677  16.951 -0.4092 -0.5599 -0.3228
10911TIP3    H254225   1.001   2.653  17.090 -0.2689 -0.0259 -0.2825
10912TIP3   OH254226   3.208   3.046   5.808 -0.3909 -0.2432  0.3382
10912TIP3    H154227   3.198   3.081   5.896  0.4471  0.0601  0.3220
10912TIP3    H254228   3.212   3.124   5.752  1.0325 -0.3548  0.2516
10913TIP3   OH254229   6.340   5.041  14.959  0.2540 -1.1267 -0.6775
10913TIP3    H154230   6.294   5.121  14.982 -0.2097 -1.4154 -0.5884
10913TIP3    H254231   6.330   4.985  15.035 -0.3377 -1.6701 -1.1379
10914TIP3   OH254232   3.547   0.496  11.199 -0.6313  0.0282  0.4532
10914TIP3    H154233   3.542   0.580  11.153 -1.1943 -0.0470  0.3706
10914TIP3    H254234   3.544   0.430  11.129 -2.3980 -0.1119  0.6251
10915TIP3   OH254235   2.845   3.114  15.866 -0.0588 -0.1659  0.2786
10915TIP3    H154236   2.774   3.106  15.803 -1.0821  0.6919  1.2723
10915TIP3    H254237   2.922   3.081  15.820 -0.2803  2.4155 -2.1958
10916TIP3   OH254238   2.691   0.359  16.983 -0.0409  0.2429 -0.2304
10916TIP3    H154239   2.752   0.372  16.911  1.5935 -1.1865  0.8190
10916TIP3    H254240   2.690   0.264  16.997 -0.7532  0.4385  1.2518
10917TIP3   OH254241   0.888   5.066   0.330 -0.9445 -0.1684  0.0466
10917TIP3    H154242   0.838   5.018   0.264 -1.1025 -1.1829  0.8886
10917TIP3    H254243   0.824   5.090   0.397 -0.2095 -2.3888  1.6577
10918TIP3   OH254244   1.640   1.980   5.905 -0.3925  0.4164 -0.3381
10918TIP3    H154245   1.544   1.977   5.912 -0.3937  0.4799 -0.3253
10918TIP3    H254246   1.670   1.987   5.995 -0.2701 -2.1676 -0.0868
10919TIP3   OH254247   2.453   5.576  12.505 -0.3673  0.1345  0.1488
10919TIP3    H154248   2.387   5.514  12.535 -0.4510  0.3304  0.3692
10919TIP3    H254249   2.535   5.527  12.510 -0.2870  0.3736  1.3269
10920TIP3   OH254250   0.376   0.542  11.498 -0.4250  0.1693  0.3580
10920TIP3    H154251   0.391   0.531  11.592 -0.6542 -0.3350  0.3379
10920TIP3    H254252   0.444   0.488  11.457  0.1362  0.9613  0.2190
10921TIP3   OH254253   0.896   5.048  13.383 -0.0524 -0.3300 -0.0140
10921TIP3    H154254   0.899   5.142  13.365  1.7673 -0.3731 -0.1186
10921TIP3    H254255   0.985   5.026  13.412 -0.7821 -1.7756  1.3180
10922TIP3   OH254256   2.261   0.943   3.417 -0.3189  0.3808  0.3915
10922TIP3    H154257   2.204   0.901   3.481  0.8581  0.6121  1.6354
10922TIP3    H254258   2.201   0.975   3.349 -1.4648 -1.0301  0.6969
10923TIP3   OH254259   4.826   4.122   3.721  0.0355  0.4890  0.1734
10923TIP3    H154260   4.795   4.035   3.745 -2.0057  0.9495 -0.5683
10923TIP3    H254261   4.751   4.180   3.736  1.4239  2.2010  0.9323
10924TIP3   OH254262   3.873   3.069  14.163 -0.5646 -0.1483 -0.3061
10924TIP3    H154263   3.954   3.121  14.161 -0.2442 -0.6428 -0.8619
10924TIP3    H254264   3.895   2.994  14.218 -0.0983 -1.1058 -1.7386
10925TIP3   OH254265   5.695   0.954   5.406  0.2690 -0.6399 -0.2567
10925TIP3    H154266   5.638   1.029   5.385 -0.5635 -0.3449  2.6660
10925TIP3    H254267   5.636   0.879   5.407  0.1900 -0.5833  1.2223
10926TIP3   OH254268   5.577   6.053   5.839 -0.5276  0.0814 -0.5372
10926TIP3    H154269   5.573   6.137   5.795 -0.1282 -0.1530 -1.0367
10926TIP3    H254270   5.670   6.041   5.859 -0.7126  0.2273  0.4661
10927TIP3   OH254271   3.762   3.904   3.735  0.1954  0.0216 -0.0104
10927TIP3    H154272   3.707   3.847   3.790  0.0412  0.8763  0.7579
10927TIP3    H254273   3.746   3.992   3.769  0.6384  0.4974 -0.9944
10928TIP3   OH254274   5.470   3.894   0.767 -0.3721 -0.5454  0.0553
10928TIP3    H154275   5.544   3.948   0.739 -0.4132  1.1259  2.7565
10928TIP3    H254276   5.462   3.827   0.699  3.2716 -0.5141 -0.6266
10929TIP3   OH254277   2.441   3.860   3.151  0.0492  0.2945  0.0518
10929TIP3    H154278   2.484   3.778   3.129  0.0789  0.7909 -1.8987
10929TIP3    H254279   2.414   3.896   3.067 -1.2033  1.6174  0.9754
10930TIP3   OH254280   3.833   1.656   4.312 -0.0365  0.1113 -0.1965
10930TIP3    H154281   3.843   1.713   4.389  0.7037 -1.8248  1.2422
10930TIP3    H254282   3.916   1.664   4.266  0.0825  0.1709  0.0254
10931TIP3   OH254283   1.476   3.434   2.337  0.1230  0.2272  0.4895
10931TIP3    H154284   1.548   3.410   2.394 -0.7321  0.4649  1.7106
10931TIP3    H254285   1.426   3.354   2.326  1.0588 -0.1769 -1.1448
10932TIP3   OH254286   0.081   6.072  16.015  0.1380  0.2992  0.2078
10932TIP3    H154287   0.158   6.065  16.071 -0.6326  1.4000  1.4975
10932TIP3    H254288   0.085   6.161  15.981 -1.2180  0.8669  1.3962
10933TIP3   OH254289   1.105   4.901  13.163  0.5460  0.1474  0.2385
10933TIP3    H154290   1.189   4.884  13.122  1.5018  0.9779  1.7709
10933TIP3    H254291   1.059   4.817  13.159  0.7782  0.0694 -1.9999
10934TIP3   OH254292   6.055   4.876  13.963  0.2490 -0.2561 -0.0500
10934TIP3    H154293   6.118   4.939  13.997 -0.0943  1.9431 -3.0487
10934TIP3    H254294   5.971   4.901  14.003  0.6690 -1.0042  1.3308
10935TIP3   OH254295   4.420   4.279  12.109 -0.0851 -0.1756  0.5401
10935TIP3    H154296   4.436   4.208  12.047 -2.0963 -1.3897  1.3280
10935TIP3    H254297   4.446   4.243  12.194  3.3903  1.7273  0.4817
10936TIP3   OH254298   1.876   1.952   3.903 -0.6501  0.2180 -0.3012
10936TIP3    H154299   1.930   1.937   3.825  0.4899 -2.5914  0.9182
10936TIP3    H254300   1.939   1.959   3.975 -1.7941  0.0458  0.7528
10937TIP3   OH254301   2.333   3.257  13.167  0.2463  0.4132 -0.3443
10937TIP3    H154302   2.335   3.198  13.243 -2.1601  1.4541  0.6274
10937TIP3    H254303   2.419   3.299  13.168 -0.0364  1.1535  2.5006
10938TIP3   OH254304   1.994   6.222   5.759  0.1507  0.1058  0.1046
10938TIP3    H154305   1.972   6.142   5.712  2.5943  0.0566 -1.1114
10938TIP3    H254306   1.915   6.276   5.753 -1.2738 -1.8613  0.2688
10939TIP3   OH254307   0.993   5.593   5.728  0.0178 -0.1145 -0.5887
10939TIP3    H154308   0.908   5.600   5.772  0.0920 -2.9882  0.1941
10939TIP3    H254309   1.050   5.552   5.792  1.5512  0.1996 -1.6918
10940TIP3   OH254310   3.952   0.263   4.429  0.1121  0.0522  0.5665
10940TIP3    H154311   4.030   0.266   4.485  0.7679 -0.3941 -0.3117
10940TIP3    H254312   3.889   0.211   4.479  0.9094 -0.8768  0.6212
10941TIP3   OH254313   4.756   6.076   4.446  0.2258 -0.8378 -0.4181
10941TIP3    H154314   4.683   6.014   4.437 -0.9624  0.4594  0.0586
10941TIP3    H254315   4.733   6.149   4.388  0.8196 -0.1133  0.2473
10942TIP3   OH254316   6.307   3.395  16.388 -0.3172  0.3500 -0.7120
10942TIP3    H154317   6.403   3.406  16.389 -0.2108 -0.5227 -0.5060
10942TIP3    H254318   6.276   3.451  16.459  0.1621 -0.3420  0.0539
10943TIP3   OH254319   3.213   2.679   6.548 -0.1178 -0.0253 -0.2562
10943TIP3    H154320   3.272   2.752   6.564 -0.8043  0.5408 -0.2421
10943TIP3    H254321   3.138   2.697   6.605  1.5825 -3.1057  3.4318
10944TIP3   OH254322   3.892   0.643  15.055  0.3545  0.1084 -0.1371
10944TIP3    H154323   3.894   0.657  15.149  1.3566 -0.5819 -0.0379
10944TIP3    H254324   3.872   0.729  15.018  1.3706  0.7014  0.6442
10945TIP3   OH254325   3.468   6.488  15.260 -0.0277 -0.2468  0.4334
10945TIP3    H154326   3.397   6.508  15.321  1.1454  0.3631  1.6368
10945TIP3    H254327   3.423   6.462  15.180 -1.6242  0.6312  0.9852
10946TIP3   OH254328   2.707   2.893  10.587 -0.3071  0.1272  0.2180
10946TIP3    H154329   2.756   2.831  10.642  0.7772  0.2896 -0.5443
10946TIP3    H254330   2.635   2.922  10.643 -0.7174 -1.6414  0.6775
10947TIP3   OH254331   1.989   2.063  17.376 -0.0718  0.0902 -0.1126
10947TIP3    H154332   1.947   2.044  17.292 -0.3737  0.6297 -0.0842
10947TIP3    H254333   1.957   1.995  17.435 -0.4412  0.1523 -0.2437
10948TIP3   OH254334   4.237   2.061   6.761  0.0915  0.1519 -0.0701
10948TIP3    H154335   4.236   2.014   6.677 -0.7106 -1.9840  1.0693
10948TIP3    H254336   4.149   2.097   6.769  0.0710  0.0803  0.0176
10949TIP3   OH254337   4.639   4.037   0.192 -0.9832  0.4516 -0.5171
10949TIP3    H154338   4.662   4.112   0.247 -1.2943  1.2191 -1.4214
10949TIP3    H254339   4.590   3.979   0.251  2.9692 -1.2311  1.5003
10950TIP3   OH254340   4.463   1.841  16.833 -0.3156 -0.4382  0.3110
10950TIP3    H154341   4.519   1.880  16.766 -0.3530 -1.0008 -0.0579
10950TIP3    H254342   4.418   1.770  16.787 -1.4771  0.1238  0.5485
10951TIP3   OH254343   3.749   1.054   1.211 -0.2641 -0.2510 -0.1823
10951TIP3    H154344   3.708   0.996   1.274  0.9416 -1.6580 -0.6194
10951TIP3    H254345   3.697   1.134   1.213 -1.8839 -1.2853  0.5706
10952TIP3   OH254346   4.587   1.518   3.273  0.2202  0.0970 -0.4241
10952TIP3    H154347   4.555   1.508   3.363  0.7770 -0.2465 -0.2559
10952TIP3    H254348   4.532   1.460   3.221 -0.5974  0.8627 -0.4295
10953TIP3   OH254349   5.446   4.723   3.621  0.3422 -0.2979  0.0374
10953TIP3    H154350   5.506   4.762   3.557  1.3493  0.1605  1.2153
10953TIP3    H254351   5.471   4.631   3.625 -0.1243 -0.4564 -0.6630
10954TIP3   OH254352   0.231   1.513   2.617  0.0605  0.2288 -0.3321
10954TIP3    H154353   0.176   1.550   2.685  0.2139 -1.0191  0.4864
10954TIP3    H254354   0.210   1.564   2.539 -1.0557  0.8227  0.3400
10955TIP3   OH254355   3.957   6.760  15.149 -0.4017 -0.2566 -0.2536
10955TIP3    H154356   3.926   6.811  15.075 -1.7647 -0.5534  0.0949
10955TIP3    H254357   3.906   6.679  15.147 -1.2356  0.1546  1.5715
10956TIP3   OH254358   3.783   3.547   4.558 -0.1632 -0.1882 -0.5096
10956TIP3    H154359   3.819   3.591   4.634 -0.0967 -0.3108 -0.4703
10956TIP3    H254360   3.735   3.615   4.511  0.1120 -0.0288 -0.5587
10957TIP3   OH254361   5.938   3.342   2.628 -0.3262  0.1198 -0.3605
10957TIP3    H154362   5.917   3.254   2.598 -2.1082  0.4652 -0.2435
10957TIP3    H254363   5.925   3.398   2.551  1.2257  0.2663 -0.5564
10958TIP3   OH254364   6.434   6.145  14.855  0.3243  0.3440 -0.3540
10958TIP3    H154365   6.362   6.104  14.806  0.2810  0.1064 -0.0946
10958TIP3    H254366   6.419   6.119  14.946  0.4258  0.7550 -0.2200
10959TIP3   OH254367   3.284   3.474   0.216  0.0855 -0.7381 -0.1986
10959TIP3    H154368   3.215   3.479   0.282  0.1759  2.1807 -0.1996
10959TIP3    H254369   3.302   3.380   0.207 -3.0903 -1.5364  0.5836
10960TIP3   OH254370   3.044   6.154  15.015  0.3480  0.5301  0.1299
10960TIP3    H154371   3.079   6.221  14.957  0.0418  0.6634  0.0984
10960TIP3    H254372   2.990   6.202  15.078 -2.2391  0.0675 -1.6156
10961TIP3   OH254373   1.030   6.076   4.645  0.3380  0.1486  0.3295
10961TIP3    H154374   1.002   6.144   4.707  1.7378  1.8443 -0.8036
10961TIP3    H254375   0.958   6.068   4.583 -0.3422 -0.2952  1.1630
10962TIP3   OH254376   1.427   5.345   2.363  0.4400  0.1327  0.3193
10962TIP3    H154377   1.447   5.302   2.280 -1.3005  1.5169 -0.8726
10962TIP3    H254378   1.363   5.288   2.405  0.2486  0.1357  0.0374
10963TIP3   OH254379   1.694   4.252  12.212 -0.4936 -0.1512  0.2977
10963TIP3    H154380   1.784   4.285  12.206 -0.0949 -0.9973  1.4636
10963TIP3    H254381   1.649   4.293  12.137  0.7067  0.7213  0.0229
10964TIP3   OH254382   6.048   3.715   1.825 -0.1290 -0.0394  0.0274
10964TIP3    H154383   6.047   3.807   1.801  2.1824  0.2271  0.7221
10964TIP3    H254384   5.966   3.702   1.873  0.2850  2.1056  1.4500
10965TIP3   OH254385   5.509   1.548   4.753 -0.1518  0.8985 -0.5128
10965TIP3    H154386   5.445   1.617   4.770 -0.5766  0.3404  0.2275
10965TIP3    H254387   5.522   1.507   4.839 -0.2026 -0.1857 -1.0175
10966TIP3   OH254388   4.172   3.481  16.354  0.8127  0.4140  0.1941
10966TIP3    H154389   4.132   3.561  16.389  1.0337  0.4424  0.3915
10966TIP3    H254390   4.099   3.423  16.337  0.5566  1.0742 -1.0337
10967TIP3   OH254391   3.455   5.002   1.026  0.0566 -0.0360 -0.6060
10967TIP3    H154392   3.410   5.006   0.941  0.4278 -1.5692 -0.9103
10967TIP3    H254393   3.400   4.944   1.079 -1.1365  2.3058  0.8647
10968TIP3   OH254394   4.221   1.990  17.132 -0.4270  0.2253  0.2762
10968TIP3    H154395   4.175   2.015  17.213  2.6455  2.1230  1.6029
10968TIP3    H254396   4.221   2.070  17.079  1.2121  0.2613  0.2903
10969TIP3   OH254397   0.301   2.119  15.333 -0.3194 -0.2471  0.2266
10969TIP3    H154398   0.280   2.028  15.313 -2.0455  0.3458 -0.9478
10969TIP3    H254399   0.262   2.135  15.419 -1.1205 -0.2999 -0.1171
10970TIP3   OH254400   2.159   2.690   5.623 -0.0981  0.1283 -0.0851
10970TIP3    H154401   2.085   2.729   5.671 -0.6333 -0.5338 -0.3481
10970TIP3    H254402   2.119   2.620   5.571  0.7350 -0.2986 -0.1659
10971TIP3   OH254403   5.233   0.167   1.981  0.1501 -0.1970 -0.2960
10971TIP3    H154404   5.201   0.236   2.039 -1.8026  0.9816 -2.5916
10971TIP3    H254405   5.211   0.086   2.027  0.0405  0.6788  1.2706
10972TIP3   OH254406   0.310   1.502   5.552 -0.0469  0.5054 -0.2903
10972TIP3    H154407   0.264   1.571   5.504  1.7807  1.5736 -0.5955
10972TIP3    H254408   0.403   1.525   5.545  0.5107 -1.1487  0.9345
10973TIP3   OH254409   6.130   1.260  16.714 -0.4061 -0.1954 -0.1990
10973TIP3    H154410   6.075   1.295  16.644  2.0786 -2.3863 -3.5994
10973TIP3    H254411   6.096   1.171  16.728 -0.2325 -0.1320  0.6667
10974TIP3   OH254412   3.682   1.269   3.641 -0.4975 -0.2451 -0.0642
10974TIP3    H154413   3.612   1.329   3.668 -0.5261  0.2409 -1.1329
10974TIP3    H254414   3.677   1.269   3.545 -0.8071 -2.3563 -0.0943
10975TIP3   OH254415   2.016   5.616  17.350  0.0520 -0.4341  0.0786
10975TIP3    H154416   2.109   5.630  17.338 -0.2478  0.8984 -0.9426
10975TIP3    H254417   1.985   5.693  17.398 -0.6611 -0.4157 -0.3828
10976TIP3   OH254418   1.780   0.339   5.882 -0.2043  0.2431 -0.1723
10976TIP3    H154419   1.691   0.371   5.897  0.4534  1.1760  2.2266
10976TIP3    H254420   1.830   0.373   5.956  1.8383 -1.4921 -0.6719
10977TIP3   OH254421   3.592   5.812   2.271  0.3229  0.9332  0.1101
10977TIP3    H154422   3.683   5.824   2.245  0.5436  0.8093  0.7999
10977TIP3    H254423   3.588   5.843   2.361  0.1010 -0.7343  0.7198
10978TIP3   OH254424   6.679   0.742   0.661 -0.6762 -0.4467  0.1909
10978TIP3    H154425   6.629   0.675   0.613  1.4961 -1.8909 -0.1951
10978TIP3    H254426   6.753   0.694   0.699 -0.1014  1.4214  1.5799
10979TIP3   OH254427   1.092   1.070  16.161  1.0456  0.3682  0.0034
10979TIP3    H154428   1.129   1.060  16.249 -1.5515 -1.9384  1.0079
10979TIP3    H254429   0.998   1.080  16.176  0.4162 -0.9483 -2.5197
10980TIP3   OH254430   2.399   0.239   2.635 -0.3229 -0.8317 -0.3857
10980TIP3    H154431   2.370   0.329   2.651 -1.1576 -1.3692  1.3266
10980TIP3    H254432   2.443   0.213   2.716 -0.3489 -2.0657 -0.7435
10981TIP3   OH254433   4.223   1.657   1.559  0.0680  0.1703  0.0391
10981TIP3    H154434   4.260   1.569   1.553 -0.2749  0.1405 -2.7573
10981TIP3    H254435   4.167   1.654   1.637 -0.1762 -2.2107 -0.1571
10982TIP3   OH254436   5.440   1.848  10.853  0.2296 -0.0464  0.4068
10982TIP3    H154437   5.397   1.926  10.888 -1.0608 -0.0092 -1.1668
10982TIP3    H254438   5.375   1.808  10.796  1.7208 -0.9148 -0.7599
10983TIP3   OH254439   1.539   5.171  15.787 -0.3206  0.2771  0.4205
10983TIP3    H154440   1.631   5.191  15.806  0.2934 -1.1534 -0.7974
10983TIP3    H254441   1.490   5.222  15.851  1.3245  0.9407  1.2285
10984TIP3   OH254442   6.451   5.689   1.407  0.4317 -0.1212  0.3343
10984TIP3    H154443   6.540   5.685   1.442  0.1589 -1.8913  0.9221
10984TIP3    H254444   6.461   5.665   1.315  0.6718  0.7080  0.1354
10985TIP3   OH254445   4.680   0.475  12.517  0.5230  0.3809 -0.0925
10985TIP3    H154446   4.756   0.482  12.575  0.8176 -1.0349 -0.2862
10985TIP3    H254447   4.716   0.484  12.429  0.4047  0.1915 -0.1609
10986TIP3   OH254448   0.126   4.130  12.377  0.3693 -0.0067  0.1102
10986TIP3    H154449   0.202   4.145  12.433  1.7492  0.7769 -1.8722
10986TIP3    H254450   0.142   4.046  12.334 -0.6109 -0.5399  0.7444
10987TIP3   OH254451   6.139   4.758   3.919  0.3238 -0.1695  0.0529
10987TIP3    H154452   6.108   4.675   3.953 -0.5845 -0.8034 -2.1278
10987TIP3    H254453   6.227   4.740   3.886  0.8163  0.1985  1.1232
10988TIP3   OH254454   2.544   0.083   5.679  1.0359 -0.5111 -0.1712
10988TIP3    H154455   2.589   0.166   5.659  2.8633 -1.7190 -1.3848
10988TIP3    H254456   2.462   0.089   5.631  1.1013  0.6387 -0.1833
10989TIP3   OH254457   3.168   2.702  14.942  0.6230  0.4008 -0.5570
10989TIP3    H154458   3.171   2.712  15.037  2.2875  1.1745 -0.6467
10989TIP3    H254459   3.246   2.749  14.911  1.8849 -2.4341 -2.0532
10990TIP3   OH254460   4.559   4.553  17.241 -0.2595  0.1847  0.2658
10990TIP3    H154461   4.601   4.527  17.159  0.3865 -0.7227  0.8709
10990TIP3    H254462   4.578   4.482  17.302 -0.1674  1.1437  1.3988
10991TIP3   OH254463   0.319   6.451   5.323 -0.6007 -0.1747  0.2341
10991TIP3    H154464   0.280   6.421   5.241 -0.8788  1.3617 -0.2385
10991TIP3    H254465   0.309   6.377   5.383 -0.4578 -1.2987 -1.0854
10992TIP3   OH254466   1.594   6.688   4.613  0.0882  0.2321  0.6264
10992TIP3    H154467   1.502   6.710   4.630 -0.2559 -1.1864  0.7392
10992TIP3    H254468   1.624   6.755   4.551 -1.3157  0.1495 -0.1863
10993TIP3   OH254469   4.041   6.698   2.420  0.0785 -0.1040  0.6731
10993TIP3    H154470   4.077   6.709   2.332 -1.6047  0.1602 -0.0217
10993TIP3    H254471   4.077   6.614   2.451 -0.5401 -1.0020 -0.9256
10994TIP3   OH254472   0.506   0.954   2.091  0.0095 -0.1417  0.0578
10994TIP3    H154473   0.543   0.882   2.040 -1.0846 -2.6839  2.5759
10994TIP3    H254474   0.413   0.934   2.097 -0.6546  2.4262 -0.4923
10995TIP3   OH254475   3.105   5.503   2.411  0.0225  0.4494 -0.4040
10995TIP3    H154476   3.156   5.561   2.354  1.6204 -0.7380 -0.2470
10995TIP3    H254477   3.142   5.517   2.498 -0.3906  0.0717 -0.1626
10996TIP3   OH254478   1.794   2.382  13.620 -0.0887  0.2919 -0.4156
10996TIP3    H154479   1.878   2.341  13.641 -0.0333  1.0559  0.9123
10996TIP3    H254480   1.750   2.392  13.704 -1.2816  0.4240 -1.0325
10997TIP3   OH254481   4.941   5.596  12.636  0.3104  0.2522  0.5193
10997TIP3    H154482   5.018   5.654  12.633  0.3533  0.1912  0.4490
10997TIP3    H254483   4.871   5.651  12.671  0.4839  0.2008  0.9592
10998TIP3   OH254484   1.541   6.394   1.119 -0.7414  0.2350 -0.1354
10998TIP3    H154485   1.452   6.430   1.123 -1.1405 -0.7855  0.6513
10998TIP3    H254486   1.583   6.425   1.199 -1.2611 -1.4087  0.8238
10999TIP3   OH254487   1.754   1.704  13.540  0.8163 -0.5450  0.1334
10999TIP3    H154488   1.692   1.654  13.486  0.4132 -0.6679  0.7010
10999TIP3    H254489   1.811   1.638  13.578  0.4705 -0.5520  0.6483
11000TIP3   OH254490   1.732   3.885  14.983 -0.2174 -0.4389  0.9403
11000TIP3    H154491   1.791   3.811  14.972  0.0610 -0.0237 -0.7037
11000TIP3    H254492   1.716   3.891  15.077  2.8422 -0.1937  1.5221
11001TIP3   OH254493   3.221   5.735  12.596 -0.1656  0.1643  0.1281
11001TIP3    H154494   3.126   5.745  12.599 -0.3179  0.2316 -2.6850
11001TIP3    H254495   3.244   5.753  12.505  2.1693 -3.1116 -0.0805
11002TIP3   OH254496   2.488   3.852  16.004 -0.3529  0.2079  0.0221
11002TIP3    H154497   2.563   3.800  16.031  0.3874  0.2708 -1.7777
11002TIP3    H254498   2.428   3.849  16.078  0.8660 -0.9189  0.9923
11003TIP3   OH254499   6.529   0.742  15.409 -0.0788 -0.3785  0.3111
11003TIP3    H154500   6.510   0.790  15.489 -1.3887  0.5440 -0.5220
11003TIP3    H254501   6.460   0.768  15.348  1.5769 -0.0856 -1.5391
11004TIP3   OH254502   6.116   2.126   5.137 -0.1156 -0.2081  0.9229
11004TIP3    H154503   6.055   2.195   5.112 -0.4272 -0.8989 -0.3014
11004TIP3    H254504   6.137   2.081   5.055  1.0849 -0.7562  1.5067
11005TIP3   OH254505   3.983   4.774   2.135  0.8268  0.0197  0.0864
11005TIP3    H154506   3.894   4.739   2.135  0.8835 -0.2085 -1.3770
11005TIP3    H254507   3.973   4.867   2.116  0.9450 -0.3887 -2.3992
11006TIP3   OH254508   5.844   0.914  15.011 -0.0421 -0.2698 -0.3571
11006TIP3    H154509   5.792   0.924  14.932 -0.0254 -0.0618 -0.3413
11006TIP3    H254510   5.912   0.850  14.988 -0.1274 -0.3200 -0.4651
11007TIP3   OH254511   2.442   4.671  16.830  0.4583  0.4306 -0.4340
11007TIP3    H154512   2.410   4.760  16.846  1.0791  0.5333  0.3076
11007TIP3    H254513   2.401   4.619  16.899  0.8185  0.3184 -0.3010
11008TIP3   OH254514   5.701   3.683   3.026 -0.5243  0.2589 -0.6599
11008TIP3    H154515   5.741   3.604   2.988 -1.5795 -0.1841 -0.8709
11008TIP3    H254516   5.658   3.653   3.106 -2.0123  0.3574 -1.3897
11009TIP3   OH254517   5.747   4.518   6.034 -0.3046  0.0566 -0.2343
11009TIP3    H154518   5.754   4.533   5.939  1.2313 -0.9008 -0.3175
11009TIP3    H254519   5.656   4.492   6.047 -0.5643  0.2729 -1.4387
11010TIP3   OH254520   2.272   1.012  15.230 -0.7697  0.1088 -0.2082
11010TIP3    H154521   2.230   1.026  15.146  1.3972  0.4252 -1.3109
11010TIP3    H254522   2.348   1.070  15.229 -0.3802 -0.2938  1.7400
11011TIP3   OH254523   4.783   1.284  17.214 -0.1857 -0.6137 -0.4496
11011TIP3    H154524   4.690   1.307  17.213 -0.0908 -0.1562  0.2326
11011TIP3    H254525   4.790   1.210  17.154 -1.2066 -1.4245  0.3899
11012TIP3   OH254526   0.586   0.183  11.230 -0.0348 -0.1956 -0.7184
11012TIP3    H154527   0.552   0.217  11.148  1.4006  0.1812 -1.1945
11012TIP3    H254528   0.509   0.149  11.277 -1.0677  0.9105 -1.5697
11013TIP3   OH254529   1.978   5.362   3.222  0.2716 -0.1751  0.2909
11013TIP3    H154530   2.055   5.326   3.177  0.6433  1.1905 -0.2292
11013TIP3    H254531   1.927   5.285   3.248  2.2853 -1.1887  1.5298
11014TIP3   OH254532   1.237   4.852  15.856 -0.3031 -0.5160 -0.2885
11014TIP3    H154533   1.144   4.837  15.837  0.0065  0.4216 -2.8548
11014TIP3    H254534   1.241   4.857  15.952 -3.2222  1.3604 -0.1553
11015TIP3   OH254535   2.824   4.720   1.731 -0.0923  0.8530  0.2288
11015TIP3    H154536   2.732   4.742   1.742 -0.3789 -0.2285  0.0900
11015TIP3    H254537   2.867   4.805   1.718 -1.0632  1.3676  0.2551
11016TIP3   OH254538   5.865   5.543   1.682  0.1343  0.2093 -0.4092
11016TIP3    H154539   5.841   5.473   1.622  2.1062  0.0756 -1.1051
11016TIP3    H254540   5.889   5.497   1.763 -3.0307  0.4173  0.7665
11017TIP3   OH254541   4.599   0.211  12.433 -0.1764  0.3574  0.2925
11017TIP3    H154542   4.688   0.228  12.402 -0.5475  0.0911 -0.9787
11017TIP3    H254543   4.604   0.125  12.475 -0.2557 -0.6712 -1.7015
11018TIP3   OH254544   3.682   0.837  14.146 -0.1662 -0.0764 -0.3523
11018TIP3    H154545   3.680   0.768  14.213 -1.3317 -2.2550 -2.4837
11018TIP3    H254546   3.605   0.891  14.166 -0.5591 -0.7498  0.0235
11019TIP3   OH254547   4.231   4.568  15.959 -0.9291 -0.5121 -0.1742
11019TIP3    H154548   4.212   4.521  15.878 -0.0209 -0.4804 -0.4263
11019TIP3    H254549   4.269   4.651  15.930 -0.0179 -0.7573  0.2638
11020TIP3   OH254550   1.856   3.284  11.521 -0.2061  0.0928  0.1569
11020TIP3    H154551   1.938   3.235  11.525 -0.3177 -0.0912  0.1977
11020TIP3    H254552   1.876   3.358  11.463 -0.2498 -0.4222 -0.5326
11021TIP3   OH254553   0.867   0.980   4.657 -0.4932 -0.1918  0.2652
11021TIP3    H154554   0.847   0.906   4.598 -1.7185 -1.1991  1.8517
11021TIP3    H254555   0.916   0.940   4.728  1.5611  1.1388 -0.3320
11022TIP3   OH254556   4.509   3.397   5.845 -0.1741  0.2380  0.3307
11022TIP3    H154557   4.489   3.423   5.755 -0.1947 -0.9688 -0.0237
11022TIP3    H254558   4.505   3.302   5.844  0.7613  0.1664  1.3960
11023TIP3   OH254559   4.811   2.565  15.164  0.7273 -0.7645 -0.1288
11023TIP3    H154560   4.873   2.520  15.220 -0.4062 -2.7490 -0.3797
11023TIP3    H254561   4.836   2.539  15.075  1.0204  0.4037 -0.4058
11024TIP3   OH254562   1.380   2.443  15.846 -0.7182  0.0046 -0.1545
11024TIP3    H154563   1.459   2.475  15.802 -0.7738  2.4061  1.2790
11024TIP3    H254564   1.338   2.522  15.880 -1.8438 -1.4982  2.2176
11025TIP3   OH254565   4.444   5.968   4.156 -0.2651  0.5203  0.0650
11025TIP3    H154566   4.462   6.060   4.132  3.8301 -0.4671 -1.6643
11025TIP3    H254567   4.478   5.960   4.245  0.4094  0.4971 -0.1836
11026TIP3   OH254568   1.868   1.211   4.510  0.3082 -0.1839 -0.6043
11026TIP3    H154569   1.779   1.236   4.534 -0.1675 -0.9840 -1.4840
11026TIP3    H254570   1.901   1.165   4.587  0.2537  0.7892  0.0210
11027TIP3   OH254571   0.911   4.036  12.534  0.0221  0.2019 -0.2849
11027TIP3    H154572   0.953   4.115  12.500  1.1055 -0.2131  0.0522
11027TIP3    H254573   0.983   3.984  12.569 -0.7094 -0.8200 -0.2649
11028TIP3   OH254574   2.645   6.248   2.649  1.1196 -0.4061 -0.8915
11028TIP3    H154575   2.583   6.313   2.616  2.2034  0.6964 -0.8405
11028TIP3    H254576   2.607   6.219   2.732  0.0867 -0.6572 -1.4366
11029TIP3   OH254577   4.918   0.092   6.373 -0.0397 -0.1520  0.2690
11029TIP3    H154578   4.904   0.143   6.293 -1.5282  1.5120  1.5303
11029TIP3    H254579   4.950   0.007   6.341  0.2698  0.7504 -2.0295
11030TIP3   OH254580   5.216   4.402  16.682  0.3067  0.2851  0.2236
11030TIP3    H154581   5.227   4.495  16.701  1.1636  0.2465 -0.0718
11030TIP3    H254582   5.278   4.357  16.739 -0.6773 -0.1820  0.9685
11031TIP3   OH254583   3.312   2.315   5.674  0.5642  0.7749  0.1118
11031TIP3    H154584   3.273   2.260   5.743 -0.0105 -0.9756 -1.5252
11031TIP3    H254585   3.405   2.318   5.697  0.4952 -0.3272  0.6468
11032TIP3   OH254586   2.586   5.615   5.756  0.7074 -0.0825  0.3096
11032TIP3    H154587   2.547   5.668   5.825  0.2116  0.4548 -0.3599
11032TIP3    H254588   2.513   5.568   5.717  0.9364 -0.1698 -0.0226
11033TIP3   OH254589   5.987   6.267   3.350 -0.4994 -0.0932 -0.3488
11033TIP3    H154590   5.902   6.277   3.392 -1.1301 -0.1368 -1.5796
11033TIP3    H254591   6.001   6.350   3.304  0.1295 -0.0834 -0.1526
11034TIP3   OH254592   5.939   3.207   2.955 -0.4800  0.0166  0.3939
11034TIP3    H154593   5.994   3.216   2.877  0.4712 -0.7035  0.9600
11034TIP3    H254594   5.852   3.186   2.920  0.3654 -2.3939 -0.4669
11035TIP3   OH254595   0.603   1.265   3.327  0.0684 -0.0626  0.4064
11035TIP3    H154596   0.586   1.232   3.415  1.6353 -2.1430  0.0106
11035TIP3    H254597   0.516   1.268   3.286 -0.4345 -1.4439  1.2790
11036TIP3   OH254598   0.907   0.779  11.320  0.1729  0.5175 -0.0079
11036TIP3    H154599   0.872   0.759  11.406  0.5173  1.0052  0.2531
11036TIP3    H254600   1.001   0.793  11.335  0.9387 -2.7653 -0.9913
11037TIP3   OH254601   1.430   6.711  15.952  0.0614 -0.7063 -0.0427
11037TIP3    H154602   1.508   6.716  16.007 -0.2310 -0.7963  0.3822
11037TIP3    H254603   1.367   6.772  15.992  0.1501 -0.1039 -0.7819
11038TIP3   OH254604   3.619   2.985   5.573 -0.3282  0.1970 -0.0881
11038TIP3    H154605   3.651   3.071   5.545 -2.7892  1.7851  1.5151
11038TIP3    H254606   3.542   2.969   5.519 -0.1785 -0.7883 -0.0263
11039TIP3   OH254607   5.604   5.850   2.329  0.1490 -0.0818  0.3124
11039TIP3    H154608   5.622   5.910   2.402 -1.2893  0.2711  0.4041
11039TIP3    H254609   5.642   5.766   2.357  1.8080  0.6488  0.3648
11040TIP3   OH254610   6.148   0.689  16.450  0.3576 -0.0169  0.2978
11040TIP3    H154611   6.134   0.631  16.375 -0.9480 -1.5532  1.6426
11040TIP3    H254612   6.227   0.653  16.492  0.0630 -0.2748  0.6349
11041TIP3   OH254613   5.014   2.795  15.700 -0.7353  0.3289  0.0930
11041TIP3    H154614   5.064   2.759  15.774  0.5102  1.6354 -0.0734
11041TIP3    H254615   4.945   2.846  15.742 -0.7516  0.1182  0.3331
11042TIP3   OH254616   1.373   0.319  11.590 -1.0230  0.0047 -0.5542
11042TIP3    H154617   1.297   0.335  11.534 -1.8619  0.1400  0.5897
11042TIP3    H254618   1.414   0.241  11.553 -1.9999 -0.3540 -0.9109
11043TIP3   OH254619   3.033   0.990  11.101  0.6520  0.4471  0.2227
11043TIP3    H154620   3.094   1.038  11.045  0.8645 -0.5989 -0.4762
11043TIP3    H254621   3.087   0.927  11.148  0.3174  0.5611  0.7680
11044TIP3   OH254622   2.753   4.438   5.454 -0.0619  0.3322  0.1872
11044TIP3    H154623   2.709   4.522   5.461  0.7205  0.7003  0.8910
11044TIP3    H254624   2.845   4.457   5.474 -0.2215 -1.0416  2.5617
11045TIP3   OH254625   4.644   1.967  17.364  0.3342  0.5487  0.0739
11045TIP3    H154626   4.574   1.999  17.307  1.2812  2.5455 -0.0643
11045TIP3    H254627   4.615   1.880  17.391 -1.1982  0.4583 -1.6416
11046TIP3   OH254628   4.678   3.924   6.033  0.6910 -0.6363 -0.3964
11046TIP3    H154629   4.635   4.009   6.044  0.7447 -0.7185  0.4773
11046TIP3    H254630   4.646   3.892   5.949  2.9741  1.6144 -2.3177
11047TIP3   OH254631   3.465   3.240  14.084  0.1558  0.3867  0.4920
11047TIP3    H154632   3.446   3.276  13.997  0.6455  0.4872  0.4252
11047TIP3    H254633   3.379   3.212  14.117  0.1278 -0.8870 -0.5742
11048TIP3   OH254634   4.489   5.100   0.442  0.1688 -0.1262 -0.1677
11048TIP3    H154635   4.410   5.152   0.429  1.0742  0.7953 -2.7449
11048TIP3    H254636   4.479   5.025   0.384  0.7037 -0.5815  0.3135
11049TIP3   OH254637   2.030   1.704   3.649  0.4808 -0.2158  0.1861
11049TIP3    H154638   2.102   1.766   3.641  2.4525 -2.3034  0.8833
11049TIP3    H254639   2.058   1.643   3.717 -1.5891 -1.6048 -0.1084
11050TIP3   OH254640   6.730   5.648   5.804  0.6911 -0.4633 -0.6137
11050TIP3    H154641   6.700   5.617   5.889  0.0791  1.5716 -0.0391
11050TIP3    H254642   6.821   5.674   5.819  0.7629 -0.6335 -0.7424
11051TIP3   OH254643   1.011   0.730   1.603  0.1104 -0.2514  0.5776
11051TIP3    H154644   1.017   0.635   1.611 -0.7255 -0.3392  0.2898
11051TIP3    H254645   1.047   0.749   1.516  1.0618 -0.2095  0.9727
11052TIP3   OH254646   1.717   6.312   5.660 -0.2382 -0.6437  0.3047
11052TIP3    H154647   1.774   6.302   5.583 -2.1009 -2.1419 -0.9709
11052TIP3    H254648   1.678   6.399   5.649  0.6737 -0.2078  0.4165
11053TIP3   OH254649   2.893   3.296  11.352  0.2759 -0.5338  0.7181
11053TIP3    H154650   2.915   3.313  11.260 -0.0313  0.1767  0.7760
11053TIP3    H254651   2.938   3.365  11.401 -1.1414  0.2752  0.9373
11054TIP3   OH254652   4.547   1.752  15.605  0.1870  0.0034  0.5721
11054TIP3    H154653   4.500   1.777  15.684 -0.1597  0.2423  0.2927
11054TIP3    H254654   4.488   1.775  15.533  0.3709 -0.4854  0.2551
11055TIP3   OH254655   1.405   6.715  14.926  0.7458  0.0141  0.9062
11055TIP3    H154656   1.349   6.713  14.848  0.6618  1.1860  0.9130
11055TIP3    H254657   1.493   6.702  14.892  0.7917  1.2430  0.5058
11056TIP3   OH254658   4.453   5.764   5.417 -0.3202  0.4046  0.2353
11056TIP3    H154659   4.529   5.789   5.470 -0.2583  0.4310  0.1354
11056TIP3    H254660   4.489   5.751   5.329 -0.4378  0.4498  0.1807
11057TIP3   OH254661   2.880   4.411  13.851  0.0517 -0.0950 -0.8119
11057TIP3    H154662   2.953   4.360  13.815  2.0353  0.3177  2.2199
11057TIP3    H254663   2.923   4.481  13.900 -2.4114  0.2823  0.9663
11058TIP3   OH254664   6.223   5.507  16.327 -0.6339  0.1692  0.4734
11058TIP3    H154665   6.183   5.572  16.269 -0.0920  1.8880  1.9439
11058TIP3    H254666   6.180   5.520  16.411  0.5256 -0.3493  1.1747
11059TIP3   OH254667   6.517   6.626  16.743 -0.1927 -0.4459  0.0197
11059TIP3    H154668   6.551   6.704  16.697  0.6753 -0.7860  0.0711
11059TIP3    H254669   6.528   6.646  16.836  0.8667 -0.9853  0.0199
11060TIP3   OH254670   6.234   6.341  11.814  0.0362  0.0152  0.4007
11060TIP3    H154671   6.318   6.323  11.773 -0.2448  1.0681 -0.7230
11060TIP3    H254672   6.190   6.256  11.819  0.7309 -0.3699 -0.0170
11061TIP3   OH254673   3.850   0.793   0.095 -0.0766 -0.5172 -0.5896
11061TIP3    H154674   3.843   0.698   0.101 -0.0741 -0.5968 -1.6306
11061TIP3    H254675   3.774   0.820   0.044  0.0618  0.0198 -0.5229
11062TIP3   OH254676   6.592   6.714   1.177  0.0050  0.1176 -0.1281
11062TIP3    H154677   6.660   6.683   1.237 -0.8354 -2.1928 -0.2791
11062TIP3    H254678   6.628   6.698   1.090 -0.0874  0.4031 -0.2185
11063TIP3   OH254679   3.476   3.670   5.969 -0.4232 -0.0245 -0.4877
11063TIP3    H154680   3.518   3.717   6.041 -0.3121 -0.7401 -0.0683
11063TIP3    H254681   3.463   3.736   5.901 -0.3160  0.6133  0.0993
11064TIP3   OH254682   1.065   3.306   0.927 -0.3391 -0.4265 -0.3401
11064TIP3    H154683   1.041   3.254   0.851  1.1660 -2.2663  0.3619
11064TIP3    H254684   1.032   3.257   1.002  0.6164 -0.0984  0.3222
11065TIP3   OH254685   0.742   0.705  16.910  0.6519 -0.3104 -0.3909
11065TIP3    H154686   0.792   0.683  16.831  1.8483  1.2088 -0.0928
11065TIP3    H254687   0.796   0.769  16.956 -1.2711  0.8730  0.3134
11066TIP3   OH254688   0.091   3.116   1.926 -0.7113  0.2574  0.3517
11066TIP3    H154689   0.020   3.179   1.915 -1.4707 -0.7264 -0.5897
11066TIP3    H254690   0.163   3.167   1.964 -1.5782  1.4941  0.3769
11067TIP3   OH254691   0.340   0.890  11.522 -0.1618  0.0705 -0.2905
11067TIP3    H154692   0.268   0.952  11.510  0.0878  0.2899 -0.6941
11067TIP3    H254693   0.300   0.816  11.568  0.1035  1.6188  2.6822
11068TIP3   OH254694   3.108   1.381  17.332 -0.7122  0.0843 -0.1732
11068TIP3    H154695   3.076   1.470  17.347 -0.4849  0.3572 -1.2036
11068TIP3    H254696   3.036   1.337  17.287 -0.2995  0.1791 -0.9409
11069TIP3   OH254697   3.331   4.169   5.458  0.2656  0.1913  0.5067
11069TIP3    H154698   3.279   4.191   5.381 -0.6017 -0.4718  0.8853
11069TIP3    H254699   3.375   4.251   5.482  1.8597  0.0348 -1.6335
11070TIP3   OH254700   2.771   5.083  17.139  0.2597 -0.1208  0.2217
11070TIP3    H154701   2.846   5.140  17.124 -0.1464  0.6302  0.9434
11070TIP3    H254702   2.800   5.020  17.205  0.1527  0.3899  0.7612
11071TIP3   OH254703   3.196   2.717  13.424 -0.0214 -0.0708  0.0308
11071TIP3    H154704   3.232   2.776  13.358  1.6378 -2.5467 -1.4473
11071TIP3    H254705   3.210   2.762  13.508  2.1800  1.1490 -0.9168
11072TIP3   OH254706   2.666   0.778   3.419  0.0577  0.0259  0.5523
11072TIP3    H154707   2.659   0.723   3.497  0.8440  0.8622  1.2340
11072TIP3    H254708   2.686   0.717   3.348 -3.3962 -1.1610  0.3881
11073TIP3   OH254709   1.985   0.040   0.248 -0.1163  0.7922  0.9844
11073TIP3    H154710   1.943   0.105   0.304 -0.7015  1.1603  0.1411
11073TIP3    H254711   2.063   0.013   0.297  0.7022  2.8505  0.9010
11074TIP3   OH254712   1.708   2.708  11.343  0.5696  0.6971 -0.1845
11074TIP3    H154713   1.752   2.748  11.269 -0.1753  0.4414 -0.7777
11074TIP3    H254714   1.738   2.617  11.343  1.8802  1.1025  0.8651
11075TIP3   OH254715   5.028   3.464   2.168 -0.1983  0.8384 -0.4499
11075TIP3    H154716   5.110   3.472   2.217  0.1417 -0.4535 -0.7545
11075TIP3    H254717   5.032   3.376   2.130 -1.0838  1.2930 -1.6464
11076TIP3   OH254718   0.135   2.288  17.357 -0.6959  0.1867  0.5333
11076TIP3    H154719   0.106   2.326  17.274  0.4435 -0.1197 -0.0385
11076TIP3    H254720   0.085   2.208  17.366  0.5117 -0.7743 -0.8537
11077TIP3   OH254721   0.991   2.122   5.805 -0.1324  0.2148  0.0197
11077TIP3    H154722   1.003   2.043   5.753 -0.2325 -0.3773  0.8656
11077TIP3    H254723   1.063   2.121   5.868 -0.9162  0.0296  0.9514
11078TIP3   OH254724   2.397   3.636   5.727 -0.2583  0.2701 -0.0140
11078TIP3    H154725   2.385   3.667   5.637  0.1457 -1.4741 -0.7075
11078TIP3    H254726   2.334   3.687   5.778 -0.1402  1.6570 -1.1893
11079TIP3   OH254727   2.201   6.756  12.134 -0.6611  0.4977 -0.7082
11079TIP3    H154728   2.189   6.839  12.088 -0.8842  0.1460 -1.2955
11079TIP3    H254729   2.131   6.753  12.198  0.6610  1.7952  0.8939
11080TIP3   OH254730   2.965   6.695  11.355  0.5916  0.1926 -0.0351
11080TIP3    H154731   2.899   6.734  11.298 -1.0885  2.0232  2.9024
11080TIP3    H254732   2.980   6.608  11.318 -2.3769  0.2445 -1.6897
11081TIP3   OH254733   3.248   4.209   3.220  0.1841 -0.6979  0.4882
11081TIP3    H154734   3.275   4.211   3.312  0.0914 -1.2175  0.5356
11081TIP3    H254735   3.154   4.187   3.224 -0.0242  0.1478  0.2981
11082TIP3   OH254736   6.374   3.431   3.041 -0.5782  0.2015 -0.0179
11082TIP3    H154737   6.333   3.354   3.001 -2.4419  0.8619  0.5591
11082TIP3    H254738   6.397   3.403   3.130 -3.9530  1.0634  1.2591
11083TIP3   OH254739   1.848   6.346  13.870  0.2358 -0.1494 -0.2401
11083TIP3    H154740   1.906   6.313  13.801  0.9121  1.5035 -0.5210
11083TIP3    H254741   1.893   6.325  13.951 -0.9752 -2.8822 -0.1896
11084TIP3   OH254742   1.305   1.168   3.610  0.4354  0.5017  0.1002
11084TIP3    H154743   1.390   1.204   3.636 -0.8354  3.9152  0.0053
11084TIP3    H254744   1.269   1.132   3.690  0.7680  1.7761  0.8588
11085TIP3   OH254745   2.349   0.533  11.946  0.1883 -0.1624 -0.3226
11085TIP3    H154746   2.417   0.515  11.881  1.7616  0.1744  1.1367
11085TIP3    H254747   2.267   0.534  11.896  1.1264 -1.4858 -2.0105
11086TIP3   OH254748   6.276   4.549  15.575  0.0430  0.2548  0.5576
11086TIP3    H154749   6.294   4.460  15.606 -0.0891  0.6319  1.7319
11086TIP3    H254750   6.265   4.601  15.654  1.3424  1.5853 -0.0868
11087TIP3   OH254751   3.363   5.382   0.921  0.1610  0.9754 -0.0913
11087TIP3    H154752   3.372   5.344   0.834 -0.2415  0.1562  0.2220
11087TIP3    H254753   3.429   5.337   0.974  1.0745  2.1539 -0.1816
11088TIP3   OH254754   4.122   3.429   0.651  0.0593  0.0269  0.8075
11088TIP3    H154755   4.217   3.421   0.643 -0.0050  0.8174 -1.7302
11088TIP3    H254756   4.097   3.361   0.714  2.2673 -0.3207  1.3825
11089TIP3   OH254757   1.612   3.898   3.159 -0.8093 -0.1196  0.7088
11089TIP3    H154758   1.535   3.878   3.212 -0.4754 -1.4144  0.7143
11089TIP3    H254759   1.686   3.882   3.216 -0.4785 -0.6164  0.1489
11090TIP3   OH254760   2.430   2.076   2.541  0.0124  0.6241 -0.5863
11090TIP3    H154761   2.401   2.148   2.486 -0.7168  0.9731  0.2217
11090TIP3    H254762   2.519   2.100   2.568 -0.8167  2.0857  1.0396
11091TIP3   OH254763   6.699   1.790  14.859 -0.1706  0.4821 -0.0779
11091TIP3    H154764   6.627   1.795  14.922  0.7381  0.3793  0.9913
11091TIP3    H254765   6.660   1.752  14.781 -1.3075  0.5523  0.4360
11092TIP3   OH254766   2.641   3.909  12.387 -0.1490 -0.1465  0.8947
11092TIP3    H154767   2.623   3.824  12.427 -2.8680 -0.6214 -0.9850
11092TIP3    H254768   2.579   3.914  12.314  1.5923  2.4393 -0.5696
11093TIP3   OH254769   5.889   3.504  16.431 -0.4177 -0.0988 -0.1121
11093TIP3    H154770   5.967   3.559  16.441 -0.1781 -0.3762 -0.4463
11093TIP3    H254771   5.826   3.540  16.494  0.3295 -0.5006  0.8838
11094TIP3   OH254772   6.571   0.395   2.064  0.3612  0.6485  0.3252
11094TIP3    H154773   6.662   0.404   2.036  0.3313  0.3502  0.1219
11094TIP3    H254774   6.536   0.325   2.008  0.0548  0.6473  0.5170
11095TIP3   OH254775   3.717   4.553   5.384 -0.6531 -0.5936  0.3213
11095TIP3    H154776   3.734   4.647   5.395 -3.3133  0.1743 -1.4607
11095TIP3    H254777   3.742   4.534   5.294 -0.4912 -1.5642  0.5532
11096TIP3   OH254778   2.270   6.128  13.581  0.7343  0.3941  0.4188
11096TIP3    H154779   2.345   6.083  13.619  0.7594  0.6902  0.7305
11096TIP3    H254780   2.197   6.067  13.594  1.2234 -0.6324 -1.4331
11097TIP3   OH254781   0.559   5.378   4.644  0.1547 -0.4328  0.1812
11097TIP3    H154782   0.635   5.332   4.609  2.0965  3.2777 -1.0116
11097TIP3    H254783   0.516   5.416   4.568 -3.6619 -3.1470  0.6978
11098TIP3   OH254784   5.823   2.885  13.266 -0.5717  0.8314  0.2831
11098TIP3    H154785   5.908   2.841  13.268 -0.0785  1.7603  0.2536
11098TIP3    H254786   5.802   2.899  13.359 -1.2560 -0.4326  0.3367
11099TIP3   OH254787   2.076   3.713   5.640 -0.5321  0.7164 -0.2021
11099TIP3    H154788   2.052   3.774   5.709 -0.8737 -0.8476  1.1106
11099TIP3    H254789   2.064   3.626   5.678  0.0466 -0.2014 -1.9635
11100TIP3   OH254790   3.203   1.091   1.400  0.4588  0.1970  0.3068
11100TIP3    H154791   3.249   1.169   1.431  1.4756  0.5227 -1.7936
11100TIP3    H254792   3.114   1.121   1.384  0.0042  0.1039  2.3940
11101TIP3   OH254793   2.249   0.386   0.932  0.0776  0.5045 -0.1873
11101TIP3    H154794   2.244   0.291   0.947  0.6827  0.3317 -0.9862
11101TIP3    H254795   2.211   0.425   1.010 -0.7823 -0.4087 -0.1285
11102TIP3   OH254796   6.023   3.375  14.303 -0.1500 -0.2888 -0.1360
11102TIP3    H154797   5.952   3.311  14.297 -0.9176  0.3447  1.5217
11102TIP3    H254798   6.019   3.407  14.393  0.7621  1.4762 -0.6730
11103TIP3   OH254799   3.690   1.527  12.956  0.4072 -0.0338 -0.5339
11103TIP3    H154800   3.750   1.592  12.919  1.0308 -0.2815  0.0195
11103TIP3    H254801   3.747   1.466  13.003 -0.2553 -0.4349 -0.2413
11104TIP3   OH254802   1.362   5.202   6.281  0.2079 -0.1793 -0.0863
11104TIP3    H154803   1.385   5.206   6.374  0.3081 -0.0137 -0.1192
11104TIP3    H254804   1.311   5.121   6.273 -0.2859  0.0931  0.2181
11105TIP3   OH254805   4.543   3.229  11.758  0.6123 -0.4437 -0.3264
11105TIP3    H154806   4.540   3.324  11.773  1.7602 -0.5368  0.7006
11105TIP3    H254807   4.546   3.219  11.663 -0.5714  0.4922 -0.4882
11106TIP3   OH254808   3.765   3.550  10.608  0.0862 -0.0406 -0.1204
11106TIP3    H154809   3.703   3.541  10.535 -0.0237 -0.0161 -0.0306
11106TIP3    H254810   3.730   3.494  10.676 -0.5411  0.9519  0.4047
11107TIP3   OH254811   4.911   1.700   1.898  0.6392 -0.1821  0.5017
11107TIP3    H154812   4.987   1.658   1.938  2.2278  0.2959 -1.8635
11107TIP3    H254813   4.894   1.650   1.818 -1.6721 -0.3624  1.0282
11108TIP3   OH254814   4.533   1.354  16.385  0.1009  0.0506  0.3275
11108TIP3    H154815   4.610   1.305  16.416 -0.7775 -0.8424  1.1857
11108TIP3    H254816   4.570   1.427  16.336  1.4948 -0.5566  0.4082
11109TIP3   OH254817   3.586   6.322  14.947 -0.2823  0.1433  0.1759
11109TIP3    H154818   3.642   6.246  14.964  1.1786  0.8492 -1.1483
11109TIP3    H254819   3.547   6.305  14.862 -2.0460 -0.2764  1.0316
11110TIP3   OH254820   6.570   0.638  12.579  0.2609  0.8127 -0.4880
11110TIP3    H154821   6.498   0.581  12.605  1.2168 -0.2001  0.0512
11110TIP3    H254822   6.623   0.648  12.658  2.4531 -1.1656 -1.5849
11111TIP3   OH254823   2.919   3.788   0.942 -0.3202 -0.2314  0.0661
11111TIP3    H154824   2.939   3.862   0.999 -1.9985 -1.4403  2.4055
11111TIP3    H254825   2.851   3.820   0.884  2.1928  1.3669 -2.2399
11112TIP3   OH254826   3.008   0.805   2.199 -0.2609 -0.0894  0.4647
11112TIP3    H154827   3.007   0.795   2.294 -0.9701 -0.1071  0.4606
11112TIP3    H254828   2.959   0.729   2.166 -1.8347  0.9965  0.2014
11113TIP3   OH254829   3.158   2.991   6.239 -0.3549 -0.0454  0.3416
11113TIP3    H154830   3.068   3.005   6.268 -0.1791  0.2190  0.7826
11113TIP3    H254831   3.208   2.988   6.321  0.2469  1.3287  0.0564
11114TIP3   OH254832   0.439   3.482  11.846  0.1769 -0.4703 -0.1289
11114TIP3    H154833   0.346   3.462  11.849  0.4172 -1.7784 -0.8693
11114TIP3    H254834   0.471   3.440  11.766  1.0078  1.7344 -1.0456
11115TIP3   OH254835   0.045   5.784  15.207 -0.0290 -0.3472 -0.5135
11115TIP3    H154836   0.034   5.850  15.138 -0.6675 -1.2492 -1.3055
11115TIP3    H254837   0.029   5.832  15.288  1.2741  0.8579 -0.9319
11116TIP3   OH254838   4.204   5.773  11.174 -0.0476 -0.1641 -0.1613
11116TIP3    H154839   4.268   5.769  11.103  1.1530 -0.2262  0.8907
11116TIP3    H254840   4.119   5.777  11.130  0.4586 -2.9686 -1.6290
11117TIP3   OH254841   0.931   2.079  15.155 -0.1001 -0.8921  0.5583
11117TIP3    H154842   0.919   2.054  15.063 -1.2724 -0.5425  0.6058
11117TIP3    H254843   0.994   2.015  15.189 -2.0063 -2.9862  0.3455
11118TIP3   OH254844   3.961   0.393   0.833  0.0585 -0.2450  0.1400
11118TIP3    H154845   4.038   0.434   0.792 -0.1931 -0.1117 -0.2044
11118TIP3    H254846   3.927   0.460   0.892  0.2865 -0.3540  0.3970
11119TIP3   OH254847   5.190   4.975  13.693  0.3541 -0.0056 -0.1042
11119TIP3    H154848   5.130   4.986  13.620 -1.2520  1.2898  1.3451
11119TIP3    H254849   5.169   4.888  13.728 -1.3407  0.7732  0.9138
11120TIP3   OH254850   3.976   1.539  15.141  0.2548  0.2733  0.3067
11120TIP3    H154851   4.059   1.537  15.093  1.8129 -0.9961  2.7959
11120TIP3    H254852   3.930   1.460  15.111 -0.9323  1.8119 -2.2874
11121TIP3   OH254853   2.658   1.695  15.874 -0.6051 -0.2210 -0.2204
11121TIP3    H154854   2.565   1.712  15.891 -0.0608  0.6500  2.3769
11121TIP3    H254855   2.704   1.758  15.930  1.5527 -2.1298  0.2758
11122TIP3   OH254856   5.671   6.605  13.961  0.0452 -0.2639  0.3747
11122TIP3    H154857   5.682   6.664  14.036 -0.3518 -1.4074  1.3684
11122TIP3    H254858   5.576   6.598  13.950  0.0651 -1.1871  0.6746
11123TIP3   OH254859   5.407   3.697   0.552  0.3767  0.4750  0.2248
11123TIP3    H154860   5.327   3.749   0.541  0.3107  0.3941  0.3162
11123TIP3    H254861   5.383   3.610   0.522  0.7252  0.6913 -0.6972
11124TIP3   OH254862   6.150   0.724  17.413 -0.1895 -0.1818  0.0147
11124TIP3    H154863   6.163   0.744  17.321 -0.3903 -0.5388 -0.0964
11124TIP3    H254864   6.227   0.758  17.457 -0.3054  0.3989 -0.2216
11125TIP3   OH254865   5.356   4.818   5.796  0.0780 -0.0365  0.4167
11125TIP3    H154866   5.275   4.855   5.830 -0.6531 -1.3818  0.1937
11125TIP3    H254867   5.328   4.745   5.741  1.3258  0.8520 -1.4947
11126TIP3   OH254868   6.157   1.239  14.693  0.0289 -0.0115 -0.3817
11126TIP3    H154869   6.124   1.149  14.696 -0.0918 -0.0056 -1.3722
11126TIP3    H254870   6.095   1.289  14.747 -0.3421 -0.3874 -0.4544
11127TIP3   OH254871   3.360   2.331   4.924 -0.0427 -0.2165  0.2958
11127TIP3    H154872   3.316   2.312   5.006 -2.1345  0.3339 -0.6270
11127TIP3    H254873   3.317   2.273   4.860  1.2332 -0.3201 -0.4973
11128TIP3   OH254874   2.122   0.109  15.077  0.2513 -0.0855  0.0079
11128TIP3    H154875   2.156   0.021  15.061  1.7217 -0.0356  2.4052
11128TIP3    H254876   2.032   0.094  15.108  0.6360 -0.7971  0.8125
11129TIP3   OH254877   2.506   5.435   2.708  0.0617 -0.6613  0.3489
11129TIP3    H154878   2.528   5.365   2.647 -0.7980  1.3922 -2.4995
11129TIP3    H254879   2.533   5.516   2.664 -2.4440  1.1077  1.7670
11130TIP3   OH254880   0.154   4.811   0.611  0.0633 -0.3892  0.0530
11130TIP3    H154881   0.240   4.809   0.652 -1.0504 -0.0747  2.5822
11130TIP3    H254882   0.123   4.901   0.621  0.3977  0.2133 -3.1660
11131TIP3   OH254883   0.417   2.578   2.263 -0.0305  0.1159 -0.0091
11131TIP3    H154884   0.334   2.606   2.301 -0.9103 -0.7250 -1.2326
11131TIP3    H254885   0.419   2.618   2.176  0.4881 -0.4554 -0.2759
11132TIP3   OH254886   1.250   2.928  13.316  0.8345 -0.7040  0.5741
11132TIP3    H154887   1.251   2.861  13.385 -1.7415 -0.9285  0.4984
11132TIP3    H254888   1.166   2.914  13.271  0.8931  1.6492 -0.3707
11133TIP3   OH254889   3.749   1.021   1.797 -0.3511  0.6659  0.8960
11133TIP3    H154890   3.690   0.954   1.764  1.2672 -0.4488  0.1223
11133TIP3    H254891   3.727   1.100   1.748 -0.3536 -0.0668 -0.3192
11134TIP3   OH254892   1.249   1.124  15.053 -0.0093  0.2108 -0.3828
11134TIP3    H154893   1.182   1.179  15.092 -0.4628 -0.1322 -0.6721
11134TIP3    H254894   1.304   1.096  15.126 -2.0382 -2.1206  0.3705
11135TIP3   OH254895   5.050   6.376   6.594 -0.1945 -0.1644 -0.4559
11135TIP3    H154896   5.081   6.288   6.574 -1.0827 -0.3793 -0.9536
11135TIP3    H254897   4.972   6.387   6.539 -1.2653  0.1739  1.0682
11136TIP3   OH254898   5.257   1.381  14.900 -0.2821  0.5619 -0.1012
11136TIP3    H154899   5.188   1.314  14.911 -0.8879  0.8839 -1.6652
11136TIP3    H254900   5.337   1.330  14.886 -0.9651  0.0583 -2.7187
11137TIP3   OH254901   2.993   6.337  12.102 -0.4438 -0.3678  0.0896
11137TIP3    H154902   2.938   6.331  12.024 -1.4236  3.5288  0.2633
11137TIP3    H254903   3.053   6.410  12.084  1.1143 -1.0933  1.9779
11138TIP3   OH254904   3.881   2.269   0.189 -0.3300  0.2512 -0.0559
11138TIP3    H154905   3.812   2.217   0.230 -1.2562  1.2564 -0.2958
11138TIP3    H254906   3.941   2.204   0.151 -1.8219 -0.6399 -0.9531
11139TIP3   OH254907   5.842   3.705   0.481 -0.1273 -0.2427 -0.0449
11139TIP3    H154908   5.774   3.759   0.442 -0.6585 -0.0521  1.1203
11139TIP3    H254909   5.895   3.766   0.533 -0.2609 -0.7087  0.6477
11140TIP3   OH254910   5.803   3.924  15.212 -0.2769  0.2606 -0.4027
11140TIP3    H154911   5.720   3.879  15.220 -0.4959  0.7453  0.1263
11140TIP3    H254912   5.798   3.969  15.128  0.3687 -1.5260 -1.4445
11141TIP3   OH254913   6.085   3.537   0.746  0.2022 -0.1556 -0.0474
11141TIP3    H154914   6.092   3.570   0.656  2.5085  0.8142  0.4073
11141TIP3    H254915   6.045   3.450   0.737 -2.5292  1.1522 -1.6460
11142TIP3   OH254916   5.252   0.418  12.199  0.3170 -0.1677  0.0252
11142TIP3    H154917   5.226   0.420  12.107 -0.6086  0.6068  0.2855
11142TIP3    H254918   5.234   0.328  12.227  1.6574 -0.7407 -0.8130
11143TIP3   OH254919   2.769   4.084   4.706  0.1294  0.0793  1.1634
11143TIP3    H154920   2.737   4.075   4.795  0.8666  0.7870  1.5139
11143TIP3    H254921   2.863   4.104   4.716  0.2471  0.0364  0.2368
11144TIP3   OH254922   1.492   1.917  12.350  0.1739  0.1412  0.2900
11144TIP3    H154923   1.485   2.003  12.392 -0.5084 -0.2708  1.0397
11144TIP3    H254924   1.415   1.869  12.380 -0.1515 -0.2901 -1.1882
11145TIP3   OH254925   1.822   1.034  12.410  0.2622 -0.1630 -0.0861
11145TIP3    H154926   1.756   1.036  12.340  0.4985 -0.0259 -0.3070
11145TIP3    H254927   1.896   0.986  12.372 -0.3621 -1.8645  0.7552
11146TIP3   OH254928   0.649   0.559  15.024  0.2054 -0.4119 -0.2106
11146TIP3    H154929   0.679   0.649  15.025 -1.3058  0.1237  0.0873
11146TIP3    H254930   0.675   0.524  15.109 -0.6522  0.2787  0.3575
11147TIP3   OH254931   2.028   0.888  15.816  0.6081 -0.2746 -0.1563
11147TIP3    H154932   1.939   0.859  15.796  0.4818 -0.3521  0.4955
11147TIP3    H254933   2.048   0.954  15.749 -1.4452  2.7191  1.9064
11148TIP3   OH254934   3.141   1.033   2.276 -0.3920 -0.2670  0.0853
11148TIP3    H154935   3.104   0.979   2.205  1.3223 -0.8220 -0.4267
11148TIP3    H254936   3.107   0.993   2.356 -2.0272  0.1125 -0.3675
11149TIP3   OH254937   2.821   4.408  11.490 -0.2156 -0.0424 -0.2798
11149TIP3    H154938   2.755   4.355  11.444 -1.1786 -1.4008  2.4379
11149TIP3    H254939   2.804   4.392  11.583  0.5277  3.8436  0.7005
11150TIP3   OH254940   6.382   6.476  12.961 -0.3047  0.1321  0.1411
11150TIP3    H154941   6.447   6.499  12.895 -1.2887  1.5565 -0.3947
11150TIP3    H254942   6.349   6.561  12.992 -1.7858 -0.5479  0.4997
11151TIP3   OH254943   0.114   2.811   4.326  0.2187  0.0436  0.3187
11151TIP3    H154944   0.088   2.798   4.417  0.8751 -0.3216  0.4632
11151TIP3    H254945   0.205   2.782   4.323  0.1541 -0.0950 -0.4884
11152TIP3   OH254946   3.248   4.054   0.599 -0.3720 -0.7438  0.0325
11152TIP3    H154947   3.339   4.078   0.620 -0.9525  0.2636  1.6000
11152TIP3    H254948   3.253   3.962   0.574  1.0585 -0.7816  0.3656
11153TIP3   OH254949   0.028   3.647   1.580 -0.4439  0.3130 -0.1967
11153TIP3    H154950   0.063   3.714   1.521  0.0292 -0.1137 -0.4084
11153TIP3    H254951   0.077   3.568   1.558 -0.8204 -0.0416  0.2279
11154TIP3   OH254952   3.115   3.400  13.264  0.3976 -0.2648 -0.0792
11154TIP3    H154953   3.097   3.391  13.358  0.2425 -1.8800 -0.2509
11154TIP3    H254954   3.062   3.476  13.238  0.1276 -0.0405  1.0465
11155TIP3   OH254955   0.350   2.740   6.248  0.6475  0.4661 -0.0721
11155TIP3    H154956   0.412   2.813   6.259 -0.0129  1.0816 -0.3492
11155TIP3    H254957   0.264   2.780   6.261  0.3751 -0.8469  2.8662
11156TIP3   OH254958   3.430   5.979  17.347  0.6213 -0.1026 -0.3008
11156TIP3    H154959   3.358   6.041  17.341  0.7316  0.0320 -0.2154
11156TIP3    H254960   3.509   6.033  17.351  0.6479 -0.2070  1.0803
11157TIP3   OH254961   1.864   3.714  12.882 -0.0142  0.1887  0.2000
11157TIP3    H154962   1.799   3.716  12.811  0.9385  1.6793 -0.6810
11157TIP3    H254963   1.948   3.726  12.837  0.6288  1.0021  1.5759
11158TIP3   OH254964   3.433   1.199  16.073  0.4259 -0.0824 -0.1309
11158TIP3    H154965   3.403   1.289  16.083 -1.2741 -0.7112  0.8673
11158TIP3    H254966   3.506   1.192  16.134  1.9270  1.1372 -1.6976
11159TIP3   OH254967   6.010   5.908   0.950 -0.4498 -0.2574  0.3781
11159TIP3    H154968   5.981   5.986   0.999  1.4972  0.5988  0.2523
11159TIP3    H254969   5.932   5.880   0.903 -1.3122  1.4074  0.7132
11160TIP3   OH254970   1.847   4.846   1.016 -0.7723  0.1439 -0.0610
11160TIP3    H154971   1.763   4.890   1.028 -1.1638 -0.6117  0.0179
11160TIP3    H254972   1.827   4.753   1.023 -0.2859 -0.1699 -2.2201
11161TIP3   OH254973   2.524   3.404  16.944  0.3535  0.5378  0.0294
11161TIP3    H154974   2.450   3.393  16.885  0.7347  0.2659 -0.4126
11161TIP3    H254975   2.492   3.460  17.014 -0.0524  1.0299 -0.5426
11162TIP3   OH254976   2.103   0.679   1.322  0.6312 -0.2910  0.1589
11162TIP3    H154977   2.044   0.612   1.288  1.0139 -0.2674 -0.5709
11162TIP3    H254978   2.045   0.744   1.362  0.1358 -0.1296 -0.7989
11163TIP3   OH254979   1.675   3.135   0.790 -0.1640 -0.5302 -0.1536
11163TIP3    H154980   1.688   3.206   0.854  0.5614 -0.3161 -0.5250
11163TIP3    H254981   1.586   3.149   0.757 -0.0504  0.1767 -0.1792
11164TIP3   OH254982   1.526   4.580   1.882 -0.0730  0.7636 -0.4627
11164TIP3    H154983   1.483   4.620   1.806 -1.8980 -0.4708 -0.1478
11164TIP3    H254984   1.458   4.578   1.950  0.0805 -2.2515 -0.2690
11165TIP3   OH254985   3.938   5.446  11.928  0.3761  0.4295 -0.5308
11165TIP3    H154986   3.866   5.509  11.936 -0.7789 -0.8935 -0.1267
11165TIP3    H254987   3.938   5.421  11.836 -0.5062 -0.4607 -0.3120
11166TIP3   OH254988   2.991   1.100   2.696 -0.3552 -0.0958 -0.0957
11166TIP3    H154989   2.915   1.138   2.740 -1.1286 -1.2103 -0.4303
11166TIP3    H254990   2.985   1.006   2.713  1.3469 -0.1474  0.4478
11167TIP3   OH254991   5.550   5.763   3.181 -0.4562 -0.0427  0.2957
11167TIP3    H154992   5.492   5.712   3.124  0.1068  0.7330 -1.0347
11167TIP3    H254993   5.526   5.854   3.163  0.5369  0.2567  0.4109
11168TIP3   OH254994   0.129   0.582   0.419  0.2051  0.9779  0.4048
11168TIP3    H154995   0.079   0.638   0.360  1.9704  0.9026 -1.2574
11168TIP3    H254996   0.181   0.642   0.471 -0.5511  0.9908  1.1783
11169TIP3   OH254997   5.575   0.678   0.269  0.0810 -0.1514 -0.5943
11169TIP3    H154998   5.658   0.717   0.240 -0.4043  1.2946 -0.1147
11169TIP3    H254999   5.545   0.627   0.194  3.0407 -3.6593  0.2720
11170TIP3   OH255000   4.707   2.593   3.808 -0.0218  0.4532 -0.3726
11170TIP3    H155001   4.683   2.655   3.739  1.4190  1.5584  0.0677
11170TIP3    H255002   4.624   2.565   3.845 -0.8833 -0.7180 -2.9744
11171TIP3   OH255003   6.302   1.855   4.092 -0.1638 -0.4737 -0.5815
11171TIP3    H155004   6.240   1.823   4.158 -1.5041  0.9401 -1.0864
11171TIP3    H255005   6.291   1.796   4.018 -1.1239 -0.0952 -0.7566
11172TIP3   OH255006   6.760   0.756   2.719  0.1530  0.2589 -0.0116
11172TIP3    H155007   6.713   0.812   2.657 -0.5890 -0.6149 -0.2658
11172TIP3    H255008   6.823   0.814   2.762  0.1755  1.0364 -1.0642
11173TIP3   OH255009   3.290   6.355   5.407  0.0365  0.2455  0.2039
11173TIP3    H155010   3.370   6.306   5.386 -0.5980 -1.5414  1.6750
11173TIP3    H255011   3.249   6.371   5.322  1.6429  0.6685 -0.5257
11174TIP3   OH255012   0.449   3.052  14.057  0.3224 -0.3474 -0.6886
11174TIP3    H155013   0.505   3.129  14.046  1.6344 -0.9987  0.9554
11174TIP3    H255014   0.446   3.011  13.971  3.4095 -0.9505 -0.6041
11175TIP3   OH255015   4.610   4.355   1.669  0.2137  0.1025  0.3926
11175TIP3    H155016   4.630   4.432   1.615  0.8844  0.1208  0.6537
11175TIP3    H255017   4.605   4.283   1.606  0.5802  0.1924  0.2569
11176TIP3   OH255018   5.082   0.642  17.050 -0.0470 -0.0596  0.1953
11176TIP3    H155019   5.017   0.649  17.121 -1.3747 -0.7031 -0.9099
11176TIP3    H255020   5.166   0.640  17.096 -0.8269  0.0549  1.7306
11177TIP3   OH255021   4.245   1.227   3.523  0.3838  0.1224  0.2282
11177TIP3    H155022   4.185   1.163   3.562 -1.6985  0.9617 -1.4166
11177TIP3    H255023   4.206   1.312   3.543  1.0847  0.7016 -0.7956
11178TIP3   OH255024   1.574   6.384  15.642 -0.6264  0.6637 -0.1914
11178TIP3    H155025   1.620   6.432  15.712  0.9901 -0.1131 -0.6734
11178TIP3    H255026   1.618   6.411  15.562 -0.5450 -0.6612 -0.6015
11179TIP3   OH255027   4.624   1.563   0.822 -0.0862  0.5078 -0.7396
11179TIP3    H155028   4.691   1.599   0.764  0.2723 -1.3026 -1.5302
11179TIP3    H255029   4.542   1.570   0.773  0.3360 -1.7554 -1.9152
11180TIP3   OH255030   3.758   3.807  12.825 -0.3241 -0.3223 -0.1519
11180TIP3    H155031   3.754   3.720  12.785 -1.8733 -0.9216  1.2040
11180TIP3    H255032   3.766   3.791  12.919  1.1015  1.0428  0.0177
11181TIP3   OH255033   4.908   5.574  14.232 -0.8306  0.0419  0.4088
11181TIP3    H155034   4.970   5.540  14.297  0.4554 -0.3653 -0.9862
11181TIP3    H255035   4.831   5.518  14.241  0.2757 -1.6467 -0.0801
11182TIP3   OH255036   1.244   2.771   4.509 -0.6450  0.2891 -0.1389
11182TIP3    H155037   1.196   2.688   4.506 -0.2137  0.0566 -0.7138
11182TIP3    H255038   1.193   2.826   4.569 -0.8968 -0.4103  0.3002
11183TIP3   OH255039   6.386   1.639   2.499 -0.3044 -0.0897  0.5584
11183TIP3    H155040   6.320   1.625   2.567 -0.1778  0.9028  0.9086
11183TIP3    H255041   6.468   1.645   2.546 -0.1475  0.0838  0.2682
11184TIP3   OH255042   3.256   0.521   1.276  0.2525 -0.2619  0.6102
11184TIP3    H155043   3.341   0.486   1.303  1.7901  2.5531 -0.1445
11184TIP3    H255044   3.225   0.461   1.209  0.7607 -2.2901  2.0970
11185TIP3   OH255045   0.009   1.680  15.956  0.2798  0.0883  0.5898
11185TIP3    H155046   0.015   1.595  15.999 -0.6618 -0.8750 -1.0826
11185TIP3    H255047   0.020   1.661  15.863 -1.1390  1.6290  0.0530
11186TIP3   OH255048   3.920   4.937  14.512 -0.3240  0.1640 -0.0661
11186TIP3    H155049   3.987   4.930  14.580 -0.6854 -0.1330  0.2671
11186TIP3    H255050   3.876   4.852  14.514  0.9167 -0.6091 -2.0083
11187TIP3   OH255051   5.952   4.529   3.100  0.2604  0.2252  0.3962
11187TIP3    H155052   6.030   4.533   3.155 -0.0452  0.7745  0.8066
11187TIP3    H255053   5.956   4.443   3.058  0.7834  0.0195  0.8564
11188TIP3   OH255054   5.879   4.416  16.940  0.4843 -0.5187 -0.4783
11188TIP3    H155055   5.822   4.437  16.865  1.0599  0.7908 -0.5719
11188TIP3    H255056   5.830   4.349  16.988 -2.0491  1.8213  0.4624
11189TIP3   OH255057   3.235   5.566   1.636 -0.1640  0.0190  0.0605
11189TIP3    H155058   3.157   5.552   1.582  0.7361  0.1698 -1.3253
11189TIP3    H255059   3.302   5.509   1.598  0.6039  0.3915  0.8066
11190TIP3   OH255060   0.143   3.881  13.716 -0.2113 -0.3062 -0.1800
11190TIP3    H155061   0.123   3.853  13.627  0.2559  2.3857 -1.2231
11190TIP3    H255062   0.182   3.968  13.706  1.9469 -0.7964  2.4970
11191TIP3   OH255063   6.741   4.806   3.337  0.3045  0.0431  0.0833
11191TIP3    H155064   6.787   4.878   3.296  0.0141 -0.3915 -1.0497
11191TIP3    H255065   6.648   4.829   3.330  0.0513 -1.4371 -2.3644
11192TIP3   OH255066   3.829   5.804   3.448  0.3704  0.2326  0.4790
11192TIP3    H155067   3.867   5.753   3.376 -0.1528  1.2232 -0.5349
11192TIP3    H255068   3.895   5.802   3.517  2.2535  1.8090 -1.1704
11193TIP3   OH255069   1.132   1.415   0.184 -0.5254 -0.1348 -0.1008
11193TIP3    H155070   1.154   1.506   0.203  2.9302 -1.2192  1.7989
11193TIP3    H255071   1.171   1.398   0.098  0.9831 -0.4255  0.6183
11194TIP3   OH255072   0.910   4.945  13.706  0.3348  0.3760  0.1820
11194TIP3    H155073   0.847   4.977  13.642  1.1772 -0.2516 -0.9934
11194TIP3    H255074   0.857   4.921  13.783 -0.7176  0.8633 -0.3756
11195TIP3   OH255075   6.248   3.838   1.634  0.0421 -0.0743  0.6416
11195TIP3    H155076   6.211   3.926   1.642 -0.5676 -0.0649 -1.5050
11195TIP3    H255077   6.270   3.813   1.723 -0.2778  2.0323  1.3789
11196TIP3   OH255078   0.120   1.872  15.217  0.2394  0.9669 -0.1494
11196TIP3    H155079   0.123   1.936  15.288 -0.1358  0.9979 -0.1568
11196TIP3    H255080   0.049   1.812  15.242  1.4245 -0.2226  0.5118
11197TIP3   OH255081   0.523   1.268  14.239 -0.3346 -0.0007  0.1193
11197TIP3    H155082   0.497   1.328  14.170 -2.6350  2.6006  2.9784
11197TIP3    H255083   0.454   1.275  14.304  1.5305 -2.5050  2.5946
11198TIP3   OH255084   4.783   0.099  12.891 -0.3149  0.0059  0.0236
11198TIP3    H155085   4.798   0.059  12.977 -0.3372 -1.0077 -0.4285
11198TIP3    H255086   4.835   0.046  12.830 -0.8312  0.2898 -0.6853
11199TIP3   OH255087   4.591   0.469   3.755 -0.6815 -0.4930 -0.4680
11199TIP3    H155088   4.594   0.554   3.712 -1.7326 -0.0861  0.2377
11199TIP3    H255089   4.597   0.488   3.848  2.3917 -1.4170 -0.3568
11200TIP3   OH255090   5.543   5.438   3.953 -1.0861  0.2465 -0.2109
11200TIP3    H155091   5.557   5.407   4.042  0.1125  0.8561 -0.1662
11200TIP3    H255092   5.621   5.409   3.905 -1.0385  1.1588 -0.7065
11201TIP3   OH255093   0.472   1.445  11.402  0.2568 -0.0697 -0.1800
11201TIP3    H155094   0.437   1.533  11.389  1.4362  0.2462 -1.5131
11201TIP3    H255095   0.497   1.442  11.494 -2.3104 -0.0010  0.5862
11202TIP3   OH255096   1.669   6.438   1.648 -0.6766  0.3582 -0.0646
11202TIP3    H155097   1.688   6.347   1.667  2.5808  0.9762  0.1729
11202TIP3    H255098   1.575   6.447   1.665 -0.8501 -2.6140  1.0869
11203TIP3   OH255099   2.587   6.140   6.179  0.7046  0.5165  0.7846
11203TIP3    H155100   2.507   6.189   6.159 -0.5997 -0.1597  3.7281
11203TIP3    H255101   2.634   6.196   6.240  1.1761 -0.1807  1.0690
11204TIP3   OH255102   6.710   6.379   0.253 -0.0485  0.2467 -0.1072
11204TIP3    H155103   6.718   6.420   0.168 -2.0637  0.9777  0.0053
11204TIP3    H255104   6.723   6.285   0.236  2.2902  0.6264 -0.7263
11205TIP3   OH255105   0.719   5.821   6.326 -0.1483 -0.3984  0.1306
11205TIP3    H155106   0.674   5.782   6.401 -1.1659  0.5525  0.0483
11205TIP3    H255107   0.748   5.906   6.358  0.2682 -0.3869 -0.2771
11206TIP3   OH255108   6.499   6.410  13.711 -0.1088  0.3335  0.3977
11206TIP3    H155109   6.467   6.322  13.691 -0.7172  0.6379  0.0026
11206TIP3    H255110   6.580   6.418  13.660  0.8166 -0.5558  1.6500
11207TIP3   OH255111   1.770   4.910  17.162  0.0578 -0.1351 -0.2316
11207TIP3    H155112   1.785   4.908  17.068  2.1827 -0.0901  0.0527
11207TIP3    H255113   1.817   4.988  17.192 -0.0486 -0.5013  0.9387
11208TIP3   OH255114   5.135   0.383   0.821 -0.2810 -0.1923 -0.0937
11208TIP3    H155115   5.228   0.365   0.808  0.0752  2.3637 -1.8929
11208TIP3    H255116   5.128   0.415   0.911  0.1727 -2.2841  0.7420
11209TIP3   OH255117   5.909   3.136  16.059  0.3623  0.6038 -0.1567
11209TIP3    H155118   5.876   3.176  16.140 -2.6804 -0.3310 -0.8231
11209TIP3    H255119   5.946   3.210  16.010  2.9310  1.0971  2.2578
11210TIP3   OH255120   6.261   2.037   0.943 -0.0195 -0.1020 -0.3237
11210TIP3    H155121   6.329   2.095   0.979 -1.5543  1.0442  0.8458
11210TIP3    H255122   6.254   2.064   0.851 -0.4173  1.3327  0.0984
11211TIP3   OH255123   0.049   0.046   3.135  0.1463  0.3718 -0.2480
11211TIP3    H155124   0.143   0.060   3.124  0.2091  0.0247 -0.1550
11211TIP3    H255125   0.043  -0.031   3.190 -0.1986 -0.0447 -0.8563
11212TIP3   OH255126   3.695   4.515  16.180  0.7289 -0.4543  0.1566
11212TIP3    H155127   3.729   4.577  16.116  0.6304  0.8907  1.3426
11212TIP3    H255128   3.624   4.470  16.135 -0.0009  1.1738 -0.3929
11213TIP3   OH255129   6.358   5.941   1.182  0.5983 -0.0094 -0.3502
11213TIP3    H155130   6.341   5.993   1.103 -0.9616  1.6562  0.9906
11213TIP3    H255131   6.424   5.990   1.230 -1.0758  0.9766  1.0530
11214TIP3   OH255132   0.566   1.688  14.488 -0.4767  0.2592 -0.1868
11214TIP3    H155133   0.582   1.713  14.397  0.6810 -1.1517 -0.4097
11214TIP3    H255134   0.471   1.697  14.499 -0.8014 -0.6230 -1.8956
11215TIP3   OH255135   4.520   0.547   1.774  0.0707 -0.1424  0.1474
11215TIP3    H155136   4.600   0.545   1.827  0.2238  0.4671 -0.0457
11215TIP3    H255137   4.476   0.627   1.802  0.4771  0.5465 -1.0954
11216TIP3   OH255138   0.413   5.531   4.461 -0.1854 -0.4473 -0.1832
11216TIP3    H155139   0.457   5.587   4.398  1.1498  2.6097  3.1062
11216TIP3    H255140   0.330   5.576   4.479 -0.5146 -1.2192  0.3028
11217TIP3   OH255141   2.592   0.296  15.497 -0.6598  0.1966 -0.7609
11217TIP3    H155142   2.537   0.311  15.574 -0.2049 -1.3700 -0.0684
11217TIP3    H255143   2.534   0.253  15.434 -0.5339 -0.4300 -0.4624
11218TIP3   OH255144   3.204   4.477   1.925 -0.1980 -0.9384  0.1920
11218TIP3    H155145   3.189   4.526   1.844 -0.7023 -0.3129  0.6524
11218TIP3    H255146   3.190   4.386   1.901  1.7173 -1.0022 -0.9182
11219TIP3   OH255147   1.696   5.168   2.941 -0.1064 -0.3873  0.4577
11219TIP3    H155148   1.739   5.124   2.867  1.8899  0.3464  1.1418
11219TIP3    H255149   1.762   5.225   2.977 -1.5031  0.3521  1.9650
11220TIP3   OH255150   4.144   3.537   6.347 -0.4444  0.0637 -0.4457
11220TIP3    H155151   4.223   3.590   6.331 -0.4304  0.1148 -0.2092
11220TIP3    H255152   4.075   3.601   6.364 -0.0948 -0.0061  1.4201
11221TIP3   OH255153   3.448   4.888  12.022  0.2098  0.0218  0.1504
11221TIP3    H155154   3.523   4.876  11.963  0.4668  1.5047  0.1324
11221TIP3    H255155   3.374   4.851  11.975  1.0098 -2.2370  0.5020
11222TIP3   OH255156   6.524   3.753   2.960 -0.8066  0.1252  0.1903
11222TIP3    H155157   6.568   3.767   2.876 -1.5359  0.9455 -0.0687
11222TIP3    H255158   6.593   3.762   3.025 -0.4450  0.6154 -0.2539
11223TIP3   OH255159   3.190   0.783  14.882  0.1646  0.2973  0.2214
11223TIP3    H155160   3.156   0.713  14.938  0.6867  0.9597  1.4035
11223TIP3    H255161   3.126   0.790  14.811 -0.1002 -1.0972  0.2875
11224TIP3   OH255162   1.303   1.945   4.314 -0.0307  0.7332  0.1699
11224TIP3    H155163   1.276   2.036   4.303 -0.6467  0.4027 -1.2677
11224TIP3    H255164   1.225   1.900   4.344 -0.0702  0.4664 -0.3180
11225TIP3   OH255165   1.385   3.273  12.214 -0.5481  0.2606 -0.5220
11225TIP3    H155166   1.460   3.299  12.267 -0.1652 -0.8719 -0.4867
11225TIP3    H255167   1.418   3.275  12.124 -0.0412 -1.5424 -0.4145
11226TIP3   OH255168   2.341   3.049   1.732  0.3172 -0.2442  0.3407
11226TIP3    H155169   2.405   3.104   1.777  0.4591 -0.8482  0.8962
11226TIP3    H255170   2.283   3.111   1.688  1.0031  0.3226  0.2129
11227TIP3   OH255171   3.212   5.374  13.512  0.3460 -0.5804 -0.3643
11227TIP3    H155172   3.289   5.381  13.455  0.4678 -0.9291 -0.2459
11227TIP3    H255173   3.205   5.280  13.530  1.1735 -0.3362  1.3944
11228TIP3   OH255174   6.742   1.812  10.615  0.0351  0.2726 -0.1176
11228TIP3    H155175   6.803   1.740  10.633 -0.6238 -0.4044 -0.5779
11228TIP3    H255176   6.727   1.852  10.701 -0.8808 -1.1690  0.4190
11229TIP3   OH255177   1.684   1.403  13.790 -0.3866 -0.2289 -0.0522
11229TIP3    H155178   1.722   1.353  13.863  0.5990 -0.3668 -0.6420
11229TIP3    H255179   1.589   1.395  13.802 -0.2900 -2.6559 -0.3892
11230TIP3   OH255180   2.999   5.411   2.734  0.2487  0.3562 -0.4220
11230TIP3    H155181   2.917   5.390   2.691 -0.9714  0.1106  1.9065
11230TIP3    H255182   3.049   5.329   2.733 -0.8768 -0.3744  0.9376
11231TIP3   OH255183   1.083   5.514   6.277 -0.3837 -0.5151 -0.2605
11231TIP3    H155184   1.112   5.509   6.368 -1.3630  0.4241  0.1211
11231TIP3    H255185   1.158   5.484   6.226 -0.2103 -2.1744  0.9052
11232TIP3   OH255186   1.991   3.408   1.673  0.0874  0.0232  0.3790
11232TIP3    H155187   1.943   3.380   1.751 -0.3666  0.5445  0.2889
11232TIP3    H255188   2.049   3.477   1.705  0.5215 -0.3537  0.4163
11233TIP3   OH255189   6.731   1.232   0.733  0.1046 -0.2160  0.2742
11233TIP3    H155190   6.745   1.306   0.793  0.7660 -0.2266  0.1393
11233TIP3    H255191   6.767   1.262   0.650  1.8084 -1.2576  0.6051
11234TIP3   OH255192   3.899   6.763   1.499 -0.4553  0.3405  0.9612
11234TIP3    H155193   3.994   6.772   1.504 -0.4196  1.3555 -0.9060
11234TIP3    H255194   3.866   6.810   1.576  0.4832  1.2251  0.8278
11235TIP3   OH255195   0.601   0.355  11.828 -0.6042 -0.2950 -0.3552
11235TIP3    H155196   0.579   0.276  11.779  1.1434 -0.4844 -0.8994
11235TIP3    H255197   0.681   0.388  11.787 -2.1226  2.6927 -1.2063
11236TIP3   OH255198   5.085   0.428  16.515 -0.0192 -0.1094 -0.2933
11236TIP3    H155199   5.169   0.450  16.474  0.4380 -0.2456  0.5514
11236TIP3    H255200   5.032   0.393  16.443 -0.1290  1.9570 -1.3040
11237TIP3   OH255201   3.942   4.358   0.982 -0.9629 -0.4075  0.1252
11237TIP3    H155202   3.889   4.415   0.927 -0.0279 -2.0239 -2.6964
11237TIP3    H255203   4.032   4.371   0.951 -0.4380 -1.6570  1.0120
11238TIP3   OH255204   0.907   1.438   4.263 -0.0219  0.2820  0.7288
11238TIP3    H155205   0.860   1.517   4.290  0.3820  0.5072  0.7749
11238TIP3    H255206   0.995   1.448   4.300 -0.5007 -1.0741  2.4190
11239TIP3   OH255207   1.359   6.740  17.523  0.3606  0.4507 -0.1350
11239TIP3    H155208   1.317   6.765  17.441  0.7721  0.1969 -0.4263
11239TIP3    H255209   1.333   6.649  17.537 -0.7148  0.8613  0.6613
11240TIP3   OH255210   4.351   0.202   6.189  0.0431 -0.3743 -0.6152
11240TIP3    H155211   4.294   0.173   6.118 -3.0630  2.0019  0.6603
11240TIP3    H255212   4.340   0.297   6.193  2.1677 -0.0967  1.3872
11241TIP3   OH255213   6.325   0.820   0.288 -0.2385  0.0855  0.1188
11241TIP3    H155214   6.409   0.824   0.334 -0.8018 -0.8115  1.2476
11241TIP3    H255215   6.344   0.858   0.202  1.2645  0.1019  0.4287
11242TIP3   OH255216   5.017   4.293   2.906  0.0342  0.3819  1.5152
11242TIP3    H155217   5.001   4.307   2.999  0.1018  3.1998  1.1651
11242TIP3    H255218   4.931   4.274   2.869 -0.0547 -0.3116  2.0642
11243TIP3   OH255219   5.907   2.697   0.366 -0.5996  0.1176 -0.0558
11243TIP3    H155220   6.000   2.713   0.376 -0.8012  1.4243 -0.1412
11243TIP3    H255221   5.879   2.663   0.451  0.2885 -2.1910 -0.6046
11244TIP3   OH255222   4.184   1.599  14.234 -0.0675 -0.4393 -0.4656
11244TIP3    H155223   4.209   1.583  14.325  0.6938  1.9586 -0.1786
11244TIP3    H255224   4.236   1.537  14.183  1.3804 -0.1529  0.6045
11245TIP3   OH255225   5.502   5.557  16.471  0.5285  0.5867 -0.5738
11245TIP3    H155226   5.545   5.474  16.450  0.6891  0.7265 -0.8047
11245TIP3    H255227   5.573   5.622  16.468  0.1502  0.9747 -1.9008
11246TIP3   OH255228   1.587   0.601   2.674  0.0128 -0.3039  0.2297
11246TIP3    H155229   1.515   0.543   2.701 -0.3255 -0.7715 -1.5935
11246TIP3    H255230   1.544   0.673   2.628  0.6467 -0.1456 -0.1202
11247TIP3   OH255231   0.899   5.399   0.897 -0.1375 -0.0648 -1.0584
11247TIP3    H155232   0.993   5.383   0.905 -0.3477 -0.9532 -0.1020
11247TIP3    H255233   0.878   5.372   0.807  0.2276 -1.6092 -0.7190
11248TIP3   OH255234   3.892   2.307  16.519  0.1775 -0.7813  0.2065
11248TIP3    H155235   3.872   2.358  16.599 -1.4617  0.6761 -1.0373
11248TIP3    H255236   3.882   2.216  16.546 -2.4240 -0.3001  1.2613
11249TIP3   OH255237   0.071   0.615   2.183 -0.2456 -0.0440  0.0798
11249TIP3    H155238   0.139   0.680   2.166  0.1811 -0.5575 -0.2229
11249TIP3    H255239   0.031   0.642   2.265  0.5609  0.0748  0.4391
11250TIP3   OH255240   1.980   6.532   1.142 -0.5193  0.1418 -0.6650
11250TIP3    H155241   2.031   6.526   1.222 -0.1590  1.8160 -0.7354
11250TIP3    H255242   1.929   6.451   1.140  0.7125 -0.6935  0.3704
11251TIP3   OH255243   3.894   5.443   0.153  0.3358  0.2840 -0.6745
11251TIP3    H155244   3.799   5.429   0.147  0.6266 -2.3957 -0.4451
11251TIP3    H255245   3.923   5.444   0.062  0.2053  0.0288 -0.7210
11252TIP3   OH255246   2.788   4.802   5.189 -0.8895  0.1083 -0.4456
11252TIP3    H155247   2.853   4.738   5.161 -0.0658  1.0266 -0.6844
11252TIP3    H255248   2.706   4.753   5.190 -0.2679 -0.9757 -0.5104
11253TIP3   OH255249   5.738   4.968   5.571 -0.3165 -0.9371  0.3715
11253TIP3    H155250   5.825   4.986   5.609 -0.4760 -0.7750  0.6669
11253TIP3    H255251   5.677   4.996   5.639 -0.6655  1.1294 -0.7286
11254TIP3   OH255252   4.771   6.006  15.503  0.4254  0.2136  0.2986
11254TIP3    H155253   4.794   5.919  15.536  1.5120  0.6071  0.6177
11254TIP3    H255254   4.736   5.990  15.415  2.2316 -0.4274 -0.3537
11255TIP3   OH255255   2.952   4.911   3.830  0.1025  0.6149 -0.8336
11255TIP3    H155256   2.890   4.974   3.794 -0.0200  0.4535 -0.9051
11255TIP3    H255257   2.979   4.950   3.914 -1.6771 -0.2923  0.2068
11256TIP3   OH255258   3.991   6.192  16.246  0.3745 -0.1806 -0.0294
11256TIP3    H155259   3.940   6.153  16.174  3.3346 -2.8799 -0.9145
11256TIP3    H255260   4.056   6.246  16.202  0.9328 -0.2222  0.7305
11257TIP3   OH255261   6.561   4.639  12.040 -0.1503 -0.5102  0.1411
11257TIP3    H155262   6.624   4.580  12.082  1.1242  1.1789  0.6934
11257TIP3    H255263   6.537   4.701  12.109 -0.5547  0.3349 -0.7420
11258TIP3   OH255264   6.101   3.542  11.629  0.2088  0.0777 -0.7176
11258TIP3    H155265   6.079   3.620  11.680  2.0941  0.2364 -0.0687
11258TIP3    H255266   6.049   3.550  11.549  0.1223  1.8435 -0.5219
11259TIP3   OH255267   4.661   3.625   0.282  0.3162  0.0179  0.9918
11259TIP3    H155268   4.739   3.602   0.332  0.3374 -0.6337  0.6676
11259TIP3    H255269   4.602   3.665   0.347 -0.0340 -1.6704  1.7531
11260TIP3   OH255270   1.784   2.809  17.473 -0.6262  0.1788 -0.4104
11260TIP3    H155271   1.807   2.752  17.400 -0.7723  0.8172 -0.9645
11260TIP3    H255272   1.818   2.895  17.448  0.0743  0.2390  0.6510
11261TIP3   OH255273   5.357   3.369  13.025 -0.0083 -0.1561 -0.3617
11261TIP3    H155274   5.372   3.403  13.113 -2.3632 -0.9208  0.3937
11261TIP3    H255275   5.367   3.274  13.034  2.2638 -0.1141 -1.5436
11262TIP3   OH255276   3.669   3.620  17.373  0.3186  0.4015  0.3914
11262TIP3    H155277   3.720   3.700  17.380 -0.8859  1.1792  0.5752
11262TIP3    H255278   3.623   3.613  17.457 -0.5998  0.2447 -0.1063
11263TIP3   OH255279   4.808   5.876  10.829 -0.5577  0.5527 -0.4753
11263TIP3    H155280   4.736   5.820  10.858  0.2965 -0.5740 -0.4843
11263TIP3    H255281   4.853   5.903  10.909  0.5554 -0.8724 -0.5877
11264TIP3   OH255282   1.859   5.523   0.880 -0.5253  0.7855 -0.5364
11264TIP3    H155283   1.893   5.434   0.882 -0.4770  0.8096  1.0128
11264TIP3    H255284   1.775   5.516   0.835 -0.4729 -0.0272 -0.5129
11265TIP3   OH255285   3.825   4.121  16.498 -0.6356 -0.3092 -0.2811
11265TIP3    H155286   3.768   4.191  16.530 -1.0201 -0.6026 -0.3223
11265TIP3    H255287   3.792   4.101  16.410  0.2852  0.3493 -0.7868
11266TIP3   OH255288   2.567   5.026   2.714 -0.8103 -0.3371  0.3380
11266TIP3    H155289   2.589   5.064   2.629 -1.8007  0.2377  0.3137
11266TIP3    H255290   2.642   5.046   2.769 -0.8633  0.8024  0.0414
11267TIP3   OH255291   2.222   0.449   4.634  0.0347 -0.3891  0.6578
11267TIP3    H155292   2.138   0.493   4.649  0.0279 -0.5247  1.0141
11267TIP3    H255293   2.230   0.387   4.706  1.3204  0.9175  1.6733
11268TIP3   OH255294   2.650   6.516  12.868 -0.2294  0.1275  0.0325
11268TIP3    H155295   2.676   6.441  12.921 -1.7320 -0.6365 -0.2710
11268TIP3    H255296   2.664   6.488  12.777  1.6237  1.1630 -0.0530
11269TIP3   OH255297   0.638   6.729   4.640 -0.1680  0.2451  0.0640
11269TIP3    H155298   0.687   6.804   4.605 -0.4781  1.2785  1.7425
11269TIP3    H255299   0.654   6.659   4.577  0.4888  1.5863 -1.3392
11270TIP3   OH255300   3.662   3.305  13.187  0.2521  0.5769  0.1521
11270TIP3    H155301   3.696   3.280  13.101 -1.4944 -0.5573 -0.2680
11270TIP3    H255302   3.582   3.355  13.167  0.2917  1.0405  1.1114
11271TIP3   OH255303   6.216   4.775   3.317 -0.1553 -0.0541 -0.5871
11271TIP3    H155304   6.194   4.793   3.408  0.6649  0.5675 -0.4997
11271TIP3    H255305   6.185   4.686   3.301 -1.4840  0.3085 -0.0893
11272TIP3   OH255306   4.373   2.525  12.240 -0.0241  1.0014 -0.1817
11272TIP3    H155307   4.395   2.460  12.174  0.2422  0.8925  0.0114
11272TIP3    H255308   4.456   2.545  12.283  0.1457  2.4536 -1.1198
11273TIP3   OH255309   4.981   1.610  11.851 -0.2721  0.0385 -0.0427
11273TIP3    H155310   5.013   1.635  11.764  1.1264 -0.2022  0.3776
11273TIP3    H255311   4.932   1.529  11.836  3.0763 -2.1657 -0.1998
11274TIP3   OH255312   0.798   4.879   1.480 -0.7414 -0.3275  0.6177
11274TIP3    H155313   0.736   4.936   1.434  0.6235 -0.6315 -1.7897
11274TIP3    H255314   0.827   4.931   1.556 -1.4717  1.1340 -0.0641
11275TIP3   OH255315   3.373   3.251   6.716 -0.1867  0.4995  0.2575
11275TIP3    H155316   3.339   3.327   6.762 -1.4029 -0.1027  0.3975
11275TIP3    H255317   3.455   3.230   6.762 -0.6498  0.7603  1.2351
11276TIP3   OH255318   0.433   0.353  14.071 -0.3359  0.8387  0.2342
11276TIP3    H155319   0.499   0.312  14.127 -0.1185  0.5723 -0.2146
11276TIP3    H255320   0.349   0.330  14.113 -0.1182  2.4837  1.6972
11277TIP3   OH255321   3.261   4.550  12.085  0.5536  0.3948 -0.5371
11277TIP3    H155322   3.325   4.527  12.017  0.2573 -2.6104  0.0970
11277TIP3    H255323   3.176   4.533  12.045  0.2869  0.5415 -0.0439
11278TIP3   OH255324   4.461   2.643  13.188  0.5188 -0.3562  0.2437
11278TIP3    H155325   4.507   2.637  13.271 -0.0381  2.2084  0.8197
11278TIP3    H255326   4.398   2.714  13.200  0.7887  0.4846 -2.5431
11279TIP3   OH255327   2.271   0.758  12.104 -0.2119 -0.9003 -0.8295
11279TIP3    H155328   2.336   0.783  12.170 -1.5540 -0.7698  0.4746
11279TIP3    H255329   2.323   0.723  12.031  1.3445 -0.2421 -0.0708
11280TIP3   OH255330   4.753   5.426  14.619 -0.1958  0.5528 -0.4664
11280TIP3    H155331   4.777   5.383  14.537  0.6787  1.5547 -0.7587
11280TIP3    H255332   4.723   5.513  14.593 -0.6667  0.6085  0.2187
11281TIP3   OH255333   1.291   3.579   1.315 -0.8178  0.2998  0.8053
11281TIP3    H155334   1.202   3.613   1.306 -0.6347  0.6317  0.1599
11281TIP3    H255335   1.348   3.656   1.305 -0.4439  0.0071  0.6315
11282TIP3   OH255336   4.125   0.791   0.368 -0.4424 -0.0586  0.1286
11282TIP3    H155337   4.115   0.697   0.357  0.2925 -0.0101 -1.2134
11282TIP3    H255338   4.168   0.802   0.452  0.0292 -0.9604  0.0136
11283TIP3   OH255339   3.451   3.362  15.357 -0.2219  0.6712  0.3124
11283TIP3    H155340   3.382   3.360  15.290  1.0907  1.1287 -1.1138
11283TIP3    H255341   3.421   3.426  15.421 -0.6376  1.6676 -0.8487
11284TIP3   OH255342   2.625   4.089  16.523  0.7791  0.2432 -0.3834
11284TIP3    H155343   2.568   4.034  16.576 -0.2690 -1.5186 -3.0954
11284TIP3    H255344   2.714   4.063  16.548  0.3172 -0.5319  0.5078
11285TIP3   OH255345   2.751   5.023   5.000 -0.6344  0.2508  0.4199
11285TIP3    H155346   2.771   4.960   5.069 -1.3751 -0.7143 -0.2101
11285TIP3    H255347   2.693   5.086   5.041 -1.2371 -0.4351  0.6443
11286TIP3   OH255348   3.636   5.453   3.900 -0.5789  0.3269  0.0634
11286TIP3    H155349   3.682   5.463   3.817  0.4968 -1.1185  0.4397
11286TIP3    H255350   3.696   5.489   3.966 -0.8753  0.3232  0.3411
11287TIP3   OH255351   4.736   4.293   0.326 -0.3290 -0.2058 -0.0248
11287TIP3    H155352   4.736   4.366   0.265 -0.3606 -1.0206 -1.0202
11287TIP3    H255353   4.730   4.334   0.412 -1.4902  0.9177 -0.6053
11288TIP3   OH255354   1.672   3.316   0.353 -0.5632  0.7012 -0.1598
11288TIP3    H155355   1.749   3.323   0.297  1.6249  1.0505  2.6309
11288TIP3    H255356   1.676   3.227   0.389 -2.3995  0.1844 -1.1236
11289TIP3   OH255357   5.892   3.227   4.880  0.1251  0.0286  0.1852
11289TIP3    H155358   5.904   3.318   4.855  0.0548  0.4806  1.7244
11289TIP3    H255359   5.932   3.177   4.808 -1.3962  1.1968 -1.5727
11290TIP3   OH255360   0.642   6.139   5.711 -0.4009 -0.1346 -0.9414
11290TIP3    H155361   0.710   6.154   5.646  0.3783  0.1372 -0.0812
11290TIP3    H255362   0.682   6.083   5.776 -0.8616  0.3557 -0.2106
11291TIP3   OH255363   1.707   6.329   5.974  0.0197 -0.9688 -0.2126
11291TIP3    H155364   1.638   6.313   5.910 -0.5858 -2.4668  0.7523
11291TIP3    H255365   1.712   6.248   6.024  0.2123  0.2669  1.8720
11292TIP3   OH255366   0.097   0.986  11.684 -0.6902  0.1909  0.0038
11292TIP3    H155367   0.048   1.018  11.760  0.6098  0.6249  0.6852
11292TIP3    H255368   0.112   0.893  11.703 -0.6566  0.2190  0.1128
11293TIP3   OH255369   6.109   1.256   5.003 -0.0554  0.2407 -0.0343
11293TIP3    H155370   6.084   1.348   5.010  0.5202  0.4380 -0.5017
11293TIP3    H255371   6.185   1.248   5.061 -0.9638 -0.2800  1.1286
11294TIP3   OH255372   6.214   4.703  13.145  0.3281  0.0896  0.1850
11294TIP3    H155373   6.242   4.780  13.195 -1.7296  2.1743 -1.6379
11294TIP3    H255374   6.271   4.701  13.069  0.0030  0.1869 -0.0649
11295TIP3   OH255375   3.825   6.757  14.854  0.2570 -0.3414  0.1530
11295TIP3    H155376   3.834   6.736  14.761  1.6992 -2.5376  0.7178
11295TIP3    H255377   3.761   6.694  14.887  0.8400 -0.5338  0.9259
11296TIP3   OH255378   1.289   3.359   1.498  0.1596 -0.0933 -0.5544
11296TIP3    H155379   1.303   3.437   1.445 -1.0881  0.3795 -0.2286
11296TIP3    H255380   1.309   3.286   1.439 -1.1132  0.4208 -1.6787
11297TIP3   OH255381   0.191   5.712   2.652  0.6059 -0.5521  0.1739
11297TIP3    H155382   0.218   5.801   2.629  2.8336 -1.2227 -0.1189
11297TIP3    H255383   0.118   5.723   2.712 -0.2272  1.4262 -1.0968
11298TIP3   OH255384   5.808   1.006  17.354 -0.3571  0.1497  0.5462
11298TIP3    H155385   5.861   0.949  17.411 -1.6362  0.5217  2.2010
11298TIP3    H255386   5.773   0.947  17.287  2.1914 -0.0819 -0.7011
11299TIP3   OH255387   6.510   6.665   2.794  0.0308  0.1485 -0.0025
11299TIP3    H155388   6.438   6.654   2.856 -0.4648  0.8205 -0.4416
11299TIP3    H255389   6.589   6.644   2.845 -0.3500  0.8281  0.8996
11300TIP3   OH255390   3.766   0.379   1.244 -0.3058  0.6538  0.3266
11300TIP3    H155391   3.789   0.434   1.319 -0.5363 -0.1148  0.9737
11300TIP3    H255392   3.817   0.415   1.172 -0.0769  1.4069  0.8464
11301TIP3   OH255393   1.538   1.006  10.822 -0.0329 -0.0482 -0.7075
11301TIP3    H155394   1.532   0.911  10.813 -0.1575  0.0998 -2.4910
11301TIP3    H255395   1.458   1.031  10.869  0.6572 -0.9247  1.0163
11302TIP3   OH255396   3.396   4.452   3.711  0.0565  0.1625  0.4419
11302TIP3    H155397   3.441   4.477   3.792 -0.9364 -0.6230  1.2678
11302TIP3    H255398   3.317   4.406   3.741 -0.7425  0.5561 -0.9683
11303TIP3   OH255399   1.218   0.236   1.375  0.7741 -0.3076 -0.5315
11303TIP3    H155400   1.195   0.327   1.391 -0.4456 -0.5339 -0.9292
11303TIP3    H255401   1.268   0.209   1.452 -1.0414 -0.0524  0.7718
11304TIP3   OH255402   1.450   3.585   4.386 -0.2736  0.9712  0.6749
11304TIP3    H155403   1.481   3.527   4.457  0.8028 -0.0207 -0.5586
11304TIP3    H255404   1.530   3.611   4.340 -1.1005 -1.7066 -2.6454
11305TIP3   OH255405   1.874   5.720   3.342  0.2983  0.0551  0.3716
11305TIP3    H155406   1.798   5.726   3.284  0.1094 -0.9045  0.5070
11305TIP3    H255407   1.942   5.772   3.299 -0.4589  1.0079  0.3019
11306TIP3   OH255408   0.505   3.199   5.441 -0.1748  0.4684 -0.1826
11306TIP3    H155409   0.463   3.171   5.360 -0.9092  0.5438  0.1621
11306TIP3    H255410   0.443   3.175   5.510  0.8266 -0.4283  0.4514
11307TIP3   OH255411   5.689   2.457  11.258 -0.2832  0.6939  0.2522
11307TIP3    H155412   5.606   2.410  11.274 -0.8377  1.9457  1.1786
11307TIP3    H255413   5.673   2.506  11.177  0.0061 -0.0071 -0.2475
11308TIP3   OH255414   3.855   1.574  14.633  0.6387  0.7535 -0.0920
11308TIP3    H155415   3.851   1.542  14.543  1.0214  0.5433 -0.0375
11308TIP3    H255416   3.934   1.628  14.636 -0.0147  1.7325 -0.1860
11309TIP3   OH255417   2.521   1.226   3.660  0.6391 -0.1603 -0.2506
11309TIP3    H155418   2.478   1.204   3.742  1.4204 -0.0445  0.2028
11309TIP3    H255419   2.574   1.148   3.639  0.2977 -0.2665 -0.7507
11310TIP3   OH255420   0.251   6.084   5.248 -0.1931  0.2121  0.6004
11310TIP3    H155421   0.174   6.105   5.301  0.1907  0.4479  1.0764
11310TIP3    H255422   0.325   6.095   5.308  0.5023  2.9851 -0.5968
11311TIP3   OH255423   1.086   0.553   6.041  0.4421  0.3037 -0.5804
11311TIP3    H155424   1.036   0.570   5.961 -0.0423 -1.0113 -0.5893
11311TIP3    H255425   1.037   0.484   6.085  0.5940  1.1414  0.9693
11312TIP3   OH255426   4.646   3.477  13.312 -0.0929  0.2702 -0.1790
11312TIP3    H155427   4.673   3.393  13.276  0.5770  0.3720  0.0595
11312TIP3    H255428   4.657   3.467  13.407 -0.5792  0.4330 -0.1013
11313TIP3   OH255429   2.624   3.150   6.006 -0.1797 -0.0965 -0.1131
11313TIP3    H155430   2.550   3.090   6.016  0.3750 -0.6556  0.8340
11313TIP3    H255431   2.672   3.142   6.089  2.0846 -1.3286 -1.4249
11314TIP3   OH255432   2.564   5.559  11.955  0.2528 -0.0448 -0.2558
11314TIP3    H155433   2.527   5.537  11.869  2.6225 -1.5644 -0.9808
11314TIP3    H255434   2.588   5.652  11.947  1.0561 -0.3353 -1.5159
11315TIP3   OH255435   5.402   4.964   4.918 -0.2944 -0.6324 -0.2751
11315TIP3    H155436   5.386   4.910   4.841 -1.1948 -0.2417 -0.3675
11315TIP3    H255437   5.484   4.930   4.954  0.8539  0.0617 -2.1401
11316TIP3   OH255438   4.576   4.353  17.413  0.8068  0.3949  0.2883
11316TIP3    H155439   4.553   4.263  17.434 -0.6589  0.9826  1.3842
11316TIP3    H255440   4.671   4.357  17.423  0.8926 -1.0365  0.1518
11317TIP3   OH255441   1.001   1.848   1.202  0.4710  0.1109  0.1361
11317TIP3    H155442   1.037   1.854   1.291  1.2136 -0.5731 -0.1083
11317TIP3    H255443   0.933   1.781   1.209 -0.5643  1.1455  0.5138
11318TIP3   OH255444   3.594   1.722  17.328 -0.4352 -0.0297  0.1413
11318TIP3    H155445   3.673   1.680  17.360 -0.4641 -0.5012 -0.3892
11318TIP3    H255446   3.625   1.802  17.286 -0.0665 -0.9201 -1.3521
11319TIP3   OH255447   1.256   5.075  12.212  0.1865 -0.0138  0.3444
11319TIP3    H155448   1.201   5.034  12.278 -0.8097 -1.4018 -1.2642
11319TIP3    H255449   1.310   5.004  12.177 -0.5187  0.2952 -1.4819
11320TIP3   OH255450   0.363   5.089  13.842 -0.1761 -0.4856  0.5480
11320TIP3    H155451   0.352   5.177  13.806 -0.6808 -0.2821  1.1918
11320TIP3    H255452   0.354   5.031  13.767 -0.7172 -0.0362  0.2604
11321TIP3   OH255453   3.554   1.792  16.957  0.3568 -0.2797  0.2858
11321TIP3    H155454   3.581   1.750  16.875  0.3944  0.4583 -0.0977
11321TIP3    H255455   3.616   1.759  17.022  1.4273  0.4115 -0.3301
11322TIP3   OH255456   2.692   1.763  17.331 -0.1129  0.0598  0.0726
11322TIP3    H155457   2.669   1.856  17.329  0.3602  0.1670 -0.5757
11322TIP3    H255458   2.769   1.759  17.388 -0.5847 -0.0470  0.7179
11323TIP3   OH255459   4.779   4.744  12.964 -0.3776 -0.0896 -0.2691
11323TIP3    H155460   4.733   4.778  13.041 -0.0342 -2.3418  1.0195
11323TIP3    H255461   4.801   4.653  12.987  1.6607 -0.1693 -2.1790
11324TIP3   OH255462   3.230   2.730   4.505  0.3539 -0.1094  0.1797
11324TIP3    H155463   3.280   2.718   4.585 -0.6695  0.7431  0.9711
11324TIP3    H255464   3.164   2.796   4.527 -0.6618 -0.6721 -1.0313
11325TIP3   OH255465   1.185   2.512  12.929 -0.7130  0.3932  0.0974
11325TIP3    H155466   1.168   2.437  12.872 -0.1118 -0.8832  1.5150
11325TIP3    H255467   1.168   2.588  12.874  0.6494 -0.7381 -2.0442
11326TIP3   OH255468   3.243   2.748   3.489  0.3404 -0.2023 -0.5739
11326TIP3    H155469   3.186   2.671   3.490  1.0880 -0.7825 -0.0981
11326TIP3    H255470   3.293   2.740   3.408  0.5742 -0.3462 -0.4177
11327TIP3   OH255471   4.332   3.364   5.563 -0.1960  0.5829 -0.1982
11327TIP3    H155472   4.260   3.410   5.607  0.9428  3.1136 -0.8379
11327TIP3    H255473   4.308   3.271   5.571 -2.3974  1.1899  1.5398
11328TIP3   OH255474   1.085   4.438  13.286 -0.5371  0.1013  0.5491
11328TIP3    H155475   1.168   4.470  13.323  0.0308  0.6305 -1.1200
11328TIP3    H255476   1.083   4.345  13.308 -0.9649  0.6489  3.1989
11329TIP3   OH255477   4.805   5.963  17.065  0.1120  0.1166 -0.3564
11329TIP3    H155478   4.892   5.929  17.042  0.5495  1.0412 -0.1058
11329TIP3    H255479   4.745   5.890  17.047  0.7926 -0.1560 -1.6551
11330TIP3   OH255480   2.134   3.059  14.566 -0.0713  0.3005 -0.3337
11330TIP3    H155481   2.172   2.973  14.585  0.3926  0.4671 -0.4839
11330TIP3    H255482   2.104   3.053  14.476 -1.7176 -0.2917  0.2114
11331TIP3   OH255483   5.177   4.854  15.562 -0.0963 -0.0977  0.4693
11331TIP3    H155484   5.222   4.833  15.644 -0.0687  0.1547  0.5218
11331TIP3    H255485   5.164   4.949  15.566 -0.3843 -0.1294  0.3280
11332TIP3   OH255486   1.574   1.035   2.211 -0.6115 -0.0078 -0.0702
11332TIP3    H155487   1.550   0.942   2.213 -1.1791  0.0583 -1.8346
11332TIP3    H255488   1.499   1.078   2.169 -0.4404  1.2964  0.8734
11333TIP3   OH255489   3.720   1.541   4.931  1.0049  0.7898  1.1423
11333TIP3    H155490   3.714   1.480   4.857 -0.9670  1.7371  0.4687
11333TIP3    H255491   3.723   1.484   5.008 -0.0450 -0.2065  0.4886
11334TIP3   OH255492   4.932   1.047   1.691  0.4274  0.1741 -0.5612
11334TIP3    H155493   4.933   0.951   1.692  0.2829  0.1126 -2.3532
11334TIP3    H255494   4.873   1.069   1.619 -0.1131  1.6371  0.2902
11335TIP3   OH255495   2.586   2.551   2.535  0.5335  0.0028 -0.4005
11335TIP3    H155496   2.538   2.610   2.593 -0.7723  0.3979 -1.8213
11335TIP3    H255497   2.663   2.601   2.508  2.7308 -1.1427  3.0303
11336TIP3   OH255498   0.404   5.238  14.901 -0.1858  0.4776  0.1276
11336TIP3    H155499   0.491   5.226  14.862 -0.7208  0.1569 -1.0236
11336TIP3    H255500   0.401   5.176  14.973 -0.0195 -0.6186 -0.7934
11337TIP3   OH255501   2.751   1.744  16.564  0.0574 -0.2201  0.0749
11337TIP3    H155502   2.697   1.666  16.554 -0.5892  0.1722  0.5141
11337TIP3    H255503   2.754   1.783  16.476 -1.7495  0.6609  0.3739
11338TIP3   OH255504   2.565   2.848  14.634 -0.0536  0.3697  0.2115
11338TIP3    H155505   2.609   2.933  14.638  0.8115 -0.0041 -0.9616
11338TIP3    H255506   2.636   2.784  14.641 -0.6492 -0.2645  0.6098
11339TIP3   OH255507   2.232   3.975  11.555  0.6899  0.1126 -0.2009
11339TIP3    H155508   2.165   3.961  11.487 -0.8889 -0.0472  1.3092
11339TIP3    H255509   2.231   3.895  11.606 -1.2544  1.7107  2.5212
11340TIP3   OH255510   6.294   4.312  17.450  0.2638  0.2155 -0.7243
11340TIP3    H155511   6.365   4.280  17.506 -0.9152 -0.7627  0.2757
11340TIP3    H255512   6.312   4.273  17.364  0.6252 -0.4788 -0.3405
11341TIP3   OH255513   0.734   3.435  12.735  0.2245  0.1478 -0.0662
11341TIP3    H155514   0.661   3.425  12.674  1.5350 -0.8809 -1.5933
11341TIP3    H255515   0.777   3.516  12.708  1.8387 -1.1865 -1.8158
11342TIP3   OH255516   3.384   2.678  12.526  0.1001  0.0522 -0.3911
11342TIP3    H155517   3.374   2.585  12.506  1.6539 -0.0995 -0.6055
11342TIP3    H255518   3.318   2.696  12.593 -0.4732 -1.1108 -0.6293
11343TIP3   OH255519   3.382   6.503  10.913  0.7775 -0.3777  0.4082
11343TIP3    H155520   3.421   6.436  10.857 -0.3768 -0.7380  0.0062
11343TIP3    H255521   3.360   6.574  10.853  2.2913  0.5415  0.8777
11344TIP3   OH255522   0.975   4.421  14.166  0.1694 -0.0178 -0.1323
11344TIP3    H155523   1.021   4.343  14.196  1.4528 -0.2146 -2.3864
11344TIP3    H255524   0.893   4.388  14.127  0.8210 -0.3250 -1.3039
11345TIP3   OH255525   5.585   4.892   1.110  0.5943 -0.4166 -1.0182
11345TIP3    H155526   5.665   4.917   1.062  1.3780  1.2466  1.0229
11345TIP3    H255527   5.514   4.931   1.060  1.4904  2.5008 -0.2138
11346TIP3   OH255528   0.575   4.694   4.620  0.6503  0.8166 -0.2760
11346TIP3    H155529   0.490   4.660   4.646  0.3563  0.7497 -1.3169
11346TIP3    H255530   0.563   4.726   4.531  1.6910  0.8877 -0.4058
11347TIP3   OH255531   4.039   4.030   2.117  0.1738  0.1643 -0.0550
11347TIP3    H155532   4.092   4.047   2.039  1.5055  2.5681  1.2700
11347TIP3    H255533   3.960   4.084   2.105  1.1758  1.9640  0.9499
11348TIP3   OH255534   4.491   4.544  16.541  0.3793  0.3502 -0.4516
11348TIP3    H155535   4.505   4.584  16.455 -0.6979 -1.9322 -1.8031
11348TIP3    H255536   4.396   4.546  16.553  0.2767 -1.6059 -0.5632
11349TIP3   OH255537   5.468   0.621  11.968  0.3080  0.0142  0.3208
11349TIP3    H155538   5.429   0.696  11.924  0.6624  0.6071  0.9972
11349TIP3    H255539   5.395   0.581  12.015  0.5495  1.3837  1.9508
11350TIP3   OH255540   3.852   0.551  14.432 -0.3895 -0.0804 -0.2491
11350TIP3    H155541   3.833   0.461  14.409 -1.2849 -0.7858  2.7953
11350TIP3    H255542   3.767   0.594  14.435 -0.1461  0.3932  0.0660
11351TIP3   OH255543   5.208   1.349   1.966  0.2126  0.1181 -0.2586
11351TIP3    H155544   5.188   1.360   2.059 -0.0635  0.4378 -0.3551
11351TIP3    H255545   5.133   1.302   1.930  0.2622  0.1035 -0.3437
11352TIP3   OH255546   5.508   1.524  16.419  0.3244  0.4663 -0.5350
11352TIP3    H155547   5.579   1.551  16.361  0.1185  1.4921 -0.3238
11352TIP3    H255548   5.502   1.593  16.485 -0.6801  0.2613 -0.3891
11353TIP3   OH255549   4.260   3.421  14.023  0.6847 -0.3804  0.5532
11353TIP3    H155550   4.188   3.465  14.069  0.9894 -1.0738  1.7515
11353TIP3    H255551   4.339   3.453  14.066  0.9684 -1.2286  0.6980
11354TIP3   OH255552   4.387   1.927  14.897  0.4957  0.1201  0.5168
11354TIP3    H155553   4.382   2.013  14.856 -0.5572  0.1247  0.6161
11354TIP3    H255554   4.480   1.905  14.896  0.8093  1.3533  0.6829
11355TIP3   OH255555   6.462   0.523   1.519  0.2890 -0.9863 -0.2735
11355TIP3    H155556   6.408   0.564   1.586  1.1550  0.4466 -0.4118
11355TIP3    H255557   6.466   0.431   1.544  0.0784 -0.5986  1.2800
11356TIP3   OH255558   3.707   4.916  17.318  0.1020  0.6734 -0.8162
11356TIP3    H155559   3.726   4.886  17.407 -1.6312 -1.0478 -0.9736
11356TIP3    H255560   3.626   4.871  17.294  1.4006 -0.2998 -3.8969
11357TIP3   OH255561   1.213   1.678   0.192  0.2990 -0.0702 -0.0478
11357TIP3    H155562   1.229   1.687   0.098 -1.0906 -1.5893 -0.4815
11357TIP3    H255563   1.300   1.684   0.232  0.8971  0.7706 -1.3910
11358TIP3   OH255564   0.904   5.290  14.847 -0.1379 -0.2065  0.2300
11358TIP3    H155565   0.937   5.202  14.831 -0.1571 -0.0332 -0.8525
11358TIP3    H255566   0.938   5.342  14.775 -1.1214  0.4046  0.1844
11359TIP3   OH255567   2.314   4.855  15.458  0.4188 -0.1922  0.0462
11359TIP3    H155568   2.368   4.902  15.522  0.0051  0.2429  0.0795
11359TIP3    H255569   2.249   4.919  15.430 -0.0476 -0.6976 -0.0362
11360TIP3   OH255570   6.604   6.280   1.204 -0.1717  0.6075  0.4538
11360TIP3    H155571   6.596   6.283   1.109  2.2027  0.9949  0.1960
11360TIP3    H255572   6.636   6.192   1.223 -2.5606 -0.1814  1.1510
11361TIP3   OH255573   4.610   2.190   2.881 -0.1448 -0.2238  0.1755
11361TIP3    H155574   4.583   2.098   2.885  0.0241 -0.2309  1.7071
11361TIP3    H255575   4.528   2.239   2.878 -0.2845 -0.3840  1.0096
11362TIP3   OH255576   0.617   3.200  15.980 -0.6755  0.0586 -0.4623
11362TIP3    H155577   0.603   3.268  15.913 -1.7219 -0.4462 -0.7820
11362TIP3    H255578   0.674   3.136  15.938  0.3610  0.7410 -0.1416
11363TIP3   OH255579   0.892   1.808  15.047  0.7667  0.1776  0.6772
11363TIP3    H155580   0.947   1.843  14.978  2.8560 -2.6425  0.7314
11363TIP3    H255581   0.942   1.822  15.128  0.7888 -1.1427  0.9147
11364TIP3   OH255582   5.007   5.894  15.785 -0.4568  0.1254  0.7724
11364TIP3    H155583   4.943   5.871  15.718 -0.0648 -0.3093  0.5409
11364TIP3    H255584   5.031   5.810  15.825  2.0029 -0.1228 -0.9873
11365TIP3   OH255585   5.443   3.871   4.436  0.0460  0.1182 -0.3198
11365TIP3    H155586   5.369   3.832   4.390 -0.4363 -0.7743  1.1492
11365TIP3    H255587   5.457   3.815   4.512  1.8166  0.6583 -0.2075
11366TIP3   OH255588   5.573   5.479  16.016  0.2076  0.3620  0.2096
11366TIP3    H155589   5.606   5.472  15.927  0.9207 -1.0038  0.5391
11366TIP3    H255590   5.570   5.388  16.047  0.5933  0.8608  1.7892
11367TIP3   OH255591   6.160   5.243   0.521  0.6867  0.8197 -0.1536
11367TIP3    H155592   6.207   5.230   0.439 -0.0468 -1.3545 -0.3037
11367TIP3    H255593   6.226   5.276   0.582  1.7332  0.4760 -1.0756
11368TIP3   OH255594   6.709   0.397  11.831  0.1710 -0.5570  0.6023
11368TIP3    H155595   6.668   0.327  11.882  0.1411 -0.1607  1.1313
11368TIP3    H255596   6.684   0.379  11.740  1.4401 -2.1181  0.5296
11369TIP3   OH255597   1.493   4.962  16.015  0.7448 -0.4786  0.3239
11369TIP3    H155598   1.421   4.905  16.042  0.6582  0.1971  1.6199
11369TIP3    H255599   1.449   5.041  15.982  0.8727 -0.7801 -0.5727
11370TIP3   OH255600   5.784   0.470  14.212  0.3605 -0.7592  0.5970
11370TIP3    H155601   5.751   0.392  14.256  0.2893 -1.0431  0.0478
11370TIP3    H255602   5.841   0.437  14.143 -1.3285 -0.4536 -1.0412
11371TIP3   OH255603   4.369   6.588   6.022  0.4582 -0.0890 -0.0689
11371TIP3    H155604   4.376   6.642   5.944 -0.4557 -0.6197 -0.5345
11371TIP3    H255605   4.358   6.651   6.094  1.5665  0.4074 -0.3183
11372TIP3   OH255606   5.983   5.670   4.949 -0.4028 -0.2513 -0.3698
11372TIP3    H155607   5.941   5.609   5.009 -1.1701  0.6882  0.0940
11372TIP3    H255608   5.913   5.732   4.926  0.7699  1.5177  0.6070
11373TIP3   OH255609   0.084   1.055   0.895 -0.0458 -0.4144 -0.2243
11373TIP3    H155610   0.016   0.991   0.873  0.5210 -0.7721 -0.9973
11373TIP3    H255611   0.055   1.136   0.853  0.1320 -0.6368 -0.7878
11374TIP3   OH255612   1.772   1.934   3.539 -0.0554 -0.2430  0.2189
11374TIP3    H155613   1.682   1.905   3.551 -0.2312 -0.0441 -0.5424
11374TIP3    H255614   1.816   1.861   3.496 -0.9754  1.1450 -3.5067
11375TIP3   OH255615   5.152   6.358  16.804  0.3154 -0.0155  0.1556
11375TIP3    H155616   5.210   6.288  16.834  0.3655 -1.1230 -2.2898
11375TIP3    H255617   5.166   6.429  16.867 -0.3410 -2.4058  3.2287
11376TIP3   OH255618   1.624   3.621   3.733  0.1154 -0.4697 -0.1507
11376TIP3    H155619   1.587   3.553   3.676  1.4418 -0.3387 -1.2199
11376TIP3    H255620   1.551   3.680   3.749 -0.7204 -1.4263 -0.3111
11377TIP3   OH255621   1.390   4.781   2.261  0.2242 -0.1273  0.0101
11377TIP3    H155622   1.345   4.739   2.188  0.9833 -1.5782  0.3355
11377TIP3    H255623   1.474   4.736   2.266  0.4731  0.4334  1.3400
11378TIP3   OH255624   4.786   5.844  16.652 -0.6733 -0.0476  0.0480
11378TIP3    H155625   4.740   5.927  16.639 -1.5191 -0.4736  0.3002
11378TIP3    H255626   4.731   5.779  16.610  0.3575 -0.4033 -0.8083
11379TIP3   OH255627   2.711   2.817   1.181  0.2637 -0.2361 -0.4991
11379TIP3    H155628   2.718   2.760   1.105  0.9788 -0.3737 -0.3395
11379TIP3    H255629   2.800   2.818   1.218  0.4297  1.4489 -0.8480
11380TIP3   OH255630   1.395   0.973   2.757 -0.5197  0.1333 -0.4414
11380TIP3    H155631   1.355   0.888   2.737  0.3119  0.0921 -2.1704
11380TIP3    H255632   1.392   1.020   2.673 -0.8595  1.7837  0.4556
11381TIP3   OH255633   2.651   3.424  12.032 -0.1152 -0.4474  0.1186
11381TIP3    H155634   2.735   3.384  12.011 -0.0659 -0.4653  0.3507
11381TIP3    H255635   2.595   3.403  11.957  0.2354  0.0027 -0.2789
11382TIP3   OH255636   1.863   4.390   3.697  0.5186  0.0867 -0.3281
11382TIP3    H155637   1.789   4.448   3.716  0.9493  0.4969  0.0913
11382TIP3    H255638   1.861   4.380   3.601 -0.7838 -0.8451 -0.2415
11383TIP3   OH255639   1.366   2.441  14.144 -0.2571  0.4908 -0.5239
11383TIP3    H155640   1.319   2.492  14.210  1.2267  0.2192  0.8036
11383TIP3    H255641   1.337   2.350  14.159  0.1449  0.4176 -0.1821
11384TIP3   OH255642   5.627   3.533  16.959  0.5057 -0.0956  0.2980
11384TIP3    H155643   5.637   3.438  16.957 -0.0908 -0.2116  1.8304
11384TIP3    H255644   5.607   3.554  17.050 -0.6737  1.3633 -0.2398
11385TIP3   OH255645   5.675   0.449   1.912  0.5449 -0.0946  0.1161
11385TIP3    H155646   5.656   0.356   1.929  0.7673 -0.2070 -0.2579
11385TIP3    H255647   5.662   0.460   1.818  1.8250 -0.0489 -0.0679
11386TIP3   OH255648   0.540   2.712  17.248  0.2352 -0.6275  0.0696
11386TIP3    H155649   0.464   2.740  17.300  1.2356 -0.7507  1.6872
11386TIP3    H255650   0.586   2.792  17.227  0.0285 -0.6089 -0.3190
11387TIP3   OH255651   1.140   5.386   1.903  0.1318 -0.1635  0.0271
11387TIP3    H155652   1.226   5.389   1.861  0.4640 -2.3436  0.4631
11387TIP3    H255653   1.152   5.434   1.985  0.2939  1.4612 -0.9007
11388TIP3   OH255654   5.440   4.011  16.345  0.1640 -0.4308  0.3418
11388TIP3    H155655   5.419   3.934  16.292 -0.2259  0.1167 -0.3102
11388TIP3    H255656   5.356   4.054  16.359  0.6538  1.4229 -1.7314
11389TIP3   OH255657   6.103   1.857  14.344 -0.5819  0.0413  0.3769
11389TIP3    H155658   6.048   1.834  14.418 -0.0495  1.3922  1.2225
11389TIP3    H255659   6.053   1.829  14.267 -1.9232  0.2013  1.1665
11390TIP3   OH255660   5.603   2.592   0.973 -0.1593 -1.0513  0.1230
11390TIP3    H155661   5.642   2.564   1.056  0.9878  0.1958  0.0458
11390TIP3    H255662   5.650   2.541   0.907 -0.3786 -1.3249  0.1779
11391TIP3   OH255663   2.325   3.620  13.039 -0.4153  0.1989  0.1273
11391TIP3    H155664   2.338   3.550  12.975 -4.0155  0.8961 -1.6000
11391TIP3    H255665   2.396   3.682  13.021  0.2044 -0.8781 -1.3525
11392TIP3   OH255666   5.282   1.752  16.432 -0.3248 -0.4326  0.2064
11392TIP3    H155667   5.317   1.836  16.403 -2.2646  0.5188  0.4542
11392TIP3    H255668   5.276   1.760  16.528 -1.8217 -0.2852  0.1206
11393TIP3   OH255669   6.196   0.038   2.829  0.2870 -0.1263 -0.2704
11393TIP3    H155670   6.250  -0.005   2.896  2.0335  1.6088 -0.4863
11393TIP3    H255671   6.244   0.024   2.747 -1.1147 -1.0172 -0.9943
11394TIP3   OH255672   5.741   1.704   0.451  0.4253  0.0793  0.8014
11394TIP3    H155673   5.714   1.650   0.525  0.1831  0.3850  0.9370
11394TIP3    H255674   5.770   1.786   0.490  0.6958  0.0880  0.5874
11395TIP3   OH255675   3.298   0.519  15.003 -0.3721 -0.1308  0.3776
11395TIP3    H155676   3.240   0.443  14.995 -2.1724  1.2215  0.0201
11395TIP3    H255677   3.289   0.547  15.094 -0.8661  0.5118  0.1383
11396TIP3   OH255678   4.376   2.788   3.960  0.1090 -0.0571  0.3076
11396TIP3    H155679   4.419   2.873   3.969 -0.2091  0.1562 -0.1724
11396TIP3    H255680   4.302   2.792   4.022  0.0817  0.0236  0.2698
11397TIP3   OH255681   4.050   4.734   2.845  0.1210 -0.2154 -0.1623
11397TIP3    H155682   4.033   4.770   2.758  0.6170  0.5142  0.0308
11397TIP3    H255683   4.001   4.652   2.847  0.7761 -0.6654 -1.4328
11398TIP3   OH255684   6.169   0.424   1.959  0.6095  0.0697 -0.5111
11398TIP3    H155685   6.181   0.386   1.872 -0.8439  0.0155 -0.7085
11398TIP3    H255686   6.191   0.352   2.019  1.9949  0.2243 -0.8031
11399TIP3   OH255687   4.775   3.716   3.316  0.6543  0.1600 -0.4066
11399TIP3    H155688   4.797   3.643   3.258 -0.6859 -1.0910  0.5823
11399TIP3    H255689   4.859   3.747   3.348  1.2425 -1.2729 -0.4789
11400TIP3   OH255690   2.346   3.944   5.590  0.2999  0.2964 -0.3072
11400TIP3    H155691   2.319   3.996   5.665  1.9804  0.1482  0.4351
11400TIP3    H255692   2.267   3.896   5.565 -0.0440 -0.4804  2.0502
11401TIP3   OH255693   2.466   4.512  12.131  0.4425 -0.9215  0.2094
11401TIP3    H155694   2.532   4.452  12.165 -0.4119 -0.1067  3.6285
11401TIP3    H255695   2.498   4.599  12.155 -0.0132 -0.1854 -1.6232
11402TIP3   OH255696   4.076   2.902   5.387  0.1193  0.3955 -0.6761
11402TIP3    H155697   4.070   2.867   5.476  1.9518 -1.3518 -1.1724
11402TIP3    H255698   4.060   2.996   5.397 -1.9783 -0.0810  1.1481
11403TIP3   OH255699   3.727   2.324   1.017  0.2812 -0.2289 -0.2267
11403TIP3    H155700   3.800   2.264   0.996  0.5807 -0.9202  2.4540
11403TIP3    H255701   3.667   2.314   0.944  2.8127  0.3512 -2.5658
11404TIP3   OH255702   0.422   2.268  14.101 -0.1235 -0.5287  0.0743
11404TIP3    H155703   0.385   2.316  14.175 -0.3715  0.2237 -0.5223
11404TIP3    H255704   0.391   2.315  14.024  0.6941 -0.8880 -0.4939
11405TIP3   OH255705   5.110   6.028  13.315 -0.1150 -0.3969  0.4158
11405TIP3    H155706   5.129   6.083  13.239 -2.6746  1.0568  0.7215
11405TIP3    H255707   5.062   5.953  13.279 -1.8571  0.5867  0.5825
11406TIP3   OH255708   4.563   2.272  14.015 -0.0578  0.1288  0.5015
11406TIP3    H155709   4.622   2.297  14.086  1.3908 -0.3312 -0.4948
11406TIP3    H255710   4.565   2.345  13.954 -2.8330  1.4013  1.7728
11407TIP3   OH255711   5.974   2.818   1.811  0.0205  0.2428  0.3396
11407TIP3    H155712   5.949   2.726   1.823  0.3417  0.1339  0.1889
11407TIP3    H255713   5.916   2.849   1.742  1.4614 -0.5177 -1.3202
11408TIP3   OH255714   0.717   1.101  15.200 -0.4668 -0.1223  0.0093
11408TIP3    H155715   0.737   1.121  15.109 -1.8718  0.1814 -0.2680
11408TIP3    H255716   0.649   1.165  15.224 -0.4735 -0.5162  1.1110
11409TIP3   OH255717   3.567   0.167  13.323 -0.0800 -0.3286  0.0944
11409TIP3    H155718   3.617   0.176  13.405  0.1813  0.6261 -0.1497
11409TIP3    H255719   3.622   0.113  13.267  0.3538  0.1109  0.0886
11410TIP3   OH255720   1.971   0.759   1.051  0.6023  0.1441  0.3824
11410TIP3    H155721   2.010   0.819   1.115  1.2118 -0.0885  0.2372
11410TIP3    H255722   1.970   0.808   0.969 -0.1326  0.4245  0.5523
11411TIP3   OH255723   2.574   1.316  15.726  0.8626  0.1378  0.0588
11411TIP3    H155724   2.482   1.309  15.752  0.7292  1.4576  0.0159
11411TIP3    H255725   2.613   1.372  15.793  1.4136  0.3631 -0.4426
11412TIP3   OH255726   5.840   2.483   5.408  0.3865  0.2308  0.1462
11412TIP3    H155727   5.866   2.403   5.453 -2.5759 -1.0963 -0.2434
11412TIP3    H255728   5.893   2.485   5.329  1.9059 -0.2281  1.1060
11413TIP3   OH255729   3.437   6.513   3.894 -0.0144  0.9559  0.4432
11413TIP3    H155730   3.462   6.521   3.802 -0.7370 -0.7729  0.0545
11413TIP3    H255731   3.519   6.498   3.940  0.1848  0.1954 -0.1521
11414TIP3   OH255732   1.911   3.686  14.875 -0.1026  0.5872  0.4360
11414TIP3    H155733   1.881   3.654  14.790  1.8362  1.1586 -0.5167
11414TIP3    H255734   1.928   3.606  14.926  0.3204  0.1911 -0.3113
11415TIP3   OH255735   4.277   6.423   1.269  0.3793  0.5246  0.2702
11415TIP3    H155736   4.328   6.344   1.287  0.4437  0.8580  1.7273
11415TIP3    H255737   4.342   6.485   1.234  0.4173  0.0905 -0.4473
11416TIP3   OH255738   5.394   3.134   2.867  0.0501 -0.1431  0.3873
11416TIP3    H155739   5.479   3.177   2.874 -0.6278  1.1425  1.0910
11416TIP3    H255740   5.405   3.070   2.797  2.3535 -1.8890  2.2003
11417TIP3   OH255741   5.454   0.166   0.351 -0.0619  0.4862 -0.0203
11417TIP3    H155742   5.385   0.189   0.413 -1.3169  2.3576 -1.9776
11417TIP3    H255743   5.433   0.077   0.323  0.2263 -0.1949  1.7455
11418TIP3   OH255744   5.161   4.098  16.435 -0.0611  0.0487  0.9990
11418TIP3    H155745   5.149   4.070  16.344  0.5279  1.3082  0.5134
11418TIP3    H255746   5.165   4.016  16.485  2.6648 -0.8491 -0.4897
11419TIP3   OH255747   6.659   2.254   5.899  0.4510  0.3025 -0.4098
11419TIP3    H155748   6.591   2.187   5.908 -0.1706  0.9953  0.1433
11419TIP3    H255749   6.698   2.261   5.986  0.0575  1.1270 -0.2935
11420TIP3   OH255750   0.770   2.556   4.126  0.1427 -0.6503  0.3825
11420TIP3    H155751   0.683   2.518   4.121  0.5995 -1.5920 -4.1302
11420TIP3    H255752   0.755   2.650   4.141 -1.4539 -1.0834  1.7775
11421TIP3   OH255753   1.488   1.560  17.431  0.6269 -0.3013 -0.1899
11421TIP3    H155754   1.448   1.473  17.422  0.0644  0.0177 -0.8741
11421TIP3    H255755   1.423   1.620  17.395  0.9368  0.4287  0.4404
11422TIP3   OH255756   6.475   2.627  10.774 -0.5949  0.2318  0.1493
11422TIP3    H155757   6.528   2.664  10.845  0.9530 -1.3402 -0.1411
11422TIP3    H255758   6.443   2.704  10.726  3.3165  1.3465 -1.0576
11423TIP3   OH255759   2.041   6.712  12.911  0.3225 -0.3643  0.5264
11423TIP3    H155760   2.003   6.627  12.889 -1.7077  0.8364 -0.9432
11423TIP3    H255761   2.009   6.730  12.999 -0.4440 -0.5122  0.2915
11424TIP3   OH255762   4.192   2.121  16.612 -0.7703 -0.1795 -0.0715
11424TIP3    H155763   4.253   2.102  16.541 -1.1740  0.8938 -0.7377
11424TIP3    H255764   4.191   2.216  16.619 -2.0855 -0.1792  0.1542
11425TIP3   OH255765   0.873   4.136   5.847  0.0259  0.4632  0.2038
11425TIP3    H155766   0.856   4.137   5.941 -0.7185  1.2538  0.0670
11425TIP3    H255767   0.830   4.056   5.815 -0.2617  0.5259  0.4356
11426TIP3   OH255768   3.214   1.763  17.010  0.2773 -0.0359 -0.0653
11426TIP3    H155769   3.265   1.841  17.031  1.9659 -0.9608 -0.5737
11426TIP3    H255770   3.257   1.692  17.058 -0.9462 -0.7534  0.0192
11427TIP3   OH255771   3.602   0.128  16.625  0.0149 -0.5969  0.0878
11427TIP3    H155772   3.583   0.165  16.711 -1.2507 -0.8215 -0.0777
11427TIP3    H255773   3.676   0.068  16.640 -0.0958 -0.5220  0.9780
11428TIP3   OH255774   2.749   0.138  15.182 -0.2937  0.6542 -0.6831
11428TIP3    H155775   2.746   0.232  15.166  0.1268  0.4731 -1.9423
11428TIP3    H255776   2.812   0.105  15.118  1.1573 -0.2227  1.0765
11429TIP3   OH255777   3.832   2.190  11.129 -0.7369  0.3727 -0.4541
11429TIP3    H155778   3.843   2.192  11.034 -0.0792 -1.0419 -0.4317
11429TIP3    H255779   3.910   2.235  11.163 -1.3023  1.4859 -0.5723
11430TIP3   OH255780   3.219   2.099  16.814 -0.1903 -0.5191 -0.2328
11430TIP3    H155781   3.146   2.087  16.875 -1.7126 -0.7585 -2.0113
11430TIP3    H255782   3.178   2.127  16.732  1.2155 -4.4828 -2.5498
11431TIP3   OH255783   5.645   6.477   0.757  0.0643 -0.2366 -0.1746
11431TIP3    H155784   5.735   6.459   0.727  0.8542  2.7235  0.1138
11431TIP3    H255785   5.599   6.503   0.677  0.4594  1.5407  0.1262
11432TIP3   OH255786   2.808   3.666   1.184  0.2135 -0.6941 -0.0321
11432TIP3    H155787   2.856   3.686   1.103  0.9373 -0.1091  0.5370
11432TIP3    H255788   2.872   3.620   1.239  0.1709  0.2024  0.7830
11433TIP3   OH255789   2.933   0.028   4.150 -0.2301 -0.3281 -0.2486
11433TIP3    H155790   3.001  -0.038   4.135 -0.9036 -1.9059  2.8143
11433TIP3    H255791   2.867   0.010   4.084  0.0644 -2.1131 -0.0979
11434TIP3   OH255792   2.659   4.096   3.015  0.1509  0.1728  0.4569
11434TIP3    H155793   2.590   4.104   3.081 -0.0952  1.5653  0.0639
11434TIP3    H255794   2.612   4.099   2.932  0.5087 -1.0653  0.1936
11435TIP3   OH255795   2.912   1.205  15.865 -0.0098  0.5336 -0.2935
11435TIP3    H155796   2.858   1.274  15.827 -0.1635  0.1007 -0.8730
11435TIP3    H255797   3.001   1.225  15.836  0.0032  0.6907 -0.1512
11436TIP3   OH255798   4.837   6.650  14.371 -0.4569  0.0235 -0.1251
11436TIP3    H155799   4.816   6.700  14.292 -2.0683  0.8006  0.7383
11436TIP3    H255800   4.776   6.682  14.437  1.5631  0.2366  1.7994
11437TIP3   OH255801   0.692   3.138   2.407 -0.5293 -0.7124  0.5663
11437TIP3    H155802   0.609   3.163   2.448 -0.8868  0.8347 -0.9798
11437TIP3    H255803   0.755   3.138   2.479 -1.2832  1.0553  1.2939
11438TIP3   OH255804   0.663   3.292  13.413  0.2997  0.1778  0.2883
11438TIP3    H155805   0.697   3.241  13.486 -1.3438 -0.6961  0.4857
11438TIP3    H255806   0.617   3.365  13.454 -0.2829 -0.0952  0.1330
11439TIP3   OH255807   1.121   6.658  13.176 -0.3084 -0.2455  0.0585
11439TIP3    H155808   1.201   6.677  13.126  1.0821 -1.6641  1.5889
11439TIP3    H255809   1.082   6.583  13.132  0.4572 -0.9651  0.5783
11440TIP3   OH255810   2.159   0.290   4.403  0.4610  0.3835 -0.0319
11440TIP3    H155811   2.064   0.295   4.389  0.5589  0.2049 -0.8442
11440TIP3    H255812   2.175   0.344   4.480  0.0536  2.9384 -1.6191
11441TIP3   OH255813   3.200   2.700   2.054  0.3974 -0.1573 -0.6013
11441TIP3    H155814   3.144   2.777   2.056  0.0294 -0.4160 -0.6689
11441TIP3    H255815   3.273   2.721   2.111 -0.2299 -0.1531  0.2203
11442TIP3   OH255816   2.781   5.032  12.658  0.6740  0.1560 -0.3643
11442TIP3    H155817   2.814   4.977  12.588 -1.4283 -1.2076 -0.3821
11442TIP3    H255818   2.831   5.006  12.736  0.1845 -1.3209 -0.5217
11443TIP3   OH255819   5.501   6.426   6.500 -0.0410 -0.3613 -0.0380
11443TIP3    H155820   5.479   6.513   6.534  1.7698 -0.0367  0.3771
11443TIP3    H255821   5.445   6.367   6.551  0.7985  0.3284  1.7830
11444TIP3   OH255822   5.666   1.848  14.100 -0.7152 -0.2696 -0.6804
11444TIP3    H155823   5.735   1.848  14.034 -0.4532  2.3910 -0.5282
11444TIP3    H255824   5.618   1.929  14.084 -1.2772 -0.0465  1.7430
11445TIP3   OH255825   0.080   3.387   3.565  0.0540 -0.5391 -0.1508
11445TIP3    H155826   0.026   3.356   3.638  0.5089 -0.5899  0.1644
11445TIP3    H255827   0.121   3.467   3.598  0.0166 -0.3883 -0.4632
11446TIP3   OH255828   2.508   0.958  14.047  0.7784  0.4455 -1.2907
11446TIP3    H155829   2.600   0.975  14.068  0.5031 -1.6660  2.4585
11446TIP3    H255830   2.506   0.866  14.021 -0.4557 -0.2767  1.0722
11447TIP3   OH255831   3.867   4.927  11.958 -0.2762  0.5075 -0.0487
11447TIP3    H155832   3.857   5.008  12.008 -2.5073  0.9158 -1.0398
11447TIP3    H255833   3.885   4.956  11.869 -1.6293 -0.0515 -0.5211
11448TIP3   OH255834   3.218   0.383  16.145 -0.1627  0.1830  0.2697
11448TIP3    H155835   3.264   0.438  16.081  0.5614 -1.0991 -0.3422
11448TIP3    H255836   3.252   0.295  16.130 -0.8262 -0.3373  1.6701
11449TIP3   OH255837   2.987   3.955   4.403  0.2867  0.3698 -0.0906
11449TIP3    H155838   2.936   3.879   4.431 -0.9047  1.7806  1.8143
11449TIP3    H255839   2.945   3.982   4.322  0.1606 -0.4693 -0.3217
11450TIP3   OH255840   0.775   1.114  12.414 -0.2110  0.6145  0.3766
11450TIP3    H155841   0.786   1.020  12.433  0.1435  0.0914 -2.0576
11450TIP3    H255842   0.861   1.152  12.433  0.2933  0.0193 -0.5848
11451TIP3   OH255843   4.161   6.274  12.482 -0.5110  0.2335 -0.3342
11451TIP3    H155844   4.227   6.250  12.547  0.0594  0.3740 -0.8507
11451TIP3    H255845   4.080   6.236  12.515 -0.0429 -0.5314 -0.0260
11452TIP3   OH255846   5.818   1.354  12.809  0.0987 -0.1012 -0.7263
11452TIP3    H155847   5.733   1.312  12.810  0.0094  0.0104 -1.8173
11452TIP3    H255848   5.807   1.429  12.750  0.9008  0.0172 -0.7433
11453TIP3   OH255849   1.010   5.476   6.018  0.1325  0.0479  0.3143
11453TIP3    H155850   0.947   5.545   6.036 -0.9610 -0.6102 -0.8474
11453TIP3    H255851   1.025   5.435   6.103  0.5096  1.4407  0.9540
11454TIP3   OH255852   4.784   2.909  12.675 -0.3177  0.1987  0.1384
11454TIP3    H155853   4.847   2.923  12.605  0.1418 -0.6394  0.3674
11454TIP3    H255854   4.767   2.996  12.711 -0.0839  0.5545 -0.5976
11455TIP3   OH255855   5.108   0.199   6.771 -0.6891 -0.5926  0.3284
11455TIP3    H155856   5.034   0.255   6.795  1.3755  2.3243  0.4485
11455TIP3    H255857   5.157   0.250   6.706  0.8507 -2.7165 -0.3175
11456TIP3   OH255858   2.163   1.055   5.483  0.0895 -0.0599  0.1348
11456TIP3    H155859   2.107   1.132   5.477  0.4739  0.1950 -0.1508
11456TIP3    H255860   2.154   1.027   5.575  1.1398  1.2221  0.6569
11457TIP3   OH255861   4.935   0.860  16.949  0.2633 -0.0722 -0.2657
11457TIP3    H155862   4.967   0.855  16.859 -0.6670 -1.9413 -0.5500
11457TIP3    H255863   4.981   0.791  16.995  1.5577  1.5774  1.0369
11458TIP3   OH255864   0.466   1.998  15.896 -0.3273  0.2078  0.2563
11458TIP3    H155865   0.407   2.001  15.821 -0.9740 -1.0402  0.6780
11458TIP3    H255866   0.410   1.971  15.969  0.3385  1.1638  1.1360
11459TIP3   OH255867   6.043   5.671  12.284  0.4887  0.9247 -0.1676
11459TIP3    H155868   6.059   5.577  12.291  1.5162  0.7819 -3.0278
11459TIP3    H255869   5.955   5.684  12.319  1.5209 -0.4827  3.4365
11460TIP3   OH255870   6.109   1.191  12.116 -0.4270 -0.4983  0.0424
11460TIP3    H155871   6.169   1.149  12.178  0.4942  0.0981 -0.4371
11460TIP3    H255872   6.161   1.257  12.072 -1.5633  0.3569 -0.0631
11461TIP3   OH255873   2.354   4.573  15.400  0.3517 -0.0731  0.6498
11461TIP3    H155874   2.284   4.557  15.464 -0.0887 -0.3785  0.0947
11461TIP3    H255875   2.359   4.669  15.394  0.0712 -0.0483  0.7898
11462TIP3   OH255876   4.045   4.284   2.657 -0.1286  0.3893  0.9361
11462TIP3    H155877   4.019   4.369   2.693  0.5667  0.6471  0.8425
11462TIP3    H255878   4.049   4.227   2.734  0.2891  0.6720  1.1328
11463TIP3   OH255879   3.332   2.714   2.729  0.1121  0.5804 -0.0673
11463TIP3    H155880   3.247   2.749   2.758 -0.1478 -0.8411  0.9944
11463TIP3    H255881   3.349   2.641   2.788 -0.0630 -2.0349 -2.9612
11464TIP3   OH255882   0.440   3.528   2.128  0.7922 -0.0001  0.2046
11464TIP3    H155883   0.532   3.524   2.102  0.7254 -0.8635  0.0971
11464TIP3    H255884   0.419   3.441   2.160 -0.1809 -0.0216 -0.4312
11465TIP3   OH255885   4.555   0.734   3.646 -0.1594 -0.2254 -0.1141
11465TIP3    H155886   4.562   0.729   3.550 -1.9320  0.3791 -0.3109
11465TIP3    H255887   4.598   0.817   3.668 -0.8562  0.2723 -0.5548
11466TIP3   OH255888   0.706   2.582   4.585  0.3023  0.2835  0.2914
11466TIP3    H155889   0.755   2.506   4.613  0.9794  1.0156  1.1552
11466TIP3    H255890   0.630   2.585   4.644  0.2652  0.2732  0.2449
11467TIP3   OH255891   1.086   5.144  12.925  0.2565  0.4533  0.2858
11467TIP3    H155892   1.064   5.075  12.863  0.9877  0.3480  0.1356
11467TIP3    H255893   1.178   5.129  12.947  0.3892  1.2942  0.3611
11468TIP3   OH255894   3.577   0.913  16.334 -0.4011  0.5425  0.7266
11468TIP3    H155895   3.554   1.005  16.319 -2.0915  0.2684  1.3553
11468TIP3    H255896   3.511   0.863  16.286 -0.9563 -0.3174  2.3126
11469TIP3   OH255897   6.474   3.740  12.001 -0.0139  0.5738  0.3204
11469TIP3    H155898   6.480   3.819  12.054  1.6208  0.1949  0.7490
11469TIP3    H255899   6.479   3.668  12.063  0.9018  0.1264 -0.2573
11470TIP3   OH255900   0.874   5.665   3.923  0.2604 -0.1359  0.5684
11470TIP3    H155901   0.844   5.574   3.917 -4.2747  1.2257 -2.8495
11470TIP3    H255902   0.832   5.698   4.003  0.1022 -0.4772  0.6304
11471TIP3   OH255903   4.396   6.104  13.221 -0.4163  0.0783 -0.3125
11471TIP3    H155904   4.425   6.036  13.160  0.9324  0.7518 -0.4691
11471TIP3    H255905   4.315   6.069  13.259 -0.7790 -0.7723 -1.7695
11472TIP3   OH255906   6.602   4.925   3.639  0.1219  0.2827 -0.1529
11472TIP3    H155907   6.566   4.991   3.580  1.4614 -0.6515 -2.1143
11472TIP3    H255908   6.696   4.944   3.641  0.2435 -0.3844  0.8089
11473TIP3   OH255909   1.725   0.083   3.235 -0.1666  0.1053  0.0971
11473TIP3    H155910   1.632   0.060   3.228 -0.0788 -1.7888  3.3226
11473TIP3    H255911   1.728   0.150   3.303  0.9281 -1.1712  1.3691
11474TIP3   OH255912   1.452   2.309  11.635  0.2982  0.1105 -0.5922
11474TIP3    H155913   1.487   2.349  11.555 -2.7938  1.3104 -1.4866
11474TIP3    H255914   1.472   2.372  11.704 -0.6563  1.1408 -1.2175
11475TIP3   OH255915   6.260   0.012   1.145  0.1064  0.3048 -0.1107
11475TIP3    H155916   6.335   0.060   1.181  0.1334  1.1910 -1.2608
11475TIP3    H255917   6.295  -0.072   1.118  0.6993  0.7084 -0.6231
11476TIP3   OH255918   4.191   2.625   2.347 -0.2649  0.4754 -0.3095
11476TIP3    H155919   4.129   2.661   2.283  0.6155  1.2954 -0.7219
11476TIP3    H255920   4.210   2.537   2.314 -0.0127  0.8009 -1.0578
11477TIP3   OH255921   1.945   2.396  16.388  0.4937 -0.0621 -0.0639
11477TIP3    H155922   1.876   2.409  16.452  1.0353  0.1474  0.4845
11477TIP3    H255923   1.921   2.314  16.343 -0.5881  0.4850 -0.5197
11478TIP3   OH255924   4.436   6.529   5.711  0.6102  0.0726  0.5138
11478TIP3    H155925   4.416   6.478   5.632  0.6711 -1.0214  1.1861
11478TIP3    H255926   4.422   6.620   5.685 -1.0212 -0.3728 -0.2755
11479TIP3   OH255927   5.138   5.392   0.067  0.1418  0.0181 -0.0266
11479TIP3    H155928   5.138   5.299   0.044 -2.9041  0.1435 -1.0423
11479TIP3    H255929   5.102   5.395   0.155  0.8424  0.2267  0.2594
11480TIP3   OH255930   2.234   6.284   0.596 -0.0582 -0.4622 -0.2504
11480TIP3    H155931   2.192   6.256   0.678 -0.7544 -1.3086 -0.8750
11480TIP3    H255932   2.164   6.279   0.530  0.5656 -0.0774 -0.9605
11481TIP3   OH255933   6.007   4.347  14.487 -0.3746 -0.2265  0.0293
11481TIP3    H155934   5.930   4.305  14.449 -0.3762 -0.1389 -0.0646
11481TIP3    H255935   6.073   4.277  14.490  0.0051  0.0592 -1.2311
11482TIP3   OH255936   0.508   1.512   1.386 -0.3755 -0.0532  0.1554
11482TIP3    H155937   0.538   1.588   1.337 -0.2290 -0.6445 -0.6871
11482TIP3    H255938   0.469   1.548   1.466 -0.6817  0.9190 -0.4276
11483TIP3   OH255939   6.188   5.567  16.617  0.4071 -0.7015 -0.0067
11483TIP3    H155940   6.154   5.523  16.695  0.2886  1.5699  1.3116
11483TIP3    H255941   6.265   5.615  16.648 -1.1949  2.5197 -0.4918
11484TIP3   OH255942   6.510   3.146  15.380 -0.1780  0.4778  0.1116
11484TIP3    H155943   6.430   3.173  15.425 -0.2282 -0.0534  0.3430
11484TIP3    H255944   6.482   3.123  15.292 -0.3585 -0.1327  0.3207
11485TIP3   OH255945   3.294   3.450  17.140 -0.2077  0.1426  0.3714
11485TIP3    H155946   3.272   3.464  17.232 -1.6833 -0.8470  0.2037
11485TIP3    H255947   3.390   3.446  17.139 -0.1353  0.7988  1.7553
11486TIP3   OH255948   4.673   3.023   2.629  0.3509  0.6514  0.2670
11486TIP3    H155949   4.681   3.118   2.634  0.1769  1.0081 -3.3398
11486TIP3    H255950   4.578   3.007   2.625  0.3747  0.3018  0.9901
11487TIP3   OH255951   2.033   0.564   2.719 -0.5784  0.3835  0.2563
11487TIP3    H155952   2.114   0.516   2.701 -1.2628 -0.7682  0.1393
11487TIP3    H255953   2.039   0.586   2.812  0.4420  1.4533 -0.0356
11488TIP3   OH255954   1.685   5.837   6.288  0.4644 -0.1306  0.0999
11488TIP3    H155955   1.619   5.768   6.281 -2.1333  2.3115 -1.9016
11488TIP3    H255956   1.673   5.873   6.376 -2.0807  1.1881 -0.6692
11489TIP3   OH255957   1.583   0.046  12.975 -0.4828 -0.0194 -0.1921
11489TIP3    H155958   1.591   0.038  12.880  4.7023  0.4054 -0.0807
11489TIP3    H255959   1.576   0.140  12.992 -0.8354 -0.0589 -0.0975
11490TIP3   OH255960   4.456   3.838  15.274  0.3692 -0.5067  0.4067
11490TIP3    H155961   4.487   3.917  15.317  1.2200 -0.4128 -0.3594
11490TIP3    H255962   4.361   3.847  15.273  0.4074  0.0810  1.1178
11491TIP3   OH255963   2.183   3.526  13.434  0.2206 -0.3376  0.3596
11491TIP3    H155964   2.128   3.452  13.458 -1.7458  1.6177  2.3047
11491TIP3    H255965   2.131   3.573  13.368  0.5535  0.3816  0.6093
11492TIP3   OH255966   1.100   2.620   1.570 -0.0575  0.1649 -0.6072
11492TIP3    H155967   1.110   2.525   1.576 -0.6294 -0.0237 -2.0451
11492TIP3    H255968   1.028   2.640   1.630 -1.1451 -0.5880 -1.6083
11493TIP3   OH255969   0.430   2.407   0.841  0.0823  0.4788  0.3328
11493TIP3    H155970   0.441   2.416   0.936  1.3077  0.9561  0.1644
11493TIP3    H255971   0.451   2.494   0.806  0.4954  0.0853 -0.4315
11494TIP3   OH255972   3.264   4.082   2.948 -0.3363 -0.8782  0.0871
11494TIP3    H155973   3.276   4.159   3.003  1.3487 -1.1483  0.1612
11494TIP3    H255974   3.296   4.108   2.862 -1.0892 -1.0671 -0.2546
11495TIP3   OH255975   3.799   2.532  15.347  0.1484 -0.1540  0.1620
11495TIP3    H155976   3.884   2.505  15.313  0.5799 -1.6776  2.2183
11495TIP3    H255977   3.819   2.566  15.434 -1.2126  0.7202  0.1543
11496TIP3   OH255978   1.288   2.992  14.875 -0.0235 -0.1028 -0.0699
11496TIP3    H155979   1.373   2.947  14.878  0.1016  0.1863  0.7330
11496TIP3    H255980   1.277   3.029  14.962 -0.8131  0.1732 -0.2827
11497TIP3   OH255981   5.798   5.563   2.392  0.0073 -0.3294 -0.3898
11497TIP3    H155982   5.836   5.635   2.343  2.1792 -0.5371  0.8438
11497TIP3    H255983   5.786   5.598   2.480 -0.7501 -0.8974 -0.2652
11498TIP3   OH255984   4.881   1.229   4.601  0.3302 -0.4770 -0.2545
11498TIP3    H155985   4.952   1.172   4.630  0.3808 -0.5417 -0.5021
11498TIP3    H255986   4.924   1.299   4.551  0.1978 -0.6546 -0.6196
11499TIP3   OH255987   5.604   5.359  15.278 -0.2164  0.7456 -0.1266
11499TIP3    H155988   5.578   5.401  15.196 -0.1840  0.4826 -0.2739
11499TIP3    H255989   5.587   5.266  15.263  1.6526  0.4245 -0.5679
11500TIP3   OH255990   0.418   1.735   6.663  0.6622  0.1063  0.5796
11500TIP3    H155991   0.507   1.734   6.698  0.6720  0.3112  0.5620
11500TIP3    H255992   0.363   1.702   6.734  0.8262 -0.5996  0.3846
11501TIP3   OH255993   1.283   4.145   5.353  0.5028 -0.1766 -0.7828
11501TIP3    H155994   1.293   4.179   5.264  3.7526 -1.6064 -1.1249
11501TIP3    H255995   1.238   4.061   5.342  1.7571 -0.8098 -1.2545
11502TIP3   OH255996   2.677   5.531   5.056 -0.2829 -0.1787 -0.9819
11502TIP3    H155997   2.637   5.497   4.976 -1.8388  2.0738 -1.2364
11502TIP3    H255998   2.712   5.616   5.032 -0.8784  0.6059  0.7201
11503TIP3   OH255999   6.157   6.338  13.929  0.4376  0.1693 -0.4542
11503TIP3    H156000   6.236   6.387  13.910  1.5800 -1.3609  0.0935
11503TIP3    H256001   6.086   6.403  13.927  1.9129  1.8992  0.7339
11504TIP3   OH256002   3.290   3.611  13.403  0.1277  0.0219  0.4822
11504TIP3    H156003   3.351   3.629  13.475  1.4748 -0.3060 -0.5468
11504TIP3    H256004   3.209   3.584  13.447  0.7352  0.3659  1.8831
11505TIP3   OH256005   3.341   6.486   5.643  0.6448 -0.6453 -0.4762
11505TIP3    H156006   3.276   6.424   5.675 -0.9352 -0.4239 -2.9625
11505TIP3    H256007   3.353   6.462   5.551  2.3241  0.8321 -0.6998
11506TIP3   OH256008   3.196   4.579  17.230  0.2563 -0.3661  0.8182
11506TIP3    H156009   3.198   4.484  17.221  0.9017 -0.3023  0.1353
11506TIP3    H256010   3.280   4.608  17.193 -0.7311  0.6030 -0.8285
11507TIP3   OH256011   5.059   3.884   6.189 -0.0653  0.0028 -0.0975
11507TIP3    H156012   5.013   3.923   6.263  0.7154  0.2125  0.2895
11507TIP3    H256013   5.135   3.841   6.228  2.8022  3.6548 -1.0262
11508TIP3   OH256014   0.608   3.841   2.382 -0.1032  0.1836 -0.1943
11508TIP3    H156015   0.656   3.897   2.443  1.7461 -0.2605 -1.1485
11508TIP3    H256016   0.632   3.873   2.295 -4.5403  2.3482 -0.8773
11509TIP3   OH256017   3.717   3.985  11.475  0.2381  0.3221  0.0225
11509TIP3    H156018   3.744   4.010  11.387  0.6893  0.0786  0.0871
11509TIP3    H256019   3.656   4.053  11.502  0.2161  0.4786 -0.4215
11510TIP3   OH256020   5.404   5.978  13.406  0.7083  0.1580  0.1740
11510TIP3    H156021   5.493   5.983  13.441  0.0080  1.0426  1.9724
11510TIP3    H256022   5.409   6.018  13.320  2.8217 -3.3772 -1.5858
11511TIP3   OH256023   6.091   2.284  13.888  0.7618  0.4613  0.2779
11511TIP3    H156024   6.114   2.367  13.846 -3.2670  2.4869  1.5612
11511TIP3    H256025   6.058   2.229  13.817  1.3533  0.8154 -0.2771
11512TIP3   OH256026   2.268   2.272  15.474  0.0843 -0.9600 -0.0850
11512TIP3    H156027   2.184   2.300  15.508 -0.8213 -0.4204 -2.5307
11512TIP3    H256028   2.266   2.176  15.481 -0.4949 -0.9216  0.3650
11513TIP3   OH256029   4.683   6.682   1.388 -0.2841 -0.5388  0.8471
11513TIP3    H156030   4.777   6.671   1.374 -0.2040 -0.4446  1.3006
11513TIP3    H256031   4.677   6.752   1.453 -0.7268  1.2352 -0.9809
11514TIP3   OH256032   0.860   6.175   3.957  0.9539 -0.3611 -0.4333
11514TIP3    H156033   0.882   6.268   3.970 -1.9754  0.3552  0.1516
11514TIP3    H256034   0.907   6.151   3.877  1.5147  1.7533 -0.8162
11515TIP3   OH256035   5.498   2.349  17.282  0.3240  0.7840 -0.5491
11515TIP3    H156036   5.503   2.366  17.375  3.0231 -1.5060 -0.1170
11515TIP3    H256037   5.577   2.390  17.246  0.4786 -0.2264 -1.4116
11516TIP3   OH256038   0.215   1.150   5.075  0.8476 -0.0053 -0.0849
11516TIP3    H156039   0.184   1.239   5.089 -0.2436 -0.3601 -0.1446
11516TIP3    H256040   0.173   1.121   4.994  0.2850 -0.9502  0.5198
11517TIP3   OH256041   1.428   6.015   3.357 -0.3325  0.1945  0.4429
11517TIP3    H156042   1.473   6.062   3.427  0.3317  0.3019 -0.0470
11517TIP3    H256043   1.425   6.077   3.284 -1.2458  0.1767  0.4493
11518TIP3   OH256044   5.015   2.116  16.116 -0.2597  0.2208  0.1166
11518TIP3    H156045   5.009   2.074  16.031  0.1117  1.6530 -0.6518
11518TIP3    H256046   4.952   2.069  16.171 -0.7980 -0.4674 -1.0588
11519TIP3   OH256047   6.179   4.978  15.665 -0.1644 -0.4395  0.2210
11519TIP3    H156048   6.175   4.913  15.595 -0.1056 -2.2657  1.8454
11519TIP3    H256049   6.088   5.008  15.675 -0.2786 -0.6359 -0.2030
11520TIP3   OH256050   0.750   0.105   5.189  0.3808 -0.1402 -0.4240
11520TIP3    H156051   0.720   0.035   5.131 -0.2455 -0.9650  0.8374
11520TIP3    H256052   0.797   0.059   5.259  0.5786  0.7734  0.0549
11521TIP3   OH256053   1.356   3.400  11.368  0.0588  0.7018 -0.4144
11521TIP3    H156054   1.308   3.342  11.428  0.2760  1.0376  0.0924
11521TIP3    H256055   1.302   3.402  11.289 -0.4948  0.6521 -0.0472
11522TIP3   OH256056   0.487   2.701   2.032 -0.2141 -0.0641 -0.1953
11522TIP3    H156057   0.437   2.664   1.959 -0.3771  0.6559 -0.4573
11522TIP3    H256058   0.575   2.713   1.996 -0.1958 -0.0647 -0.1508
11523TIP3   OH256059   3.288   4.632  12.600  0.7461  0.0510 -0.1293
11523TIP3    H156060   3.241   4.593  12.527  1.0834  1.0896 -0.9109
11523TIP3    H256061   3.233   4.705  12.628 -0.0645 -1.1297  1.5673
11524TIP3   OH256062   6.670   0.330  11.515 -0.0853 -0.3098 -0.3080
11524TIP3    H156063   6.622   0.339  11.433 -2.3773  0.3784  1.0250
11524TIP3    H256064   6.652   0.240  11.543 -0.3159 -0.1613  0.0243
11525TIP3   OH256065   4.962   6.658  12.761 -0.3241  1.0172  0.3736
11525TIP3    H156066   5.012   6.580  12.738 -1.0357  1.0721 -1.5181
11525TIP3    H256067   4.900   6.628  12.827 -0.1067  0.1493  0.1956
11526TIP3   OH256068   5.237   1.692   3.695 -0.0202 -0.0358  0.0500
11526TIP3    H156069   5.146   1.717   3.680  0.6089  1.0900 -2.3535
11526TIP3    H256070   5.231   1.606   3.738 -2.2084 -0.3304 -0.7058
11527TIP3   OH256071   6.457   6.367  12.175 -0.0095  0.0032  0.1315
11527TIP3    H156072   6.544   6.392  12.143  0.3828  1.6152  2.1945
11527TIP3    H256073   6.465   6.273  12.194  0.5460 -0.3805 -1.7478
11528TIP3   OH256074   1.041   5.823  16.887 -0.4710  0.8962  0.1039
11528TIP3    H156075   1.082   5.766  16.822 -0.9383 -1.1107  1.4760
11528TIP3    H256076   0.947   5.813  16.871 -0.5629  2.7646 -0.7940
11529TIP3   OH256077   0.697   4.196   1.390 -0.2086  0.6507  0.5331
11529TIP3    H156078   0.718   4.109   1.356 -0.0386 -0.1706  2.6514
11529TIP3    H256079   0.636   4.232   1.326 -1.3277 -1.5430  0.2796
11530TIP3   OH256080   1.089   0.515  13.670 -0.9934 -0.3468 -0.2334
11530TIP3    H156081   1.149   0.511  13.595 -1.1835 -0.5182 -0.3751
11530TIP3    H256082   1.126   0.584  13.725 -0.2144 -0.9750  0.0665
11531TIP3   OH256083   2.705   1.005  15.750 -0.1788  0.3445  0.4272
11531TIP3    H156084   2.793   1.037  15.767  0.4264 -0.7770 -0.4821
11531TIP3    H256085   2.699   0.923  15.799 -1.0490  0.8625  1.2214
11532TIP3   OH256086   5.051   6.408  12.641 -0.1758  0.3149 -0.1817
11532TIP3    H156087   5.025   6.315  12.642 -0.1120  0.2987 -0.0643
11532TIP3    H256088   4.989   6.449  12.580 -1.0349  0.4394  0.7594
11533TIP3   OH256089   1.007   4.482  15.856  0.5399 -1.1345 -0.2799
11533TIP3    H156090   0.995   4.573  15.830 -2.2011 -1.0532  0.8180
11533TIP3    H256091   0.979   4.480  15.948 -0.1229 -3.1659 -0.4667
11534TIP3   OH256092   4.766   3.640   2.213 -0.3609 -0.3449 -0.4045
11534TIP3    H156093   4.754   3.546   2.226 -3.2987 -0.1593 -1.2154
11534TIP3    H256094   4.727   3.681   2.290  2.0906  0.2986  0.6230
11535TIP3   OH256095   5.989   2.450  14.472  0.2262  0.5191  0.1567
11535TIP3    H156096   5.976   2.545  14.466  0.5947  0.5712  0.1548
11535TIP3    H256097   6.004   2.422  14.381  3.0924  0.9062  0.4229
11536TIP3   OH256098   0.469   5.147  16.673  0.5527 -0.2802  0.2156
11536TIP3    H156099   0.517   5.132  16.754  0.4721  0.8483  0.4918
11536TIP3    H256100   0.530   5.120  16.604  0.8646 -0.6517  0.6282
11537TIP3   OH256101   5.210   2.600   4.882 -0.2342 -0.2111  0.2361
11537TIP3    H156102   5.234   2.693   4.887  0.8262 -0.5277  1.7187
11537TIP3    H256103   5.193   2.584   4.789 -0.0091  1.3535 -0.1015
11538TIP3   OH256104   5.029   3.501   0.745  0.5436  0.7020 -0.1404
11538TIP3    H156105   5.069   3.490   0.831  0.9573  0.6267 -0.3407
11538TIP3    H256106   4.935   3.485   0.760  0.7549 -0.4474  0.0803
11539TIP3   OH256107   5.092   0.356   3.925  0.7190 -0.5865  0.3691
11539TIP3    H156108   5.103   0.361   3.830 -1.5711 -1.2483  0.0115
11539TIP3    H256109   5.078   0.263   3.943 -0.5894 -0.2717  1.1041
11540TIP3   OH256110   2.566   2.302   1.830 -0.1710  0.0137 -0.6629
11540TIP3    H156111   2.621   2.258   1.765 -1.0573 -0.7084 -0.9565
11540TIP3    H256112   2.591   2.263   1.913  0.5561  0.5189 -0.6323
11541TIP3   OH256113   1.671   5.954  15.589  0.1200  0.6286 -0.0046
11541TIP3    H156114   1.630   6.018  15.531  1.4637  3.3760  1.8621
11541TIP3    H256115   1.714   5.892  15.530 -0.2748  2.1291 -1.9509
11542TIP3   OH256116   4.347   2.743   1.369  0.5395 -0.3310  0.3845
11542TIP3    H156117   4.343   2.653   1.337 -1.2732 -0.9376  2.0972
11542TIP3    H256118   4.438   2.755   1.396  0.6866 -1.8860  0.6821
11543TIP3   OH256119   2.195   6.235   1.278  0.4034  0.2113  0.9609
11543TIP3    H156120   2.181   6.254   1.371 -1.4513 -0.6112  0.9011
11543TIP3    H256121   2.290   6.227   1.269  0.5450 -1.3913  3.1391
11544TIP3   OH256122   1.875   5.446   3.846 -0.3418  0.5627 -0.5301
11544TIP3    H156123   1.850   5.525   3.798  0.6229  0.5675 -1.0454
11544TIP3    H256124   1.890   5.381   3.778 -0.8382  0.0146 -0.1207
11545TIP3   OH256125   3.287   0.748   2.450 -0.1833 -0.2500  0.2500
11545TIP3    H156126   3.337   0.795   2.517 -1.0429 -1.0590  1.5064
11545TIP3    H256127   3.354   0.703   2.397  0.5195  0.5916  0.3953
11546TIP3   OH256128   1.250   2.214  14.202  0.0545  0.1321 -0.1457
11546TIP3    H156129   1.159   2.192  14.183 -0.5340  0.4526  2.0916
11546TIP3    H256130   1.272   2.162  14.279  1.0040  1.7959  0.7661
11547TIP3   OH256131   1.519   2.589  16.337 -0.0175  0.3568 -0.4960
11547TIP3    H156132   1.594   2.545  16.377  0.0301  0.4155 -0.5219
11547TIP3    H256133   1.503   2.664  16.394  0.5355  0.8830 -1.0204
11548TIP3   OH256134   5.533   5.512  13.042  0.2261  0.0771 -0.5770
11548TIP3    H156135   5.588   5.497  13.119  2.3334  0.4096 -1.9343
11548TIP3    H256136   5.468   5.575  13.071 -0.8813 -1.9208  1.7015
11549TIP3   OH256137   6.770   1.503  15.741  0.0456 -0.1804  0.2131
11549TIP3    H156138   6.697   1.484  15.800  1.0548 -2.3752  0.8573
11549TIP3    H256139   6.731   1.505  15.654 -1.1191  0.9793  0.7262
11550TIP3   OH256140   3.501   3.263   0.070 -0.5133 -0.1554  0.0369
11550TIP3    H156141   3.457   3.200   0.127  0.2191 -0.7447 -0.0420
11550TIP3    H256142   3.594   3.252   0.090 -0.3686  0.8230 -0.0566
11551TIP3   OH256143   6.517   6.240   2.119 -0.1545 -0.1902 -0.2204
11551TIP3    H156144   6.446   6.288   2.160 -0.3915 -0.6339 -0.1044
11551TIP3    H256145   6.572   6.210   2.192 -1.1182 -1.8430 -0.1141
11552TIP3   OH256146   2.941   4.644  17.146  0.1332 -0.2459  0.0361
11552TIP3    H156147   3.035   4.630  17.164  1.0346  1.9427 -2.4132
11552TIP3    H256148   2.914   4.563  17.102  0.8561 -0.8874  0.7242
11553TIP3   OH256149   6.653   4.033  15.919  0.0802 -0.0253  0.0541
11553TIP3    H156150   6.720   4.094  15.888  0.1779  0.4334  1.1347
11553TIP3    H256151   6.674   4.018  16.011  0.6895 -2.5399 -0.4340
11554TIP3   OH256152   3.224   0.102  11.985  0.3582 -0.1678 -0.1893
11554TIP3    H156153   3.215   0.192  12.014 -0.0845 -0.2584 -0.0519
11554TIP3    H256154   3.247   0.109  11.892  2.3457  0.1350  0.2754
11555TIP3   OH256155   6.359   5.508  11.213 -0.3487 -0.2835 -0.3699
11555TIP3    H156156   6.408   5.538  11.289 -1.8007 -1.8349  1.3001
11555TIP3    H256157   6.421   5.455  11.164  0.3333 -0.1955  0.3741
11556TIP3   OH256158   3.527   0.480   4.283  0.1824  0.1966  0.6092
11556TIP3    H156159   3.457   0.425   4.249 -1.2163  1.0949  1.9239
11556TIP3    H256160   3.572   0.514   4.206  0.8952 -2.4737 -0.2602
11557TIP3   OH256161   1.873   5.051   5.441 -0.4796 -0.1837 -0.0469
11557TIP3    H156162   1.807   5.032   5.507 -0.3833 -0.9194 -0.1531
11557TIP3    H256163   1.894   5.144   5.454 -1.6590  0.1106 -0.1388
11558TIP3   OH256164   3.839   5.638   0.711  0.6884 -0.2590 -0.4848
11558TIP3    H156165   3.819   5.678   0.796 -0.2574  0.9248 -1.2343
11558TIP3    H256166   3.840   5.711   0.649  2.7283 -0.9101 -1.3100
11559TIP3   OH256167   4.151   3.057   4.526 -0.5633  0.4767 -0.4669
11559TIP3    H156168   4.219   3.012   4.575  0.8912  0.9415 -1.9485
11559TIP3    H256169   4.198   3.124   4.476 -2.0115  0.3137 -2.1346
11560TIP3   OH256170   6.017   6.086   3.810  0.3130  0.5787 -0.1060
11560TIP3    H156171   6.110   6.068   3.801  0.0147 -0.0595 -2.3272
11560TIP3    H256172   6.007   6.178   3.788  0.2728  0.3283 -1.1695
11561TIP3   OH256173   3.247   0.136  11.705  0.3486 -0.0980  0.2005
11561TIP3    H156174   3.310   0.102  11.642 -0.7841 -0.3576 -0.8182
11561TIP3    H256175   3.162   0.115  11.668 -0.3527  0.1414  1.6113
11562TIP3   OH256176   0.624   1.638  12.710  0.3917  0.0493 -0.1079
11562TIP3    H156177   0.638   1.543  12.710 -0.8682 -0.2545  2.9827
11562TIP3    H256178   0.693   1.672  12.652  1.4173 -2.6615 -0.6481
11563TIP3   OH256179   1.928   0.947  14.284  0.1614 -0.5567  0.0967
11563TIP3    H156180   1.852   0.892  14.268 -0.0887  0.0310 -0.8358
11563TIP3    H256181   1.899   1.011  14.350  0.6893 -1.9760  1.7772
11564TIP3   OH256182   6.690   1.055  17.481  0.1583 -0.6438  0.2191
11564TIP3    H156183   6.595   1.049  17.488 -0.0179 -0.5338 -1.5750
11564TIP3    H256184   6.706   1.148  17.465  0.3852 -0.9067 -1.2459
11565TIP3   OH256185   4.580   6.072   0.824 -0.3614 -0.0251 -0.3170
11565TIP3    H156186   4.530   5.994   0.847 -0.3823  0.3180  0.8688
11565TIP3    H256187   4.654   6.072   0.885 -0.9981  1.5048  0.5159
11566TIP3   OH256188   1.483   2.676   2.122  0.1820  0.0938  0.4130
11566TIP3    H156189   1.445   2.740   2.181 -1.6798 -1.4483  0.9927
11566TIP3    H256190   1.537   2.727   2.062 -0.9180  2.1417  1.0808
11567TIP3   OH256191   2.224   4.812  11.130 -0.2013  0.0717  0.0739
11567TIP3    H156192   2.288   4.756  11.175 -0.3666  1.6349  2.4577
11567TIP3    H256193   2.277   4.883  11.093 -0.3812  0.6179  0.8358
11568TIP3   OH256194   0.039   6.181   3.027  0.3589 -0.1514 -0.3955
11568TIP3    H156195  -0.028   6.135   2.976 -2.6139  2.7117  0.5458
11568TIP3    H256196   0.037   6.136   3.112 -0.6290  0.0705 -0.2837
11569TIP3   OH256197   0.250   2.331   6.373 -0.4530  0.1722 -0.4573
11569TIP3    H156198   0.195   2.332   6.451 -1.6420 -1.3420 -1.2195
11569TIP3    H256199   0.209   2.266   6.316 -0.6057  2.3944 -3.0515
11570TIP3   OH256200   4.923   1.080  11.755 -0.0758 -0.3590 -0.1985
11570TIP3    H156201   4.964   1.024  11.821  0.2696  0.8696  0.6688
11570TIP3    H256202   4.848   1.119  11.800 -1.4434 -1.5521 -1.3653
11571TIP3   OH256203   3.187   6.055  16.697 -0.0645  0.2091  0.1607
11571TIP3    H156204   3.115   5.993  16.698  1.6385 -1.8788  0.4990
11571TIP3    H256205   3.211   6.066  16.789  1.2688 -0.6921 -0.0483
11572TIP3   OH256206   0.762   4.404  14.716 -0.9408 -0.0794 -0.2770
11572TIP3    H156207   0.741   4.475  14.656 -1.5028 -1.0250 -1.2262
11572TIP3    H256208   0.746   4.441  14.803 -1.5595  0.8401 -0.7649
11573TIP3   OH256209   5.137   6.124   5.330  0.1104 -0.9184 -0.2351
11573TIP3    H156210   5.165   6.209   5.298 -1.3355  0.2265  1.3454
11573TIP3    H256211   5.186   6.112   5.412 -1.5616 -0.3562  0.8969
11574TIP3   OH256212   1.948   4.617   5.061 -0.4054  0.2517  0.2936
11574TIP3    H156213   2.042   4.611   5.047 -0.1016  1.7849  1.3530
11574TIP3    H256214   1.912   4.638   4.974  0.4669  1.4901  0.1941
11575TIP3   OH256215   2.494   2.139  12.599 -0.2202 -0.1218 -0.8143
11575TIP3    H156216   2.570   2.113  12.547  1.4800 -0.1287  1.4934
11575TIP3    H256217   2.440   2.061  12.602  1.6700 -1.4763  0.6984
11576TIP3   OH256218   2.279   3.497   2.612  0.4624 -0.3817  0.1952
11576TIP3    H156219   2.298   3.579   2.567  1.9675 -0.7946 -0.0042
11576TIP3    H256220   2.340   3.434   2.573 -1.8006 -2.0238 -0.8646
11577TIP3   OH256221   1.632   2.904   2.741 -0.1486  0.2459 -0.3630
11577TIP3    H156222   1.723   2.917   2.764 -0.2613 -1.7153  1.5208
11577TIP3    H256223   1.584   2.968   2.793  0.0424  0.1184 -0.0287
11578TIP3   OH256224   4.884   4.917  15.002  0.7305  0.1864 -0.0475
11578TIP3    H156225   4.944   4.842  14.997 -0.8658 -1.1496 -0.0145
11578TIP3    H256226   4.801   4.879  15.028 -0.0908  2.0305  0.1481
11579TIP3   OH256227   0.047   4.420   5.358 -0.1705  0.2275 -0.0203
11579TIP3    H156228   0.011   4.361   5.291  0.7579 -0.5329  0.1438
11579TIP3    H256229   0.107   4.477   5.310  0.2178 -0.0790  0.0952
11580TIP3   OH256230   5.683   0.097   2.612 -0.4258 -0.1288 -0.2940
11580TIP3    H156231   5.711   0.098   2.520 -0.0011  1.7576 -0.1956
11580TIP3    H256232   5.716   0.015   2.647  1.7575  0.3158 -1.1665
11581TIP3   OH256233   1.856   5.702  10.869  0.0329 -0.2573  0.0040
11581TIP3    H156234   1.931   5.710  10.927 -0.9227  0.1555  1.2343
11581TIP3    H256235   1.893   5.681  10.783  1.7105  2.3356 -0.0029
11582TIP3   OH256236   3.111   2.733   2.904 -0.2414 -0.3870  0.0052
11582TIP3    H156237   3.059   2.719   2.983  0.3019  0.6411  0.5603
11582TIP3    H256238   3.057   2.697   2.833 -1.2862 -0.1923  0.6833
11583TIP3   OH256239   1.303   4.073  15.724  0.4316 -0.1704  0.4004
11583TIP3    H156240   1.242   4.010  15.686  0.2834 -0.9888  1.9376
11583TIP3    H256241   1.247   4.144  15.756  0.7080  1.9110 -3.1783
11584TIP3   OH256242   4.397   2.646   0.856  0.5359 -0.1431 -0.2258
11584TIP3    H156243   4.399   2.553   0.836 -0.0903 -0.5134  1.2310
11584TIP3    H256244   4.483   2.679   0.832  1.5041 -1.5472  1.1624
11585TIP3   OH256245   3.688   4.269   1.101 -0.4569  0.3422 -0.4610
11585TIP3    H156246   3.615   4.291   1.042 -0.9830 -1.9196 -0.7489
11585TIP3    H256247   3.766   4.296   1.053 -0.9790  0.5166 -1.2380
11586TIP3   OH256248   5.880   4.526   3.935  0.0916 -0.3439  0.3269
11586TIP3    H156249   5.966   4.487   3.949  0.1509  0.0908  1.2436
11586TIP3    H256250   5.828   4.455   3.897  0.9462 -0.5013 -0.5865
11587TIP3   OH256251   3.947   2.950  12.307 -0.5950  0.1244 -0.2456
11587TIP3    H156252   3.947   2.860  12.337 -0.4741  0.1896 -0.0511
11587TIP3    H256253   4.036   2.981  12.323 -1.0811  0.8170  1.2871
11588TIP3   OH256254   5.121   3.874  16.592  0.3714  0.1356  0.1644
11588TIP3    H156255   5.079   3.843  16.672  1.1191 -0.8935  0.1842
11588TIP3    H256256   5.214   3.853  16.604  0.5985  0.5987 -0.6868
11589TIP3   OH256257   2.385   0.655  16.327 -0.0234 -0.5622  0.6963
11589TIP3    H156258   2.458   0.614  16.280  0.0310  2.0854 -1.7639
11589TIP3    H256259   2.307   0.619  16.284 -0.0728 -0.8002  0.9861
11590TIP3   OH256260   1.966   4.914  14.909  0.1875 -0.3131  0.1746
11590TIP3    H156261   2.051   4.887  14.944 -0.6249 -2.6105  0.5176
11590TIP3    H256262   1.951   5.001  14.947  3.5295  1.4320 -1.9913
11591TIP3   OH256263   0.402   3.129  10.655 -0.5436  0.0621  0.8001
11591TIP3    H156264   0.360   3.080  10.727  0.1432 -2.1531 -0.2225
11591TIP3    H256265   0.468   3.183  10.699 -1.4248  0.2166  2.0001
11592TIP3   OH256266   5.525   3.741  16.258 -0.3538 -0.1480  0.2424
11592TIP3    H156267   5.606   3.701  16.227 -0.3888 -0.4526  0.5357
11592TIP3    H256268   5.538   3.752  16.352 -0.3264  0.5817  0.1538
11593TIP3   OH256269   1.571   4.098  15.785  0.5122  0.3712  0.0909
11593TIP3    H156270   1.485   4.082  15.748  0.7246  1.1086 -0.7652
11593TIP3    H256271   1.628   4.110  15.709  1.2647  0.4033  0.6478
11594TIP3   OH256272   4.044   0.481   6.331 -0.2499 -0.0879 -0.2326
11594TIP3    H156273   3.986   0.526   6.392 -2.6547 -0.4549 -2.1410
11594TIP3    H256274   4.088   0.415   6.385 -2.6990 -0.7685  1.0515
11595TIP3   OH256275   5.885   3.009  15.644  0.1841 -0.3508 -0.1145
11595TIP3    H156276   5.900   2.915  15.645 -2.9757 -1.0258 -2.1909
11595TIP3    H256277   5.815   3.022  15.708 -0.6777  0.2829 -1.1691
11596TIP3   OH256278   2.140   2.768  13.843  0.1941 -0.0330  0.6636
11596TIP3    H156279   2.065   2.741  13.896  0.2504 -1.0200  0.2629
11596TIP3    H256280   2.131   2.863  13.835 -1.8595 -0.2994 -0.6500
11597TIP3   OH256281   1.410   3.880  11.273  0.1028 -0.0137 -0.1778
11597TIP3    H156282   1.479   3.840  11.326 -1.7855 -2.0346  0.9163
11597TIP3    H256283   1.398   3.968  11.310  1.7105  0.1932 -0.0978
11598TIP3   OH256284   6.381   4.420   0.221 -0.7146  0.1033 -0.3951
11598TIP3    H156285   6.311   4.359   0.245 -0.3402  0.1603  0.8921
11598TIP3    H256286   6.461   4.378   0.251 -0.3419  0.7105 -0.5314
11599TIP3   OH256287   0.524   2.599   0.549 -0.1340  0.6497  0.3581
11599TIP3    H156288   0.505   2.636   0.635 -0.0427  2.0958 -0.2153
11599TIP3    H256289   0.574   2.667   0.504 -2.4615  1.0768 -1.7938
11600TIP3   OH256290   6.659   1.469  13.999  0.1920 -0.5038 -0.0885
11600TIP3    H156291   6.640   1.466  13.905  0.9737 -1.0157 -0.2346
11600TIP3    H256292   6.603   1.401  14.036 -0.1008 -0.3164 -0.1762
11601TIP3   OH256293   2.023   4.061   4.928  0.0506 -0.9177 -0.0594
11601TIP3    H156294   2.007   4.013   5.009 -2.0129  0.1855  0.2757
11601TIP3    H256295   1.996   4.001   4.859 -0.3373 -1.0783  0.2249
11602TIP3   OH256296   4.292   3.766   6.736 -0.5091  0.3006 -0.2025
11602TIP3    H156297   4.320   3.748   6.646  1.0695 -1.3681  0.5542
11602TIP3    H256298   4.198   3.746   6.737 -0.5288  0.2907 -1.4503
11603TIP3   OH256299   6.730   1.112  10.465  0.1848 -0.0513  0.2106
11603TIP3    H156300   6.771   1.172  10.528 -1.3324  0.2932  0.9297
11603TIP3    H256301   6.745   1.025  10.502 -0.8242  0.1556  1.1678
11604TIP3   OH256302   3.747   2.149  12.052 -0.2144  0.6128  0.1060
11604TIP3    H156303   3.753   2.240  12.082  0.3655  0.9716 -1.0244
11604TIP3    H256304   3.660   2.120  12.080 -0.1237  1.2687  1.1188
11605TIP3   OH256305   2.164   3.638   4.772  0.3204  0.3277 -0.0849
11605TIP3    H156306   2.219   3.607   4.845  0.3789  0.2647 -0.1550
11605TIP3    H256307   2.089   3.680   4.815 -1.0100 -2.0217  0.0828
11606TIP3   OH256308   3.680   0.227   5.366  0.3431 -0.3860  0.3379
11606TIP3    H156309   3.761   0.205   5.320  0.2973  0.1239  0.0033
11606TIP3    H256310   3.632   0.283   5.304 -0.2366 -0.6397  0.5583
11607TIP3   OH256311   1.968   5.123  15.118  0.7723  0.1933 -0.5013
11607TIP3    H156312   2.024   5.117  15.196  0.2138 -0.2040 -0.1183
11607TIP3    H256313   1.928   5.210  15.124  1.4026  0.5093 -0.8168
11608TIP3   OH256314   2.854   0.668  11.789  0.0090 -0.2933 -0.5664
11608TIP3    H156315   2.847   0.585  11.743 -1.7396 -0.7697  0.4720
11608TIP3    H256316   2.941   0.702  11.765 -0.1463 -1.3116 -2.7852
11609TIP3   OH256317   4.482   0.297   2.966  0.8488  0.1061  0.3008
11609TIP3    H156318   4.409   0.319   2.908  1.6023  1.7013 -0.1106
11609TIP3    H256319   4.538   0.375   2.963  2.8603 -1.2913  0.1556
11610TIP3   OH256320   3.975   5.451  14.835  0.2957  0.2372  0.1958
11610TIP3    H156321   3.915   5.523  14.813 -4.2959 -2.8826  1.0411
11610TIP3    H256322   4.019   5.481  14.915 -0.7272  2.4685  0.0065
11611TIP3   OH256323   3.857   3.754   3.199  0.8827  0.3110 -0.2079
11611TIP3    H156324   3.804   3.757   3.120  0.1827 -0.9428  0.1772
11611TIP3    H256325   3.947   3.753   3.168  0.6121 -0.3119 -1.0096
11612TIP3   OH256326   3.810   5.937   2.079  0.1290  0.2557 -0.3129
11612TIP3    H156327   3.770   5.993   2.013  1.4372  0.2127 -1.1773
11612TIP3    H256328   3.849   5.999   2.142 -2.3157  0.3157  1.2491
11613TIP3   OH256329   1.833   1.079  15.122 -0.0826  0.3400  0.0875
11613TIP3    H156330   1.819   1.164  15.080  1.2822  0.2438 -0.6125
11613TIP3    H256331   1.822   1.015  15.052 -2.6905 -0.2520  0.9160
11614TIP3   OH256332   0.424   2.827   1.404  0.0261 -0.1483 -0.5070
11614TIP3    H156333   0.500   2.885   1.401 -0.2634  0.1797 -2.0789
11614TIP3    H256334   0.362   2.871   1.462  0.2402  0.5737 -0.8194
11615TIP3   OH256335   6.599   3.584   1.412  0.3989 -0.2365  0.5563
11615TIP3    H156336   6.520   3.555   1.457 -1.0855  0.4107 -1.4861
11615TIP3    H256337   6.662   3.600   1.482 -0.9228 -1.7260  2.1867
11616TIP3   OH256338   6.436   5.841  12.840 -0.4349 -0.4804  0.1161
11616TIP3    H156339   6.476   5.927  12.851  0.8840 -0.9288 -0.9257
11616TIP3    H256340   6.388   5.846  12.758  0.5181 -1.0220 -0.5009
11617TIP3   OH256341   5.402   6.193   2.470  0.4846  0.0511  0.8303
11617TIP3    H156342   5.425   6.105   2.499 -0.6194 -0.6474 -0.3039
11617TIP3    H256343   5.422   6.194   2.377 -2.3215 -0.0908  0.1174
11618TIP3   OH256344   2.425   4.953  15.018 -0.1223 -0.0651 -0.0035
11618TIP3    H156345   2.464   4.868  14.997 -2.6107 -1.1067 -0.6870
11618TIP3    H256346   2.410   4.994  14.932  0.4397  0.8032  0.2968
11619TIP3   OH256347   6.712   3.933   5.115 -0.2912  0.1319 -0.0612
11619TIP3    H156348   6.759   3.854   5.085 -0.4044  0.5068 -1.3016
11619TIP3    H256349   6.684   3.912   5.204  1.0593 -0.6190  0.2198
11620TIP3   OH256350   3.220   2.813   5.612  0.0506 -0.1904  0.7674
11620TIP3    H156351   3.189   2.867   5.684 -0.1415  1.2391 -0.3392
11620TIP3    H256352   3.284   2.868   5.567  0.5573 -1.2517  0.1415
11621TIP3   OH256353   3.777   6.652  13.816  0.2264 -0.5970 -0.9589
11621TIP3    H156354   3.718   6.703  13.760 -2.3499 -2.4267 -0.1153
11621TIP3    H256355   3.861   6.652  13.769 -0.6463  1.3918 -2.6834
11622TIP3   OH256356   6.485   6.726   1.833 -0.4119 -0.4948  1.0209
11622TIP3    H156357   6.516   6.785   1.902  0.5597  1.8782 -1.2750
11622TIP3    H256358   6.425   6.779   1.782 -0.2248 -1.7890 -0.6102
11623TIP3   OH256359   4.454   2.527   3.942  0.3817  0.2836  0.5796
11623TIP3    H156360   4.437   2.613   3.905 -0.9213 -0.1785  0.0581
11623TIP3    H256361   4.458   2.541   4.036 -1.3541  0.6993  0.6166
11624TIP3   OH256362   0.021   5.586   3.996 -0.3919 -0.5123  0.2369
11624TIP3    H156363   0.006   5.603   4.089  1.5156 -1.6745  0.8113
11624TIP3    H256364   0.077   5.658   3.967 -3.2172  1.4238 -0.8060
11625TIP3   OH256365   5.955   3.343  12.752 -0.7477  0.2093  0.3901
11625TIP3    H156366   5.914   3.429  12.758 -0.2363  0.5422 -0.7252
11625TIP3    H256367   5.891   3.290  12.704  0.1259  0.7716 -1.4927
11626TIP3   OH256368   6.667   0.828   4.376 -0.0659 -0.7559 -0.1129
11626TIP3    H156369   6.631   0.814   4.289 -0.1875  2.3138 -0.6560
11626TIP3    H256370   6.594   0.861   4.428  0.4402 -0.8188  0.6581
11627TIP3   OH256371   0.952   4.053   1.063 -0.1210 -0.4965 -0.5269
11627TIP3    H156372   0.860   4.073   1.049 -0.1016  0.1921  0.2033
11627TIP3    H256373   0.961   4.049   1.159  0.4135 -1.5121 -0.6082
11628TIP3   OH256374   3.217   1.950   3.114 -0.1335  0.4796  0.5372
11628TIP3    H156375   3.310   1.965   3.125 -0.2241  1.6050 -0.0767
11628TIP3    H256376   3.190   1.906   3.195  1.1369 -0.9538  0.2097
11629TIP3   OH256377   6.036   4.011   3.245 -0.3471 -0.4629 -0.5615
11629TIP3    H156378   5.973   4.010   3.317 -1.0524  2.2882 -1.0370
11629TIP3    H256379   6.107   4.068   3.275  0.3715 -0.9531 -1.2735
11630TIP3   OH256380   5.580   6.722   2.291 -0.0897 -0.8227 -0.0158
11630TIP3    H156381   5.503   6.726   2.348  0.2081  1.5613  0.3283
11630TIP3    H256382   5.554   6.663   2.220 -2.1952 -0.1879  0.1523
11631TIP3   OH256383   5.028   5.429  17.162 -0.0415 -0.1556 -0.0410
11631TIP3    H156384   5.010   5.480  17.241  1.7358 -0.0885  0.3537
11631TIP3    H256385   4.961   5.457  17.100 -0.1077  1.4420  0.7059
11632TIP3   OH256386   5.751   1.739  11.324  0.4121 -0.3927 -0.1644
11632TIP3    H156387   5.663   1.722  11.358  0.7287  1.0736  1.5288
11632TIP3    H256388   5.737   1.764  11.233 -1.3121  2.5106  0.7460
11633TIP3   OH256389   1.394   1.737   1.961  0.4425  0.0961 -0.1923
11633TIP3    H156390   1.330   1.745   1.890 -0.2704  0.7385  0.5182
11633TIP3    H256391   1.401   1.643   1.976  0.6413 -0.0570 -1.1369
11634TIP3   OH256392   0.023   4.833  11.441 -0.1293  0.3973 -0.6896
11634TIP3    H156393   0.002   4.806  11.351 -1.5213  2.0627 -0.9349
11634TIP3    H256394  -0.063   4.842  11.483  0.4472  0.8742  0.4092
11635TIP3   OH256395   3.372   5.729  16.694  0.2183 -0.5280 -0.2303
11635TIP3    H156396   3.408   5.817  16.689  1.4214 -0.7016  3.1495
11635TIP3    H256397   3.291   5.738  16.744 -0.4655 -1.1937 -1.1686
11636TIP3   OH256398   5.427   5.389   4.337 -0.1342  0.2558 -0.0499
11636TIP3    H156399   5.388   5.318   4.388 -0.1728  0.1416 -0.2394
11636TIP3    H256400   5.373   5.394   4.258 -0.7559  1.1536  0.4077
11637TIP3   OH256401   5.620   0.821  12.624 -0.2711  0.3731 -0.8702
11637TIP3    H156402   5.650   0.872  12.700 -0.4234  0.0599 -0.5973
11637TIP3    H256403   5.526   0.834  12.622 -0.1165  1.4384 -1.7922
11638TIP3   OH256404   3.554   4.886  14.055  0.2315  0.1038 -0.5239
11638TIP3    H156405   3.564   4.821  14.125  1.8650  0.5725 -0.2857
11638TIP3    H256406   3.465   4.872  14.022 -0.3475 -0.5680  1.2023
11639TIP3   OH256407   0.977   2.210  16.890 -0.2833  0.6403  0.2757
11639TIP3    H156408   0.961   2.179  16.801 -1.2324  1.0815  0.2826
11639TIP3    H256409   0.945   2.300  16.890  1.4203  1.2796  0.5569
11640TIP3   OH256410   3.363   2.861  16.063  0.7861  0.3972  0.5029
11640TIP3    H156411   3.337   2.952  16.074 -1.6099 -0.0825 -0.6428
11640TIP3    H256412   3.413   2.860  15.981 -1.8866  0.3061 -1.2657
11641TIP3   OH256413   1.038   5.195  12.646  0.0425  0.5119  0.9500
11641TIP3    H156414   1.025   5.101  12.661 -1.9493 -0.1098 -3.1438
11641TIP3    H256415   0.952   5.234  12.658  0.7151  1.7680  1.9361
11642TIP3   OH256416   0.389   1.529  15.309  0.3352 -0.2757 -0.2600
11642TIP3    H156417   0.326   1.507  15.377 -1.0161  0.1851 -1.3258
11642TIP3    H256418   0.343   1.513  15.227  1.3031  0.8653 -1.0715
11643TIP3   OH256419   5.449   0.418   0.434  0.0053  0.1522  0.5584
11643TIP3    H156420   5.536   0.437   0.468 -0.0862  1.0555  0.3154
11643TIP3    H256421   5.461   0.338   0.383  0.7928  0.5057  0.1621
11644TIP3   OH256422   0.783   5.725  14.051  0.0270  0.3890 -0.1374
11644TIP3    H156423   0.827   5.681  14.124  0.5378  0.3328 -0.4804
11644TIP3    H256424   0.822   5.812  14.047  0.8424 -0.0093 -1.0883
11645TIP3   OH256425   6.247   2.440  10.648 -0.2915 -0.3093 -0.1483
11645TIP3    H156426   6.308   2.505  10.683  0.4514 -1.0459 -0.0557
11645TIP3    H256427   6.178   2.434  10.715 -0.7225  0.8659 -0.4691
11646TIP3   OH256428   2.947   1.633  16.709 -0.4181 -0.4982 -0.1106
11646TIP3    H156429   2.878   1.686  16.670 -0.9706 -1.1667 -0.0554
11646TIP3    H256430   2.961   1.561  16.648  1.0509  0.2482 -0.6863
11647TIP3   OH256431   5.826   2.701   0.684  0.2636 -1.1630  0.2881
11647TIP3    H156432   5.739   2.741   0.691  0.9898  0.6742 -0.4018
11647TIP3    H256433   5.886   2.767   0.720  1.3560 -2.5891  1.2150
11648TIP3   OH256434   4.302   2.141   5.897 -0.3307  0.4711  0.0651
11648TIP3    H156435   4.315   2.155   5.803 -0.5325  3.1668  0.3632
11648TIP3    H256436   4.307   2.046   5.908  1.8232  0.2002 -2.3378
11649TIP3   OH256437   5.305   0.049   5.281 -0.3338  0.0270  0.0729
11649TIP3    H156438   5.332   0.012   5.197 -0.9550  0.6681 -0.4129
11649TIP3    H256439   5.220   0.088   5.264  0.5037  2.1204  0.4333
11650TIP3   OH256440   3.386   5.612  14.465  0.7217 -0.0230 -0.6272
11650TIP3    H156441   3.371   5.611  14.371  0.9371  0.3040 -0.6667
11650TIP3    H256442   3.301   5.633  14.503  0.8821  0.9783 -0.8051
11651TIP3   OH256443   6.591   3.913   2.176 -0.0795 -0.2085  0.1499
11651TIP3    H156444   6.524   3.964   2.222 -0.9179 -0.0032 -1.2480
11651TIP3    H256445   6.626   3.973   2.110 -2.3765 -1.8455 -2.7899
11652TIP3   OH256446   0.204   5.805   3.865 -0.0963  0.7257  0.1123
11652TIP3    H156447   0.230   5.850   3.946 -0.7407  0.7497  0.3074
11652TIP3    H256448   0.277   5.745   3.847  0.8934  2.0019 -0.2817
11653TIP3   OH256449   6.662   3.701   0.378 -0.2372  0.4110  0.2414
11653TIP3    H156450   6.639   3.625   0.432 -2.5555  1.5236  0.9542
11653TIP3    H256451   6.666   3.666   0.289  1.6129 -1.0576  0.8419
11654TIP3   OH256452   2.305   1.794   5.425 -0.7319 -0.2260  0.4043
11654TIP3    H156453   2.373   1.734   5.394 -1.9743 -1.0904 -0.7511
11654TIP3    H256454   2.349   1.879   5.428  0.4278 -0.7739 -0.2403
11655TIP3   OH256455   5.157   2.038  11.650  0.1430 -0.3098  0.4173
11655TIP3    H156456   5.121   1.954  11.622  1.9669 -1.2696  0.8052
11655TIP3    H256457   5.194   2.076  11.570  0.7150 -0.6309  0.5209
11656TIP3   OH256458   1.591   1.227   0.835 -0.3742 -0.0248  0.9263
11656TIP3    H156459   1.679   1.265   0.831 -0.3879  0.0927  1.6176
11656TIP3    H256460   1.605   1.135   0.855 -0.3415 -0.4154 -0.7408
11657TIP3   OH256461   2.796   3.000   3.447 -0.0280 -0.0742  0.0457
11657TIP3    H156462   2.768   2.909   3.436  1.9089 -0.6866 -0.3735
11657TIP3    H256463   2.873   2.994   3.505  0.0633  1.3057  0.0972
11658TIP3   OH256464   2.018   1.506   2.055 -0.0071  0.1968  0.0710
11658TIP3    H156465   1.975   1.570   1.998 -0.7775  0.2862  0.7341
11658TIP3    H256466   1.995   1.421   2.017 -1.2064  0.2234  0.6956
11659TIP3   OH256467   2.222   3.230  15.575  0.4425 -0.1887 -0.3804
11659TIP3    H156468   2.261   3.180  15.504  1.0955  0.6474 -0.6353
11659TIP3    H256469   2.214   3.319  15.540 -3.4076 -0.5936 -1.0152
11660TIP3   OH256470   5.999   0.507   5.855  0.1440 -0.2239  0.1649
11660TIP3    H156471   6.082   0.532   5.814 -0.0998  0.1416 -0.1152
11660TIP3    H256472   5.979   0.579   5.915 -1.1246  0.8399 -1.4651
11661TIP3   OH256473   0.217   4.744   5.797 -0.6394  0.1089 -0.7168
11661TIP3    H156474   0.186   4.833   5.779  0.0627  0.0392 -2.4796
11661TIP3    H256475   0.138   4.696   5.821 -1.1245  1.0679 -0.3297
11662TIP3   OH256476   0.043   2.019  11.551  0.7856  0.1954  1.0339
11662TIP3    H156477   0.001   2.015  11.637 -0.1548  0.9282  0.6367
11662TIP3    H256478   0.049   2.113  11.532 -0.6599  0.0367 -0.4395
11663TIP3   OH256479   4.011   3.829   4.401  0.0827  0.0394 -0.0126
11663TIP3    H156480   3.922   3.805   4.375 -0.5028  0.9176  1.0785
11663TIP3    H256481   4.064   3.752   4.381 -0.5759  0.1177 -2.3096
11664TIP3   OH256482   5.398   4.271  13.560 -0.1823  0.1740  0.4491
11664TIP3    H156483   5.316   4.316  13.580 -0.2633 -0.4117  1.4985
11664TIP3    H256484   5.370   4.189  13.517 -0.0326  1.1115 -1.5675
11665TIP3   OH256485   3.639   1.174   6.013  0.6084  0.9523 -0.1525
11665TIP3    H156486   3.564   1.172   5.955  0.2953  0.3802  0.2682
11665TIP3    H256487   3.709   1.130   5.964  0.3689  0.5429 -0.1265
11666TIP3   OH256488   2.030   2.011  14.972  0.2017 -0.1572 -0.1539
11666TIP3    H156489   2.102   1.954  14.998 -0.1870 -0.4247  0.3443
11666TIP3    H256490   1.953   1.954  14.970 -0.1584  0.3093  0.1852
11667TIP3   OH256491   2.643   5.154  16.902 -0.2577  0.3101 -0.3377
11667TIP3    H156492   2.699   5.204  16.961  0.5978 -1.8148  0.7571
11667TIP3    H256493   2.658   5.192  16.816  1.3234  1.1087  0.2649
11668TIP3   OH256494   2.001   5.323  11.987 -0.0199  0.0711 -0.1119
11668TIP3    H156495   2.083   5.363  12.014  0.1954 -1.0720  1.0591
11668TIP3    H256496   1.933   5.386  12.013  0.4212  0.5316 -0.0757
11669TIP3   OH256497   4.670   5.512  14.012  0.1323  0.2515 -0.2167
11669TIP3    H156498   4.630   5.539  13.929  1.4628  2.7035 -0.1440
11669TIP3    H256499   4.757   5.480  13.987  0.1365 -0.0283  0.1430
11670TIP3   OH256500   1.981   4.657   2.821 -0.5991  0.0307  0.4193
11670TIP3    H156501   2.056   4.613   2.862  0.2004  2.5361  1.8613
11670TIP3    H256502   2.019   4.709   2.751 -1.5785 -1.7221 -1.5231
11671TIP3   OH256503   5.230   4.079  16.095 -0.7320  0.1441  0.0448
11671TIP3    H156504   5.318   4.117  16.082 -0.2236 -1.1574 -0.4209
11671TIP3    H256505   5.190   4.083  16.009 -0.6546 -0.4359 -0.0152
11672TIP3   OH256506   1.270   0.511  14.184  0.6872  0.1588 -0.2394
11672TIP3    H156507   1.200   0.549  14.237  1.3296 -0.9144  1.4769
11672TIP3    H256508   1.285   0.425  14.222  1.0702 -0.7670 -2.3447
11673TIP3   OH256509   4.659   0.511  16.091 -0.2791  0.2329 -0.5801
11673TIP3    H156510   4.692   0.426  16.064 -0.5344  0.1108 -0.5087
11673TIP3    H256511   4.737   0.567  16.093 -0.1483  0.0641 -0.8603
11674TIP3   OH256512   1.535   2.315  12.347  0.6631  0.2576 -0.4928
11674TIP3    H156513   1.536   2.269  12.431  0.7598  2.3672  0.7290
11674TIP3    H256514   1.621   2.297  12.308  0.1993 -1.6496 -0.7029
11675TIP3   OH256515   0.354   6.245  11.515 -0.3500 -0.2177  1.1626
11675TIP3    H156516   0.326   6.252  11.424  1.2935 -0.3959  0.6103
11675TIP3    H256517   0.328   6.157  11.542  0.9714 -0.9431  0.1825
11676TIP3   OH256518   6.352   3.537   2.766  0.1781 -0.0936 -0.2357
11676TIP3    H156519   6.412   3.571   2.833 -0.0599  0.9979 -0.5638
11676TIP3    H256520   6.270   3.522   2.814  0.0007  0.7091 -0.2764
11677TIP3   OH256521   2.041   5.907  12.873  0.1417  0.0768 -0.2020
11677TIP3    H156522   2.055   5.883  12.965  2.4633 -1.0996 -0.7699
11677TIP3    H256523   2.111   5.970  12.855 -0.7137  0.8116 -0.9877
11678TIP3   OH256524   6.051   5.639   2.726 -0.1234  0.2537  0.5748
11678TIP3    H156525   6.081   5.690   2.801 -0.4686 -0.0636  0.9327
11678TIP3    H256526   6.124   5.643   2.664  0.1935  0.4560  0.9545
11679TIP3   OH256527   5.901   0.239   2.687  0.2297  0.7321  0.2794
11679TIP3    H156528   5.917   0.212   2.778  0.8525  0.5628  0.1243
11679TIP3    H256529   5.814   0.205   2.667  0.6869 -0.5485  0.3291
11680TIP3   OH256530   3.019   6.464  13.336  0.5287  0.5119 -0.8364
11680TIP3    H156531   3.057   6.377  13.331  0.8776  0.7162 -1.8948
11680TIP3    H256532   3.061   6.513  13.266  0.5926  1.6398 -0.0378
11681TIP3   OH256533   6.336   1.712  12.378 -0.5192  0.3047 -0.5589
11681TIP3    H156534   6.284   1.690  12.300  0.9139 -2.6595 -0.8508
11681TIP3    H256535   6.415   1.659  12.368 -0.0943  0.1517  2.7159
11682TIP3   OH256536   4.234   3.124   1.044 -0.6940  0.1773  0.3739
11682TIP3    H156537   4.272   3.112   1.131 -0.0309  1.0795  0.2213
11682TIP3    H256538   4.254   3.043   0.997  2.2867  1.0966 -0.1424
11683TIP3   OH256539   5.527   4.437   3.639 -0.1302  0.1836  0.4344
11683TIP3    H156540   5.613   4.481   3.632  0.9069 -1.9767 -1.6991
11683TIP3    H256541   5.505   4.413   3.549 -2.3676 -0.5157  1.1112
11684TIP3   OH256542   3.639   3.707  14.989 -0.7456  0.0743 -0.1298
11684TIP3    H156543   3.604   3.640  14.931 -0.6037 -0.9959  0.9586
11684TIP3    H256544   3.562   3.755  15.019 -1.3132 -1.7792  1.6601
11685TIP3   OH256545   3.019   0.633   2.561  0.1746 -0.3953  0.0673
11685TIP3    H156546   3.038   0.551   2.607 -2.2152 -1.0894 -0.0139
11685TIP3    H256547   3.099   0.654   2.514 -0.1213 -4.8917 -3.0958
11686TIP3   OH256548   1.830   6.534  11.567 -0.3793  0.2579 -0.4596
11686TIP3    H156549   1.880   6.610  11.537 -0.5139  0.8163  0.6630
11686TIP3    H256550   1.754   6.572  11.612  1.1789 -0.3704  3.0210
11687TIP3   OH256551   0.857   4.138  12.096  0.0414  0.1544  0.5616
11687TIP3    H156552   0.951   4.148  12.112  0.1119  1.0960 -0.3382
11687TIP3    H256553   0.820   4.222  12.122 -0.4610  0.0279  0.2535
11688TIP3   OH256554   2.830   1.500  10.831 -0.6977 -0.2113 -0.0318
11688TIP3    H156555   2.833   1.407  10.851  1.7832 -0.5086 -1.3646
11688TIP3    H256556   2.776   1.507  10.752  0.0888 -0.7047 -0.6267
11689TIP3   OH256557   6.257   6.192  16.719 -0.0712 -0.2359 -0.0632
11689TIP3    H156558   6.179   6.244  16.702 -0.7206 -1.1399  0.0914
11689TIP3    H256559   6.326   6.256  16.733 -0.8553  0.5833  0.1381
11690TIP3   OH256560   2.478   5.006   2.019  0.0358  0.0976 -0.1886
11690TIP3    H156561   2.420   4.961   2.080  1.5063 -1.2829  0.2990
11690TIP3    H256562   2.468   5.099   2.038 -1.6859 -0.1301  0.1289
11691TIP3   OH256563   2.126   4.216   3.531  0.1324 -0.1028  0.1914
11691TIP3    H156564   2.071   4.286   3.495 -0.9637 -0.9631  0.1369
11691TIP3    H256565   2.146   4.160   3.456 -0.2460 -0.6539  0.4931
11692TIP3   OH256566   6.722   2.493   5.616 -0.2911 -0.0640 -0.2936
11692TIP3    H156567   6.702   2.582   5.587 -0.5821 -0.4338 -1.3137
11692TIP3    H256568   6.805   2.472   5.573  0.6372  0.2836  1.2702
11693TIP3   OH256569   1.680   0.230   5.660 -0.4016 -0.4738 -0.3322
11693TIP3    H156570   1.600   0.269   5.695 -0.9018 -0.2709 -1.6338
11693TIP3    H256571   1.749   0.258   5.721 -0.9899  1.1445 -0.3610
11694TIP3   OH256572   3.681   0.909  12.725 -0.3512 -0.3447 -0.3980
11694TIP3    H156573   3.674   0.874  12.814  1.4463 -0.7500 -0.3715
11694TIP3    H256574   3.615   0.862  12.675 -2.7091  1.2272  1.0630
11695TIP3   OH256575   2.175   4.182  15.481  0.0774  0.2507 -0.1491
11695TIP3    H156576   2.164   4.091  15.509 -0.0610  0.4127  0.3411
11695TIP3    H256577   2.116   4.232  15.538  0.1233  0.6419 -0.4395
11696TIP3   OH256578   1.030   5.799   2.080 -0.1797 -0.0019 -0.0478
11696TIP3    H156579   1.005   5.868   2.141 -1.8589  0.4596 -1.1803
11696TIP3    H256580   0.964   5.803   2.010  0.3543 -1.9775 -0.7486
11697TIP3   OH256581   4.087   0.253  12.892 -0.2159  0.5350 -0.0804
11697TIP3    H156582   3.996   0.232  12.913 -0.0417  0.0145  0.1521
11697TIP3    H256583   4.091   0.249  12.796 -0.2937 -0.0492 -0.0626
11698TIP3   OH256584   6.092   2.683   5.506  0.9982  0.1114  0.1303
11698TIP3    H156585   6.131   2.599   5.532 -2.3297 -1.4489  0.5283
11698TIP3    H256586   6.056   2.667   5.419 -1.2054  0.5189  0.9195
11699TIP3   OH256587   3.712   4.397   4.793  0.4099 -0.5184  0.6362
11699TIP3    H156588   3.625   4.431   4.772  0.5099 -0.9340 -0.5062
11699TIP3    H256589   3.769   4.473   4.786 -0.0398  0.1555  3.0474
11700TIP3   OH256590   1.986   4.511   0.197 -0.3434  0.7178  0.0526
11700TIP3    H156591   1.911   4.488   0.143 -0.3247 -0.5860  0.5356
11700TIP3    H256592   1.982   4.606   0.205 -1.4177  0.7503 -0.6662
11701TIP3   OH256593   5.720   2.621  14.745 -0.2609 -0.3410  0.6330
11701TIP3    H156594   5.758   2.683  14.807  1.2073  0.0389 -0.5853
11701TIP3    H256595   5.691   2.675  14.672  0.6137 -1.0113 -0.2421
11702TIP3   OH256596   2.363   4.031  15.841  0.4526 -0.5677  0.2180
11702TIP3    H156597   2.386   4.115  15.882 -1.9432  0.0835  0.3723
11702TIP3    H256598   2.406   3.965  15.896  0.6388  0.4738  1.3708
11703TIP3   OH256599   4.763   5.737  16.326 -0.5651  0.3552  0.6735
11703TIP3    H156600   4.748   5.830  16.343  0.4800  1.1612 -2.1946
11703TIP3    H256601   4.692   5.712  16.267 -0.2141 -0.3563  0.5460
11704TIP3   OH256602   4.990   4.250  15.068  0.2324  0.0883  0.0326
11704TIP3    H156603   5.061   4.208  15.116  1.2407  0.1902 -1.3014
11704TIP3    H256604   5.025   4.261  14.979 -1.5697 -0.1810 -0.7572
11705TIP3   OH256605   0.496   4.525   5.168  0.0946  0.4543  0.1239
11705TIP3    H156606   0.537   4.573   5.240  1.0015 -0.5432  0.3017
11705TIP3    H256607   0.482   4.437   5.203 -0.7273  0.3364 -0.4770
11706TIP3   OH256608   0.188   2.935  12.485 -0.0332 -0.2918  0.1689
11706TIP3    H156609   0.206   3.029  12.479  2.4311 -0.5961  1.7122
11706TIP3    H256610   0.124   2.919  12.415  1.2913  2.0880 -1.7694
11707TIP3   OH256611   5.266   5.276   2.128 -0.0044  0.0053 -0.4205
11707TIP3    H156612   5.253   5.290   2.035  0.2514 -0.6338 -0.5537
11707TIP3    H256613   5.273   5.181   2.138  0.2459  0.0828  0.2086
11708TIP3   OH256614   4.271   3.805  12.075 -1.0412  0.0217  0.1974
11708TIP3    H156615   4.275   3.746  12.150 -0.3433  0.0221  0.1723
11708TIP3    H256616   4.257   3.747  12.000  1.9611 -0.4553 -0.1463
11709TIP3   OH256617   3.568   4.216  16.643  0.1718  0.5527 -0.3808
11709TIP3    H156618   3.514   4.219  16.722 -0.0223  1.9028 -0.5274
11709TIP3    H256619   3.625   4.293  16.651  0.0451  0.7972 -1.6184
11710TIP3   OH256620   2.841   2.259  11.062  0.5323  0.6858 -0.6146
11710TIP3    H156621   2.813   2.309  10.986  0.0395  1.5989  0.1410
11710TIP3    H256622   2.885   2.182  11.026  0.0581  0.9593 -1.8093
11711TIP3   OH256623   3.756   5.406  17.084 -0.2413 -0.6178 -0.2421
11711TIP3    H156624   3.692   5.452  17.029 -0.4077 -0.5505  0.0029
11711TIP3    H256625   3.826   5.381  17.024  0.1465  0.5026 -0.2821
11712TIP3   OH256626   3.719   1.415   4.312  0.1699 -0.3722  0.2382
11712TIP3    H156627   3.735   1.389   4.222  0.9942 -1.8658  0.7756
11712TIP3    H256628   3.754   1.504   4.318  0.8484 -0.5592 -0.7073
11713TIP3   OH256629   2.371   3.444   0.689 -0.1273  0.0119  0.4065
11713TIP3    H156630   2.306   3.377   0.715 -0.3957  0.2925  0.4629
11713TIP3    H256631   2.453   3.413   0.728 -0.1788 -0.4625  0.1510
11714TIP3   OH256632   6.083   6.313   0.303 -0.2751 -0.1520  0.2173
11714TIP3    H156633   6.068   6.392   0.355 -0.3187  0.1958 -0.3089
11714TIP3    H256634   5.997   6.290   0.269 -0.0065  0.6052 -1.0590
11715TIP3   OH256635   5.979   4.604  12.200  0.6510 -0.7363 -0.3843
11715TIP3    H156636   6.049   4.651  12.246  0.7242  0.3457 -1.5569
11715TIP3    H256637   6.026   4.547  12.139  0.5229 -0.0875 -1.0961
11716TIP3   OH256638   4.911   1.665  15.915 -0.3549 -0.4851  0.2313
11716TIP3    H156639   4.939   1.595  15.856 -0.7177 -0.6538  0.2544
11716TIP3    H256640   4.991   1.711  15.937 -0.3020  0.1100 -1.0650
11717TIP3   OH256641   6.768   1.608  13.469 -0.3064  0.0935 -0.0874
11717TIP3    H156642   6.754   1.587  13.377  0.8773  2.1140 -0.8139
11717TIP3    H256643   6.854   1.570  13.489  0.3213  1.2453 -0.4409
11718TIP3   OH256644   1.195   0.908  12.472  0.1796 -0.0258 -0.1607
11718TIP3    H156645   1.141   0.933  12.396 -0.5125 -0.8208  0.0471
11718TIP3    H256646   1.139   0.848  12.521  0.1322  1.4502  1.6723
11719TIP3   OH256647   1.833   5.425  15.592 -0.1327  0.2773  0.7514
11719TIP3    H156648   1.822   5.336  15.626 -1.7151 -0.1810 -0.8137
11719TIP3    H256649   1.922   5.449  15.615  1.0508 -2.5069 -0.5326
11720TIP3   OH256650   4.573   1.108   1.699 -0.3009  0.4284  0.0224
11720TIP3    H156651   4.530   1.027   1.672  1.9228 -0.4247 -1.2624
11720TIP3    H256652   4.580   1.159   1.617 -1.6456  1.9704  0.7998
11721TIP3   OH256653   6.760   3.273   0.193  0.8906 -0.0862 -0.3476
11721TIP3    H156654   6.666   3.287   0.200  1.2639  2.5184  0.7748
11721TIP3    H256655   6.784   3.309   0.107  1.0473  0.7850  0.0478
11722TIP3   OH256656   0.357   6.281   4.829  0.0045 -0.0932  0.0841
11722TIP3    H156657   0.351   6.254   4.737  0.0957  0.6561 -0.1487
11722TIP3    H256658   0.451   6.280   4.848  0.1473  1.4807 -0.3798
11723TIP3   OH256659   1.091   5.501  14.970  0.0868  0.2560  0.5541
11723TIP3    H156660   1.007   5.457  14.953  1.0266 -0.8059 -1.5969
11723TIP3    H256661   1.071   5.594  14.959 -0.3477 -0.1026 -2.5373
11724TIP3   OH256662   5.722   2.092   3.483 -0.1723  0.2937  0.2315
11724TIP3    H156663   5.803   2.118   3.527 -0.6774  3.0430 -0.3239
11724TIP3    H256664   5.655   2.099   3.550 -0.3806  0.8587 -0.0323
11725TIP3   OH256665   6.702   4.019   0.317  0.6136 -0.2557 -0.1826
11725TIP3    H156666   6.649   3.987   0.243 -0.6679 -0.1278  0.6357
11725TIP3    H256667   6.725   3.939   0.365  0.3772 -0.2399 -0.0409
11726TIP3   OH256668   6.442   5.920  16.009 -0.6851 -0.1871 -0.1344
11726TIP3    H156669   6.402   5.965  15.935 -0.4770  1.3334  0.6486
11726TIP3    H256670   6.376   5.857  16.037 -1.6113  0.6708 -0.3126
11727TIP3   OH256671   1.595   1.997   3.955 -0.3913  0.0152 -0.2585
11727TIP3    H156672   1.688   1.976   3.955 -0.4115 -0.3288  2.0711
11727TIP3    H256673   1.568   1.987   3.863  1.4696 -1.6773 -0.6907
11728TIP3   OH256674   4.063   2.317   1.413  0.1762 -0.2400  0.3321
11728TIP3    H156675   4.006   2.376   1.363  1.9959 -0.6796 -2.5193
11728TIP3    H256676   4.014   2.236   1.420 -0.9847  0.5122  1.2627
11729TIP3   OH256677   1.084   2.134  10.620  0.4649  0.6791 -0.2114
11729TIP3    H156678   1.163   2.146  10.566  0.3135 -0.3461 -0.6846
11729TIP3    H256679   1.030   2.211  10.600  1.0114  1.0074 -0.4613
11730TIP3   OH256680   6.104   1.068   3.091  0.3993  0.2256 -0.0841
11730TIP3    H156681   6.061   1.060   3.177 -0.2927  0.3664 -0.4103
11730TIP3    H256682   6.062   1.000   3.038  1.5604 -0.5667 -0.0270
11731TIP3   OH256683   4.628   6.443  17.170  0.0730  0.1701  0.2660
11731TIP3    H156684   4.541   6.438  17.207 -0.2035  1.4272 -0.1630
11731TIP3    H256685   4.643   6.357  17.130 -2.1323  0.8056 -2.1684
11732TIP3   OH256686   1.055   2.560   0.130 -0.1845  0.5300 -0.1095
11732TIP3    H156687   0.976   2.538   0.180 -1.1381  2.1545 -0.8089
11732TIP3    H256688   1.066   2.488   0.068 -1.1405  0.2866 -0.0085
11733TIP3   OH256689   0.437   3.393  15.770  0.0257  0.1256 -0.2295
11733TIP3    H156690   0.411   3.460  15.834  1.3514  0.2940  0.1736
11733TIP3    H256691   0.355   3.356  15.738 -0.7394  1.8314 -0.3372
11734TIP3   OH256692   1.501   1.019  13.319 -0.2906 -0.9434 -0.0851
11734TIP3    H156693   1.504   0.977  13.405  0.9961 -1.8784 -0.5580
11734TIP3    H256694   1.573   0.980  13.271 -0.3297  0.3402 -1.2504
11735TIP3   OH256695   5.501   0.899   1.580 -0.1988 -0.0516  0.3308
11735TIP3    H156696   5.409   0.914   1.603  0.2366  1.1932  1.3879
11735TIP3    H256697   5.550   0.930   1.656  1.1624  0.6852 -0.8047
11736TIP3   OH256698   5.268   3.883   6.686  0.2054  0.1689  0.0440
11736TIP3    H156699   5.348   3.831   6.688  0.4565  0.4445 -1.7231
11736TIP3    H256700   5.202   3.825   6.648 -0.1354  0.3384  0.3701
11737TIP3   OH256701   4.175   5.440   6.010 -0.0617  0.2124 -0.3499
11737TIP3    H156702   4.185   5.514   6.071 -0.1370 -0.0354 -0.0338
11737TIP3    H256703   4.191   5.478   5.924  0.8551  0.4056 -0.1115
11738TIP3   OH256704   1.898   6.237   1.712 -0.5255 -0.4855  0.3408
11738TIP3    H156705   1.939   6.296   1.649  1.0939  1.1837  2.7522
11738TIP3    H256706   1.923   6.149   1.684  1.5041  0.2995 -0.4756
11739TIP3   OH256707   3.596   5.056  11.326 -0.0879  0.9813 -0.5871
11739TIP3    H156708   3.691   5.046  11.334 -0.3221 -0.2600  4.4754
11739TIP3    H256709   3.567   4.973  11.288  0.7509  1.4707 -2.4259
11740TIP3   OH256710   1.820   6.634   5.670 -0.4683 -0.0628 -0.5534
11740TIP3    H156711   1.875   6.578   5.724  0.7005  0.0735 -1.5532
11740TIP3    H256712   1.808   6.714   5.722  0.3957 -0.0438 -0.3795
11741TIP3   OH256713   1.361   0.297  12.211  0.4456 -0.3941  0.2382
11741TIP3    H156714   1.335   0.350  12.136  1.6389  1.3133  0.9664
11741TIP3    H256715   1.446   0.261  12.186  0.6464 -0.1669  0.5797
11742TIP3   OH256716   0.759   0.697  11.852 -0.0328 -0.5377 -0.4960
11742TIP3    H156717   0.686   0.753  11.826  0.1380  1.7115  3.2038
11742TIP3    H256718   0.837   0.750  11.835  0.3694 -0.8450  0.3634
11743TIP3   OH256719   3.387   3.646   1.055  0.7371  0.0323  0.0093
11743TIP3    H156720   3.435   3.718   1.097  0.2522  1.4698 -1.7933
11743TIP3    H256721   3.426   3.638   0.969  0.5838 -1.7241  0.0726
11744TIP3   OH256722   4.167   4.525   4.294 -0.3023  0.2382 -0.7238
11744TIP3    H156723   4.090   4.484   4.253  0.4902 -0.4332 -1.5666
11744TIP3    H256724   4.231   4.455   4.299 -0.1473  0.4608  1.1307
11745TIP3   OH256725   3.183   6.002  11.693  0.0197 -0.5725  0.2792
11745TIP3    H156726   3.129   5.992  11.771  0.1309 -0.2081  0.4022
11745TIP3    H256727   3.258   6.054  11.722 -0.8367  1.1452 -0.4938
11746TIP3   OH256728   3.410   2.895  13.336 -0.0371 -0.3733 -0.0327
11746TIP3    H156729   3.433   2.840  13.261  0.8734  2.0534 -1.6539
11746TIP3    H256730   3.387   2.979  13.298  0.9658  1.1345  2.4367
11747TIP3   OH256731   1.243   0.216   2.901  0.2382  0.2887  0.0418
11747TIP3    H156732   1.190   0.162   2.842  0.4727 -0.7495  0.7703
11747TIP3    H256733   1.206   0.200   2.988  0.8573  0.6412  0.3754
11748TIP3   OH256734   6.527   1.392   5.556  0.0598  0.0339  0.2523
11748TIP3    H156735   6.546   1.366   5.647  0.0416  0.8787  0.5098
11748TIP3    H256736   6.510   1.310   5.511  0.6604 -0.4534  0.8793
11749TIP3   OH256737   4.544   1.232   6.788  0.1269 -0.0578 -0.0996
11749TIP3    H156738   4.456   1.244   6.822  0.0643 -2.5835  0.8458
11749TIP3    H256739   4.571   1.147   6.821  2.0150 -0.4368 -2.3426
11750TIP3   OH256740   5.205   5.347   3.050 -0.3255  0.3358 -0.0351
11750TIP3    H156741   5.252   5.278   3.003  0.1261 -1.0829  2.3683
11750TIP3    H256742   5.154   5.301   3.116  0.6675  2.3032  2.2491
11751TIP3   OH256743   1.137   4.538   2.581 -0.0775  0.1921  0.0135
11751TIP3    H156744   1.203   4.523   2.649  1.5853  1.1557 -1.3245
11751TIP3    H256745   1.181   4.591   2.515 -1.7287 -0.4664 -1.7164
11752TIP3   OH256746   2.958   0.205  14.223  0.1390  0.2755  0.0834
11752TIP3    H156747   2.986   0.167  14.140  0.0955  0.4027  0.0095
11752TIP3    H256748   2.936   0.296  14.201  0.6428  0.4634  0.3341
11753TIP3   OH256749   4.280   2.022  12.075  0.2051  0.1190 -0.4342
11753TIP3    H156750   4.191   2.046  12.101  0.8065  1.5313  0.4335
11753TIP3    H256751   4.289   1.931  12.102 -0.0897  0.7351  1.9756
11754TIP3   OH256752   5.142   3.503  13.595  0.4385 -0.3101 -0.0996
11754TIP3    H156753   5.183   3.546  13.671  0.2203  0.1779 -0.2585
11754TIP3    H256754   5.053   3.536  13.594  0.2068 -0.9290 -0.1048
11755TIP3   OH256755   1.971   1.306  15.430 -0.0379  0.5458 -0.3093
11755TIP3    H156756   1.981   1.395  15.464 -1.9389  0.1884  1.3537
11755TIP3    H256757   1.933   1.256  15.502 -1.0458 -1.1058 -1.8792
11756TIP3   OH256758   5.995   2.994  11.630  0.0151  0.5541  0.4340
11756TIP3    H156759   6.046   2.918  11.658 -1.4694 -1.4341 -1.8566
11756TIP3    H256760   6.056   3.068  11.637  2.3714 -1.2608  0.3067
11757TIP3   OH256761   3.391   3.044   4.378  0.7065  0.6931 -0.0787
11757TIP3    H156762   3.377   3.138   4.368  0.6196  1.0130  2.2959
11757TIP3    H256763   3.362   3.026   4.468 -0.1199 -1.7759 -0.7698
11758TIP3   OH256764   3.375   4.908  16.834  0.2197 -0.2029  0.2240
11758TIP3    H156765   3.296   4.945  16.873 -0.2299 -1.4467  0.5622
11758TIP3    H256766   3.345   4.869  16.751  0.6194 -0.0376 -0.0007
11759TIP3   OH256767   2.526   0.106   1.084  0.6232 -0.1168 -0.4720
11759TIP3    H156768   2.468   0.033   1.101 -1.2305  1.5613  0.7860
11759TIP3    H256769   2.509   0.130   0.992 -0.8299  0.4478 -0.0744
11760TIP3   OH256770   5.966   0.360   3.876 -0.1337 -0.9941 -0.4597
11760TIP3    H156771   5.989   0.410   3.955  0.1002  0.5750 -1.4727
11760TIP3    H256772   6.050   0.342   3.834 -0.3071 -1.2246 -0.7086
11761TIP3   OH256773   1.365   2.065  12.098  0.1077 -0.0304  0.4549
11761TIP3    H156774   1.440   2.031  12.146 -0.0740 -0.1354  0.6676
11761TIP3    H256775   1.310   1.989  12.082 -0.4871  0.2121  1.2730
11762TIP3   OH256776   4.960   0.186   0.707  0.6169 -0.2424 -0.2770
11762TIP3    H156777   5.008   0.249   0.760  0.0693  0.5038 -0.6460
11762TIP3    H256778   4.868   0.201   0.729  0.4035 -0.1082 -1.2245
11763TIP3   OH256779   4.996   5.539  17.410  0.2839  0.1676 -1.0854
11763TIP3    H156780   5.006   5.623  17.455  0.4645 -1.4046  2.1378
11763TIP3    H256781   5.061   5.482  17.451 -1.5261 -2.2075 -1.2856
11764TIP3   OH256782   5.195   1.956   4.638  0.1259  0.3574 -0.3920
11764TIP3    H156783   5.267   1.988   4.583  1.3352 -1.4988 -0.0013
11764TIP3    H256784   5.116   1.969   4.585  1.0326  0.3346 -1.8132
11765TIP3   OH256785   4.341   6.585   5.109 -0.3222 -0.3489 -0.0235
11765TIP3    H156786   4.382   6.533   5.179 -0.8915 -0.5596  0.1565
11765TIP3    H256787   4.256   6.544   5.096 -1.1417  1.0435  0.7103
11766TIP3   OH256788   2.370   1.029  16.703 -0.0523  0.1093  0.0781
11766TIP3    H156789   2.295   1.067  16.748  0.1200  0.7805 -0.1962
11766TIP3    H256790   2.441   1.032  16.767 -0.8217 -2.8056  1.2478
11767TIP3   OH256791   4.752   6.609   5.040  0.0280  0.4096 -0.0414
11767TIP3    H156792   4.834   6.565   5.062  1.0289  2.3942  0.4729
11767TIP3    H256793   4.737   6.588   4.948 -0.8452 -2.8785  0.7322
11768TIP3   OH256794   2.313   6.296  13.105 -0.0611  0.1973 -0.3357
11768TIP3    H156795   2.231   6.256  13.134 -0.8189  0.0673 -2.4968
11768TIP3    H256796   2.286   6.376  13.061  0.7578 -0.6819 -2.5740
11769TIP3   OH256797   0.008   2.074   5.078  0.0112 -0.1008 -0.8296
11769TIP3    H156798   0.026   2.014   5.006 -3.8815 -2.8641  0.1812
11769TIP3    H256799  -0.002   2.017   5.154 -2.0652  1.9853  0.6045
11770TIP3   OH256800   0.761   1.663  14.778 -0.1932 -0.2983  0.0334
11770TIP3    H156801   0.776   1.692  14.868 -0.1960 -0.1600 -0.0109
11770TIP3    H256802   0.732   1.572  14.787 -0.7612 -0.1049  0.2106
11771TIP3   OH256803   3.527   6.259  14.100  0.7099 -0.0508 -0.0653
11771TIP3    H156804   3.536   6.311  14.020 -1.0637 -1.6379 -1.4092
11771TIP3    H256805   3.603   6.201  14.100  0.8448  0.1224 -0.4642
11772TIP3   OH256806   0.123   2.616  10.843  0.2961  0.0535 -0.0778
11772TIP3    H156807   0.046   2.669  10.863  0.7633  0.8042 -0.2244
11772TIP3    H256808   0.165   2.602  10.928  1.5599  2.1155 -0.3152
11773TIP3   OH256809   1.337   5.684  16.379  0.0941  0.0977 -0.4422
11773TIP3    H156810   1.368   5.679  16.469 -0.2145  0.3909 -0.3197
11773TIP3    H256811   1.262   5.625  16.375  0.5465 -0.4669 -0.6906
11774TIP3   OH256812   4.497   3.876   5.281  0.2602  0.0292 -0.1987
11774TIP3    H156813   4.574   3.821   5.265  1.9088  2.1900 -0.1618
11774TIP3    H256814   4.533   3.964   5.296 -2.3417  1.9105 -3.5284
11775TIP3   OH256815   4.480   4.516   5.967 -0.4020 -0.0877 -0.1193
11775TIP3    H156816   4.404   4.574   5.967  0.1736  0.7076  1.2339
11775TIP3    H256817   4.555   4.575   5.975  0.2844 -0.9322 -0.2029
11776TIP3   OH256818   2.086   1.959   0.586  0.0531  0.2105 -0.1119
11776TIP3    H156819   2.177   1.940   0.564 -0.3531 -0.7997 -1.0069
11776TIP3    H256820   2.054   1.878   0.626 -0.7911  0.1213 -0.9358
11777TIP3   OH256821   0.854   4.733   2.153 -0.1609  0.2140 -0.1813
11777TIP3    H156822   0.934   4.750   2.102 -0.3078  1.0546 -0.1573
11777TIP3    H256823   0.812   4.819   2.159 -1.2914 -0.2933 -0.5646
11778TIP3   OH256824   5.032   5.855  17.523 -0.2014  0.1545  0.7965
11778TIP3    H156825   4.946   5.816  17.539  0.0663  0.1261  2.3532
11778TIP3    H256826   5.013   5.933  17.471 -1.3708  0.9173  2.2756
11779TIP3   OH256827   6.115   3.352   0.460 -0.1594  0.6211  0.1961
11779TIP3    H156828   6.051   3.350   0.530  0.2418  1.8867  0.6234
11779TIP3    H256829   6.129   3.260   0.437 -0.4581  0.2035  1.6204
11780TIP3   OH256830   3.227   3.022   4.939 -0.5258 -0.3251  0.3325
11780TIP3    H156831   3.186   2.943   4.905 -1.2767 -0.2997  1.1326
11780TIP3    H256832   3.312   2.994   4.971 -0.0061 -0.4408 -1.0623
11781TIP3   OH256833   1.030   4.418   3.173 -0.6491 -0.7601 -0.1237
11781TIP3    H156834   0.999   4.509   3.168  2.3390  0.4490  0.5326
11781TIP3    H256835   0.951   4.366   3.183 -2.6370  1.5911 -2.1633
11782TIP3   OH256836   6.448   5.416  15.920 -0.2834 -0.1631  0.2233
11782TIP3    H156837   6.518   5.460  15.967  0.1886 -0.2614 -0.3712
11782TIP3    H256838   6.470   5.428  15.827 -0.8915 -0.4510  0.0361
11783TIP3   OH256839   1.419   3.203   0.786 -0.0402 -0.3838 -0.7310
11783TIP3    H156840   1.417   3.170   0.876  0.0043 -2.3399 -1.3921
11783TIP3    H256841   1.355   3.150   0.740 -0.7666  1.2542 -1.6835
11784TIP3   OH256842   0.511   0.438  15.560 -0.2059 -0.7400 -0.5647
11784TIP3    H156843   0.460   0.458  15.481  0.1523  0.7545 -0.4295
11784TIP3    H256844   0.543   0.522  15.590  2.1645 -1.5940 -0.5023
11785TIP3   OH256845   4.679   1.460  10.748 -0.1851 -0.1448  0.3858
11785TIP3    H156846   4.725   1.381  10.776  0.9493  1.1428  2.3703
11785TIP3    H256847   4.598   1.461  10.800 -1.5563 -1.2984 -1.5697
11786TIP3   OH256848   5.683   6.230  13.368  0.5366  0.0435  0.3558
11786TIP3    H156849   5.699   6.136  13.380  0.8164 -0.2474 -1.7538
11786TIP3    H256850   5.657   6.262  13.454 -2.1892 -2.4789  0.6340
11787TIP3   OH256851   0.005   5.333  15.947 -0.0679 -0.5883 -0.3241
11787TIP3    H156852  -0.030   5.415  15.981  1.8923  1.3358 -2.5362
11787TIP3    H256853  -0.062   5.302  15.886 -0.1168  0.3781 -0.7875
11788TIP3   OH256854   2.294   0.098  14.784  0.0118  0.6372 -0.5019
11788TIP3    H156855   2.244   0.063  14.858 -1.2934  0.3944 -1.4831
11788TIP3    H256856   2.363   0.151  14.825  1.4935 -2.2433  1.0330
11789TIP3   OH256857   1.704   4.833  16.428 -0.1935  0.7605  0.5100
11789TIP3    H156858   1.799   4.841  16.418 -0.1223 -0.4285  0.0804
11789TIP3    H256859   1.673   4.924  16.429  0.8015  1.1460 -0.7211
11790TIP3   OH256860   6.394   2.588  12.127  0.0184 -0.1593  0.0089
11790TIP3    H156861   6.396   2.534  12.205 -0.0290  0.9336  0.7848
11790TIP3    H256862   6.326   2.549  12.072  0.3570 -1.1947  0.3011
11791TIP3   OH256863   2.822   2.550  15.080  0.2714  0.5788 -0.1517
11791TIP3    H156864   2.876   2.482  15.039 -2.9113 -2.1069 -0.3384
11791TIP3    H256865   2.797   2.512  15.165 -0.8857  1.9307  0.1369
11792TIP3   OH256866   5.802   2.638   1.995 -0.7635  0.5852  0.1641
11792TIP3    H156867   5.787   2.584   2.072 -1.4396 -1.1697 -1.1303
11792TIP3    H256868   5.829   2.723   2.030  0.5888 -0.6259  2.3006
11793TIP3   OH256869   3.524   5.250   1.661 -0.5466  0.3671  0.1253
11793TIP3    H156870   3.558   5.203   1.584 -1.8507 -1.9664  0.8726
11793TIP3    H256871   3.432   5.265   1.641 -0.3939  1.7027  0.3718
11794TIP3   OH256872   4.792   6.106   4.092 -0.0693 -0.2854 -0.2446
11794TIP3    H156873   4.884   6.080   4.102  0.4704  1.4413 -0.5202
11794TIP3    H256874   4.785   6.133   4.001 -0.9219 -0.6060 -0.2800
11795TIP3   OH256875   4.320   5.606  13.084 -0.3978  0.1173  1.0952
11795TIP3    H156876   4.251   5.594  13.149 -1.7230 -0.9641 -0.4357
11795TIP3    H256877   4.297   5.545  13.013  0.8690  1.3788 -0.4708
11796TIP3   OH256878   6.589   5.418   2.362 -0.4229 -0.4831  0.4034
11796TIP3    H156879   6.530   5.344   2.346 -0.3995 -0.5217  0.4931
11796TIP3    H256880   6.577   5.475   2.286  0.3672 -1.1063 -0.2248
11797TIP3   OH256881   6.450   4.793   6.069  0.0768 -0.4021  0.4847
11797TIP3    H156882   6.409   4.790   6.155  0.3668 -0.0911  0.6362
11797TIP3    H256883   6.402   4.728   6.017 -1.2103  0.5772  0.3946
11798TIP3   OH256884   6.574   6.063  15.116  0.7192 -0.0389  0.1032
11798TIP3    H156885   6.582   6.158  15.111  2.1808 -0.1456  0.1439
11798TIP3    H256886   6.621   6.039  15.196 -1.1941 -0.6528  1.1196
11799TIP3   OH256887   6.365   2.152  16.915  0.3217  0.7519  0.2542
11799TIP3    H156888   6.271   2.135  16.903  0.4501 -0.0455  0.3036
11799TIP3    H256889   6.373   2.247  16.906  0.0327  0.5903 -3.4269
11800TIP3   OH256890   5.978   6.505  13.348 -0.2578  0.0867 -0.6351
11800TIP3    H156891   5.908   6.569  13.358  1.8119  2.3929  0.1249
11800TIP3    H256892   6.027   6.536  13.272  0.5882 -0.8119 -0.4690
11801TIP3   OH256893   0.746   6.105  13.952 -0.4407  0.2801 -0.3665
11801TIP3    H156894   0.662   6.103  13.906 -0.2952  0.2305 -0.6318
11801TIP3    H256895   0.745   6.186  14.002 -1.1967 -0.3494  0.6639
11802TIP3   OH256896   3.433   2.406  12.422  0.0424  0.3491 -0.0594
11802TIP3    H156897   3.417   2.315  12.394 -0.4410 -0.2339  1.9375
11802TIP3    H256898   3.524   2.405  12.453 -0.0218  0.4855  0.1346
11803TIP3   OH256899   2.563   0.131   2.043 -0.3656 -0.1779  0.1763
11803TIP3    H156900   2.510   0.192   1.993  0.3025  0.6145  0.3948
11803TIP3    H256901   2.500   0.079   2.093 -0.9694 -0.0112 -0.4024
11804TIP3   OH256902   5.395   6.085  16.464 -0.0118 -0.6727 -0.4409
11804TIP3    H156903   5.423   6.095  16.556  0.3632  0.2822 -0.6435
11804TIP3    H256904   5.474   6.104  16.413 -0.5664  0.2212 -0.9873
11805TIP3   OH256905   1.734   5.327  13.300  0.5671 -0.4026  0.7624
11805TIP3    H156906   1.645   5.347  13.273  1.1696 -0.0131 -1.0445
11805TIP3    H256907   1.736   5.231  13.307 -0.2798 -0.3559  2.0057
11806TIP3   OH256908   2.111   3.030  16.197  0.2525  0.0837 -0.4261
11806TIP3    H156909   2.144   2.943  16.175 -1.9410 -1.0766  0.5931
11806TIP3    H256910   2.087   3.024  16.290  0.0955  1.8132 -0.3095
11807TIP3   OH256911   0.858   3.917  12.311  0.2327  0.0505 -0.1608
11807TIP3    H156912   0.904   3.968  12.245  0.6632 -0.2888 -0.1324
11807TIP3    H256913   0.894   3.947  12.394  1.4088 -1.1491 -0.1972
11808TIP3   OH256914   1.443   1.977  11.801 -0.1648  0.1206  0.0940
11808TIP3    H156915   1.429   1.894  11.847 -1.3037  0.3690  0.2437
11808TIP3    H256916   1.534   1.973  11.771  0.2102 -0.6019  1.2511
11809TIP3   OH256917   2.729   6.197  15.817 -0.1959 -0.2984  0.4299
11809TIP3    H156918   2.753   6.170  15.729  0.3991  1.0601  0.1526
11809TIP3    H256919   2.731   6.293  15.814 -1.2429 -0.2179  1.6261
11810TIP3   OH256920   4.795   6.349   1.696  0.4547 -0.1444  0.3239
11810TIP3    H156921   4.856   6.282   1.729  0.4602 -0.5869 -0.5495
11810TIP3    H256922   4.709   6.319   1.724  0.3007 -1.2971 -1.2553
11811TIP3   OH256923   3.275   3.704   4.480 -0.5881 -0.7867  0.2226
11811TIP3    H156924   3.283   3.690   4.385  0.8417 -0.4500  0.2777
11811TIP3    H256925   3.288   3.617   4.518 -0.2815 -0.7690  0.1558
11812TIP3   OH256926   4.622   0.058   6.172  0.0854  0.1322 -0.1678
11812TIP3    H156927   4.650   0.005   6.247  1.0308  0.3147 -0.3905
11812TIP3    H256928   4.543   0.102   6.203  0.4297  0.1565  0.7072
11813TIP3   OH256929   4.181   2.403  17.441  0.4641 -0.3737 -0.1822
11813TIP3    H156930   4.273   2.424  17.424  0.3230  0.0041 -0.4966
11813TIP3    H256931   4.132   2.470  17.394  0.0358 -0.1047  0.6236
11814TIP3   OH256932   3.796   3.593  13.100  0.4809 -0.5327  0.2589
11814TIP3    H156933   3.886   3.582  13.128  0.1067 -3.1412  0.6923
11814TIP3    H256934   3.744   3.583  13.180 -0.2381  0.6541 -0.0266
11815TIP3   OH256935   4.433   6.687  14.931 -0.2139  0.3328  0.2361
11815TIP3    H156936   4.393   6.608  14.895 -0.8336  0.3972  0.7723
11815TIP3    H256937   4.522   6.686  14.896  0.0525 -1.0323  0.8871
11816TIP3   OH256938   1.898   3.390  11.805  0.1870  0.2666  0.2570
11816TIP3    H156939   1.826   3.446  11.836  0.6349  0.8556  0.2578
11816TIP3    H256940   1.868   3.358  11.720  0.3320  1.3368 -0.2181
11817TIP3   OH256941   5.320   5.945   5.792  0.4284  0.2606 -0.2875
11817TIP3    H156942   5.404   5.956   5.836 -0.0481 -0.0958  0.7469
11817TIP3    H256943   5.286   5.861   5.825  0.1596 -0.1340 -1.5228
11818TIP3   OH256944   4.548   2.312  16.588  0.5502 -0.1488 -0.0706
11818TIP3    H156945   4.613   2.382  16.592  1.1253 -0.7032  0.7900
11818TIP3    H256946   4.464   2.356  16.596  0.8960  0.4545  0.3454
11819TIP3   OH256947   5.084   6.599   5.089  0.3617  0.2055  0.1785
11819TIP3    H156948   5.058   6.557   5.007  0.0313 -0.0862  0.4305
11819TIP3    H256949   5.116   6.685   5.063  1.4755 -0.3565 -0.4021
11820TIP3   OH256950   3.455   3.328  13.600  0.1769 -0.3331  0.2948
11820TIP3    H156951   3.459   3.241  13.641  0.7675 -0.8588 -0.8390
11820TIP3    H256952   3.477   3.312  13.509  1.9786  1.2445  0.4044
11821TIP3   OH256953   1.602   3.941   1.572 -0.2519 -0.1424 -0.4219
11821TIP3    H156954   1.611   3.993   1.652 -1.5211  0.0886 -0.4019
11821TIP3    H256955   1.610   3.850   1.601  1.4650 -0.0012 -0.3777
11822TIP3   OH256956   6.067   5.359   2.138  0.2934  0.4413  0.2301
11822TIP3    H156957   6.094   5.337   2.049  1.2210 -3.2419  1.2706
11822TIP3    H256958   5.971   5.360   2.134  0.2530  3.4327 -1.3213
11823TIP3   OH256959   2.986   0.376   2.634 -0.1089  0.4996 -0.2871
11823TIP3    H156960   2.975   0.337   2.548 -2.0352 -0.1860  0.2040
11823TIP3    H256961   3.015   0.304   2.690 -1.9166  0.1260  0.2434
11824TIP3   OH256962   5.696   0.200   5.205  0.8221 -0.2097  0.1713
11824TIP3    H156963   5.710   0.282   5.160  1.2650 -0.5714 -0.3542
11824TIP3    H256964   5.783   0.160   5.213  0.5856 -0.7375  0.2041
11825TIP3   OH256965   5.166   4.654   3.684 -0.6158 -0.1470  0.1961
11825TIP3    H156966   5.130   4.722   3.740 -1.1246  1.2131 -1.6600
11825TIP3    H256967   5.260   4.670   3.682 -0.2376 -1.6268  2.3804
11826TIP3   OH256968   2.527   4.330  16.417  0.6554  0.2862 -0.3778
11826TIP3    H156969   2.589   4.271  16.459  0.5919 -0.1998 -0.9447
11826TIP3    H256970   2.581   4.394  16.371  0.7281  0.2739 -0.3081
11827TIP3   OH256971   4.482   4.896   0.259  0.3094  0.2681  0.1161
11827TIP3    H156972   4.411   4.864   0.202 -0.4128  0.1281  1.0710
11827TIP3    H256973   4.532   4.818   0.282 -0.9766 -0.1102  1.7944
11828TIP3   OH256974   3.030   3.864  16.954 -0.1202 -0.2121  0.1127
11828TIP3    H156975   3.122   3.888  16.958  0.0798 -0.8175 -0.6292
11828TIP3    H256976   2.983   3.947  16.962  0.4730  0.0643  0.8257
11829TIP3   OH256977   6.055   5.179  10.708 -0.2954  0.5381 -0.1302
11829TIP3    H156978   6.041   5.192  10.614 -1.8053  1.6424  0.2109
11829TIP3    H256979   5.975   5.136  10.738  1.0001 -1.6803  0.3420
11830TIP3   OH256980   3.891   3.863  16.192  0.0121 -0.7784 -0.2582
11830TIP3    H156981   3.821   3.834  16.133 -0.9610 -0.1238  0.5500
11830TIP3    H256982   3.864   3.951  16.219  0.4182 -1.0787  1.1818
11831TIP3   OH256983   3.229   0.546   0.368  0.4783  0.0675  0.7659
11831TIP3    H156984   3.174   0.610   0.323  1.8563  2.0602  1.7589
11831TIP3    H256985   3.248   0.480   0.301  0.6198  1.7264 -0.9297
11832TIP3   OH256986   5.015   3.813   0.729  0.2862 -0.2302  0.3199
11832TIP3    H156987   4.958   3.745   0.764 -1.6589  1.4924  0.6976
11832TIP3    H256988   5.083   3.824   0.795  0.2655 -1.3470  0.5390
11833TIP3   OH256989   5.327   3.273  13.640 -0.2498 -0.5395  0.5789
11833TIP3    H156990   5.280   3.291  13.722 -1.7813 -0.6704 -0.2414
11833TIP3    H256991   5.282   3.326  13.575 -0.0491 -1.6420 -0.4764
11834TIP3   OH256992   6.117   6.660   5.450 -0.5954 -0.1385  0.1201
11834TIP3    H156993   6.075   6.740   5.483 -0.1835  0.5169 -0.8789
11834TIP3    H256994   6.205   6.663   5.487 -0.4616  0.0691 -0.2087
11835TIP3   OH256995   1.838   5.189  15.845  0.6942  0.6851  0.3000
11835TIP3    H156996   1.934   5.184  15.845  0.6562 -0.2876 -0.7832
11835TIP3    H256997   1.810   5.104  15.878  0.1868  0.2425 -1.2332
11836TIP3   OH256998   0.281   0.774  13.610  0.6919 -0.0023 -0.3780
11836TIP3    H156999   0.204   0.798  13.559  1.0460 -1.0830 -1.4777
11836TIP3    H257000   0.296   0.682  13.588  0.6118 -0.6570  2.0344
11837TIP3   OH257001   6.450   3.050  13.840  0.2641  0.5227  0.0097
11837TIP3    H157002   6.541   3.067  13.864  0.5231 -0.2268 -0.4216
11837TIP3    H257003   6.441   3.090  13.753  0.8007 -1.2303 -0.8924
11838TIP3   OH257004   3.654   1.837   4.826 -0.4390 -0.0320  0.5098
11838TIP3    H157005   3.572   1.886   4.830 -1.1849 -1.1048 -0.9610
11838TIP3    H257006   3.639   1.761   4.882 -0.2827 -0.0171  0.5739
11839TIP3   OH257007   3.193   4.917   3.618  0.0827  0.0046 -0.0247
11839TIP3    H157008   3.100   4.917   3.594  0.5567 -0.4545 -2.0960
11839TIP3    H257009   3.199   4.849   3.685 -1.1903  0.5813  0.7179
11840TIP3   OH257010   5.685   1.834  13.597 -0.2888  0.2666  0.1074
11840TIP3    H157011   5.730   1.881  13.667 -0.3144 -0.0632  0.3443
11840TIP3    H257012   5.755   1.798  13.543 -0.2611 -0.4178  0.5901
11841TIP3   OH257013   6.180   3.752  14.260  0.2734 -0.2298  0.3596
11841TIP3    H157014   6.140   3.730  14.175  0.1461 -2.0426  0.8470
11841TIP3    H257015   6.261   3.701  14.262 -0.1263 -0.8484  1.6501
11842TIP3   OH257016   2.297   1.703   2.139 -0.3133 -0.7031  0.0085
11842TIP3    H157017   2.318   1.706   2.046  0.5548 -0.8981  0.1919
11842TIP3    H257018   2.240   1.779   2.153  0.3071 -0.1314 -0.4979
11843TIP3   OH257019   1.871   1.973  17.132  0.2169 -0.0916  0.1061
11843TIP3    H157020   1.804   1.905  17.136 -1.2889  1.3252  0.1087
11843TIP3    H257021   1.945   1.931  17.087 -1.4002 -1.1471 -1.7408
11844TIP3   OH257022   2.647   3.109   2.435  0.1677  0.1646  0.1592
11844TIP3    H157023   2.585   3.082   2.502  0.3971 -1.8318 -0.3708
11844TIP3    H257024   2.715   3.158   2.482 -0.1781 -0.3699  1.2268
11845TIP3   OH257025   2.862   6.200  13.733 -0.0780  0.3063 -0.3259
11845TIP3    H157026   2.877   6.293  13.718  0.6033  0.4994  1.3921
11845TIP3    H257027   2.799   6.196  13.804  0.2747 -0.5445 -0.0456
11846TIP3   OH257028   0.297   0.106   6.765 -0.2353 -0.9985  0.3192
11846TIP3    H157029   0.272   0.025   6.720 -0.3320 -0.4380 -0.6607
11846TIP3    H257030   0.239   0.173   6.730 -1.2134 -0.7561  2.2454
11847TIP3   OH257031   0.653   2.884   4.621 -0.0822 -0.1352 -0.1313
11847TIP3    H157032   0.722   2.845   4.567  0.6123  0.5430  0.2515
11847TIP3    H257033   0.686   2.879   4.710  0.8007  2.8097 -0.1992
11848TIP3   OH257034   0.779   3.142  16.740  0.2913 -0.2556  0.0103
11848TIP3    H157035   0.716   3.101  16.681 -0.1861  2.4270 -1.4927
11848TIP3    H257036   0.858   3.089  16.730 -0.9397 -2.1969  0.0196
11849TIP3   OH257037   3.896   1.601   2.464  0.4252 -0.2743  0.1977
11849TIP3    H157038   3.962   1.553   2.514  0.2831 -0.2624  0.3941
11849TIP3    H257039   3.872   1.675   2.519  3.2456  2.1710 -1.5257
11850TIP3   OH257040   1.603   1.687   3.720  0.2679  0.8025 -0.4288
11850TIP3    H157041   1.676   1.694   3.782  0.4301  0.1137 -0.5301
11850TIP3    H257042   1.558   1.607   3.746  0.4289  0.4225 -1.3011
11851TIP3   OH257043   3.031   1.720  11.914  0.0937  0.8148 -0.1029
11851TIP3    H157044   3.109   1.771  11.894  1.8094 -1.3101  0.7560
11851TIP3    H257045   3.032   1.712  12.010 -0.7002  0.0450 -0.1453
11852TIP3   OH257046   0.199   2.553   4.960  0.2365 -0.0896 -0.7128
11852TIP3    H157047   0.168   2.462   4.966  2.1867 -0.7614  0.0381
11852TIP3    H257048   0.184   2.589   5.047 -0.1315  0.1809 -0.8859
11853TIP3   OH257049   3.273   3.626  11.954 -0.6688 -0.3264 -0.3056
11853TIP3    H157050   3.296   3.534  11.938 -3.7463 -1.0390 -1.2432
11853TIP3    H257051   3.231   3.625  12.040  0.6439  0.5429  0.3815
11854TIP3   OH257052   3.490   2.598   5.323 -0.8269  0.3121 -0.7951
11854TIP3    H157053   3.539   2.530   5.276  3.4044  0.9912  2.1546
11854TIP3    H257054   3.491   2.673   5.264 -1.5919 -0.7716 -2.2511
11855TIP3   OH257055   3.587   3.446   1.094 -0.6522  0.5623 -0.4442
11855TIP3    H157056   3.502   3.489   1.088 -0.1544  1.4686 -1.2470
11855TIP3    H257057   3.647   3.503   1.045  0.0434 -1.0164 -1.5056
11856TIP3   OH257058   1.347   6.452  15.896  0.6504  0.1482 -0.0097
11856TIP3    H157059   1.257   6.476  15.920  0.1902 -0.4614 -1.0390
11856TIP3    H257060   1.398   6.531  15.911 -0.2436  0.8112 -0.3286
11857TIP3   OH257061   3.466   2.700  14.201 -0.5167 -0.0540 -0.1718
11857TIP3    H157062   3.441   2.625  14.147 -1.0053 -1.3018  1.6758
11857TIP3    H257063   3.559   2.688  14.217 -0.3341  0.4114 -0.8561
11858TIP3   OH257064   2.542   6.349  13.255  0.1880  0.4548 -0.3931
11858TIP3    H157065   2.509   6.336  13.344 -0.1794  1.6306 -0.3417
11858TIP3    H257066   2.473   6.315  13.198  0.1395  0.2899 -0.2346
11859TIP3   OH257067   4.388   0.658  11.050 -0.2315  0.6548  0.3920
11859TIP3    H157068   4.391   0.609  11.132  2.0429 -1.8237 -1.0174
11859TIP3    H257069   4.346   0.599  10.987  2.2723  0.4989 -1.2885
11860TIP3   OH257070   2.081   5.992  17.496 -0.4171  0.3347  0.2939
11860TIP3    H157071   1.995   5.985  17.455 -0.0780  0.6245 -0.4778
11860TIP3    H257072   2.093   5.908  17.541 -1.2495  0.4261  0.7084
11861TIP3   OH257073   0.524   0.448   3.428 -0.0694 -0.0087 -0.3654
11861TIP3    H157074   0.557   0.370   3.383  1.5416 -1.2481  2.6539
11861TIP3    H257075   0.595   0.511   3.421 -0.4373  0.3523 -0.8520
11862TIP3   OH257076   4.562   4.983  14.768 -0.0724 -0.1069 -0.4949
11862TIP3    H157077   4.642   5.032  14.788  0.4679 -1.5259  1.0433
11862TIP3    H257078   4.500   5.050  14.740  0.4375  1.6061  2.0872
11863TIP3   OH257079   6.003   3.818  16.159 -0.1576 -0.0233  0.5875
11863TIP3    H157080   6.021   3.878  16.086 -0.6541 -1.3200 -0.6501
11863TIP3    H257081   6.089   3.792  16.191  0.1513 -1.2391 -1.0925
11864TIP3   OH257082   4.724   3.270   0.075  0.2271 -0.5976  0.4234
11864TIP3    H157083   4.735   3.235  -0.013  0.3319  1.2900 -0.3645
11864TIP3    H257084   4.811   3.304   0.098  0.0226 -0.4061  0.9332
11865TIP3   OH257085   1.729   5.579  14.654 -0.1056  0.1340 -0.6443
11865TIP3    H157086   1.700   5.490  14.634 -0.7663  0.5824 -1.7511
11865TIP3    H257087   1.814   5.586  14.611  0.6265 -0.3957  0.6277
11866TIP3   OH257088   0.414   1.341   0.969 -0.1696  0.0594  0.3494
11866TIP3    H157089   0.501   1.377   0.989 -0.6913  0.9001  1.2124
11866TIP3    H257090   0.357   1.381   1.034 -1.2327 -0.3944 -0.2866
11867TIP3   OH257091   5.571   5.467  13.332  0.0259  0.1366 -0.4342
11867TIP3    H157092   5.571   5.545  13.387 -1.1212  0.1785 -0.4568
11867TIP3    H257093   5.636   5.409  13.372 -1.0685 -0.0050  1.2443
11868TIP3   OH257094   0.360   6.542  14.016  0.0801  0.2982 -0.0939
11868TIP3    H157095   0.285   6.496  14.053 -0.7497  0.8553 -1.0372
11868TIP3    H257096   0.435   6.512  14.068 -0.6364 -1.0510  0.1845
11869TIP3   OH257097   4.721   3.113   3.589 -0.5367 -0.3431  0.2242
11869TIP3    H157098   4.706   3.081   3.678 -1.1275  0.2947  0.3620
11869TIP3    H257099   4.788   3.181   3.599  1.3308 -2.0128 -0.1715
11870TIP3   OH257100   2.846   4.329  15.477 -0.2835 -0.3320  0.0879
11870TIP3    H157101   2.849   4.251  15.422 -0.1173  0.7798 -1.5446
11870TIP3    H257102   2.924   4.378  15.453 -1.1241  1.0151  0.0293
11871TIP3   OH257103   3.499   0.259   6.608  0.2052 -0.5124  0.4162
11871TIP3    H157104   3.539   0.340   6.578  1.8143 -0.8274  1.5925
11871TIP3    H257105   3.477   0.212   6.528  0.5612  0.4648 -0.2689
11872TIP3   OH257106   6.688   0.141   5.754 -0.0431 -0.4497  0.0371
11872TIP3    H157107   6.677   0.048   5.736  1.0514 -0.6424  0.2458
11872TIP3    H257108   6.703   0.181   5.668  0.0496 -0.5614  0.0006
11873TIP3   OH257109   4.753   0.038   3.701 -0.0298 -0.1049 -0.5186
11873TIP3    H157110   4.769   0.128   3.729  1.5672 -0.9167  1.4812
11873TIP3    H257111   4.798   0.030   3.617  1.7260  0.4245  0.3261
11874TIP3   OH257112   3.740   4.405  16.634 -0.3096  0.3978 -0.8082
11874TIP3    H157113   3.769   4.418  16.544 -2.6492 -0.4767 -1.7767
11874TIP3    H257114   3.694   4.486  16.656 -0.6210  0.2162 -0.7855
11875TIP3   OH257115   3.414   0.302   3.160 -0.6404 -0.7250  0.0211
11875TIP3    H157116   3.379   0.341   3.080 -1.9947 -1.0131  0.4508
11875TIP3    H257117   3.501   0.341   3.170 -1.3314  1.0148 -0.4077
11876TIP3   OH257118   5.394   5.945   2.569 -0.1596  0.0757  0.0005
11876TIP3    H157119   5.414   5.859   2.607 -0.7873 -0.2575 -0.4068
11876TIP3    H257120   5.329   5.983   2.629 -1.3120 -0.5396 -0.8252
11877TIP3   OH257121   4.429   0.354  13.252  0.3759  0.4581  0.0376
11877TIP3    H157122   4.337   0.351  13.225  0.0621  0.8863  1.0310
11877TIP3    H257123   4.435   0.293  13.325  0.4257  1.8589  1.2484
11878TIP3   OH257124   2.122   5.165  16.362 -0.3403 -0.1794  0.6341
11878TIP3    H157125   2.144   5.093  16.302 -2.3287 -1.1124  0.9356
11878TIP3    H257126   2.174   5.147  16.440  0.3590 -0.3913  0.1338
11879TIP3   OH257127   4.876   4.206  11.471  0.0391  0.0482  0.4317
11879TIP3    H157128   4.913   4.239  11.389  1.6205  0.3832  1.2483
11879TIP3    H257129   4.949   4.206  11.533 -1.1797  0.1137  1.9494
11880TIP3   OH257130   0.543   5.227  14.087  0.5675  0.9528  0.3326
11880TIP3    H157131   0.450   5.209  14.101  0.5899  0.4601 -0.1012
11880TIP3    H257132   0.559   5.310  14.132  0.5966 -0.4279  3.1202
11881TIP3   OH257133   4.912   0.304   2.953  0.8845  0.4172 -0.1145
11881TIP3    H157134   4.929   0.319   3.046 -2.8775 -0.4379  0.8678
11881TIP3    H257135   4.951   0.219   2.935 -0.1901 -0.4389  1.3466
11882TIP3   OH257136   5.634   5.532   5.909  0.2648  0.0107 -0.3201
11882TIP3    H157137   5.624   5.556   5.817  0.1073 -1.8439 -0.8173
11882TIP3    H257138   5.555   5.568   5.951 -1.5027 -2.1598 -1.5994
11883TIP3   OH257139   2.332   1.557   0.527 -0.2743  0.2881  0.0027
11883TIP3    H157140   2.339   1.522   0.438 -1.5959  0.7111 -0.2838
11883TIP3    H257141   2.420   1.588   0.547  0.4895 -1.4306 -0.4625
11884TIP3   OH257142   0.113   3.195   4.256 -0.3779  0.2610  0.2995
11884TIP3    H157143   0.147   3.186   4.345 -0.2232  0.8837  0.3073
11884TIP3    H257144   0.053   3.121   4.245  0.1588 -0.2331  0.6642
11885TIP3   OH257145   0.586   0.405  11.368  0.1803  0.6099  0.0401
11885TIP3    H157146   0.580   0.326  11.315 -1.7182 -0.0437  1.1199
11885TIP3    H257147   0.677   0.407  11.398 -0.0790 -2.1609  1.3500
11886TIP3   OH257148   6.431   5.828   3.438  0.2554  0.2063  0.4264
11886TIP3    H157149   6.514   5.863   3.469  0.0568 -0.0253  1.2603
11886TIP3    H257150   6.382   5.905   3.408  0.3720  0.4789  0.9188
11887TIP3   OH257151   6.174   5.899  12.909 -0.0745 -0.3185 -0.7388
11887TIP3    H157152   6.255   5.859  12.878 -0.5000 -1.6789 -0.1509
11887TIP3    H257153   6.105   5.840  12.880 -0.7114 -0.0753  0.2353
11888TIP3   OH257154   3.276   5.166   4.118 -0.0321 -0.2497 -0.3249
11888TIP3    H157155   3.314   5.253   4.121  1.8840 -0.9721 -1.8419
11888TIP3    H257156   3.303   5.124   4.199 -1.0359  0.5417  0.4515
11889TIP3   OH257157   5.841   4.919   3.450 -0.2140  0.3610 -0.0958
11889TIP3    H157158   5.861   4.928   3.357  0.9621 -0.2765  0.0781
11889TIP3    H257159   5.911   4.863   3.484 -2.0215 -1.5283  0.6912
11890TIP3   OH257160   4.135   4.514  12.471  0.0305  0.7553  1.1382
11890TIP3    H157161   4.220   4.503  12.427  0.3313  3.9194  0.6989
11890TIP3    H257162   4.081   4.444  12.436  1.2944  1.0466 -1.7041
11891TIP3   OH257163   1.255   1.091   0.277  0.0194 -0.2598  0.2320
11891TIP3    H157164   1.331   1.117   0.224  0.4740  0.4575  1.2030
11891TIP3    H257165   1.249   0.996   0.265 -0.3021 -0.0330 -1.6139
11892TIP3   OH257166   4.176   5.910  13.238 -0.4052 -0.0133 -0.1768
11892TIP3    H157167   4.096   5.910  13.290 -1.3695 -0.9899 -1.5933
11892TIP3    H257168   4.158   5.849  13.167  1.7680 -0.6084 -0.2836
11893TIP3   OH257169   0.874   1.219  11.303 -0.2875  0.2055 -0.0384
11893TIP3    H157170   0.876   1.310  11.331 -1.5868 -0.1576  1.3541
11893TIP3    H257171   0.860   1.169  11.384  1.1770 -1.2983 -0.6611
11894TIP3   OH257172   6.187   1.353  15.251  0.2068 -0.1057  0.0897
11894TIP3    H157173   6.153   1.340  15.163  1.0741  0.6701 -0.3799
11894TIP3    H257174   6.118   1.400  15.297  0.1897  0.4808 -0.5203
11895TIP3   OH257175   0.307   4.467   2.024 -0.2764  0.2124 -0.2091
11895TIP3    H157176   0.244   4.417   1.972  0.0452  0.6127 -1.0039
11895TIP3    H257177   0.255   4.507   2.093 -0.8626  0.4010 -0.7539
11896TIP3   OH257178   1.447   3.893  12.370  0.3055 -0.2764 -0.6719
11896TIP3    H157179   1.473   3.956  12.438 -0.3819  0.2204 -0.8672
11896TIP3    H257180   1.498   3.918  12.293  0.6904 -0.5164 -0.5034
11897TIP3   OH257181   4.381   1.744  13.687  0.0372  0.2192  0.4500
11897TIP3    H157182   4.339   1.821  13.727 -0.9220 -0.7453  1.3498
11897TIP3    H257183   4.462   1.733  13.737  0.9206  1.4755 -0.6278
11898TIP3   OH257184   3.666   3.150   3.666  0.3041  0.3208 -0.3346
11898TIP3    H157185   3.689   3.163   3.758  0.0578 -1.8786  0.0958
11898TIP3    H257186   3.669   3.238   3.628  0.5310  1.2743  1.7292
11899TIP3   OH257187   1.236   4.202  13.234 -0.3586  0.3189  0.6212
11899TIP3    H157188   1.149   4.194  13.274  0.2715  0.1764  2.0452
11899TIP3    H257189   1.280   4.119  13.256  0.4467  0.7678  0.7299
11900TIP3   OH257190   3.646   5.915   4.547 -0.1351  0.2353  0.2739
11900TIP3    H157191   3.637   5.966   4.467 -1.6277 -1.1849 -0.5288
11900TIP3    H257192   3.678   5.829   4.518 -1.7402 -0.6618  1.0256
11901TIP3   OH257193   1.578   3.614  13.346 -0.2348  0.0240 -0.6299
11901TIP3    H157194   1.564   3.566  13.264 -0.1247  0.7676 -1.0994
11901TIP3    H257195   1.566   3.549  13.415 -0.0565 -0.6799 -1.2505
11902TIP3   OH257196   4.194   4.863   6.270  0.3660  0.0955 -0.0265
11902TIP3    H157197   4.143   4.943   6.279  1.4223  0.5800  2.5052
11902TIP3    H257198   4.161   4.805   6.339 -0.5206 -1.8222 -1.9273
11903TIP3   OH257199   4.878   4.201  12.983  0.4121 -0.0598 -0.1016
11903TIP3    H157200   4.931   4.121  12.982 -0.4358 -0.6356 -0.3616
11903TIP3    H257201   4.796   4.175  12.941  0.2448  1.0390 -0.4837
11904TIP3   OH257202   0.162   2.658   2.853  0.5784  0.3727  0.3168
11904TIP3    H157203   0.238   2.607   2.883 -0.6240 -0.2662  2.4879
11904TIP3    H257204   0.148   2.722   2.923 -2.7710 -1.5967  1.6872
11905TIP3   OH257205   4.474   2.283   1.564  0.0199 -0.3647 -0.0899
11905TIP3    H157206   4.444   2.373   1.549  0.8278  0.2011  1.4464
11905TIP3    H257207   4.561   2.293   1.603  0.1271 -1.8224  0.0982
11906TIP3   OH257208   1.768   3.714   2.138 -0.0276 -0.3047  0.0472
11906TIP3    H157209   1.737   3.626   2.114  0.5022 -0.8665  1.2968
11906TIP3    H257210   1.690   3.760   2.166 -0.0741 -0.9967  1.1181
11907TIP3   OH257211   4.146   3.294  15.345  0.5311  0.3199  0.2936
11907TIP3    H157212   4.108   3.316  15.261  0.4032  1.5271  0.6479
11907TIP3    H257213   4.233   3.334  15.343  0.9414 -0.5461  0.3363
11908TIP3   OH257214   5.517   1.013   0.027  0.0187  0.3588 -0.1118
11908TIP3    H157215   5.575   1.088   0.033  0.0404  0.2709  0.9113
11908TIP3    H257216   5.502   0.986   0.118 -0.0129 -0.8503 -0.4550
11909TIP3   OH257217   3.272   5.021   4.369  0.0103  0.9046  0.1279
11909TIP3    H157218   3.247   4.936   4.407  2.0454  0.9286  1.6709
11909TIP3    H257219   3.201   5.080   4.393 -0.9444 -0.1130 -0.1043
11910TIP3   OH257220   0.296   4.303  11.794  0.0295 -0.2699 -0.3657
11910TIP3    H157221   0.382   4.309  11.837  0.5264 -1.1531 -1.2085
11910TIP3    H257222   0.313   4.255  11.713 -0.9027  1.2811 -1.5264
11911TIP3   OH257223   5.949   1.089  16.867  0.1772 -0.3016  0.4589
11911TIP3    H157224   5.929   1.147  16.940  0.8118 -0.5156  0.8112
11911TIP3    H257225   5.944   1.001  16.904 -2.7223 -0.6389 -0.5146
11912TIP3   OH257226   0.415   6.010  11.931 -0.1143 -0.0490 -0.4305
11912TIP3    H157227   0.393   5.938  11.990 -0.8538  0.3196 -0.2410
11912TIP3    H257228   0.336   6.022  11.879 -1.2248  2.6395  1.6206
11913TIP3   OH257229   1.125   3.692  13.856 -0.4403  0.0297  0.2881
11913TIP3    H157230   1.034   3.704  13.827 -0.2526 -1.5362 -1.0885
11913TIP3    H257231   1.123   3.613  13.910  0.2796 -0.7813 -0.8228
11914TIP3   OH257232   4.465   2.585  14.735  0.4327 -0.9202 -0.1391
11914TIP3    H157233   4.422   2.609  14.817 -2.0497 -0.1475 -1.5516
11914TIP3    H257234   4.453   2.491  14.727 -0.1173 -0.8655 -0.0028
11915TIP3   OH257235   4.993   2.143   1.530 -0.1206  0.0886  0.4611
11915TIP3    H157236   4.922   2.206   1.519 -0.3442 -0.3261 -0.6369
11915TIP3    H257237   5.034   2.138   1.443  2.0527  1.2304  1.3343
11916TIP3   OH257238   5.305   5.983  11.912  0.3266 -0.0617  0.0245
11916TIP3    H157239   5.220   6.007  11.949  0.2619  0.1923 -0.2782
11916TIP3    H257240   5.354   6.066  11.910  0.0379  0.1033 -1.2037
11917TIP3   OH257241   6.760   5.109  12.484  0.4699 -0.2554  0.0845
11917TIP3    H157242   6.751   5.199  12.516 -4.6013  0.8453 -3.2387
11917TIP3    H257243   6.714   5.057  12.550 -1.3234  0.5216 -0.4789
11918TIP3   OH257244   0.675   4.497   2.000 -0.3547 -0.0983  0.3741
11918TIP3    H157245   0.659   4.580   2.045  2.6414  0.3599  0.8027
11918TIP3    H257246   0.726   4.446   2.062 -0.4677 -1.5082 -0.6422
11919TIP3   OH257247   1.271   0.588  12.770 -0.0119 -0.3302 -0.0536
11919TIP3    H157248   1.213   0.664  12.767  0.0895 -0.2688 -0.6400
11919TIP3    H257249   1.357   0.624  12.793 -0.2478 -0.4562  1.0951
11920TIP3   OH257250   0.395   0.142  12.294  0.3266 -0.0509  0.6703
11920TIP3    H157251   0.351   0.112  12.214 -0.2331 -3.7700  2.1382
11920TIP3    H257252   0.484   0.109  12.285  0.8866  1.3738  0.7357
11921TIP3   OH257253   3.755   4.517   0.332  0.1393  0.2852 -0.2889
11921TIP3    H157254   3.838   4.492   0.373  0.3033  0.4634 -0.5120
11921TIP3    H257255   3.691   4.455   0.367  0.5393 -0.4448 -0.8336
11922TIP3   OH257256   2.768   2.491   6.547  0.4557  0.1326  0.1690
11922TIP3    H157257   2.707   2.463   6.479 -0.3262 -0.1257  0.9551
11922TIP3    H257258   2.847   2.439   6.530 -0.2589 -1.0808  0.3730
11923TIP3   OH257259   3.357   6.099  13.547  0.6100 -0.8925 -0.2496
11923TIP3    H157260   3.292   6.043  13.590 -1.9452  1.0732 -1.3418
11923TIP3    H257261   3.376   6.168  13.611 -2.6317  1.6076 -1.7297
11924TIP3   OH257262   5.918   4.763   4.448 -0.5103 -0.2088 -0.5414
11924TIP3    H157263   5.971   4.789   4.373  0.7735 -1.4233 -0.0959
11924TIP3    H257264   5.925   4.836   4.510 -0.6604  0.3126 -1.1356
11925TIP3   OH257265   1.964   2.984  13.225 -0.1514 -0.0172  0.3838
11925TIP3    H157266   1.996   3.023  13.306 -2.4356  1.0887  0.8400
11925TIP3    H257267   1.879   2.946  13.248 -0.9513  0.4899 -1.4784
11926TIP3   OH257268   4.476   4.808   6.222 -0.7020 -0.1024  0.2882
11926TIP3    H157269   4.518   4.876   6.169  0.1626 -1.3593 -0.6953
11926TIP3    H257270   4.386   4.837   6.231 -0.0959  1.7707  0.9161
11927TIP3   OH257271   4.860   1.670   5.604  0.0115 -0.1384 -0.0357
11927TIP3    H157272   4.839   1.716   5.685  2.8982  2.3770 -0.5303
11927TIP3    H257273   4.954   1.652   5.610 -0.5526 -4.4735 -0.7711
11928TIP3   OH257274   2.303   2.053   4.313 -0.6770 -0.1225 -1.2747
11928TIP3    H157275   2.291   2.135   4.361 -3.3123  0.6543 -3.0044
11928TIP3    H257276   2.320   1.988   4.380  1.3519  1.7614  0.1768
11929TIP3   OH257277   0.881   5.076   5.915 -0.1528  0.0997 -0.1266
11929TIP3    H157278   0.805   5.052   5.967  0.2903  0.5580  0.7435
11929TIP3    H257279   0.941   5.118   5.976  0.5367  0.3244 -0.9265
11930TIP3   OH257280   3.340   3.620   2.318 -0.6517 -0.5981 -0.1131
11930TIP3    H157281   3.330   3.532   2.353 -0.5881 -0.9896 -1.0628
11930TIP3    H257282   3.355   3.608   2.224  0.3937  0.3710 -0.0925
11931TIP3   OH257283   6.381   6.471   4.712 -0.1916 -0.0190  0.5847
11931TIP3    H157284   6.377   6.543   4.648 -0.6489  0.6268  1.3272
11931TIP3    H257285   6.436   6.504   4.783  0.9617 -1.0223  0.1965
11932TIP3   OH257286   4.674   4.747   6.994 -0.2769 -0.0090  0.0236
11932TIP3    H157287   4.630   4.753   7.079 -1.9528 -1.8287 -0.6329
11932TIP3    H257288   4.616   4.794   6.934 -0.5225 -1.0535 -0.5761
11933TIP3   OH257289   4.873   2.851  15.172  0.3513  0.2892 -0.3635
11933TIP3    H157290   4.852   2.757  15.171 -1.9568  0.7409 -2.2012
11933TIP3    H257291   4.906   2.867  15.261 -2.9059 -1.5442  1.3443
11934TIP3   OH257292   0.717   4.194  13.823  0.2823  0.6885  0.0343
11934TIP3    H157293   0.707   4.280  13.782  0.2790  1.5367  1.7252
11934TIP3    H257294   0.668   4.135  13.766 -0.7060  2.0080 -0.5487
11935TIP3   OH257295   5.783   2.946  16.963  0.3579 -0.0032 -0.0025
11935TIP3    H157296   5.716   2.950  16.895  0.6548 -1.0844 -0.3792
11935TIP3    H257297   5.775   3.030  17.010 -2.3718 -0.7249  1.0330
11936TIP3   OH257298   0.081   6.399  10.790  0.0760  0.9143  0.2990
11936TIP3    H157299   0.138   6.364  10.858  1.2980 -0.5523 -1.3695
11936TIP3    H257300   0.139   6.452  10.735 -0.1937 -0.2550 -1.1815
11937TIP3   OH257301   3.972   3.887  15.418 -0.1414  0.7724  0.5045
11937TIP3    H157302   4.058   3.914  15.451  0.5682  0.2969 -0.8802
11937TIP3    H257303   3.951   3.949  15.349 -0.4776  0.3337  0.2002
11938TIP3   OH257304   4.858   0.610   3.094 -0.4120 -0.1881  0.7928
11938TIP3    H157305   4.796   0.574   3.031  0.1687  0.3530 -0.0990
11938TIP3    H257306   4.813   0.687   3.130  0.0026  0.6397 -0.3942
11939TIP3   OH257307   6.543   1.265  11.160  0.0558 -0.3168 -0.4450
11939TIP3    H157308   6.613   1.225  11.212  1.1303  0.1575 -1.4833
11939TIP3    H257309   6.475   1.198  11.156  0.9908 -1.2991 -0.4844
11940TIP3   OH257310   3.378   2.879  14.997 -0.0143 -0.5017  0.1453
11940TIP3    H157311   3.368   2.913  15.086  1.3039  1.9780 -0.5798
11940TIP3    H257312   3.420   2.794  15.009  1.5340  0.4451  1.8513
11941TIP3   OH257313   5.188   5.742  11.772  0.1085  0.9044 -0.8177
11941TIP3    H157314   5.154   5.675  11.832  0.4336  1.5329  0.0830
11941TIP3    H257315   5.259   5.785  11.821  0.7253  1.0821 -1.8508
11942TIP3   OH257316   5.287   1.723   4.961 -0.5572 -0.5413  0.5000
11942TIP3    H157317   5.273   1.698   4.869 -0.2269 -0.3298  0.3907
11942TIP3    H257318   5.201   1.754   4.991 -0.3446  0.7122 -0.1496
11943TIP3   OH257319   0.523   4.670  13.237 -0.4962  0.0873 -0.2461
11943TIP3    H157320   0.482   4.753  13.215  0.4481  0.6615  0.0892
11943TIP3    H257321   0.488   4.608  13.173 -2.0239  0.4892  0.1586
11944TIP3   OH257322   0.536   5.265  12.966 -0.0134 -0.1581  0.2360
11944TIP3    H157323   0.580   5.213  12.898  0.4860  1.5844 -0.8656
11944TIP3    H257324   0.602   5.275  13.035  0.1560 -0.3490  0.1027
11945TIP3   OH257325   4.519   1.197   3.226 -0.0547  0.0771 -0.5934
11945TIP3    H157326   4.447   1.256   3.249  1.6027  1.6012  1.0611
11945TIP3    H257327   4.522   1.199   3.131 -3.2251 -1.4206 -0.8493
11946TIP3   OH257328   5.102   4.947   1.880  0.1005 -0.1681  0.1536
11946TIP3    H157329   5.022   4.985   1.914  0.6343  1.1115  0.0360
11946TIP3    H257330   5.172   4.983   1.934  0.6252 -1.1197  0.1416
11947TIP3   OH257331   2.097   4.306  15.235 -0.3057  0.0289  0.5405
11947TIP3    H157332   2.062   4.361  15.305  0.8630 -0.2564  1.3705
11947TIP3    H257333   2.120   4.224  15.278  2.0062  0.4367  0.1915
11948TIP3   OH257334   2.072   6.473  15.249 -0.0355  0.1266 -0.4201
11948TIP3    H157335   2.113   6.388  15.232  0.3460  0.3610 -0.6749
11948TIP3    H257336   1.986   6.466  15.207 -0.2739 -0.3728  0.1333
11949TIP3   OH257337   4.711   4.727  13.617  0.3367  0.3645  0.2591
11949TIP3    H157338   4.754   4.702  13.535 -0.1852 -1.5192  0.5149
11949TIP3    H257339   4.765   4.685  13.685  0.3432  1.2986  0.8382
11950TIP3   OH257340   6.511   3.419  13.994 -0.4322 -0.0379  0.1283
11950TIP3    H157341   6.455   3.377  14.059  0.7041 -0.7392  0.6791
11950TIP3    H257342   6.582   3.458  14.044  0.0795  0.0262 -0.6250
11951TIP3   OH257343   1.491   6.474  17.256  0.1017  0.3978  0.2967
11951TIP3    H157344   1.415   6.451  17.202  0.0695  1.2095 -0.0144
11951TIP3    H257345   1.514   6.563  17.228  0.1476  0.7953  1.5465
11952TIP3   OH257346   2.805   0.084  16.927 -0.3914 -0.1077  0.0518
11952TIP3    H157347   2.843   0.113  17.010 -3.0773  0.9707  1.0067
11952TIP3    H257348   2.881   0.070  16.869  1.4455  1.1734  2.0112
11953TIP3   OH257349   5.421   1.416  16.002  0.6972  0.5936 -0.1707
11953TIP3    H157350   5.436   1.510  16.013  0.0584  0.4454  2.9853
11953TIP3    H257351   5.327   1.407  15.988  0.9542  0.4650 -2.0281
11954TIP3   OH257352   6.534   2.825   2.390 -0.1680 -0.1391 -0.8852
11954TIP3    H157353   6.604   2.807   2.452  0.2071  0.1442 -1.2211
11954TIP3    H257354   6.498   2.739   2.368  0.3731 -0.3267 -1.0543
11955TIP3   OH257355   1.101   5.384   5.245 -0.7863 -0.1417  0.0766
11955TIP3    H157356   1.138   5.297   5.260  2.2160  1.0139  0.0180
11955TIP3    H257357   1.161   5.444   5.290 -2.1450  1.9978 -0.8108
11956TIP3   OH257358   6.451   3.190  12.656  0.4612  0.1124 -0.7327
11956TIP3    H157359   6.431   3.124  12.722 -1.2308 -0.1672 -1.4804
11956TIP3    H257360   6.410   3.157  12.575  0.4295  1.5798 -1.3476
11957TIP3   OH257361   2.106   3.749  11.844  0.9195  0.0315 -0.1778
11957TIP3    H157362   2.143   3.789  11.922  1.0441 -0.5179  0.0500
11957TIP3    H257363   2.020   3.790  11.834  2.1117  2.3900 -1.5512
11958TIP3   OH257364   2.698   3.769   4.005 -0.0318 -1.1713 -0.4874
11958TIP3    H157365   2.686   3.675   3.996  0.9341 -1.2514 -1.0865
11958TIP3    H257366   2.609   3.804   4.016 -0.3613 -2.1851  0.1748
11959TIP3   OH257367   4.533   5.542  13.491  0.4265  0.0174  0.3968
11959TIP3    H157368   4.576   5.480  13.433 -0.0047  0.1658 -0.0853
11959TIP3    H257369   4.570   5.627  13.468 -0.4081  0.2017 -0.3009
11960TIP3   OH257370   3.540   1.298   5.405 -0.3966 -0.0374 -0.1046
11960TIP3    H157371   3.627   1.336   5.391 -1.2076  1.8146 -0.4098
11960TIP3    H257372   3.539   1.220   5.350  0.5734  0.7311 -1.2711
11961TIP3   OH257373   5.805   0.739   4.800 -0.3366 -0.5581 -0.1459
11961TIP3    H157374   5.737   0.682   4.765 -0.5062 -0.8662  0.6655
11961TIP3    H257375   5.834   0.791   4.725  0.0048 -1.8824 -0.9667
11962TIP3   OH257376   3.230   5.511  13.743  0.3368 -0.3671  0.8040
11962TIP3    H157377   3.145   5.503  13.787  1.0981 -2.0818  2.0860
11962TIP3    H257378   3.217   5.468  13.658 -0.0230 -0.8558  1.0978
11963TIP3   OH257379   1.827   4.088   2.031 -0.0716  0.9262 -0.1814
11963TIP3    H157380   1.922   4.079   2.030  0.0417  1.9218 -1.7967
11963TIP3    H257381   1.803   4.081   2.124  1.6966  1.8530  0.3915
11964TIP3   OH257382   6.038   0.177   4.289 -0.1909 -0.0078 -0.0324
11964TIP3    H157383   5.971   0.118   4.326  1.0117 -1.6708 -0.3948
11964TIP3    H257384   6.098   0.193   4.362  0.6494 -1.0176 -0.4707
11965TIP3   OH257385   6.050   5.756   5.505  0.0998  0.8909  0.0906
11965TIP3    H157386   6.002   5.833   5.474 -0.4293  0.9119  0.9321
11965TIP3    H257387   6.023   5.686   5.447  1.2754  1.5092 -1.2620
11966TIP3   OH257388   6.392   3.142  14.599  0.2818 -0.2041  0.3341
11966TIP3    H157389   6.421   3.133  14.690  0.3754 -0.7682  0.2509
11966TIP3    H257390   6.381   3.236  14.586  0.5440 -0.1033  0.8447
11967TIP3   OH257391   1.404   4.818  14.316  0.0773 -0.3088  0.2545
11967TIP3    H157392   1.483   4.808  14.264 -0.2301  0.6434 -0.4056
11967TIP3    H257393   1.334   4.829  14.252 -0.2593  1.2291  0.8487
11968TIP3   OH257394   4.762   3.696   0.725  0.0729 -0.2476  0.3525
11968TIP3    H157395   4.788   3.638   0.797 -1.4619 -0.2023  0.9834
11968TIP3    H257396   4.712   3.765   0.767  0.8638  0.9181 -0.5427
11969TIP3   OH257397   4.649   5.361  16.721 -0.4289  0.1131  0.5134
11969TIP3    H157398   4.589   5.359  16.647  0.7708  0.7729 -0.5100
11969TIP3    H257399   4.602   5.411  16.789 -0.8281  1.0986 -0.4617
11970TIP3   OH257400   5.286   0.650  12.407 -0.1577 -0.3014 -0.0312
11970TIP3    H157401   5.242   0.699  12.477 -1.3307 -1.1352 -0.1605
11970TIP3    H257402   5.338   0.716  12.361  0.6114  0.2658  1.5934
11971TIP3   OH257403   0.178   3.649   1.821  0.4344  0.0488  0.0889
11971TIP3    H157404   0.135   3.598   1.890  0.2957 -0.7164 -0.5550
11971TIP3    H257405   0.112   3.655   1.752 -0.0954  2.3279  0.6870
11972TIP3   OH257406   2.071   1.899   5.882 -0.1955 -0.0176 -0.1620
11972TIP3    H157407   2.137   1.905   5.813 -1.0957 -1.9804 -1.2784
11972TIP3    H257408   1.995   1.858   5.839 -1.4846  0.4979  1.5240
11973TIP3   OH257409   6.390   4.920  15.418 -0.4282  0.2823  0.0241
11973TIP3    H157410   6.315   4.861  15.425 -0.7554  0.6407 -0.4300
11973TIP3    H257411   6.369   4.977  15.345  0.1161  0.6366  0.1389
11974TIP3   OH257412   4.176   0.853   5.930  0.1946 -0.4593  0.0645
11974TIP3    H157413   4.173   0.782   5.995  0.2031  0.0195  0.5889
11974TIP3    H257414   4.164   0.808   5.846 -0.2464 -1.0339  0.4238
11975TIP3   OH257415   0.119   3.688  14.624  0.1995 -0.0853 -0.6971
11975TIP3    H157416   0.052   3.753  14.644  1.0341  0.3142  1.0093
11975TIP3    H257417   0.074   3.623  14.570 -1.3331  0.5871 -0.2969
11976TIP3   OH257418   5.809   6.280   2.472 -0.1752  0.0456  0.0150
11976TIP3    H157419   5.844   6.193   2.455 -2.2906 -0.7466 -0.5331
11976TIP3    H257420   5.817   6.326   2.389  1.8740  0.7666  0.5636
11977TIP3   OH257421   6.028   2.883   6.086 -0.0166  0.0368 -0.2880
11977TIP3    H157422   6.003   2.967   6.049 -2.5074 -1.0899 -1.3556
11977TIP3    H257423   5.996   2.885   6.176 -0.1202  0.1849 -0.3284
11978TIP3   OH257424   5.761   3.350  14.629  0.2597 -0.4515  0.1893
11978TIP3    H157425   5.725   3.321  14.713  0.0930 -4.1567 -0.9924
11978TIP3    H257426   5.686   3.386  14.582 -0.1298 -0.4930  0.7726
11979TIP3   OH257427   1.910   2.703   5.729 -0.2749  0.0591  0.0878
11979TIP3    H157428   1.833   2.744   5.691  1.2872  1.9825 -1.2108
11979TIP3    H257429   1.929   2.754   5.808  1.0392  1.2229 -0.9326
11980TIP3   OH257430   5.652   2.945  15.094  0.8908 -0.4324 -0.1751
11980TIP3    H157431   5.644   2.872  15.157  0.5917  0.3486  0.7180
11980TIP3    H257432   5.722   3.000  15.129  0.1218  0.4796 -0.0352
11981TIP3   OH257433   3.367   1.315  15.433  0.2355 -0.0235  0.2710
11981TIP3    H157434   3.441   1.345  15.486  0.3753 -1.4053  0.9216
11981TIP3    H257435   3.310   1.392  15.424  0.2286  0.2882  2.4388
11982TIP3   OH257436   3.411   1.273  14.761 -0.1028  0.3287  0.1044
11982TIP3    H157437   3.367   1.338  14.816  0.8575  0.2903  0.9477
11982TIP3    H257438   3.367   1.281  14.676  1.0195  3.2513 -0.3442
11983TIP3   OH257439   0.074   5.847   3.114  0.1148 -1.3579  0.2202
11983TIP3    H157440  -0.005   5.863   3.061  1.1895 -0.7628 -1.2645
11983TIP3    H257441   0.059   5.895   3.195 -1.3349 -1.8242  0.2591
11984TIP3   OH257442   3.026   3.269  16.558 -0.2986 -0.4078 -0.9215
11984TIP3    H157443   2.958   3.294  16.621  0.1421  0.9453 -0.9624
11984TIP3    H257444   3.105   3.257  16.611 -0.0719  0.1312 -1.1263
11985TIP3   OH257445   3.033   2.950   3.582  0.2281  0.5603  0.4589
11985TIP3    H157446   3.090   2.877   3.557  0.6351  0.5743  1.3018
11985TIP3    H257447   3.094   3.020   3.605 -0.1597  1.3212 -0.7515
11986TIP3   OH257448   1.722   1.052  17.273  0.1699 -0.3528 -0.2770
11986TIP3    H157449   1.661   1.017  17.339 -1.1266  0.5646 -0.9490
11986TIP3    H257450   1.741   0.978  17.216 -0.7362 -0.5442 -0.3492
11987TIP3   OH257451   6.553   5.163  17.199  0.2086  0.7111  0.4103
11987TIP3    H157452   6.514   5.122  17.121 -0.6230  0.8768  0.7317
11987TIP3    H257453   6.647   5.150  17.188 -0.0286 -1.6105  0.6590
11988TIP3   OH257454   1.742   4.058  16.430 -0.2178  0.3256  0.1475
11988TIP3    H157455   1.738   4.060  16.525 -0.4126  1.2227  0.1267
11988TIP3    H257456   1.820   4.109  16.408 -0.7268  0.9594 -0.2078
11989TIP3   OH257457   4.586   1.331  11.730 -0.0076 -0.2750 -0.1692
11989TIP3    H157458   4.554   1.255  11.682 -1.2237  0.0362  0.1062
11989TIP3    H257459   4.537   1.405  11.693 -2.2188 -0.2097  2.5606
11990TIP3   OH257460   1.952   1.523  15.612 -0.7805  0.4231  0.2644
11990TIP3    H157461   1.924   1.529  15.704  0.9742  1.0016  0.8081
11990TIP3    H257462   1.891   1.580  15.565  0.3306  2.9075  1.6120
11991TIP3   OH257463   2.051   3.273   4.318  0.5835  0.0645 -0.5986
11991TIP3    H157464   2.070   3.193   4.367 -0.7015 -0.4896 -0.9525
11991TIP3    H257465   1.969   3.254   4.271  0.3394  1.5231 -0.8331
11992TIP3   OH257466   4.053   6.667   3.786  0.2509  0.0762 -0.1920
11992TIP3    H157467   4.073   6.647   3.877  1.6034  0.3606 -0.4057
11992TIP3    H257468   4.118   6.618   3.736  0.4244  1.0312 -0.9299
11993TIP3   OH257469   4.233   6.768  11.771  0.2973 -0.0995  0.1021
11993TIP3    H157470   4.224   6.792  11.679  0.5760 -0.4986 -0.0357
11993TIP3    H257471   4.326   6.746  11.781 -0.0678 -1.8885  0.0006
11994TIP3   OH257472   5.870   3.492   2.903 -0.2843  0.0576  0.3761
11994TIP3    H157473   5.831   3.409   2.930  1.7119 -0.7976  0.8408
11994TIP3    H257474   5.858   3.494   2.808 -1.6054 -0.0470  0.5159
11995TIP3   OH257475   6.396   2.745   2.071 -0.0113  0.1289 -0.0851
11995TIP3    H157476   6.303   2.727   2.078 -0.2167  1.4239  1.0839
11995TIP3    H257477   6.439   2.666   2.104 -0.7549  0.1540  0.9964
11996TIP3   OH257478   3.529   0.912  13.608  0.6483 -0.0046  0.5315
11996TIP3    H157479   3.476   0.985  13.574 -1.2236 -1.4549  0.1948
11996TIP3    H257480   3.483   0.884  13.687  0.3852 -1.8561 -0.2340
11997TIP3   OH257481   4.894   5.686   0.381 -0.0419  0.5131  0.2148
11997TIP3    H157482   4.911   5.598   0.417  1.6944  0.4652 -0.6263
11997TIP3    H257483   4.832   5.671   0.310 -0.6503  0.1292  0.8175
11998TIP3   OH257484   4.410   6.483  15.152 -0.4632  0.5061  0.1108
11998TIP3    H157485   4.388   6.548  15.085 -2.0059  0.3920  0.4714
11998TIP3    H257486   4.357   6.507  15.228  1.1839  0.5767  1.2976
11999TIP3   OH257487   5.462   1.917   4.844  0.2026 -0.4177  0.4490
11999TIP3    H157488   5.385   1.891   4.894  1.6635 -2.0008  2.0172
11999TIP3    H257489   5.471   2.011   4.860  0.5048 -0.8269  3.1145
12000TIP3   OH257490   5.836   6.403   2.925  0.2932 -0.3863  0.0663
12000TIP3    H157491   5.916   6.425   2.973  0.2150  3.3774 -1.1996
12000TIP3    H257492   5.780   6.360   2.989  2.4534 -1.1940  1.5524
12001TIP3   OH257493   2.734   2.554  13.224 -0.3751 -0.7168 -0.5664
12001TIP3    H157494   2.763   2.493  13.156 -0.9224 -1.9688  0.3028
12001TIP3    H257495   2.792   2.539  13.297 -2.1529 -2.1545  0.6355
12002TIP3   OH257496   4.179   1.130  14.526  0.1224 -0.4230 -0.5285
12002TIP3    H157497   4.224   1.187  14.588  1.6944 -1.0984 -0.9945
12002TIP3    H257498   4.195   1.171  14.440  0.0099 -0.7790 -0.7225
12003TIP3   OH257499   3.139   4.582  14.693 -0.3580 -0.2020  0.1274
12003TIP3    H157500   3.212   4.557  14.637 -0.3845  2.3599 -1.1861
12003TIP3    H257501   3.074   4.513  14.680  1.0018 -1.4615 -0.2379
12004TIP3   OH257502   5.874   5.032  10.870  0.4735 -0.1810 -0.2785
12004TIP3    H157503   5.838   5.113  10.906  1.1893  0.3055 -0.6404
12004TIP3    H257504   5.801   4.970  10.875 -0.6471  0.9553 -1.5986
12005TIP3   OH257505   0.269   1.322   3.524  0.4276 -0.0153 -0.1761
12005TIP3    H157506   0.220   1.295   3.446  0.1763 -0.9380  0.2844
12005TIP3    H257507   0.246   1.414   3.537  0.6089  0.1991 -1.2894
12006TIP3   OH257508   6.742   1.385  11.604  0.4678  0.0580  0.0133
12006TIP3    H157509   6.779   1.337  11.678  0.0687  0.3425  0.3959
12006TIP3    H257510   6.815   1.438  11.572  0.6190 -0.0096  0.2418
12007TIP3   OH257511   6.310   4.568  11.206  0.0214 -0.6462 -0.1035
12007TIP3    H157512   6.224   4.539  11.238  0.6735 -1.2002  1.2073
12007TIP3    H257513   6.327   4.513  11.130 -0.5917 -0.8385 -0.1076
12008TIP3   OH257514   0.854   1.351  17.007  0.2703  0.0762  0.1512
12008TIP3    H157515   0.845   1.435  17.051  0.8724 -0.6995  1.8741
12008TIP3    H257516   0.944   1.351  16.973  0.9080 -0.5342  1.7395
12009TIP3   OH257517   1.346   1.572  16.611  0.0810  0.0901  0.2407
12009TIP3    H157518   1.336   1.619  16.528 -0.4614 -0.2204  0.1317
12009TIP3    H257519   1.440   1.550  16.614  0.0508 -0.1690 -0.4375
12010TIP3   OH257520   4.387   2.416   4.568  0.1471 -0.1468  0.1370
12010TIP3    H157521   4.394   2.416   4.664 -0.0918  2.3705  0.2330
12010TIP3    H257522   4.294   2.404   4.551 -0.0923  1.2453  0.3387
12011TIP3   OH257523   0.395   2.830  12.092  0.0657 -0.5486 -0.6641
12011TIP3    H157524   0.320   2.786  12.054 -0.0663 -0.6073 -0.3312
12011TIP3    H257525   0.452   2.759  12.122  0.0137 -0.4957 -0.4437
12012TIP3   OH257526   2.396   5.584   5.143 -0.3057  0.4176  0.3063
12012TIP3    H157527   2.491   5.581   5.150 -0.2980 -0.3631 -0.0154
12012TIP3    H257528   2.378   5.572   5.049 -0.7207  0.5074  0.3700
12013TIP3   OH257529   4.389   2.699  11.842  0.1296 -0.2225  0.4079
12013TIP3    H157530   4.483   2.699  11.861  0.9815 -1.3032 -3.0846
12013TIP3    H257531   4.369   2.789  11.818 -0.0003  0.1968  1.9434
12014TIP3   OH257532   0.460   5.196   3.637 -0.3324  0.1982 -0.0903
12014TIP3    H157533   0.379   5.204   3.588 -0.6590 -1.2940  0.1554
12014TIP3    H257534   0.516   5.141   3.581  0.3979  0.9661 -0.1255
12015TIP3   OH257535   2.960   4.097   0.343  0.6008 -0.3624 -0.6299
12015TIP3    H157536   3.002   4.014   0.363 -0.8337 -0.6304  1.6196
12015TIP3    H257537   2.986   4.116   0.252  2.5737 -2.2211 -0.5252
12016TIP3   OH257538   4.309   0.837  17.032  0.4263  0.1097 -0.2913
12016TIP3    H157539   4.336   0.914  16.982  1.4941 -0.5331 -0.7507
12016TIP3    H257540   4.382   0.821  17.093  0.3115 -0.6385 -0.3403
12017TIP3   OH257541   6.011   2.494   5.780  0.3344 -0.4203  0.0796
12017TIP3    H157542   5.996   2.563   5.844  0.3131 -0.1569 -0.2087
12017TIP3    H257543   5.943   2.506   5.714  1.4563  0.4728 -0.9632
12018TIP3   OH257544   4.642   5.633   4.347  0.3867  0.3027  0.0031
12018TIP3    H157545   4.553   5.640   4.312  0.2073 -2.5916 -0.3636
12018TIP3    H257546   4.693   5.696   4.296 -1.0649  0.6064 -1.1531
12019TIP3   OH257547   5.370   5.454   5.446  0.6977  0.4602  0.4795
12019TIP3    H157548   5.368   5.358   5.440  0.4407  0.3375  2.1712
12019TIP3    H257549   5.438   5.480   5.383  0.2349 -0.7593 -0.5843
12020TIP3   OH257550   5.764   1.796  15.117  0.0777  0.4256  0.2069
12020TIP3    H157551   5.673   1.813  15.092 -0.0121  0.3104  0.4564
12020TIP3    H257552   5.768   1.702  15.131  1.0810 -0.2183 -3.2887
12021TIP3   OH257553   5.355   0.271  16.232  0.2310 -0.0754 -0.1939
12021TIP3    H157554   5.305   0.337  16.183 -0.3984 -1.4542 -1.4811
12021TIP3    H257555   5.392   0.319  16.306  0.1867  1.8240 -1.3410
12022TIP3   OH257556   4.924   5.920  11.083  0.0114 -0.3394 -0.0696
12022TIP3    H157557   4.857   5.911  11.150 -2.2084 -0.8905 -2.2427
12022TIP3    H257558   5.002   5.880  11.122 -0.8500  0.2928  2.5269
12023TIP3   OH257559   6.543   5.284  12.913  1.1848 -0.1261 -0.0116
12023TIP3    H157560   6.491   5.301  12.991 -1.3716  1.6916 -1.9648
12023TIP3    H257561   6.505   5.204  12.876  1.1038  0.0798 -0.3810
12024TIP3   OH257562   4.328   3.093  12.726  0.7822 -0.8254 -0.0295
12024TIP3    H157563   4.321   3.003  12.758 -0.3138 -0.9741 -0.6250
12024TIP3    H257564   4.304   3.087  12.633 -1.1028  0.3177  0.3301
12025TIP3   OH257565   2.246   6.641  17.461  0.4018 -0.0780  0.5898
12025TIP3    H157566   2.204   6.602  17.538 -0.3656  0.9710  0.7345
12025TIP3    H257567   2.241   6.735  17.477  1.6970  0.1095 -0.0056
12026TIP3   OH257568   3.409   4.217   2.396  0.0109 -0.0683 -0.4334
12026TIP3    H157569   3.491   4.231   2.443 -0.1249  1.4700 -0.5922
12026TIP3    H257570   3.421   4.134   2.350  0.9536 -0.5314  0.6000
12027TIP3   OH257571   2.967   3.402   4.069 -0.5250  0.1087 -0.3107
12027TIP3    H157572   2.955   3.382   4.162 -0.6081  0.3507 -0.2672
12027TIP3    H257573   2.927   3.488   4.058 -0.4918  0.0922 -0.5658
12028TIP3   OH257574   0.115   4.250   5.150 -0.4477  0.3492 -0.0311
12028TIP3    H157575   0.142   4.305   5.077 -1.3812  0.3788 -0.3626
12028TIP3    H257576   0.095   4.165   5.111 -0.7722  0.3118  0.2082
12029TIP3   OH257577   1.794   2.390  10.475  0.4373 -0.5554  0.2955
12029TIP3    H157578   1.820   2.468  10.525  0.1390 -0.4440  0.2842
12029TIP3    H257579   1.699   2.385  10.488  0.3379 -0.4595 -0.3455
12030TIP3   OH257580   2.058   5.669   2.685  0.7881  0.0418  0.2426
12030TIP3    H157581   2.118   5.711   2.747  0.9136  1.9501 -1.0811
12030TIP3    H257582   2.040   5.584   2.724  1.9105  0.6266  2.2216
12031TIP3   OH257583   5.114   3.056   5.428 -0.3485  0.3088 -0.3375
12031TIP3    H157584   5.058   2.979   5.425  0.6175 -0.3859 -1.0778
12031TIP3    H257585   5.080   3.114   5.359 -1.5342  0.9027  0.7037
12032TIP3   OH257586   3.082   1.161  10.623  0.4572  0.1024  0.4694
12032TIP3    H157587   3.032   1.121  10.552 -1.4519  1.7040  0.8350
12032TIP3    H257588   3.066   1.104  10.698 -0.0584  0.0801  0.3486
12033TIP3   OH257589   4.573   6.226   3.464 -0.1169 -0.5898 -0.2663
12033TIP3    H157590   4.588   6.164   3.535 -1.1427  0.7198  1.1578
12033TIP3    H257591   4.660   6.242   3.428  0.4518 -1.1482  0.8098
12034TIP3   OH257592   3.874   0.971   2.245  0.1830 -0.0463 -0.2828
12034TIP3    H157593   3.957   1.018   2.233 -0.2394  0.7900 -0.0006
12034TIP3    H257594   3.826   0.986   2.164 -0.1881  0.5069  0.0324
12035TIP3   OH257595   6.273   1.734   1.576 -0.0951 -0.1613 -0.4478
12035TIP3    H157596   6.228   1.714   1.493 -1.5780 -0.7837  0.4600
12035TIP3    H257597   6.366   1.729   1.555 -0.4396 -0.3684 -2.0554
12036TIP3   OH257598   3.731   2.415   1.912 -0.0263  0.2180  0.1614
12036TIP3    H157599   3.802   2.397   1.850  1.5147  0.1280  1.8637
12036TIP3    H257600   3.761   2.377   1.995 -2.2099 -0.0546  0.8787
12037TIP3   OH257601   0.508   1.569   0.438 -0.1828 -0.2436 -0.0625
12037TIP3    H157602   0.505   1.478   0.468 -0.2826 -0.6095 -1.1410
12037TIP3    H257603   0.430   1.578   0.384  1.0610 -0.2350 -1.9132
12038TIP3   OH257604   4.936   6.456  14.704 -0.4767  0.3408 -0.3388
12038TIP3    H157605   4.919   6.367  14.735  0.3527 -0.1890 -1.3229
12038TIP3    H257606   4.893   6.460  14.619  0.1587  0.6029 -0.6545
12039TIP3   OH257607   4.135   4.729  15.038 -0.3059 -0.1499 -0.0354
12039TIP3    H157608   4.085   4.714  15.118 -1.3761 -1.6344 -0.9367
12039TIP3    H257609   4.227   4.723  15.065 -0.6470 -2.0839  0.8663
12040TIP3   OH257610   5.361   2.878   0.129  0.3212  0.2500 -0.2302
12040TIP3    H157611   5.315   2.931   0.064 -0.3793  2.0397  1.6236
12040TIP3    H257612   5.299   2.869   0.202  1.6790 -0.1740  0.9241
12041TIP3   OH257613   1.106   2.965  16.413 -0.8489 -0.1580 -0.1897
12041TIP3    H157614   1.152   2.941  16.332  0.8336 -0.2399  0.7506
12041TIP3    H257615   1.082   2.881  16.453 -1.0653 -0.1269 -0.2504
12042TIP3   OH257616   0.550   4.620  16.001  0.3233  0.1504  0.2493
12042TIP3    H157617   0.494   4.610  15.924  1.1210  2.1289 -0.6703
12042TIP3    H257618   0.494   4.598  16.075 -0.7231 -0.9636 -0.8377
12043TIP3   OH257619   5.971   1.496   4.588 -0.6456 -0.1857 -0.2030
12043TIP3    H157620   5.879   1.473   4.598 -0.7878  1.0268  1.8388
12043TIP3    H257621   6.011   1.472   4.672  1.2675 -2.0890 -1.5604
12044TIP3   OH257622   4.690   3.433  15.434 -0.5624 -0.3812  0.2834
12044TIP3    H157623   4.764   3.431  15.373 -0.1786  2.7067  0.5072
12044TIP3    H257624   4.717   3.376  15.506  0.3844 -1.4632 -0.8774
12045TIP3   OH257625   2.063   1.982   0.204  0.4452 -0.0428  0.0790
12045TIP3    H157626   1.970   1.990   0.221  0.3023 -0.3638 -0.5302
12045TIP3    H257627   2.071   1.907   0.144  1.1653 -0.5446  0.7628
12046TIP3   OH257628   5.911   5.150   0.585 -0.5812 -0.4359  0.2834
12046TIP3    H157629   5.891   5.105   0.502  0.3363 -1.1658  0.4505
12046TIP3    H257630   5.996   5.190   0.570  0.0446 -1.3868  1.1922
12047TIP3   OH257631   0.711   2.930   3.427 -0.2748 -0.0267 -0.2085
12047TIP3    H157632   0.803   2.925   3.454  0.3611 -1.8401 -2.4196
12047TIP3    H257633   0.679   3.012   3.467  1.1798 -1.0984  3.6482
12048TIP3   OH257634   1.870   1.807  16.288 -0.5071  0.1610  0.6539
12048TIP3    H157635   1.830   1.856  16.359 -0.0505 -0.6729  1.5038
12048TIP3    H257636   1.806   1.737  16.268 -0.6646  0.4310  0.1900
12049TIP3   OH257637   6.387   5.888   4.884  0.1488  0.3155 -0.2280
12049TIP3    H157638   6.321   5.829   4.919 -0.1530  0.7288 -0.0945
12049TIP3    H257639   6.365   5.974   4.921 -0.5674  0.9042 -1.9043
12050TIP3   OH257640   2.199   6.264   7.047 -0.8629 -0.0270 -0.1768
12050TIP3    H157641   2.161   6.331   6.991 -0.1001  0.2984 -0.3218
12050TIP3    H257642   2.293   6.270   7.031 -0.5575  0.4971  1.5908
12051TIP3   OH257643   5.588   2.385  15.633  0.0971  0.1060 -0.0000
12051TIP3    H157644   5.538   2.306  15.613 -1.4462  0.0926  3.2203
12051TIP3    H257645   5.521   2.453  15.648  1.3383  1.7325 -1.4221
12052TIP3   OH257646   5.469   0.830  16.692  0.1054 -0.6142 -0.3395
12052TIP3    H157647   5.426   0.824  16.777 -0.0587 -1.3288 -0.4611
12052TIP3    H257648   5.544   0.886  16.706  0.5481 -1.3850  0.4751
12053TIP3   OH257649   4.392   2.687  16.441 -0.0960  0.3214 -0.4927
12053TIP3    H157650   4.330   2.700  16.512 -0.0827  0.3982 -0.4951
12053TIP3    H257651   4.462   2.750  16.458  0.4058 -0.3614 -0.0012
12054TIP3   OH257652   5.491   1.756  12.436  0.2689 -0.0093  0.7112
12054TIP3    H157653   5.482   1.663  12.418 -0.9448  0.2625 -0.2278
12054TIP3    H257654   5.403   1.792  12.423  1.1111  1.6093 -1.1113
12055TIP3   OH257655   2.814   4.067  15.861 -0.0512  0.1092  0.1663
12055TIP3    H157656   2.802   4.140  15.801  1.3849 -0.2609 -0.6110
12055TIP3    H257657   2.772   4.096  15.943 -0.2560  1.4337 -0.3871
12056TIP3   OH257658   2.705   0.941   1.117 -0.3763  0.3183 -0.8416
12056TIP3    H157659   2.652   1.016   1.090 -0.8279 -0.7820 -3.2653
12056TIP3    H257660   2.648   0.889   1.173 -0.1854  1.5509  0.5473
12057TIP3   OH257661   6.645   2.714  16.043  0.0457  0.3909 -0.1547
12057TIP3    H157662   6.573   2.776  16.034 -1.6885 -0.9409  2.9859
12057TIP3    H257663   6.704   2.754  16.107 -0.4261 -0.6109  0.9256
12058TIP3   OH257664   4.324   1.904  15.230  0.2571 -0.2150 -0.5870
12058TIP3    H157665   4.296   1.897  15.321  0.8277 -0.6517 -0.4397
12058TIP3    H257666   4.327   1.998  15.212  1.2995 -0.0891  0.2017
12059TIP3   OH257667   1.088   5.119   1.988 -0.1650 -0.1499 -0.0172
12059TIP3    H157668   1.015   5.106   1.927  1.5502 -1.6187 -1.8805
12059TIP3    H257669   1.113   5.211   1.976  0.5195 -0.5578 -2.0513
12060TIP3   OH257670   1.664   2.521   2.521  0.0067 -0.6790  0.0107
12060TIP3    H157671   1.687   2.428   2.530 -2.1195 -1.1854  0.6859
12060TIP3    H257672   1.679   2.540   2.428  1.7347 -1.2968  0.1170
12061TIP3   OH257673   4.318   5.136   2.965 -0.3590 -0.1000 -0.1309
12061TIP3    H157674   4.315   5.040   2.967 -0.7039 -0.0831  1.3565
12061TIP3    H257675   4.262   5.160   2.891 -0.9336 -1.0294 -0.0187
12062TIP3   OH257676   3.249   2.532   3.233 -0.1114  0.4996  0.0985
12062TIP3    H157677   3.246   2.461   3.168  0.3935 -0.2996  0.9351
12062TIP3    H257678   3.185   2.506   3.299  0.6068  0.4540  0.7803
12063TIP3   OH257679   6.560   0.792  15.943 -0.7133 -0.5350  0.4715
12063TIP3    H157680   6.645   0.783  15.899 -1.0860  0.3818 -0.4916
12063TIP3    H257681   6.538   0.704  15.972  0.7316 -0.7352  1.0711
12064TIP3   OH257682   2.991   4.812   2.514  0.3680  0.0544 -0.2045
12064TIP3    H157683   2.977   4.719   2.499  1.4407 -0.2388  0.5879
12064TIP3    H257684   3.032   4.818   2.600 -1.5728  1.4083  0.7027
12065TIP3   OH257685   0.646   1.260  13.043  0.0960 -0.2058  0.0589
12065TIP3    H157686   0.635   1.168  13.019 -0.5369 -0.1959  0.2910
12065TIP3    H257687   0.741   1.274  13.042  0.1297 -0.4021 -1.6417
12066TIP3   OH257688   0.748   2.583   1.518 -0.2625 -0.6870  0.1300
12066TIP3    H157689   0.819   2.581   1.582  1.2717 -0.4665 -1.4802
12066TIP3    H257690   0.741   2.675   1.492 -2.4636 -0.3716  1.6144
12067TIP3   OH257691   1.454   5.615   4.439  0.6713  0.1076  0.7508
12067TIP3    H157692   1.410   5.647   4.360  1.2060  0.8455  0.7502
12067TIP3    H257693   1.497   5.692   4.476  1.5102 -0.5004  1.0557
12068TIP3   OH257694   3.897   6.169  14.700  0.4253  0.2179 -0.2306
12068TIP3    H157695   3.809   6.137  14.684  0.4891 -0.2165  0.2404
12068TIP3    H257696   3.890   6.264  14.694 -0.2417  0.2315  0.6007
12069TIP3   OH257697   4.385   2.063  16.420 -0.3205 -0.2823  0.0895
12069TIP3    H157698   4.448   2.094  16.355  0.1259  0.6169  0.9324
12069TIP3    H257699   4.392   1.967  16.417  0.0195 -0.2378 -0.8565
12070TIP3   OH257700   6.216   6.705   4.795  0.2542  0.5748 -0.3194
12070TIP3    H157701   6.237   6.685   4.704  1.1471  0.2853 -0.0514
12070TIP3    H257702   6.298   6.692   4.843 -0.6623 -1.1939  0.8511
12071TIP3   OH257703   2.102   0.701  17.149 -0.3037 -0.3610  0.2325
12071TIP3    H157704   2.049   0.689  17.227 -1.0004  0.6034 -0.0671
12071TIP3    H257705   2.083   0.791  17.121  0.6596 -0.3691 -0.5021
12072TIP3   OH257706   2.487   1.944  11.720 -0.2759  0.4491  0.3244
12072TIP3    H157707   2.498   1.887  11.645  0.4758  1.0318 -0.0151
12072TIP3    H257708   2.484   2.033  11.684  1.2411  0.8307  1.0586
12073TIP3   OH257709   4.449   2.655   2.828  0.1683 -0.3818 -0.0528
12073TIP3    H157710   4.538   2.666   2.861  0.6739 -1.3491 -1.0328
12073TIP3    H257711   4.439   2.724   2.762 -0.0327  0.1162  0.4951
12074TIP3   OH257712   3.537   5.296  16.229  0.0845  0.0006  0.0721
12074TIP3    H157713   3.625   5.294  16.190  0.2513  1.9755  0.2466
12074TIP3    H257714   3.478   5.286  16.155  0.4240  2.7570 -0.6887
12075TIP3   OH257715   5.883   4.688  11.784  0.3210 -0.6862  0.0701
12075TIP3    H157716   5.879   4.673  11.689 -0.3310  0.1211 -0.0419
12075TIP3    H257717   5.791   4.683  11.812  0.4032  0.0897  0.4912
12076TIP3   OH257718   1.692   0.938   0.868 -0.3775  0.2735  0.5803
12076TIP3    H157719   1.728   0.877   0.804 -0.6634  1.8549 -1.1343
12076TIP3    H257720   1.752   0.932   0.943 -0.1530 -1.7428  0.2840
12077TIP3   OH257721   6.715   0.451   2.761 -0.0265  0.0261 -0.0828
12077TIP3    H157722   6.622   0.472   2.766 -0.4433 -1.8659  1.2669
12077TIP3    H257723   6.759   0.536   2.757 -1.7935  0.9541 -0.9794
12078TIP3   OH257724   3.280   2.719   1.302  0.3039 -0.0972  0.0850
12078TIP3    H157725   3.203   2.663   1.311  0.6125 -0.5292  0.0689
12078TIP3    H257726   3.245   2.806   1.283 -0.1197 -0.6724 -1.9435
12079TIP3   OH257727   5.768   1.571  15.900 -0.2303 -0.4633  0.2473
12079TIP3    H157728   5.732   1.482  15.905  1.1891 -0.9998  2.0170
12079TIP3    H257729   5.844   1.562  15.843 -0.3112 -0.2960  0.1146
12080TIP3   OH257730   6.268   3.593  16.160  0.2945  0.2256 -0.0863
12080TIP3    H157731   6.286   3.535  16.086  1.2125 -0.5616  0.7255
12080TIP3    H257732   6.341   3.655  16.160  0.6494 -0.1746  0.5201
12081TIP3   OH257733   3.150   2.971   2.170 -0.0146  0.0166 -0.1584
12081TIP3    H157734   3.129   3.032   2.099 -0.3932  1.7068  1.3357
12081TIP3    H257735   3.209   3.020   2.227  1.0471 -1.6394  0.2508
12082TIP3   OH257736   1.882   4.581  16.814 -0.0427  0.5325  0.6354
12082TIP3    H157737   1.965   4.559  16.772 -0.6887  0.8378 -0.8455
12082TIP3    H257738   1.831   4.626  16.746 -0.1768  3.3585  2.4502
12083TIP3   OH257739   2.960   0.947  14.703 -0.2918 -0.0862  0.4617
12083TIP3    H157740   2.934   1.033  14.736 -0.3009  0.4200 -0.8037
12083TIP3    H257741   2.910   0.885  14.757 -0.4647  0.6975  1.2326
12084TIP3   OH257742   6.375   1.053   4.799  0.1225 -0.4460 -0.0705
12084TIP3    H157743   6.296   1.001   4.786 -0.2583 -0.2127  1.1365
12084TIP3    H257744   6.364   1.091   4.886  0.4754  1.5274 -0.8403
12085TIP3   OH257745   1.988   4.698   4.450  0.6483  0.5328 -0.4101
12085TIP3    H157746   2.013   4.664   4.535  0.8483 -0.3007 -0.7933
12085TIP3    H257747   1.896   4.674   4.441  0.6107  0.6738 -0.4032
12086TIP3   OH257748   4.237   0.897   4.378  0.6712 -0.2651  0.0181
12086TIP3    H157749   4.148   0.901   4.344  0.1935 -2.7694  0.7569
12086TIP3    H257750   4.288   0.950   4.317 -1.3034  1.2956 -0.3763
12087TIP3   OH257751   1.946   6.482  15.767 -0.2780 -0.3214  0.1393
12087TIP3    H157752   1.955   6.462  15.674  0.1146  2.2340 -0.4416
12087TIP3    H257753   1.852   6.475  15.784 -0.1983 -2.3337 -0.0109
12088TIP3   OH257754   2.698   6.409   3.923 -0.3907  0.0224  0.1298
12088TIP3    H157755   2.687   6.371   3.835  0.5775  2.0790 -0.9635
12088TIP3    H257756   2.610   6.407   3.960 -0.8117 -0.9656 -0.8454
12089TIP3   OH257757   0.226   5.589   1.840  0.5225  0.0660  0.2660
12089TIP3    H157758   0.318   5.568   1.826  0.1337 -2.1800  0.7991
12089TIP3    H257759   0.178   5.531   1.781 -0.5892  0.9504  0.2483
12090TIP3   OH257760   5.762   3.757   3.418  0.2766 -0.0511 -0.4655
12090TIP3    H157761   5.754   3.827   3.483 -0.4742 -3.1264  3.0781
12090TIP3    H257762   5.677   3.755   3.374 -0.2967  0.2131  0.5999
12091TIP3   OH257763   2.669   0.873  15.185  0.1810 -0.6216  0.1846
12091TIP3    H157764   2.661   0.788  15.141 -2.6550 -0.1394 -0.4797
12091TIP3    H257765   2.706   0.931  15.119  1.1822 -1.0998  0.3107
12092TIP3   OH257766   0.953   4.632   5.101 -0.3485 -0.3740  0.1240
12092TIP3    H157767   0.996   4.629   5.187 -0.7177 -1.0384  0.2968
12092TIP3    H257768   0.873   4.580   5.113 -0.8731  0.3090 -0.3717
12093TIP3   OH257769   0.000   2.583  12.345 -0.2572  0.5745  0.9391
12093TIP3    H157770  -0.089   2.576  12.379 -0.7426  0.8624 -0.2284
12093TIP3    H257771   0.026   2.492  12.327 -1.8942  0.6319 -2.5297
12094TIP3   OH257772   6.744   1.080   0.376 -0.0428 -0.1049 -0.1121
12094TIP3    H157773   6.692   1.142   0.326 -1.0632 -0.8953 -0.0627
12094TIP3    H257774   6.833   1.115   0.374  0.0585 -0.3220 -2.8383
12095TIP3   OH257775   1.713   4.627  13.230  0.2158 -0.0197 -0.3478
12095TIP3    H157776   1.653   4.596  13.298  0.4411  1.5090  0.6016
12095TIP3    H257777   1.797   4.587  13.251  0.0492 -0.3646 -0.3363
12096TIP3   OH257778   2.815   4.719  13.582 -0.4923 -0.6778 -0.1125
12096TIP3    H157779   2.907   4.696  13.598 -0.0189  0.5204 -0.9032
12096TIP3    H257780   2.774   4.713  13.667  0.2501 -1.5402  0.2056
12097TIP3   OH257781   4.891   6.745   5.353  0.9610 -0.0924 -0.0974
12097TIP3    H157782   4.819   6.793   5.311  0.7168  0.7928  1.2719
12097TIP3    H257783   4.848   6.680   5.408  1.1479  0.9354  1.3108
12098TIP3   OH257784   6.305   1.560  13.152  0.0074 -0.0070  0.1094
12098TIP3    H157785   6.395   1.576  13.123 -0.6966  2.7235 -0.8006
12098TIP3    H257786   6.299   1.464  13.159  2.3253 -0.3885 -1.9306
12099TIP3   OH257787   6.244   6.471  12.076  0.2502  0.7773 -0.2980
12099TIP3    H157788   6.232   6.462  11.982 -1.5246  0.1076 -0.0449
12099TIP3    H257789   6.324   6.423  12.095 -0.5623 -1.0530 -1.1954
12100TIP3   OH257790   2.616   4.086  11.687 -0.2054 -0.3136 -0.0183
12100TIP3    H157791   2.524   4.113  11.685  0.4426  2.1311 -0.3318
12100TIP3    H257792   2.647   4.113  11.774  0.3863 -0.4299 -0.1885
12101TIP3   OH257793   5.034   6.518  17.241  0.3450 -0.1534  0.6052
12101TIP3    H157794   5.051   6.426  17.260  0.3499 -0.6569 -1.5951
12101TIP3    H257795   4.983   6.517  17.161  4.7209  1.7640 -2.6531
12102TIP3   OH257796   3.870   5.320   5.006  0.5716 -0.3760  0.7933
12102TIP3    H157797   3.941   5.384   5.004  0.0559  0.3224  2.8368
12102TIP3    H257798   3.908   5.242   4.965  1.7364  0.6884 -0.2626
12103TIP3   OH257799   0.866   6.562  12.101 -0.3247 -0.3263 -0.2787
12103TIP3    H157800   0.911   6.478  12.092  1.0740  0.2803  0.7863
12103TIP3    H257801   0.782   6.549  12.057  0.3998 -1.8656 -1.2592
12104TIP3   OH257802   3.018   1.493  12.767 -0.2101  0.7464  0.1729
12104TIP3    H157803   3.033   1.581  12.733  2.2612  0.3100 -0.0480
12104TIP3    H257804   3.091   1.441  12.733 -1.8624 -1.5489 -0.1272
12105TIP3   OH257805   5.500   4.278   1.900  0.2016 -0.1963  0.0499
12105TIP3    H157806   5.475   4.281   1.808 -0.7654  0.6963  0.3202
12105TIP3    H257807   5.436   4.219   1.940  0.4444 -0.3592  0.2013
12106TIP3   OH257808   2.912   4.013  11.635  0.7739 -0.0353 -0.9166
12106TIP3    H157809   2.825   4.037  11.667  1.0731 -0.3106  0.1533
12106TIP3    H257810   2.899   3.929  11.590  0.3064  0.4626 -1.7198
12107TIP3   OH257811   5.138   6.400   0.959  0.5409 -0.2100 -0.3905
12107TIP3    H157812   5.232   6.415   0.955  0.4571  0.1641 -1.2727
12107TIP3    H257813   5.124   6.320   0.909  0.2738  0.3973 -1.3227
12108TIP3   OH257814   1.255   6.468   0.796  0.4655 -0.3799 -0.3969
12108TIP3    H157815   1.289   6.553   0.768  0.5820  0.9109  3.0993
12108TIP3    H257816   1.163   6.469   0.770  1.3269 -1.0744 -4.0200
12109TIP3   OH257817   0.831   3.473   5.513  0.4503 -0.1227 -0.2405
12109TIP3    H157818   0.901   3.511   5.459  1.2877 -0.0051  0.8690
12109TIP3    H257819   0.858   3.382   5.526 -1.6533 -1.2768 -3.0576
12110TIP3   OH257820   6.144   4.232  11.198 -0.5769 -0.1715  0.6635
12110TIP3    H157821   6.096   4.243  11.116  0.6999 -1.7990 -0.3479
12110TIP3    H257822   6.236   4.226  11.173  0.0549  1.1601  2.4140
12111TIP3   OH257823   2.716   6.593   6.625  0.3055 -0.3152 -0.5314
12111TIP3    H157824   2.698   6.500   6.643 -2.5071 -0.1773 -2.0908
12111TIP3    H257825   2.680   6.608   6.538  0.6404  2.2698 -0.3046
12112TIP3   OH257826   2.443   1.239   3.207  0.3371 -0.3067 -0.1699
12112TIP3    H157827   2.448   1.205   3.117 -1.8989 -0.5459 -0.2438
12112TIP3    H257828   2.464   1.164   3.262  0.9206 -0.3604 -0.4510
12113TIP3   OH257829   2.736   4.772   2.783 -0.3741  0.0422 -0.2993
12113TIP3    H157830   2.828   4.757   2.759 -0.5565 -0.3491 -0.7757
12113TIP3    H257831   2.716   4.858   2.746 -1.2698 -1.4207 -3.5806
12114TIP3   OH257832   0.578   4.444  13.379 -0.0310 -0.5333  0.6537
12114TIP3    H157833   0.551   4.507  13.313 -0.9388 -1.0260  0.5470
12114TIP3    H257834   0.671   4.428  13.361 -0.2401 -0.5869 -0.4349
12115TIP3   OH257835   5.312   3.174   4.176 -0.1767  0.1180  0.4013
12115TIP3    H157836   5.230   3.146   4.136 -0.2592  0.5852  0.2380
12115TIP3    H257837   5.364   3.208   4.103  0.3291 -0.5477  0.4388
12116TIP3   OH257838   2.354   1.749  11.110  0.1637 -0.0266 -0.2876
12116TIP3    H157839   2.343   1.709  11.024 -0.1870  0.3864 -0.4341
12116TIP3    H257840   2.351   1.843  11.094 -1.3012  0.0650  0.3422
12117TIP3   OH257841   3.915   5.529  14.162 -0.3583  0.1790  0.6997
12117TIP3    H157842   4.009   5.542  14.177 -0.3573  0.3829  0.5221
12117TIP3    H257843   3.894   5.587  14.089 -0.0922 -1.6880 -0.9278
12118TIP3   OH257844   1.546   6.555  16.544 -0.2546  0.2191  1.0011
12118TIP3    H157845   1.525   6.495  16.615  0.0056 -0.5741  0.4325
12118TIP3    H257846   1.639   6.572  16.553 -0.1184 -0.2611  0.5889
12119TIP3   OH257847   3.127   5.685  16.888  0.2748 -0.3525  0.1461
12119TIP3    H157848   3.068   5.724  16.953 -1.4251 -2.9172  0.2593
12119TIP3    H257849   3.072   5.669  16.812  0.3221 -4.0689  0.7400
12120TIP3   OH257850   4.232   4.167   5.071 -0.3317  0.1880  0.6439
12120TIP3    H157851   4.187   4.217   5.139  0.4872 -0.7073  1.8908
12120TIP3    H257852   4.202   4.077   5.084  0.3015 -0.0947  0.2102
12121TIP3   OH257853   1.939   4.527  13.962  0.1015 -0.1962 -0.6499
12121TIP3    H157854   1.920   4.471  13.887 -0.9630  0.4789 -0.8933
12121TIP3    H257855   1.857   4.533  14.010  0.3062  0.8294 -0.4067
12122TIP3   OH257856   2.902   2.523  12.524 -0.0594  0.4660 -0.1262
12122TIP3    H157857   2.944   2.591  12.471 -1.4412  0.5914 -1.1300
12122TIP3    H257858   2.871   2.569  12.602 -0.1488  0.8104 -0.3588
12123TIP3   OH257859   0.639   5.896   0.891  0.2089  0.2104  0.1721
12123TIP3    H157860   0.627   5.979   0.845  0.2725  1.9561  3.0456
12123TIP3    H257861   0.714   5.855   0.847  0.3214  1.7542 -1.1745
12124TIP3   OH257862   5.031   5.990   2.860  0.4198  0.4979  0.2916
12124TIP3    H157863   5.015   5.987   2.954 -0.0834 -0.5289  0.1881
12124TIP3    H257864   5.067   5.904   2.839 -0.7854  0.2066 -0.6771
12125TIP3   OH257865   3.545   6.489   6.363 -0.4520 -0.6642  0.4280
12125TIP3    H157866   3.513   6.545   6.434  0.3375 -1.2466  1.2605
12125TIP3    H257867   3.618   6.537   6.325 -0.8943 -0.3379 -0.0320
12126TIP3   OH257868   6.443   6.233   5.260 -0.1210  0.2412  0.3657
12126TIP3    H157869   6.436   6.319   5.301 -0.2500  1.4023 -1.9242
12126TIP3    H257870   6.371   6.183   5.299 -1.6478  1.9965 -0.0366
12127TIP3   OH257871   3.047   4.231  11.714  0.2820 -0.0366  0.1164
12127TIP3    H157872   2.997   4.291  11.768  0.4171 -0.1840  0.4046
12127TIP3    H257873   2.982   4.167  11.684  0.0395  0.5344 -0.6032
12128TIP3   OH257874   1.684   3.709  14.407  0.0272  0.3406 -0.0362
12128TIP3    H157875   1.708   3.624  14.370 -2.5354 -0.8915  0.8875
12128TIP3    H257876   1.742   3.718  14.483  1.1584  0.0311 -0.8333
12129TIP3   OH257877   6.166   4.939   4.158  0.2103  0.1831 -0.0294
12129TIP3    H157878   6.098   4.871   4.161 -0.7332  1.1294  1.2827
12129TIP3    H257879   6.212   4.924   4.075 -0.5823 -1.4558 -0.2050
12130TIP3   OH257880   3.078   0.820  12.904  0.1281 -0.2475  0.2466
12130TIP3    H157881   3.066   0.786  12.992 -1.9242 -1.1384 -0.2980
12130TIP3    H257882   3.015   0.892  12.897 -0.6848 -1.0232 -0.8606
12131TIP3   OH257883   1.012   3.782  16.112  0.1356  0.8578  0.3170
12131TIP3    H157884   1.033   3.873  16.091 -0.8592  1.0400  0.0638
12131TIP3    H257885   1.083   3.754  16.170  0.8819  1.5410 -0.2318
12132TIP3   OH257886   4.154   1.912   5.370 -0.0571  0.7182  0.3502
12132TIP3    H157887   4.104   1.838   5.338  1.2617  0.3025 -0.8417
12132TIP3    H257888   4.088   1.978   5.392 -1.1927 -0.4607  0.5817
12133TIP3   OH257889   1.726   0.915   0.171  0.3229 -0.6326  0.4646
12133TIP3    H157890   1.728   1.011   0.172  1.1606 -0.6428  0.4063
12133TIP3    H257891   1.642   0.893   0.211 -0.3871  0.1400 -0.5161
12134TIP3   OH257892   2.920   4.755  15.691 -0.0184  0.1207 -0.1390
12134TIP3    H157893   2.845   4.698  15.702 -0.2934  0.2158 -1.3646
12134TIP3    H257894   2.940   4.786  15.780  0.3116 -2.0501  0.6038
12135TIP3   OH257895   6.164   1.619   2.664  0.4448 -0.7671 -1.0409
12135TIP3    H157896   6.132   1.548   2.720 -1.6879  0.7481 -0.1935
12135TIP3    H257897   6.086   1.651   2.620  1.5868  0.1997 -2.4528
12136TIP3   OH257898   3.169   1.602  11.597 -0.1239  0.1328  0.4697
12136TIP3    H157899   3.219   1.642  11.668 -0.0430 -0.3307  0.6775
12136TIP3    H257900   3.161   1.510  11.622  1.5729 -0.5029 -1.0374
12137TIP3   OH257901   3.555   3.772   4.827 -0.4857  0.2259  0.1260
12137TIP3    H157902   3.552   3.678   4.811  1.0316  0.5167 -2.3161
12137TIP3    H257903   3.617   3.782   4.900  1.2981 -0.5902 -1.1888
12138TIP3   OH257904   1.461   0.230  11.014  0.0057 -0.3028 -0.6619
12138TIP3    H157905   1.486   0.139  11.031  1.7038  0.1927 -0.2398
12138TIP3    H257906   1.402   0.226  10.939 -0.0837 -1.7646 -0.5361
12139TIP3   OH257907   5.229   1.617   0.764  0.0431 -0.0557 -0.5806
12139TIP3    H157908   5.217   1.712   0.762 -0.2063 -0.0927 -1.7277
12139TIP3    H257909   5.277   1.598   0.684  0.5727 -0.8454 -0.0847
12140TIP3   OH257910   6.750   6.371   3.815 -0.0676 -0.0252 -0.2704
12140TIP3    H157911   6.702   6.320   3.881  0.4018 -0.9980 -0.6526
12140TIP3    H257912   6.839   6.334   3.817  0.1718  0.5024 -0.8637
12141TIP3   OH257913   4.594   1.443   2.034  0.0068  0.2819 -0.0562
12141TIP3    H157914   4.646   1.439   2.114 -0.3650  2.3839  0.3320
12141TIP3    H257915   4.504   1.427   2.063  0.1557 -1.7042 -0.5012
12142TIP3   OH257916   0.179   2.400  10.685  0.5155 -0.1362  0.2708
12142TIP3    H157917   0.200   2.427  10.596 -0.8929  1.2530  0.3253
12142TIP3    H257918   0.163   2.482  10.732  0.8998 -0.8607  1.7276
12143TIP3   OH257919   1.764   1.339  11.686 -0.0500  0.5591 -0.1275
12143TIP3    H157920   1.750   1.247  11.662 -2.3629  1.0804 -1.0077
12143TIP3    H257921   1.773   1.337  11.782 -1.1658 -0.4810 -0.0210
12144TIP3   OH257922   3.836   5.093   0.957 -0.2933  0.3329 -0.3238
12144TIP3    H157923   3.824   5.116   0.865 -0.2394  0.8787 -0.1988
12144TIP3    H257924   3.931   5.083   0.967 -0.4092 -1.4840 -0.7280
12145TIP3   OH257925   5.443   6.605  15.225 -0.0562  0.4178 -0.1825
12145TIP3    H157926   5.374   6.651  15.272 -0.5367 -0.3654 -0.0992
12145TIP3    H257927   5.499   6.674  15.190 -0.1066  1.0411  0.9135
12146TIP3   OH257928   2.360   4.419  12.629 -0.2066  0.4778  0.4216
12146TIP3    H157929   2.292   4.359  12.599  0.8584 -0.7018  0.2847
12146TIP3    H257930   2.322   4.462  12.706 -0.9940 -0.3870  0.5328
12147TIP3   OH257931   5.222   2.247  17.210  0.2553 -0.1033 -0.7138
12147TIP3    H157932   5.265   2.240  17.295  0.3484 -0.4066 -0.7841
12147TIP3    H257933   5.292   2.236  17.147  0.0291 -1.0122 -0.8306
12148TIP3   OH257934   0.258   4.687   5.483  0.4204  0.5090  0.2459
12148TIP3    H157935   0.167   4.679   5.455  0.6212 -1.9724  0.0332
12148TIP3    H257936   0.253   4.715   5.575 -0.6031 -0.2066  0.4254
12149TIP3   OH257937   3.908   1.267  14.336 -0.3577 -0.7747 -0.0087
12149TIP3    H157938   3.970   1.328  14.294 -0.0948  0.1255  1.5963
12149TIP3    H257939   3.907   1.191  14.278  1.5254 -0.4170 -0.5890
12150TIP3   OH257940   4.387   3.410   0.692 -0.1419 -0.0325  0.5698
12150TIP3    H157941   4.404   3.413   0.786  0.8860 -0.1439  0.3971
12150TIP3    H257942   4.467   3.443   0.651 -1.6552  3.0318 -0.2206
12151TIP3   OH257943   6.341   6.660   5.979 -0.0223 -0.0445  0.2395
12151TIP3    H157944   6.257   6.615   5.968  0.7320 -1.3026 -0.7823
12151TIP3    H257945   6.319   6.753   5.982 -1.5754 -0.4031  1.5658
12152TIP3   OH257946   6.557   2.198   4.166 -0.3051  0.0394  0.2734
12152TIP3    H157947   6.594   2.232   4.248  0.1031 -1.1227  0.5902
12152TIP3    H257948   6.465   2.181   4.185 -0.7705  1.8321 -0.1746
12153TIP3   OH257949   6.428   2.857  15.468 -0.3295  0.3906 -0.4990
12153TIP3    H157950   6.465   2.940  15.497  1.6841 -0.3565 -0.7210
12153TIP3    H257951   6.453   2.794  15.536 -1.0622 -0.2034 -0.7568
12154TIP3   OH257952   0.773   3.452   3.617 -0.0174  0.1265 -0.2882
12154TIP3    H157953   0.685   3.487   3.626 -0.2750 -0.5763 -0.0259
12154TIP3    H257954   0.830   3.530   3.614 -0.6312  0.5755 -0.3912
12155TIP3   OH257955   3.980   2.775  14.524 -0.5887 -0.4591 -0.2054
12155TIP3    H157956   3.993   2.864  14.558  0.9416  0.4240 -2.8573
12155TIP3    H257957   4.043   2.722  14.573 -0.4347  0.1865  0.3162
12156TIP3   OH257958   1.290   0.268  13.706 -0.4156 -0.0707 -0.1687
12156TIP3    H157959   1.303   0.226  13.791  0.9000 -3.0304 -1.6796
12156TIP3    H257960   1.200   0.245  13.682 -0.3435 -0.3646 -0.1570
12157TIP3   OH257961   0.238   0.250   2.465  0.2909  0.0185 -0.1247
12157TIP3    H157962   0.183   0.189   2.515 -0.9390  2.4403  1.7113
12157TIP3    H257963   0.327   0.221   2.481 -0.1896 -0.5641  1.7948
12158TIP3   OH257964   1.305   0.977   4.885 -0.1693  0.3941 -0.7425
12158TIP3    H157965   1.374   0.964   4.949  0.0618  1.7090 -0.6916
12158TIP3    H257966   1.235   1.023   4.933 -2.2604 -3.0975 -0.0893
12159TIP3   OH257967   3.664   6.420   4.011  0.1540 -0.1446 -0.9667
12159TIP3    H157968   3.653   6.401   4.104 -0.2265 -0.5265 -1.0876
12159TIP3    H257969   3.755   6.449   4.003 -0.0291  0.6510 -0.3477
12160TIP3   OH257970   2.283   0.462  17.468 -0.5601 -0.0332 -0.4360
12160TIP3    H157971   2.242   0.468  17.554  0.4674  0.3262  0.0494
12160TIP3    H257972   2.278   0.550  17.432  0.9150  0.3203  0.1788
12161TIP3   OH257973   0.205   3.406  10.807  0.4009  0.3113 -0.3029
12161TIP3    H157974   0.161   3.355  10.739 -0.5223 -0.2472  0.6878
12161TIP3    H257975   0.256   3.471  10.758 -0.3385  0.0181 -1.5216
12162TIP3   OH257976   3.482   3.692  14.683  0.3416  0.2523  0.1291
12162TIP3    H157977   3.416   3.695  14.614 -1.1924  0.3690  1.5334
12162TIP3    H257978   3.453   3.757  14.748 -0.6320 -2.6084  2.8326
12163TIP3   OH257979   1.777   1.189   0.140  0.2003  0.5253 -0.7034
12163TIP3    H157980   1.761   1.273   0.182 -1.1183 -0.2929  0.5401
12163TIP3    H257981   1.795   1.211   0.048  0.0368  2.1536 -0.3729
12164TIP3   OH257982   5.065   2.070  12.631 -0.3653  0.9903  0.3406
12164TIP3    H157983   4.975   2.039  12.621  0.3833 -1.2634 -0.1364
12164TIP3    H257984   5.062   2.162  12.604 -2.4589  0.9035  0.0772
12165TIP3   OH257985   0.347   2.687  16.753 -0.1420 -0.0548 -0.1920
12165TIP3    H157986   0.390   2.772  16.738  0.3144  0.0521  1.5879
12165TIP3    H257987   0.309   2.695  16.840 -0.4975 -1.5382 -0.2000
12166TIP3   OH257988   2.422   0.278   1.860 -0.0482 -0.0485  0.3265
12166TIP3    H157989   2.399   0.370   1.848  1.7622  0.5129  0.8254
12166TIP3    H257990   2.438   0.246   1.771  2.0489  0.9217  0.3059
12167TIP3   OH257991   6.037   3.608   4.767  0.1007 -0.0075 -0.1569
12167TIP3    H157992   6.079   3.681   4.812 -1.3910  1.5759 -1.1993
12167TIP3    H257993   5.969   3.578   4.826 -0.8058  1.0154 -0.6483
12168TIP3   OH257994   5.553   4.392   6.194  0.0165 -0.0574  0.5220
12168TIP3    H157995   5.509   4.476   6.209  0.2112 -0.1562  1.7999
12168TIP3    H257996   5.574   4.361   6.282  1.8089 -0.4439 -0.0026
12169TIP3   OH257997   1.755   3.030  13.863 -0.2759 -0.2242 -0.5187
12169TIP3    H157998   1.781   3.122  13.874 -0.7881  0.2254 -2.5083
12169TIP3    H257999   1.811   2.981  13.922  0.3595  1.3354  0.2213
12170TIP3   OH258000   4.027   1.549   0.764  0.4760  0.0308  0.4473
12170TIP3    H158001   4.051   1.575   0.853  0.3009  3.7179 -0.4294
12170TIP3    H258002   4.104   1.502   0.731  1.2231  0.1260  1.9825
12171TIP3   OH258003   3.570   5.586  16.263  0.4529  0.7331  0.2982
12171TIP3    H158004   3.524   5.524  16.207  1.7020 -1.3373  1.4247
12171TIP3    H258005   3.507   5.605  16.333 -0.0333  0.9581 -0.1920
12172TIP3   OH258006   0.764   0.843  15.070  0.9074  0.0788 -0.0781
12172TIP3    H158007   0.700   0.885  15.012 -0.2673  0.2670  1.3106
12172TIP3    H258008   0.776   0.904  15.142  1.0309 -0.8854  0.7471
12173TIP3   OH258009   3.401   1.793   1.417  0.1379  0.0107 -0.4337
12173TIP3    H158010   3.441   1.771   1.501  1.5948  1.5759 -0.6659
12173TIP3    H258011   3.333   1.856   1.438 -0.5249 -0.7283 -0.3038
12174TIP3   OH258012   5.316   4.720   6.472  0.5403  0.1178  0.3672
12174TIP3    H158013   5.379   4.789   6.493 -0.1803  1.0341 -0.4017
12174TIP3    H258014   5.360   4.639   6.498  2.2923  0.6777 -0.6736
12175TIP3   OH258015   1.865   0.519  14.196 -0.1019 -0.2880  0.3537
12175TIP3    H158016   1.826   0.482  14.117 -0.5221  0.5066  0.1819
12175TIP3    H258017   1.818   0.601  14.210  0.0798 -0.3369  1.3326
12176TIP3   OH258018   0.233   1.033  12.569  0.3890 -0.1741 -0.1596
12176TIP3    H158019   0.270   1.068  12.488  0.4104  0.8853  0.2918
12176TIP3    H258020   0.203   0.945  12.545  1.1083 -0.1848 -1.1105
12177TIP3   OH258021   5.054   6.386  13.382  0.6629 -0.3631  0.1173
12177TIP3    H158022   5.077   6.444  13.309  0.6988 -0.2939  0.1832
12177TIP3    H258023   5.122   6.318  13.381  1.3879  0.3226  0.8505
12178TIP3   OH258024   1.793   5.172   3.292 -0.2416 -0.1665  0.4096
12178TIP3    H158025   1.698   5.181   3.291 -0.2112  0.0735 -0.0343
12178TIP3    H258026   1.808   5.088   3.336 -0.6926 -0.6775 -0.3961
12179TIP3   OH258027   4.463   1.322  14.795 -0.7180 -0.1377  0.4693
12179TIP3    H158028   4.398   1.389  14.815 -0.0068  1.0343 -0.9441
12179TIP3    H258029   4.484   1.335  14.702  1.2479 -0.6834  0.7743
12180TIP3   OH258030   4.325   4.247  16.876  0.1924  0.2963 -0.2645
12180TIP3    H158031   4.312   4.169  16.930 -2.2290  0.6621 -0.2386
12180TIP3    H258032   4.359   4.214  16.793  0.0161 -0.6803  0.0456
12181TIP3   OH258033   5.145   2.770   3.312  0.0155 -0.0450 -0.0281
12181TIP3    H158034   5.140   2.855   3.269  2.1250 -1.0517 -2.5644
12181TIP3    H258035   5.233   2.767   3.349 -0.0843 -1.0526  0.1629
12182TIP3   OH258036   6.229   5.814   0.353  0.7589  0.0548 -0.1585
12182TIP3    H158037   6.167   5.882   0.380  0.2499  0.5370 -2.3353
12182TIP3    H258038   6.311   5.862   0.338  0.8098 -0.0703 -0.2758
12183TIP3   OH258039   2.906   0.646  13.944  0.3221 -0.2934  0.2521
12183TIP3    H158040   2.822   0.634  13.900  1.0303  0.2195 -1.2778
12183TIP3    H258041   2.933   0.735  13.921  0.9395 -0.1784  1.3494
12184TIP3   OH258042   5.708   1.256  14.657  0.4263 -0.2483  0.1647
12184TIP3    H158043   5.707   1.297  14.570  0.2488 -0.9864 -0.1895
12184TIP3    H258044   5.697   1.163  14.639  1.0245 -0.4738  0.9469
12185TIP3   OH258045   1.376   3.041   4.010 -0.4408  0.2481 -0.0488
12185TIP3    H158046   1.347   2.964   4.058  2.0128 -1.2757 -0.8142
12185TIP3    H258047   1.459   3.065   4.053  0.2927  0.6687 -1.6408
12186TIP3   OH258048   1.351   5.717   4.180  0.1994  0.4398  0.0061
12186TIP3    H158049   1.409   5.776   4.131  0.6098 -0.0911 -0.1530
12186TIP3    H258050   1.308   5.664   4.113 -1.7309  1.9218 -0.0085
12187TIP3   OH258051   5.819   0.617  16.267  0.9501 -0.1367  0.0752
12187TIP3    H158052   5.912   0.601  16.252  0.8481 -3.1806  1.8431
12187TIP3    H258053   5.816   0.671  16.347  1.1963 -0.3889  0.2543
12188TIP3   OH258054   4.896   5.058   2.027  0.4571 -0.0108  0.1854
12188TIP3    H158055   4.940   5.044   2.110  0.1091  0.0821  0.3857
12188TIP3    H258056   4.816   5.006   2.032  1.4978 -1.8216 -0.9670
12189TIP3   OH258057   0.917   3.428   6.269  0.8539 -0.2770 -0.0302
12189TIP3    H158058   0.977   3.368   6.225  1.8630  0.0450  0.8546
12189TIP3    H258059   0.951   3.435   6.358 -2.5720 -2.9195  1.7306
12190TIP3   OH258060   1.711   5.609  13.532 -0.3555  0.3386  0.2305
12190TIP3    H158061   1.767   5.628  13.457  1.1831  0.0694  1.2787
12190TIP3    H258062   1.765   5.556  13.591 -2.4459 -1.8850  0.2861
12191TIP3   OH258063   1.878   1.208  15.721 -0.3864 -0.5518  0.2465
12191TIP3    H158064   1.812   1.142  15.742  0.6034 -0.8925  2.5636
12191TIP3    H258065   1.957   1.157  15.702 -0.6245 -0.1342 -2.2447
12192TIP3   OH258066   0.091   2.231  14.981 -0.1527 -0.1198 -0.6953
12192TIP3    H158067   0.063   2.265  15.066  0.5460  0.2319 -0.5992
12192TIP3    H258068   0.186   2.237  14.982 -0.1726  1.1958 -2.0216
12193TIP3   OH258069   2.873   5.605   5.805  0.2031 -0.2322 -0.1702
12193TIP3    H158070   2.780   5.595   5.827 -0.2880  3.7271  0.3936
12193TIP3    H258071   2.918   5.590   5.888  0.0123 -1.1613 -0.2194
12194TIP3   OH258072   0.994   3.737   2.267 -0.1304 -0.1827 -0.3107
12194TIP3    H158073   0.982   3.792   2.190 -0.8216  1.3604  0.8338
12194TIP3    H258074   1.055   3.669   2.239 -1.4501 -0.5094 -2.5921
12195TIP3   OH258075   2.458   3.885  12.973 -0.4336 -0.0703  0.2117
12195TIP3    H158076   2.436   3.927  12.890  2.7288 -1.0934 -1.2861
12195TIP3    H258077   2.525   3.941  13.011 -1.3135 -0.0147  1.7872
12196TIP3   OH258078   6.367   4.463   0.944  0.5193 -0.0980  0.4258
12196TIP3    H158079   6.303   4.518   0.900 -0.3469 -1.3884  0.0024
12196TIP3    H258080   6.328   4.444   1.029  1.5433  1.2153  1.2253
12197TIP3   OH258081   2.359   1.143  12.133 -0.5023 -0.3789  0.0720
12197TIP3    H158082   2.419   1.075  12.164  1.2048  0.7494 -0.5989
12197TIP3    H258083   2.304   1.099  12.068  0.7164 -1.0913 -0.5200
12198TIP3   OH258084   5.627   1.146   5.110  0.6520 -0.9170  0.3455
12198TIP3    H158085   5.717   1.125   5.084  0.6240 -1.0748  0.3747
12198TIP3    H258086   5.589   1.189   5.034  1.8195  2.3719  1.4560
12199TIP3   OH258087   1.598   2.384  11.848 -0.4882 -0.0828  0.4809
12199TIP3    H158088   1.692   2.364  11.840 -0.9065 -1.8395 -0.5715
12199TIP3    H258089   1.571   2.342  11.929 -0.5253 -0.2519  0.3806
12200TIP3   OH258090   1.195   1.582   4.317  0.0868 -0.1138  0.0614
12200TIP3    H158091   1.169   1.662   4.272  1.8355  0.5941  0.2247
12200TIP3    H258092   1.272   1.607   4.368 -0.2352 -1.5453  1.3255
12201TIP3   OH258093   5.284   4.007   4.951 -0.0343  0.4579  0.4944
12201TIP3    H158094   5.364   4.055   4.972  0.1150 -0.2015  1.4736
12201TIP3    H258095   5.250   3.978   5.035  0.0408 -1.4081 -0.0841
12202TIP3   OH258096   1.693   0.080  13.837 -0.1536 -0.0837  0.1472
12202TIP3    H158097   1.651   0.100  13.753 -0.7580 -1.4748  0.0892
12202TIP3    H258098   1.708  -0.014  13.834 -3.3972 -0.8761  2.9881
12203TIP3   OH258099   2.130   4.577  16.736 -0.1113  0.6443 -0.7606
12203TIP3    H158100   2.159   4.638  16.668  0.5272 -2.1763 -3.2188
12203TIP3    H258101   2.207   4.522  16.753 -1.1203 -0.5424  0.1073
12204TIP3   OH258102   1.946   6.326  11.133  0.4307 -0.3434  0.1596
12204TIP3    H158103   1.860   6.291  11.111  0.2436 -0.4656  1.0236
12204TIP3    H258104   1.932   6.374  11.215  0.6762  1.8055 -0.9971
12205TIP3   OH258105   3.847   6.103  15.644  0.1249  0.6403 -0.1875
12205TIP3    H158106   3.788   6.091  15.570  1.8392 -0.4936 -1.4194
12205TIP3    H258107   3.827   6.191  15.677 -1.2249  0.8378 -1.4543
12206TIP3   OH258108   5.038   4.550  12.707  0.0265  0.2512 -0.0302
12206TIP3    H158109   4.949   4.516  12.711  0.0824 -0.0661 -1.1410
12206TIP3    H258110   5.027   4.645  12.706 -0.2154  0.2605  1.1667
12207TIP3   OH258111   2.602   0.184  14.592  0.2772  0.1161  0.6548
12207TIP3    H158112   2.551   0.223  14.662  0.2181 -0.2627  0.8240
12207TIP3    H258113   2.621   0.257  14.533  1.5465  0.7432  1.7795
12208TIP3   OH258114   0.295   6.446  12.362 -0.4656 -0.4577  0.3380
12208TIP3    H158115   0.338   6.463  12.447 -0.1995 -0.1226  0.1407
12208TIP3    H258116   0.270   6.533  12.331 -0.7565 -0.6033  0.1733
12209TIP3   OH258117   2.558   3.439   0.066  0.2027 -0.4149  0.3443
12209TIP3    H158118   2.576   3.437  -0.028 -2.0722  0.8566 -0.1704
12209TIP3    H258119   2.592   3.355   0.098  1.9217 -0.4562 -1.3938
12210TIP3   OH258120   5.725   4.235   3.133 -0.7412 -0.3128 -0.0110
12210TIP3    H158121   5.707   4.141   3.127  0.0692 -0.5314  0.7594
12210TIP3    H258122   5.711   4.268   3.044 -1.2662 -1.1160 -0.2356
12211TIP3   OH258123   0.022   0.388  15.074 -0.2524 -0.9955  0.2201
12211TIP3    H158124  -0.043   0.328  15.111 -0.3713 -1.0183 -0.0228
12211TIP3    H258125   0.008   0.470  15.122 -1.3197 -0.6173 -0.7007
12212TIP3   OH258126   5.380   1.542  13.843 -0.2767  0.9547  0.2489
12212TIP3    H158127   5.400   1.474  13.907 -0.2616  0.5822 -0.1452
12212TIP3    H258128   5.286   1.537  13.830 -0.3386  1.2979  0.5330
12213TIP3   OH258129   2.986   0.471   3.364 -0.3605  0.3123 -0.3996
12213TIP3    H158130   2.971   0.558   3.325  3.6016  0.4993 -1.9658
12213TIP3    H258131   3.030   0.421   3.295  0.3827 -1.8668  1.5277
12214TIP3   OH258132   0.070   2.164   4.050  0.0423  0.7379 -0.0954
12214TIP3    H158133   0.047   2.119   4.131  0.6200 -0.7308 -0.7185
12214TIP3    H258134   0.007   2.235   4.043 -0.9659 -0.0348  0.8697
12215TIP3   OH258135   0.269   5.105   5.471 -0.4099  0.1698  0.0937
12215TIP3    H158136   0.355   5.063   5.471 -0.0849  0.8085 -0.5469
12215TIP3    H258137   0.288   5.198   5.463 -1.0246  0.6959  3.4329
12216TIP3   OH258138   0.821   2.001   4.835 -0.4813  0.2340  0.6286
12216TIP3    H158139   0.896   2.051   4.804  0.1558 -1.1709 -0.1925
12216TIP3    H258140   0.810   1.931   4.771 -3.3731  1.1538 -0.0604
12217TIP3   OH258141   5.995   1.949  11.383 -0.0601 -0.3073 -0.2180
12217TIP3    H158142   5.927   1.884  11.370  0.2098 -0.5375 -0.4688
12217TIP3    H258143   6.076   1.907  11.354  0.6436 -0.9848  2.4208
12218TIP3   OH258144   0.979   4.670  14.039 -0.5760  0.6903 -0.3975
12218TIP3    H158145   0.955   4.586  14.078 -3.9459  0.9791 -1.5220
12218TIP3    H258146   1.000   4.726  14.113  1.8359 -1.0653  0.3687
12219TIP3   OH258147   2.438   2.924  15.185 -0.0958 -0.6008 -0.4586
12219TIP3    H158148   2.523   2.931  15.230  0.4593  0.4967 -1.6170
12219TIP3    H258149   2.458   2.943  15.093 -1.5347 -0.7565 -0.8240
12220TIP3   OH258150   0.594   2.166   1.165 -0.1908 -0.1284 -0.0116
12220TIP3    H158151   0.677   2.156   1.117  0.7394  1.0701  1.2980
12220TIP3    H258152   0.618   2.211   1.245 -1.9600 -0.7843  0.9274
12221TIP3   OH258153   2.539   4.143  16.879 -0.4262  0.0211 -0.4977
12221TIP3    H158154   2.489   4.202  16.935  0.6787  0.7150 -0.2142
12221TIP3    H258155   2.504   4.056  16.898 -0.8532  0.3815  0.4155
12222TIP3   OH258156   1.999   1.900   0.924 -0.1667  0.1394  0.2843
12222TIP3    H158157   2.031   1.811   0.911  0.9988  0.4249  1.0816
12222TIP3    H258158   1.928   1.910   0.860  0.8660 -0.7523 -1.0310
12223TIP3   OH258159   4.284   1.103  15.765  0.1806  0.5744 -0.3551
12223TIP3    H158160   4.288   1.090  15.670 -0.5579 -0.6921 -0.2457
12223TIP3    H258161   4.256   1.018  15.799  0.8053  0.8964  1.0407
12224TIP3   OH258162   5.241   4.513  17.208  0.1655  0.3216 -0.8124
12224TIP3    H158163   5.210   4.578  17.144 -1.2708  0.7999  0.3029
12224TIP3    H258164   5.328   4.544  17.232 -0.9243  2.5949  0.5587
12225TIP3   OH258165   6.133   3.494   3.578 -0.0418 -0.0783 -0.4049
12225TIP3    H158166   6.067   3.448   3.525  0.0667  1.4196 -1.9285
12225TIP3    H258167   6.152   3.573   3.528  1.7128  0.3257  0.8341
12226TIP3   OH258168   3.684   0.422   3.138  0.2360  0.3940 -0.3039
12226TIP3    H158169   3.752   0.476   3.179  0.3787  1.4442 -1.8156
12226TIP3    H258170   3.731   0.351   3.096  0.3629  0.7933 -0.8513
12227TIP3   OH258171   4.036   4.714   6.445  0.0936  0.5481 -0.2631
12227TIP3    H158172   4.070   4.653   6.511 -0.9199  0.5800  0.2958
12227TIP3    H258173   3.991   4.657   6.381 -1.3823  0.7278  0.5771
12228TIP3   OH258174   6.532   5.196  17.465  0.4973 -0.3006  0.1602
12228TIP3    H158175   6.577   5.280  17.472  0.4720 -0.3441  1.0047
12228TIP3    H258176   6.537   5.173  17.372  1.1805  0.2572  0.0548
12229TIP3   OH258177   5.967   5.428   0.715 -0.2156 -0.1760 -0.3286
12229TIP3    H158178   5.968   5.342   0.758 -1.2277 -0.1787 -0.2741
12229TIP3    H258179   6.058   5.455   0.713 -0.0545 -0.5128  1.1373
12230TIP3   OH258180   0.982   1.164  17.232 -0.3552  0.2991 -0.4989
12230TIP3    H158181   0.898   1.137  17.195 -0.5558 -1.0454  0.8217
12230TIP3    H258182   0.962   1.244  17.281 -0.6711  0.5063 -0.9658
12231TIP3   OH258183   3.425   0.337   2.273 -0.1005 -0.2419 -0.1986
12231TIP3    H158184   3.518   0.324   2.288 -0.1783 -0.8614 -0.2417
12231TIP3    H258185   3.397   0.396   2.344  0.2338 -0.3986  0.0615
12232TIP3   OH258186   6.593   3.372  15.140  0.3309  0.2608  0.2058
12232TIP3    H158187   6.668   3.348  15.085  0.0857 -0.3104  0.1167
12232TIP3    H258188   6.630   3.382  15.228  0.0205 -3.4263  0.9133
12233TIP3   OH258189   1.163   3.277  14.153  0.7565 -0.2634  0.2724
12233TIP3    H158190   1.154   3.232  14.237  1.0793 -2.2300 -0.7045
12233TIP3    H258191   1.256   3.266  14.130  1.3036  2.4668  0.8042
12234TIP3   OH258192   0.272   1.908   3.983  0.0322 -0.0558  0.0356
12234TIP3    H158193   0.264   2.004   3.980  1.3077  0.0410 -0.5307
12234TIP3    H258194   0.310   1.884   3.899 -2.3290 -1.3122 -0.7797
12235TIP3   OH258195   0.755   0.916   4.934 -0.0247 -0.8958 -0.2431
12235TIP3    H158196   0.673   0.960   4.914 -0.3343 -1.0765  0.5944
12235TIP3    H258197   0.753   0.836   4.882  1.6261  1.0834 -3.7496
12236TIP3   OH258198   5.788   4.021  10.868  0.0012  0.6266  0.0957
12236TIP3    H158199   5.738   3.991  10.793  0.1179  1.3989 -0.2938
12236TIP3    H258200   5.817   3.940  10.911  2.3592  0.0555 -2.2803
12237TIP3   OH258201   4.184   6.494   0.618 -0.2572  0.2569  0.1316
12237TIP3    H158202   4.273   6.520   0.595  0.3080 -1.9269 -0.3341
12237TIP3    H258203   4.165   6.546   0.697  1.5842  0.4646  0.5039
12238TIP3   OH258204   6.442   6.318  15.115  0.5293 -0.0765  0.3514
12238TIP3    H158205   6.420   6.342  15.205 -0.0467  2.6420 -0.4281
12238TIP3    H258206   6.496   6.390  15.083 -1.8507  0.6790 -2.4146
12239TIP3   OH258207   3.330   0.908  11.459  0.1809  0.1530  0.0702
12239TIP3    H158208   3.420   0.878  11.443  0.0022  0.2592 -1.2720
12239TIP3    H258209   3.276   0.851  11.404 -0.3789  1.3108 -0.6134
12240TIP3   OH258210   4.821   6.491  11.837 -0.0744 -0.3528  0.0093
12240TIP3    H158211   4.749   6.433  11.864 -0.3772 -0.4541 -0.9728
12240TIP3    H258212   4.840   6.543  11.914 -1.7994  0.2770  0.0395
12241TIP3   OH258213   3.695   1.759   1.843  0.3082 -0.1091 -0.2872
12241TIP3    H158214   3.738   1.721   1.919 -1.5283 -1.6066  0.0888
12241TIP3    H258215   3.763   1.760   1.775  1.4514 -0.5228  0.8162
12242TIP3   OH258216   0.242   6.269   1.412  0.0378  0.0993  0.9545
12242TIP3    H158217   0.193   6.193   1.382 -0.0599 -0.0458  1.4743
12242TIP3    H258218   0.234   6.267   1.507  1.1834 -0.0225  1.0629
12243TIP3   OH258219   5.778   3.538   4.220 -0.8104 -0.0276 -0.2614
12243TIP3    H158220   5.687   3.540   4.248 -0.7373 -1.7341  0.2038
12243TIP3    H258221   5.777   3.577   4.132 -1.9548  0.0974 -0.2085
12244TIP3   OH258222   5.753   6.385  10.818 -0.3382  0.1249 -0.3700
12244TIP3    H158223   5.718   6.303  10.852  1.1378 -0.2422  0.3229
12244TIP3    H258224   5.690   6.451  10.848  0.1653 -0.3537  1.9386
12245TIP3   OH258225   2.064   4.297   4.696 -0.3759  0.2746 -0.8323
12245TIP3    H158226   2.034   4.270   4.783 -1.9760  1.9040 -0.8066
12245TIP3    H258227   1.985   4.326   4.651  0.5667  0.4400 -2.4877
12246TIP3   OH258228   0.412   5.504  15.316 -0.0139  0.0206 -0.0709
12246TIP3    H158229   0.430   5.467  15.402  0.1844 -0.1961 -0.2048
12246TIP3    H258230   0.436   5.596  15.324  2.1711 -0.4512 -0.5254
12247TIP3   OH258231   3.568   2.375  14.759 -0.2760 -0.7651  0.4544
12247TIP3    H158232   3.610   2.388  14.674 -0.9191 -1.0928  0.0811
12247TIP3    H258233   3.535   2.285  14.755 -0.4864 -0.7090  0.9750
12248TIP3   OH258234   2.302   2.767  10.981  0.2912 -0.2569 -0.1396
12248TIP3    H158235   2.236   2.711  10.940  1.8741 -1.7864 -0.7119
12248TIP3    H258236   2.289   2.853  10.940 -0.9217 -0.6850 -0.7064
12249TIP3   OH258237   5.391   2.894  14.520 -0.0151  0.7032  0.9352
12249TIP3    H158238   5.371   2.951  14.595 -2.4088  1.1205  0.0949
12249TIP3    H258239   5.411   2.955  14.449 -1.6309  0.5270  0.2831
12250TIP3   OH258240   2.124   0.129   2.975  0.2287  0.1046 -0.0481
12250TIP3    H158241   2.141   0.110   3.067 -0.1266 -1.7384 -0.3183
12250TIP3    H258242   2.053   0.192   2.976  0.6312  0.5603  0.9440
12251TIP3   OH258243   4.685   4.462  16.270  0.0943 -0.3983  0.2557
12251TIP3    H158244   4.777   4.488  16.266  0.4138 -1.4392  0.7133
12251TIP3    H258245   4.637   4.545  16.268  0.9094  0.1314 -2.8762
12252TIP3   OH258246   6.631   1.978   5.528  0.0789  0.5798 -0.2874
12252TIP3    H158247   6.703   1.993   5.590 -0.7901  1.7427  0.5118
12252TIP3    H258248   6.553   2.004   5.577 -0.7826  0.2309 -1.4408
12253TIP3   OH258249   2.817   0.001  13.742  0.0598  0.0865  0.0341
12253TIP3    H158250   2.760   0.026  13.669 -0.0159 -1.2031 -0.3818
12253TIP3    H258251   2.870  -0.070  13.707  2.8902  2.0418 -0.0250
12254TIP3   OH258252   6.552   4.261   0.893 -1.0187 -0.2908  0.1355
12254TIP3    H158253   6.489   4.190   0.881 -0.4096 -0.9776  0.9297
12254TIP3    H258254   6.499   4.341   0.882 -2.0182 -0.8489  0.7069
12255TIP3   OH258255   6.392   4.218   5.784  0.0991  0.4297  0.5890
12255TIP3    H158256   6.333   4.180   5.850 -1.2349 -0.1842 -0.8825
12255TIP3    H258257   6.465   4.252   5.835 -1.0038  0.2507  2.4178
12256TIP3   OH258258   1.584   2.415   3.523 -0.0768  0.3894 -0.0004
12256TIP3    H158259   1.536   2.473   3.582 -4.1039 -0.4804 -2.0673
12256TIP3    H258260   1.594   2.334   3.573 -1.5112  0.3615  0.3014
12257TIP3   OH258261   6.196   6.112   5.013 -0.5752 -0.3551 -0.1428
12257TIP3    H158262   6.136   6.181   4.984  0.1205 -0.1544 -1.1764
12257TIP3    H258263   6.159   6.080   5.095 -1.4119  0.6131 -0.1281
12258TIP3   OH258264   5.524   5.641   3.766  0.3611 -0.9639  0.9265
12258TIP3    H158265   5.593   5.604   3.711  0.1844 -1.0268  0.7476
12258TIP3    H258266   5.494   5.568   3.820  0.7368 -0.8358  1.3217
12259TIP3   OH258267   6.557   4.579  16.835  0.3328 -0.2585  0.0211
12259TIP3    H158268   6.651   4.597  16.827  0.3407 -0.0979  0.4513
12259TIP3    H258269   6.550   4.484  16.825  0.6814 -0.4210  1.1955
12260TIP3   OH258270   3.599   1.195  14.452 -0.0245  0.3756  0.2994
12260TIP3    H158271   3.674   1.146  14.486 -0.4786  0.2021  1.0737
12260TIP3    H258272   3.589   1.268  14.513 -0.2369  0.6306 -0.0369
12261TIP3   OH258273   3.094   1.319   0.561  0.2691 -0.0431 -0.0487
12261TIP3    H158274   3.000   1.318   0.543  0.7455  0.6463 -2.9719
12261TIP3    H258275   3.111   1.409   0.590  0.1926  0.1067 -0.4706
12262TIP3   OH258276   0.000   4.075   0.961 -0.0023  0.0740  0.5008
12262TIP3    H158277  -0.057   4.006   0.927 -1.5254 -0.0546  3.0865
12262TIP3    H258278  -0.039   4.157   0.929  0.1138 -0.1183 -0.1527
12263TIP3   OH258279   1.029   2.349   3.707  0.6331 -0.4379  0.1746
12263TIP3    H158280   1.066   2.418   3.763 -2.1726  0.4744  1.0422
12263TIP3    H258281   1.020   2.391   3.621 -0.7218  0.1971  0.6088
12264TIP3   OH258282   4.926   2.454  15.559 -0.1892  0.0955  0.0861
12264TIP3    H158283   4.990   2.451  15.629  0.7722  2.4569 -0.5990
12264TIP3    H258284   4.842   2.467  15.603  0.0666 -0.7874  0.8697
12265TIP3   OH258285   3.009   4.438   0.402 -0.4301  0.1690 -0.3296
12265TIP3    H158286   3.047   4.351   0.411 -0.5301  0.1528 -0.0534
12265TIP3    H258287   2.929   4.424   0.350 -0.2967  0.1380 -0.5273
12266TIP3   OH258288   6.079   4.078  17.295  0.3942 -0.3463  0.0629
12266TIP3    H158289   5.986   4.099  17.283  0.3781 -0.0266  0.7396
12266TIP3    H258290   6.081   3.982  17.298  0.1474 -0.3723 -0.3863
12267TIP3   OH258291   0.749   3.697  12.623 -0.4720  0.2344  0.1478
12267TIP3    H158292   0.701   3.772  12.659  0.5164  1.5305 -1.1438
12267TIP3    H258293   0.700   3.672  12.546 -0.0946  0.3938 -0.1480
12268TIP3   OH258294   3.963   6.029  15.042 -0.3076  0.7101  0.7338
12268TIP3    H158295   4.057   6.027  15.026 -0.3944  0.0510  0.2532
12268TIP3    H258296   3.954   6.065  15.130  0.4436 -0.0998  1.1582
12269TIP3   OH258297   0.413   0.558  11.802  0.3263 -0.3749 -1.1758
12269TIP3    H158298   0.328   0.526  11.832 -0.8759 -0.1064 -3.9062
12269TIP3    H258299   0.475   0.491  11.827 -0.9750 -1.3679 -0.5092
12270TIP3   OH258300   2.324   5.174  13.029  0.1414 -0.2950  0.1613
12270TIP3    H158301   2.410   5.149  12.996 -0.1763 -0.0354 -0.8990
12270TIP3    H258302   2.336   5.181  13.123  0.7340 -2.4952  0.3117
12271TIP3   OH258303   2.113   4.292   2.763  0.0373 -0.0931  0.1997
12271TIP3    H158304   2.145   4.382   2.772 -2.4965  1.0812 -1.2451
12271TIP3    H258305   2.153   4.261   2.682 -0.0624  0.2028  0.0354
12272TIP3   OH258306   4.107   5.934   0.674 -0.1993 -0.2708  0.3501
12272TIP3    H158307   4.112   6.029   0.680 -0.3296 -0.2715  0.4752
12272TIP3    H258308   4.031   5.917   0.617  1.1367 -0.2608 -1.5529
12273TIP3   OH258309   4.147   3.570  14.527  0.3694  0.0140  0.1200
12273TIP3    H158310   4.075   3.633  14.523 -0.1832 -0.5941  0.1982
12273TIP3    H258311   4.109   3.489  14.494  0.9210 -0.4161  0.5267
12274TIP3   OH258312   6.748   4.445   3.650  0.0931 -0.7251 -0.1234
12274TIP3    H158313   6.759   4.366   3.704  0.0594 -0.0468  0.8890
12274TIP3    H258314   6.666   4.430   3.603 -1.4230 -0.1034  2.1700
12275TIP3   OH258315   4.608   6.469   4.721 -0.2373 -0.2912  0.4908
12275TIP3    H158316   4.571   6.404   4.661 -0.7968 -1.0243  1.5997
12275TIP3    H258317   4.703   6.457   4.714 -0.3301 -1.2751  0.7171
12276TIP3   OH258318   3.657   0.993   3.773  0.3390  0.0997 -0.7187
12276TIP3    H158319   3.669   1.071   3.826 -0.2533  0.8558 -1.6528
12276TIP3    H258320   3.604   0.935   3.827  1.1005  0.1803  0.1296
12277TIP3   OH258321   2.834   2.010  15.733  0.1404 -0.7982 -0.1517
12277TIP3    H158322   2.910   1.962  15.767 -0.2879 -0.5029  1.3099
12277TIP3    H258323   2.822   2.081  15.796 -0.9805 -0.4845 -0.7079
12278TIP3   OH258324   6.022   5.871   6.149 -0.0742  0.0752  0.2542
12278TIP3    H158325   6.058   5.881   6.236 -0.0864  0.3886  0.2249
12278TIP3    H258326   6.067   5.795   6.112 -0.8246 -0.7059  0.9158
12279TIP3   OH258327   4.686   2.753  14.438 -0.1073 -0.2902 -0.6758
12279TIP3    H158328   4.656   2.830  14.389 -1.6045 -1.3232 -1.4597
12279TIP3    H258329   4.624   2.684  14.415 -0.2605 -1.1120  1.9096
12280TIP3   OH258330   1.730   1.365   6.480 -0.3052 -0.1110  0.4517
12280TIP3    H158331   1.739   1.270   6.476 -1.2462 -0.3917  2.8205
12280TIP3    H258332   1.667   1.386   6.412 -1.8027 -1.5319  1.3135
12281TIP3   OH258333   3.647   1.977  17.494  0.0783 -1.0671  0.4138
12281TIP3    H158334   3.564   1.988  17.541  0.1118 -1.5822  0.6082
12281TIP3    H258335   3.621   1.952  17.405  0.0232 -0.8746  0.3750
12282TIP3   OH258336   2.732   6.597   0.440  0.4425  0.4666 -0.2487
12282TIP3    H158337   2.808   6.636   0.483  0.6243 -0.0309 -0.1065
12282TIP3    H258338   2.747   6.610   0.347 -0.1250  1.8699 -0.1761
12283TIP3   OH258339   2.466   1.964   5.639  0.5966  0.2347 -0.2895
12283TIP3    H158340   2.398   1.898   5.651 -1.9120  2.4233 -1.4215
12283TIP3    H258341   2.464   2.015   5.721  0.2754  0.7787 -0.6278
12284TIP3   OH258342   4.511   6.271  16.119  0.0845 -0.0406  0.6286
12284TIP3    H158343   4.512   6.267  16.215  0.7031 -2.3759  0.5748
12284TIP3    H258344   4.603   6.288  16.096  0.0786 -0.2647  0.4407
12285TIP3   OH258345   2.301   3.558  14.765  0.4474 -0.7059  0.7960
12285TIP3    H158346   2.296   3.644  14.805 -2.8815 -0.4478  0.1389
12285TIP3    H258347   2.229   3.509  14.805 -0.2214 -1.8599 -1.6269
12286TIP3   OH258348   0.486   3.981   4.136 -0.1698 -0.1885  0.0997
12286TIP3    H158349   0.459   3.919   4.204  0.0537 -0.4970 -0.0890
12286TIP3    H258350   0.495   3.928   4.057 -0.0770  0.1036 -0.0891
12287TIP3   OH258351   1.656   5.924   4.782 -0.1190 -0.2106 -0.4796
12287TIP3    H158352   1.600   5.903   4.708 -2.6753 -0.5845  1.4226
12287TIP3    H258353   1.598   5.922   4.858  1.8933  2.2316  1.3281
12288TIP3   OH258354   1.551   1.518   4.985  0.0023  0.3346 -0.2677
12288TIP3    H158355   1.480   1.529   5.048  2.2263 -3.2585  3.3932
12288TIP3    H258356   1.627   1.558   5.027  1.4732 -1.6778 -0.8429
12289TIP3   OH258357   2.617   4.255  11.361  0.3365 -0.0551  0.3770
12289TIP3    H158358   2.541   4.198  11.376 -0.2704  1.3098  3.1384
12289TIP3    H258359   2.615   4.272  11.267 -2.4350 -0.5813  0.2440
12290TIP3   OH258360   3.936   2.365   1.747 -0.0895  0.3520 -0.8681
12290TIP3    H158361   3.991   2.444   1.739 -0.2408  0.6670  0.8178
12290TIP3    H258362   3.991   2.302   1.793 -0.9745  0.5161  0.4420
12291TIP3   OH258363   0.239   6.534   1.757 -0.4313 -0.4977 -0.3534
12291TIP3    H158364   0.292   6.474   1.810 -0.5314 -0.1894  0.1064
12291TIP3    H258365   0.303   6.580   1.703 -0.3093 -0.6940 -0.3784
12292TIP3   OH258366   2.772   3.147   0.077  0.0808  0.1293  0.0629
12292TIP3    H158367   2.733   3.111  -0.003 -1.0253  1.9042 -0.2672
12292TIP3    H258368   2.730   3.099   0.148  0.3276 -0.7751 -0.3855
12293TIP3   OH258369   0.439   5.893   5.831  0.0079 -0.8858 -0.0098
12293TIP3    H158370   0.423   5.985   5.808 -0.4142 -0.7572  0.7932
12293TIP3    H258371   0.356   5.849   5.814 -0.4006 -0.7358  1.5204
12294TIP3   OH258372   4.042   6.388   4.440  0.2125  0.3932 -0.3396
12294TIP3    H158373   4.008   6.398   4.350  0.3981 -1.3057 -0.6249
12294TIP3    H258374   3.966   6.406   4.495 -0.1498  0.5171 -0.8624
12295TIP3   OH258375   3.100   2.280   1.486 -0.3295 -0.4203 -0.0731
12295TIP3    H158376   3.052   2.199   1.505 -1.5446  0.3022  0.0633
12295TIP3    H258377   3.121   2.275   1.393 -1.1155 -0.5402 -0.2472
12296TIP3   OH258378   3.772   3.351  11.927 -0.2313 -0.2928  0.6510
12296TIP3    H158379   3.698   3.330  11.870  1.0215 -1.6895 -0.5310
12296TIP3    H258380   3.849   3.319  11.880  1.1383  1.0102  1.9033
12297TIP3   OH258381   6.027   4.813   1.033 -0.6653  0.2862  0.3042
12297TIP3    H158382   6.065   4.732   1.000  0.1720  0.6385  0.3712
12297TIP3    H258383   6.073   4.829   1.116 -2.2976 -0.2606  1.3573
12298TIP3   OH258384   5.720   6.239  11.709 -0.0177 -0.2293  0.2911
12298TIP3    H158385   5.696   6.152  11.740 -0.4724 -0.6233 -1.1165
12298TIP3    H258386   5.742   6.227  11.617 -0.1296  1.1427  0.0656
12299TIP3   OH258387   0.597   1.756  14.224 -0.0043 -0.4304 -0.5586
12299TIP3    H158388   0.550   1.774  14.143  0.2002 -1.7193 -0.9825
12299TIP3    H258389   0.689   1.750  14.198  0.7998  3.8191  0.5162
12300TIP3   OH258390   0.443   4.710   0.909  0.7305 -0.2346  0.1239
12300TIP3    H158391   0.532   4.739   0.928  0.1103  0.9537  1.3569
12300TIP3    H258392   0.398   4.788   0.877 -0.6473  0.0005  2.3910
12301TIP3   OH258393   5.660   5.084  15.575 -0.1945 -0.4297 -0.3843
12301TIP3    H158394   5.578   5.041  15.596  0.2589 -0.3219  1.8351
12301TIP3    H258395   5.646   5.176  15.598 -0.0661  0.0112 -1.9106
12302TIP3   OH258396   6.225   0.423  15.746 -0.0801 -0.6867  0.0009
12302TIP3    H158397   6.228   0.514  15.774  0.4712 -1.6551  3.6727
12302TIP3    H258398   6.309   0.408  15.703  0.1290  0.3566  0.0171
12303TIP3   OH258399   1.540   3.292  11.123 -0.0535 -0.2840 -0.2897
12303TIP3    H158400   1.610   3.324  11.066 -1.3197 -1.2504 -2.4829
12303TIP3    H258401   1.536   3.356  11.194  0.8048  1.6442 -1.8891
12304TIP3   OH258402   2.184   5.774   6.372 -0.0796 -0.0692 -0.2696
12304TIP3    H158403   2.163   5.691   6.414  0.2926  0.0544  0.1840
12304TIP3    H258404   2.239   5.751   6.298  0.4927 -0.1960  0.1858
12305TIP3   OH258405   2.063   3.267   2.084  0.0160  0.4142  0.5451
12305TIP3    H158406   2.105   3.181   2.088  0.1776  0.4875  0.4279
12305TIP3    H258407   2.023   3.278   2.171  0.6783  0.5684  0.8378
12306TIP3   OH258408   4.582   1.873   3.400  0.0158 -0.7336  0.0379
12306TIP3    H158409   4.578   1.967   3.412  1.3851 -0.6906  0.3919
12306TIP3    H258410   4.597   1.838   3.489 -3.0119 -1.5246  0.3467
12307TIP3   OH258411   2.594   6.470   6.028  0.7628 -0.0526 -0.0648
12307TIP3    H158412   2.510   6.511   6.051  0.5876 -1.7675  2.8395
12307TIP3    H258413   2.583   6.378   6.051  3.3769 -0.3788  0.1659
12308TIP3   OH258414   3.193   0.515   5.146  0.0034  0.2654  0.9302
12308TIP3    H158415   3.170   0.582   5.210  0.6836 -1.2857  2.8987
12308TIP3    H258416   3.108   0.480   5.117 -0.3279  1.4050  0.4697
12309TIP3   OH258417   4.908   2.990   1.826 -0.5872  0.0284 -0.1923
12309TIP3    H158418   4.996   3.019   1.853  0.2239 -1.5460 -1.0019
12309TIP3    H258419   4.867   2.961   1.908 -1.1867  2.6331  0.5429
12310TIP3   OH258420   3.202   0.256   0.216  0.4386 -0.1749 -0.7581
12310TIP3    H158421   3.293   0.226   0.222  1.0735  1.8577  3.1337
12310TIP3    H258422   3.150   0.179   0.238  1.3730 -0.7257 -0.4065
12311TIP3   OH258423   2.667   3.050   3.830 -0.4251 -0.3737  0.2056
12311TIP3    H158424   2.630   3.010   3.909 -0.3829  0.0034  0.4193
12311TIP3    H258425   2.756   3.017   3.825  0.5025  1.6183  1.7996
12312TIP3   OH258426   5.245   6.480   2.692 -0.0713 -0.1877 -0.2587
12312TIP3    H158427   5.205   6.409   2.641 -1.8409  1.5077 -1.3672
12312TIP3    H258428   5.171   6.521   2.738  0.7172  1.5899 -0.4877
12313TIP3   OH258429   5.661   6.283   3.780  0.1586 -0.3283 -0.0683
12313TIP3    H158430   5.600   6.216   3.811  0.1699 -1.1397 -1.7089
12313TIP3    H258431   5.613   6.366   3.789 -0.7739 -0.8354 -0.3160
12314TIP3   OH258432   0.312   5.086  12.756 -0.4154  0.3108  0.3967
12314TIP3    H158433   0.296   5.162  12.699 -0.4109 -0.0889 -0.1473
12314TIP3    H258434   0.399   5.101  12.792  1.0503 -1.0188 -2.3072
12315TIP3   OH258435   5.523   0.846   2.304 -0.4426  0.1681 -0.2393
12315TIP3    H158436   5.618   0.856   2.297  0.0214 -3.5412 -0.8245
12315TIP3    H258437   5.510   0.783   2.375 -2.5986  1.5019  0.6564
12316TIP3   OH258438   5.937   1.412  16.542 -0.3255 -0.5036  0.1697
12316TIP3    H158439   5.907   1.387  16.455  1.2200 -2.0071  0.0397
12316TIP3    H258440   5.859   1.402  16.597 -1.3188  0.4427 -0.9915
12317TIP3   OH258441   5.284   5.288  15.149  0.1055 -0.0350  0.2153
12317TIP3    H158442   5.221   5.275  15.078  1.0255  1.5473 -0.9680
12317TIP3    H258443   5.340   5.210  15.145 -0.1632 -0.1999 -0.4768
12318TIP3   OH258444   1.997   4.977  14.429  0.3780 -0.1664  0.6283
12318TIP3    H158445   2.079   5.013  14.461  0.4266 -0.0826  0.4117
12318TIP3    H258446   1.943   4.967  14.507 -0.1785  1.7479  0.5390
12319TIP3   OH258447   0.158   4.024  11.903  0.3404  0.2246 -0.2247
12319TIP3    H158448   0.250   4.038  11.925  0.0859 -0.1247  1.1648
12319TIP3    H258449   0.143   3.930  11.919 -0.8343  0.7167  2.0353
12320TIP3   OH258450   3.969   1.044   4.445 -0.0673 -0.4918  0.1134
12320TIP3    H158451   3.880   1.076   4.435 -0.5306 -1.0913  1.9333
12320TIP3    H258452   3.967   0.957   4.403  0.0180 -0.0013 -0.9399
12321TIP3   OH258453   0.089   1.080  15.998 -0.1167  0.4380 -0.2931
12321TIP3    H158454   0.038   1.086  15.918 -1.9888 -2.0041  0.5970
12321TIP3    H258455   0.027   1.100  16.068  0.9372  0.4182  0.6773
12322TIP3   OH258456   3.834   5.818  14.678 -0.0178  0.3630  0.0482
12322TIP3    H158457   3.907   5.802  14.617  0.6437 -2.2110  1.3425
12322TIP3    H258458   3.760   5.841  14.622  1.0305 -0.0205 -1.5620
12323TIP3   OH258459   4.893   6.492  15.649  0.1121  0.7963  0.7634
12323TIP3    H158460   4.840   6.571  15.647  0.6327  1.1440 -0.2290
12323TIP3    H258461   4.832   6.421  15.630 -0.1374  1.1089  0.3904
12324TIP3   OH258462   0.065   0.920  14.503  0.2118  0.0903  0.0543
12324TIP3    H158463   0.068   0.951  14.413 -2.2462 -0.4174 -0.2529
12324TIP3    H258464   0.131   0.851  14.507  1.2492  0.9677 -0.9544
12325TIP3   OH258465   2.602   0.053   0.797  0.2106 -0.1397  0.1958
12325TIP3    H158466   2.512   0.064   0.766  0.3874  0.9319  0.0328
12325TIP3    H258467   2.624  -0.037   0.773 -1.4986 -1.1250  2.0917
12326TIP3   OH258468   3.589   4.435  15.314  0.2537 -0.4920  0.1494
12326TIP3    H158469   3.516   4.487  15.346 -0.2053 -0.0789 -1.4680
12326TIP3    H258470   3.572   4.346  15.345 -0.0709 -0.0841  1.1530
12327TIP3   OH258471   4.482   6.226  14.895  0.4078  0.5014  0.0650
12327TIP3    H158472   4.546   6.208  14.825 -0.0405 -1.2036  0.0485
12327TIP3    H258473   4.432   6.300  14.862  0.4243 -0.0509 -1.3014
12328TIP3   OH258474   5.882   0.021  16.584 -0.0601 -0.1589  0.2911
12328TIP3    H158475   5.854   0.030  16.675 -3.4480  0.5134 -0.6912
12328TIP3    H258476   5.887   0.111  16.552 -1.8818 -0.4454 -0.9235
12329TIP3   OH258477   2.637   3.404   0.873  0.0207 -0.3365  0.2521
12329TIP3    H158478   2.661   3.346   0.801  3.1275  1.7668 -0.6370
12329TIP3    H258479   2.710   3.397   0.935 -0.6273  0.9151  1.2114
12330TIP3   OH258480   6.441   0.585  14.984 -0.1927 -0.3649  0.1237
12330TIP3    H158481   6.504   0.649  14.950  1.1918 -1.0147  1.3486
12330TIP3    H258482   6.431   0.521  14.913 -0.8176  0.6453 -0.7238
12331TIP3   OH258483   2.192   6.220   1.544 -0.2458  0.7453  0.0268
12331TIP3    H158484   2.236   6.138   1.566 -2.1487 -0.0786  1.0679
12331TIP3    H258485   2.210   6.278   1.618  1.1509  1.3443 -0.7377
12332TIP3   OH258486   6.161   0.342   6.841  0.3990  0.5208  0.2475
12332TIP3    H158487   6.072   0.377   6.837 -0.0240 -0.3587  1.3243
12332TIP3    H258488   6.217   0.419   6.844 -0.2938  1.0875 -0.8511
12333TIP3   OH258489   2.744   5.078  16.459 -0.0261  0.2248 -0.4681
12333TIP3    H158490   2.759   4.992  16.499  0.9963  0.4350 -0.3918
12333TIP3    H258491   2.831   5.116  16.448 -0.4451  1.1309 -0.7881
12334TIP3   OH258492   2.476   5.372  14.411  0.2285  0.4182  0.6071
12334TIP3    H158493   2.383   5.360  14.395 -0.0938  3.0353  0.0100
12334TIP3    H258494   2.519   5.339  14.332 -0.1703 -0.6799  0.8346
12335TIP3   OH258495   1.146   1.440  11.154 -0.0890 -0.5432  0.3797
12335TIP3    H158496   1.054   1.465  11.143 -1.0631 -3.4950  0.7303
12335TIP3    H258497   1.181   1.437  11.065 -1.8931 -4.1899 -0.4066
12336TIP3   OH258498   5.495   2.293  15.247 -0.0674  0.1394  0.6014
12336TIP3    H158499   5.452   2.361  15.299 -2.2291 -1.0332  0.4998
12336TIP3    H258500   5.422   2.241  15.213  1.4099 -0.7337 -1.3789
12337TIP3   OH258501   6.254   6.627  12.709  0.3691  0.7087 -0.5016
12337TIP3    H158502   6.262   6.656  12.618 -0.6043 -0.0658 -0.8565
12337TIP3    H258503   6.343   6.627  12.743  1.1924 -1.7077 -2.3327
12338TIP3   OH258504   3.387   4.374   1.380  0.0014 -0.1825 -0.4428
12338TIP3    H158505   3.468   4.415   1.352 -0.1533 -0.3331 -1.1166
12338TIP3    H258506   3.371   4.411   1.467 -0.8100  2.2225 -1.5163
12339TIP3   OH258507   1.021   2.399  15.573  0.5032 -0.3351  0.5834
12339TIP3    H158508   0.997   2.403  15.666  1.1064 -0.9054  0.7635
12339TIP3    H258509   0.997   2.311  15.546 -1.0737  0.2867 -0.2072
12340TIP3   OH258510   2.888   1.733   3.172 -0.3921 -0.1193 -0.1539
12340TIP3    H158511   2.825   1.691   3.231 -1.3603  2.1699  0.5540
12340TIP3    H258512   2.901   1.670   3.101 -1.0448 -1.9471  1.2727
12341TIP3   OH258513   0.433   6.519   4.115  0.3934  0.2934 -0.1934
12341TIP3    H158514   0.415   6.612   4.103  0.1682  0.3015  0.2097
12341TIP3    H258515   0.487   6.496   4.040  0.3350  0.7174 -0.3703
12342TIP3   OH258516   1.531   3.271  15.545  0.3655 -0.1354 -0.2952
12342TIP3    H158517   1.484   3.333  15.601 -0.7088 -1.3715  0.2171
12342TIP3    H258518   1.620   3.271  15.579  0.1147  0.3328  0.3918
12343TIP3   OH258519   5.885   5.218   6.009  0.7206  0.6580 -0.0451
12343TIP3    H158520   5.839   5.206   6.092 -0.4159  2.2351 -0.4127
12343TIP3    H258521   5.883   5.312   5.993 -0.7666  0.2723 -2.7578
12344TIP3   OH258522   0.593   3.066   1.376  0.1754  0.3282 -0.7749
12344TIP3    H158523   0.532   3.084   1.304 -0.7495  1.9467  0.3318
12344TIP3    H258524   0.603   3.151   1.420  2.3203 -0.1645 -0.1950
12345TIP3   OH258525   6.348   1.281  13.931  0.1344 -0.5367  0.1940
12345TIP3    H158526   6.399   1.207  13.898  1.5745  0.5267 -0.0697
12345TIP3    H258527   6.323   1.330  13.853  3.1657  1.7389  0.4512
12346TIP3   OH258528   0.412   3.731  13.616 -0.0764  0.4411 -0.2038
12346TIP3    H158529   0.407   3.737  13.711 -1.6570 -0.6972 -0.1613
12346TIP3    H258530   0.372   3.812  13.585  0.9791  1.0774  0.0945
12347TIP3   OH258531   6.715   3.372   4.163 -0.6508  0.0246 -0.8482
12347TIP3    H158532   6.639   3.332   4.205 -1.3556  0.9779 -1.1781
12347TIP3    H258533   6.786   3.310   4.179 -1.3467 -0.5823  0.0176
12348TIP3   OH258534   0.905   2.982  11.412 -0.2241 -0.8834  0.1188
12348TIP3    H158535   0.817   2.947  11.398 -0.4363  0.2784 -1.7938
12348TIP3    H258536   0.898   3.074  11.387  1.2166 -0.3942  1.3746
12349TIP3   OH258537   4.934   0.554   4.008 -0.5434  0.3336  0.2452
12349TIP3    H158538   4.948   0.631   3.952 -0.8949 -0.0018 -0.3070
12349TIP3    H258539   4.995   0.488   3.974 -0.0953  0.4282  0.8499
12350TIP3   OH258540   5.741   2.837   3.044  0.0594 -0.3323 -0.3352
12350TIP3    H158541   5.821   2.823   2.993 -1.3011 -3.1395 -1.9310
12350TIP3    H258542   5.716   2.928   3.025  1.8106 -0.0183 -1.3595
12351TIP3   OH258543   2.913   6.281  11.847  0.6403  0.4271  0.3032
12351TIP3    H158544   2.870   6.220  11.788 -1.7212  1.1038  1.1930
12351TIP3    H258545   2.919   6.363  11.798 -0.2027  0.6563  0.5746
12352TIP3   OH258546   6.218   1.652   3.933 -0.4386  0.0773 -0.1873
12352TIP3    H158547   6.290   1.591   3.950 -0.8073 -0.7325 -1.4269
12352TIP3    H258548   6.140   1.606   3.963 -0.9454 -0.8659 -2.7228
12353TIP3   OH258549   5.009   5.407  14.760 -0.0073  0.0639  0.0057
12353TIP3    H158550   4.913   5.414  14.755  0.0914  2.7175  0.5337
12353TIP3    H258551   5.041   5.493  14.733  2.3510 -1.3151 -1.9091
12354TIP3   OH258552   4.970   0.859   0.369  0.2476 -0.5433 -0.2509
12354TIP3    H158553   4.887   0.811   0.363  0.3561 -0.6380 -1.1251
12354TIP3    H258554   4.975   0.887   0.461 -1.0106 -0.0645 -0.3120
12355TIP3   OH258555   4.320   1.704  10.975 -0.7420  0.0645 -0.2605
12355TIP3    H158556   4.401   1.663  11.006 -0.9443 -0.0016  0.1957
12355TIP3    H258557   4.250   1.649  11.011 -0.9945 -1.6422 -3.1065
12356TIP3   OH258558   1.988   3.538  16.925  0.8415  0.3551  0.8703
12356TIP3    H158559   1.952   3.625  16.908 -1.1449 -0.5540  0.0072
12356TIP3    H258560   2.072   3.554  16.967  1.2743  2.6910 -0.7112
12357TIP3   OH258561   3.431   3.884  15.707  0.4899 -0.3340  0.0922
12357TIP3    H158562   3.394   3.971  15.694  1.5739  0.0368 -0.6903
12357TIP3    H258563   3.499   3.897  15.773 -0.1901 -0.8488  0.9132
12358TIP3   OH258564   5.912   5.002   1.361  0.0267  0.0327  0.0957
12358TIP3    H158565   5.918   4.974   1.270 -1.4864  1.0649 -0.3677
12358TIP3    H258566   5.818   5.005   1.379  0.3011 -0.5665  1.8416
12359TIP3   OH258567   2.475   5.563  15.679 -0.1518  0.1885  0.1746
12359TIP3    H158568   2.531   5.632  15.714 -0.6344  0.4338  0.4786
12359TIP3    H258569   2.486   5.569  15.584 -0.5093  0.9644  0.1720
12360TIP3   OH258570   0.794   6.507   0.951 -0.0279  0.2047 -0.4934
12360TIP3    H158571   0.712   6.476   0.990 -0.4651  2.4806  0.5378
12360TIP3    H258572   0.769   6.585   0.901  1.2175 -0.2067 -1.8210
12361TIP3   OH258573   4.242   4.142  17.250 -0.3234  0.3878 -0.0893
12361TIP3    H158574   4.247   4.237  17.255  0.1277  0.5972 -3.1350
12361TIP3    H258575   4.212   4.123  17.161  0.1560 -2.3491  0.2313
12362TIP3   OH258576   0.096   6.428  15.751  0.3558 -0.1500  0.7203
12362TIP3    H158577   0.024   6.441  15.691  0.9006 -3.2901 -0.8090
12362TIP3    H258578   0.140   6.513  15.755 -1.6018  1.0026 -0.7200
12363TIP3   OH258579   5.318   2.400   0.551  0.1071  1.2059  0.0378
12363TIP3    H158580   5.407   2.383   0.582  0.2539  0.2652 -0.8400
12363TIP3    H258581   5.265   2.406   0.630  0.5523 -0.6239  0.5074
12364TIP3   OH258582   6.624   6.607  11.255  0.4547  0.0549 -0.1968
12364TIP3    H158583   6.567   6.683  11.265 -0.1715 -0.3059 -0.9030
12364TIP3    H258584   6.712   6.643  11.246  0.3259  0.6290  0.7242
12365TIP3   OH258585   4.811   6.673   3.163 -0.5282 -0.4865 -0.2494
12365TIP3    H158586   4.811   6.684   3.068 -1.8400 -1.3033 -0.3747
12365TIP3    H258587   4.763   6.750   3.195 -1.7812 -1.1725 -0.4199
12366TIP3   OH258588   2.942   2.607   4.404  0.3185 -0.2852  0.9348
12366TIP3    H158589   2.948   2.686   4.350  0.3396 -0.0364  1.2995
12366TIP3    H258590   2.905   2.541   4.345 -2.1041  0.6461  1.2879
12367TIP3   OH258591   2.010   5.286   5.635 -0.0807 -0.3760 -0.8830
12367TIP3    H158592   2.093   5.291   5.589 -0.0254  1.7466 -0.6768
12367TIP3    H258593   1.946   5.320   5.572 -0.2113  1.2816  0.0812
12368TIP3   OH258594   4.451   0.353   5.352  0.5474  0.0494 -0.1198
12368TIP3    H158595   4.402   0.395   5.281  1.1901 -0.7077 -1.0248
12368TIP3    H258596   4.482   0.427   5.405 -0.2082  0.6114 -0.4353
12369TIP3   OH258597   0.344   5.315  16.465 -0.1210 -0.4367 -0.2863
12369TIP3    H158598   0.375   5.292  16.377  1.5274  2.3122 -0.5356
12369TIP3    H258599   0.394   5.258  16.523  0.9049 -0.3183 -1.0129
12370TIP3   OH258600   1.996   2.420  12.600  0.7876  0.1830 -0.5061
12370TIP3    H158601   1.929   2.449  12.538 -0.1622  0.6143  0.6821
12370TIP3    H258602   2.073   2.401  12.545  0.2981  1.4846 -1.7034
12371TIP3   OH258603   3.853   0.444  13.742 -0.3500 -0.2487  0.7776
12371TIP3    H158604   3.760   0.437  13.722 -0.8011 -0.8334  2.8670
12371TIP3    H258605   3.864   0.394  13.823  2.1297 -1.7229 -0.3623
12372TIP3   OH258606   2.980   1.262  11.287  0.4759  0.0984 -0.2626
12372TIP3    H158607   3.028   1.184  11.261  0.6297 -0.4236  1.4139
12372TIP3    H258608   2.969   1.252  11.382  0.4381  2.0781 -0.0165
12373TIP3   OH258609   6.658   4.612   1.874 -0.2062  0.3719  0.2799
12373TIP3    H158610   6.681   4.655   1.792  0.1135 -1.2702 -0.5515
12373TIP3    H258611   6.563   4.622   1.881 -0.2297  0.5782 -0.2764
12374TIP3   OH258612   1.449   2.847  16.505 -0.0608  0.1371 -0.1892
12374TIP3    H158613   1.376   2.872  16.561 -1.4249 -1.1997 -1.3085
12374TIP3    H258614   1.450   2.913  16.436 -0.3342  0.0447 -0.2822
12375TIP3   OH258615   3.935   0.989   5.123 -0.0143 -0.2601 -0.3675
12375TIP3    H158616   3.982   1.059   5.079  0.7388  0.0289  0.8436
12375TIP3    H258617   3.902   0.934   5.052 -0.6588  1.3214 -1.3426
12376TIP3   OH258618   3.418   0.886   0.557  0.1646 -0.4025  0.0134
12376TIP3    H158619   3.442   0.926   0.641 -1.5926  0.1467  0.2997
12376TIP3    H258620   3.422   0.792   0.573  0.9013 -0.3148  0.3838
12377TIP3   OH258621   6.013   2.268   5.425 -0.3257 -0.3375  0.4742
12377TIP3    H158622   6.024   2.222   5.508  0.3217 -0.1821  0.4772
12377TIP3    H258623   5.957   2.210   5.373 -1.3608 -0.0798  1.2824
12378TIP3   OH258624   0.775   4.314   3.201  0.2818  0.2737 -0.7252
12378TIP3    H158625   0.724   4.371   3.259 -1.1172  0.2536 -1.8712
12378TIP3    H258626   0.768   4.355   3.115  3.4642  1.0682 -0.7323
12379TIP3   OH258627   2.016   2.831  16.700 -0.3689 -0.7413  0.0231
12379TIP3    H158628   2.037   2.913  16.655  0.4656 -1.3288 -0.6747
12379TIP3    H258629   2.010   2.855  16.793  1.6784 -0.2181  0.0534
12380TIP3   OH258630   1.804   5.753   4.101 -0.4825  0.4264 -0.3216
12380TIP3    H158631   1.798   5.775   4.194 -2.9821  0.1770 -0.3471
12380TIP3    H258632   1.884   5.796   4.071  0.7549 -0.0481  2.0618
12381TIP3   OH258633   2.025   5.896   4.014  0.2479  0.1386 -0.3501
12381TIP3    H158634   1.984   5.953   3.949 -1.2278  1.0337  1.2805
12381TIP3    H258635   2.043   5.954   4.088  2.0526 -0.8150  0.0040
12382TIP3   OH258636   2.255   0.250   3.732  0.7903  0.6211  0.1054
12382TIP3    H158637   2.280   0.158   3.723 -1.1198  0.2278 -1.8981
12382TIP3    H258638   2.165   0.248   3.765  0.8245  1.7987  0.3318
12383TIP3   OH258639   5.415   5.580  13.725 -0.0681  0.0344 -0.2993
12383TIP3    H158640   5.400   5.565  13.818 -0.4345  1.0523 -0.1805
12383TIP3    H258641   5.328   5.569  13.685 -0.3836  1.7930 -0.1920
12384TIP3   OH258642   5.806   3.238  14.370 -0.3532  0.3297 -0.3228
12384TIP3    H158643   5.796   3.146  14.348  1.3778  0.0112  0.0539
12384TIP3    H258644   5.819   3.239  14.465  0.8288  0.8067 -0.4640
12385TIP3   OH258645   5.491   0.536  14.413  0.0661 -1.1676  0.1995
12385TIP3    H158646   5.574   0.553  14.456  0.2756 -1.0316 -0.2528
12385TIP3    H258647   5.505   0.455  14.365  0.8680  0.2361 -2.1462
12386TIP3   OH258648   0.733   4.972   2.225  0.6312  0.3477 -0.0612
12386TIP3    H158649   0.663   4.979   2.161  0.0307  0.8024  0.6220
12386TIP3    H258650   0.770   5.060   2.229 -0.6428  0.8616  1.6248
12387TIP3   OH258651   5.292   0.518  16.358  0.1883  0.0570  0.2898
12387TIP3    H158652   5.284   0.573  16.280  0.3901  0.4243  0.5279
12387TIP3    H258653   5.343   0.570  16.419  1.0355 -0.6839  0.2457
12388TIP3   OH258654   2.551   3.311  13.506  0.0403 -0.2644 -0.1175
12388TIP3    H158655   2.604   3.390  13.518  0.1701 -0.2128 -0.9479
12388TIP3    H258656   2.563   3.288  13.414 -0.3757 -0.9835 -0.0016
12389TIP3   OH258657   2.000   6.141  15.712  0.2726  0.1271 -0.1205
12389TIP3    H158658   2.044   6.226  15.705 -0.0856  0.2544 -0.9927
12389TIP3    H258659   1.910   6.163  15.734 -0.3629  0.1420 -2.4493
12390TIP3   OH258660   6.514   1.251  14.172  0.1301  0.3365  0.0398
12390TIP3    H158661   6.444   1.256  14.107 -0.7537  0.3036  0.9799
12390TIP3    H258662   6.481   1.192  14.239  1.0366  0.3779  0.5370
12391TIP3   OH258663   6.339   3.855   1.885  0.0836 -0.4449  0.1178
12391TIP3    H158664   6.360   3.942   1.920  2.0736 -1.0618  0.5782
12391TIP3    H258665   6.417   3.802   1.902  0.5329 -1.3103 -3.6305
12392TIP3   OH258666   4.063   1.082  13.723 -0.0390 -0.4076 -0.3963
12392TIP3    H158667   3.986   1.113  13.770  0.4596 -1.6036  1.3016
12392TIP3    H258668   4.134   1.139  13.752 -0.2959  0.9802 -2.2955
12393TIP3   OH258669   4.302   0.088   2.536  0.0494  1.1125  0.4146
12393TIP3    H158670   4.219   0.045   2.515 -0.4230  1.7638  0.9197
12393TIP3    H258671   4.308   0.160   2.473  1.0248  0.1110 -0.6821
12394TIP3   OH258672   4.692   5.256  12.406  0.5646  0.2195  0.6558
12394TIP3    H158673   4.747   5.327  12.374 -0.7611  0.4911 -1.1526
12394TIP3    H258674   4.713   5.182  12.349 -1.1569  0.4324 -0.3095
12395TIP3   OH258675   1.513   3.168   1.615  0.1485  0.6590 -0.1839
12395TIP3    H158676   1.446   3.238   1.612  1.1970  1.6721 -1.0182
12395TIP3    H258677   1.551   3.169   1.527 -0.8607 -2.0748 -0.7480
12396TIP3   OH258678   4.461   5.556   3.574 -0.1113  0.5069 -0.1602
12396TIP3    H158679   4.373   5.547   3.538  0.1649 -1.8291 -0.4053
12396TIP3    H258680   4.481   5.649   3.565 -2.0964  0.9001 -1.1362
12397TIP3   OH258681   5.823   3.467  16.727 -0.2878 -0.2109 -0.3971
12397TIP3    H158682   5.735   3.437  16.748 -0.4986  0.3713 -0.4439
12397TIP3    H258683   5.849   3.520  16.802  0.9937 -2.3524  0.7899
12398TIP3   OH258684   2.446   0.801  14.423 -0.3449 -0.2229 -0.3958
12398TIP3    H158685   2.518   0.849  14.464 -0.3911 -0.0125 -0.5551
12398TIP3    H258686   2.371   0.861  14.431 -0.6630 -0.7107  0.3598
12399TIP3   OH258687   3.992   5.684   3.770 -0.1822  0.6096  0.2766
12399TIP3    H158688   4.076   5.710   3.732  0.1341 -1.5724 -0.6585
12399TIP3    H258689   4.012   5.610   3.827 -1.6626 -1.5311 -1.7825
12400TIP3   OH258690   5.944   0.800  15.706 -0.2868  0.5702 -0.6249
12400TIP3    H158691   6.010   0.803  15.636  0.5294  0.4735  0.1242
12400TIP3    H258692   5.882   0.732  15.678  0.1159  0.4152 -1.1683
12401TIP3   OH258693   2.782   3.933   5.359  0.6108 -0.2123 -0.4400
12401TIP3    H158694   2.720   3.950   5.429 -1.2251 -0.7457 -1.8666
12401TIP3    H258695   2.868   3.949   5.398 -0.4493  1.8978  1.2055
12402TIP3   OH258696   0.779   0.179   1.077 -0.5156 -0.2291  0.2823
12402TIP3    H158697   0.859   0.230   1.083 -1.4511  1.1246  1.9423
12402TIP3    H258698   0.777   0.149   0.986  1.0180  1.0961 -0.2310
12403TIP3   OH258699   4.377   3.983  11.150  0.1830  0.0038  0.1744
12403TIP3    H158700   4.450   4.007  11.093 -0.7592  0.9280 -0.6819
12403TIP3    H258701   4.304   4.036  11.118 -0.1128  1.4708  2.9634
12404TIP3   OH258702   0.058   5.273  13.001 -0.5036 -0.5897 -0.0774
12404TIP3    H158703  -0.030   5.309  12.988  0.1339  0.3181 -2.3522
12404TIP3    H258704   0.059   5.193  12.949 -0.0619 -0.7397  0.1576
12405TIP3   OH258705   1.264   6.684  15.731  0.3978 -0.5334 -0.2358
12405TIP3    H158706   1.272   6.589  15.724 -0.5971 -0.5997 -0.6358
12405TIP3    H258707   1.315   6.707  15.808 -0.2372 -1.5187  0.5016
12406TIP3   OH258708   1.550   0.350  15.163 -0.3943  0.0445 -0.3584
12406TIP3    H158709   1.626   0.325  15.110 -0.4996  1.2436 -1.1042
12406TIP3    H258710   1.545   0.282  15.230  1.7051  0.2571  0.0826
12407TIP3   OH258711   5.691   4.151   0.503 -0.4728  0.3961  0.4932
12407TIP3    H158712   5.619   4.107   0.458 -0.1908  1.9770 -1.6165
12407TIP3    H258713   5.762   4.153   0.440  0.0129  2.5088  1.0339
12408TIP3   OH258714   2.325   1.195   3.883 -0.0084 -0.1903  0.3417
12408TIP3    H158715   2.255   1.229   3.937 -0.0908 -0.5626  0.4729
12408TIP3    H258716   2.282   1.166   3.802 -0.4267 -2.7278  1.3756
12409TIP3   OH258717   2.058   2.718   6.257 -0.2510 -0.2995  0.5011
12409TIP3    H158718   2.031   2.722   6.348 -1.2859 -0.2518  0.1982
12409TIP3    H258719   2.120   2.791   6.247 -2.1059  1.3660  0.5362
12410TIP3   OH258720   3.727   3.003  15.594 -0.3293 -0.1595  0.2152
12410TIP3    H158721   3.666   3.040  15.531 -1.2645  1.7587  2.1159
12410TIP3    H258722   3.806   3.057  15.586 -0.1659 -0.4008  0.1811
12411TIP3   OH258723   0.599   0.725  16.616  0.2373 -0.1822  0.1143
12411TIP3    H158724   0.631   0.718  16.526 -1.9878 -0.2312 -0.7419
12411TIP3    H258725   0.603   0.635  16.650 -0.6169 -0.5072 -0.5997
12412TIP3   OH258726   2.470   0.974  13.645  0.2449  0.4925  0.3785
12412TIP3    H158727   2.433   1.040  13.704  0.5247  0.1259  0.9740
12412TIP3    H258728   2.563   0.976  13.664 -0.0360 -2.1533  2.6109
12413TIP3   OH258729   3.881   2.549   2.385  0.0387 -0.0986 -0.2616
12413TIP3    H158730   3.919   2.461   2.392 -0.6769 -0.4896 -1.0517
12413TIP3    H258731   3.791   2.533   2.358  0.0757  0.9011 -1.0280
12414TIP3   OH258732   2.899   3.845   1.502  0.5072  0.5148 -0.0892
12414TIP3    H158733   2.923   3.928   1.462 -1.1740  1.0793 -0.0204
12414TIP3    H258734   2.833   3.868   1.568  1.4660 -0.6598  1.3571
12415TIP3   OH258735   1.164   6.320   1.382 -0.0329 -0.2374  0.1985
12415TIP3    H158736   1.119   6.401   1.356  1.6619  0.4804 -0.7172
12415TIP3    H258737   1.239   6.315   1.323  1.1040 -1.3553  1.6566
12416TIP3   OH258738   0.653   1.212  16.911  0.1086  0.7881 -0.1368
12416TIP3    H158739   0.725   1.266  16.943 -1.2579  1.5830  1.7700
12416TIP3    H258740   0.657   1.221  16.816  2.0751  1.3682 -0.0414
12417TIP3   OH258741   4.121   4.992  11.497  0.5367  0.0235  0.2630
12417TIP3    H158742   4.133   4.994  11.402 -0.9506 -1.2900  0.0147
12417TIP3    H258743   4.209   4.979  11.532  0.8994 -1.1719 -1.0177
12418TIP3   OH258744   1.377   1.044  16.137  0.0371  0.0386  0.5339
12418TIP3    H158745   1.289   1.076  16.116 -0.6137 -1.6945  0.4605
12418TIP3    H258746   1.383   1.053  16.232  0.9349  2.8468  0.3017
12419TIP3   OH258747   3.574   2.593  11.353 -0.0514 -0.2033 -0.5701
12419TIP3    H158748   3.629   2.672  11.357 -0.9420  0.3869  1.5733
12419TIP3    H258749   3.631   2.526  11.315  1.9785  0.5339  0.9662
12420TIP3   OH258750   3.854   0.560  11.848 -0.0669 -0.2879  0.0201
12420TIP3    H158751   3.840   0.493  11.781 -0.0194 -1.1913  0.8835
12420TIP3    H258752   3.948   0.574  11.849  0.0299 -0.8809  0.4349
12421TIP3   OH258753   4.335   1.051  15.495  0.2729  0.5050  0.0577
12421TIP3    H158754   4.246   1.083  15.478  0.0789  0.7953  1.4648
12421TIP3    H258755   4.373   1.040  15.408 -0.4877  2.1988 -0.5474
12422TIP3   OH258756   6.697   5.536  11.925  0.5661  0.3152  0.0817
12422TIP3    H158757   6.638   5.528  11.850  0.1848 -0.3170  0.4465
12422TIP3    H258758   6.641   5.568  11.996  0.7288  0.0231  0.3426
12423TIP3   OH258759   6.735   3.978  13.962  0.2857 -0.2796  0.1341
12423TIP3    H158760   6.809   3.956  13.906  0.2348 -0.3066  0.0763
12423TIP3    H258761   6.773   3.990  14.049  0.3389 -0.4182  0.1307
12424TIP3   OH258762   1.846   1.242   3.301  0.2169 -0.2511  0.1846
12424TIP3    H158763   1.761   1.282   3.285  0.1833  0.0980  1.1505
12424TIP3    H258764   1.847   1.164   3.245 -1.0665 -0.6950  0.7393
12425TIP3   OH258765   2.500   5.545   0.110  0.0947 -0.3422  1.3746
12425TIP3    H158766   2.544   5.615   0.158  0.9263 -0.4695  0.8044
12425TIP3    H258767   2.569   5.500   0.062 -0.8253  0.5332 -0.9355
12426TIP3   OH258768   4.508   2.866  11.131  0.0904 -0.2707  0.4835
12426TIP3    H158769   4.570   2.923  11.179 -1.4415  0.6232  1.4959
12426TIP3    H258770   4.539   2.869  11.040  1.3163  0.4449  0.8897
12427TIP3   OH258771   2.200   0.955  14.844  0.5132  0.2721  0.2992
12427TIP3    H158772   2.159   1.012  14.780  0.2128  0.4703  0.6630
12427TIP3    H258773   2.175   0.993  14.929 -0.5009 -0.9481  0.5741
12428TIP3   OH258774   1.765   3.215  16.443  0.3997  0.4491  0.2138
12428TIP3    H158775   1.752   3.151  16.513  0.1322  0.3163  0.0421
12428TIP3    H258776   1.737   3.298  16.482 -1.8059  0.0474 -0.4031
12429TIP3   OH258777   6.723   0.498  15.393 -0.0012  0.1364 -0.4116
12429TIP3    H158778   6.632   0.484  15.367  0.6013 -1.0456 -2.0733
12429TIP3    H258779   6.729   0.592  15.409 -1.4128  0.2974 -0.6763
12430TIP3   OH258780   0.064   1.640  16.856 -0.2193  0.5222 -0.7040
12430TIP3    H158781   0.104   1.685  16.930 -2.2467  0.3399  0.5575
12430TIP3    H258782  -0.012   1.693  16.833 -0.1289  0.0970 -2.0987
12431TIP3   OH258783   1.737   3.629  15.436  0.1575  0.4955 -0.0550
12431TIP3    H158784   1.829   3.628  15.460  0.1095  0.4709  0.1320
12431TIP3    H258785   1.692   3.595  15.513  0.0832 -0.5884 -0.5593
12432TIP3   OH258786   3.786   0.081   0.023 -0.6981  0.1364  0.0682
12432TIP3    H158787   3.704   0.033   0.023 -0.2299 -0.7090 -1.0369
12432TIP3    H258788   3.831   0.053   0.102 -2.2238  2.0186  1.7052
12433TIP3   OH258789   1.533   5.920  16.246 -0.3646  0.1665 -0.0817
12433TIP3    H158790   1.491   5.942  16.163  0.7964 -2.0413 -1.3426
12433TIP3    H258791   1.462   5.899  16.306 -1.2059  1.5790 -0.5482
12434TIP3   OH258792   1.608   2.397   1.922 -0.1810  0.5039 -0.0335
12434TIP3    H158793   1.552   2.377   1.998  0.7549 -3.4393 -0.1496
12434TIP3    H258794   1.561   2.358   1.848  1.6349 -1.0207 -0.4498
12435TIP3   OH258795   1.644   1.631  12.878 -0.6742 -0.0601 -0.1478
12435TIP3    H158796   1.622   1.545  12.841 -0.6884  0.1174 -0.5624
12435TIP3    H258797   1.712   1.665  12.819 -0.7389  0.2532 -0.0427
12436TIP3   OH258798   0.470   6.328   3.066 -0.1921  0.3299 -0.0401
12436TIP3    H158799   0.555   6.344   3.108  1.3446 -1.8902 -2.0488
12436TIP3    H258800   0.447   6.239   3.091 -1.6194  0.6460 -0.1349
12437TIP3   OH258801   6.078   0.551   1.391  0.7622  0.2973 -0.3979
12437TIP3    H158802   6.060   0.642   1.416  0.8459  0.1755  0.1270
12437TIP3    H258803   6.171   0.549   1.370  0.3918  0.7290 -2.2248
12438TIP3   OH258804   2.910   5.876  14.590 -0.2397  0.0918 -0.7498
12438TIP3    H158805   2.821   5.909  14.596 -0.7405 -1.1419 -1.0112
12438TIP3    H258806   2.900   5.786  14.558  0.9800 -0.6032  0.6739
12439TIP3   OH258807   0.924   0.997  13.958 -0.7022 -0.1131 -0.2689
12439TIP3    H158808   0.996   1.059  13.970 -1.9329  1.1515  0.8161
12439TIP3    H258809   0.897   1.009  13.866 -1.0681  1.1326 -0.0136
12440TIP3   OH258810   2.873   6.304   2.049  0.3070  0.3277  0.0391
12440TIP3    H158811   2.893   6.398   2.052  0.8339  0.2235 -0.0886
12440TIP3    H258812   2.929   6.265   2.116  1.7113 -0.1649 -1.3439
12441TIP3   OH258813   3.609   1.415   3.371 -0.2608 -0.4013  0.1671
12441TIP3    H158814   3.525   1.434   3.328 -0.1531 -1.6641 -0.6789
12441TIP3    H258815   3.662   1.376   3.302 -0.1758 -2.8031  1.4850
12442TIP3   OH258816   4.100   1.330   5.001  0.2800 -0.1667  0.5189
12442TIP3    H158817   4.129   1.312   4.911 -1.2665 -0.7640  0.1090
12442TIP3    H258818   4.054   1.414   4.994 -1.0903 -0.9014  0.4407
12443TIP3   OH258819   3.998   1.274  10.975  0.2966  0.7944  0.3244
12443TIP3    H158820   3.939   1.298  10.903  0.6491  0.9428  0.0855
12443TIP3    H258821   4.026   1.185  10.954  2.3562  1.6864 -1.0587
12444TIP3   OH258822   1.998   4.184   5.831  0.4578 -0.4802  1.1516
12444TIP3    H158823   1.905   4.167   5.846 -0.1575  1.0930 -0.5265
12444TIP3    H258824   2.018   4.259   5.885 -0.4182  1.8492 -1.5025
12445TIP3   OH258825   2.522   4.207   0.189  0.5997 -0.4224 -0.1174
12445TIP3    H158826   2.442   4.252   0.215  0.6610 -0.8132  0.8071
12445TIP3    H258827   2.578   4.211   0.267  1.4918 -0.1248 -0.7650
12446TIP3   OH258828   1.689   5.507   2.022 -0.2483 -0.2224  0.2850
12446TIP3    H158829   1.764   5.561   1.996 -1.2399  1.3836  0.6029
12446TIP3    H258830   1.726   5.439   2.077  1.1345 -0.2444 -0.6320
12447TIP3   OH258831   5.057   1.067  14.039  0.4769 -0.1484  0.5853
12447TIP3    H158832   5.001   1.125  13.988  1.7097  0.5398 -0.0297
12447TIP3    H258833   5.021   0.980  14.023  0.0219  0.1947 -0.3786
12448TIP3   OH258834   1.779   6.258   2.444 -0.1948 -0.2582 -0.2075
12448TIP3    H158835   1.723   6.304   2.506  0.1238 -1.0146  0.6623
12448TIP3    H258836   1.719   6.227   2.377 -0.4977  0.8465 -0.4695
12449TIP3   OH258837   5.704   6.329   5.846 -0.1486  0.2681 -0.1060
12449TIP3    H158838   5.780   6.316   5.903 -0.0077 -0.8550 -0.5241
12449TIP3    H258839   5.741   6.350   5.761 -0.2988 -0.2619 -0.3052
12450TIP3   OH258840   5.476   2.355   5.911 -0.2659  0.2036 -0.0525
12450TIP3    H158841   5.436   2.276   5.949  0.5296 -0.9911 -1.5919
12450TIP3    H258842   5.515   2.400   5.987  2.0506 -2.5561  0.5781
12451TIP3   OH258843   5.032   1.948  11.290  0.1121 -0.4190 -0.3268
12451TIP3    H158844   5.092   2.022  11.294 -0.7250  0.2410  0.3887
12451TIP3    H258845   5.008   1.941  11.198 -0.2155  0.5514 -0.3266
12452TIP3   OH258846   2.007   0.719  12.063  0.2631 -0.1990 -0.1011
12452TIP3    H158847   2.009   0.771  11.983  0.2310 -1.0372 -0.6644
12452TIP3    H258848   2.098   0.720  12.095  0.6210 -1.1861 -1.0391
12453TIP3   OH258849   1.430   5.982   4.945 -0.1934  0.0275 -0.6182
12453TIP3    H158850   1.368   5.924   4.900 -0.0452 -0.8135  0.2364
12453TIP3    H258851   1.390   6.069   4.937 -1.2272 -0.4214 -0.5391
12454TIP3   OH258852   0.202   2.343   3.063  0.0404 -0.3195  0.1281
12454TIP3    H158853   0.290   2.316   3.090  0.5496  1.0805 -0.0289
12454TIP3    H258854   0.169   2.394   3.138 -0.3719 -0.2954 -0.0661
12455TIP3   OH258855   1.780   1.168   2.025 -0.0230  1.1047  0.0873
12455TIP3    H158856   1.765   1.113   2.102  1.5578  1.0049  0.3579
12455TIP3    H258857   1.741   1.252   2.048  1.1989  1.3562  1.3847
12456TIP3   OH258858   1.566   1.200   5.649 -0.1294 -0.6390 -0.1013
12456TIP3    H158859   1.476   1.230   5.643  0.5830  1.4251 -1.3021
12456TIP3    H258860   1.592   1.184   5.559  0.6697 -1.4140  0.2477
12457TIP3   OH258861   6.293   4.202  14.816  0.0888 -0.3044 -0.8776
12457TIP3    H158862   6.259   4.133  14.873  0.5500 -1.4047 -1.9058
12457TIP3    H258863   6.383   4.214  14.844 -0.2894  0.6680  0.0073
12458TIP3   OH258864   6.065   4.822   0.570  0.6301 -0.1589 -0.2610
12458TIP3    H158865   6.136   4.758   0.577 -0.3466 -1.2906 -0.3348
12458TIP3    H258866   6.045   4.825   0.477  0.1764 -0.3138 -0.1701
12459TIP3   OH258867   1.236   5.323   7.051 -0.4536  0.0801 -0.0493
12459TIP3    H158868   1.289   5.256   7.008 -0.3304 -0.1773  0.4970
12459TIP3    H258869   1.300   5.384   7.087 -0.5654  1.6251 -2.2475
12460TIP3   OH258870   2.095   1.445  11.987 -0.3410  0.2184 -0.3908
12460TIP3    H158871   2.153   1.418  12.058 -0.9687 -0.9949 -0.3083
12460TIP3    H258872   2.023   1.382  11.990 -1.7871  1.7912 -0.3524
12461TIP3   OH258873   6.720   0.599   2.427  0.0215  0.1972  0.2555
12461TIP3    H158874   6.737   0.506   2.437 -2.9445 -0.7495 -2.0568
12461TIP3    H258875   6.643   0.616   2.483 -0.5763  0.8089 -0.7212
12462TIP3   OH258876   0.468   1.120   4.746 -0.2800  0.8092 -0.2348
12462TIP3    H158877   0.440   1.212   4.742  2.1821  1.6169 -1.0759
12462TIP3    H258878   0.525   1.109   4.670 -1.6387 -1.8805 -0.9499
12463TIP3   OH258879   2.468   4.441   3.601  0.2772 -0.5500  0.5517
12463TIP3    H158880   2.498   4.381   3.670 -2.0527 -0.4212  1.7805
12463TIP3    H258881   2.468   4.388   3.522  1.8675 -1.0422  0.8368
12464TIP3   OH258882   5.023   2.564  13.926  0.2807 -0.4432  0.2551
12464TIP3    H158883   4.999   2.476  13.898  0.3145 -0.4142  0.1336
12464TIP3    H258884   5.110   2.554  13.964 -0.7680 -0.9304  2.6551
12465TIP3   OH258885   3.176   5.493  15.278 -0.0834  0.3329 -0.1497
12465TIP3    H158886   3.246   5.549  15.310 -0.7968  0.6268  0.9535
12465TIP3    H258887   3.150   5.532  15.195 -1.7974  2.7912  1.4138
12466TIP3   OH258888   2.956   4.577   6.543 -0.6607 -0.0595  0.8640
12466TIP3    H158889   2.954   4.659   6.592 -2.2792  1.0823 -0.9832
12466TIP3    H258890   3.008   4.596   6.465 -0.6768 -0.9356  0.6232
12467TIP3   OH258891   6.361   4.425  16.652 -0.3168  0.4325 -0.1444
12467TIP3    H158892   6.400   4.395  16.570 -0.7922  2.4300 -1.1942
12467TIP3    H258893   6.426   4.406  16.719  0.9021  0.4242 -1.2857
12468TIP3   OH258894   0.914   5.672  13.131  0.2947 -0.3481 -0.5638
12468TIP3    H158895   0.967   5.725  13.070 -1.8583  1.1824 -1.2439
12468TIP3    H258896   0.946   5.583  13.119  1.6433  0.2797 -2.0792
12469TIP3   OH258897   2.986   5.557   0.812 -0.0720  0.9512 -0.6006
12469TIP3    H158898   2.996   5.518   0.899  0.8674 -0.9319 -1.4807
12469TIP3    H258899   3.075   5.562   0.778 -0.4290  1.6350 -1.4689
12470TIP3   OH258900   0.666   5.637   4.760 -0.1250  0.1189 -0.2450
12470TIP3    H158901   0.727   5.601   4.824 -1.8870 -0.2860  1.2881
12470TIP3    H258902   0.595   5.573   4.756 -0.7758  0.8750 -1.4975
12471TIP3   OH258903   3.651   2.273  13.109  0.3292 -0.0791  0.2632
12471TIP3    H158904   3.581   2.211  13.092  1.2561 -1.3604  0.9802
12471TIP3    H258905   3.683   2.298  13.022  0.9872 -1.8560 -0.0434
12472TIP3   OH258906   5.697   4.555  12.247 -0.8360 -0.2285 -0.1213
12472TIP3    H158907   5.730   4.511  12.325  0.0408  1.0703  0.2778
12472TIP3    H258908   5.771   4.555  12.187 -1.1813 -0.2964 -0.5485
12473TIP3   OH258909   5.671   2.278   4.000 -0.2452 -0.0203 -0.7340
12473TIP3    H158910   5.635   2.204   3.952 -1.0320  0.3667 -0.7522
12473TIP3    H258911   5.730   2.239   4.065 -1.5563 -0.7464  0.0472
12474TIP3   OH258912   3.021   3.024  13.352  0.3600 -1.2951  0.1429
12474TIP3    H158913   2.963   3.079  13.407  1.8026 -1.6862  2.1885
12474TIP3    H258914   2.969   2.947  13.332 -0.8324 -0.3341 -0.6441
12475TIP3   OH258915   2.821   4.526   0.036 -0.2120 -0.0128  0.0717
12475TIP3    H158916   2.820   4.443  -0.011  1.2491  0.0238 -0.0662
12475TIP3    H258917   2.732   4.535   0.070 -0.0991 -2.2611  1.1602
12476TIP3   OH258918   1.874   2.721   2.517  0.3373 -0.0194  0.1290
12476TIP3    H158919   1.799   2.691   2.465 -0.1934  0.7349  0.4440
12476TIP3    H258920   1.866   2.673   2.600 -0.3875  0.7914  0.5493
12477TIP3   OH258921   2.335   1.136   2.437 -0.8270 -0.2710 -0.8418
12477TIP3    H158922   2.272   1.090   2.381 -1.6736  0.7166 -0.7230
12477TIP3    H258923   2.350   1.076   2.511 -1.6913 -0.4875 -0.8340
12478TIP3   OH258924   3.023   5.701  13.155 -0.6293 -0.1006  0.1768
12478TIP3    H158925   3.019   5.629  13.092 -1.5499 -0.0852  0.1959
12478TIP3    H258926   3.079   5.668  13.225 -2.0702 -1.3304  0.8060
12479TIP3   OH258927   4.771   5.728  15.316  0.1307 -0.0109  0.0017
12479TIP3    H158928   4.741   5.786  15.246  1.9610  1.5371  0.4176
12479TIP3    H258929   4.771   5.641  15.276 -0.0886  0.6499 -1.5177
12480TIP3   OH258930   5.753   6.178   2.748 -0.0006 -0.2989  0.2699
12480TIP3    H158931   5.777   6.260   2.790 -0.6610 -0.1549  0.3720
12480TIP3    H258932   5.734   6.202   2.657  2.3585 -0.7489 -0.4288
12481TIP3   OH258933   0.837   3.393  12.322 -0.2090 -0.0030  0.1982
12481TIP3    H158934   0.754   3.346  12.328 -1.2452  0.6126 -4.9033
12481TIP3    H258935   0.895   3.333  12.275  0.7650  1.1747 -0.1376
12482TIP3   OH258936   6.235   3.787  11.544 -0.1692  0.4013 -0.2339
12482TIP3    H158937   6.237   3.778  11.449  0.5353  2.0311 -0.4062
12482TIP3    H258938   6.162   3.848  11.561 -0.5508 -0.1915  0.3066
12483TIP3   OH258939   3.395   3.055  12.635  0.0174  0.4016 -0.2566
12483TIP3    H158940   3.386   2.998  12.558  0.1487  0.8072 -0.5716
12483TIP3    H258941   3.484   3.090  12.629  0.2748 -0.1085  0.4575
12484TIP3   OH258942   0.198   2.953   5.598 -0.9119  0.1071 -0.1886
12484TIP3    H158943   0.104   2.954   5.579 -0.8889 -0.0882 -0.3176
12484TIP3    H258944   0.227   3.042   5.580 -1.5239  0.8530  2.1588
12485TIP3   OH258945   0.756   3.714   4.144  0.0606  0.3463  0.2936
12485TIP3    H158946   0.806   3.636   4.169  1.8288  1.3255  0.0343
12485TIP3    H258947   0.715   3.691   4.061  1.1225 -0.1017 -0.1286
12486TIP3   OH258948   1.338   5.775   0.294 -0.3543 -0.3737  0.0025
12486TIP3    H158949   1.427   5.804   0.315 -1.0430  0.8497  1.4493
12486TIP3    H258950   1.327   5.795   0.201  0.0174  1.9460  0.4073
12487TIP3   OH258951   2.240   0.013   4.241  0.5251  0.1665  0.1547
12487TIP3    H158952   2.208   0.098   4.272  1.1566 -0.1879  1.8885
12487TIP3    H258953   2.329   0.008   4.275  1.1778 -0.3835 -1.5773
12488TIP3   OH258954   4.919   0.083   3.396  0.1474 -0.4144  0.0004
12488TIP3    H158955   4.993   0.105   3.340 -0.1586  1.0833  0.1146
12488TIP3    H258956   4.849   0.142   3.367 -0.5666 -0.8506  0.7783
12489TIP3   OH258957   6.649   4.671   0.762  0.2130 -0.6296 -0.2477
12489TIP3    H158958   6.744   4.659   0.755  0.2142 -2.4783  2.0172
12489TIP3    H258959   6.632   4.674   0.856 -1.8683  0.9214 -0.6184
12490TIP3   OH258960   3.977   1.314  14.073 -0.3581  0.2827  0.2344
12490TIP3    H158961   3.942   1.232  14.039  1.6662 -0.4219 -0.2689
12490TIP3    H258962   4.027   1.351  14.000 -2.2168  2.6470  0.0149
12491TIP3   OH258963   1.521   1.449  15.530 -0.2558 -0.0164 -0.0300
12491TIP3    H158964   1.586   1.418  15.467  0.6605  0.4346  0.6580
12491TIP3    H258965   1.544   1.541  15.546 -0.2589 -0.1968  1.1654
12492TIP3   OH258966   4.164   5.595   4.353 -0.1235 -0.2976  0.2883
12492TIP3    H158967   4.086   5.542   4.336 -0.9340  0.1182  2.4036
12492TIP3    H258968   4.171   5.598   4.449  1.8488  0.6337  0.1706
12493TIP3   OH258969   5.732   2.178   6.079 -0.5277 -0.7195 -0.1587
12493TIP3    H158970   5.762   2.266   6.099  0.5161 -1.2453  0.6887
12493TIP3    H258971   5.761   2.162   5.989 -0.4227 -0.3355 -0.1939
12494TIP3   OH258972   5.870   0.038   5.984 -0.3113 -0.1768 -0.0327
12494TIP3    H158973   5.914  -0.047   5.991 -1.4105 -0.6719  1.7036
12494TIP3    H258974   5.795   0.021   5.927  0.1920 -0.0158 -0.7604
12495TIP3   OH258975   5.738   5.871   2.609 -0.0808 -0.1040 -0.1013
12495TIP3    H158976   5.723   5.779   2.631  0.9137 -0.4475 -0.8049
12495TIP3    H258977   5.695   5.919   2.680  0.5025 -1.1300  0.9999
12496TIP3   OH258978   6.278   3.198   2.909  0.1877  0.3447  0.3275
12496TIP3    H158979   6.216   3.166   2.844  0.1844  0.7014  0.1525
12496TIP3    H258980   6.359   3.151   2.890  0.5503  1.3391 -0.7389
12497TIP3   OH258981   0.916   1.586   3.334  0.0543  0.4328 -0.3572
12497TIP3    H158982   0.842   1.557   3.280 -0.7848  1.6383  0.0826
12497TIP3    H258983   0.988   1.596   3.273 -0.3197 -0.1737 -0.9098
12498TIP3   OH258984   0.696   3.685   5.913  0.1998  0.2188 -0.4950
12498TIP3    H158985   0.628   3.739   5.954 -2.1997 -1.7348 -1.6398
12498TIP3    H258986   0.735   3.743   5.847  0.2468  1.6272  0.7082
12499TIP3   OH258987   1.758   0.131   0.135 -0.0407 -0.0126  0.1307
12499TIP3    H158988   1.838   0.095   0.173 -0.3542  0.5812  1.4014
12499TIP3    H258989   1.750   0.088   0.050  1.5566 -0.1793  0.0413
12500TIP3   OH258990   1.440   0.308  14.649 -0.0373  0.7823 -0.0232
12500TIP3    H158991   1.381   0.284  14.720 -0.9007  0.4257 -0.8415
12500TIP3    H258992   1.521   0.261  14.668 -0.4884  0.1454  0.3587
12501TIP3   OH258993   5.043   3.633  11.550  0.1574 -0.2413  0.4564
12501TIP3    H158994   5.083   3.607  11.467  1.2954 -0.6883  1.1160
12501TIP3    H258995   5.058   3.558  11.608 -1.5947 -0.3802  0.7641
12502TIP3   OH258996   4.742   1.244   1.877 -0.0098  0.2920  0.4476
12502TIP3    H158997   4.676   1.290   1.928 -0.2111 -0.7444  1.1606
12502TIP3    H258998   4.692   1.190   1.815 -0.0259 -2.3259  2.5485
12503TIP3   OH258999   0.853   6.740  13.244 -0.1854  0.1484  0.0877
12503TIP3    H159000   0.857   6.671  13.178  0.9372 -0.5825  0.8801
12503TIP3    H259001   0.802   6.702  13.316  2.5492 -0.9192  1.6249
12504TIP3   OH259002   5.643   5.406   4.520 -0.1548 -0.0019  0.0460
12504TIP3    H159003   5.597   5.322   4.518  0.6389 -0.4409 -1.6483
12504TIP3    H259004   5.621   5.447   4.436  1.1440  0.5494 -0.0453
12505TIP3   OH259005   5.271   1.774   2.089 -0.3519  0.6855  0.7702
12505TIP3    H159006   5.286   1.761   1.996  0.5392  1.8811  0.7227
12505TIP3    H259007   5.183   1.740   2.105 -0.4072  0.2331 -0.4447
12506TIP3   OH259008   0.699   6.399   5.019  0.8210 -0.1634  0.0064
12506TIP3    H159009   0.707   6.440   5.105 -1.9041  2.0979 -0.6373
12506TIP3    H259010   0.761   6.446   4.964  1.1822 -0.2879  0.2999
12507TIP3   OH259011   2.970   2.421   1.950 -0.5976 -0.2208 -0.0666
12507TIP3    H159012   3.043   2.430   1.889 -0.2245 -0.1479  0.3881
12507TIP3    H259013   2.927   2.506   1.949 -0.5592 -0.2028 -0.1847
12508TIP3   OH259014   0.741   0.359  17.367 -0.2004  0.1860  0.2520
12508TIP3    H159015   0.789   0.358  17.449  0.2221  2.2098  0.0810
12508TIP3    H259016   0.684   0.436  17.374 -0.1467  0.4013 -1.3371
12509TIP3   OH259017   5.109   0.519   4.509  0.2588  0.2003  0.2560
12509TIP3    H159018   5.128   0.428   4.531 -0.2581 -0.3354 -1.3461
12509TIP3    H259019   5.146   0.530   4.421  1.8497  2.0722  1.0764
12510TIP3   OH259020   4.324   3.407  16.137 -0.1022  0.3628 -0.3654
12510TIP3    H159021   4.259   3.450  16.194  0.2387  1.8477 -1.0403
12510TIP3    H259022   4.306   3.443  16.050  0.8874 -0.0904 -0.7672
12511TIP3   OH259023   6.245   5.482  12.486 -0.5369 -0.1400  0.2498
12511TIP3    H159024   6.188   5.405  12.485 -1.0730  0.1780  2.2683
12511TIP3    H259025   6.292   5.478  12.402 -0.9539 -2.3358  0.0566
12512TIP3   OH259026   0.706   1.774  11.349 -0.4356 -0.4997  0.6127
12512TIP3    H159027   0.742   1.857  11.318 -0.4631  0.4582  2.9378
12512TIP3    H259028   0.673   1.731  11.270  0.1362  1.4114 -0.7421
12513TIP3   OH259029   5.107   4.924   1.103  0.2376  0.1623  0.0999
12513TIP3    H159030   5.099   4.913   1.198 -1.9180  1.7139  0.1940
12513TIP3    H259031   5.057   4.852   1.066 -0.0177  0.2898  0.1932
12514TIP3   OH259032   0.443   2.612   1.753  0.0740  0.0010  0.1448
12514TIP3    H159033   0.505   2.582   1.686 -0.4455 -2.9213  0.8415
12514TIP3    H259034   0.367   2.643   1.703  1.0802  1.2521 -0.6524
12515TIP3   OH259035   3.506   5.708  17.294 -0.2624 -0.1090  0.6317
12515TIP3    H159036   3.484   5.801  17.306 -0.0007  0.3095 -1.6427
12515TIP3    H259037   3.427   5.669  17.256 -0.9643 -1.2625  3.0869
12516TIP3   OH259038   3.910   2.723   2.580 -0.1708 -0.1710 -0.3176
12516TIP3    H159039   3.895   2.658   2.510 -0.6591 -0.8449  0.3980
12516TIP3    H259040   3.980   2.685   2.633 -1.0776 -0.5533  0.6267
12517TIP3   OH259041   2.690   5.326  16.676 -0.3846 -0.0176  0.2205
12517TIP3    H159042   2.744   5.399  16.645  0.9021 -0.4707  1.3533
12517TIP3    H259043   2.716   5.252  16.621  1.4552 -0.6678  1.8846
12518TIP3   OH259044   0.921   3.483   5.045  0.0557  0.3015 -0.4685
12518TIP3    H159045   0.861   3.557   5.050  0.3519  0.7470 -2.4865
12518TIP3    H259046   0.873   3.409   5.082 -0.1624  1.5009  1.8138
12519TIP3   OH259047   5.159   6.573   2.378  0.3862 -0.2491  0.1054
12519TIP3    H159048   5.204   6.512   2.319 -1.3192 -0.9523 -0.5310
12519TIP3    H259049   5.228   6.607   2.434  1.9764 -0.1160 -1.8068
12520TIP3   OH259050   6.353   0.986  15.865  0.5993 -0.5030 -0.6519
12520TIP3    H159051   6.361   0.994  15.770  1.6940  0.1579 -0.5279
12520TIP3    H259052   6.411   0.914  15.888 -0.5003 -1.3870 -0.5814
12521TIP3   OH259053   4.906   4.902   6.348 -0.1912  0.4573  0.2530
12521TIP3    H159054   4.986   4.948   6.373  0.7828 -0.5963 -0.8216
12521TIP3    H259055   4.896   4.922   6.255  0.5133 -1.8287 -0.3599
12522TIP3   OH259056   0.196   2.315   1.384 -0.7884  0.1336 -0.2122
12522TIP3    H159057   0.225   2.228   1.358  0.6699  1.5491 -4.0329
12522TIP3    H259058   0.277   2.361   1.408 -1.3099  0.9839 -0.0438
12523TIP3   OH259059   5.694   5.822  10.676  0.1508  0.5472 -0.0860
12523TIP3    H159060   5.608   5.844  10.713 -1.5812 -2.0191 -2.1679
12523TIP3    H259061   5.707   5.730  10.700  2.8958  1.1540  1.0662
12524TIP3   OH259062   3.592   1.157   0.709  0.5296  0.0955 -0.0388
12524TIP3    H159063   3.615   1.143   0.617  0.2505  0.5040 -0.1725
12524TIP3    H259064   3.508   1.203   0.706  0.5219  0.1153  0.4223
12525TIP3   OH259065   6.649   0.140  16.709  0.1229 -0.6206 -0.2348
12525TIP3    H159066   6.703   0.129  16.787 -0.8028 -0.9062  0.3755
12525TIP3    H259067   6.654   0.233  16.689 -2.1678  0.1107  2.0668
12526TIP3   OH259068   0.585   1.892  14.745  0.3132  0.7797 -0.3822
12526TIP3    H159069   0.579   1.902  14.840 -0.9195 -0.0398 -0.3462
12526TIP3    H259070   0.641   1.816  14.732  0.5515  0.9435 -0.3133
12527TIP3   OH259071   5.866   0.171   2.971  0.0377  0.1987  0.0231
12527TIP3    H159072   5.776   0.194   2.951  0.3579  1.9758  0.4766
12527TIP3    H259073   5.869   0.075   2.964 -1.8301  0.1255 -0.1183
12528TIP3   OH259074   0.230   5.300  17.271  0.0099 -0.5661 -0.3365
12528TIP3    H159075   0.314   5.322  17.310  0.0895 -0.5366 -0.5248
12528TIP3    H259076   0.226   5.353  17.191 -1.1031  1.0713  0.7323
12529TIP3   OH259077   5.074   6.301  15.762  0.3672  0.1928 -0.2397
12529TIP3    H159078   4.997   6.353  15.739 -1.3627 -1.9329  0.5024
12529TIP3    H259079   5.146   6.365  15.763 -1.3877  2.2935 -0.6958
12530TIP3   OH259080   0.813   5.871  11.406 -0.2381 -0.1535 -0.2114
12530TIP3    H159081   0.874   5.938  11.375 -0.7870 -0.4796 -2.0761
12530TIP3    H259082   0.747   5.864  11.338 -1.7034 -0.6999  1.1911
12531TIP3   OH259083   6.704   1.275  16.202 -0.2492 -0.2961  0.0274
12531TIP3    H159084   6.610   1.260  16.199 -0.3228  0.2282 -0.3790
12531TIP3    H259085   6.739   1.198  16.247 -0.9718 -0.0177  1.1088
12532TIP3   OH259086   3.489   2.130  12.111 -0.4122  0.3008 -0.7770
12532TIP3    H159087   3.435   2.055  12.089 -0.4304 -0.1818  0.7872
12532TIP3    H259088   3.430   2.190  12.157  0.0050  0.4823 -0.4707
12533TIP3   OH259089   2.341   3.409  12.860  0.0625 -0.2282  0.5379
12533TIP3    H159090   2.248   3.423  12.843 -0.5292 -2.4096  1.6518
12533TIP3    H259091   2.351   3.314  12.861  2.1358 -0.0398  1.2937
12534TIP3   OH259092   3.912   0.402  14.015  0.2635  0.1495  0.0102
12534TIP3    H159093   4.000   0.433  13.996  0.1459 -0.6217 -2.0508
12534TIP3    H259094   3.924   0.312  14.047  0.2122 -0.2445 -1.0357
12535TIP3   OH259095   2.131   5.159  15.799 -0.3352  0.3725  0.6934
12535TIP3    H159096   2.216   5.202  15.804  0.3970 -0.7543 -1.2136
12535TIP3    H259097   2.121   5.117  15.884  1.7958 -0.8433  0.4148
12536TIP3   OH259098   4.979   4.785   1.696  0.2874  0.0077 -0.3502
12536TIP3    H159099   5.053   4.761   1.641 -0.3744  1.4711 -1.9410
12536TIP3    H259100   5.012   4.853   1.754 -0.3179  2.4309 -2.6894
12537TIP3   OH259101   3.807   5.635   4.795 -0.2877 -0.1084  0.4099
12537TIP3    H159102   3.806   5.623   4.890  2.2912  0.5832  0.5851
12537TIP3    H259103   3.810   5.546   4.760 -1.3146 -0.3738  0.9230
12538TIP3   OH259104   3.882   5.545   4.037 -0.2424 -0.3378  0.0505
12538TIP3    H159105   3.879   5.509   4.126 -0.0313  1.3647  0.7905
12538TIP3    H259106   3.946   5.491   3.991  0.0731 -0.8816  1.0949
12539TIP3   OH259107   2.728   0.509   1.596  0.1722 -0.0127  0.0713
12539TIP3    H159108   2.676   0.542   1.670 -1.0221 -0.4854 -0.5258
12539TIP3    H259109   2.713   0.573   1.526 -0.4623 -0.6828 -0.4256
12540TIP3   OH259110   1.118   5.112   6.065 -0.2231 -0.3673 -0.7469
12540TIP3    H159111   1.151   5.053   6.133  0.2373  0.6685 -0.0444
12540TIP3    H259112   1.186   5.112   5.998 -0.1792 -0.5633 -0.7018
12541TIP3   OH259113   4.261   2.980  12.058 -0.8989 -0.2104 -0.6143
12541TIP3    H159114   4.332   2.954  12.000 -0.6917  0.2926 -0.5882
12541TIP3    H259115   4.260   2.912  12.126  0.4045  0.4478  0.1105
12542TIP3   OH259116   0.907   3.326  13.901 -0.2334 -0.3293 -0.0606
12542TIP3    H159117   0.971   3.273  13.853 -0.4673 -1.4020  0.7594
12542TIP3    H259118   0.960   3.381  13.959 -0.0064 -0.0899 -0.4906
12543TIP3   OH259119   1.944   4.158   1.143  0.3186 -0.0362 -0.3021
12543TIP3    H159120   1.861   4.162   1.192 -0.6598  0.9529 -1.9277
12543TIP3    H259121   2.001   4.219   1.189 -0.1015 -0.1555  0.4068
12544TIP3   OH259122   5.010   6.035  14.007  0.3386  0.2679  0.1594
12544TIP3    H159123   5.055   5.972  13.951  1.3005  0.6900  0.4315
12544TIP3    H259124   5.047   6.020  14.094 -1.0602 -0.3076  0.6803
12545TIP3   OH259125   3.286   3.002   4.657  0.1987 -0.9115  0.4194
12545TIP3    H159126   3.354   3.043   4.709  0.8133 -0.9548 -0.3359
12545TIP3    H259127   3.234   2.952   4.720 -1.3314  1.9186  1.6146
12546TIP3   OH259128   6.703   5.255   3.360  0.0753 -0.2207 -0.1158
12546TIP3    H159129   6.776   5.212   3.405  0.4487 -0.1588 -0.6556
12546TIP3    H259130   6.688   5.335   3.410  0.4708 -0.1629 -0.0887
12547TIP3   OH259131   4.660   5.379   3.620 -0.1784  0.1418  0.4512
12547TIP3    H159132   4.603   5.455   3.603  0.0407  0.9203  2.8655
12547TIP3    H259133   4.722   5.379   3.547 -2.5366 -0.0798 -1.6921
12548TIP3   OH259134   1.408   5.293  16.237 -0.3920  0.2866 -0.4165
12548TIP3    H159135   1.380   5.211  16.195 -1.6248  0.5303 -0.1227
12548TIP3    H259136   1.501   5.301  16.215 -0.3776 -0.9235 -0.8832
12549TIP3   OH259137   6.289   6.230  15.554 -0.1809  0.2230 -0.3014
12549TIP3    H159138   6.234   6.308  15.566  0.5299  0.6611  0.1214
12549TIP3    H259139   6.339   6.248  15.475  0.3441  0.4021  0.0742
12550TIP3   OH259140   1.409   3.312  16.412  0.2674  0.3225 -0.4990
12550TIP3    H159141   1.368   3.397  16.430 -2.6490 -1.0581 -0.0849
12550TIP3    H259142   1.371   3.252  16.476 -0.5138 -2.0278 -2.9883
12551TIP3   OH259143   5.638   3.343  16.115  0.0966 -0.2952  0.5309
12551TIP3    H159144   5.677   3.356  16.201 -1.3951 -0.0462  1.1869
12551TIP3    H259145   5.583   3.420  16.101 -1.2617 -1.2803  0.2481
12552TIP3   OH259146   2.569   1.582   1.292 -0.0114  0.5287 -0.5847
12552TIP3    H159147   2.613   1.586   1.377 -0.4624  1.1258 -0.3738
12552TIP3    H259148   2.476   1.569   1.314 -0.0881  0.3892 -0.9945
12553TIP3   OH259149   3.823   0.833   5.925  0.6857 -0.0842  0.0872
12553TIP3    H159150   3.844   0.844   6.018 -1.4863  2.4025  0.3785
12553TIP3    H259151   3.849   0.915   5.884  0.2032 -0.5654 -1.2301
12554TIP3   OH259152   3.003   5.157  16.558 -0.0895  0.3241 -0.3221
12554TIP3    H159153   2.938   5.153  16.627 -0.1209 -1.5483 -0.4147
12554TIP3    H259154   3.082   5.190  16.601 -0.2188 -0.4408  0.5210
12555TIP3   OH259155   4.493   3.029   2.308  0.1742 -0.5547 -0.2584
12555TIP3    H159156   4.483   3.122   2.328  1.0732 -0.1892 -1.4589
12555TIP3    H259157   4.536   2.993   2.386 -2.5862 -0.5593  1.4250
12556TIP3   OH259158   5.645   2.842  11.777 -0.0268 -0.4844 -0.1302
12556TIP3    H159159   5.728   2.827  11.822  0.8260  1.9516 -0.7225
12556TIP3    H259160   5.626   2.759  11.733  1.3721 -1.5134  1.1181
12557TIP3   OH259161   5.790   1.808  16.101 -0.2467  0.3216 -0.6368
12557TIP3    H159162   5.743   1.740  16.053 -0.3583 -0.3008  0.3256
12557TIP3    H259163   5.846   1.849  16.035 -0.7694 -0.1632 -1.4012
12558TIP3   OH259164   6.269   5.805  12.354 -0.6475  0.2944  0.1951
12558TIP3    H159165   6.182   5.774  12.329  0.1860 -0.6353 -1.7338
12558TIP3    H259166   6.306   5.842  12.273  0.7681  0.6421  0.9597
12559TIP3   OH259167   5.868   1.367  14.403  0.3442 -0.1347  0.6704
12559TIP3    H159168   5.900   1.282  14.431 -0.1904 -0.5792 -0.0417
12559TIP3    H259169   5.895   1.374  14.311  0.6389  0.5911  0.8004
12560TIP3   OH259170   2.263   3.181   0.473 -0.1298 -0.4213 -0.0310
12560TIP3    H159171   2.199   3.143   0.532  0.4260 -1.1041  0.1471
12560TIP3    H259172   2.234   3.272   0.461 -0.2560 -0.2604  1.2959
12561TIP3   OH259173   4.423   6.531  12.354 -0.4642  0.7939  0.3418
12561TIP3    H159174   4.415   6.438  12.375 -1.0647  1.0479  1.2693
12561TIP3    H259175   4.333   6.564  12.360 -0.2873  1.3884 -0.2332
12562TIP3   OH259176   6.640   1.963   2.151 -0.5598 -0.1833 -0.3182
12562TIP3    H159177   6.589   2.000   2.223 -0.7194  1.4651 -1.2132
12562TIP3    H259178   6.575   1.932   2.089 -0.4722  0.4499 -0.7377
12563TIP3   OH259179   4.322   3.871   5.902 -0.0848 -0.1883 -0.2856
12563TIP3    H159180   4.389   3.884   5.835  0.0279 -3.4135 -0.9678
12563TIP3    H259181   4.353   3.922   5.976  1.2618  1.2536 -1.7521
12564TIP3   OH259182   4.930   4.558  17.159 -0.0996 -0.5905  0.2985
12564TIP3    H159183   4.903   4.468  17.179  0.3577 -0.6504  0.6521
12564TIP3    H259184   5.025   4.553  17.153 -0.1807 -0.9247 -3.4271
12565TIP3   OH259185   4.584   6.718   4.526  0.2689  0.1959  0.1548
12565TIP3    H159186   4.559   6.701   4.435  1.9574 -0.5156 -0.2337
12565TIP3    H259187   4.549   6.643   4.575 -0.6248  0.5698  0.0935
12566TIP3   OH259188   0.786   1.136   6.449 -0.2800  0.1085  0.5263
12566TIP3    H159189   0.741   1.219   6.431 -0.6978 -0.4648 -1.3186
12566TIP3    H259190   0.716   1.076   6.473 -0.5200 -0.6548 -1.8570
12567TIP3   OH259191   4.640   1.983   4.441  0.4069 -0.6662 -0.4793
12567TIP3    H159192   4.590   2.056   4.477 -0.4218 -1.4008 -0.0885
12567TIP3    H259193   4.590   1.956   4.364  1.4620  0.0536 -1.4438
12568TIP3   OH259194   0.722   6.205  12.505 -0.4009 -0.3289 -0.0703
12568TIP3    H159195   0.633   6.173  12.518 -0.8417 -0.3035 -2.5765
12568TIP3    H259196   0.737   6.196  12.411  1.8155  0.8057  0.1216
12569TIP3   OH259197   1.551   2.763  13.980  0.4722  0.4142 -0.0933
12569TIP3    H159198   1.613   2.705  13.936  0.2339 -0.7775  1.0879
12569TIP3    H259199   1.564   2.848  13.938  0.0140 -0.6900 -2.7046
12570TIP3   OH259200   6.493   2.386  17.163  0.0048  0.3735  0.3161
12570TIP3    H159201   6.498   2.466  17.110  0.6904  0.2626  0.2069
12570TIP3    H259202   6.406   2.350  17.144 -0.9631  1.9271  1.5870
12571TIP3   OH259203   2.719   1.380   6.023  0.2408 -0.4744 -0.2269
12571TIP3    H159204   2.750   1.434   6.095  2.5227 -1.6760 -0.2117
12571TIP3    H259205   2.695   1.442   5.954  0.9672  0.5912  0.4642
12572TIP3   OH259206   1.096   3.244  16.822 -0.3796  0.0388 -0.4525
12572TIP3    H159207   1.104   3.149  16.828 -0.5799  0.0642  0.3292
12572TIP3    H259208   1.141   3.277  16.899  1.3047  0.6901 -1.6518
12573TIP3   OH259209   5.454   6.136  15.746  0.9560  0.0710  0.0113
12573TIP3    H159210   5.371   6.110  15.786  0.5548 -0.2473 -1.0032
12573TIP3    H259211   5.471   6.223  15.782 -1.8698  1.9574 -2.6598
12574TIP3   OH259212   3.133   5.793  13.617 -0.4065  0.3577  0.2194
12574TIP3    H159213   3.119   5.836  13.701 -0.7960  1.4362 -0.3884
12574TIP3    H259214   3.085   5.846  13.554  2.3029  1.2992 -1.1711
12575TIP3   OH259215   5.434   5.155   3.824  0.0265 -0.3000 -0.3312
12575TIP3    H159216   5.510   5.162   3.766 -0.6938 -0.0754 -1.2766
12575TIP3    H259217   5.438   5.065   3.858  1.4044  0.1037  0.6387
12576TIP3   OH259218   3.056   3.971   2.306 -0.4390 -0.2021 -0.5298
12576TIP3    H159219   3.128   3.955   2.245  1.1368 -0.7075  1.3532
12576TIP3    H259220   3.070   3.908   2.376 -1.5929  0.9888  0.8408
12577TIP3   OH259221   0.828   1.740   4.034 -0.1810 -0.2004 -0.2134
12577TIP3    H159222   0.842   1.785   3.951 -0.6451 -1.2059 -0.8625
12577TIP3    H259223   0.739   1.765   4.060 -1.3226 -2.3773 -1.6974
12578TIP3   OH259224   0.545   1.352   5.347  0.2347 -0.3261 -0.0417
12578TIP3    H159225   0.527   1.314   5.261 -0.1319 -0.1083 -0.0653
12578TIP3    H259226   0.515   1.286   5.409 -0.1993 -0.1689 -0.0827
12579TIP3   OH259227   1.216   3.236   3.104 -0.0455 -0.4483 -0.7766
12579TIP3    H159228   1.145   3.189   3.059 -0.2271 -0.6901 -0.2431
12579TIP3    H259229   1.173   3.280   3.177  0.4634 -1.1963 -0.0084
12580TIP3   OH259230   5.960   1.919  17.354  0.0029 -0.3447 -0.0517
12580TIP3    H159231   6.024   1.960  17.411 -2.2928  0.2702  2.2731
12580TIP3    H259232   5.906   1.865  17.413 -2.2868  0.0404 -1.6449
12581TIP3   OH259233   4.511   5.872  14.496  0.0185  0.2274  0.1619
12581TIP3    H159234   4.443   5.807  14.479 -0.0900  0.0970  1.0502
12581TIP3    H259235   4.474   5.954  14.462  0.3042 -0.2139 -1.2847
12582TIP3   OH259236   5.258   0.083  16.547  0.2291  0.1579  0.0248
12582TIP3    H159237   5.195   0.119  16.610 -0.2901 -1.9198  0.7807
12582TIP3    H259238   5.204   0.047  16.476  0.5908 -0.6414  0.1385
12583TIP3   OH259239   6.678   3.015   5.601 -0.2991 -0.1071 -0.2381
12583TIP3    H159240   6.669   2.960   5.678 -0.9282 -0.0461 -0.2618
12583TIP3    H259241   6.595   3.004   5.553 -0.2171  0.4253 -0.5202
12584TIP3   OH259242   2.312   3.968   4.397  0.2940  0.2981  0.2789
12584TIP3    H159243   2.357   3.995   4.477  1.7495  1.9141 -0.9783
12584TIP3    H259244   2.248   4.038   4.381 -0.4195 -0.3327  0.3540
12585TIP3   OH259245   2.355   3.955  16.962  0.4546 -0.2648  0.4763
12585TIP3    H159246   2.400   3.888  16.910  2.7932  2.2941 -1.0313
12585TIP3    H259247   2.297   3.999  16.899  1.8235  1.5589  0.4076
12586TIP3   OH259248   1.045   5.080  14.802 -0.6109 -0.4139 -0.0596
12586TIP3    H159249   1.130   5.117  14.779 -1.6317  1.4293 -1.1981
12586TIP3    H259250   1.064   5.007  14.860  1.8716 -1.4502 -1.9843
12587TIP3   OH259251   3.092   3.911  14.788  0.5105  0.3320  0.5132
12587TIP3    H159252   3.102   3.900  14.693  1.2281 -0.3045  0.6526
12587TIP3    H259253   3.015   3.859  14.810 -0.5566  1.6810  0.0736
12588TIP3   OH259254   1.676   3.537   0.548  0.2024 -0.1662 -0.5109
12588TIP3    H159255   1.650   3.461   0.496  1.0338 -1.1365  0.4362
12588TIP3    H259256   1.639   3.521   0.634  0.9942  0.1434 -0.1002
12589TIP3   OH259257   3.806   5.187   3.903 -0.3912 -0.2422 -0.1572
12589TIP3    H159258   3.755   5.174   3.823 -0.5550  1.4399 -0.3473
12589TIP3    H259259   3.742   5.213   3.969 -0.4277 -2.6554  0.8671
12590TIP3   OH259260   6.087   5.202   3.861  0.1667 -0.0139  0.6324
12590TIP3    H159261   6.136   5.277   3.896 -0.3597  0.8103 -0.3253
12590TIP3    H259262   5.998   5.215   3.892 -0.5625  1.3304 -1.7744
12591TIP3   OH259263   1.760   2.683  13.826 -0.3760 -0.5324  0.0523
12591TIP3    H159264   1.819   2.747  13.787 -1.2259  1.3604  1.7033
12591TIP3    H259265   1.816   2.607  13.843  1.1710  0.4994 -0.1323
12592TIP3   OH259266   2.817   4.059  16.996 -0.2233 -0.0167 -0.4168
12592TIP3    H159267   2.800   4.025  17.083 -1.1507  4.1289  1.2992
12592TIP3    H259268   2.734   4.098  16.969  0.9822  2.0654 -1.4071
12593TIP3   OH259269   3.627   2.224   2.198  0.1177  0.5405 -0.1612
12593TIP3    H159270   3.630   2.202   2.105  0.6973  1.6343 -0.4122
12593TIP3    H259271   3.626   2.139   2.242 -2.2928 -0.0668 -1.1905
12594TIP3   OH259272   6.081   6.438  12.771  0.4194  0.3664 -0.3363
12594TIP3    H159273   6.138   6.514  12.765  0.1375  0.6671  0.5789
12594TIP3    H259274   6.140   6.364  12.781  0.6657  0.6169  0.0896
12595TIP3   OH259275   4.546   1.718  17.411 -0.3140  0.3167 -1.0037
12595TIP3    H159276   4.478   1.656  17.387 -1.1669  0.5497  0.6495
12595TIP3    H259277   4.627   1.680  17.377 -1.0543 -0.7941 -1.5629
12596TIP3   OH259278   2.035   2.303  13.395 -0.6211 -0.8121 -0.0625
12596TIP3    H159279   2.100   2.244  13.433 -0.4905 -1.3982 -1.1473
12596TIP3    H259280   2.046   2.385  13.443  0.1593 -1.2416  0.5195
12597TIP3   OH259281   4.208   6.427  14.179  0.1104  0.2168 -0.7790
12597TIP3    H159282   4.198   6.412  14.085 -0.0230 -0.9806 -0.5910
12597TIP3    H259283   4.136   6.379  14.219 -0.3001  1.3654 -0.1001
12598TIP3   OH259284   2.480   5.287   0.438  0.0412 -0.2634 -0.0332
12598TIP3    H159285   2.457   5.366   0.485 -1.7141 -1.7486  1.7735
12598TIP3    H259286   2.510   5.226   0.505 -0.9138 -1.9064 -1.0084
12599TIP3   OH259287   4.536   1.788   4.770 -0.0170  0.0361  0.1500
12599TIP3    H159288   4.618   1.807   4.724 -0.5118 -0.5427 -1.0269
12599TIP3    H259289   4.550   1.703   4.812  1.2768  1.6109  3.2018
12600TIP3   OH259290   3.184   6.527   1.086 -0.7194  0.4065 -0.0307
12600TIP3    H159291   3.228   6.451   1.047 -1.0992  0.9091 -1.5247
12600TIP3    H259292   3.107   6.490   1.129  0.8156 -0.4151  2.1623
12601TIP3   OH259293   0.030   6.130   4.152  0.0862  0.4045 -0.4976
12601TIP3    H159294  -0.003   6.041   4.141 -1.6732  0.9408  0.0700
12601TIP3    H259295  -0.039   6.185   4.114 -0.1074  1.6259  1.5146
12602TIP3   OH259296   4.697   0.441   4.444  0.2022  0.2117  0.5717
12602TIP3    H159297   4.773   0.493   4.419 -0.4288  1.2960  0.8476
12602TIP3    H259298   4.698   0.441   4.540  0.4929 -0.7458  0.5792
12603TIP3   OH259299   4.589   3.061   6.125  0.1681  0.3056 -0.1187
12603TIP3    H159300   4.665   3.101   6.166 -0.6824  1.5934  0.2406
12603TIP3    H259301   4.607   3.066   6.031  0.6406  0.3515 -0.0281
12604TIP3   OH259302   2.254   6.492  14.073  0.5346  0.0963  0.6737
12604TIP3    H159303   2.178   6.545  14.051  0.9162  0.4459  0.1773
12604TIP3    H259304   2.250   6.418  14.012  0.4509 -0.0213  0.8212
12605TIP3   OH259305   2.912   0.937   4.247 -0.1643  0.2600 -0.5498
12605TIP3    H159306   2.875   0.919   4.333 -0.5729  0.1544 -0.7482
12605TIP3    H259307   2.851   0.998   4.206 -0.3202 -0.2073 -1.0221
12606TIP3   OH259308   1.365   2.830  15.392  0.7075 -0.0273  0.1862
12606TIP3    H159309   1.426   2.776  15.342  1.2174 -0.4091  1.2108
12606TIP3    H259310   1.395   2.825  15.482  0.5619  1.6915  0.3794
12607TIP3   OH259311   4.556   5.219  13.088  0.5867  0.2324  0.7770
12607TIP3    H159312   4.508   5.139  13.069  0.2283  0.8725 -1.2401
12607TIP3    H259313   4.634   5.215  13.032  1.3096  0.6547  1.7108
12608TIP3   OH259314   3.338   3.365   0.821  0.8531  0.2365 -0.0759
12608TIP3    H159315   3.384   3.441   0.786 -0.7818  0.8841 -0.8613
12608TIP3    H259316   3.279   3.337   0.752 -0.6194 -0.0034  1.2155
12609TIP3   OH259317   1.076   4.941  12.417 -1.2073  0.2979  0.0651
12609TIP3    H159318   1.089   4.889  12.496  2.7309  2.2084  0.9276
12609TIP3    H259319   0.985   4.969  12.421 -1.2811  0.0073  3.7568
12610TIP3   OH259320   4.140   5.388  15.792  0.0561  0.6814  0.3180
12610TIP3    H159321   4.204   5.358  15.856  1.2375  0.0575 -1.1133
12610TIP3    H259322   4.146   5.483  15.796  0.6444  0.6397  0.6143
12611TIP3   OH259323   2.496   5.291  17.118 -0.0780 -0.1980  0.7738
12611TIP3    H159324   2.577   5.340  17.134 -0.8087  1.0501  0.7616
12611TIP3    H259325   2.489   5.285  17.023 -0.2754  0.1557  0.7681
12612TIP3   OH259326   0.994   5.750   0.410 -0.4815  0.4227  0.6765
12612TIP3    H159327   0.988   5.686   0.339 -1.5437 -0.3191  1.3950
12612TIP3    H259328   0.926   5.814   0.390 -0.2066  0.6800  0.5717
12613TIP3   OH259329   3.944   6.694   6.767  0.0216  0.5236 -0.1824
12613TIP3    H159330   3.955   6.721   6.676  0.9535 -0.0216 -0.2475
12613TIP3    H259331   3.917   6.602   6.762  2.7120 -0.3728  0.0765
12614TIP3   OH259332   1.498   2.693   4.551  0.1810  0.0419  0.4199
12614TIP3    H159333   1.466   2.623   4.608  0.7512 -1.1055 -0.6009
12614TIP3    H259334   1.418   2.733   4.515 -0.1891 -1.3120 -0.3777
12615TIP3   OH259335   1.818   4.981   2.782 -0.0987 -0.2534  0.0372
12615TIP3    H159336   1.768   4.906   2.811  1.0895 -1.8941 -1.8948
12615TIP3    H259337   1.897   4.980   2.836 -0.0746 -0.3930 -0.0022
12616TIP3   OH259338   3.144   2.702   1.733 -0.1666 -0.2447 -0.0605
12616TIP3    H159339   3.121   2.614   1.703 -0.5068 -0.1937  0.0442
12616TIP3    H259340   3.158   2.693   1.827 -1.6056  0.0782  0.2070
12617TIP3   OH259341   1.413   4.897  13.672  0.5672 -0.1176  0.5321
12617TIP3    H159342   1.330   4.912  13.718  0.5278  1.2320  0.0473
12617TIP3    H259343   1.388   4.850  13.593  0.5259 -1.5839  1.3703
12618TIP3   OH259344   5.492   4.383   4.077  1.2162  0.3372  0.4786
12618TIP3    H159345   5.510   4.370   4.170 -0.0717 -1.0713  0.5608
12618TIP3    H259346   5.577   4.371   4.034  1.1907 -2.8507  1.1342
12619TIP3   OH259347   6.591   3.701  17.402  0.1197 -0.0684  0.4996
12619TIP3    H159348   6.499   3.678  17.390  0.0138 -0.0087  1.1352
12619TIP3    H259349   6.622   3.722  17.314 -0.5301  0.1223  0.3047
12620TIP3   OH259350   0.866   6.278   3.383  0.3720 -0.5400  0.4352
12620TIP3    H159351   0.847   6.197   3.335 -2.0641  0.2922 -0.1419
12620TIP3    H259352   0.958   6.297   3.363  0.5911 -2.4114 -0.5407
12621TIP3   OH259353   5.731   0.235  15.739 -0.2229 -0.0858  0.4649
12621TIP3    H159354   5.711   0.149  15.776  0.2249  0.1217  1.2111
12621TIP3    H259355   5.826   0.234  15.726 -0.5197 -0.7366 -2.2008
12622TIP3   OH259356   5.101   6.209  16.077 -0.3796  0.0597 -1.4680
12622TIP3    H159357   5.175   6.255  16.116 -0.6256 -1.9690  1.6519
12622TIP3    H259358   5.136   6.170  15.997  1.5647  0.1892 -0.7186
12623TIP3   OH259359   4.780   3.750  17.363 -0.3573 -0.1402 -0.4119
12623TIP3    H159360   4.754   3.669  17.405 -2.2475 -0.2743 -1.7370
12623TIP3    H259361   4.876   3.746  17.360 -0.3333 -1.4324  1.1920
12624TIP3   OH259362   5.578   2.041   2.024 -0.3995 -0.5969 -0.4689
12624TIP3    H159363   5.626   2.122   2.008 -0.4582 -0.3188  0.6907
12624TIP3    H259364   5.647   1.978   2.048 -0.5399 -0.3740  0.5370
12625TIP3   OH259365   1.462   2.404   1.104 -0.0776 -0.3082 -0.4100
12625TIP3    H159366   1.528   2.348   1.064  0.7273 -0.2549  0.8023
12625TIP3    H259367   1.508   2.451   1.173 -1.1717  0.4413 -0.1540
12626TIP3   OH259368   1.990   1.400   5.007 -0.3280 -0.5644  0.0631
12626TIP3    H159369   2.057   1.396   4.938  0.9107  1.4248  1.0677
12626TIP3    H259370   2.039   1.409   5.088 -1.8006  0.7029  0.8692
12627TIP3   OH259371   1.997   3.458   6.127  0.1396 -0.1053  0.5657
12627TIP3    H159372   1.986   3.402   6.050  1.3115  0.8922 -0.3643
12627TIP3    H259373   1.909   3.486   6.148 -0.3938 -1.7212  0.6211
12628TIP3   OH259374   3.141   1.327   0.930 -0.3269  0.4386 -0.4036
12628TIP3    H159375   3.148   1.422   0.919  1.4278  0.4884  0.7061
12628TIP3    H259376   3.047   1.310   0.933 -0.6701  2.1440 -0.6539
12629TIP3   OH259377   0.107   3.110   3.448  0.0368  0.2098 -0.5887
12629TIP3    H159378   0.087   3.200   3.474  0.6529  0.1292  0.2054
12629TIP3    H259379   0.095   3.059   3.528 -1.9633 -0.7133 -1.4059
12630TIP3   OH259380   2.313   2.114   2.055  0.0637 -0.1002  0.2201
12630TIP3    H159381   2.241   2.175   2.036 -0.0671 -0.1748  0.4691
12630TIP3    H259382   2.269   2.030   2.071  0.0329  0.2940  2.4216
12631TIP3   OH259383   6.449   4.308   2.961 -0.3302  0.1393  0.0140
12631TIP3    H159384   6.511   4.367   2.916 -1.7962  0.1770 -2.0974
12631TIP3    H259385   6.484   4.221   2.945  0.2128  0.2619  0.5080
12632TIP3   OH259386   4.254   3.926   6.340 -0.0467  0.1421  0.1139
12632TIP3    H159387   4.218   4.006   6.380  1.6659  1.0812 -0.1056
12632TIP3    H259388   4.182   3.891   6.288 -0.6528  1.9540 -0.3655
12633TIP3   OH259389   0.929   3.699  17.465  0.0205 -0.2888  0.6171
12633TIP3    H159390   0.907   3.607  17.450 -0.0641 -0.0310 -0.9865
12633TIP3    H259391   1.025   3.701  17.466  0.0231 -0.4213  0.9510
12634TIP3   OH259392   3.455   0.979  12.569  0.1677  0.5823 -0.4140
12634TIP3    H159393   3.480   1.070  12.585 -2.4819  1.0243  1.9587
12634TIP3    H259394   3.366   0.973  12.602  0.6893 -3.2327  0.7179
12635TIP3   OH259395   3.241   6.411   5.921 -0.0478  0.5802 -0.4967
12635TIP3    H159396   3.273   6.501   5.922  0.3383  0.4551  0.6160
12635TIP3    H259397   3.146   6.418   5.931 -0.0182  0.8721 -0.4321
12636TIP3   OH259398   1.178   5.409  16.707  0.1458  0.1636  0.4450
12636TIP3    H159399   1.232   5.414  16.786  0.5243 -1.5774  0.3378
12636TIP3    H259400   1.241   5.398  16.636 -0.2577  0.4088  0.0425
12637TIP3   OH259401   2.920   5.159  13.338 -0.3687 -0.3302  0.2229
12637TIP3    H159402   2.924   5.075  13.293 -1.8457 -1.3570  1.8901
12637TIP3    H259403   3.010   5.193  13.333  0.0147 -1.4393 -1.4469
12638TIP3   OH259404   6.709   0.332   2.474 -0.2834 -0.3165 -0.9384
12638TIP3    H159405   6.661   0.249   2.473  0.3073 -0.6887  0.0591
12638TIP3    H259406   6.737   0.343   2.565 -0.2796  0.9421 -1.0747
12639TIP3   OH259407   0.296   3.453   5.748 -0.2954 -0.3451 -0.1299
12639TIP3    H159408   0.388   3.478   5.760 -0.5639  1.4513 -1.5415
12639TIP3    H259409   0.247   3.517   5.799 -0.8337 -0.4514 -0.5116
12640TIP3   OH259410   6.148   1.018   6.122 -0.1190 -0.1620  0.2492
12640TIP3    H159411   6.190   0.953   6.067  0.5002  0.0471  0.4649
12640TIP3    H259412   6.055   0.996   6.119  0.0053 -0.6391 -0.2213
12641TIP3   OH259413   0.326   6.583  11.479  0.4173 -0.6809 -0.8853
12641TIP3    H159414   0.312   6.516  11.413  0.4836 -1.9994  0.3794
12641TIP3    H259415   0.419   6.575  11.501  0.6174  0.3916 -1.2910
12642TIP3   OH259416   3.366   5.399   6.480  0.0403 -0.4062 -0.4858
12642TIP3    H159417   3.419   5.471   6.512 -1.2465  0.2083  0.3655
12642TIP3    H259418   3.339   5.426   6.392  0.3814 -0.3038 -0.5569
12643TIP3   OH259419   6.243   1.850  11.274 -0.6035 -0.7377  0.4684
12643TIP3    H159420   6.205   1.792  11.208 -1.3747  0.3289 -0.0496
12643TIP3    H259421   6.239   1.937  11.234  1.6877 -0.4672  0.6968
12644TIP3   OH259422   1.140   4.576  15.274  0.6023 -0.4110 -0.5681
12644TIP3    H159423   1.165   4.600  15.185  0.8824 -2.1224 -0.9681
12644TIP3    H259424   1.192   4.634  15.330  1.1576  0.0022 -1.4941
12645TIP3   OH259425   1.454   6.295  16.129 -0.4897  0.3316 -0.5079
12645TIP3    H159426   1.468   6.376  16.178  1.3475  0.6110 -1.4132
12645TIP3    H259427   1.367   6.264  16.157  0.7486 -0.0292  3.5864
12646TIP3   OH259428   3.050   2.325  15.000 -0.4084  0.2215  0.3703
12646TIP3    H159429   3.145   2.326  15.008 -0.2945  1.7047 -0.6881
12646TIP3    H259430   3.023   2.243  15.040  1.4354 -0.8808 -0.5160
12647TIP3   OH259431   3.630   2.438   2.661 -0.2342  0.3015 -0.0105
12647TIP3    H159432   3.569   2.380   2.706  0.5916 -1.3101 -0.8915
12647TIP3    H259433   3.601   2.437   2.570 -0.2377  1.3475 -0.0361
12648TIP3   OH259434   0.199   6.347   5.104 -0.0557  0.4179 -0.0429
12648TIP3    H159435   0.126   6.304   5.149  0.6281  0.2315  0.9378
12648TIP3    H259436   0.161   6.425   5.066 -0.5913  0.8351  1.2801
12649TIP3   OH259437   2.958   0.383   0.944 -0.0191 -0.0856  0.0704
12649TIP3    H159438   2.965   0.287   0.950 -1.7273 -0.3764 -1.7975
12649TIP3    H259439   2.891   0.399   0.879  1.2618  2.4440 -0.7849
12650TIP3   OH259440   6.048   0.840   3.682 -0.3231 -0.1467  0.5687
12650TIP3    H159441   5.999   0.793   3.615 -0.3803  0.5080  0.1446
12650TIP3    H259442   6.120   0.781   3.704  2.3335  1.2337 -3.2024
12651TIP3   OH259443   4.849   5.054  13.936  0.9512 -0.0623 -0.0774
12651TIP3    H159444   4.943   5.069  13.922  1.4965 -0.1235  2.8463
12651TIP3    H259445   4.842   4.960  13.952  0.7906  0.2488  1.8899
12652TIP3   OH259446   6.261   1.458  17.106 -0.0570  0.1931  0.5077
12652TIP3    H159447   6.249   1.553  17.102 -0.4819  0.2817  2.5978
12652TIP3    H259448   6.198   1.429  17.172  3.3764 -0.8272  3.6482
12653TIP3   OH259449   1.820   6.569  17.486 -0.1469  0.0672 -0.4579
12653TIP3    H159450   1.772   6.650  17.470  0.3948  0.3891 -0.5009
12653TIP3    H259451   1.852   6.543  17.399 -1.6089 -1.0392 -0.7032
12654TIP3   OH259452   2.698   0.462   0.181 -0.4190  0.5044  0.3030
12654TIP3    H159453   2.752   0.398   0.228 -1.0798 -0.5328 -0.3218
12654TIP3    H259454   2.758   0.535   0.163  0.9713 -0.8684 -0.9021
12655TIP3   OH259455   3.431   2.885   5.945  0.1795  0.3515  0.0393
12655TIP3    H159456   3.367   2.918   5.882 -0.5000 -0.3241  0.3607
12655TIP3    H259457   3.516   2.902   5.903 -0.1498  1.9758 -0.0505
12656TIP3   OH259458   3.359   5.650   2.851 -0.2864  0.2328 -0.5056
12656TIP3    H159459   3.346   5.562   2.886 -3.4876  1.2081  1.1291
12656TIP3    H259460   3.332   5.644   2.759 -1.6563 -0.2778 -0.0920
12657TIP3   OH259461   2.215   5.974   6.186 -0.0560 -0.7391 -0.0040
12657TIP3    H159462   2.191   6.053   6.234  1.8038  0.1398 -0.3893
12657TIP3    H259463   2.237   5.910   6.254 -1.5532 -0.9569  0.3115
12658TIP3   OH259464   2.193   5.287   3.102  0.6031 -0.1622  0.9775
12658TIP3    H159465   2.257   5.344   3.145  0.3201  0.6803  0.2952
12658TIP3    H259466   2.226   5.276   3.013  0.4106 -0.6894  0.9676
12659TIP3   OH259467   1.129   1.515  14.987  0.1252  0.6400  0.0931
12659TIP3    H159468   1.042   1.555  14.996  0.1408  0.5400  0.7760
12659TIP3    H259469   1.171   1.532  15.071 -0.8609 -3.1934  1.5616
12660TIP3   OH259470   0.270   3.698   5.523 -0.3011 -0.6286 -0.0812
12660TIP3    H159471   0.193   3.729   5.570  0.3168 -1.4740  1.5466
12660TIP3    H259472   0.269   3.603   5.533  1.2994 -0.6168  0.5787
12661TIP3   OH259473   6.171   0.384   4.944 -0.1360 -0.4715 -0.0115
12661TIP3    H159474   6.221   0.309   4.912 -0.4978 -0.1256 -1.4533
12661TIP3    H259475   6.232   0.457   4.939 -0.2528 -0.3802 -0.1227
12662TIP3   OH259476   0.277   0.386   1.309  0.1938  0.6985 -0.4049
12662TIP3    H159477   0.218   0.397   1.383 -1.0496 -0.9786 -1.0876
12662TIP3    H259478   0.364   0.376   1.348 -0.5071 -0.6460  0.8795
12663TIP3   OH259479   5.448   2.600  17.088 -0.5510  0.2085  0.7371
12663TIP3    H159480   5.399   2.626  17.166 -0.8509 -1.9431  1.3343
12663TIP3    H259481   5.533   2.572  17.122 -0.8830 -1.2937  0.3884
12664TIP3   OH259482   2.757   2.525  14.451  0.4556  0.4271  0.4646
12664TIP3    H159483   2.807   2.446  14.469  2.1364  0.8156 -1.9095
12664TIP3    H259484   2.811   2.596  14.486  0.0651  0.6603  0.5989
12665TIP3   OH259485   1.352   5.083   5.886  0.0583  0.0696  0.3010
12665TIP3    H159486   1.362   5.178   5.894  0.9891 -0.0793  1.1142
12665TIP3    H259487   1.441   5.049   5.893 -0.2220 -0.8514 -0.3570
12666TIP3   OH259488   1.418   2.780  14.237 -1.3253 -0.2138 -0.0610
12666TIP3    H159489   1.326   2.795  14.215 -0.9393  0.2576 -1.4895
12666TIP3    H259490   1.460   2.763  14.153 -0.0885 -0.3431  0.5603
12667TIP3   OH259491   0.569   6.655  15.990 -0.2027 -0.2367 -0.0048
12667TIP3    H159492   0.490   6.666  15.937  0.5039  0.4604 -0.9571
12667TIP3    H259493   0.539   6.610  16.069 -1.5398 -0.0238 -0.3634
12668TIP3   OH259494   0.996   0.249   2.518  0.7485 -0.4671 -0.0001
12668TIP3    H159495   1.031   0.215   2.436  1.0000 -2.1182  0.7558
12668TIP3    H259496   0.965   0.172   2.565  1.1466  0.3674  1.7142
12669TIP3   OH259497   5.070   0.647   6.209  0.5271 -0.6194 -0.2744
12669TIP3    H159498   5.049   0.565   6.254  2.7268 -1.0593  0.0943
12669TIP3    H259499   5.161   0.665   6.235  0.5627  1.1745 -1.5049
12670TIP3   OH259500   2.933   5.924  12.761  0.0817  0.0125  0.0985
12670TIP3    H159501   3.017   5.969  12.751  0.0448 -0.0465 -0.5134
12670TIP3    H259502   2.925   5.909  12.855 -0.2643  1.9735  0.4315
12671TIP3   OH259503   6.664   1.446  14.789  0.2409 -0.5298 -0.4106
12671TIP3    H159504   6.593   1.384  14.771  0.1467 -0.3543 -0.6396
12671TIP3    H259505   6.652   1.516  14.725  0.8147 -0.6605 -0.6681
12672TIP3   OH259506   1.209   2.152  15.305  0.3420  0.0093  0.3344
12672TIP3    H159507   1.132   2.193  15.265  0.1680  0.1976  0.8481
12672TIP3    H259508   1.273   2.147  15.234  0.1162  0.5382  0.0874
12673TIP3   OH259509   0.656   6.229  16.439  0.3699  0.6151 -0.2793
12673TIP3    H159510   0.672   6.140  16.406  0.7238  0.4874  0.2193
12673TIP3    H259511   0.739   6.255  16.478 -0.4838  0.0701  2.0950
12674TIP3   OH259512   6.142   0.827  13.271  0.4221  0.2843  0.3714
12674TIP3    H159513   6.159   0.920  13.285  0.1575  0.1054  2.0652
12674TIP3    H259514   6.114   0.795  13.356  0.6464 -1.3871 -0.1559
12675TIP3   OH259515   4.021   2.487  15.218  0.1960  0.5050  0.5215
12675TIP3    H159516   4.093   2.445  15.171 -0.7208 -0.9679  0.3839
12675TIP3    H259517   4.054   2.575  15.238  2.0450 -0.1469  0.5203
12676TIP3   OH259518   0.311   4.417   4.883 -0.0537 -0.4800 -0.1196
12676TIP3    H159519   0.403   4.440   4.897 -0.1580  0.0146 -0.2469
12676TIP3    H259520   0.285   4.465   4.805 -0.6178 -0.0580  0.3155
12677TIP3   OH259521   3.922   1.988   1.898 -0.4251 -0.3523 -0.2125
12677TIP3    H159522   3.877   1.994   1.814  0.4770  1.4472 -0.6347
12677TIP3    H259523   3.964   2.074   1.908  0.4317 -0.9334  1.5344
12678TIP3   OH259524   6.695   6.643   2.581  0.0149  0.1778  0.1791
12678TIP3    H159525   6.651   6.678   2.658 -1.0031 -1.2427  0.2816
12678TIP3    H259526   6.713   6.552   2.603 -0.3252 -0.2673 -1.2782
12679TIP3   OH259527   2.465   3.887   3.927 -0.0265  0.0607  0.2272
12679TIP3    H159528   2.423   3.900   4.012  0.7616 -0.2751  0.6731
12679TIP3    H259529   2.413   3.941   3.866 -0.7637  0.0828  0.8604
12680TIP3   OH259530   4.093   6.459   4.947 -0.0643 -0.4208 -0.2084
12680TIP3    H159531   4.021   6.473   4.886 -0.6198  1.5769  0.8169
12680TIP3    H259532   4.067   6.383   4.999 -0.1665 -1.3543 -1.5828
12681TIP3   OH259533   4.056   3.647  12.687  0.3586 -0.2244 -0.4795
12681TIP3    H159534   4.078   3.639  12.780 -2.0829 -0.3217  0.1496
12681TIP3    H259535   4.052   3.741  12.671  1.9083 -0.1829 -0.8364
12682TIP3   OH259536   3.664   4.436   4.421 -0.3389 -0.5383  0.2309
12682TIP3    H159537   3.623   4.432   4.507  2.5599 -3.2143  1.6953
12682TIP3    H259538   3.725   4.509   4.427 -0.6583 -0.2633  0.1634
12683TIP3   OH259539   3.843   4.988   4.165 -0.1610  0.1912 -0.2972
12683TIP3    H159540   3.889   4.966   4.246  0.2474 -0.9453 -0.8165
12683TIP3    H259541   3.879   4.928   4.100 -0.3853  1.1755 -1.3596
12684TIP3   OH259542   4.862   1.060   2.914 -0.0651  0.4670  0.1473
12684TIP3    H159543   4.913   0.979   2.917  0.8171  1.0260  2.1149
12684TIP3    H259544   4.893   1.105   2.835 -1.1650 -1.4119 -1.4547
12685TIP3   OH259545   3.750   4.994  13.026 -0.0135 -0.3008  0.1552
12685TIP3    H159546   3.770   5.002  13.119 -0.1776 -1.0831  0.2633
12685TIP3    H259547   3.832   5.017  12.981  0.0161  0.2459  0.4807
12686TIP3   OH259548   4.932   0.793  14.038 -0.8758  0.3559 -0.2721
12686TIP3    H159549   4.984   0.714  14.050 -0.6236  0.5846  0.1377
12686TIP3    H259550   4.940   0.813  13.944  0.0272  0.5659 -0.1534
12687TIP3   OH259551   2.587   1.221  13.602  0.2102  0.6906 -0.7554
12687TIP3    H159552   2.647   1.295  13.609  0.3322  0.4783  0.8284
12687TIP3    H259553   2.639   1.145  13.631 -1.1032  0.6859  1.8323
12688TIP3   OH259554   5.159   3.040  11.563  0.0523 -0.3013  0.2061
12688TIP3    H159555   5.198   3.118  11.603 -0.0993 -0.3768  0.5039
12688TIP3    H259556   5.231   2.978  11.556  0.1592 -0.1611  0.0290
12689TIP3   OH259557   2.395   1.754  15.875  0.2468  0.1585  0.1910
12689TIP3    H159558   2.341   1.727  15.950  0.9780 -1.2377  0.2500
12689TIP3    H259559   2.336   1.750  15.800 -0.3508  1.0437  0.5939
12690TIP3   OH259560   4.542   4.759  14.416  0.6627 -0.2479  0.5251
12690TIP3    H159561   4.587   4.757  14.500 -0.8432  0.5019  1.3903
12690TIP3    H259562   4.528   4.852  14.399  0.3249 -0.4261 -0.2136
12691TIP3   OH259563   1.284   4.808  14.827 -0.0715 -0.2408  0.2628
12691TIP3    H159564   1.223   4.876  14.857  0.2400  0.5027 -0.7150
12691TIP3    H259565   1.240   4.770  14.751  0.9927  0.8544 -0.9533
12692TIP3   OH259566   6.506   5.058   1.510 -0.3134  0.2618  0.0988
12692TIP3    H159567   6.456   5.016   1.580  1.2078 -0.8864  0.5483
12692TIP3    H259568   6.478   5.012   1.430 -1.1843  0.7706  0.1034
12693TIP3   OH259569   6.570   5.570  17.462 -0.2913  0.0808  0.2390
12693TIP3    H159570   6.655   5.526  17.467 -0.3659  0.0144  0.9916
12693TIP3    H259571   6.533   5.541  17.378 -0.4401 -1.4764  0.8233
12694TIP3   OH259572   0.178   6.769  17.352  0.8073 -0.2011 -0.4470
12694TIP3    H159573   0.144   6.732  17.271 -0.7008 -1.4343  0.6757
12694TIP3    H259574   0.244   6.706  17.381  0.2853 -0.5551  0.0054
12695TIP3   OH259575   2.785   0.284   0.734  0.4612 -0.0622 -0.3120
12695TIP3    H159576   2.711   0.230   0.761  0.6534 -0.6321 -0.9050
12695TIP3    H259577   2.756   0.324   0.652  1.4396 -1.6682 -1.4943
12696TIP3   OH259578   2.271   1.632   6.321  0.0214  0.2985  0.2219
12696TIP3    H159579   2.359   1.641   6.284  0.3756 -0.1062  0.9565
12696TIP3    H259580   2.216   1.609   6.246  0.2838  1.8473 -0.4912
12697TIP3   OH259581   1.502   4.501  15.092 -0.5073 -0.9035  0.5056
12697TIP3    H159582   1.574   4.483  15.031 -0.3442  0.2404  0.3222
12697TIP3    H259583   1.482   4.594  15.077 -1.1549 -0.8781  1.4715
12698TIP3   OH259584   4.779   3.004  14.731  0.2241 -0.0207 -0.0032
12698TIP3    H159585   4.837   3.027  14.804 -1.2218  0.7249  0.9668
12698TIP3    H259586   4.748   2.916  14.753 -1.4735  0.8173  1.2038
12699TIP3   OH259587   1.273   4.875  14.035  0.0107 -0.2435 -0.3667
12699TIP3    H159588   1.332   4.947  14.014 -1.2147  1.1658  0.8110
12699TIP3    H259589   1.189   4.900  13.996 -0.0423 -1.8676 -1.3877
12700TIP3   OH259590   3.269   2.239   1.859  0.2864  0.9105 -0.1621
12700TIP3    H159591   3.188   2.188   1.865  1.5128 -1.2893 -1.1655
12700TIP3    H259592   3.334   2.186   1.906  2.0637  0.5050 -2.8755
12701TIP3   OH259593   0.689   0.276   3.295  0.0421  0.1033  0.2705
12701TIP3    H159594   0.783   0.297   3.290  0.1121 -0.2382  0.0807
12701TIP3    H259595   0.685   0.183   3.272 -0.4908  0.4679 -1.2131
12702TIP3   OH259596   4.828   4.747   4.930 -0.4439 -0.2434 -0.0191
12702TIP3    H159597   4.781   4.814   4.881 -0.3498 -1.2952 -1.6072
12702TIP3    H259598   4.845   4.678   4.866  2.3477 -0.3747  0.7359
12703TIP3   OH259599   4.609   0.724   3.361 -0.4491 -0.3442  0.0849
12703TIP3    H159600   4.637   0.767   3.281 -1.8613  0.5223  0.0323
12703TIP3    H259601   4.556   0.650   3.331 -1.0456  0.0277  0.2020
12704TIP3   OH259602   3.202   5.294   1.978  0.2833  0.0247  0.8160
12704TIP3    H159603   3.291   5.328   1.984  0.1221  0.3605  1.3211
12704TIP3    H259604   3.183   5.262   2.066  0.8582 -2.4598  0.1162
12705TIP3   OH259605   1.567   4.348   5.459 -0.0462 -0.2694 -0.8573
12705TIP3    H159606   1.562   4.396   5.542  0.3499 -0.0797 -0.9414
12705TIP3    H259607   1.607   4.264   5.483 -0.3983 -0.4133 -0.7716
12706TIP3   OH259608   1.047   1.447  14.692  0.5766 -0.0855  0.2103
12706TIP3    H159609   0.959   1.458  14.727  0.7313 -1.3335  1.0601
12706TIP3    H259610   1.097   1.410  14.764  1.7852  0.4976 -0.2934
12707TIP3   OH259611   0.217   3.309  12.812  0.5959 -0.2855 -0.1418
12707TIP3    H159612   0.291   3.301  12.872 -0.4134 -0.1258  1.1863
12707TIP3    H259613   0.211   3.403  12.795  0.5412 -0.2708 -0.0415
12708TIP3   OH259614   0.712   5.233   3.243 -0.3724  0.1504 -0.2604
12708TIP3    H159615   0.618   5.245   3.257 -0.2694 -0.3871  0.9813
12708TIP3    H259616   0.717   5.167   3.173 -0.8981  0.9910 -1.1233
12709TIP3   OH259617   1.517   1.548   5.352 -0.6795 -0.6234 -0.2272
12709TIP3    H159618   1.479   1.636   5.350 -2.7528 -1.2536  3.3368
12709TIP3    H259619   1.454   1.493   5.305 -0.8818 -0.6687  0.0984
12710TIP3   OH259620   4.408   0.817   2.424  0.0724 -0.2096 -0.4869
12710TIP3    H159621   4.362   0.738   2.394  0.2541 -0.6703  0.3886
12710TIP3    H259622   4.349   0.855   2.489  0.2296  0.0688 -0.5076
12711TIP3   OH259623   4.949   4.393   1.279  0.3476 -0.0550 -0.4769
12711TIP3    H159624   5.007   4.356   1.345  1.2257 -0.9653 -1.7285
12711TIP3    H259625   4.941   4.486   1.304  1.0111 -0.2755  0.6351
12712TIP3   OH259626   5.013   3.640   3.570 -0.0382 -0.0113 -0.5905
12712TIP3    H159627   5.037   3.724   3.530 -0.3702 -0.0218 -0.8067
12712TIP3    H259628   5.028   3.575   3.501  2.5067 -0.4546  0.2643
12713TIP3   OH259629   5.856   1.822   1.345  0.0059 -0.4489  0.6393
12713TIP3    H159630   5.773   1.829   1.393  0.3141 -0.9712  1.2584
12713TIP3    H259631   5.882   1.913   1.330  0.2352 -0.2589  2.0572
12714TIP3   OH259632   1.809   4.918  13.523 -0.2868 -0.4728 -0.0983
12714TIP3    H159633   1.895   4.949  13.551  1.4030 -0.2947 -4.6147
12714TIP3    H259634   1.747   4.976  13.568  2.1332  1.5731  0.8549
12715TIP3   OH259635   6.159   6.139   2.469 -0.2160  0.3812  0.4589
12715TIP3    H159636   6.248   6.144   2.504  0.5033  1.0888 -1.3487
12715TIP3    H259637   6.132   6.230   2.460  0.1211  0.3161 -1.8823
12716TIP3   OH259638   3.446   2.956  16.401 -0.0547 -0.5814  0.1658
12716TIP3    H159639   3.360   2.994  16.382  0.4201 -1.1676 -4.4490
12716TIP3    H259640   3.508   3.027  16.386  0.4090 -0.7387  1.2406
12717TIP3   OH259641   4.800   4.668   0.588 -0.3130  0.3823 -0.1779
12717TIP3    H159642   4.809   4.740   0.525  0.1293  0.6519  0.1811
12717TIP3    H259643   4.745   4.704   0.657  0.8232  0.7847  0.5587
12718TIP3   OH259644   0.851   0.074  11.455 -0.3219 -0.1536  0.2202
12718TIP3    H159645   0.891   0.156  11.426  0.2994 -0.3724  0.4379
12718TIP3    H259646   0.872   0.012  11.385 -1.7983  0.1327 -0.5247
12719TIP3   OH259647   1.000   5.763  11.572  0.1682 -0.2164 -0.1539
12719TIP3    H159648   0.952   5.690  11.612 -0.0410  0.4613  0.8706
12719TIP3    H259649   0.940   5.798  11.506 -0.0864 -0.4089 -0.0274
12720TIP3   OH259650   2.877   0.330  13.411 -0.0892 -0.3895 -0.2668
12720TIP3    H159651   2.852   0.240  13.390  1.0296 -0.7673 -0.0800
12720TIP3    H259652   2.845   0.343  13.501  1.0278 -1.1334  0.2634
12721TIP3   OH259653   2.391   5.450   1.206  0.7888 -1.0243  0.1080
12721TIP3    H159654   2.421   5.381   1.265 -0.7514 -1.0245  0.9433
12721TIP3    H259655   2.323   5.408   1.154 -0.2105 -0.1377  0.6654
12722TIP3   OH259656   1.280   3.699  16.214 -0.5805  0.2338 -0.3468
12722TIP3    H159657   1.299   3.610  16.186 -0.6281  0.1893 -0.2379
12722TIP3    H259658   1.282   3.751  16.133  0.4483  0.3105 -0.2784
12723TIP3   OH259659   4.089   4.040   3.298 -0.4850 -0.4822 -0.3587
12723TIP3    H159660   4.006   4.073   3.333 -0.7032 -0.3744 -0.9499
12723TIP3    H259661   4.116   4.107   3.234 -1.3501 -1.7729 -2.1880
12724TIP3   OH259662   4.056   1.551  16.047 -0.1850 -0.1705 -0.6089
12724TIP3    H159663   4.133   1.531  15.994  0.0551  0.7477 -0.6378
12724TIP3    H259664   4.056   1.484  16.115  0.8404 -0.0021 -0.4221
12725TIP3   OH259665   3.227   0.472  17.383 -0.8820  0.4519  0.3490
12725TIP3    H159666   3.240   0.378  17.371  1.3493  0.8997 -1.2472
12725TIP3    H259667   3.137   0.480  17.415 -1.3844 -2.1495 -0.2235
12726TIP3   OH259668   6.673   6.147  12.311 -0.3213 -0.3854 -0.4470
12726TIP3    H159669   6.741   6.121  12.249  0.7291  0.9162  0.0853
12726TIP3    H259670   6.719   6.204  12.373 -1.7546 -0.0851  0.3785
12727TIP3   OH259671   3.528   2.829   1.532  0.4558 -0.5417  0.2435
12727TIP3    H159672   3.532   2.784   1.447 -0.5165 -0.1088 -0.0504
12727TIP3    H259673   3.462   2.897   1.519  0.6419 -0.1673  1.2138
12728TIP3   OH259674   1.575   3.001   1.120  0.4435  0.0044 -0.6972
12728TIP3    H159675   1.507   2.969   1.179 -1.6399  1.4432 -2.1752
12728TIP3    H259676   1.557   2.958   1.037  1.7702 -0.0809 -0.9638
12729TIP3   OH259677   4.124   1.570   3.025  0.1185 -0.3046  0.0614
12729TIP3    H159678   4.154   1.634   2.960  0.3300 -0.0564  0.4013
12729TIP3    H259679   4.065   1.513   2.976 -1.0980  0.9222  0.0204
12730TIP3   OH259680   4.135   1.941   6.529  1.0669 -0.1460  0.4876
12730TIP3    H159681   4.125   1.859   6.480 -0.4521  0.2716  0.0439
12730TIP3    H259682   4.045   1.973   6.541  1.6322  3.8537 -3.4563
12731TIP3   OH259683   2.953   3.216  14.254 -0.2513 -0.5403  0.6365
12731TIP3    H159684   3.040   3.184  14.232  1.1408  3.2168 -0.0564
12731TIP3    H259685   2.903   3.207  14.173  0.7772  0.9361 -0.2036
12732TIP3   OH259686   1.450   1.647   4.437  0.4582 -0.3598 -0.0160
12732TIP3    H159687   1.474   1.599   4.516  0.9191  0.3522  0.2884
12732TIP3    H259688   1.520   1.627   4.374  0.2038 -0.7575 -0.1718
12733TIP3   OH259689   1.093   6.326  11.888  0.1941  0.5226  0.0478
12733TIP3    H159690   1.024   6.312  11.823 -0.1470  1.1344  0.2729
12733TIP3    H259691   1.140   6.403  11.856  0.4194  0.4437  0.1937
12734TIP3   OH259692   0.797   5.737   4.507 -0.0560  0.4537  0.1602
12734TIP3    H159693   0.742   5.720   4.583  0.1118 -1.2288 -0.0698
12734TIP3    H259694   0.886   5.742   4.542 -0.1659  1.6998  0.3230
12735TIP3   OH259695   2.154   6.477  12.336  0.0871  0.1541  0.5140
12735TIP3    H159696   2.130   6.569  12.346 -2.8437 -0.2499 -1.5790
12735TIP3    H259697   2.134   6.438  12.421  0.7548  1.2867  1.2229
12736TIP3   OH259698   3.175   4.001   5.684 -0.0610 -0.1231 -0.1379
12736TIP3    H159699   3.206   4.059   5.615 -0.7461 -0.6739 -0.9288
12736TIP3    H259700   3.206   4.041   5.765  0.3405  0.7939 -0.7302
12737TIP3   OH259701   2.599   6.748  11.321 -0.4001 -0.4138 -0.0496
12737TIP3    H159702   2.594   6.817  11.387 -0.0955 -0.6058  0.1773
12737TIP3    H259703   2.520   6.759  11.268 -1.0460 -0.7621  0.8315
12738TIP3   OH259704   1.477   5.539   4.851 -0.3796  0.0030  0.3065
12738TIP3    H159705   1.425   5.463   4.880  1.4624 -0.7649  1.8547
12738TIP3    H259706   1.534   5.504   4.782 -0.9672  0.5075 -0.4427
12739TIP3   OH259707   6.708   1.823   1.841  0.7694  0.0364  0.2611
12739TIP3    H159708   6.618   1.831   1.873  0.6998  0.3750 -0.0118
12739TIP3    H259709   6.757   1.888   1.891  0.3949  1.5665 -1.2628
12740TIP3   OH259710   6.476   1.274  15.189 -0.1496  0.0868  0.1839
12740TIP3    H159711   6.449   1.292  15.099 -0.0183  0.2491  0.1772
12740TIP3    H259712   6.568   1.250  15.183  0.7181  2.9078  0.5710
12741TIP3   OH259713   1.010   0.496   4.135 -0.0894  0.2406 -0.7391
12741TIP3    H159714   1.029   0.583   4.168  3.2573 -0.1631 -1.2853
12741TIP3    H259715   1.080   0.478   4.072 -0.3896 -2.9958 -0.3385
12742TIP3   OH259716   3.031   0.500  17.163 -0.2404 -0.1365  0.8231
12742TIP3    H159717   3.088   0.509  17.240 -1.8895 -1.0564  2.2150
12742TIP3    H259718   3.092   0.481  17.091  1.6708  3.6147  1.1894
12743TIP3   OH259719   2.803   4.279  13.028 -0.1105 -0.0586 -0.1564
12743TIP3    H159720   2.768   4.342  12.966 -1.1196 -1.0896 -0.6774
12743TIP3    H259721   2.895   4.304  13.039 -0.0292  0.4121 -1.7310
12744TIP3   OH259722   0.368   1.274   1.303  0.3930  0.1157  0.5736
12744TIP3    H159723   0.416   1.345   1.344 -0.8342  0.4192  1.5475
12744TIP3    H259724   0.291   1.261   1.359 -1.6492  0.8754 -1.8601
12745TIP3   OH259725   2.577   0.875   5.309 -0.3187  0.2622  0.2567
12745TIP3    H159726   2.607   0.966   5.309  0.0883  0.1526  1.7794
12745TIP3    H259727   2.577   0.850   5.217 -1.8503  2.2509 -0.3660
12746TIP3   OH259728   5.275   4.726   0.571 -0.2088  0.3980  0.2722
12746TIP3    H159729   5.254   4.644   0.525 -0.2895  0.2327  0.5969
12746TIP3    H259730   5.369   4.721   0.587 -0.5144 -0.5737  2.0539
12747TIP3   OH259731   1.681   4.429  14.903  0.0548 -0.7724  0.1817
12747TIP3    H159732   1.699   4.519  14.877 -3.5321 -0.2874 -1.2197
12747TIP3    H259733   1.758   4.403  14.954  1.7363  2.6500 -0.3054
12748TIP3   OH259734   3.565   0.863   6.076 -0.2519  0.1191  0.2162
12748TIP3    H159735   3.631   0.849   6.144  0.1572  3.1852  0.6222
12748TIP3    H259736   3.605   0.929   6.019 -2.0370  0.2639 -0.9151
12749TIP3   OH259737   4.577   1.153  15.713  0.1548  0.7731  0.4364
12749TIP3    H159738   4.484   1.132  15.706  0.7054 -1.3197 -3.1023
12749TIP3    H259739   4.593   1.220  15.647  1.4936 -0.7672 -0.9211
12750TIP3   OH259740   3.645   5.999   6.334 -0.7480 -0.5660 -0.2655
12750TIP3    H159741   3.734   6.018   6.364 -1.2469  0.8764  0.4029
12750TIP3    H259742   3.620   5.919   6.382 -0.7403  0.4865  1.6001
12751TIP3   OH259743   6.285   5.514  12.774  0.6420 -0.2784  0.0423
12751TIP3    H159744   6.273   5.421  12.794  1.0678 -0.1071  1.1756
12751TIP3    H259745   6.224   5.531  12.702  0.4300 -1.3896 -0.0610
12752TIP3   OH259746   2.889   0.375   5.396 -0.1894  0.4165 -0.0049
12752TIP3    H159747   2.915   0.306   5.334  2.9083 -0.5315  2.0977
12752TIP3    H259748   2.860   0.447   5.340  2.0148 -0.5195 -2.6248
12753TIP3   OH259749   4.295   2.397  16.560  0.3795  0.5164  0.1820
12753TIP3    H159750   4.256   2.449  16.630 -0.7277  0.7329 -0.5685
12753TIP3    H259751   4.248   2.423  16.481  1.0937 -0.2612 -0.5260
12754TIP3   OH259752   5.551   0.648  15.677  0.5692 -0.4143  0.2091
12754TIP3    H159753   5.547   0.691  15.591 -0.3132  0.8129  0.8405
12754TIP3    H259754   5.487   0.576  15.670 -0.3115  0.3514  0.1761
12755TIP3   OH259755   5.149   5.489  15.981  0.0706  0.2844 -0.3972
12755TIP3    H159756   5.128   5.549  15.909  0.6389  1.2538  0.2161
12755TIP3    H259757   5.227   5.442  15.952 -0.1649  0.1100 -0.7387
12756TIP3   OH259758   6.635   2.661   1.897  0.1607  0.2009  0.0960
12756TIP3    H159759   6.572   2.589   1.886  0.1066  0.4341 -1.1884
12756TIP3    H259760   6.586   2.728   1.945 -0.7779  0.6087 -1.3664
12757TIP3   OH259761   2.871   0.400  16.775 -0.7575 -0.0722  0.4608
12757TIP3    H159762   2.965   0.383  16.785 -1.1555 -1.3549  2.4236
12757TIP3    H259763   2.850   0.366  16.688  0.3404 -0.9945  0.5365
12758TIP3   OH259764   5.617   3.087  13.497 -0.3646  0.0086  0.1226
12758TIP3    H159765   5.568   3.032  13.436 -1.4566  0.8825  0.1920
12758TIP3    H259766   5.622   3.172  13.453 -0.5957  0.4647  0.9620
12759TIP3   OH259767   6.133   2.273  13.357  0.0052  0.6329 -0.4846
12759TIP3    H159768   6.204   2.336  13.350 -0.9554  1.7936 -0.1986
12759TIP3    H259769   6.053   2.326  13.354 -0.8478 -0.5906 -0.4473
12760TIP3   OH259770   0.691   1.925   3.154 -0.0111  0.0222  0.0079
12760TIP3    H159771   0.599   1.948   3.138 -0.1447  0.2083  1.0044
12760TIP3    H259772   0.690   1.877   3.237  0.7342 -0.4450 -0.2380
12761TIP3   OH259773   3.040   5.897   5.219 -0.4780  0.5262  0.0081
12761TIP3    H159774   3.082   5.947   5.289 -0.3064 -0.0850  0.3495
12761TIP3    H259775   3.058   5.948   5.140  1.0891  0.1996  0.1168
12762TIP3   OH259776   3.982   6.517   2.728 -0.1912 -0.1807  0.4370
12762TIP3    H159777   3.929   6.589   2.761 -2.0495 -1.6417  0.7747
12762TIP3    H259778   4.070   6.533   2.764 -0.9203  1.0957  1.7250
12763TIP3   OH259779   2.470   5.257   0.963  0.0182 -0.0025 -0.2875
12763TIP3    H159780   2.382   5.292   0.947 -0.0075  0.0889  0.0395
12763TIP3    H259781   2.455   5.174   1.009  0.1063  0.0753 -0.1175
12764TIP3   OH259782   2.214   3.390   5.492 -0.4062  0.3240  0.7601
12764TIP3    H159783   2.173   3.306   5.513  1.0357 -1.0170 -1.3803
12764TIP3    H259784   2.289   3.396   5.552 -1.4780  0.9501  2.0787
12765TIP3   OH259785   3.864   2.274   2.755  0.4981  0.1788  0.1106
12765TIP3    H159786   3.838   2.272   2.847 -1.1621 -0.9253 -0.3336
12765TIP3    H259787   3.816   2.348   2.718  1.8452  1.1623  0.3009
12766TIP3   OH259788   2.647   5.140   5.592 -0.0366 -0.0609 -0.5582
12766TIP3    H159789   2.676   5.226   5.621  0.4064  0.0497 -1.3063
12766TIP3    H259790   2.578   5.115   5.654  2.6748 -1.0258  2.3136
12767TIP3   OH259791   1.827   3.647   5.349  0.0586  0.2479  0.2536
12767TIP3    H159792   1.804   3.726   5.398 -1.2677 -0.0647  0.1776
12767TIP3    H259793   1.762   3.582   5.375  1.9594 -1.3156  1.3950
12768TIP3   OH259794   0.894   6.325  16.562  0.4263 -0.3394  0.3115
12768TIP3    H159795   0.986   6.348  16.577  0.5363 -0.6527  0.1311
12768TIP3    H259796   0.850   6.344  16.645 -0.0443  3.1840 -0.6076
12769TIP3   OH259797   0.500   1.472   2.037  0.0054 -0.3159  0.2774
12769TIP3    H159798   0.477   1.561   2.064 -1.1332 -0.3166 -0.5825
12769TIP3    H259799   0.595   1.468   2.045  0.1651  1.2682 -0.4594
12770TIP3   OH259800   4.841   1.444   3.889  0.2654  0.2626 -0.6602
12770TIP3    H159801   4.856   1.410   3.800 -1.1550  1.1475 -1.2693
12770TIP3    H259802   4.772   1.510   3.878  0.3287  0.6501  1.0572
12771TIP3   OH259803   6.096   4.492   5.995  0.2020 -0.2826 -0.2310
12771TIP3    H159804   6.175   4.530   5.956  0.0130 -0.9118 -1.2717
12771TIP3    H259805   6.121   4.470   6.085  0.9814  0.2130 -0.3214
12772TIP3   OH259806   0.937   1.623   2.231  0.1366 -0.7430 -0.2047
12772TIP3    H159807   1.019   1.670   2.248 -0.6570  0.2418  1.1641
12772TIP3    H259808   0.900   1.607   2.318 -1.3993 -0.6264 -0.7979
12773TIP3   OH259809   0.487   6.717   6.968  0.5624 -0.3888  0.3321
12773TIP3    H159810   0.579   6.742   6.969  0.9635 -1.7044  2.4349
12773TIP3    H259811   0.442   6.795   6.935  2.2657  0.8946  0.8533
12774TIP3   OH259812   4.235   2.529   1.963  0.6418 -0.1096 -0.2805
12774TIP3    H159813   4.164   2.531   1.899  0.3878 -0.0063  0.0045
12774TIP3    H259814   4.247   2.620   1.990  0.7415 -0.1531 -0.1732
12775TIP3   OH259815   0.206   0.636   4.031  0.4249  0.9941  0.3127
12775TIP3    H159816   0.217   0.541   4.034  1.2889  1.0972  1.0191
12775TIP3    H259817   0.145   0.652   3.959 -1.0144 -0.1937  1.2131
12776TIP3   OH259818   4.215   4.314  16.141  0.1530  0.2132 -0.6253
12776TIP3    H159819   4.255   4.381  16.087  1.5038  0.6093  0.7873
12776TIP3    H259820   4.280   4.296  16.209 -1.0348 -1.0111  0.2435
12777TIP3   OH259821   1.268   3.972   0.205  0.5015  0.2249 -0.3731
12777TIP3    H159822   1.199   4.010   0.259  0.3017 -1.6198  0.7685
12777TIP3    H259823   1.221   3.931   0.132  0.5320  0.2905 -0.4300
12778TIP3   OH259824   6.066   5.761   3.456 -0.1196  0.4109  0.2150
12778TIP3    H159825   6.058   5.695   3.525  0.8716 -0.7299 -0.7219
12778TIP3    H259826   5.980   5.762   3.414 -0.7395  1.1307  1.4277
12779TIP3   OH259827   5.550   1.356  14.363 -0.3367 -0.1541 -0.1877
12779TIP3    H159828   5.528   1.297  14.290  0.9247 -1.3112  0.3326
12779TIP3    H259829   5.600   1.427  14.322 -3.3206  1.5982 -1.1074
12780TIP3   OH259830   2.146   1.720  12.206  0.2840 -0.1044  0.7990
12780TIP3    H159831   2.171   1.697  12.117 -0.0800  1.3924  0.2707
12780TIP3    H259832   2.213   1.784  12.234 -1.3643  1.9438  0.3318
12781TIP3   OH259833   4.513   4.369  14.350  0.0147  0.8037 -0.7824
12781TIP3    H159834   4.463   4.288  14.358  1.5577 -0.0949  0.5310
12781TIP3    H259835   4.596   4.342  14.311  0.1106  1.9765 -1.4274
12782TIP3   OH259836   3.959   5.895   2.773 -0.2511  0.2297 -0.0179
12782TIP3    H159837   3.936   5.966   2.713  1.6086  1.2919  0.4356
12782TIP3    H259838   4.042   5.861   2.739 -1.5301 -2.4056 -0.7516
12783TIP3   OH259839   3.088   6.336   1.458  0.2556 -0.3229 -0.3244
12783TIP3    H159840   3.006   6.327   1.505 -0.2402 -0.8018 -1.2651
12783TIP3    H259841   3.065   6.329   1.366  1.1580  0.9313 -0.6834
12784TIP3   OH259842   6.643   0.767  12.061 -0.3622 -0.0587 -0.3036
12784TIP3    H159843   6.598   0.731  12.137  2.5377 -0.2895  1.4767
12784TIP3    H259844   6.619   0.709  11.988 -1.2443 -1.3841  0.9919
12785TIP3   OH259845   0.684   3.762   3.436 -0.2465  0.1070 -0.0100
12785TIP3    H159846   0.687   3.775   3.341 -1.0412  0.1464 -0.0351
12785TIP3    H259847   0.603   3.715   3.451 -1.5053  2.4218  0.9098
12786TIP3   OH259848   4.973   0.189   2.467  0.3555 -0.2410 -0.5211
12786TIP3    H159849   4.924   0.116   2.503  3.0004 -1.4669  0.8508
12786TIP3    H259850   4.948   0.265   2.520  1.5115 -1.2947  1.6258
12787TIP3   OH259851   4.482   6.357   5.920 -0.2008  0.0271 -0.3124
12787TIP3    H159852   4.497   6.435   5.972  0.3585  0.4179 -1.0292
12787TIP3    H259853   4.426   6.386   5.848 -0.9421 -0.4956  0.0467
12788TIP3   OH259854   5.841   6.355  12.343  0.1648  0.0563 -0.0833
12788TIP3    H159855   5.891   6.413  12.287 -1.4492 -0.1109 -1.8036
12788TIP3    H259856   5.759   6.402  12.360  0.4984 -0.0017  1.9892
12789TIP3   OH259857   6.069   0.791  11.768  0.1330  0.5142  0.1085
12789TIP3    H159858   6.107   0.750  11.846  2.0345  1.5222 -0.2303
12789TIP3    H259859   6.056   0.719  11.707 -1.5219 -0.3214  1.3497
12790TIP3   OH259860   2.261   6.168   3.081 -0.1284 -0.1898  0.0807
12790TIP3    H159861   2.349   6.146   3.049 -0.7029 -0.7046 -1.2060
12790TIP3    H259862   2.256   6.124   3.166  0.8907 -0.0692  0.2246
12791TIP3   OH259863   4.041   6.486   0.041 -0.4476 -0.4270  0.2770
12791TIP3    H159864   4.058   6.483  -0.053 -1.9731  0.5678 -0.0624
12791TIP3    H259865   4.116   6.535   0.077 -0.9316  1.1564 -0.7413
12792TIP3   OH259866   5.223   2.218  15.160 -0.9611 -0.1493 -0.0331
12792TIP3    H159867   5.187   2.206  15.248  0.7204 -0.3912  0.6475
12792TIP3    H259868   5.157   2.178  15.103 -0.7109 -2.7989  1.3377
12793TIP3   OH259869   6.009   5.000  16.206 -0.2475  0.5970 -0.0398
12793TIP3    H159870   5.947   5.065  16.239 -2.3122 -1.0271 -0.4705
12793TIP3    H259871   5.976   4.917  16.240  1.6484 -0.3643 -0.4262
12794TIP3   OH259872   2.842   3.382   0.435  0.2337 -0.3967 -0.4566
12794TIP3    H159873   2.752   3.384   0.467 -0.6267 -0.8708 -2.6916
12794TIP3    H259874   2.861   3.290   0.418  1.3470 -0.3624  0.4386
12795TIP3   OH259875   4.781   3.646  14.810  0.1730  0.2026  0.0503
12795TIP3    H159876   4.770   3.735  14.843 -0.3970  0.8165 -1.6773
12795TIP3    H259877   4.706   3.632  14.752  0.8580 -0.9917 -0.5992
12796TIP3   OH259878   3.142   1.591  13.325  0.5559  0.0245 -0.0103
12796TIP3    H159879   3.076   1.524  13.336 -0.5714  1.1157  0.1221
12796TIP3    H259880   3.189   1.567  13.246 -0.0054 -0.7678 -0.1084
12797TIP3   OH259881   6.047   6.083  17.420  0.1510  0.0225 -0.3991
12797TIP3    H159882   6.116   6.145  17.444 -0.7824  1.8198 -2.0801
12797TIP3    H259883   6.073   6.001  17.462  3.3565  0.5653 -1.0765
12798TIP3   OH259884   2.776   1.114   5.967  0.4317 -0.5236  0.0487
12798TIP3    H159885   2.755   1.199   6.006 -1.7935 -0.3292 -1.3556
12798TIP3    H259886   2.773   1.130   5.872 -1.0486 -2.3348 -0.2585
12799TIP3   OH259887   5.310   3.373   0.098  0.2970 -0.3050  0.2783
12799TIP3    H159888   5.352   3.336   0.020  1.9433 -0.6130  1.2657
12799TIP3    H259889   5.259   3.447   0.065  2.1949  0.5394 -0.9269
12800TIP3   OH259890   0.047   4.686  17.158 -0.4787  0.0489 -0.1655
12800TIP3    H159891   0.115   4.630  17.198  0.1444  0.9468  0.0562
12800TIP3    H259892  -0.024   4.687  17.223  0.8432  2.1504  1.3893
12801TIP3   OH259893   3.982   3.088   4.177 -0.3939 -0.2660  0.1320
12801TIP3    H159894   3.997   3.079   4.083 -0.7243 -0.4192  0.0926
12801TIP3    H259895   4.027   3.169   4.201  3.3541 -2.3082  0.6615
12802TIP3   OH259896   2.620   1.625   4.722 -0.2051  0.4279 -0.3692
12802TIP3    H159897   2.706   1.648   4.689 -0.4426  1.3629 -0.3438
12802TIP3    H259898   2.602   1.538   4.685  0.5409  0.4357 -0.7495
12803TIP3   OH259899   1.441   6.015  14.397  0.3983 -0.1526 -0.0239
12803TIP3    H159900   1.508   6.057  14.343  0.1603  0.6243  0.2660
12803TIP3    H259901   1.428   6.075  14.470 -0.2659 -0.5233  0.1743
12804TIP3   OH259902   6.478   4.302  16.429 -0.0429  0.0471 -0.1301
12804TIP3    H159903   6.497   4.231  16.368 -1.3490 -0.7323  0.3419
12804TIP3    H259904   6.565   4.336  16.454  0.5222  0.2224 -2.1938
12805TIP3   OH259905   3.453   0.387  16.672 -0.3154  0.2088 -0.5560
12805TIP3    H159906   3.373   0.437  16.687 -0.3893  0.9339 -2.9044
12805TIP3    H259907   3.524   0.445  16.700 -0.4955  0.9171 -1.5059
12806TIP3   OH259908   5.992   4.043   2.919  0.1541 -0.6735  0.2952
12806TIP3    H159909   5.899   4.043   2.942 -0.2559 -2.8654 -1.0713
12806TIP3    H259910   5.994   4.059   2.825  1.1231 -1.0529  0.2357
12807TIP3   OH259911   3.467   1.192   1.527  0.1476  0.6775 -0.2807
12807TIP3    H159912   3.534   1.216   1.590  0.8669  0.3698 -0.9074
12807TIP3    H259913   3.500   1.111   1.487 -0.5687  0.5542 -0.6398
12808TIP3   OH259914   6.721   1.156  12.264 -0.0704  0.2070 -0.2911
12808TIP3    H159915   6.744   1.107  12.185  0.5191  0.1794 -0.1041
12808TIP3    H259916   6.702   1.088  12.329 -0.1748  0.2307 -0.2961
12809TIP3   OH259917   3.768   1.431  12.673 -0.2568 -0.1368  0.0676
12809TIP3    H159918   3.808   1.497  12.730 -0.0412 -0.7439  0.6362
12809TIP3    H259919   3.838   1.366  12.660 -1.0010 -1.1531  0.9710
12810TIP3   OH259920   5.878   0.070   2.012 -0.1567  0.0501  0.3012
12810TIP3    H159921   5.821   0.087   1.937 -0.4364 -2.0167 -0.0099
12810TIP3    H259922   5.967   0.078   1.977 -0.2850 -0.9399 -0.2842
12811TIP3   OH259923   1.796   2.709  11.850 -0.0237 -0.3372 -0.1512
12811TIP3    H159924   1.844   2.627  11.861  0.9311  0.4068  1.5641
12811TIP3    H259925   1.842   2.755  11.780  1.5279  0.1457  1.1310
12812TIP3   OH259926   3.153   3.029  13.931 -0.1696  0.0881  0.0678
12812TIP3    H159927   3.248   3.019  13.921 -0.1629 -0.4228  0.5780
12812TIP3    H259928   3.116   2.952  13.889 -0.3017 -0.2596  0.8053
12813TIP3   OH259929   1.635   0.292   3.431  0.1342 -0.3467  0.4563
12813TIP3    H159930   1.690   0.300   3.508 -0.4730  2.8415  0.7351
12813TIP3    H259931   1.569   0.227   3.454  0.5173 -0.1298  2.2798
12814TIP3   OH259932   2.050   6.759   1.380  0.0211  0.3476 -0.4033
12814TIP3    H159933   2.108   6.683   1.372 -0.8755 -0.3329 -0.5532
12814TIP3    H259934   1.976   6.727   1.432  0.4710  1.6182  1.0965
12815TIP3   OH259935   6.037   6.595   1.135  0.0947  0.1668 -0.5693
12815TIP3    H159936   6.012   6.652   1.208 -0.3890 -1.3716  0.5083
12815TIP3    H259937   6.080   6.654   1.073 -1.1183  1.8585  0.1125
12816TIP3   OH259938   2.715   3.203  11.532 -0.5170  0.3581 -0.1361
12816TIP3    H159939   2.787   3.222  11.472  0.0061  1.5604  0.8163
12816TIP3    H259940   2.641   3.182  11.475  0.3547 -0.0384 -1.1507
12817TIP3   OH259941   3.807   5.144  11.622  0.7525 -0.0173  0.2026
12817TIP3    H159942   3.842   5.190  11.546 -1.8755  1.2330 -0.3608
12817TIP3    H259943   3.862   5.172  11.695  1.4686  1.1338 -0.7517
12818TIP3   OH259944   2.863   2.894   4.152  0.1758  0.0368 -0.2448
12818TIP3    H159945   2.885   2.850   4.070 -0.9503  0.5365 -0.8453
12818TIP3    H259946   2.942   2.944   4.175 -0.6614  3.0687 -3.1516
12819TIP3   OH259947   4.414   1.840  14.545 -0.4046 -0.0357 -0.1782
12819TIP3    H159948   4.334   1.789  14.557  1.4837 -2.7261  2.3484
12819TIP3    H259949   4.401   1.918  14.598 -1.7222  0.0642 -0.6125
12820TIP3   OH259950   0.785   0.780  15.966  0.5242 -0.6621 -0.3488
12820TIP3    H159951   0.840   0.808  16.039 -0.9335 -1.1979  1.0203
12820TIP3    H259952   0.701   0.824  15.982  0.4186 -0.1273 -2.1925
12821TIP3   OH259953   1.228   6.749  12.920 -0.4850 -0.1720  0.1126
12821TIP3    H159954   1.267   6.834  12.903  0.4868 -0.5339  0.4895
12821TIP3    H259955   1.254   6.695  12.845 -0.6399 -0.2976  0.1478
12822TIP3   OH259956   1.487   2.504   5.457  0.1031 -0.0817 -0.7761
12822TIP3    H159957   1.416   2.440   5.458  1.4452 -1.6574 -1.8063
12822TIP3    H259958   1.559   2.461   5.410  2.2070  0.9681  1.2585
12823TIP3   OH259959   1.297   2.951  17.195 -0.2282  0.1408 -0.2747
12823TIP3    H159960   1.233   2.967  17.126 -1.0746 -2.0442 -0.0934
12823TIP3    H259961   1.298   2.855  17.205  1.4331  0.2564  1.2839
12824TIP3   OH259962   0.587   6.290   2.087 -0.4737  0.0948  1.0842
12824TIP3    H159963   0.629   6.227   2.145 -0.3646  0.8689  1.8582
12824TIP3    H259964   0.646   6.297   2.012 -1.5967 -2.4451 -0.1526
12825TIP3   OH259965   3.403   5.847   2.073  0.7703 -0.8483  0.1581
12825TIP3    H159966   3.450   5.859   1.990  0.9655  0.0732  0.3908
12825TIP3    H259967   3.470   5.816   2.134  1.0625  0.2720  0.4376
12826TIP3   OH259968   1.462   4.815   1.666 -0.1279  0.3307  0.2815
12826TIP3    H159969   1.460   4.908   1.643 -1.4800  0.0329 -0.9992
12826TIP3    H259970   1.474   4.769   1.582  1.3919 -0.6539  0.9866
12827TIP3   OH259971   0.259   5.845  12.398 -0.0026  0.0279  0.2214
12827TIP3    H159972   0.203   5.806  12.330  0.9650 -1.4618  0.2326
12827TIP3    H259973   0.207   5.840  12.478  0.2756 -1.8034  0.3335
12828TIP3   OH259974   2.094   3.055   0.792 -0.1676  0.3104 -0.0397
12828TIP3    H159975   2.123   2.970   0.759 -0.2139  0.0086  0.6639
12828TIP3    H259976   2.006   3.038   0.826  0.1787  0.4123  0.9447
12829TIP3   OH259977   4.792   5.665   5.839  0.8763 -0.2572 -0.0512
12829TIP3    H159978   4.850   5.591   5.821  2.5228  0.7619  0.7919
12829TIP3    H259979   4.844   5.742   5.815 -0.4478  0.6796 -0.0166
12830TIP3   OH259980   4.774   1.288   0.659 -0.1198  0.0480  0.0490
12830TIP3    H159981   4.827   1.367   0.658  0.7445 -0.5146 -0.9041
12830TIP3    H259982   4.810   1.234   0.589  0.4595 -1.9299  1.7560
12831TIP3   OH259983   2.817   1.173  14.349  0.1544 -0.3990  0.1505
12831TIP3    H159984   2.802   1.230  14.424  0.8354  1.8705 -1.3094
12831TIP3    H259985   2.823   1.234  14.275  0.4350 -2.4559 -1.5961
12832TIP3   OH259986   3.962   0.268   0.260  0.5808 -0.2184 -0.1163
12832TIP3    H159987   3.973   0.173   0.256 -2.0793 -0.5685 -1.6973
12832TIP3    H259988   3.905   0.282   0.336 -0.3795 -0.0856 -0.8478
12833TIP3   OH259989   5.366   3.720   2.398  0.3323 -0.2380 -0.3780
12833TIP3    H159990   5.388   3.722   2.305 -0.3218 -0.9137 -0.5538
12833TIP3    H259991   5.450   3.730   2.443  0.4024  3.1383 -0.9975
12834TIP3   OH259992   6.327   1.052  13.673  0.4167  0.5308  0.1209
12834TIP3    H159993   6.413   1.093  13.668 -0.1053  1.5419 -0.9403
12834TIP3    H259994   6.345   0.958  13.676  1.5754  0.7615  0.9994
12835TIP3   OH259995   4.640   5.312   5.774 -0.5596  0.0516  0.0964
12835TIP3    H159996   4.562   5.275   5.816 -0.9319 -0.4479 -0.9749
12835TIP3    H259997   4.689   5.352   5.845 -1.4251 -0.2839  0.9120
12836TIP3   OH259998   0.429   3.214  13.762  0.2177 -0.1319  0.3677
12836TIP3    H159999   0.360   3.270  13.798  0.9194  2.1496 -1.5861
12836TIP3    H260000   0.505   3.270  13.756  2.0008 -2.2841  1.3592
12837TIP3   OH260001   3.035   0.232  17.513 -0.0095 -0.1118 -0.0511
12837TIP3    H160002   3.099   0.271  17.572 -0.5702 -0.2174  0.6390
12837TIP3    H260003   3.087   0.185  17.449  0.5998 -0.8244  0.9357
12838TIP3   OH260004   0.272   2.656  16.382 -0.1458  0.0153 -0.3905
12838TIP3    H160005   0.238   2.733  16.427 -0.7561  0.9357 -2.2824
12838TIP3    H260006   0.367   2.666  16.386 -0.1852  0.0347  0.7011
12839TIP3   OH260007   5.996   0.719   3.960  0.0391 -0.1304  0.0204
12839TIP3    H160008   6.029   0.801   3.997  0.0903  0.0661 -0.4456
12839TIP3    H260009   6.058   0.698   3.891 -0.2454 -0.3022 -0.1855
12840TIP3   OH260010   2.323   3.011  13.313  0.1784 -0.1938 -0.2719
12840TIP3    H160011   2.247   2.970  13.355  1.2296 -1.1482  0.7741
12840TIP3    H260012   2.325   2.972  13.225 -0.3111 -0.4665 -0.1684
12841TIP3   OH260013   3.910   1.563   0.517 -0.5552 -0.6357  0.3313
12841TIP3    H160014   3.917   1.485   0.462 -1.9239 -0.8630  0.4259
12841TIP3    H260015   3.951   1.539   0.599 -0.3929 -1.0375  0.1356
12842TIP3   OH260016   3.517   3.919   1.094  0.5890 -0.6817  0.0789
12842TIP3    H160017   3.612   3.916   1.086  0.7319  0.9313  0.6406
12842TIP3    H260018   3.502   3.965   1.177 -0.6420  0.8510 -0.9348
12843TIP3   OH260019   4.272   4.407   2.911 -0.5637 -0.4671  0.2161
12843TIP3    H160020   4.263   4.490   2.864 -0.0103 -0.7784 -0.4622
12843TIP3    H260021   4.271   4.340   2.842 -0.9692 -1.0236  0.7545
12844TIP3   OH260022   0.873   0.158   1.929  0.2477  0.3855 -0.2929
12844TIP3    H160023   0.799   0.127   1.877 -0.8032  0.0463  1.3353
12844TIP3    H260024   0.920   0.078   1.954  1.0765  0.5867 -1.1694
12845TIP3   OH260025   6.580   0.914   2.555  0.0149  0.1594 -0.4979
12845TIP3    H160026   6.534   0.994   2.578  0.4716  0.5485 -0.9094
12845TIP3    H260027   6.534   0.845   2.602 -0.8662  0.5609 -0.7598
12846TIP3   OH260028   1.715   4.855  12.034 -0.4038 -0.2724  0.0474
12846TIP3    H160029   1.746   4.945  12.030 -2.2353  0.4527  1.0945
12846TIP3    H260030   1.703   4.838  12.128 -4.1032 -0.0760 -0.2566
12847TIP3   OH260031   1.043   6.649  13.439  0.4286  0.2468 -0.1844
12847TIP3    H160032   1.080   6.719  13.493 -1.1077  0.1663  1.0386
12847TIP3    H260033   1.057   6.678  13.349 -0.5068  2.3372  0.2816
12848TIP3   OH260034   6.653   3.930   5.413 -0.7936  0.0051 -0.6945
12848TIP3    H160035   6.749   3.926   5.417 -0.7745 -5.8551  0.7380
12848TIP3    H260036   6.629   3.986   5.487  1.6400 -2.3350  2.1067
12849TIP3   OH260037   1.181   2.856   0.494  0.0399 -0.2542 -0.5259
12849TIP3    H160038   1.167   2.765   0.471  0.4821 -0.2384 -0.8839
12849TIP3    H260039   1.178   2.903   0.410 -1.3684  0.2299 -0.2315
12850TIP3   OH260040   3.958   0.210   1.955 -0.1314  0.4035  0.3015
12850TIP3    H160041   3.990   0.126   1.922  0.8975  0.9633 -0.1746
12850TIP3    H260042   3.864   0.208   1.939  0.1172  0.0230 -1.2343
12851TIP3   OH260043   3.910   0.857   4.875  0.3358  0.0748 -0.3138
12851TIP3    H160044   3.831   0.809   4.897  0.4418  0.4927  1.0445
12851TIP3    H260045   3.881   0.923   4.811 -0.5195  0.5472  0.5436
12852TIP3   OH260046   1.821   4.405   1.290 -0.4342  0.3659 -0.1187
12852TIP3    H160047   1.783   4.359   1.215 -0.7531 -0.3432  0.4634
12852TIP3    H260048   1.840   4.336   1.354 -1.4312  1.0782  0.9974
12853TIP3   OH260049   0.865   0.067   2.291  0.5646 -0.4698  0.3182
12853TIP3    H160050   0.942   0.117   2.265  0.0225 -0.1231 -0.6688
12853TIP3    H260051   0.883   0.041   2.381  1.3397  0.5776  0.4876
12854TIP3   OH260052   0.857   3.874   2.929  0.5773 -0.0758  0.5350
12854TIP3    H160053   0.947   3.886   2.896  1.2609  0.5596  2.5250
12854TIP3    H260054   0.817   3.961   2.920  0.4938 -0.1064  0.6216
12855TIP3   OH260055   6.238   0.344   3.795  0.2744  0.2253  0.9498
12855TIP3    H160056   6.302   0.272   3.790  0.2162  0.1804  0.8556
12855TIP3    H260057   6.219   0.365   3.704 -2.0358 -1.7002  0.8809
12856TIP3   OH260058   4.812   3.740  12.004 -0.2474  0.0247  0.5849
12856TIP3    H160059   4.789   3.820  11.957 -0.3907 -1.9356 -3.1339
12856TIP3    H260060   4.728   3.702  12.030 -0.4247 -0.3078 -0.3978
12857TIP3   OH260061   3.965   3.835  12.304  0.0085 -0.4568 -0.2825
12857TIP3    H160062   3.940   3.763  12.361 -1.0637  0.5239  0.5285
12857TIP3    H260063   3.945   3.804  12.216 -2.7606 -0.2998  0.2082
12858TIP3   OH260064   0.892   1.210   1.803 -0.3392  0.3366  0.5043
12858TIP3    H160065   0.807   1.174   1.775 -0.2203  0.6420 -0.2728
12858TIP3    H260066   0.898   1.294   1.758 -0.5984  1.3462  2.2587
12859TIP3   OH260067   6.713   2.742  14.432 -0.4627 -0.1898  0.4761
12859TIP3    H160068   6.789   2.721  14.485 -2.9512 -1.9663  3.7605
12859TIP3    H260069   6.700   2.663  14.378  0.4322  0.4622 -0.7374
12860TIP3   OH260070   2.177   3.322   5.121  0.3483  0.2885  0.0346
12860TIP3    H160071   2.112   3.373   5.171 -0.3355 -0.7483  0.2401
12860TIP3    H260072   2.184   3.240   5.169  0.4474 -0.3246 -1.0088
12861TIP3   OH260073   1.354   5.294  12.362  0.0896  0.1028 -0.2450
12861TIP3    H160074   1.417   5.336  12.304 -1.1876  0.4533 -1.4251
12861TIP3    H260075   1.361   5.201  12.344  0.4282  0.1177 -0.1943
12862TIP3   OH260076   4.558   1.322   6.087  0.2343  0.1956 -0.3893
12862TIP3    H160077   4.596   1.325   6.175  1.2556  1.3871 -0.8468
12862TIP3    H260078   4.634   1.323   6.028 -0.4695  1.4814 -1.3134
12863TIP3   OH260079   2.328   1.271  15.858 -0.3138  0.2632  0.3670
12863TIP3    H160080   2.237   1.249  15.880 -0.6273 -1.1645 -1.9887
12863TIP3    H260081   2.380   1.201  15.896 -0.3589  0.2655  0.4327
12864TIP3   OH260082   2.740   5.581  13.861 -0.0170 -0.3323 -0.0070
12864TIP3    H160083   2.690   5.608  13.938 -0.4195  2.2380 -1.0513
12864TIP3    H260084   2.766   5.664  13.820  1.2792 -1.6248 -1.9391
12865TIP3   OH260085   2.183   4.556  12.137  0.1942  0.8683 -0.1031
12865TIP3    H160086   2.213   4.582  12.225 -0.6449 -0.1563  0.5144
12865TIP3    H260087   2.256   4.506  12.101 -0.0737 -0.1062  0.6784
12866TIP3   OH260088   0.302   6.032  16.514  0.1206  0.0918 -0.7647
12866TIP3    H160089   0.350   6.052  16.595 -1.9112  1.7132  0.1057
12866TIP3    H260090   0.290   5.937  16.517 -1.1193  0.2535  1.5917
12867TIP3   OH260091   3.906   4.600  14.669 -0.3483  0.4417  0.3515
12867TIP3    H160092   3.836   4.564  14.724  0.5886 -1.0757  0.6010
12867TIP3    H260093   3.986   4.584  14.718  0.2309  1.8424 -0.0920
12868TIP3   OH260094   4.566   4.038   6.528  0.6356  0.1456 -0.3346
12868TIP3    H160095   4.563   3.955   6.576 -0.7243  0.4398  0.1253
12868TIP3    H260096   4.602   4.014   6.442 -2.1579 -1.4689 -1.1805
12869TIP3   OH260097   3.289   5.337  14.065  0.3114  0.4419 -0.2745
12869TIP3    H160098   3.277   5.304  13.976 -0.1906  1.0508 -0.4366
12869TIP3    H260099   3.363   5.287  14.099  1.2859  1.0389 -1.4433
12870TIP3   OH260100   6.511   4.461   6.318  0.3073  0.3293 -0.2603
12870TIP3    H160101   6.552   4.406   6.385 -1.7324 -1.4808 -0.3874
12870TIP3    H260102   6.433   4.496   6.360 -0.9378 -0.7373 -1.5811
12871TIP3   OH260103   3.124   6.658  16.025  0.2998 -0.0740  0.1128
12871TIP3    H160104   3.205   6.658  15.973  0.2007 -0.5819 -0.0520
12871TIP3    H260105   3.092   6.748  16.021  0.5625  0.0038 -0.2861
12872TIP3   OH260106   5.552   5.368   1.964  0.5309  0.4190  0.0024
12872TIP3    H160107   5.529   5.363   1.871  1.4768  3.0493 -0.4543
12872TIP3    H260108   5.508   5.447   1.996  1.8933  0.7227  1.2390
12873TIP3   OH260109   4.348   6.339  16.698 -0.4548  0.2262  0.0156
12873TIP3    H160110   4.345   6.261  16.755 -1.2982 -0.5472 -1.0389
12873TIP3    H260111   4.399   6.311  16.623 -2.1411  0.1282 -1.1433
12874TIP3   OH260112   1.217   4.090   1.010 -0.2556 -0.4367  0.0989
12874TIP3    H160113   1.233   4.051   1.096 -0.8092 -1.1469 -0.1108
12874TIP3    H260114   1.130   4.130   1.017 -0.4052 -0.7061 -0.2032
12875TIP3   OH260115   3.399   3.173  14.438  0.0147 -0.2124  0.0082
12875TIP3    H160116   3.477   3.119  14.446 -0.6895 -1.4937 -1.2970
12875TIP3    H260117   3.430   3.263  14.450  1.2299 -0.8381  2.1875
12876TIP3   OH260118   2.005   5.050  15.569  0.3813  0.3183 -0.0295
12876TIP3    H160119   2.057   5.071  15.492 -1.1889  1.5439 -0.8139
12876TIP3    H260120   2.040   5.107  15.638  0.8624  0.2477 -0.2133
12877TIP3   OH260121   5.731   1.961   5.643  0.1336  0.4936 -0.1183
12877TIP3    H160122   5.791   1.944   5.570  0.4721 -1.0923  0.4920
12877TIP3    H260123   5.650   1.990   5.600  0.1864 -0.8173 -1.1753
12878TIP3   OH260124   1.730   6.671   1.139 -0.0149  0.4013 -0.0853
12878TIP3    H160125   1.724   6.631   1.225  0.1125  1.2246  0.3235
12878TIP3    H260126   1.816   6.645   1.106 -0.4944 -0.8019 -0.4357
12879TIP3   OH260127   6.271   2.358  13.019 -0.4601  0.0998  0.0243
12879TIP3    H160128   6.315   2.346  13.103  1.0187 -1.5803 -0.9120
12879TIP3    H260129   6.335   2.403  12.964  0.0020 -1.9374 -1.2109
12880TIP3   OH260130   2.696   5.872  15.539 -0.1400  0.3711  0.4857
12880TIP3    H160131   2.783   5.836  15.554  0.5490  1.8862  0.2578
12880TIP3    H260132   2.662   5.822  15.464 -0.0128 -1.0887  1.3617
12881TIP3   OH260133   5.504   3.983   1.385 -0.3411  0.1041  0.2206
12881TIP3    H160134   5.538   4.016   1.302  0.0123 -0.6692  0.0536
12881TIP3    H260135   5.505   4.059   1.444 -2.6429  1.2467 -1.0691
12882TIP3   OH260136   2.241   6.279  14.470 -0.1669 -0.1760  0.4065
12882TIP3    H160137   2.273   6.193  14.500 -0.5973 -0.3558  0.3566
12882TIP3    H260138   2.233   6.269  14.375 -2.1468 -0.7481  0.5959
12883TIP3   OH260139   3.559   5.832  14.546  0.0457  0.6017  0.1641
12883TIP3    H160140   3.512   5.749  14.539  2.6159 -0.9787  0.1618
12883TIP3    H260141   3.624   5.829  14.476 -1.8845  4.2300 -2.0547
12884TIP3   OH260142   3.598   1.466   2.182 -0.3257 -0.0333  0.4775
12884TIP3    H160143   3.626   1.528   2.249  0.9922 -1.2513  1.0779
12884TIP3    H260144   3.654   1.485   2.107  0.9740 -1.3168  1.0941
12885TIP3   OH260145   6.303   0.024  16.966  0.2704 -0.4884  0.3523
12885TIP3    H160146   6.297   0.039  16.871 -0.7381 -0.4133  0.4148
12885TIP3    H260147   6.226   0.069  17.002  0.2607 -1.1200  1.1388
12886TIP3   OH260148   6.066   1.838   4.231  0.6599 -0.1049  0.3756
12886TIP3    H160149   6.044   1.896   4.304  1.3531 -0.4203  0.8492
12886TIP3    H260150   6.062   1.750   4.268  0.7933 -0.2864 -0.0321
12887TIP3   OH260151   2.629   0.676   4.249  0.3336 -0.1382  0.2030
12887TIP3    H160152   2.551   0.647   4.296 -0.6770  1.0868 -0.6547
12887TIP3    H260153   2.606   0.763   4.215  1.9834  0.1440 -0.2882
12888TIP3   OH260154   1.291   5.357   4.965  0.4520  0.0475  0.9807
12888TIP3    H160155   1.242   5.285   4.925  1.0617  1.1989 -2.1612
12888TIP3    H260156   1.317   5.324   5.051  2.5180 -4.4204 -1.0596
12889TIP3   OH260157   4.201   5.434  12.565 -0.1274  0.2213  0.4500
12889TIP3    H160158   4.283   5.434  12.515 -0.1887  0.3109  0.3491
12889TIP3    H260159   4.137   5.398  12.505  0.6159 -3.8555  1.8329
12890TIP3   OH260160   0.762   1.587   0.302  0.5547  0.1587 -0.0580
12890TIP3    H160161   0.692   1.601   0.366  0.7564  0.7311  0.0476
12890TIP3    H260162   0.729   1.626   0.221  0.8089  0.5719  0.0326
12891TIP3   OH260163   2.704   1.239   3.436  0.1562  0.3085  0.0906
12891TIP3    H160164   2.726   1.171   3.499 -0.3878  0.7312  0.7550
12891TIP3    H260165   2.655   1.193   3.368  0.1530 -0.0393  0.3231
12892TIP3   OH260166   0.314   6.534   5.875  0.0838 -0.2683  0.3229
12892TIP3    H160167   0.409   6.533   5.863  0.0678 -0.3506  0.1938
12892TIP3    H260168   0.293   6.449   5.913  0.2989  0.5401  2.3238
12893TIP3   OH260169   5.870   5.395   0.438  0.3699  0.2064 -0.3338
12893TIP3    H160170   5.932   5.355   0.377  0.9159  0.9022 -0.2463
12893TIP3    H260171   5.905   5.373   0.524 -0.9591 -1.6707 -0.1995
12894TIP3   OH260172   5.959   2.797   4.199 -0.1723 -0.1073 -0.2964
12894TIP3    H160173   6.029   2.783   4.136 -1.2669  2.1632 -2.1971
12894TIP3    H260174   5.880   2.768   4.154 -0.7907 -0.0736  0.7347
12895TIP3   OH260175   4.618   5.676  11.846  0.1967 -0.4118 -0.4466
12895TIP3    H160176   4.674   5.658  11.771 -0.5356  0.2037 -1.1582
12895TIP3    H260177   4.548   5.733  11.812 -2.3577 -3.1593 -0.2421
12896TIP3   OH260178   0.906   1.168   4.358  0.2829 -0.1372  0.2179
12896TIP3    H160179   0.816   1.136   4.355  0.6187 -1.1803  0.9557
12896TIP3    H260180   0.903   1.250   4.308 -0.7117 -1.0132 -1.2638
12897TIP3   OH260181   0.339   3.546  11.476 -0.1683 -0.3386  0.6783
12897TIP3    H160182   0.307   3.621  11.427  2.8020  1.9998  2.0242
12897TIP3    H260183   0.336   3.473  11.414  1.5763  2.0103 -2.4288
12898TIP3   OH260184   5.787   0.647  12.016 -0.2073 -0.2984  0.6579
12898TIP3    H160185   5.771   0.560  11.978 -0.9511 -0.7702  1.9863
12898TIP3    H260186   5.701   0.678  12.043  0.1326  0.6091  0.7322
12899TIP3   OH260187   6.610   0.746   2.993  0.3934 -0.6973 -1.3211
12899TIP3    H160188   6.524   0.773   2.963  0.0383 -1.4724 -1.0205
12899TIP3    H260189   6.670   0.773   2.924  0.3492  2.5438 -0.2755
12900TIP3   OH260190   4.016   5.090   4.818 -0.3986  0.4589 -0.1382
12900TIP3    H160191   4.106   5.074   4.788 -1.2325 -2.1173 -1.5004
12900TIP3    H260192   4.023   5.094   4.913  1.3445  2.0510 -0.2588
12901TIP3   OH260193   2.738   3.951  13.881  0.3939  0.0516  0.0348
12901TIP3    H160194   2.773   3.944  13.792 -0.3810 -0.2574 -0.2579
12901TIP3    H260195   2.746   4.044  13.902 -0.9092  0.4260 -1.0062
12902TIP3   OH260196   4.068   2.844  12.936 -0.4672  0.0010 -0.0829
12902TIP3    H160197   4.056   2.937  12.955  1.5622  0.3620 -0.3527
12902TIP3    H260198   4.060   2.800  13.021 -4.2897 -0.0247 -0.2787
12903TIP3   OH260199   1.523   6.627   2.099 -0.1309 -0.1144 -0.1113
12903TIP3    H160200   1.570   6.676   2.167  0.4756 -1.8299  0.7548
12903TIP3    H260201   1.592   6.589   2.045 -0.4528 -2.1709  0.8169
12904TIP3   OH260202   3.652   0.243  15.586  0.0677  0.0480  0.0826
12904TIP3    H160203   3.635   0.194  15.506 -0.8386  1.1885 -0.4460
12904TIP3    H260204   3.706   0.317  15.558  1.1663 -0.4550  0.8187
12905TIP3   OH260205   4.710   0.335  16.886  0.0958  0.2712 -0.0719
12905TIP3    H160206   4.741   0.254  16.846 -0.1921  0.1553 -0.0576
12905TIP3    H260207   4.779   0.399  16.867  0.3790 -0.0057  0.0237
12906TIP3   OH260208   6.259   0.417   0.348 -0.3456  0.1237 -0.7700
12906TIP3    H160209   6.211   0.481   0.400  0.3936  1.1721 -1.3381
12906TIP3    H260210   6.193   0.355   0.318 -1.4034  1.6693 -1.7610
12907TIP3   OH260211   2.218   3.131  12.472 -0.0812 -0.2051 -0.1100
12907TIP3    H160212   2.286   3.081  12.517  0.1874  1.4760  1.5013
12907TIP3    H260213   2.187   3.193  12.538  1.0797  3.1739 -2.4279
12908TIP3   OH260214   1.024   2.842  12.368 -0.5939  0.1626  0.3563
12908TIP3    H160215   1.000   2.776  12.302  1.2938 -2.1552  1.8476
12908TIP3    H260216   1.095   2.892  12.327  1.4443 -2.0767  0.9479
12909TIP3   OH260217   4.234   6.403  15.804  0.4230 -0.3934  0.7287
12909TIP3    H160218   4.230   6.341  15.730 -2.4613  0.9159 -0.3726
12909TIP3    H260219   4.310   6.458  15.785 -0.4227  0.1214 -1.5414
12910TIP3   OH260220   2.960   6.366   6.236 -0.1167 -1.3350  0.5031
12910TIP3    H160221   2.930   6.297   6.176  1.8238 -1.8903  0.1197
12910TIP3    H260222   2.921   6.341   6.320 -2.5522 -0.7575 -0.3632
12911TIP3   OH260223   6.514   0.605  11.882 -0.1124  0.2302 -0.4609
12911TIP3    H160224   6.542   0.514  11.869  1.0876  0.5933 -0.5135
12911TIP3    H260225   6.527   0.646  11.797  1.7187  1.0508  0.1870
12912TIP3   OH260226   0.899   2.637   1.772  0.0514  0.5341  0.4955
12912TIP3    H160227   0.835   2.682   1.827 -0.2678 -1.4424  1.8352
12912TIP3    H260228   0.963   2.600   1.834 -0.8038 -2.5238 -0.2518
12913TIP3   OH260229   5.509   0.301  15.933 -0.0336 -0.0409  0.5302
12913TIP3    H160230   5.555   0.376  15.971 -0.2671  1.0508 -1.2296
12913TIP3    H260231   5.418   0.312  15.963  0.6307 -2.0262  3.7430
12914TIP3   OH260232   5.264   2.899  15.621 -1.1182  0.3652 -0.2250
12914TIP3    H160233   5.195   2.853  15.669 -0.0438 -0.9906  0.0745
12914TIP3    H260234   5.323   2.932  15.688  1.2163 -2.8169 -0.4458
12915TIP3   OH260235   5.452   2.799   5.426 -0.1892 -0.0342 -0.9016
12915TIP3    H160236   5.423   2.890   5.432 -1.2330 -0.4135  0.9907
12915TIP3    H260237   5.524   2.792   5.489  0.2190 -0.4108 -1.3993
12916TIP3   OH260238   2.158   2.011   1.825 -0.7070 -0.2324  0.3225
12916TIP3    H160239   2.098   2.084   1.814  0.4254  0.7478  0.5111
12916TIP3    H260240   2.242   2.043   1.794 -0.5724 -2.1099 -1.4836
12917TIP3   OH260241   4.192   2.876   2.867  0.2094 -0.4014 -1.0836
12917TIP3    H160242   4.141   2.956   2.853  0.9147  0.0086 -1.3327
12917TIP3    H260243   4.257   2.875   2.797  1.0589 -0.5104 -0.3187
12918TIP3   OH260244   1.792   5.623  12.609  0.6062 -0.3216 -0.0593
12918TIP3    H160245   1.772   5.673  12.530  0.3286 -1.6323 -0.8264
12918TIP3    H260246   1.885   5.602  12.602  0.5856 -0.4257 -0.0253
12919TIP3   OH260247   1.147   1.152  13.444 -0.2188 -0.6587  0.3378
12919TIP3    H160248   1.120   1.068  13.482 -1.8413 -0.6194 -0.6032
12919TIP3    H260249   1.133   1.140  13.350  0.1424  0.4611  0.1366
12920TIP3   OH260250   5.321   3.523   3.102 -0.2391 -0.4393 -1.1821
12920TIP3    H160251   5.347   3.432   3.119 -0.8661 -0.5158 -0.6065
12920TIP3    H260252   5.240   3.516   3.053 -1.8583 -0.2357  1.2766
12921TIP3   OH260253   2.424   3.693   0.606 -0.0882  0.2176  0.3461
12921TIP3    H160254   2.394   3.604   0.624  0.0747  0.2146  0.6127
12921TIP3    H260255   2.509   3.699   0.650  1.9113 -0.8298 -2.9250
12922TIP3   OH260256   5.711   6.607  11.971  1.2663  0.4469 -0.2254
12922TIP3    H160257   5.785   6.559  12.007  1.3162  0.0135 -0.8918
12922TIP3    H260258   5.723   6.603  11.876 -0.1370 -0.4992 -0.3977
12923TIP3   OH260259   6.422   0.764   2.263 -0.0916 -0.0461  0.5238
12923TIP3    H160260   6.507   0.793   2.297 -0.1043  1.7978 -0.8521
12923TIP3    H260261   6.421   0.670   2.280  1.9344 -0.0048  1.1959
12924TIP3   OH260262   2.639   2.746   5.359 -0.0889 -0.3039 -0.0316
12924TIP3    H160263   2.553   2.710   5.384 -0.1996  0.6319  1.0314
12924TIP3    H260264   2.637   2.748   5.263 -2.1300  1.6629 -0.0477
12925TIP3   OH260265   1.819   4.797  12.613 -0.6243 -0.1923  0.2785
12925TIP3    H160266   1.820   4.736  12.687  0.2344  0.2262  0.6294
12925TIP3    H260267   1.863   4.750  12.542 -0.7195 -0.2899  0.2835
12926TIP3   OH260268   2.901   3.068  16.424  0.1600 -0.4771  0.0213
12926TIP3    H160269   2.851   3.131  16.372 -1.8028 -1.5231  0.5612
12926TIP3    H260270   2.936   3.120  16.496 -2.1949 -0.0793  0.9679
12927TIP3   OH260271   3.741   1.764  16.474 -0.4646 -0.6664 -0.4489
12927TIP3    H160272   3.794   1.836  16.440 -1.1155  0.7495  1.3901
12927TIP3    H260273   3.788   1.685  16.447  0.6652  0.4369 -1.8733
12928TIP3   OH260274   5.659   2.679   3.792  0.0968 -0.4471  0.0796
12928TIP3    H160275   5.570   2.655   3.818 -0.0883 -0.6659 -0.7018
12928TIP3    H260276   5.647   2.725   3.708  0.7317 -0.6509 -0.1276
12929TIP3   OH260277   6.336   1.096   1.465  0.7417 -0.0544 -0.1593
12929TIP3    H160278   6.246   1.130   1.459  0.2964 -1.2460 -0.4918
12929TIP3    H260279   6.327   1.012   1.509  1.6906 -0.2399 -0.3079
12930TIP3   OH260280   1.019   0.027  12.610  0.2277  0.4226 -0.2792
12930TIP3    H160281   1.008   0.012  12.516  0.2804 -1.5549 -0.0114
12930TIP3    H260282   1.073  -0.046  12.640 -3.2325 -1.5466  1.9791
12931TIP3   OH260283   6.126   1.551  16.268  0.3353 -0.5482  0.7841
12931TIP3    H160284   6.093   1.461  16.275 -0.5900 -0.3366 -0.5247
12931TIP3    H260285   6.122   1.571  16.175  0.4098  0.9133  1.0668
12932TIP3   OH260286   4.243   0.236  16.331  0.1939  0.3671  0.3146
12932TIP3    H160287   4.260   0.142  16.339 -0.2415  0.4162  2.3098
12932TIP3    H260288   4.297   0.264  16.258 -1.0884 -1.7532 -1.5820
12933TIP3   OH260289   5.800   5.609   1.011  0.2810 -0.1564  0.4298
12933TIP3    H160290   5.741   5.585   0.939  1.2311  1.2058 -0.8592
12933TIP3    H260291   5.757   5.683   1.054  0.5805  0.2096  0.1030
12934TIP3   OH260292   5.883   4.320   1.929 -0.1800 -0.0950 -0.1641
12934TIP3    H160293   5.796   4.282   1.919 -0.0530 -0.4917  0.2229
12934TIP3    H260294   5.890   4.343   2.021  0.6494 -1.3978  0.1335
12935TIP3   OH260295   5.964   0.122   5.578 -0.0213 -0.5517 -0.4209
12935TIP3    H160296   5.876   0.129   5.615 -0.3267  0.1499 -1.2577
12935TIP3    H260297   6.022   0.123   5.654 -0.5792  1.7771  0.0442
12936TIP3   OH260298   0.213   6.145  13.679  0.4502 -0.0747 -0.1927
12936TIP3    H160299   0.266   6.224  13.687 -1.8337  1.5549 -0.0360
12936TIP3    H260300   0.182   6.146  13.589  2.3602 -2.2170 -0.9513
12937TIP3   OH260301   2.765   2.323   5.685 -0.0428  0.3517  0.0382
12937TIP3    H160302   2.692   2.372   5.722  0.2993  0.1411  1.0069
12937TIP3    H260303   2.742   2.231   5.698 -0.0419  0.2683 -0.5217
12938TIP3   OH260304   4.266   1.656  16.862 -0.7654  0.2341  0.3966
12938TIP3    H160305   4.247   1.567  16.833 -0.8145  0.4353 -0.2088
12938TIP3    H260306   4.181   1.698  16.871 -0.6986  1.0259 -1.9696
12939TIP3   OH260307   0.592   5.289   1.716  0.3453  0.5793  0.0922
12939TIP3    H160308   0.595   5.382   1.736  2.4133  0.3873  0.9268
12939TIP3    H260309   0.682   5.259   1.726  0.2508 -1.0304 -2.7313
12940TIP3   OH260310   3.723   3.102   4.439  0.1487 -0.4195 -0.1775
12940TIP3    H160311   3.675   3.050   4.374  0.8735 -1.9153  0.4274
12940TIP3    H260312   3.795   3.045   4.466  0.5251  0.6271  1.0996
12941TIP3   OH260313   4.447   1.043   3.448 -0.2305 -0.3930  0.4001
12941TIP3    H160314   4.496   1.074   3.372 -1.2604 -1.1410 -0.6134
12941TIP3    H260315   4.365   1.092   3.445 -0.8500 -1.4019  0.1939
12942TIP3   OH260316   1.265   6.487   1.129 -0.1668 -0.0748  0.4085
12942TIP3    H160317   1.199   6.476   1.061 -0.7065  0.7359  0.7931
12942TIP3    H260318   1.286   6.581   1.128  0.7837 -0.2712  0.4772
12943TIP3   OH260319   3.435   6.396  16.183  0.3374  0.3423  0.5866
12943TIP3    H160320   3.410   6.329  16.119 -1.6906  1.2799  0.2945
12943TIP3    H260321   3.512   6.438  16.144 -1.2315  1.3357 -1.6589
12944TIP3   OH260322   3.965   4.260  16.214 -0.3436 -0.3244 -0.1459
12944TIP3    H160323   3.949   4.179  16.166 -0.2668  0.8292 -2.2588
12944TIP3    H260324   4.060   4.267  16.217 -0.2882 -1.2927  1.8929
12945TIP3   OH260325   0.563   5.504  16.500  0.2387  0.2199 -0.1728
12945TIP3    H160326   0.489   5.444  16.504 -0.1326  0.5061 -1.7992
12945TIP3    H260327   0.636   5.451  16.468  0.0570  0.4837 -1.0549
12946TIP3   OH260328   1.121   4.094  15.111 -0.1159  0.2019 -0.4482
12946TIP3    H160329   1.103   4.021  15.052 -0.6687  1.0444 -1.3600
12946TIP3    H260330   1.211   4.119  15.092 -0.3272  0.5432 -1.0460
12947TIP3   OH260331   6.284   0.215  15.500 -0.4405  0.1771  0.3151
12947TIP3    H160332   6.202   0.256  15.528  0.5464  2.5647 -0.1047
12947TIP3    H260333   6.347   0.287  15.493  1.1299 -1.2449 -1.5436
12948TIP3   OH260334   0.243   1.021  15.109  0.2742  0.3171 -0.0547
12948TIP3    H160335   0.192   1.001  15.187 -1.6724  1.9645 -0.8356
12948TIP3    H260336   0.203   0.968  15.040  2.6468 -1.9574  0.1503
12949TIP3   OH260337   5.737   1.665   1.875 -0.3491 -0.2196 -0.3693
12949TIP3    H160338   5.648   1.691   1.853  0.0219  2.0520  0.5067
12949TIP3    H260339   5.768   1.616   1.798 -1.7406  0.5451 -1.4578
12950TIP3   OH260340   1.840   2.898   0.764 -0.3307 -0.0086 -0.1111
12950TIP3    H160341   1.792   2.829   0.718 -0.5210 -0.0132  0.0936
12950TIP3    H260342   1.788   2.977   0.748 -3.0145 -0.6837  3.8049
12951TIP3   OH260343   3.573   3.674   3.494 -0.0943 -0.1143 -0.0276
12951TIP3    H160344   3.560   3.769   3.496 -0.7500 -0.2051 -0.0078
12951TIP3    H260345   3.589   3.654   3.402  0.8129  0.1124  0.0696
12952TIP3   OH260346   0.951   1.256  14.521  0.1057  0.1526  0.4424
12952TIP3    H160347   0.908   1.200  14.586 -1.5421 -0.1881 -0.8720
12952TIP3    H260348   1.004   1.317  14.573 -0.3933 -0.7243  2.0392
12953TIP3   OH260349   4.817   6.379  14.477  0.2425  0.0521 -0.4667
12953TIP3    H160350   4.850   6.315  14.413  0.3899  0.5543 -0.8962
12953TIP3    H260351   4.829   6.464  14.435  1.4151  0.5000  0.6831
12954TIP3   OH260352   4.391   6.023  15.397  0.0670  0.2714 -0.0731
12954TIP3    H160353   4.424   6.012  15.486  1.9557 -2.4683 -0.9697
12954TIP3    H260354   4.297   6.010  15.404  0.3354 -1.0785  1.3804
12955TIP3   OH260355   2.434   6.658  11.632  0.2358  0.5267  0.1718
12955TIP3    H160356   2.489   6.587  11.666  0.2747  0.5486  0.1549
12955TIP3    H260357   2.365   6.669  11.698 -0.7943 -0.7074 -0.6548
12956TIP3   OH260358   6.598   1.710  11.681  1.0484 -0.7920 -0.9484
12956TIP3    H160359   6.564   1.649  11.615 -0.2593 -0.8623 -0.2387
12956TIP3    H260360   6.529   1.775  11.691  2.5305  1.0177 -1.8756
12957TIP3   OH260361   5.342   0.348   3.587 -0.1005 -0.1414 -0.1367
12957TIP3    H160362   5.359   0.388   3.502 -0.3659  0.6135  0.1580
12957TIP3    H260363   5.412   0.283   3.598  0.0534 -0.0968 -0.8332
12958TIP3   OH260364   2.937   6.423  11.311  0.2717  0.2922  0.9963
12958TIP3    H160365   2.848   6.434  11.346 -0.5608 -1.2955 -0.4548
12958TIP3    H260366   2.983   6.372  11.378 -1.2514 -2.5773  0.0532
12959TIP3   OH260367   2.245   6.043  12.450  0.1031 -0.3402  0.8491
12959TIP3    H160368   2.311   6.013  12.513 -0.5311 -0.9199  1.2478
12959TIP3    H260369   2.225   5.966  12.397 -0.5755 -0.2900  1.0190
12960TIP3   OH260370   2.010   2.205  11.692 -0.2425  0.0308  0.1798
12960TIP3    H160371   2.065   2.249  11.627 -1.1706  1.2635  0.1908
12960TIP3    H260372   2.013   2.113  11.667 -0.1864  0.4080 -1.3227
12961TIP3   OH260373   2.857   3.547  14.965 -0.1934  0.1304 -0.2557
12961TIP3    H160374   2.897   3.563  15.051 -0.0380  0.5556 -0.4054
12961TIP3    H260375   2.891   3.617  14.909 -1.5759  0.8518 -0.2476
12962TIP3   OH260376   2.422   2.787  16.272 -0.1414  0.3442 -0.4699
12962TIP3    H160377   2.504   2.738  16.262 -0.6600 -0.5187 -0.5046
12962TIP3    H260378   2.386   2.758  16.356 -0.0626  1.2702 -0.0922
12963TIP3   OH260379   0.975   2.007   3.575  0.3663  0.2944 -0.0341
12963TIP3    H160380   1.032   2.003   3.498  0.2780 -0.6470 -0.0600
12963TIP3    H260381   0.942   2.097   3.576  2.1144  0.9635  0.1862
12964TIP3   OH260382   5.019   1.340  15.220  0.9318  0.2616 -0.4151
12964TIP3    H160383   5.035   1.250  15.246 -1.0453  0.3131  1.2176
12964TIP3    H260384   4.941   1.336  15.165  0.0123  1.0871  0.7885
12965TIP3   OH260385   3.550   2.179   4.552  0.0829 -0.0995  0.0035
12965TIP3    H160386   3.641   2.208   4.540 -0.0521 -0.3668 -1.9596
12965TIP3    H260387   3.504   2.214   4.476 -0.7619 -2.7222 -0.7711
12966TIP3   OH260388   4.683   2.720   3.571 -0.4752  0.3442  0.1532
12966TIP3    H160389   4.754   2.764   3.524 -2.1758  1.0329 -1.9556
12966TIP3    H260390   4.665   2.641   3.519 -0.6826 -0.2712  1.1409
12967TIP3   OH260391   5.550   5.386   2.691 -0.6829 -0.3342  0.9067
12967TIP3    H160392   5.496   5.353   2.763 -0.3959 -0.4297  1.0819
12967TIP3    H260393   5.608   5.313   2.669 -0.5791 -0.2109  0.7651
12968TIP3   OH260394   3.608   2.489   2.333  0.2032 -0.5281 -0.1790
12968TIP3    H160395   3.612   2.411   2.277 -0.3307 -0.4627 -0.3221
12968TIP3    H260396   3.515   2.496   2.356  0.2325  0.1144 -0.2390
12969TIP3   OH260397   1.799   3.133  17.307 -0.0226 -0.3546  0.5667
12969TIP3    H160398   1.747   3.053  17.300 -0.5796  0.1155 -2.4885
12969TIP3    H260399   1.889   3.106  17.289 -0.0473 -0.4710  0.6249
12970TIP3   OH260400   6.243   3.268  16.730 -0.2569 -0.2689 -0.0157
12970TIP3    H160401   6.155   3.236  16.707 -0.2764 -1.0124  1.0084
12970TIP3    H260402   6.231   3.362  16.744 -0.9625 -0.4094  0.3994
12971TIP3   OH260403   5.702   0.888   6.569 -0.4047 -0.0474 -0.1215
12971TIP3    H160404   5.609   0.893   6.590 -0.7749  2.6506 -1.8840
12971TIP3    H260405   5.746   0.934   6.641 -0.9476  2.5230 -1.3089
12972TIP3   OH260406   2.568   0.444  17.459  0.0089 -0.1097 -0.1008
12972TIP3    H160407   2.616   0.433  17.541 -1.2279  0.7047  0.7783
12972TIP3    H260408   2.479   0.468  17.487 -1.1845 -2.3961 -1.6120
12973TIP3   OH260409   1.591   1.538   0.828 -0.5482 -0.3236 -0.7949
12973TIP3    H160410   1.641   1.587   0.893 -1.9648  1.2685 -0.8456
12973TIP3    H260411   1.595   1.447   0.859 -0.5482  0.2742  1.0892
12974TIP3   OH260412   3.882   6.328  14.013  0.3405 -0.5025 -0.7422
12974TIP3    H160413   3.956   6.366  13.965  1.9670  0.0883  1.9478
12974TIP3    H260414   3.833   6.403  14.046  0.3678 -0.8088  0.0359
12975TIP3   OH260415   0.643   3.175  15.488  0.1625 -0.4877 -0.4525
12975TIP3    H160416   0.679   3.262  15.469  0.6158 -0.9945 -2.1060
12975TIP3    H260417   0.720   3.122  15.511 -0.1770 -0.3422  1.1283
12976TIP3   OH260418   2.590   1.926   2.763  0.1445 -0.8437 -0.3945
12976TIP3    H160419   2.682   1.935   2.736  0.3397 -0.0013  0.5010
12976TIP3    H260420   2.594   1.891   2.852 -0.3657 -0.0282 -0.0372
12977TIP3   OH260421   5.874   0.505   0.060  0.0018  0.4866 -0.6102
12977TIP3    H160422   5.943   0.461   0.010  1.3223  0.7744  0.8631
12977TIP3    H260423   5.922   0.567   0.116 -1.5040  1.0289  0.1213
12978TIP3   OH260424   4.301   4.759  16.891  0.3004 -0.4097 -0.6617
12978TIP3    H160425   4.309   4.676  16.937  0.6003 -1.0750 -1.8513
12978TIP3    H260426   4.382   4.766  16.840  0.5269  0.8843 -0.1702
12979TIP3   OH260427   0.113   3.647   1.153 -0.3355 -0.0151  0.2115
12979TIP3    H160428   0.082   3.604   1.074 -1.0221  0.8156  0.0142
12979TIP3    H260429   0.205   3.620   1.160  0.0467  0.7194 -1.4633
12980TIP3   OH260430   0.073   6.728   5.938 -0.2512 -0.2315  0.2365
12980TIP3    H160431   0.150   6.686   5.901 -0.8130 -1.5202  0.4630
12980TIP3    H260432   0.062   6.809   5.887  1.8446  0.5449  0.9362
12981TIP3   OH260433   4.312   1.716  12.970 -0.1219  0.2137 -0.7614
12981TIP3    H160434   4.258   1.648  13.009  0.0639  0.5496  0.1150
12981TIP3    H260435   4.371   1.743  13.041 -0.2043  1.2855 -1.0850
12982TIP3   OH260436   3.288   1.845  11.905  0.1138 -0.3052  0.3639
12982TIP3    H160437   3.358   1.833  11.969  1.0197 -1.0694 -0.7287
12982TIP3    H260438   3.302   1.932  11.869  1.2622 -0.8976 -0.6926
12983TIP3   OH260439   0.007   2.301   4.933  0.0295 -0.2731 -0.2599
12983TIP3    H160440  -0.064   2.347   4.979  0.4652 -0.6694  0.8223
12983TIP3    H260441   0.012   2.216   4.976  0.6570 -0.5305 -0.8432
12984TIP3   OH260442   5.824   6.288  15.469  0.1475  0.6090 -0.1088
12984TIP3    H160443   5.739   6.258  15.503  0.5163 -0.6868 -0.2765
12984TIP3    H260444   5.856   6.349  15.535  0.9283 -1.9469  2.0591
12985TIP3   OH260445   1.017   0.275  12.388 -0.2183 -0.0112 -0.0436
12985TIP3    H160446   1.058   0.320  12.315  0.5628 -1.4127 -0.4982
12985TIP3    H260447   1.086   0.221  12.425 -1.2592 -1.2790  0.1145
12986TIP3   OH260448   4.052   6.721   1.874  0.1175  0.0050 -0.1789
12986TIP3    H160449   4.145   6.740   1.876  0.3379 -1.0626  0.4493
12986TIP3    H260450   4.032   6.709   1.781  1.2020 -2.4165 -0.1749
12987TIP3   OH260451   5.382   1.207  16.218 -0.7951  0.0963 -0.1892
12987TIP3    H160452   5.422   1.284  16.177 -2.2584 -0.3734 -2.6839
12987TIP3    H260453   5.305   1.242  16.263  0.2741  0.4768  1.4132
12988TIP3   OH260454   2.348   5.073  16.978  0.0748  0.2621  0.2955
12988TIP3    H160455   2.294   5.043  16.904 -1.8173  1.3899  1.1359
12988TIP3    H260456   2.289   5.070  17.053  1.3144  1.2121  1.3464
12989TIP3   OH260457   0.557   0.876  17.333 -0.7202 -0.0804  0.7378
12989TIP3    H160458   0.626   0.905  17.393  0.5638  0.1948 -0.8099
12989TIP3    H260459   0.601   0.815  17.274 -1.8309  0.0324 -0.2344
12990TIP3   OH260460   3.119   0.920  10.772 -0.5923 -0.0733  0.2003
12990TIP3    H160461   3.112   0.835  10.814 -0.6903  0.2116  0.7711
12990TIP3    H260462   3.179   0.970  10.827  0.0891 -0.0293 -0.5664
12991TIP3   OH260463   3.798   2.007   3.010  0.7503  0.6750 -0.1116
12991TIP3    H160464   3.891   2.001   2.988  0.8914 -0.7093  0.7669
12991TIP3    H260465   3.778   1.923   3.052 -1.1372  0.5459 -1.1730
12992TIP3   OH260466   3.179   6.417   3.152 -0.1963  0.6179 -0.2063
12992TIP3    H160467   3.182   6.476   3.226 -1.4160 -0.3708  0.6748
12992TIP3    H260468   3.130   6.341   3.183  1.6155 -1.0489 -1.1686
12993TIP3   OH260469   3.686   1.005  11.799 -0.3684 -0.1048 -0.1222
12993TIP3    H160470   3.762   1.062  11.806  0.0970 -0.5599 -1.2954
12993TIP3    H260471   3.650   1.023  11.712 -1.2470 -0.3357  0.1812
12994TIP3   OH260472   0.184   0.318  13.864  0.0466 -0.4675  0.2348
12994TIP3    H160473   0.271   0.317  13.824  0.3571 -1.4043  0.8969
12994TIP3    H260474   0.198   0.287  13.953 -1.0502 -1.2092  0.1696
12995TIP3   OH260475   1.143   0.955  15.927 -0.3619 -0.1269 -0.2158
12995TIP3    H160476   1.109   0.993  16.008  2.8748  1.5993  0.5259
12995TIP3    H260477   1.172   0.867  15.953 -0.1837  0.0731  0.2818
12996TIP3   OH260478   0.224   0.059   4.100  0.2110  0.2657 -0.2856
12996TIP3    H160479   0.206   0.148   4.070  2.9246  0.9673 -0.1479
12996TIP3    H260480   0.307   0.036   4.058  0.1219 -1.7801  0.5468
12997TIP3   OH260481   6.351   2.691   1.653 -0.6107 -0.5128 -0.5300
12997TIP3    H160482   6.351   2.629   1.579  0.1178 -1.2288  0.0539
12997TIP3    H260483   6.392   2.643   1.724 -1.5705  0.0699  0.4417
12998TIP3   OH260484   1.403   4.575   2.492  0.9240 -0.1092  0.3726
12998TIP3    H160485   1.490   4.609   2.474  0.6743  1.5398  1.9671
12998TIP3    H260486   1.407   4.545   2.583 -0.4226  1.0590  0.8745
12999TIP3   OH260487   0.855   0.413  11.401 -0.2595  0.2846  0.0823
12999TIP3    H160488   0.931   0.362  11.373  0.1832 -0.7865  2.8679
12999TIP3    H260489   0.882   0.452  11.485 -1.9636  1.9359 -0.0582
13000TIP3   OH260490   6.254   0.782   1.338  0.3479  0.6511  0.4983
13000TIP3    H160491   6.167   0.815   1.359 -0.3370 -0.4554 -0.5160
13000TIP3    H260492   6.304   0.794   1.419 -0.8692  0.8755  1.2420
13001TIP3   OH260493   3.457   0.824  14.878  0.3050  0.6492 -0.3167
13001TIP3    H160494   3.377   0.774  14.859  0.9890  0.0551 -1.8602
13001TIP3    H260495   3.427   0.897  14.931 -1.2926  0.4801 -0.9044
13002TIP3   OH260496   5.194   2.694   0.794  0.3838  0.3269 -0.1032
13002TIP3    H160497   5.176   2.784   0.766 -1.0170  0.3001  0.6455
13002TIP3    H260498   5.252   2.704   0.869 -0.3060  0.6521  0.3975
13003TIP3   OH260499   6.402   4.727  12.930  0.1700  0.1071  0.3828
13003TIP3    H160500   6.414   4.815  12.895  1.5008 -0.3738 -0.4685
13003TIP3    H260501   6.333   4.689  12.877 -0.9106  0.8447  1.2134
13004TIP3   OH260502   6.031   5.092   0.826  0.5312 -0.0527 -0.3368
13004TIP3    H160503   5.987   5.096   0.741  1.3047  0.5794 -0.7284
13004TIP3    H260504   6.109   5.039   0.810  0.2198 -0.6694  0.1993
13005TIP3   OH260505   5.625   0.008  15.551  0.2263  0.1338  0.1486
13005TIP3    H160506   5.642  -0.054  15.480  0.2027 -1.5010  1.5124
13005TIP3    H260507   5.702   0.001  15.607 -0.2303  0.5886  0.8417
13006TIP3   OH260508   6.663   5.856   4.949 -0.1328 -0.3213 -0.3290
13006TIP3    H160509   6.576   5.817   4.960  0.6027 -1.7688  0.7074
13006TIP3    H260510   6.654   5.946   4.980 -1.1682 -0.5681  0.1332
13007TIP3   OH260511   0.880   2.212   0.494 -0.2014 -0.1832  0.9495
13007TIP3    H160512   0.786   2.228   0.505 -0.0557 -0.0408  2.1479
13007TIP3    H260513   0.914   2.208   0.583  1.0849  0.6862  0.5342
13008TIP3   OH260514   0.366   5.492  11.902  0.0433  0.8208  0.4992
13008TIP3    H160515   0.293   5.435  11.877  1.2491  0.2319 -1.9942
13008TIP3    H260516   0.416   5.441  11.965  1.0876 -1.0352 -1.6610
13009TIP3   OH260517   0.909   2.833   4.481  0.3687 -0.3691 -0.2243
13009TIP3    H160518   0.901   2.738   4.467 -0.9865 -0.2638 -0.3149
13009TIP3    H260519   0.968   2.841   4.556  1.7276 -1.2127 -1.1646
13010TIP3   OH260520   1.540   2.718  14.482  0.2103 -0.5797  0.2699
13010TIP3    H160521   1.493   2.769  14.416  0.1925 -0.9176  0.0201
13010TIP3    H260522   1.621   2.691  14.438  0.7372  0.1607  0.7560
13011TIP3   OH260523   1.083   3.490  14.627 -0.0361  0.1520 -0.5313
13011TIP3    H160524   1.125   3.484  14.713  1.4714 -2.3860 -1.3548
13011TIP3    H260525   1.154   3.474  14.565 -1.5430 -0.5335 -2.1488
13012TIP3   OH260526   3.927   4.672  11.804 -0.1467 -0.2285 -0.2374
13012TIP3    H160527   3.923   4.758  11.761  0.5966 -0.5032 -0.8543
13012TIP3    H260528   4.011   4.672  11.849 -0.8942  0.0415  1.2217
13013TIP3   OH260529   1.304   5.237  12.757  0.4989  0.0994  0.0383
13013TIP3    H160530   1.212   5.238  12.729  0.5756 -0.7400 -0.2981
13013TIP3    H260531   1.348   5.183  12.691  1.2982  0.7617  0.0210
13014TIP3   OH260532   5.182   6.723  14.239  0.4242  0.5406 -0.3247
13014TIP3    H160533   5.175   6.628  14.231  2.1702  0.1951  1.5598
13014TIP3    H260534   5.097   6.755  14.208 -0.7113 -1.6910  0.2173
13015TIP3   OH260535   1.056   2.930   2.468 -0.2553  0.2114  0.0411
13015TIP3    H160536   0.988   2.995   2.479 -1.5203 -1.0526 -0.0126
13015TIP3    H260537   1.134   2.970   2.507 -0.5671  2.3454 -1.3944
13016TIP3   OH260538   1.571   0.161  15.767  0.7710  0.1002  0.1966
13016TIP3    H160539   1.506   0.101  15.803  0.6683 -0.5662 -1.0532
13016TIP3    H260540   1.609   0.205  15.844  0.1908 -0.8757  1.0580
13017TIP3   OH260541   6.162   2.891  13.787  0.1146  0.2689  0.5350
13017TIP3    H160542   6.212   2.936  13.719 -2.0619  0.8319 -0.7689
13017TIP3    H260543   6.225   2.880  13.859  2.4969 -0.3400 -1.4875
13018TIP3   OH260544   4.434   0.125   5.017 -0.4099 -0.0012 -0.7399
13018TIP3    H160545   4.349   0.083   5.010 -0.6774  0.8170 -4.0591
13018TIP3    H260546   4.487   0.084   4.948  1.6776  0.0840  0.7010
13019TIP3   OH260547   5.727   0.846   2.716  0.3487  0.1392  0.2316
13019TIP3    H160548   5.740   0.777   2.651 -0.1917 -1.3858  1.6780
13019TIP3    H260549   5.636   0.836   2.744  0.2985  1.3662  0.5857
13020TIP3   OH260550   5.512   5.555  16.917 -0.7081 -0.1081  0.0856
13020TIP3    H160551   5.471   5.482  16.962  0.1555 -0.2517  0.6740
13020TIP3    H260552   5.599   5.523  16.893  0.6653  1.4343  2.5290
13021TIP3   OH260553   0.106   6.226  16.507 -0.4240  0.0321  0.2382
13021TIP3    H160554   0.164   6.151  16.515 -0.9955 -0.4211  0.1932
13021TIP3    H260555   0.057   6.210  16.426 -0.9488  0.1631  0.5205
13022TIP3   OH260556   3.117   5.408   0.360 -0.5639  0.3105  0.0199
13022TIP3    H160557   3.149   5.318   0.368 -0.0241  0.5627  0.7724
13022TIP3    H260558   3.193   5.459   0.333 -0.9040  0.5263 -0.5646
13023TIP3   OH260559   5.758   6.236   3.506 -0.2179 -0.1676 -0.3334
13023TIP3    H160560   5.696   6.168   3.480  0.7012 -0.5332 -1.7027
13023TIP3    H260561   5.747   6.245   3.600 -0.3721 -2.2081 -0.1175
13024TIP3   OH260562   0.707   1.238   5.613  0.2355  0.4208 -0.1477
13024TIP3    H160563   0.687   1.297   5.540  1.6125  0.2191 -0.7170
13024TIP3    H260564   0.624   1.194   5.632 -0.1489  0.4735 -1.6078
13025TIP3   OH260565   0.745   5.862   0.362 -0.6496 -0.1370 -0.2476
13025TIP3    H160566   0.678   5.834   0.300 -0.7906  2.7377 -1.5154
13025TIP3    H260567   0.698   5.874   0.444 -0.7835 -2.3095  0.0599
13026TIP3   OH260568   3.336   3.222   5.330  0.0677  0.5996  0.0174
13026TIP3    H160569   3.243   3.234   5.315  0.0041  0.6463  0.4198
13026TIP3    H260570   3.377   3.297   5.286 -0.1789  1.2209  0.8160
13027TIP3   OH260571   1.768   2.099   4.887 -0.4385  0.0469 -0.0134
13027TIP3    H160572   1.775   2.182   4.934 -1.3327 -0.1301  0.4593
13027TIP3    H260573   1.851   2.055   4.904  0.9962  1.7493 -2.0959
13028TIP3   OH260574   5.845   5.954   2.956 -0.0532  0.0241 -0.2045
13028TIP3    H160575   5.900   5.956   3.034 -2.1271 -1.2701  1.3718
13028TIP3    H260576   5.783   6.026   2.968 -1.7411 -1.4586  0.4832
13029TIP3   OH260577   4.605   3.954  12.590 -0.4271 -0.3019  0.0813
13029TIP3    H160578   4.582   4.044  12.565 -0.3482  0.1283  1.4207
13029TIP3    H260579   4.521   3.907  12.591 -0.5097 -0.1664 -0.3319
13030TIP3   OH260580   3.088   5.608  13.415  0.1135  0.3630  0.4846
13030TIP3    H160581   3.103   5.660  13.493 -1.4803  1.5694  0.0467
13030TIP3    H260582   3.120   5.521  13.437  1.1684  1.0663  1.8816
13031TIP3   OH260583   4.169   3.683   1.764 -0.0912  0.2516 -0.1383
13031TIP3    H160584   4.188   3.612   1.703  0.1690 -0.3520  0.6233
13031TIP3    H260585   4.227   3.666   1.839  0.9614  2.0252 -0.5041
13032TIP3   OH260586   1.281   6.723  13.639  0.6958  0.3041 -0.4611
13032TIP3    H160587   1.336   6.770  13.576 -0.6485 -0.0580 -1.9673
13032TIP3    H260588   1.342   6.667  13.686  2.0195  1.9614 -0.0909
13033TIP3   OH260589   2.029   4.667   3.849  0.0791  0.3109  0.3599
13033TIP3    H160590   2.052   4.736   3.787 -0.3784 -1.4349 -1.8807
13033TIP3    H260591   1.939   4.687   3.875 -0.3309  0.1423 -0.8932
13034TIP3   OH260592   6.341   4.334   3.586 -0.3107 -0.3406  0.4582
13034TIP3    H160593   6.332   4.265   3.652 -1.5808 -1.1033 -0.4503
13034TIP3    H260594   6.413   4.305   3.530 -1.4073 -1.4170 -0.4381
13035TIP3   OH260595   2.002   1.023   4.676 -0.0722 -0.0458 -0.2102
13035TIP3    H160596   2.012   1.066   4.761  0.6521  1.2504 -0.9260
13035TIP3    H260597   1.950   0.944   4.695 -1.4767  1.1390  1.1534
13036TIP3   OH260598   2.723   5.624   3.724  0.1760  0.1923  0.6288
13036TIP3    H160599   2.745   5.641   3.816 -0.4298  2.1827  0.4557
13036TIP3    H260600   2.698   5.709   3.689  1.2356 -0.3542 -1.6524
13037TIP3   OH260601   2.273   5.636   1.933 -0.4478 -0.5073  0.1551
13037TIP3    H160602   2.278   5.724   1.972 -1.0342 -0.1947 -0.4541
13037TIP3    H260603   2.363   5.604   1.935 -0.5020 -0.6764  2.1487
13038TIP3   OH260604   3.551   0.409  13.002  0.0202  0.1735  0.6391
13038TIP3    H160605   3.549   0.443  13.092 -0.1901  2.4579 -0.1816
13038TIP3    H260606   3.613   0.465  12.956 -1.7195  0.6760 -1.2474
13039TIP3   OH260607   0.513   5.585   0.494  0.4694  0.3076  0.0714
13039TIP3    H160608   0.456   5.537   0.554  1.1378 -1.3845 -0.5753
13039TIP3    H260609   0.469   5.669   0.481 -0.4771  0.1018  1.6744
13040TIP3   OH260610   2.786   3.263  16.719 -0.2027 -0.1045 -0.0191
13040TIP3    H160611   2.801   3.312  16.800  0.2613 -1.0736  0.4900
13040TIP3    H260612   2.757   3.177  16.748 -1.0219 -0.1496 -0.9081
13041TIP3   OH260613   5.605   6.346   0.998  0.2388 -0.0335 -0.0421
13041TIP3    H160614   5.517   6.309   1.001 -0.1910  1.0110  0.6147
13041TIP3    H260615   5.617   6.372   0.906 -0.4053  0.4294  0.0002
13042TIP3   OH260616   1.613   3.874  15.545  0.3466 -0.1679  0.1143
13042TIP3    H160617   1.672   3.910  15.611  0.5790 -1.4174  0.6258
13042TIP3    H260618   1.671   3.829  15.483 -0.0010 -0.5724  0.0804
13043TIP3   OH260619   3.473   4.411   5.481 -0.2123 -0.0096  0.6158
13043TIP3    H160620   3.422   4.462   5.417  0.6372  1.0306  0.7365
13043TIP3    H260621   3.564   4.425   5.456  0.0443 -1.9545  0.3229
13044TIP3   OH260622   0.942   2.579   0.540 -0.0951 -0.3413  0.0329
13044TIP3    H160623   0.975   2.534   0.618  0.2839  0.0829  0.1247
13044TIP3    H260624   1.020   2.590   0.485 -0.4819 -1.2811 -0.7353
13045TIP3   OH260625   1.260   4.511  13.669 -0.2170  0.6813  0.1306
13045TIP3    H160626   1.258   4.440  13.733  0.9137  1.1528  0.7217
13045TIP3    H260627   1.238   4.590  13.719  2.0284  1.2689  0.3003
13046TIP3   OH260628   6.697   1.059  12.681  0.2007  0.0884 -0.2401
13046TIP3    H160629   6.629   1.126  12.688  0.1152  0.1728 -1.6302
13046TIP3    H260630   6.688   1.026  12.591  1.0504 -0.9158  0.0348
13047TIP3   OH260631   2.024   6.643   5.189 -0.0468 -0.3247  0.2415
13047TIP3    H160632   2.076   6.722   5.172  1.0378 -0.6669  1.8317
13047TIP3    H260633   2.069   6.599   5.260 -0.7773 -2.2820 -0.4494
13048TIP3   OH260634   1.003   4.125   4.658 -0.1260  0.2201 -0.1577
13048TIP3    H160635   0.914   4.123   4.693 -0.2175  1.3640 -0.2925
13048TIP3    H260636   0.995   4.089   4.570 -0.1862 -1.0651  0.3514
13049TIP3   OH260637   1.854   6.395  12.194 -0.0105  0.6591 -0.2643
13049TIP3    H160638   1.844   6.379  12.288  2.8513 -0.3306 -0.0175
13049TIP3    H260639   1.829   6.312  12.153  1.6888  0.0327 -0.0881
13050TIP3   OH260640   6.417   5.219  16.544 -0.4509 -0.3183 -0.1006
13050TIP3    H160641   6.398   5.189  16.455  1.8818 -0.5000 -0.6233
13050TIP3    H260642   6.353   5.176  16.599 -3.1435  1.1969 -1.8345
13051TIP3   OH260643   0.886   3.227  15.062  0.2266  0.0817 -0.5098
13051TIP3    H160644   0.972   3.197  15.091 -0.1310  0.2079  0.7786
13051TIP3    H260645   0.904   3.285  14.989  1.3025  0.6252  0.1577
13052TIP3   OH260646   3.694   2.973  11.255 -0.3589 -0.7203 -0.7765
13052TIP3    H160647   3.775   2.922  11.254  0.6674  0.6649  1.7969
13052TIP3    H260648   3.662   2.968  11.165  2.4439 -1.5513 -1.8512
13053TIP3   OH260649   2.726   2.397  11.400  0.1521 -0.1954 -0.1765
13053TIP3    H160650   2.758   2.477  11.358 -1.7272  0.4225 -0.5256
13053TIP3    H260651   2.702   2.340  11.327 -0.1130 -0.3977  0.0668
13054TIP3   OH260652   1.325   1.125  10.906  0.6940  0.3130  0.4045
13054TIP3    H160653   1.235   1.155  10.892  0.2307 -1.0618  0.2790
13054TIP3    H260654   1.327   1.093  10.996  1.5599  1.9285  1.0059
13055TIP3   OH260655   6.082   5.383  11.989 -0.3038  0.5136 -0.2086
13055TIP3    H160656   6.026   5.391  11.912 -0.8085 -1.7598 -0.1693
13055TIP3    H260657   6.054   5.301  12.030  2.6990 -0.4887  0.0845
13056TIP3   OH260658   4.076   6.264   3.532  0.4577  0.0304  0.0811
13056TIP3    H160659   4.030   6.223   3.605 -0.5869  2.5473  0.9337
13056TIP3    H260660   4.034   6.228   3.454 -1.1582  0.2425  0.8132
13057TIP3   OH260661   6.075   0.380   2.555 -0.3079 -1.0099  0.0638
13057TIP3    H160662   5.997   0.427   2.584 -1.0089 -1.1947 -1.4048
13057TIP3    H260663   6.053   0.287   2.567  0.0734 -1.0387  0.5601
13058TIP3   OH260664   4.564   0.649   1.516  0.4405 -0.2529 -0.4931
13058TIP3    H160665   4.657   0.650   1.495  0.8372 -0.0079  1.1754
13058TIP3    H260666   4.553   0.576   1.576 -0.1760  0.5812  0.4433
13059TIP3   OH260667   5.541   2.201  17.053  0.0627 -0.0005 -0.2333
13059TIP3    H160668   5.622   2.209  17.003  0.9584 -1.4087  0.9022
13059TIP3    H260669   5.511   2.291  17.064  3.2558  0.9519  2.1249
13060TIP3   OH260670   5.514   6.500   5.205 -0.2340  0.0705 -0.0998
13060TIP3    H160671   5.567   6.451   5.143 -0.2361 -0.1410  0.0666
13060TIP3    H260672   5.576   6.529   5.272 -0.3254 -0.1696  0.0907
13061TIP3   OH260673   3.489   1.576  14.332 -0.9453  0.0183  0.1982
13061TIP3    H160674   3.581   1.568  14.357 -1.3807  1.2055  2.4101
13061TIP3    H260675   3.481   1.520  14.255  1.4807 -0.5812  0.2829
13062TIP3   OH260676   2.061   5.586  14.136  0.3894 -0.1801  0.2462
13062TIP3    H160677   2.105   5.532  14.201  0.6070 -0.0631  0.1987
13062TIP3    H260678   1.985   5.622  14.182 -0.5897 -1.6853 -0.1464
13063TIP3   OH260679   4.950   2.609   1.288  0.1590  0.2363 -0.0801
13063TIP3    H160680   4.862   2.570   1.279 -0.0671  0.8305 -0.4925
13063TIP3    H260681   4.981   2.617   1.198  0.8344 -0.3979  0.0894
13064TIP3   OH260682   0.547   3.970   4.710  0.2032  0.5392 -0.2901
13064TIP3    H160683   0.559   3.992   4.618 -1.9472  1.1131 -0.4989
13064TIP3    H260684   0.574   3.878   4.717  0.1309  0.4016 -1.5506
13065TIP3   OH260685   1.422   6.071   1.720  0.3843 -0.1396 -0.0172
13065TIP3    H160686   1.379   6.032   1.795  0.1929  0.0081 -0.0510
13065TIP3    H260687   1.515   6.069   1.742  0.3560 -0.4102  0.0760
13066TIP3   OH260688   2.351   5.467  15.915  0.1540 -0.2370 -0.0361
13066TIP3    H160689   2.371   5.548  15.963 -0.6331  0.1578 -0.3516
13066TIP3    H260690   2.403   5.472  15.835  0.0983 -0.0376 -0.0604
13067TIP3   OH260691   0.970   6.467  17.309 -0.4727 -0.4202 -0.1385
13067TIP3    H160692   0.898   6.421  17.267 -0.7324 -2.1345  2.0167
13067TIP3    H260693   1.041   6.403  17.312 -0.0842  0.0458  0.9692
13068TIP3   OH260694   2.095   4.568  17.369 -0.1608 -0.2147  0.2162
13068TIP3    H160695   2.103   4.501  17.301  0.2178  1.1317 -1.1378
13068TIP3    H260696   2.033   4.631  17.333  0.9136  1.1041  0.6004
13069TIP3   OH260697   6.321   1.813  16.822 -0.0758  0.2587 -0.0182
13069TIP3    H160698   6.254   1.870  16.785 -1.0177 -0.0684  1.1248
13069TIP3    H260699   6.309   1.729  16.778 -1.6111 -0.3169  1.3971
13070TIP3   OH260700   3.438   0.854   6.395 -0.1347  0.1698 -0.1593
13070TIP3    H160701   3.342   0.856   6.404 -0.1430  1.3725 -0.3453
13070TIP3    H260702   3.453   0.804   6.314 -0.5834 -0.3195  0.0510
13071TIP3   OH260703   3.853   4.061  13.685  0.0497 -0.2318 -0.4464
13071TIP3    H160704   3.930   4.091  13.734 -0.1220  1.6153 -1.2296
13071TIP3    H260705   3.852   4.115  13.606 -1.1492 -1.3535 -1.2367
13072TIP3   OH260706   4.776   1.334   5.168 -0.1133  0.4682  0.0176
13072TIP3    H160707   4.786   1.408   5.227 -0.1164 -0.9503  1.9011
13072TIP3    H260708   4.815   1.363   5.086 -1.6079  3.1036  0.1547
13073TIP3   OH260709   0.328   1.626   5.169 -0.1329  0.6536  0.5415
13073TIP3    H160710   0.282   1.694   5.120  0.8244  0.8647 -0.1067
13073TIP3    H260711   0.381   1.675   5.232 -1.4979  0.3736  1.9414
13074TIP3   OH260712   0.587   4.695  13.902  0.6369  0.1355  0.1112
13074TIP3    H160713   0.594   4.734  13.815  0.7168 -2.3749 -1.1035
13074TIP3    H260714   0.572   4.769  13.961 -1.2197  1.7812 -2.2336
13075TIP3   OH260715   3.862   2.379  12.177  0.5590 -0.9735 -0.3633
13075TIP3    H160716   3.915   2.315  12.129  2.9480  0.4475  0.1591
13075TIP3    H260717   3.926   2.428  12.229 -1.2710  1.1197  0.0802
13076TIP3   OH260718   1.569   3.052  12.788 -0.6308  0.4859  0.2515
13076TIP3    H160719   1.529   2.988  12.847 -1.1897  1.2638  0.7380
13076TIP3    H260720   1.563   3.135  12.835  0.5742  0.8137 -0.1437
13077TIP3   OH260721   1.349   1.871  13.679  0.6007  0.5415  0.1844
13077TIP3    H160722   1.410   1.797  13.689  2.5969  2.0103 -0.4944
13077TIP3    H260723   1.281   1.838  13.621  0.3993 -1.3339  1.3853
13078TIP3   OH260724   4.818   2.475   0.375 -0.4375  0.8876  0.1877
13078TIP3    H160725   4.823   2.456   0.281  0.5177  0.0816  0.3861
13078TIP3    H260726   4.772   2.559   0.380 -1.9666  0.1617 -0.9073
13079TIP3   OH260727   4.934   3.606   0.502  0.4814  0.0881  0.2982
13079TIP3    H160728   4.863   3.656   0.543 -0.5869 -0.4253 -0.8613
13079TIP3    H260729   4.975   3.558   0.574 -0.1412  0.6287  1.0321
13080TIP3   OH260730   3.542   0.518  14.832 -0.1314 -0.0432  0.1664
13080TIP3    H160731   3.622   0.569  14.839  0.4558 -1.1418  1.7977
13080TIP3    H260732   3.489   0.546  14.907 -0.1443 -1.1916  0.6098
13081TIP3   OH260733   2.668   0.093  10.928 -0.1562  0.0926 -0.1518
13081TIP3    H160734   2.749   0.132  10.895 -0.0999  0.9907  0.9786
13081TIP3    H260735   2.610   0.091  10.852  0.6191  0.2759 -0.7624
13082TIP3   OH260736   1.392   3.471   5.314 -0.1751 -0.6921  0.1312
13082TIP3    H160737   1.319   3.474   5.251  0.1288  2.5148 -0.2270
13082TIP3    H260738   1.350   3.449   5.397 -1.2862 -0.6697 -0.4019
13083TIP3   OH260739   6.755   5.381  17.449 -1.0032 -0.1733  0.5518
13083TIP3    H160740   6.797   5.399  17.365 -0.3430  1.1809  1.1339
13083TIP3    H260741   6.818   5.326  17.495 -0.9626 -0.1763  0.4920
13084TIP3   OH260742   6.692   5.593   6.500 -0.0956 -0.1594 -0.5053
13084TIP3    H160743   6.644   5.666   6.540 -0.0015 -0.1214 -0.4613
13084TIP3    H260744   6.624   5.539   6.460 -0.2664 -0.5997  0.3591
13085TIP3   OH260745   5.503   4.667  14.814  0.3906 -0.4268  0.1896
13085TIP3    H160746   5.502   4.679  14.909 -2.2156  2.1985 -0.0209
13085TIP3    H260747   5.532   4.751  14.779  2.9597 -1.8643 -1.4036
13086TIP3   OH260748   3.281   3.938  12.110 -0.1200 -0.2334  0.3330
13086TIP3    H160749   3.354   3.883  12.081 -0.6984 -1.2958  0.8396
13086TIP3    H260750   3.297   3.952  12.203 -1.2538 -1.6548  0.7881
13087TIP3   OH260751   3.130   3.306   5.693 -0.1101  0.0050 -0.1778
13087TIP3    H160752   3.089   3.255   5.623  0.7179 -0.2782 -0.4677
13087TIP3    H260753   3.060   3.362   5.726 -0.7920 -0.6453 -0.4912
13088TIP3   OH260754   3.682   2.085   5.920 -0.3231 -0.7582  0.3511
13088TIP3    H160755   3.712   2.065   6.008 -0.9248 -0.3798  0.6507
13088TIP3    H260756   3.586   2.076   5.925 -0.3933 -0.3323 -0.1561
13089TIP3   OH260757   1.492   3.364   4.860  0.9111 -0.2281  1.1527
13089TIP3    H160758   1.529   3.334   4.944 -0.5163  0.8455  2.2137
13089TIP3    H260759   1.457   3.451   4.879  0.4798  0.0073 -0.5607
13090TIP3   OH260760   1.169   0.547  16.245 -0.0395 -0.1817 -0.1610
13090TIP3    H160761   1.218   0.594  16.314  1.8401 -1.4149 -0.5743
13090TIP3    H260762   1.236   0.494  16.202 -1.3398 -0.0558 -2.4306
13091TIP3   OH260763   3.035   4.672   0.838  0.5208 -0.1022  0.3894
13091TIP3    H160764   3.124   4.664   0.803  0.9643  0.8323  1.2660
13091TIP3    H260765   3.004   4.582   0.845  0.7937 -0.3771 -1.4061
13092TIP3   OH260766   3.387   5.026   2.420 -0.1323 -0.5066  0.5434
13092TIP3    H160767   3.368   5.115   2.452  1.0503  0.2812 -0.8466
13092TIP3    H260768   3.347   5.022   2.334 -2.2302 -2.2029  1.4827
13093TIP3   OH260769   0.086   1.983  14.055 -0.4318 -0.1913  0.7430
13093TIP3    H160770   0.133   1.903  14.032  0.9346  1.4108 -2.5741
13093TIP3    H260771  -0.005   1.965  14.031  0.4769  0.4409 -4.2386
13094TIP3   OH260772   4.057   5.662  16.453  0.0193  0.3553  0.4905
13094TIP3    H160773   3.988   5.617  16.404 -0.6437 -0.3582  2.0134
13094TIP3    H260774   4.057   5.751  16.419 -0.0232 -0.2605 -1.1818
13095TIP3   OH260775   6.154   0.799  11.405 -0.0917  0.4609  0.2777
13095TIP3    H160776   6.205   0.761  11.334 -0.0501 -0.3170  0.7171
13095TIP3    H260777   6.209   0.871  11.437  2.4615 -2.4152  3.0062
13096TIP3   OH260778   5.004   0.859   0.650 -0.2347 -0.3524  0.3198
13096TIP3    H160779   4.936   0.924   0.666  2.6788  2.6349  1.8891
13096TIP3    H260780   5.053   0.855   0.732  0.9237 -3.1082 -0.4016
13097TIP3   OH260781   4.367   4.771   4.287  0.1082 -0.1066  0.4971
13097TIP3    H160782   4.276   4.743   4.289  0.2023 -0.3720  1.2462
13097TIP3    H260783   4.365   4.856   4.242 -0.8693  1.1600  2.7445
13098TIP3   OH260784   2.785   5.621   6.463 -0.3749 -0.2489 -0.1676
13098TIP3    H160785   2.709   5.676   6.480  0.2666  0.4715  0.4463
13098TIP3    H260786   2.781   5.553   6.530 -0.1362  0.1587  0.2646
13099TIP3   OH260787   3.396   1.342  16.450 -0.7794  0.1747  0.3795
13099TIP3    H160788   3.429   1.410  16.508 -0.1192 -1.2689  1.7497
13099TIP3    H260789   3.315   1.312  16.491 -0.9205 -0.0635 -0.0636
13100TIP3   OH260790   4.151   0.106   3.105 -0.1287  0.3802 -0.7227
13100TIP3    H160791   4.058   0.095   3.124 -0.2235  1.6183 -0.3533
13100TIP3    H260792   4.190   0.021   3.122 -1.2318 -0.2106 -1.0977
13101TIP3   OH260793   3.388   1.842   4.186 -0.1266 -0.0942 -0.1433
13101TIP3    H160794   3.471   1.862   4.143  0.2865  0.4537  0.8576
13101TIP3    H260795   3.394   1.748   4.206 -0.4087 -0.3982 -1.4106
13102TIP3   OH260796   2.526   1.632  17.494  0.3794  0.1528  0.3719
13102TIP3    H160797   2.445   1.683  17.502  1.0508  1.0107  1.9614
13102TIP3    H260798   2.572   1.672  17.420 -1.1989 -1.2159 -1.4836
13103TIP3   OH260799   4.586   4.045  15.394 -0.4725 -0.1783 -0.8108
13103TIP3    H160800   4.676   4.056  15.362  0.2401 -2.3078  0.3048
13103TIP3    H260801   4.589   4.079  15.484 -0.1183 -2.3398  0.0561
13104TIP3   OH260802   2.323   4.392   4.704  0.2596  0.2189 -0.2050
13104TIP3    H160803   2.366   4.324   4.652  0.1503 -1.5670  1.8786
13104TIP3    H260804   2.232   4.363   4.711  0.2402  0.4859  0.8327
13105TIP3   OH260805   5.191   4.090   3.314  0.6964  0.0728  0.2257
13105TIP3    H160806   5.277   4.113   3.349 -0.5916  3.4174  1.6988
13105TIP3    H260807   5.179   4.149   3.239 -0.2996 -0.3417  0.0453
13106TIP3   OH260808   4.364   1.604   5.307  0.2791  0.0788 -0.0699
13106TIP3    H160809   4.450   1.603   5.264 -0.4533 -1.1802 -1.5853
13106TIP3    H260810   4.369   1.533   5.371  0.6110  0.5213  0.4109
13107TIP3   OH260811   6.094   1.475  14.520 -0.3742  0.1936 -0.1397
13107TIP3    H160812   6.009   1.465  14.478  0.4163 -0.3658 -1.6676
13107TIP3    H260813   6.111   1.391  14.562  0.2311 -0.3545 -1.4325
13108TIP3   OH260814   2.132   5.914  14.816  0.5377 -0.4832  0.0976
13108TIP3    H160815   2.098   5.982  14.875 -1.4202 -0.6772 -0.7329
13108TIP3    H260816   2.149   5.839  14.874  1.8435  0.3750  0.8785
13109TIP3   OH260817   5.399   0.283  11.767  0.7771 -0.4346 -0.3852
13109TIP3    H160818   5.470   0.219  11.766 -1.5072 -3.2075 -0.4207
13109TIP3    H260819   5.387   0.307  11.675  0.6246 -1.2451 -0.5855
13110TIP3   OH260820   1.783   3.523  13.061  0.4321 -0.5068  0.3978
13110TIP3    H160821   1.696   3.557  13.079 -0.6946 -2.0349 -1.6893
13110TIP3    H260822   1.825   3.591  13.009  0.6447  0.3547  1.6428
13111TIP3   OH260823   0.557   5.868   1.160  0.1159  0.2338 -0.1524
13111TIP3    H160824   0.604   5.874   1.077 -0.2391 -0.5954 -0.4268
13111TIP3    H260825   0.579   5.782   1.194 -0.6913  0.0833  0.0165
13112TIP3   OH260826   3.906   4.257   3.685 -0.0138 -0.5226  0.0870
13112TIP3    H160827   3.975   4.284   3.744  0.5425  1.6803 -1.4434
13112TIP3    H260828   3.835   4.320   3.700 -1.0456 -1.7060  0.4146
13113TIP3   OH260829   5.144   2.431   0.768  0.3350  0.6954  0.5762
13113TIP3    H160830   5.158   2.524   0.783  1.1766  0.6631  0.0469
13113TIP3    H260831   5.050   2.418   0.780  0.2504  1.5669  0.8767
13114TIP3   OH260832   0.469   5.507   3.508 -0.3061  0.1896  0.0884
13114TIP3    H160833   0.497   5.575   3.569  1.3475 -0.2748 -0.1141
13114TIP3    H260834   0.459   5.552   3.425  1.0379  0.1668 -0.1044
13115TIP3   OH260835   3.489   0.472   6.768 -0.5681 -0.2415  0.1608
13115TIP3    H160836   3.480   0.387   6.725 -1.4413 -0.8748  1.5022
13115TIP3    H260837   3.400   0.493   6.798 -0.3294  1.0580  0.0450
13116TIP3   OH260838   1.112   4.716   3.412  0.4950 -0.0361  0.1681
13116TIP3    H160839   1.171   4.790   3.398 -1.3923  1.7924  1.4662
13116TIP3    H260840   1.031   4.755   3.444 -1.3817 -2.4827 -1.3154
13117TIP3   OH260841   1.226   5.284   4.251  0.5382  0.2515  0.4173
13117TIP3    H160842   1.221   5.355   4.187  1.2598 -0.4569 -0.4507
13117TIP3    H260843   1.292   5.314   4.315 -0.7379  1.2940  1.2987
13118TIP3   OH260844   2.275   2.086  13.958  0.0712 -0.6952 -0.5176
13118TIP3    H160845   2.363   2.052  13.976 -0.3110 -0.1689  3.0226
13118TIP3    H260846   2.291   2.174  13.922  1.0920  0.2157  1.9737
13119TIP3   OH260847   3.291   6.031   2.723  0.4139  0.6356  0.2352
13119TIP3    H160848   3.386   6.036   2.731  0.6473 -1.3397 -0.5169
13119TIP3    H260849   3.261   5.995   2.807  0.6498 -1.0799 -0.3692
13120TIP3   OH260850   0.124   0.770   1.477  0.2567 -0.0713 -0.3830
13120TIP3    H160851   0.109   0.792   1.385 -1.0335 -1.1989 -0.4764
13120TIP3    H260852   0.219   0.770   1.487  0.4272 -0.2707 -1.8133
13121TIP3   OH260853   3.042   6.651  16.442  0.7016  0.2680  0.3186
13121TIP3    H160854   3.102   6.619  16.509 -1.0083 -0.6018  1.5121
13121TIP3    H260855   2.969   6.588  16.443 -0.0642  1.0597 -1.3332
13122TIP3   OH260856   1.382   3.777  16.664  0.3178 -0.2429 -0.2615
13122TIP3    H160857   1.418   3.860  16.633  0.3130 -0.4486 -0.8363
13122TIP3    H260858   1.374   3.788  16.759 -0.7225  0.8218 -0.4489
13123TIP3   OH260859   2.437   3.792  11.828 -0.3807 -0.1416 -0.3832
13123TIP3    H160860   2.438   3.703  11.793 -0.2641  0.9220 -3.3577
13123TIP3    H260861   2.529   3.815  11.838 -0.4104 -0.3110  0.3439
13124TIP3   OH260862   4.542   2.050  17.110 -0.7810 -0.2362  0.0332
13124TIP3    H160863   4.506   2.078  17.026  2.0221  1.4475 -0.7602
13124TIP3    H260864   4.583   1.965  17.091  2.3044  1.3684 -1.2299
13125TIP3   OH260865   1.813   1.665  14.593 -0.3642  0.4274 -0.5708
13125TIP3    H160866   1.727   1.706  14.598 -0.8400 -0.5123 -0.8052
13125TIP3    H260867   1.873   1.737  14.571 -0.7154  1.5429  1.7775
13126TIP3   OH260868   4.613   0.558  15.278  0.5815  0.1943 -0.1692
13126TIP3    H160869   4.541   0.610  15.243  0.7464  0.4681 -0.1032
13126TIP3    H260870   4.668   0.539  15.201  0.7816  0.5381 -0.1155
13127TIP3   OH260871   6.653   1.118   5.087  0.2416  0.0125  0.2741
13127TIP3    H160872   6.692   1.186   5.143  0.9035 -0.1090 -0.0301
13127TIP3    H260873   6.708   1.117   5.009 -1.4207  1.0762 -0.9857
13128TIP3   OH260874   1.063   0.412  17.364  0.0757 -0.6793 -0.5539
13128TIP3    H160875   0.984   0.467  17.357 -0.0222 -0.9398 -1.8367
13128TIP3    H260876   1.075   0.398  17.458 -1.8582 -1.2428 -0.3361
13129TIP3   OH260877   0.039   4.252   4.787  0.9724 -0.2353 -0.0320
13129TIP3    H160878   0.021   4.212   4.702  0.3640 -2.9271  1.2820
13129TIP3    H260879   0.134   4.261   4.789  1.0378 -0.6351 -0.7813
13130TIP3   OH260880   4.953   2.708   3.878  0.3266 -0.0783  0.0494
13130TIP3    H160881   4.891   2.648   3.837  0.0204 -0.7759  1.4993
13130TIP3    H260882   4.976   2.769   3.808  0.1747 -1.4960 -1.2980
13131TIP3   OH260883   3.866   2.704   5.842  0.6380 -0.2156  0.0168
13131TIP3    H160884   3.934   2.691   5.908 -0.3139  0.1688  1.0989
13131TIP3    H260885   3.884   2.638   5.776  0.2830 -2.1634  1.7675
13132TIP3   OH260886   2.804   0.086  11.779 -0.1927 -0.1726 -0.0960
13132TIP3    H160887   2.811   0.165  11.832 -0.1907  0.5858 -1.1952
13132TIP3    H260888   2.758   0.023  11.836 -0.6213  0.7680  0.6278
13133TIP3   OH260889   2.257   3.443   1.439  0.8111  0.9090  0.0434
13133TIP3    H160890   2.316   3.370   1.460  1.1845  1.2194  0.0858
13133TIP3    H260891   2.170   3.411   1.463  0.9413  0.3872 -0.1697
13134TIP3   OH260892   4.273   5.849   0.319  0.6917  0.6519  0.1704
13134TIP3    H160893   4.298   5.819   0.406 -1.7598  0.5788  0.9357
13134TIP3    H260894   4.294   5.775   0.261 -0.2505 -0.4342  1.1771
13135TIP3   OH260895   4.018   0.902  16.222  0.5837  0.3360 -0.2070
13135TIP3    H160896   4.088   0.939  16.169  1.7951  0.1708  1.2213
13135TIP3    H260897   4.057   0.887  16.308 -1.0075 -0.4250  0.4412
13136TIP3   OH260898   3.278   1.978   0.362  0.2752  0.2369  0.4670
13136TIP3    H160899   3.227   1.939   0.291 -1.2964 -0.5816  1.9607
13136TIP3    H260900   3.306   2.063   0.328  0.5336 -0.5775 -1.5093
13137TIP3   OH260901   1.240   0.722   0.357  0.1567  0.1914 -0.3775
13137TIP3    H160902   1.153   0.727   0.395  0.5269  2.3697  0.3505
13137TIP3    H260903   1.285   0.656   0.408 -0.6466  0.0611  0.1800
13138TIP3   OH260904   5.641   5.972  16.161  0.8779  0.7679 -0.2882
13138TIP3    H160905   5.587   5.899  16.192  1.0427  0.9381  0.4134
13138TIP3    H260906   5.681   5.939  16.080  1.3019 -0.0940  0.2478
13139TIP3   OH260907   2.040   5.210   5.908  0.5733 -0.0669  0.3498
13139TIP3    H160908   2.023   5.290   5.858  0.2121  0.7342  1.7058
13139TIP3    H260909   2.088   5.154   5.847 -1.6637 -0.0164 -1.6196
13140TIP3   OH260910   5.705   3.790  14.738  0.4355  0.0527  0.2901
13140TIP3    H160911   5.661   3.717  14.782  1.0291 -0.8863 -0.6594
13140TIP3    H260912   5.798   3.772  14.749  0.6704  1.9418  2.1268
13141TIP3   OH260913   5.596   4.386   2.156  0.3057  0.2101 -0.1378
13141TIP3    H160914   5.567   4.352   2.071  0.8930  0.8299 -0.6011
13141TIP3    H260915   5.625   4.475   2.137  0.8949  0.1901  0.6245
13142TIP3   OH260916   0.808   2.999  15.568  0.7641  0.4015  0.3041
13142TIP3    H160917   0.827   2.927  15.508  2.2670  0.2981  0.8692
13142TIP3    H260918   0.844   2.970  15.652  0.5600  1.4207  0.7511
13143TIP3   OH260919   0.619   5.406   2.049  0.3228 -0.1989  0.8315
13143TIP3    H160920   0.689   5.432   1.989 -0.8163 -0.0795 -0.4843
13143TIP3    H260921   0.579   5.488   2.077 -0.0747 -0.3212  0.6212
13144TIP3   OH260922   0.266   0.831  11.982 -0.4834  0.1178  0.0184
13144TIP3    H160923   0.306   0.882  11.912  0.7134 -0.7043  0.0660
13144TIP3    H260924   0.250   0.745  11.943 -0.2674 -0.1952  0.6089
13145TIP3   OH260925   1.297   0.789  13.330  0.2978  0.1615  0.1547
13145TIP3    H160926   1.350   0.809  13.253 -0.9356 -3.0269 -1.7416
13145TIP3    H260927   1.357   0.744  13.389  0.3214 -1.4799 -1.0354
13146TIP3   OH260928   2.555   6.339  14.523 -0.1163  0.0193 -0.1474
13146TIP3    H160929   2.462   6.321  14.530 -0.5995  0.9139 -2.9987
13146TIP3    H260930   2.566   6.424  14.566 -0.9306  0.6084 -1.0645
13147TIP3   OH260931   6.641   2.468   1.435  0.6406 -0.3491 -0.2069
13147TIP3    H160932   6.605   2.390   1.392  2.3461 -0.7681 -0.9823
13147TIP3    H260933   6.585   2.540   1.407 -1.0184 -1.2756  0.5800
13148TIP3   OH260934   0.393   5.141  13.434 -0.3185  0.9298 -0.3381
13148TIP3    H160935   0.346   5.205  13.489  0.1505  1.9790 -1.1325
13148TIP3    H260936   0.432   5.193  13.364  0.9026 -0.1029 -0.4634
13149TIP3   OH260937   0.006   5.033  15.660 -0.0463 -0.7000  0.1799
13149TIP3    H160938  -0.037   4.955  15.695 -2.0132  0.0094 -0.4789
13149TIP3    H260939   0.098   5.009  15.653 -0.6213 -3.0449 -0.1967
13150TIP3   OH260940   2.300   2.283   5.467 -0.6710  0.2692 -0.4186
13150TIP3    H160941   2.218   2.291   5.517 -0.4027 -0.1775  0.1081
13150TIP3    H260942   2.363   2.336   5.515 -0.0116 -1.3839  0.6359
13151TIP3   OH260943   2.625   4.553  10.993  0.1282 -0.3195  0.1114
13151TIP3    H160944   2.704   4.591  10.955 -0.3458  1.0567  0.4227
13151TIP3    H260945   2.567   4.538  10.919 -0.2179  0.9475  0.0907
13152TIP3   OH260946   6.630   5.133   2.137 -0.4361 -0.2280  0.2243
13152TIP3    H160947   6.574   5.116   2.212 -1.1847 -1.2241 -0.5233
13152TIP3    H260948   6.576   5.185   2.077  0.7905  2.2651  1.1348
13153TIP3   OH260949   6.023   4.786  14.524  0.1449 -0.3733 -0.1062
13153TIP3    H160950   5.996   4.704  14.566 -0.3195 -0.3313 -0.3065
13153TIP3    H260951   6.118   4.782  14.522  0.3378  0.5464  2.7768
13154TIP3   OH260952   6.651   4.934   1.931  0.0860  0.3095  0.1941
13154TIP3    H160953   6.704   4.861   1.962 -0.0634  0.3637  0.5887
13154TIP3    H260954   6.650   4.995   2.005  0.2091  0.7110 -0.1301
13155TIP3   OH260955   4.186   3.816   3.441 -0.5453  0.2286 -0.6644
13155TIP3    H160956   4.119   3.770   3.491 -1.8431  1.7967 -0.8703
13155TIP3    H260957   4.138   3.884   3.394  0.6436 -0.7966 -3.6677
13156TIP3   OH260958   3.027   5.075  14.912  0.1935  0.8390 -0.2190
13156TIP3    H160959   3.103   5.132  14.924  2.1774 -1.8094  0.5183
13156TIP3    H260960   2.986   5.071  14.998  1.5118 -0.7365  0.3700
13157TIP3   OH260961   0.703   4.260   5.617  0.9799 -0.0805 -0.0156
13157TIP3    H160962   0.633   4.197   5.599  1.0418 -0.2403  0.3054
13157TIP3    H260963   0.748   4.224   5.694  0.7026  0.6140  0.4760
13158TIP3   OH260964   6.000   3.510   1.115  0.3584  0.0218 -0.1211
13158TIP3    H160965   6.019   3.533   1.206 -0.2142  0.7428 -0.1670
13158TIP3    H260966   5.904   3.500   1.112  0.4088 -0.4038 -0.5555
13159TIP3   OH260967   1.947   6.371   2.256  0.0533  0.9075  0.2945
13159TIP3    H160968   1.928   6.352   2.348  1.3160 -0.1049  0.3850
13159TIP3    H260969   1.903   6.454   2.239 -1.1386  0.5665  1.4937
13160TIP3   OH260970   0.477   2.797   5.549 -0.5189 -0.6740 -0.3098
13160TIP3    H160971   0.470   2.719   5.603 -1.6886 -0.6188 -0.3504
13160TIP3    H260972   0.390   2.838   5.554  0.1195  0.7278 -0.1348
13161TIP3   OH260973   6.519   2.786  15.133  0.3578 -0.2259  0.2200
13161TIP3    H160974   6.578   2.830  15.071 -0.1248  0.6233  0.3395
13161TIP3    H260975   6.569   2.782  15.214  0.2259  0.6180  0.3605
13162TIP3   OH260976   4.677   4.549   5.519  0.0959  0.5509  0.3184
13162TIP3    H160977   4.590   4.589   5.511 -0.0914  0.5097  1.8766
13162TIP3    H260978   4.734   4.621   5.548  0.2660  0.2496  0.7451
13163TIP3   OH260979   1.417   4.142   3.387 -0.0973 -0.1145  0.4623
13163TIP3    H160980   1.385   4.212   3.442  1.5652  0.0709  1.2582
13163TIP3    H260981   1.481   4.184   3.329  0.0048 -0.7494  0.1042
13164TIP3   OH260982   5.233   2.207   5.113  0.3700 -0.9955 -0.0486
13164TIP3    H160983   5.274   2.292   5.099  1.0896 -1.2113  0.6723
13164TIP3    H260984   5.227   2.169   5.026  1.5277 -0.8708 -0.2026
13165TIP3   OH260985   1.169   3.930   0.581 -0.0338  0.5810 -0.0413
13165TIP3    H160986   1.251   3.888   0.552  0.0461  1.5686 -1.3529
13165TIP3    H260987   1.100   3.880   0.537 -0.1071  0.1111  0.6016
13166TIP3   OH260988   5.617   4.900  13.323 -0.3147 -0.4678 -0.4105
13166TIP3    H160989   5.577   4.860  13.400  0.1554 -1.6398 -0.7615
13166TIP3    H260990   5.577   4.987  13.318  0.0087 -0.1855  1.4204
13167TIP3   OH260991   2.014   6.043  13.547 -0.5108 -0.1357  0.0859
13167TIP3    H160992   1.987   5.957  13.579  1.3970 -0.5196  0.7662
13167TIP3    H260993   1.963   6.056  13.467 -1.7666 -1.3131  0.6603
13168TIP3   OH260994   1.891   0.554  15.215 -0.1327  0.4259  0.1472
13168TIP3    H160995   1.874   0.475  15.265  0.3188  0.1118 -0.1885
13168TIP3    H260996   1.820   0.614  15.240  0.4325  0.5201  1.6338
13169TIP3   OH260997   1.989   3.714   4.222 -0.0150 -0.4689 -0.0509
13169TIP3    H160998   2.049   3.660   4.169  1.3893  0.5585  0.4392
13169TIP3    H260999   1.987   3.798   4.177 -0.5473 -0.2733  0.3392
13170TIP3   OH261000   3.720   6.275   0.559  0.2508 -0.0649 -0.6321
13170TIP3    H161001   3.766   6.347   0.516 -0.9940  0.6698 -0.7674
13170TIP3    H261002   3.713   6.302   0.651  1.4699 -0.9018 -0.2637
13171TIP3   OH261003   0.614   3.692   4.706 -0.1384  0.7599  0.3004
13171TIP3    H161004   0.689   3.633   4.711  0.2110  1.1820  0.1430
13171TIP3    H261005   0.557   3.653   4.639  0.5098  1.0666 -0.4462
13172TIP3   OH261006   3.177   4.881   4.879  0.2988  0.1770 -0.0219
13172TIP3    H161007   3.127   4.952   4.839  0.7858  0.3862 -0.2814
13172TIP3    H261008   3.141   4.872   4.967  1.5498  2.1473  0.7720
13173TIP3   OH261009   3.986   3.971  16.940 -0.0203 -0.2962 -0.1187
13173TIP3    H161010   3.958   3.886  16.973 -1.7933  0.5195  0.5786
13173TIP3    H261011   3.910   4.006  16.894  1.4390 -0.0782 -2.5208
13174TIP3   OH261012   1.628   0.276   4.112 -0.2774 -0.1031 -0.3917
13174TIP3    H161013   1.635   0.284   4.207 -2.1994  0.2616 -0.2419
13174TIP3    H261014   1.719   0.274   4.081  0.4504 -2.1503  1.5744
13175TIP3   OH261015   1.969   2.099   5.703 -0.2662  0.0736  0.1961
13175TIP3    H161016   1.924   2.034   5.758 -0.1944 -0.5611 -0.4800
13175TIP3    H261017   2.034   2.139   5.761 -0.6515 -0.0977  0.7567
13176TIP3   OH261018   0.828   3.976  15.334 -0.3593 -0.1901  0.1153
13176TIP3    H161019   0.852   3.959  15.425 -0.4700 -0.4988  0.0905
13176TIP3    H261020   0.738   3.944  15.327  0.1817 -1.6742 -0.5041
13177TIP3   OH261021   3.289   5.959  14.703  0.2369  0.2870  0.2091
13177TIP3    H161022   3.344   5.969  14.625 -1.0069 -0.7817 -0.8595
13177TIP3    H261023   3.346   5.917  14.768  0.9411  0.0337 -0.5580
13178TIP3   OH261024   1.162   2.842  14.129 -0.0729 -0.1483  0.0635
13178TIP3    H161025   1.098   2.773  14.143 -1.2302  1.0847  1.2511
13178TIP3    H261026   1.119   2.902  14.068  0.9065 -0.4476 -0.9404
13179TIP3   OH261027   0.659   0.704  15.588  0.2434 -0.0988 -0.2772
13179TIP3    H161028   0.704   0.776  15.544 -0.6091  1.9001  1.8581
13179TIP3    H261029   0.729   0.653  15.629  0.8339 -0.1624 -1.3367
13180TIP3   OH261030   5.124   3.121   2.693 -0.2694 -0.9368 -0.2743
13180TIP3    H161031   5.058   3.161   2.638 -1.3830 -0.2801  1.4603
13180TIP3    H261032   5.171   3.060   2.635 -0.2519  0.9171 -2.3147
13181TIP3   OH261033   2.568   5.130   0.633  0.0756 -0.3907  0.4247
13181TIP3    H161034   2.595   5.038   0.643  1.0716 -0.2896 -1.0272
13181TIP3    H261035   2.589   5.170   0.718  0.6149 -1.2875  0.7285
13182TIP3   OH261036   0.798   6.066   0.558  0.4467  0.2654  0.4518
13182TIP3    H161037   0.852   6.142   0.538 -1.3309  1.2693 -0.7503
13182TIP3    H261038   0.800   6.013   0.478 -1.2038  0.8853 -0.0417
13183TIP3   OH261039   4.406   1.548  12.060  0.2967  0.4482 -0.1983
13183TIP3    H161040   4.412   1.504  11.976 -0.6751  1.0092 -0.5710
13183TIP3    H261041   4.375   1.480  12.120  0.0577  0.2957 -0.4928
13184TIP3   OH261042   6.194   1.926   2.027 -0.3721  0.1957  0.3197
13184TIP3    H161043   6.230   1.936   1.938 -0.6734  1.5990  0.3211
13184TIP3    H261044   6.128   1.858   2.019  0.6661 -0.7814 -0.1916
13185TIP3   OH261045   4.820   6.331  13.543 -0.2215 -0.0291 -0.5808
13185TIP3    H161046   4.863   6.354  13.461 -1.6205  2.4383 -0.7213
13185TIP3    H261047   4.859   6.248  13.568  2.7603  0.8025 -1.9598
13186TIP3   OH261048   4.752   1.869   1.641 -0.3376  0.5309  0.0806
13186TIP3    H161049   4.817   1.901   1.703 -0.7803  0.5463  0.5404
13186TIP3    H261050   4.780   1.905   1.556  0.5410  0.1087  0.1785
13187TIP3   OH261051   0.919   0.253  12.745 -0.0393 -0.0860  0.5423
13187TIP3    H161052   0.943   0.177  12.692 -0.4697  0.2942 -0.2025
13187TIP3    H261053   0.910   0.218  12.834 -1.4802 -1.1536  0.0034
13188TIP3   OH261054   4.057   1.433  12.557 -0.0708  0.4206  0.4127
13188TIP3    H161055   4.058   1.384  12.639  1.6596  0.5435  0.4885
13188TIP3    H261056   4.133   1.401  12.509  0.6986  2.5132  0.1488
13189TIP3   OH261057   1.448   1.366  11.127 -0.2913  0.3493 -0.3189
13189TIP3    H161058   1.418   1.327  11.045  0.3064 -1.6964  0.3889
13189TIP3    H261059   1.369   1.399  11.169 -0.6428  1.1278 -1.5463
13190TIP3   OH261060   5.923   0.748   3.430 -0.3185 -0.1027 -0.5050
13190TIP3    H161061   5.899   0.752   3.337  0.5090 -0.6067 -0.7439
13190TIP3    H261062   5.933   0.655   3.448 -0.6046 -0.0155  0.1354
13191TIP3   OH261063   2.894   1.111   1.349  0.1377 -0.2360 -0.1246
13191TIP3    H161064   2.829   1.181   1.356  1.3657  0.8831  0.6700
13191TIP3    H261065   2.844   1.035   1.320 -1.8138  0.1887  1.8182
13192TIP3   OH261066   2.932   2.381   3.005 -0.5400 -0.1421 -0.0060
13192TIP3    H161067   2.882   2.309   2.965 -1.0000 -0.2809  0.7885
13192TIP3    H261068   3.015   2.341   3.030 -0.1921 -0.0179 -0.9423
13193TIP3   OH261069   0.849   2.378  14.532 -0.8176  0.0546  0.2696
13193TIP3    H161070   0.828   2.410  14.445  1.1546  0.5063 -0.0990
13193TIP3    H261071   0.766   2.347  14.568 -2.1236  2.0515 -0.8466
13194TIP3   OH261072   2.946   2.639   1.042  0.7121  0.4849  0.1592
13194TIP3    H161073   2.872   2.636   0.981  0.3908  1.7809  0.4567
13194TIP3    H261074   3.006   2.570   1.010 -0.4745 -0.3920 -0.2465
13195TIP3   OH261075   6.570   2.638  14.691  0.2939 -0.0385 -0.1826
13195TIP3    H161076   6.603   2.672  14.607  0.0507  0.1507 -0.2013
13195TIP3    H261077   6.562   2.544  14.677  0.2076 -0.0007 -0.3863
13196TIP3   OH261078   2.808   6.476  12.326  0.6885 -0.0319  0.2748
13196TIP3    H161079   2.822   6.381  12.330  2.0224  0.1056 -0.6719
13196TIP3    H261080   2.895   6.514  12.339  0.2286  1.0623  0.2260
13197TIP3   OH261081   3.197   6.296   2.765  0.7295  0.0930 -0.4785
13197TIP3    H161082   3.269   6.306   2.828  2.7550 -1.5280 -2.3826
13197TIP3    H261083   3.206   6.207   2.733 -0.7304  0.6052 -2.4721
13198TIP3   OH261084   1.414   5.075   4.499 -0.0056  0.1421  0.1109
13198TIP3    H161085   1.422   5.144   4.433 -1.3843  0.4668  0.2536
13198TIP3    H261086   1.376   5.119   4.575  0.6818 -0.4331  0.8109
13199TIP3   OH261087   3.266   0.800   5.645  0.0427  0.4201  0.1205
13199TIP3    H161088   3.296   0.833   5.561  1.0868  1.0540  0.7317
13199TIP3    H261089   3.333   0.826   5.708 -0.5155 -0.3841  1.0978
13200TIP3   OH261090   5.388   6.200   1.771  0.3531  0.0306  0.2583
13200TIP3    H161091   5.342   6.117   1.760 -1.8867  1.0935  0.8944
13200TIP3    H261092   5.383   6.242   1.685  1.7311 -0.5708 -0.1387
13201TIP3   OH261093   0.478   5.318   1.093 -0.2834 -0.2549  0.2340
13201TIP3    H161094   0.474   5.264   1.015 -0.5319  1.2374 -0.8352
13201TIP3    H261095   0.387   5.347   1.106  0.0010  0.6595  0.2211
13202TIP3   OH261096   0.355   0.266  15.260 -0.0958 -0.1645  0.3228
13202TIP3    H161097   0.291   0.276  15.330  1.7202  2.0581  1.7840
13202TIP3    H261098   0.424   0.211  15.298  0.0356 -0.5066 -0.3901
13203TIP3   OH261099   5.463   3.818  14.293 -0.2197  0.1945  0.2929
13203TIP3    H161100   5.436   3.756  14.225 -0.0000  0.1301  0.2654
13203TIP3    H261101   5.551   3.844  14.268 -0.0298 -0.0458  0.7099
13204TIP3   OH261102   3.410   6.296  17.477  0.0191  0.1734 -0.2117
13204TIP3    H161103   3.320   6.266  17.464 -0.8888  2.1474  1.0146
13204TIP3    H261104   3.430   6.276  17.568  0.0764  1.5122  0.0848
13205TIP3   OH261105   5.471   3.569   2.689 -0.2690  0.3562 -0.1295
13205TIP3    H161106   5.385   3.611   2.684 -0.8387 -0.8992 -2.5817
13205TIP3    H261107   5.531   3.634   2.654 -0.1367  1.2881  1.7118
13206TIP3   OH261108   6.339   4.447  13.342  0.4909  0.1923  0.5736
13206TIP3    H161109   6.252   4.444  13.382 -0.4042  2.8971 -0.9121
13206TIP3    H261110   6.399   4.441  13.416 -1.0186  0.5496  1.8887
13207TIP3   OH261111   4.576   3.523  14.961 -0.2050 -0.2964  0.2479
13207TIP3    H161112   4.528   3.596  14.999  0.6045 -0.5333  1.7720
13207TIP3    H261113   4.655   3.563  14.925 -0.0664 -0.3369  0.5084
13208TIP3   OH261114   3.379   3.841  13.277 -0.1373 -0.1944 -0.3257
13208TIP3    H161115   3.357   3.750  13.297  0.5062 -0.4847 -0.8888
13208TIP3    H261116   3.326   3.862  13.200 -0.0546 -0.1885 -0.3805
13209TIP3   OH261117   2.032   3.912   5.176 -0.4283  0.1377  0.0444
13209TIP3    H161118   2.044   3.974   5.248 -1.9056 -0.1367  0.5590
13209TIP3    H261119   1.958   3.858   5.203 -0.5523 -0.4398 -1.3616
13210TIP3   OH261120   6.531   2.067   2.371  0.2577  0.0587 -0.0800
13210TIP3    H161121   6.580   2.034   2.446  0.4346 -0.8265 -0.5687
13210TIP3    H261122   6.440   2.068   2.400  0.0672 -2.1020 -0.4361
13211TIP3   OH261123   4.566   0.206  11.574 -0.4689 -0.5462  0.2346
13211TIP3    H161124   4.570   0.174  11.485 -0.2101 -2.3609  0.8636
13211TIP3    H261125   4.623   0.147  11.624  1.5549  1.9791  1.1670
13212TIP3   OH261126   0.134   1.052   5.408 -0.3054  0.2786 -0.1067
13212TIP3    H161127   0.127   1.141   5.442  0.6457 -0.4485  2.1951
13212TIP3    H261128   0.180   1.061   5.325  0.7934  1.8307  0.6328
13213TIP3   OH261129   2.042   3.227   3.957 -0.4351  0.1089  0.3300
13213TIP3    H161130   2.045   3.131   3.950 -1.2502  0.0694  0.3609
13213TIP3    H261131   1.955   3.245   3.992 -0.3601  0.8718  0.1372
13214TIP3   OH261132   2.140   1.009  17.437  0.5543  0.0082  0.8177
13214TIP3    H161133   2.098   0.945  17.494  2.1281  0.3510  2.4414
13214TIP3    H261134   2.139   1.090  17.488  0.4064  0.7961 -0.3921
13215TIP3   OH261135   3.811   5.177  12.053  0.6761  0.5238 -0.2683
13215TIP3    H161136   3.808   5.268  12.024  0.6874  0.8411  0.6867
13215TIP3    H261137   3.725   5.160  12.090  0.6300  0.0980 -0.5584
13216TIP3   OH261138   0.294   6.068   2.419 -0.1356 -0.0805 -0.5033
13216TIP3    H161139   0.349   6.143   2.395 -0.2956 -0.0878 -0.9060
13216TIP3    H261140   0.346   6.019   2.482 -0.0842  0.4446 -0.1254
13217TIP3   OH261141   5.911   4.462  12.467  0.2266  0.0854  0.1984
13217TIP3    H161142   5.947   4.386  12.513 -0.8477  0.2521  1.4001
13217TIP3    H261143   5.964   4.535  12.496  1.1973 -0.1599 -0.8815
13218TIP3   OH261144   0.650   6.443   3.558 -0.0673  0.3695 -0.2116
13218TIP3    H161145   0.655   6.539   3.562  2.5064  0.2671  0.1825
13218TIP3    H261146   0.644   6.423   3.465  0.6266  0.8893 -0.3753
13219TIP3   OH261147   0.493   3.418  12.593 -0.4687  0.2090 -0.7212
13219TIP3    H161148   0.471   3.336  12.548 -3.0804  1.2734 -1.6208
13219TIP3    H261149   0.408   3.461  12.605  0.6854  2.1612  0.9902
13220TIP3   OH261150   4.351   1.416  11.550 -0.4475 -0.0228 -0.1613
13220TIP3    H161151   4.288   1.367  11.497  0.4819 -1.5024  0.0495
13220TIP3    H261152   4.367   1.495  11.499 -2.7278  0.5877 -0.0346
13221TIP3   OH261153   2.065   2.976  14.930 -0.4159 -0.2445  0.9402
13221TIP3    H161154   2.091   2.897  14.883 -3.1003 -0.5649 -0.2002
13221TIP3    H261155   2.006   2.946  14.998 -1.3734  0.7377  0.5744
13222TIP3   OH261156   4.621   2.950  16.859 -0.1634  0.4597 -0.0709
13222TIP3    H161157   4.703   2.999  16.855 -0.0242  0.4838  2.1280
13222TIP3    H261158   4.557   3.006  16.816  0.4592  1.5557  0.4074
13223TIP3   OH261159   1.134   5.145  11.950  0.0733  0.3212 -0.2114
13223TIP3    H161160   1.184   5.135  12.031  0.4771 -1.0199 -0.5980
13223TIP3    H261161   1.178   5.215  11.902 -0.5507  1.5851  0.9814
13224TIP3   OH261162   2.938   4.993  14.267 -0.0578 -0.1302  0.3029
13224TIP3    H161163   2.894   4.909  14.258  0.0169  0.0002 -1.6072
13224TIP3    H261164   2.997   4.999  14.192  1.3179  0.8416  1.4002
13225TIP3   OH261165   2.069   4.630  11.904  0.2540  0.5319  0.1667
13225TIP3    H161166   2.097   4.575  11.977 -0.8540 -0.0812  0.1385
13225TIP3    H261167   2.148   4.679  11.880  1.0014 -0.3153  0.8272
13226TIP3   OH261168   6.692   5.117  11.074  0.0863 -0.0090 -0.0603
13226TIP3    H161169   6.787   5.116  11.067  0.4287  0.3210  3.1593
13226TIP3    H261170   6.663   5.042  11.023  2.0041  0.0588 -1.3619
13227TIP3   OH261171   4.636   4.256   2.140  0.0656 -0.4380  0.4853
13227TIP3    H161172   4.581   4.312   2.194 -0.1456  0.5404 -0.7120
13227TIP3    H261173   4.597   4.169   2.149 -1.1337  0.0739  0.3655
13228TIP3   OH261174   4.597   0.585   6.286  0.0714  0.2033  0.0089
13228TIP3    H161175   4.651   0.641   6.230  0.2090  0.2679  0.2041
13228TIP3    H261176   4.613   0.618   6.375 -0.2250  0.1695  0.0755
13229TIP3   OH261177   6.061   2.642  15.956 -0.0398 -0.0606  0.3322
13229TIP3    H161178   6.116   2.610  16.028  0.1550 -0.9734 -0.2087
13229TIP3    H261179   6.036   2.730  15.983 -0.4464 -0.5880  1.8053
13230TIP3   OH261180   2.362   1.816  12.372  0.4304 -0.1577 -0.8386
13230TIP3    H161181   2.351   1.852  12.460  0.6306 -1.2197 -0.3663
13230TIP3    H261182   2.326   1.728  12.378  0.4051 -0.2178 -1.8385
13231TIP3   OH261183   2.406   2.490  12.381 -0.1535 -0.4284  0.1526
13231TIP3    H161184   2.458   2.445  12.315 -0.8986 -3.2769  1.3523
13231TIP3    H261185   2.356   2.556  12.333  1.9077  0.0103 -1.5198
13232TIP3   OH261186   0.349   1.956  16.779  0.6526 -0.0125 -0.0854
13232TIP3    H161187   0.407   1.993  16.713  1.4148  0.8936  1.0439
13232TIP3    H261188   0.266   1.941  16.733  0.7767  1.7287 -0.9832
13233TIP3   OH261189   6.543   2.746   0.313  0.2569 -0.6824  0.1336
13233TIP3    H161190   6.617   2.722   0.369  2.0118 -0.5933 -1.9911
13233TIP3    H261191   6.573   2.826   0.269 -2.2377  0.9312  1.1769
13234TIP3   OH261192   0.336   1.715   4.439 -0.1225  0.0266  0.0149
13234TIP3    H161193   0.331   1.656   4.364  2.2826 -1.9160  1.2253
13234TIP3    H261194   0.375   1.795   4.404 -0.5713 -0.2240 -1.1005
13235TIP3   OH261195   4.226   2.142  13.140  0.2867 -0.2675 -0.5057
13235TIP3    H161196   4.168   2.209  13.174  0.2383 -0.7284  0.3601
13235TIP3    H261197   4.313   2.183  13.139 -0.0414  0.4646 -1.9253
13236TIP3   OH261198   4.754   3.971   5.256 -0.0663 -0.5807  0.4294
13236TIP3    H161199   4.826   3.962   5.318 -0.9422 -2.9612  1.1942
13236TIP3    H261200   4.690   4.026   5.302 -0.5977 -2.1136  1.5873
13237TIP3   OH261201   4.955   5.940   5.227 -0.1772 -0.0636  0.6834
13237TIP3    H161202   5.014   6.010   5.255  0.6134  0.7488 -2.6431
13237TIP3    H261203   4.920   5.969   5.143 -1.5614 -2.6994  0.2260
13238TIP3   OH261204   1.446   1.931  15.131  0.4153 -0.0681  0.1061
13238TIP3    H161205   1.540   1.948  15.124  0.4736 -0.6624 -0.7274
13238TIP3    H261206   1.407   1.984  15.061  0.2669 -0.8008 -0.3733
13239TIP3   OH261207   5.874   0.591  12.454  0.2615 -0.1286 -0.4515
13239TIP3    H161208   5.968   0.598  12.439 -0.0382  0.4830 -2.2221
13239TIP3    H261209   5.865   0.590  12.550  2.1361 -1.4993 -0.2325
13240TIP3   OH261210   4.759   4.208  13.749  0.0966  0.1177  0.3646
13240TIP3    H161211   4.778   4.222  13.842 -0.4254 -0.1961  0.5255
13240TIP3    H261212   4.699   4.278  13.725 -1.0584 -0.7251  0.6949
13241TIP3   OH261213   5.366   0.403   1.296 -0.1927 -0.1301  0.2796
13241TIP3    H161214   5.398   0.313   1.307 -0.9816 -0.3247  1.0211
13241TIP3    H261215   5.344   0.432   1.384  1.0396  1.1856  0.1863
13242TIP3   OH261216   6.323   1.650  14.604 -0.0454 -0.2069  0.3310
13242TIP3    H161217   6.254   1.584  14.596 -1.6412  1.3577  0.7160
13242TIP3    H261218   6.283   1.721  14.654  2.4438 -0.0466  2.3221
13243TIP3   OH261219   5.498   3.549   0.287 -0.1544 -0.3300 -0.2438
13243TIP3    H161220   5.584   3.535   0.326  0.1744  1.3861 -0.2648
13243TIP3    H261221   5.482   3.471   0.235  1.9476 -0.1748 -1.2253
13244TIP3   OH261222   1.648   5.154   1.212  0.3701  0.3570  0.4039
13244TIP3    H161223   1.658   5.162   1.307  1.9079 -0.1894  0.3167
13244TIP3    H261224   1.704   5.222   1.175  1.5908 -0.8678 -0.1107
13245TIP3   OH261225   2.737   0.550   3.242 -0.4895 -0.3485 -0.7119
13245TIP3    H161226   2.751   0.456   3.257  0.2897 -0.0042  0.9918
13245TIP3    H261227   2.756   0.562   3.149  2.0123 -1.4856 -0.4384
13246TIP3   OH261228   1.489   0.270   2.632  0.3638  0.4193  0.3697
13246TIP3    H161229   1.479   0.325   2.554 -1.9064  1.0029  0.9937
13246TIP3    H261230   1.469   0.328   2.705 -0.1667 -0.7484  1.1862
13247TIP3   OH261231   1.493   2.361  14.504  0.1999 -0.2276  0.3393
13247TIP3    H161232   1.443   2.293  14.548 -0.4199  0.7252  1.1406
13247TIP3    H261233   1.452   2.443  14.531  1.0775  0.4881 -0.4121
13248TIP3   OH261234   4.192   5.479  10.573 -0.6116 -0.0271 -0.0372
13248TIP3    H161235   4.118   5.536  10.550 -0.4373  0.6172  0.9565
13248TIP3    H261236   4.269   5.526  10.542 -0.4676  0.2780  0.7751
13249TIP3   OH261237   3.055   5.345  14.196  0.3275  0.7545  0.7821
13249TIP3    H161238   2.995   5.281  14.158 -1.0957  0.5079  3.2340
13249TIP3    H261239   3.140   5.323  14.159 -0.4464 -1.2760  0.0467
13250TIP3   OH261240   5.620   4.176   6.032  0.1288  0.0305  0.3679
13250TIP3    H161241   5.583   4.229   5.961 -0.3580 -0.0468  0.5588
13250TIP3    H261242   5.591   4.221   6.112  0.7908  0.1965  0.5162
13251TIP3   OH261243   3.933   2.040  11.633 -0.1272  0.4121 -0.0919
13251TIP3    H161244   3.970   1.962  11.592  2.7118  0.2176  2.4851
13251TIP3    H261245   3.995   2.110  11.615 -0.9124  1.2784  0.4277
13252TIP3   OH261246   3.009   1.931   7.032  0.6071  0.0736  0.0090
13252TIP3    H161247   3.097   1.960   7.007  0.9408 -1.2366 -0.3998
13252TIP3    H261248   2.956   2.011   7.030  1.8814  0.9698  0.7485
13253TIP3   OH261249   4.170   1.485   3.583  0.6866 -0.0438 -0.1068
13253TIP3    H161250   4.078   1.496   3.560  1.0271  0.6280 -1.1774
13253TIP3    H261251   4.185   1.547   3.655  0.3945  0.0929 -0.1662
13254TIP3   OH261252   6.617   0.458   5.708  0.4270 -0.3460  0.4770
13254TIP3    H161253   6.688   0.465   5.771 -0.9259 -0.4633  2.0786
13254TIP3    H261254   6.593   0.549   5.688  1.7880 -0.2775 -1.0235
13255TIP3   OH261255   5.126   0.515   3.165 -0.1403  0.0208  0.0737
13255TIP3    H161256   5.150   0.597   3.208  0.3050  1.0774 -2.0608
13255TIP3    H261257   5.033   0.525   3.145 -0.2392 -0.2814  0.3664
13256TIP3   OH261258   5.730   5.961  13.343 -0.3978  0.4500 -0.3972
13256TIP3    H161259   5.738   5.976  13.249  1.8277 -0.2256 -0.3701
13256TIP3    H261260   5.724   5.866  13.352  2.0226  0.2749  0.2021
13257TIP3   OH261261   6.460   1.836  14.983 -0.0918 -0.1296 -0.2044
13257TIP3    H161262   6.405   1.853  14.906  0.8279  0.6582 -0.7173
13257TIP3    H261263   6.436   1.748  15.010 -1.1521 -0.0436 -0.7833
13258TIP3   OH261264   0.665   5.121  13.230 -0.1804 -0.1926  0.1719
13258TIP3    H161265   0.745   5.069  13.219 -1.2814 -1.4786 -2.9241
13258TIP3    H261266   0.682   5.202  13.183 -0.7648 -0.6059 -0.7796
13259TIP3   OH261267   1.196   3.204  16.539 -0.0423  0.5369 -0.0158
13259TIP3    H161268   1.135   3.204  16.613  0.3352  0.2469  0.3038
13259TIP3    H261269   1.180   3.121  16.494 -0.3990  0.7962 -0.3694
13260TIP3   OH261270   3.656   0.400   5.148  0.1346  0.6955 -0.7107
13260TIP3    H161271   3.578   0.443   5.115  0.0925  0.1021 -1.4293
13260TIP3    H261272   3.682   0.341   5.077 -1.1146 -2.1713  1.0393
13261TIP3   OH261273   0.522   0.023  13.318 -0.2622  0.2138  0.7417
13261TIP3    H161274   0.440  -0.023  13.296  0.4498 -0.7380 -0.0202
13261TIP3    H261275   0.589  -0.046  13.317  0.6867  1.1123  0.5622
13262TIP3   OH261276   6.339   1.076  11.159  0.3710  0.0755 -0.6259
13262TIP3    H161277   6.360   0.987  11.128  0.0115 -0.4641  0.6342
13262TIP3    H261278   6.245   1.084  11.145  0.5136  0.5351 -1.3850
13263TIP3   OH261279   0.576   5.846  16.102  0.6210 -0.2231  0.1144
13263TIP3    H161280   0.516   5.772  16.098 -0.1410  0.4350 -2.4074
13263TIP3    H261281   0.589   5.871  16.011  1.8252  1.9799  0.8252
13264TIP3   OH261282   5.123   3.348   1.891 -0.4213 -0.4832 -0.5528
13264TIP3    H161283   5.172   3.361   1.810 -0.1967 -0.3224 -0.3936
13264TIP3    H261284   5.098   3.437   1.918 -2.3010 -0.6521 -1.5373
13265TIP3   OH261285   5.689   3.230   1.439  0.5537  0.3428 -0.2282
13265TIP3    H161286   5.626   3.301   1.447 -0.6413 -0.6438 -0.5055
13265TIP3    H261287   5.638   3.151   1.459  1.5836 -0.5334 -0.9688
13266TIP3   OH261288   6.374   1.518   5.105  0.4080 -0.2594  0.6688
13266TIP3    H161289   6.359   1.552   5.194  0.8634 -1.6621  1.3108
13266TIP3    H261290   6.360   1.424   5.113  3.0373 -0.7861 -0.1571
13267TIP3   OH261291   5.463   5.471   3.097 -0.1079  0.3467  1.2901
13267TIP3    H161292   5.499   5.424   3.022  0.3118  2.2389  0.2553
13267TIP3    H261293   5.369   5.455   3.093 -0.6114  3.1892 -1.7873
13268TIP3   OH261294   0.968   2.070   5.423 -0.1427 -0.7475 -0.2797
13268TIP3    H161295   1.030   2.139   5.399 -0.2463 -0.6734 -0.3333
13268TIP3    H261296   0.887   2.093   5.378 -0.2266 -0.8134 -0.1636
13269TIP3   OH261297   4.766   0.486   1.274 -0.1847 -0.0410  0.1803
13269TIP3    H161298   4.720   0.499   1.191  1.2447 -0.3630 -0.7044
13269TIP3    H261299   4.721   0.414   1.316  0.8650 -1.9364 -1.7475
13270TIP3   OH261300   1.171   4.695   4.628 -0.3176  0.0431 -0.0421
13270TIP3    H161301   1.177   4.601   4.612 -0.4481 -0.0047  0.1834
13270TIP3    H261302   1.260   4.727   4.618  0.0265 -0.3643  1.4634
13271TIP3   OH261303   1.690   1.483   5.581  0.2244  0.4381 -0.1840
13271TIP3    H161304   1.628   1.411   5.586  1.9098 -1.1660 -1.1550
13271TIP3    H261305   1.666   1.531   5.502  0.3376 -0.3108 -0.6814
13272TIP3   OH261306   5.920   2.549  15.457  0.3644 -0.1443  0.1655
13272TIP3    H161307   5.975   2.501  15.395 -0.9828 -0.4215 -0.8663
13272TIP3    H261308   5.906   2.634  15.415 -3.1064 -1.3789 -1.5531
13273TIP3   OH261309   1.125   4.957  11.353 -0.6168  0.3479  0.3912
13273TIP3    H161310   1.217   4.955  11.381  0.1043  1.7093 -1.5706
13273TIP3    H261311   1.094   4.868  11.364  1.5551 -0.6170 -0.6540
13274TIP3   OH261312   5.409   1.657  16.174  0.1993 -0.1399  0.2737
13274TIP3    H161313   5.493   1.614  16.189  1.1115  1.0362 -1.1126
13274TIP3    H261314   5.395   1.710  16.252  1.2245  0.3426  0.1512
13275TIP3   OH261315   6.740   0.835  12.831  0.0218  0.2465  0.3902
13275TIP3    H161316   6.767   0.775  12.762  1.3403  1.4927 -0.2539
13275TIP3    H261317   6.711   0.914  12.785  0.1010  0.7843  1.2241
13276TIP3   OH261318   1.789   4.547   1.990 -0.1941 -0.2023 -0.1692
13276TIP3    H161319   1.780   4.578   1.899  0.5096  0.5813  0.0154
13276TIP3    H261320   1.776   4.626   2.043  0.6534 -0.4099  0.3577
13277TIP3   OH261321   5.860   3.093   2.009 -0.5876 -0.1860  0.1386
13277TIP3    H161322   5.932   3.136   2.055 -0.0713 -0.8231 -0.0562
13277TIP3    H261323   5.876   3.112   1.916 -1.2204  0.4891  0.1599
13278TIP3   OH261324   2.999   6.765  13.407 -0.5412 -0.1313 -0.1512
13278TIP3    H161325   2.907   6.774  13.382 -0.5238  0.3583 -0.0468
13278TIP3    H261326   3.045   6.758  13.323 -0.3718  2.5676 -0.3797
13279TIP3   OH261327   4.696   2.672  17.197 -0.2992  0.1459 -0.2521
13279TIP3    H161328   4.738   2.757  17.185 -1.1043  0.5455 -0.3149
13279TIP3    H261329   4.631   2.667  17.127 -0.4169 -0.4185 -0.1079
13280TIP3   OH261330   2.721   0.595  16.534  0.2722 -0.7021  0.2406
13280TIP3    H161331   2.757   0.519  16.488  2.1897  0.9052 -1.0455
13280TIP3    H261332   2.774   0.668  16.505 -1.0731  1.0598  1.9818
13281TIP3   OH261333   0.477   4.800   5.901 -0.3006  0.0910 -0.4528
13281TIP3    H161334   0.391   4.759   5.893 -0.0843 -0.3347 -0.6745
13281TIP3    H261335   0.499   4.794   5.994  0.8797 -2.7599 -0.7930
13282TIP3   OH261336   5.326   2.901   6.305 -0.1486 -0.1508  0.6029
13282TIP3    H161337   5.253   2.919   6.246 -0.7666 -0.4034  1.2750
13282TIP3    H261338   5.286   2.860   6.382  0.7750 -0.8900  0.7181
13283TIP3   OH261339   0.962   0.440  16.104  0.1338 -0.0840 -0.0532
13283TIP3    H161340   1.033   0.497  16.136  0.4513  0.4918 -1.6529
13283TIP3    H261341   0.992   0.351  16.123  1.8605  0.0783 -1.6221
13284TIP3   OH261342   1.586   6.646   2.881  0.2964 -0.2986 -0.4542
13284TIP3    H161343   1.530   6.653   2.803 -0.4092 -1.8942 -0.1365
13284TIP3    H261344   1.557   6.717   2.938 -0.6327 -0.4095 -0.7744
13285TIP3   OH261345   4.870   6.026   0.262  0.1667 -0.6030 -0.0548
13285TIP3    H161346   4.902   5.949   0.309  0.5897 -0.5718 -0.2856
13285TIP3    H261347   4.918   6.025   0.179  0.8231  0.4050  0.3112
13286TIP3   OH261348   5.779   4.159  12.494 -0.1733 -0.2082 -0.5999
13286TIP3    H161349   5.800   4.159  12.401 -0.8505 -1.4396 -0.7669
13286TIP3    H261350   5.864   4.170  12.537  0.3296 -1.1005 -1.3376
13287TIP3   OH261351   1.833   1.857   5.748 -0.3113  0.1984  0.3297
13287TIP3    H161352   1.802   1.848   5.658 -0.1343  3.5857 -0.2207
13287TIP3    H261353   1.772   1.920   5.787 -0.3875 -1.2069  2.6261
13288TIP3   OH261354   6.002   5.325  13.678 -0.0888 -0.6948 -0.0635
13288TIP3    H161355   6.028   5.365  13.762  0.0494 -1.6006  0.3362
13288TIP3    H261356   6.077   5.339  13.621  0.1001 -0.6894  0.1826
13289TIP3   OH261357   4.347   4.558  14.449 -0.4926  0.6340  0.0442
13289TIP3    H161358   4.386   4.645  14.456  0.4659  0.1111  2.0604
13289TIP3    H261359   4.413   4.505  14.405  0.2416  0.2764  1.4851
13290TIP3   OH261360   6.213   5.891  16.580 -0.0672  0.3928 -0.5419
13290TIP3    H161361   6.126   5.857  16.601 -0.0822  1.3434  1.1284
13290TIP3    H261362   6.197   5.980  16.548  0.2674  0.6013 -0.1546
13291TIP3   OH261363   1.645   2.725   0.657  0.1356  0.0615  0.2654
13291TIP3    H161364   1.570   2.741   0.601 -0.6618 -0.3809  1.1814
13291TIP3    H261365   1.686   2.646   0.622 -0.6658 -0.5151  0.6032
13292TIP3   OH261366   6.399   2.954   5.583 -0.1672 -0.0184 -0.1317
13292TIP3    H161367   6.407   2.860   5.599  1.8506  0.0456 -0.4462
13292TIP3    H261368   6.377   2.961   5.491 -0.3869 -0.1857 -0.0923
13293TIP3   OH261369   5.471   1.208   6.034 -0.3563  0.3511 -0.0223
13293TIP3    H161370   5.541   1.273   6.029  0.3427 -0.4823 -1.8412
13293TIP3    H261371   5.427   1.213   5.949 -0.9255 -0.8424  0.1796
13294TIP3   OH261372   2.020   1.567   6.451 -0.2357 -0.6068  0.2211
13294TIP3    H161373   2.115   1.565   6.439 -0.2196 -0.2943  0.2933
13294TIP3    H261374   2.006   1.530   6.538 -0.1798 -0.6352  0.2184
13295TIP3   OH261375   2.010   0.989   4.970 -0.4802 -0.2789  0.3685
13295TIP3    H161376   1.937   0.947   4.924  0.4507 -0.4562 -1.0105
13295TIP3    H261377   2.036   0.926   5.037 -1.7591 -0.0851  1.0887
13296TIP3   OH261378   2.537   4.666   5.218  0.3119  0.1895  0.3094
13296TIP3    H161379   2.463   4.715   5.182 -0.9097 -2.2552 -0.7015
13296TIP3    H261380   2.582   4.630   5.142 -1.1964 -3.4864  0.9267
13297TIP3   OH261381   5.906   0.018   5.183  0.1988  0.0230  0.6509
13297TIP3    H161382   5.943  -0.068   5.204 -0.6964 -0.6418 -0.3514
13297TIP3    H261383   5.979   0.068   5.147  0.5045 -0.6653  0.3076
13298TIP3   OH261384   5.547   5.537   2.292 -0.6131  0.1559  0.3605
13298TIP3    H161385   5.628   5.533   2.343  0.3411 -1.3774 -1.1738
13298TIP3    H261386   5.512   5.447   2.296 -0.1869 -0.1818 -2.1131
13299TIP3   OH261387   0.718   1.007   3.590  0.3057 -0.0867 -0.4468
13299TIP3    H161388   0.773   0.987   3.515 -0.4998 -0.0977 -1.0480
13299TIP3    H261389   0.642   0.949   3.580  0.9067 -1.2512  1.2327
13300TIP3   OH261390   1.295   1.982  16.591  0.2200  0.2164  0.2027
13300TIP3    H161391   1.205   2.006  16.615 -0.6993 -2.6466  0.0200
13300TIP3    H261392   1.301   2.003  16.498  0.4423  2.1732  0.6128
13301TIP3   OH261393   6.657   5.906   3.564  0.0326 -0.4777  0.6676
13301TIP3    H161394   6.706   5.829   3.533  1.2620  0.6596 -0.3603
13301TIP3    H261395   6.722   5.977   3.563 -1.3473  0.8292  0.4426
13302TIP3   OH261396   3.274   3.420  15.155  0.1341 -0.5066  0.0078
13302TIP3    H161397   3.265   3.348  15.092 -0.6529 -2.0755  1.7930
13302TIP3    H261398   3.209   3.484  15.127 -0.4724 -1.3367 -0.5591
13303TIP3   OH261399   3.233   2.332  11.651  0.3197  0.2164 -0.1143
13303TIP3    H161400   3.280   2.400  11.603  0.7198  1.6527  2.1729
13303TIP3    H261401   3.157   2.377  11.687 -1.1029 -1.3146 -1.0201
13304TIP3   OH261402   6.644   5.479  16.740  0.5835 -0.1910 -0.6493
13304TIP3    H161403   6.734   5.495  16.710 -0.2148 -0.5337 -3.5490
13304TIP3    H261404   6.589   5.505  16.666 -1.6769 -0.8292  0.6986
13305TIP3   OH261405   5.092   5.437  14.369 -0.5034 -0.8877 -0.0931
13305TIP3    H161406   5.152   5.409  14.300  1.6286  0.0756  1.2740
13305TIP3    H261407   5.089   5.363  14.430 -1.7772 -1.4317 -0.7623
13306TIP3   OH261408   0.422   3.289   2.507 -0.5860 -0.2252  0.3112
13306TIP3    H161409   0.369   3.327   2.577 -0.5582  0.6587 -0.1254
13306TIP3    H261410   0.511   3.314   2.527 -0.6346  0.4919 -0.3037
13307TIP3   OH261411   6.732   2.811  15.305 -0.6734 -0.5532  0.0580
13307TIP3    H161412   6.731   2.776  15.395  0.7599 -1.2981 -0.1957
13307TIP3    H261413   6.743   2.906  15.316 -1.5768 -0.5075  0.6822
13308TIP3   OH261414   2.154   6.370   2.634  0.1698 -0.5892  0.0980
13308TIP3    H161415   2.188   6.283   2.611 -0.2658 -0.5045 -0.9104
13308TIP3    H261416   2.067   6.353   2.671  0.2998 -0.6139  0.3993
13309TIP3   OH261417   4.525   1.069  11.609  0.1996 -0.4342 -0.5659
13309TIP3    H161418   4.605   1.055  11.557 -0.5775  0.4014 -2.0624
13309TIP3    H261419   4.469   0.996  11.587 -0.2327  0.0572 -1.1443
13310TIP3   OH261420   0.848   3.013  10.266  0.0378 -0.5099  0.3133
13310TIP3    H161421   0.766   3.044  10.304 -0.6525 -0.0360 -1.4321
13310TIP3    H261422   0.900   3.092  10.255 -0.0202 -0.5461 -0.2519
13311TIP3   OH261423   4.251   3.394  11.860  0.2325 -0.3940 -0.4547
13311TIP3    H161424   4.333   3.441  11.875  0.2700 -0.5699 -0.0958
13311TIP3    H261425   4.182   3.458  11.878  0.2446 -0.9863  1.9400
13312TIP3   OH261426   0.978   5.947  17.353 -0.6992 -0.2936  0.1791
13312TIP3    H161427   0.897   5.967  17.307 -0.8293 -0.4293  0.3492
13312TIP3    H261428   1.007   6.031  17.388 -0.4066 -0.1206 -0.4575
13313TIP3   OH261429   0.876   0.870  16.208 -0.4565 -0.9391  0.1302
13313TIP3    H161430   0.849   0.919  16.286 -2.6361 -1.1806 -0.4005
13313TIP3    H261431   0.961   0.832  16.232 -0.2526  0.4178  1.7294
13314TIP3   OH261432   0.554   5.849   5.528  0.7466 -0.1179  0.1597
13314TIP3    H161433   0.511   5.870   5.611  0.5099  0.1243 -0.0236
13314TIP3    H261434   0.525   5.917   5.468 -0.7310 -1.4204 -0.6814
13315TIP3   OH261435   1.004   2.708  12.128  0.2106  0.0997 -0.2715
13315TIP3    H161436   1.097   2.691  12.142  0.1181  0.6109  1.1203
13315TIP3    H261437   0.992   2.699  12.034  1.6463 -0.0765 -0.4615
13316TIP3   OH261438   2.995   1.106   1.992  0.4211  0.1837 -0.5457
13316TIP3    H161439   3.031   1.191   2.017 -0.6875  0.6798 -0.5927
13316TIP3    H261440   2.916   1.097   2.045  0.6151 -0.9029 -0.4177
13317TIP3   OH261441   2.702   4.228  13.908  0.1548  0.7460 -0.5391
13317TIP3    H161442   2.784   4.276  13.897  0.2154  0.9527  0.6987
13317TIP3    H261443   2.647   4.285  13.962 -0.8001  0.5842 -1.2943
13318TIP3   OH261444   5.592   5.043   4.614  0.0377  0.4343 -0.6107
13318TIP3    H161445   5.498   5.029   4.628  0.4065 -0.4566  1.1393
13318TIP3    H261446   5.613   4.987   4.539 -0.6670 -0.0658 -0.4510
13319TIP3   OH261447   3.624   2.142   4.121 -0.0427  0.3716 -0.1510
13319TIP3    H161448   3.712   2.178   4.128  0.3133 -0.5432  0.2755
13319TIP3    H261449   3.581   2.166   4.203  0.3430 -0.5342  0.3291
13320TIP3   OH261450   1.544   4.058   4.155 -0.2736 -0.1944 -0.2471
13320TIP3    H161451   1.486   4.117   4.204 -2.1615 -0.9677 -1.4462
13320TIP3    H261452   1.485   3.993   4.116  1.3312 -0.5710 -2.1879
13321TIP3   OH261453   5.729   2.331  13.812  0.2056  0.1010  0.5003
13321TIP3    H161454   5.780   2.410  13.793 -1.0262  0.7495 -0.2679
13321TIP3    H261455   5.754   2.269  13.745  2.2308 -0.7223  1.9243
13322TIP3   OH261456   5.381   3.263  14.542  0.1723 -0.9367 -0.2891
13322TIP3    H161457   5.440   3.271  14.616 -2.2793 -0.4856  1.7759
13322TIP3    H261458   5.419   3.194  14.488  1.8385 -1.6097  1.6290
13323TIP3   OH261459   4.152   4.726   0.338  0.6465  0.0587  0.1688
13323TIP3    H161460   4.202   4.734   0.257 -0.4174 -0.5941 -0.5838
13323TIP3    H261461   4.182   4.645   0.378  1.5151  0.6205  0.7006
13324TIP3   OH261462   4.083   0.608  13.096 -0.2375 -0.1288 -0.9576
13324TIP3    H161463   4.072   0.696  13.061  2.0285  0.8798  0.6400
13324TIP3    H261464   4.020   0.603  13.168 -1.5588 -0.4999 -2.0850
13325TIP3   OH261465   3.587   1.542   0.550 -0.0405 -0.3655 -0.7858
13325TIP3    H161466   3.519   1.607   0.533 -1.1378 -0.5286  2.3816
13325TIP3    H261467   3.587   1.485   0.473 -1.2959  1.4547 -2.1983
13326TIP3   OH261468   5.100   3.157  12.791 -0.6152  0.1443  0.3543
13326TIP3    H161469   5.104   3.095  12.864  0.8539 -0.7294 -0.4246
13326TIP3    H261470   5.102   3.103  12.713 -0.3085  1.1364 -0.3451
13327TIP3   OH261471   5.318   1.735  17.354  0.0477 -0.3784 -0.7951
13327TIP3    H161472   5.227   1.752  17.377 -0.3523 -1.0296 -1.8522
13327TIP3    H261473   5.322   1.743  17.259  1.9603  3.6741 -0.5918
13328TIP3   OH261474   4.824   5.071   3.906  0.0722  0.4467 -0.7152
13328TIP3    H161475   4.770   5.081   3.827  0.3456  0.5991 -0.8854
13328TIP3    H261476   4.785   4.998   3.953  0.7945 -0.6242 -1.7274
13329TIP3   OH261477   4.672   5.785   5.167  0.1263  0.3684 -0.3717
13329TIP3    H161478   4.662   5.712   5.106 -0.7709  0.5660 -0.4769
13329TIP3    H261479   4.766   5.790   5.184 -0.0092 -3.0010  2.3236
13330TIP3   OH261480   0.436   3.587  15.982  0.0884 -0.0925  0.2718
13330TIP3    H161481   0.373   3.583  16.053 -0.6361 -2.3222 -0.4272
13330TIP3    H261482   0.519   3.560  16.021 -0.2167 -0.8846  0.3849
13331TIP3   OH261483   4.878   5.376   2.911 -0.3893 -0.4206 -0.1250
13331TIP3    H161484   4.866   5.450   2.851 -0.1023 -0.2655  0.0059
13331TIP3    H261485   4.946   5.323   2.870 -0.1707 -0.2976  0.0775
13332TIP3   OH261486   4.628   1.775   3.654 -0.1267 -0.4245  0.4680
13332TIP3    H161487   4.708   1.814   3.690  0.0453 -0.4019  0.0603
13332TIP3    H261488   4.623   1.689   3.697  1.4991 -1.5206 -1.3556
13333TIP3   OH261489   6.000   4.531   1.595  0.4598  0.0811  0.3657
13333TIP3    H161490   6.057   4.461   1.563  1.8255  0.5517  1.6393
13333TIP3    H261491   5.912   4.494   1.593  1.1638 -1.7310  1.1300
13334TIP3   OH261492   3.565   5.338  11.952 -0.4234 -0.3342  0.0108
13334TIP3    H161493   3.559   5.267  12.017  0.7487  0.1038  0.6286
13334TIP3    H261494   3.474   5.353  11.925 -0.7737 -1.5508  0.4279
13335TIP3   OH261495   4.547   3.805  15.022 -0.8249  0.1155 -0.1484
13335TIP3    H161496   4.497   3.830  15.099 -1.3214  1.5684 -0.9084
13335TIP3    H261497   4.636   3.835  15.040 -1.3339  2.2113 -0.8892
13336TIP3   OH261498   5.299   1.378  13.554 -0.4666  0.0854  0.2293
13336TIP3    H161499   5.243   1.414  13.623 -0.1462  2.1000 -0.4732
13336TIP3    H261500   5.240   1.364  13.480 -0.9363 -2.6993  1.0312
13337TIP3   OH261501   4.629   0.902  15.467  0.1058  0.1396 -0.1010
13337TIP3    H161502   4.653   0.829  15.524 -0.2413 -0.4967 -0.7422
13337TIP3    H261503   4.584   0.964  15.524  1.8011  0.6011  0.7914
13338TIP3   OH261504   5.599   5.203  14.067 -0.6432 -0.2474 -0.2533
13338TIP3    H161505   5.611   5.275  14.005 -0.6260 -0.3508 -0.3705
13338TIP3    H261506   5.506   5.181  14.061 -0.8318  0.3286  0.4080
13339TIP3   OH261507   3.201   2.964  16.737  0.3680  0.4028  0.3209
13339TIP3    H161508   3.292   2.950  16.712  0.4662  1.1482  0.2400
13339TIP3    H261509   3.184   3.055  16.715 -0.7631 -0.0473 -0.7987
13340TIP3   OH261510   2.712   3.878  12.818  0.0294  0.6042 -0.8134
13340TIP3    H161511   2.751   3.892  12.905 -0.9319  0.0055 -0.2675
13340TIP3    H261512   2.632   3.830  12.836 -0.2125  0.5309 -2.0456
13341TIP3   OH261513   4.753   5.531  10.915 -0.1875 -0.0803 -0.0654
13341TIP3    H161514   4.699   5.609  10.903 -0.2098 -0.3025 -1.6332
13341TIP3    H261515   4.805   5.525  10.835  1.8278 -0.1510  1.1699
13342TIP3   OH261516   3.309   4.674   0.821  0.3419 -0.1264 -0.6024
13342TIP3    H161517   3.325   4.629   0.904  0.0599 -0.5714 -0.7877
13342TIP3    H261518   3.319   4.767   0.843 -0.1858 -0.2097  0.0433
13343TIP3   OH261519   1.866   1.095  12.687  0.3408 -0.1619  0.0424
13343TIP3    H161520   1.784   1.101  12.736  1.2926  0.3835  1.6675
13343TIP3    H261521   1.841   1.057  12.603 -1.5699  0.0311  0.4722
13344TIP3   OH261522   1.084   4.928   0.103  0.4856 -0.5134  0.0045
13344TIP3    H161523   1.062   4.861   0.038 -1.5974 -0.0310  0.1121
13344TIP3    H261524   1.087   4.881   0.186  2.2519 -0.9796 -0.2968
13345TIP3   OH261525   6.039   2.143  16.046  0.2530  0.0716  0.4879
13345TIP3    H161526   6.083   2.216  16.003  2.0834  0.1816  2.3640
13345TIP3    H261527   5.978   2.184  16.108  1.6622  0.0965  1.9230
13346TIP3   OH261528   6.074   5.943   6.405  0.1153  0.5255 -0.1117
13346TIP3    H161529   6.148   5.998   6.433  0.3864 -0.0401  0.3039
13346TIP3    H261530   6.018   5.936   6.482  0.5486 -0.5253  0.1289
13347TIP3   OH261531   6.158   3.226   5.899 -0.1903 -0.2923  0.3482
13347TIP3    H161532   6.062   3.225   5.901 -0.2033  0.1119  0.1328
13347TIP3    H261533   6.184   3.257   5.986 -0.1885 -2.3985  1.1613
13348TIP3   OH261534   1.112   0.133  16.801  0.1445  0.2899 -0.0578
13348TIP3    H161535   1.165   0.209  16.778  0.8265 -0.3668 -0.7680
13348TIP3    H261536   1.046   0.127  16.731  1.5653 -1.0992 -1.3838
13349TIP3   OH261537   3.189   5.448  15.712 -0.4721 -0.3297 -0.1743
13349TIP3    H161538   3.139   5.518  15.755  1.0169  0.8527 -0.2730
13349TIP3    H261539   3.280   5.468  15.732  0.0567 -1.6738 -1.0958
13350TIP3   OH261540   5.939   3.719   3.226 -0.0617  0.5466  0.7093
13350TIP3    H161541   5.878   3.681   3.162  1.3641 -1.5858  0.5054
13350TIP3    H261542   5.883   3.755   3.295 -1.5530 -0.7004  0.1941
13351TIP3   OH261543   5.315   4.983   4.595 -0.0512  0.2846 -0.2314
13351TIP3    H161544   5.238   4.944   4.636 -1.0334  0.8134 -1.4644
13351TIP3    H261545   5.281   5.018   4.512  1.7704 -0.5364 -1.3750
13352TIP3   OH261546   2.010   3.474   0.764  0.4590 -0.0144 -0.4230
13352TIP3    H161547   1.936   3.525   0.730 -1.5171 -1.3632  1.5624
13352TIP3    H261548   2.012   3.395   0.710 -0.0886 -0.3469  0.0393
13353TIP3   OH261549   1.688   2.268   2.353  0.2057 -0.3452 -0.2312
13353TIP3    H161550   1.776   2.305   2.339 -0.6033  1.3549 -1.2879
13353TIP3    H261551   1.690   2.234   2.442  0.9389  2.8296  1.1201
13354TIP3   OH261552   3.419   5.880  14.936  0.3435  0.3537 -0.7354
13354TIP3    H161553   3.478   5.817  14.978  0.0142  0.2600 -0.4018
13354TIP3    H261554   3.446   5.965  14.971  0.5102  0.3484 -0.8526
13355TIP3   OH261555   4.318   5.691   4.842 -0.2693  0.4275 -0.0252
13355TIP3    H161556   4.354   5.604   4.824 -2.9379 -0.8115  0.2693
13355TIP3    H261557   4.289   5.686   4.934 -5.1162 -0.2832 -1.3289
13356TIP3   OH261558   1.660   6.220   1.833 -0.0995  0.3844  0.2176
13356TIP3    H161559   1.667   6.214   1.928 -0.4620 -1.2968  0.1552
13356TIP3    H261560   1.751   6.221   1.803  0.0101 -0.2931  0.5177
13357TIP3   OH261561   3.170   1.750   2.480  0.0618  0.3650  0.3590
13357TIP3    H161562   3.196   1.704   2.400 -0.2946  1.1516 -0.2125
13357TIP3    H261563   3.123   1.683   2.531 -0.3739  0.0711 -0.4208
13358TIP3   OH261564   6.760   3.220  12.935 -0.3207  0.2359 -0.3326
13358TIP3    H161565   6.755   3.222  13.030 -0.7351  0.3974 -0.3515
13358TIP3    H261566   6.846   3.256  12.914 -0.1942  0.1170 -0.0158
13359TIP3   OH261567   4.360   4.346   6.186 -0.0606 -0.4474 -0.8189
13359TIP3    H161568   4.266   4.340   6.167 -0.2905  1.0034 -0.2522
13359TIP3    H261569   4.390   4.421   6.135  0.5022 -0.0534  0.0737
13360TIP3   OH261570   1.869   3.102   3.661 -0.4873 -0.6421 -0.2178
13360TIP3    H161571   1.961   3.078   3.651  0.2767  1.4561  1.2863
13360TIP3    H261572   1.822   3.036   3.610  1.8649 -1.3605 -1.5995
13361TIP3   OH261573   2.855   3.669  17.039  0.3060 -0.0669  0.0578
13361TIP3    H161574   2.837   3.666  17.133  0.4818 -0.1656  0.0885
13361TIP3    H261575   2.903   3.750  17.026  2.4282 -1.1954  0.4475
13362TIP3   OH261576   1.198   0.655   5.728 -0.3330  0.4263 -0.4382
13362TIP3    H161577   1.247   0.722   5.777  2.1889 -1.0519 -0.7374
13362TIP3    H261578   1.147   0.704   5.664  1.6624  2.0866 -0.8626
13363TIP3   OH261579   5.379   3.670  14.079 -0.6638 -0.2400  0.4328
13363TIP3    H161580   5.356   3.606  14.147  0.0477 -1.4528 -0.4222
13363TIP3    H261581   5.464   3.640  14.046  0.5496  2.1708  1.1742
13364TIP3   OH261582   0.285   5.607  13.127 -0.8811 -0.1150  0.0809
13364TIP3    H161583   0.257   5.515  13.121  0.5690 -0.6129  0.4398
13364TIP3    H261584   0.294   5.635  13.036 -0.5923 -0.5808 -0.0393
13365TIP3   OH261585   3.738   4.700  11.323  0.7182 -0.0679  0.3142
13365TIP3    H161586   3.778   4.781  11.292 -0.8335  0.4114 -0.5259
13365TIP3    H261587   3.723   4.649  11.243 -2.3911  0.7457  0.2553
13366TIP3   OH261588   4.817   0.670   2.716 -0.0687  0.3473 -0.2993
13366TIP3    H161589   4.727   0.687   2.688 -0.1310 -0.4776 -0.6390
13366TIP3    H261590   4.865   0.749   2.694 -0.5588  0.5077 -0.8082
13367TIP3   OH261591   2.764   4.738  14.232 -0.0799  0.8575  0.5183
13367TIP3    H161592   2.718   4.670  14.183  0.3933 -0.4098  1.7609
13367TIP3    H261593   2.714   4.747  14.314 -0.1160  2.0018  0.3954
13368TIP3   OH261594   1.991   5.253   2.189  0.2932  0.2620  0.2564
13368TIP3    H161595   1.933   5.176   2.192 -0.8800  1.0749 -0.6503
13368TIP3    H261596   1.934   5.326   2.211  1.2633  0.9596  0.4927
13369TIP3   OH261597   3.410   0.017  13.755 -0.2220 -0.3847  0.5503
13369TIP3    H161598   3.346   0.036  13.686 -0.0690  0.5981  0.6633
13369TIP3    H261599   3.364  -0.041  13.815 -0.4207 -1.0958 -0.2786
13370TIP3   OH261600   5.511   2.316   0.736  0.2668  0.1417  0.4161
13370TIP3    H161601   5.533   2.405   0.762  0.3538 -0.2603  1.8423
13370TIP3    H261602   5.595   2.276   0.713  0.3411  0.1953  0.5900
13371TIP3   OH261603   0.530   2.288  10.505 -0.1339  0.0953 -0.1370
13371TIP3    H161604   0.580   2.257  10.429 -1.2168 -2.2090  0.0036
13371TIP3    H261605   0.480   2.362  10.472  2.0524  1.3900 -0.7076
13372TIP3   OH261606   4.345   0.322  11.753 -0.3955 -0.4132 -0.0559
13372TIP3    H161607   4.257   0.342  11.723 -0.0832  0.6999 -0.2706
13372TIP3    H261608   4.397   0.312  11.673 -0.4091 -1.5368  0.0570
13373TIP3   OH261609   4.505   1.742  13.966 -0.0427  0.6751 -0.2210
13373TIP3    H161610   4.451   1.743  14.045  0.0528 -0.2265 -0.1355
13373TIP3    H261611   4.560   1.820  13.974  1.3012 -0.3692  1.5635
13374TIP3   OH261612   1.966   3.403   2.736 -0.4527  0.0061 -0.2988
13374TIP3    H161613   2.039   3.449   2.777 -1.2054  2.1692 -1.2668
13374TIP3    H261614   2.002   3.366   2.655 -0.5870  1.8094 -1.2150
13375TIP3   OH261615   4.114   2.551   4.425  0.7982  0.4517  0.0816
13375TIP3    H161616   4.175   2.566   4.353 -1.7477 -3.1398 -3.2004
13375TIP3    H261617   4.117   2.457   4.441 -1.3093  0.6434  2.3020
13376TIP3   OH261618   3.651   6.638   0.651  0.0320  0.1403 -0.0906
13376TIP3    H161619   3.642   6.550   0.688 -0.3815  0.7968  1.4236
13376TIP3    H261620   3.667   6.623   0.558 -1.8929 -1.5027 -0.2241
13377TIP3   OH261621   5.593   4.811  16.058  0.4463  0.1978 -0.7489
13377TIP3    H161622   5.555   4.870  16.123  1.8435  0.8312 -0.4852
13377TIP3    H261623   5.558   4.725  16.081  1.4832  0.2714  1.3452
13378TIP3   OH261624   6.717   3.637   0.133 -0.4220 -0.1913  0.4859
13378TIP3    H161625   6.812   3.646   0.132 -0.2964 -1.1190  1.7288
13378TIP3    H261626   6.692   3.633   0.040  0.8604 -0.9380  0.1587
13379TIP3   OH261627   2.225   0.591  15.692 -0.3687  0.0247 -0.6331
13379TIP3    H161628   2.170   0.536  15.748 -0.4860  0.0384 -0.7341
13379TIP3    H261629   2.177   0.597  15.609 -0.6670  0.8072 -0.4127
13380TIP3   OH261630   1.742   1.607   6.642  0.4255  0.4836 -0.0510
13380TIP3    H161631   1.832   1.583   6.663  1.9879  0.0665 -5.6753
13380TIP3    H261632   1.708   1.533   6.592 -1.1519  2.6139 -2.3644
13381TIP3   OH261633   2.712   6.720   4.586  0.4665  0.4282  0.0786
13381TIP3    H161634   2.743   6.768   4.509  0.4183 -0.0036 -0.2147
13381TIP3    H261635   2.781   6.732   4.651  0.1560  1.4365  0.2379
13382TIP3   OH261636   5.407   4.229   5.379 -0.0168  0.2003 -0.6981
13382TIP3    H161637   5.406   4.262   5.469 -0.9337  0.1758 -0.6979
13382TIP3    H261638   5.362   4.145   5.383  0.9212 -0.3377 -0.9893
13383TIP3   OH261639   1.035   6.443   4.520  0.2257 -0.2280 -0.1262
13383TIP3    H161640   1.116   6.416   4.477 -1.0134 -4.1202 -0.4614
13383TIP3    H261641   1.058   6.449   4.612  1.1581 -0.1536 -0.3532
13384TIP3   OH261642   5.711   0.672  14.545  0.1092 -0.3229  0.6038
13384TIP3    H161643   5.805   0.659  14.540  0.3624  1.3200  0.6923
13384TIP3    H261644   5.700   0.749  14.600 -1.0999  1.4675 -1.9183
13385TIP3   OH261645   4.143   1.874  13.259  0.3108  0.0343 -1.0970
13385TIP3    H161646   4.194   1.883  13.339 -2.5745 -1.0093  1.0057
13385TIP3    H261647   4.180   1.940  13.200  1.3362  2.2227  1.7296
13386TIP3   OH261648   4.615   1.184   2.977  0.0020  0.2450  0.1858
13386TIP3    H161649   4.654   1.270   2.962 -1.1802  0.9930  1.2287
13386TIP3    H261650   4.685   1.122   2.954  0.9242  1.4636 -0.4419
13387TIP3   OH261651   5.950   2.787  12.482  0.3508 -0.2450 -0.5069
13387TIP3    H161652   6.031   2.753  12.445  1.3381  0.6677  0.7529
13387TIP3    H261653   5.976   2.862  12.535 -1.3987  0.4908 -0.5985
13388TIP3   OH261654   5.146   0.655  15.655 -0.1350 -0.3838 -0.5876
13388TIP3    H161655   5.155   0.655  15.559 -2.3721 -0.3325 -0.8557
13388TIP3    H261656   5.202   0.726  15.684 -0.0440  0.1380 -1.9605
13389TIP3   OH261657   0.057   3.246  15.041 -0.7410  0.2089 -0.1234
13389TIP3    H161658   0.095   3.272  14.957  0.8241  1.9512  1.0503
13389TIP3    H261659   0.040   3.152  15.032  0.4869  0.1220 -1.9735
13390TIP3   OH261660   4.217   5.903   4.380  0.3629  0.2476  0.6036
13390TIP3    H161661   4.178   5.961   4.315 -1.4146  0.8592  2.1255
13390TIP3    H261662   4.156   5.829   4.385 -0.0842  0.6877  2.2424
13391TIP3   OH261663   2.677   0.723   4.695  0.3061 -0.3944 -0.8131
13391TIP3    H161664   2.584   0.729   4.675  0.4665  0.3750 -1.3882
13391TIP3    H261665   2.685   0.644   4.748 -0.5207 -1.1169 -1.7074
13392TIP3   OH261666   4.897   3.341   1.596  0.0596  0.3639 -0.8359
13392TIP3    H161667   4.857   3.284   1.530  0.6982 -0.8255 -0.2114
13392TIP3    H261668   4.868   3.306   1.680 -0.9382  2.0081 -0.4270
13393TIP3   OH261669   0.256   1.610   3.410 -0.2624  0.3253 -0.1356
13393TIP3    H161670   0.192   1.677   3.429 -0.0007  0.5812 -0.1509
13393TIP3    H261671   0.242   1.588   3.317 -0.0353  0.6974 -0.2590
13394TIP3   OH261672   2.590   2.083  12.206  0.7250 -0.5570  0.4383
13394TIP3    H161673   2.505   2.101  12.247  0.7452 -0.0529  0.2672
13394TIP3    H261674   2.568   2.049  12.120  0.6592  2.6090 -0.9245
13395TIP3   OH261675   4.627   5.640  16.567  0.3334 -0.5462 -0.3249
13395TIP3    H161676   4.628   5.549  16.595 -0.4355 -0.9867 -1.6602
13395TIP3    H261677   4.642   5.637  16.472 -1.6372  0.5567 -0.7257
13396TIP3   OH261678   2.983   0.895  13.824  0.2455  0.2266  0.3268
13396TIP3    H161679   3.021   0.980  13.845 -1.5627  0.8779  1.1413
13396TIP3    H261680   3.047   0.854  13.766  0.5024  2.7573 -1.3222
13397TIP3   OH261681   3.397   6.585   0.354 -0.5487  0.0934  0.2288
13397TIP3    H161682   3.470   6.583   0.292 -1.5416 -1.6448 -0.9882
13397TIP3    H261683   3.407   6.667   0.401  2.6083 -0.4092  0.6196
13398TIP3   OH261684   1.180   1.357  16.635  0.1478  0.0746  0.0765
13398TIP3    H161685   1.235   1.290  16.595  0.2064  0.5243 -0.6140
13398TIP3    H261686   1.231   1.438  16.628 -0.6724  0.5421 -0.7802
13399TIP3   OH261687   3.101   4.201  16.415 -0.4433 -0.4866 -0.2554
13399TIP3    H161688   3.134   4.266  16.478 -0.5098  0.0147 -0.7265
13399TIP3    H261689   3.131   4.233  16.330 -1.1525 -0.6507 -0.5769
13400TIP3   OH261690   5.419   0.911   3.689  0.3677 -0.1557  0.2249
13400TIP3    H161691   5.458   0.977   3.746 -0.8561 -1.6581  2.9973
13400TIP3    H261692   5.488   0.845   3.678 -0.0547 -0.9515  1.9536
13401TIP3   OH261693   4.200   3.476  11.392 -0.1275  0.0209 -0.2685
13401TIP3    H161694   4.266   3.471  11.322  0.1450 -2.0179  0.0538
13401TIP3    H261695   4.186   3.569  11.405  0.7603  0.4749 -2.1607
13402TIP3   OH261696   5.969   3.016   4.720  0.1223  0.1518 -0.3979
13402TIP3    H161697   5.975   2.929   4.760 -2.8273  0.6438  1.3925
13402TIP3    H261698   5.971   2.999   4.626  1.9230 -1.5616 -0.1393
13403TIP3   OH261699   3.012   6.529  15.282  0.4579 -0.4005 -0.3417
13403TIP3    H161700   2.937   6.470  15.270  0.5701 -0.4945 -0.6136
13403TIP3    H261701   3.031   6.560  15.193  1.6934 -1.5670 -0.5214
13404TIP3   OH261702   3.157   5.791  11.419  0.2424 -0.0990  0.4422
13404TIP3    H161703   3.188   5.873  11.458 -0.5006 -0.1017  1.0607
13404TIP3    H261704   3.096   5.755  11.484 -0.7853 -0.2614 -0.5809
13405TIP3   OH261705   3.378   2.098  11.631 -0.6961 -0.5610 -0.1267
13405TIP3    H161706   3.406   2.073  11.543  0.8612  1.0853 -0.1709
13405TIP3    H261707   3.319   2.172  11.617  1.0943  1.0117  0.2081
13406TIP3   OH261708   0.237   6.550   3.853  0.1661  0.3014  0.5246
13406TIP3    H161709   0.234   6.458   3.880 -0.0560  0.1846  0.1051
13406TIP3    H261710   0.289   6.550   3.773 -0.8570  0.3660 -0.1627
13407TIP3   OH261711   3.817   3.567   0.981 -0.0151  0.3669 -0.0136
13407TIP3    H161712   3.877   3.641   0.975  0.0702  0.2815 -0.2231
13407TIP3    H261713   3.859   3.498   0.929 -0.7857  0.6367 -1.0095
13408TIP3   OH261714   4.697   5.986   3.580 -0.1165 -0.1447 -0.3279
13408TIP3    H161715   4.761   5.916   3.571 -0.8767 -0.9485  0.2943
13408TIP3    H261716   4.718   6.048   3.510  1.9085  0.0856  0.4208
13409TIP3   OH261717   2.943   5.366  17.007  0.4328 -0.1906 -0.2215
13409TIP3    H161718   2.984   5.423  17.072  0.3422  1.3258 -1.4280
13409TIP3    H261719   2.970   5.403  16.923 -0.3175 -1.4578 -1.0476
13410TIP3   OH261720   0.876   2.665   2.716  0.0034 -0.4534 -0.1350
13410TIP3    H161721   0.956   2.655   2.664  0.6198  0.9725  0.4856
13410TIP3    H261722   0.815   2.712   2.659  0.5293  0.7280  0.2438
13411TIP3   OH261723   2.630   4.755   6.020 -0.4029 -0.0534 -0.2863
13411TIP3    H161724   2.714   4.781   5.983 -0.0035  1.6147  1.6182
13411TIP3    H261725   2.634   4.659   6.024  2.2607  0.0461  1.5268
13412TIP3   OH261726   4.581   4.958   2.680  0.9825 -0.0705 -0.2514
13412TIP3    H161727   4.620   4.870   2.677  0.3552 -0.3216 -1.3112
13412TIP3    H261728   4.644   5.009   2.731  0.8709 -1.3720  1.2905
13413TIP3   OH261729   0.790   6.470  12.416  0.1665  0.0876 -0.2294
13413TIP3    H161730   0.877   6.480  12.377 -0.1119 -1.3110 -1.3217
13413TIP3    H261731   0.776   6.375  12.417 -1.1350  0.2713  0.4262
13414TIP3   OH261732   2.115   3.242  12.731 -0.0953 -0.2956  0.0437
13414TIP3    H161733   2.117   3.180  12.803 -1.6597  0.2063  0.5586
13414TIP3    H261734   2.102   3.327  12.773  1.2675  0.3184 -0.6971
13415TIP3   OH261735   2.981   3.276   3.765  0.1933 -0.0471  0.4273
13415TIP3    H161736   3.062   3.235   3.734  0.3867  1.1969 -0.8257
13415TIP3    H261737   3.006   3.322   3.845  0.2805 -1.2068  1.0816
13416TIP3   OH261738   4.299   6.098   3.125  0.0981 -0.3422 -0.2636
13416TIP3    H161739   4.304   6.135   3.213 -1.8687  0.1693 -0.3040
13416TIP3    H261740   4.382   6.053   3.112  1.5023  1.7752  0.8448
13417TIP3   OH261741   3.355   0.922  15.694  0.1552  0.0688 -0.1725
13417TIP3    H161742   3.398   0.992  15.645 -0.4760  0.8902  0.4150
13417TIP3    H261743   3.399   0.921  15.779  1.5447 -1.6461 -0.8439
13418TIP3   OH261744   1.319   5.426  10.658 -0.0724 -0.7101  0.0935
13418TIP3    H161745   1.385   5.414  10.589 -2.0353 -0.7571 -1.8859
13418TIP3    H261746   1.260   5.352  10.648 -1.2123  0.0544  0.8622
13419TIP3   OH261747   2.071   3.582   3.462 -0.1016 -0.0637  0.1815
13419TIP3    H161748   1.999   3.531   3.499 -0.0320 -0.3303 -0.0470
13419TIP3    H261749   2.148   3.526   3.471  0.2000  0.4609  0.9827
13420TIP3   OH261750   4.534   6.645   1.698 -0.6446  0.1949  0.3791
13420TIP3    H161751   4.516   6.565   1.649  0.1921  2.5749 -4.3102
13420TIP3    H261752   4.627   6.640   1.718 -0.4948  0.1767 -0.3030
13421TIP3   OH261753   6.353   1.399   2.342 -0.0757 -0.1027 -0.4236
13421TIP3    H161754   6.359   1.477   2.397  1.3866  1.1241 -2.1835
13421TIP3    H261755   6.438   1.394   2.298  0.3518 -3.3881  0.4316
13422TIP3   OH261756   2.285   6.606  16.554  0.4178 -0.3368 -0.1277
13422TIP3    H161757   2.193   6.583  16.571  0.1932 -0.2053 -1.1026
13422TIP3    H261758   2.292   6.697  16.583  0.6535 -0.8084  1.3772
13423TIP3   OH261759   4.673   6.236  14.696 -0.6433 -0.1488  0.2454
13423TIP3    H161760   4.691   6.288  14.617  0.3493  0.2671  0.7342
13423TIP3    H261761   4.750   6.180  14.705 -0.4608  0.2686  1.2945
13424TIP3   OH261762   1.213   3.139  10.722  0.5375 -0.1968  0.1957
13424TIP3    H161763   1.184   3.230  10.715 -1.9795 -0.8345  1.1620
13424TIP3    H261764   1.136   3.087  10.698  1.8764 -2.1118 -0.2637
13425TIP3   OH261765   2.602   0.620   3.635  0.2594  0.3104  0.1587
13425TIP3    H161766   2.640   0.661   3.712 -0.7098  1.7189 -0.0687
13425TIP3    H261767   2.527   0.571   3.669 -0.3630  1.1972  0.0968
13426TIP3   OH261768   5.473   5.561   1.507 -0.6546 -0.1318 -0.2154
13426TIP3    H161769   5.461   5.554   1.412 -0.5099  1.6377 -0.4000
13426TIP3    H261770   5.526   5.640   1.518  3.2334 -2.6222  1.0891
13427TIP3   OH261771   2.922   5.245  13.740 -0.3653  0.4124  0.4406
13427TIP3    H161772   2.920   5.152  13.717 -0.5143  0.4461  0.3100
13427TIP3    H261773   3.014   5.266  13.750 -0.1209  0.8301 -1.9559
13428TIP3   OH261774   0.290   0.564   5.644 -0.6193  0.4079  0.1536
13428TIP3    H161775   0.263   0.631   5.581 -0.5270 -0.1508 -0.4781
13428TIP3    H261776   0.385   0.566   5.642 -0.5372 -1.6688 -1.9790
13429TIP3   OH261777   6.027   0.860  17.146  0.2025  0.0295 -0.4535
13429TIP3    H161778   6.036   0.934  17.206  0.7202  0.2236 -0.7634
13429TIP3    H261779   5.985   0.792  17.198  3.2014 -0.8497  1.0450
13430TIP3   OH261780   5.320   0.671   2.712  1.0071 -0.0265  0.1233
13430TIP3    H161781   5.295   0.618   2.788  0.2657  2.0107  1.3764
13430TIP3    H261782   5.391   0.727   2.744  0.8041  0.7431 -0.7376
13431TIP3   OH261783   5.091   5.171  11.544  0.3377 -0.4766  0.5540
13431TIP3    H161784   5.179   5.209  11.539  1.0424 -2.1440 -0.6388
13431TIP3    H261785   5.074   5.163  11.637  0.7396  1.3734  0.8365
13432TIP3   OH261786   0.493   6.542  16.244 -0.3452 -0.6541 -0.3572
13432TIP3    H161787   0.428   6.609  16.268  1.0112  0.5045  0.2153
13432TIP3    H261788   0.507   6.493  16.326 -0.4580 -0.8830 -0.4737
13433TIP3   OH261789   1.787   5.995  14.944  0.3525  0.2097 -0.4258
13433TIP3    H161790   1.739   5.999  14.861 -1.5622  0.6544  0.6495
13433TIP3    H261791   1.778   5.904  14.972 -2.8672  0.9168  1.3584
13434TIP3   OH261792   3.093   6.613  13.745 -0.0535  0.4797 -0.4225
13434TIP3    H161793   3.096   6.708  13.733 -1.6189  0.4364 -1.6075
13434TIP3    H261794   3.162   6.594  13.808 -1.3500  2.7230  1.8581
13435TIP3   OH261795   2.392   2.312   2.395 -0.6574  0.1156 -0.2623
13435TIP3    H161796   2.443   2.377   2.443 -0.2503 -0.5859  0.2644
13435TIP3    H261797   2.404   2.336   2.303 -0.7593  0.9629 -0.0662
13436TIP3   OH261798   5.188   3.958  13.749  0.0995  0.1616  0.2881
13436TIP3    H161799   5.180   3.987  13.658  2.3074 -0.5723 -0.2039
13436TIP3    H261800   5.173   4.037  13.801  1.0201  1.1044 -0.8202
13437TIP3   OH261801   1.294   4.633   4.043  0.1664 -0.1260  0.7623
13437TIP3    H161802   1.351   4.566   4.079 -0.7089 -1.2864  0.0455
13437TIP3    H261803   1.248   4.668   4.120  0.7007 -0.2591  1.1523
13438TIP3   OH261804   1.620   1.206  13.600 -0.4035 -1.1020  0.4438
13438TIP3    H161805   1.588   1.275  13.543 -4.4824 -2.0187  1.2811
13438TIP3    H261806   1.665   1.252  13.671 -0.1138  0.4109 -0.6804
13439TIP3   OH261807   4.762   3.965  11.257 -0.0843 -0.3085 -0.0926
13439TIP3    H161808   4.752   3.870  11.269  3.1767 -0.8488 -0.7257
13439TIP3    H261809   4.853   3.982  11.281 -0.6112  2.7306  0.0777
13440TIP3   OH261810   1.619   6.514  11.883 -0.0244 -0.4710 -0.1111
13440TIP3    H161811   1.681   6.579  11.851 -1.2218 -0.3470 -2.3554
13440TIP3    H261812   1.673   6.441  11.912  1.1908 -0.1502 -1.4930
13441TIP3   OH261813   2.828   6.288   1.632  0.2204 -0.1264 -0.3892
13441TIP3    H161814   2.836   6.366   1.685 -0.9704  0.5626 -1.1796
13441TIP3    H261815   2.810   6.218   1.695 -3.3707  1.0035  0.0905
13442TIP3   OH261816   5.958   1.977   2.440 -0.5479 -0.4674  0.0118
13442TIP3    H161817   5.906   1.980   2.360 -0.4120  2.5279 -0.0862
13442TIP3    H261818   5.893   1.975   2.510 -0.9242  2.7433 -0.1220
13443TIP3   OH261819   2.804   6.395  14.067  0.7212 -0.5775 -0.1592
13443TIP3    H161820   2.829   6.487  14.058  0.4404 -0.6611 -2.4949
13443TIP3    H261821   2.730   6.396  14.128 -1.3694  1.2236 -2.4799
13444TIP3   OH261822   0.159   3.469  12.114  0.2642  0.0511 -0.0188
13444TIP3    H161823   0.134   3.402  12.051  2.6101 -0.7296 -0.2269
13444TIP3    H261824   0.248   3.444  12.142  0.5980  2.2009  1.0878
13445TIP3   OH261825   0.110   0.349  16.459  0.0708  0.2075  0.2460
13445TIP3    H161826   0.100   0.344  16.364 -0.1459 -1.2353  0.3305
13445TIP3    H261827   0.120   0.258  16.488  2.7739  0.7360  1.3358
13446TIP3   OH261828   3.071   1.493   2.726  0.3915 -0.1330  0.1112
13446TIP3    H161829   2.989   1.446   2.710  0.6512 -0.2527 -0.9362
13446TIP3    H261830   3.134   1.450   2.669  0.9338  0.6599  0.1040
13447TIP3   OH261831   1.797   4.867  11.294 -0.3429  0.1387 -0.2512
13447TIP3    H161832   1.879   4.820  11.286  0.0142  0.6873  0.1173
13447TIP3    H261833   1.731   4.807  11.259  0.4165  0.3673 -2.1471
13448TIP3   OH261834   4.090   3.515  17.098 -0.3923 -0.0843  0.1843
13448TIP3    H161835   4.023   3.582  17.081  0.7706  0.8762 -0.7833
13448TIP3    H261836   4.041   3.442  17.135 -1.9627  0.6427 -0.3459
13449TIP3   OH261837   2.859   5.592   2.115 -0.3865 -0.1079 -0.1719
13449TIP3    H161838   2.898   5.664   2.066 -0.2547 -1.1413 -1.6743
13449TIP3    H261839   2.933   5.550   2.158 -0.4387  0.5152  0.5472
13450TIP3   OH261840   5.214   3.625   6.119  0.1092 -0.6975 -0.3319
13450TIP3    H161841   5.139   3.627   6.059  0.1617 -0.6967 -0.3985
13450TIP3    H261842   5.290   3.623   6.061  0.1564 -0.8626 -0.2650
13451TIP3   OH261843   3.218   2.907   5.225 -0.0345 -0.4860 -0.2364
13451TIP3    H161844   3.172   2.985   5.191 -0.3743  0.6461  2.5776
13451TIP3    H261845   3.159   2.834   5.205 -0.3968  0.1476 -1.6217
13452TIP3   OH261846   5.672   3.039   4.883  0.4729 -0.3463 -0.2048
13452TIP3    H161847   5.750   3.092   4.863 -0.3485  0.9992  0.0293
13452TIP3    H261848   5.623   3.092   4.945 -2.1077  0.2555 -2.5679
13453TIP3   OH261849   5.870   4.394   5.582 -0.3173 -0.4362  0.2932
13453TIP3    H161850   5.801   4.381   5.647  0.1013  1.3691  1.1668
13453TIP3    H261851   5.945   4.346   5.617 -1.0478 -2.3549 -0.6305
13454TIP3   OH261852   1.549   3.590  12.811 -0.0437  0.7250 -0.2055
13454TIP3    H161853   1.552   3.547  12.896  0.8005 -0.1734 -0.6810
13454TIP3    H261854   1.458   3.580  12.783 -0.1566  0.3878  0.2568
13455TIP3   OH261855   1.377   4.265  15.023  0.1773 -0.1854  0.5005
13455TIP3    H161856   1.413   4.350  15.048  1.7112 -0.5607 -0.3024
13455TIP3    H261857   1.453   4.206  15.023 -0.6224 -1.2567 -0.2734
13456TIP3   OH261858   2.563   1.544   3.928 -0.7750 -0.3137 -0.1751
13456TIP3    H161859   2.620   1.584   3.863  0.0954 -3.2075 -1.3494
13456TIP3    H261860   2.477   1.540   3.886 -0.7184 -0.2638 -0.2936
13457TIP3   OH261861   4.093   3.684   4.813  0.2141  0.2879 -0.2759
13457TIP3    H161862   4.149   3.662   4.887 -0.1673 -0.7809 -0.2836
13457TIP3    H261863   4.111   3.617   4.748 -2.1733 -1.0652  0.3227
13458TIP3   OH261864   6.714   6.063   1.792 -0.4147  0.1361  0.0505
13458TIP3    H161865   6.635   6.106   1.825 -0.9721 -1.2529  0.5865
13458TIP3    H261866   6.784   6.096   1.847 -0.5829  1.4103 -0.4493
13459TIP3   OH261867   6.682   3.258   1.634  0.0349 -0.7312  0.6691
13459TIP3    H161868   6.755   3.319   1.641 -0.7478  0.1461  1.7308
13459TIP3    H261869   6.700   3.206   1.556  0.9124  0.6295 -0.0702
13460TIP3   OH261870   5.370   6.305  14.610 -0.1436 -0.1566  0.6246
13460TIP3    H161871   5.365   6.369  14.539  1.6056  0.7710  1.2781
13460TIP3    H261872   5.450   6.327  14.657 -1.2530 -0.7073  2.9458
13461TIP3   OH261873   3.514   3.367   4.158 -0.5454  0.5257  0.1485
13461TIP3    H161874   3.609   3.354   4.157 -0.6007 -0.1972  1.6763
13461TIP3    H261875   3.481   3.310   4.088  0.1003  0.5377 -0.1756
13462TIP3   OH261876   6.743   2.247  11.872  0.1432 -0.2350 -0.5524
13462TIP3    H161877   6.701   2.170  11.834  0.6376 -0.2624 -1.0478
13462TIP3    H261878   6.675   2.286  11.928  0.0868 -1.3784  0.2136
13463TIP3   OH261879   4.882   5.845   2.608  0.1059 -0.0240 -0.6119
13463TIP3    H161880   4.834   5.856   2.525  1.2008 -1.4939 -1.5083
13463TIP3    H261881   4.974   5.862   2.585  0.0976  3.0382  1.1311
13464TIP3   OH261882   6.203   0.504   2.830 -0.0434 -0.7222 -0.2014
13464TIP3    H161883   6.135   0.470   2.772 -1.7561  2.8090 -0.4778
13464TIP3    H261884   6.185   0.598   2.837  2.3652 -0.3184  3.0512
13465TIP3   OH261885   1.163   1.335  12.778 -0.1644 -0.0009  0.2763
13465TIP3    H161886   1.189   1.245  12.792  0.2157  0.2971  1.6511
13465TIP3    H261887   1.141   1.368  12.866 -0.2601  1.2456 -0.1897
13466TIP3   OH261888   0.388   2.857  11.622 -0.3690 -0.5408  0.5552
13466TIP3    H161889   0.442   2.827  11.695  1.5966  0.5869 -0.3540
13466TIP3    H261890   0.447   2.911  11.570 -1.4075 -2.0874 -2.4155
13467TIP3   OH261891   1.194   1.039  14.411 -0.0297  0.1421  0.0366
13467TIP3    H161892   1.113   1.011  14.368 -0.1569 -0.6082  0.7283
13467TIP3    H261893   1.200   1.133  14.393 -0.4084 -0.0311 -1.0473
13468TIP3   OH261894   4.282   2.483   6.097  0.3539  0.0147 -0.4624
13468TIP3    H161895   4.273   2.394   6.129  0.1997 -0.1789 -1.0362
13468TIP3    H261896   4.259   2.538   6.172  0.7188 -0.4190 -0.0288
13469TIP3   OH261897   0.801   2.861   4.900  0.7964 -0.4718 -0.2181
13469TIP3    H161898   0.864   2.879   4.970  0.1053 -4.1824  1.6428
13469TIP3    H261899   0.766   2.774   4.922 -1.4107 -0.6846 -3.8177
13470TIP3   OH261900   0.361   2.029  14.215 -0.2028 -0.1500 -0.8234
13470TIP3    H161901   0.432   2.042  14.278 -0.2312  1.8638 -1.1458
13470TIP3    H261902   0.354   2.113  14.169 -0.2682 -1.4934 -3.4425
13471TIP3   OH261903   1.880   0.018  17.206  0.1527 -0.4437 -0.2192
13471TIP3    H161904   1.958  -0.034  17.184 -0.1382 -0.4801 -1.1991
13471TIP3    H261905   1.900   0.054  17.292  1.7783  0.5334 -0.9471
13472TIP3   OH261906   4.411   4.781  15.083 -0.1689 -0.5291  0.9465
13472TIP3    H161907   4.370   4.866  15.069 -1.5438 -1.3647 -0.3827
13472TIP3    H261908   4.502   4.802  15.106 -0.1305  1.2879 -0.6104
13473TIP3   OH261909   3.741   4.640   2.196 -0.0098  0.1306 -0.2865
13473TIP3    H161910   3.668   4.598   2.242 -0.6043  2.0291  0.5785
13473TIP3    H261911   3.763   4.578   2.126 -1.2979 -1.2796  0.4837
13474TIP3   OH261912   3.780   2.854  13.784  0.0551  0.1973  0.0790
13474TIP3    H161913   3.812   2.942  13.765 -0.8323  0.5827  0.3450
13474TIP3    H261914   3.703   2.843  13.728 -1.0358  0.3628  1.4881
13475TIP3   OH261915   6.200   4.171  14.570  0.1414 -0.0816  0.1532
13475TIP3    H161916   6.234   4.177  14.659  0.4444  2.7876 -0.0404
13475TIP3    H261917   6.272   4.134  14.519  0.2209 -1.0649  0.9514
13476TIP3   OH261918   5.926   0.729  16.612 -0.8711  0.9891 -0.5203
13476TIP3    H161919   6.004   0.727  16.556  1.2599  0.3846  2.2189
13476TIP3    H261920   5.921   0.640  16.648 -3.2204  0.8551 -1.0735
13477TIP3   OH261921   2.618   0.126  17.223  0.6230  0.3307 -0.4925
13477TIP3    H161922   2.534   0.171  17.225  1.4337  1.8857  1.3266
13477TIP3    H261923   2.600   0.040  17.261 -0.2244  0.4667 -0.5653
13478TIP3   OH261924   5.159   3.811  13.171 -0.0260 -0.6891 -0.0041
13478TIP3    H161925   5.240   3.773  13.137 -0.5544 -1.5094 -0.3708
13478TIP3    H261926   5.125   3.864  13.099 -1.7625 -3.3651 -1.2918
13479TIP3   OH261927   1.099   1.116  11.194  0.1421 -0.1213  0.0885
13479TIP3    H161928   1.119   1.187  11.134  0.2173 -0.0439  0.2039
13479TIP3    H261929   1.018   1.143  11.238 -0.1224 -0.3545 -0.2525
13480TIP3   OH261930   4.877   6.700   6.679  0.0472 -0.2128 -0.4332
13480TIP3    H161931   4.950   6.658   6.723  0.6786  0.7250 -0.5503
13480TIP3    H261932   4.899   6.793   6.680 -1.4727  0.1726  0.1362
13481TIP3   OH261933   6.341   0.298  13.833 -0.2141 -0.0056  0.0481
13481TIP3    H161934   6.247   0.301  13.816 -0.2748  0.1933  0.4106
13481TIP3    H261935   6.353   0.353  13.911  0.3968  1.2874 -0.9105
13482TIP3   OH261936   0.344   6.393  13.640 -0.6547 -0.3891 -0.6016
13482TIP3    H161937   0.270   6.450  13.617 -1.4657 -1.4344 -0.6612
13482TIP3    H261938   0.391   6.379  13.557 -0.6703 -0.1143 -0.6575
13483TIP3   OH261939   3.343   2.524  11.471 -0.2268  0.5868 -0.3074
13483TIP3    H161940   3.330   2.605  11.521  0.3301  0.0469  0.7780
13483TIP3    H261941   3.419   2.542  11.415 -0.3464  0.9432 -0.3531
13484TIP3   OH261942   2.813   1.920  16.776  0.2253 -0.2716  0.2697
13484TIP3    H161943   2.801   1.862  16.701  1.0939  1.0269 -0.9311
13484TIP3    H261944   2.725   1.953  16.795 -0.0161 -0.6989 -0.0909
13485TIP3   OH261945   3.301   3.093   2.488  0.2108 -0.0241 -0.2004
13485TIP3    H161946   3.289   3.146   2.567 -1.7806 -0.4403 -0.1749
13485TIP3    H261947   3.328   3.155   2.421 -1.1025  0.8850  0.0772
13486TIP3   OH261948   5.664   1.775  13.025 -0.2283 -0.2653 -0.1252
13486TIP3    H161949   5.711   1.854  12.996 -1.5307  0.3978 -0.5465
13486TIP3    H261950   5.714   1.744  13.100  0.5466  0.7393 -0.1894
13487TIP3   OH261951   5.180   4.150  15.438 -0.4539  0.5866 -0.7262
13487TIP3    H161952   5.214   4.178  15.352  1.3652  2.9112  0.6343
13487TIP3    H261953   5.252   4.167  15.499 -1.0804 -2.5341  1.1076
13488TIP3   OH261954   4.464   3.575   5.293 -0.1958  0.8772  0.4302
13488TIP3    H161955   4.494   3.603   5.206  0.9950  1.4018  0.9789
13488TIP3    H261956   4.535   3.520   5.325 -1.5023 -0.9446  0.2993
13489TIP3   OH261957   4.391   1.294  12.736 -0.6631 -0.0048  0.5677
13489TIP3    H161958   4.300   1.309  12.761 -1.2625  0.2486 -1.6273
13489TIP3    H261959   4.398   1.199  12.727 -0.8760  0.0224  0.1275
13490TIP3   OH261960   6.196   6.484   0.098 -0.0056  0.3163  0.2743
13490TIP3    H161961   6.278   6.524   0.127 -0.4330  0.7251  0.9624
13490TIP3    H261962   6.168   6.431   0.173 -0.0565 -0.3330 -0.1903
13491TIP3   OH261963   3.071   2.069  15.916 -0.1661 -0.3122 -0.4252
13491TIP3    H161964   3.002   2.134  15.907 -2.1593 -2.4746 -2.0088
13491TIP3    H261965   3.145   2.117  15.952 -1.3658  2.9039 -1.8734
13492TIP3   OH261966   2.322   5.999  12.794 -0.5513  0.0481  0.2092
13492TIP3    H161967   2.323   5.930  12.728 -2.6617  0.2015 -0.0557
13492TIP3    H261968   2.414   6.017  12.811  0.0571 -0.8252 -1.8163
13493TIP3   OH261969   2.259   4.399   1.504 -0.3879 -0.0092  0.6181
13493TIP3    H161970   2.167   4.426   1.507 -0.0946  1.0356  0.7491
13493TIP3    H261971   2.287   4.399   1.595 -0.2055 -0.1326  0.5620
13494TIP3   OH261972   4.698   3.381   2.334  0.2431  0.2020 -0.2860
13494TIP3    H161973   4.725   3.420   2.417  2.4600 -0.4210 -0.6482
13494TIP3    H261974   4.608   3.352   2.349  0.9271 -0.8824  2.2747
13495TIP3   OH261975   6.313   5.726   0.614 -0.1625  0.6696  0.2482
13495TIP3    H161976   6.297   5.796   0.551  0.6700  0.5187 -0.1522
13495TIP3    H261977   6.406   5.736   0.638 -0.2263  0.1576  0.7459
13496TIP3   OH261978   1.518   2.875  11.727  0.1712 -0.0560  0.2920
13496TIP3    H161979   1.602   2.832  11.710  0.0303 -0.5452  0.7902
13496TIP3    H261980   1.477   2.821  11.795 -1.5238 -1.1225 -1.4973
13497TIP3   OH261981   4.293   0.598  15.446 -0.2885  0.2777  0.2419
13497TIP3    H161982   4.334   0.515  15.470 -1.8810 -0.7361 -0.3864
13497TIP3    H261983   4.282   0.644  15.530  2.5046  0.8493  0.4009
13498TIP3   OH261984   6.584   2.113  15.720  0.0073 -0.1569 -0.2659
13498TIP3    H161985   6.516   2.130  15.655 -0.7142 -1.0850  0.2199
13498TIP3    H261986   6.543   2.132  15.804 -0.1392 -2.0430  0.1328
13499TIP3   OH261987   5.736   3.271   3.899  0.0560  0.5363 -0.1164
13499TIP3    H161988   5.731   3.310   3.812 -1.2681  1.5939  0.3933
13499TIP3    H261989   5.830   3.267   3.919  0.3223  1.1874 -1.1977
13500TIP3   OH261990   2.907   0.907   6.695  0.1040  0.3729 -0.0717
13500TIP3    H161991   2.817   0.932   6.674 -0.3174 -1.0353 -0.0611
13500TIP3    H261992   2.928   0.837   6.633  1.6369  1.4723 -0.8526
13501TIP3   OH261993   1.978   3.192   0.576  0.0692 -0.0679 -0.2418
13501TIP3    H161994   2.000   3.123   0.639  0.4099 -0.9302 -1.2668
13501TIP3    H261995   1.897   3.161   0.534  0.3462  0.0459 -0.8673
13502TIP3   OH261996   3.317   2.228  12.743 -0.1403  0.3709  0.2634
13502TIP3    H161997   3.244   2.240  12.683  1.4809  0.6517 -1.7244
13502TIP3    H261998   3.337   2.316  12.776  1.6852  0.9624 -2.1752
13503TIP3   OH261999   6.303   3.551   1.903  0.4786 -0.2671  0.3070
13503TIP3    H162000   6.269   3.640   1.892 -1.1778 -0.8676  0.2222
13503TIP3    H262001   6.391   3.554   1.866 -0.3576  0.8158 -1.7761
13504TIP3   OH262002   3.116   0.741  11.773  0.3210 -0.1593 -0.5509
13504TIP3    H162003   3.173   0.816  11.761 -0.5559  0.9130  1.4078
13504TIP3    H262004   3.175   0.668  11.792  1.1271  0.2800 -1.3031
13505TIP3   OH262005   6.700   1.000   3.208  0.2728  0.3243  0.3054
13505TIP3    H162006   6.611   1.016   3.238  0.7292 -1.2848  2.8873
13505TIP3    H262007   6.697   0.911   3.172  0.8160  0.2079  0.5309
13506TIP3   OH262008   0.337   5.835   2.989 -0.2496 -0.0302  0.1309
13506TIP3    H162009   0.246   5.824   3.014 -0.2595 -2.3664 -0.6155
13506TIP3    H262010   0.377   5.750   3.007  0.9004 -0.2572 -2.8601
13507TIP3   OH262011   0.408   0.545   1.750  0.6013 -0.2484 -0.0170
13507TIP3    H162012   0.456   0.476   1.703  0.7185  0.3201 -0.7609
13507TIP3    H262013   0.322   0.545   1.709  0.9824  0.8485 -0.8715
13508TIP3   OH262014   5.480   6.374  11.680  0.0467  0.1939  0.7527
13508TIP3    H162015   5.425   6.390  11.603  0.0557 -1.0834  0.4669
13508TIP3    H262016   5.557   6.329  11.646  1.0072  1.4096  1.2387
13509TIP3   OH262017   0.883   5.348   0.629 -0.0628 -0.1035  0.2992
13509TIP3    H162018   0.865   5.260   0.597  0.7155  0.6581 -2.5570
13509TIP3    H262019   0.834   5.405   0.569  0.4394  1.4541  1.3207
13510TIP3   OH262020   4.097   5.055  16.509  0.2050  0.1112 -0.0610
13510TIP3    H162021   4.056   5.008  16.436 -1.5059  1.6753 -0.1873
13510TIP3    H262022   4.038   5.127  16.527  3.1018  2.8218 -0.4920
13511TIP3   OH262023   1.087   4.886  11.840 -0.3454  0.6709 -0.5486
13511TIP3    H162024   1.117   4.961  11.892  0.8220 -0.3413  0.2704
13511TIP3    H262025   1.152   4.878  11.770 -0.4676  0.4240 -0.6338
13512TIP3   OH262026   6.755   0.933  10.715  0.3933 -0.0797 -0.4364
13512TIP3    H162027   6.685   0.973  10.767 -0.9553 -2.9592  0.1143
13512TIP3    H262028   6.828   0.923  10.777  0.0723 -0.2194 -0.0770
13513TIP3   OH262029   0.588   3.274   3.135 -0.0907  0.1601  0.3444
13513TIP3    H162030   0.608   3.290   3.227  1.3232 -0.9005  0.2571
13513TIP3    H262031   0.546   3.188   3.133  1.4375 -0.6094 -0.1358
13514TIP3   OH262032   3.363   5.285  10.718 -0.3014 -0.0908  0.4905
13514TIP3    H162033   3.297   5.352  10.735  0.0937  0.3442  0.3686
13514TIP3    H262034   3.420   5.325  10.651  0.5903 -0.0958  1.2252
13515TIP3   OH262035   1.961   0.524  15.908 -0.7660 -0.8192 -0.1549
13515TIP3    H162036   2.011   0.451  15.870  1.7973  0.7245  0.0178
13515TIP3    H262037   2.000   0.538  15.994 -1.1551  0.7991 -0.2073
13516TIP3   OH262038   0.754   5.597   3.192 -0.2810 -0.5141  0.4892
13516TIP3    H162039   0.800   5.666   3.144 -0.8394 -1.9048 -2.1797
13516TIP3    H262040   0.788   5.604   3.281  2.4078  0.8255 -0.5351
13517TIP3   OH262041   1.888   3.206   0.059 -0.2574 -0.4737  0.4614
13517TIP3    H162042   1.856   3.167  -0.022 -0.1279  0.4485 -0.0566
13517TIP3    H262043   1.863   3.299   0.051 -0.3819 -0.4081  1.5467
13518TIP3   OH262044   2.431   3.542  11.734  0.4202  0.4677  0.4119
13518TIP3    H162045   2.408   3.456  11.769  1.7432 -0.7862 -1.5843
13518TIP3    H262046   2.526   3.541  11.726  0.3518  1.5048 -1.0437
13519TIP3   OH262047   6.381   5.464   3.453 -0.7030 -0.7111  0.4878
13519TIP3    H162048   6.472   5.493   3.465 -1.0818 -0.1628  2.3517
13519TIP3    H262049   6.386   5.396   3.386  0.5990  1.7864 -2.1987
13520TIP3   OH262050   6.416   0.523   6.036 -0.7874  0.2905  0.6542
13520TIP3    H162051   6.439   0.437   6.000 -2.0712  0.1611  0.0722
13520TIP3    H262052   6.332   0.508   6.079 -1.0128  1.2578  0.5639
13521TIP3   OH262053   0.258   3.150  13.560 -1.0283 -0.2575 -0.0897
13521TIP3    H162054   0.193   3.220  13.566  0.3052  1.2230 -1.9026
13521TIP3    H262055   0.330   3.179  13.617 -1.0189 -0.8125  0.1863
13522TIP3   OH262056   4.275   5.049  13.570  0.2557  0.4376  0.0240
13522TIP3    H162057   4.198   5.103  13.550  0.8370  1.2024 -0.2282
13522TIP3    H262058   4.289   5.063  13.664  0.6206  1.0422 -0.1109
13523TIP3   OH262059   1.675   1.675  15.945 -0.4641  0.5672  0.1349
13523TIP3    H162060   1.667   1.754  15.892  0.7417 -0.1304 -1.1402
13523TIP3    H262061   1.711   1.609  15.886  0.4634 -0.3913  1.6866
13524TIP3   OH262062   2.451   2.610  12.816  0.2518  0.1445 -0.2572
13524TIP3    H162063   2.444   2.517  12.795  1.7196  0.1641 -1.0334
13524TIP3    H262064   2.536   2.618  12.860  0.3132  1.1488 -0.5218
13525TIP3   OH262065   2.780   1.647   4.129 -0.3096 -0.0379 -0.3825
13525TIP3    H162066   2.698   1.653   4.080 -1.4294 -1.3144  1.2168
13525TIP3    H262067   2.799   1.553   4.131 -0.4789 -0.0778  1.8048
13526TIP3   OH262068   1.823   0.128  12.244  0.2092  0.4301 -0.1024
13526TIP3    H162069   1.838   0.052  12.188 -1.0063 -0.5910  0.8869
13526TIP3    H262070   1.907   0.141  12.289  0.4611 -0.2664 -0.3506
13527TIP3   OH262071   2.059   5.913   3.263  0.0613 -0.4520 -0.2196
13527TIP3    H162072   2.138   5.863   3.245 -0.7359 -2.0806  0.5447
13527TIP3    H262073   2.088   5.985   3.320  0.9628 -1.1646  0.2458
13528TIP3   OH262074   6.432   2.618  15.786 -0.1652  0.9053  0.7704
13528TIP3    H162075   6.461   2.596  15.874  0.9431  1.2347  0.5036
13528TIP3    H262076   6.340   2.590  15.783 -0.0142  0.2517  1.7908
13529TIP3   OH262077   3.972   0.937   2.583  0.3635  0.1555 -0.0942
13529TIP3    H162078   3.881   0.920   2.560  0.0161  1.2817  0.3820
13529TIP3    H262079   3.979   0.917   2.676  0.7011 -0.2837 -0.2091
13530TIP3   OH262080   3.944   1.372  10.427  0.3327 -0.0626 -0.0765
13530TIP3    H162081   3.978   1.285  10.449 -0.0059 -0.1930 -0.0641
13530TIP3    H262082   3.850   1.366  10.443  0.4974  0.7464  1.3357
13531TIP3   OH262083   5.483   3.056  17.270 -0.5139  0.0426  0.9654
13531TIP3    H162084   5.512   3.124  17.210 -1.0998  0.8613  1.5982
13531TIP3    H262085   5.550   2.987  17.263 -0.3168  0.3351 -0.2483
13532TIP3   OH262086   2.393   0.494   1.491 -0.5014  0.1970 -0.3249
13532TIP3    H162087   2.440   0.424   1.536  1.9782  1.2269 -1.1617
13532TIP3    H262088   2.350   0.450   1.417 -2.0438 -0.9804  1.2057
13533TIP3   OH262089   3.159   0.711   3.831 -0.2222  0.1747  0.9538
13533TIP3    H162090   3.100   0.730   3.904 -0.6145  1.7498  0.2438
13533TIP3    H262091   3.105   0.715   3.753  0.1801 -1.5853  0.5319
13534TIP3   OH262092   2.208   6.355  11.115  0.1754 -0.2484  0.1638
13534TIP3    H162093   2.248   6.269  11.100 -1.3643 -0.9089 -0.3185
13534TIP3    H262094   2.114   6.340  11.106 -0.1377  1.4601  0.2622
13535TIP3   OH262095   4.011   1.380   5.311 -0.0709  0.4339  0.2990
13535TIP3    H162096   3.942   1.383   5.378 -0.1992  1.4119  0.1436
13535TIP3    H262097   4.043   1.290   5.314 -1.0682  0.0663  0.6667
13536TIP3   OH262098   0.632   0.713   3.007  0.5630 -0.0357  0.4103
13536TIP3    H162099   0.620   0.793   2.956 -2.3453  0.3601  1.5675
13536TIP3    H262100   0.632   0.742   3.098  0.8308 -1.2463  0.8199
13537TIP3   OH262101   4.262   5.617   2.073  0.1154  0.5797 -0.4189
13537TIP3    H162102   4.347   5.623   2.028  0.5622 -1.4048  0.0591
13537TIP3    H262103   4.209   5.562   2.016  0.0130 -0.2573  0.4475
13538TIP3   OH262104   0.785   6.748  17.335  0.1367  0.0490 -0.4735
13538TIP3    H162105   0.851   6.742  17.266 -0.5061  1.6819 -1.2916
13538TIP3    H262106   0.792   6.838  17.366 -1.8839  0.3551 -0.7929
13539TIP3   OH262107   5.214   2.344  12.875  0.7109 -0.4812  0.1491
13539TIP3    H162108   5.265   2.277  12.921  0.1548  0.3879  2.1841
13539TIP3    H262109   5.124   2.329  12.904  0.0928 -0.6833 -1.7412
13540TIP3   OH262110   4.768   4.384   5.226 -0.0010 -0.5619  0.6774
13540TIP3    H162111   4.731   4.373   5.139 -0.7657 -2.3379  1.1728
13540TIP3    H262112   4.693   4.400   5.283  0.3180 -0.9971  1.2357
13541TIP3   OH262113   2.331   5.757   0.639  0.5526  0.1179  0.1306
13541TIP3    H162114   2.356   5.667   0.621  2.2593  0.9384 -2.0840
13541TIP3    H262115   2.275   5.781   0.565 -0.9300  0.5582  1.3332
13542TIP3   OH262116   0.040   2.137  10.703 -0.1682  0.0037 -0.1324
13542TIP3    H162117   0.073   2.227  10.709 -1.1295  0.2780  1.4947
13542TIP3    H262118  -0.040   2.145  10.651 -0.0596  0.0210 -0.2995
13543TIP3   OH262119   0.843   3.385   2.027  0.5294  0.1219 -0.0551
13543TIP3    H162120   0.797   3.439   2.092 -0.4605 -0.4272 -0.2785
13543TIP3    H262121   0.821   3.295   2.051  1.1243 -0.1304 -0.4463
13544TIP3   OH262122   5.474   4.406  11.708 -0.8139  0.3216 -0.5028
13544TIP3    H162123   5.472   4.332  11.648 -0.1833  0.7236 -1.0302
13544TIP3    H262124   5.401   4.462  11.680 -2.5052 -0.9600  1.0630
13545TIP3   OH262125   1.271   2.733  12.189  0.3127 -0.5632 -0.1011
13545TIP3    H162126   1.313   2.684  12.260 -1.2481  0.4040  1.5760
13545TIP3    H262127   1.320   2.815  12.185 -0.3013 -0.1417  0.6883
13546TIP3   OH262128   5.136   3.862   1.853  0.0042  0.5490  0.1917
13546TIP3    H162129   5.145   3.955   1.874 -2.5389  0.7359  0.7903
13546TIP3    H262130   5.133   3.818   1.938  1.5834 -0.1642 -0.0919
13547TIP3   OH262131   5.192   1.500   6.080 -0.1066  0.3918 -0.0438
13547TIP3    H162132   5.133   1.571   6.105  0.4880  0.8000  0.2075
13547TIP3    H262133   5.230   1.470   6.162  0.5892  0.6178 -0.2774
13548TIP3   OH262134   4.149   4.240   0.535  0.6324  0.0153  0.1761
13548TIP3    H162135   4.205   4.200   0.601  0.5063  0.1238  0.3484
13548TIP3    H262136   4.142   4.331   0.561 -0.4211 -0.2056  0.7055
13549TIP3   OH262137   6.468   5.661   3.680  0.9918  0.2747 -0.0094
13549TIP3    H162138   6.459   5.675   3.586  2.4219  1.2340 -0.0374
13549TIP3    H262139   6.378   5.669   3.714  0.0174 -2.6962 -1.5404
13550TIP3   OH262140   3.409   1.166  13.425  0.2643 -0.3382  0.6757
13550TIP3    H162141   3.408   1.261  13.435 -1.8720 -0.2104 -0.2336
13550TIP3    H262142   3.490   1.148  13.377  0.0586  1.1797 -0.3218
13551TIP3   OH262143   0.300   4.041  16.049  0.5659 -0.4504 -0.1661
13551TIP3    H162144   0.347   4.085  16.120 -0.2566  0.4385 -0.1479
13551TIP3    H262145   0.355   4.056  15.972  2.3568 -2.9020  0.5164
13552TIP3   OH262146   2.079   3.312  13.573 -0.3751 -1.0020  0.2510
13552TIP3    H162147   2.152   3.251  13.574 -0.2937 -0.9060  0.1990
13552TIP3    H262148   2.001   3.257  13.568 -0.3244 -1.1153  0.6581
13553TIP3   OH262149   3.765   6.182   2.733 -0.6129 -0.0250  0.2095
13553TIP3    H162150   3.814   6.218   2.660  0.3001  1.2329  1.3774
13553TIP3    H262151   3.819   6.203   2.810 -2.6654  0.8385  1.4822
13554TIP3   OH262152   4.572   2.428   2.647 -0.1348 -0.8710 -0.7405
13554TIP3    H162153   4.638   2.410   2.714  1.1039 -2.3848 -2.2834
13554TIP3    H262154   4.536   2.513   2.672 -0.0311 -1.5320  2.0399
13555TIP3   OH262155   0.824   3.805  13.773 -0.7373  0.0354 -0.6862
13555TIP3    H162156   0.772   3.737  13.814  0.4682 -0.4714  0.0508
13555TIP3    H262157   0.839   3.869  13.843  1.5779 -0.9747 -0.1624
13556TIP3   OH262158   2.560   1.292  17.393  0.0335  0.0932 -0.0021
13556TIP3    H162159   2.626   1.266  17.458  2.0100  0.4140 -1.7663
13556TIP3    H262160   2.570   1.229  17.322 -0.3836  1.1720 -1.0513
13557TIP3   OH262161   2.395   1.327  16.488  0.1508 -0.2324 -0.2028
13557TIP3    H162162   2.419   1.243  16.526 -0.4726 -0.0399  0.6545
13557TIP3    H262163   2.388   1.310  16.395 -0.0812 -1.1644 -0.0260
13558TIP3   OH262164   1.947   0.057   4.095  0.5919  0.0240 -0.3253
13558TIP3    H162165   1.896   0.042   4.175 -1.0348  0.3635 -1.2331
13558TIP3    H262166   2.035   0.025   4.115 -0.2486 -1.6500  0.9651
13559TIP3   OH262167   1.030   5.648   0.011  0.3292  0.3359  0.8094
13559TIP3    H162168   0.950   5.698  -0.002  0.3717  0.2422  0.1866
13559TIP3    H262169   1.101   5.710  -0.006  0.3965 -0.3114 -1.6353
13560TIP3   OH262170   4.673   4.762  15.145 -0.7003  0.1877  0.4221
13560TIP3    H162171   4.706   4.672  15.137 -1.0749  0.1072 -0.4182
13560TIP3    H262172   4.714   4.796  15.224  0.7770 -0.1707 -0.1577
13561TIP3   OH262173   0.901   1.683  16.237 -1.0238 -0.1498  0.1871
13561TIP3    H162174   0.988   1.654  16.263 -0.7147 -1.5728 -2.1081
13561TIP3    H262175   0.856   1.702  16.319  1.5639  1.0948  1.4075
13562TIP3   OH262176   2.955   4.541  16.269 -0.3817 -0.4657  0.4243
13562TIP3    H162177   2.934   4.530  16.361  0.1621 -1.9224  0.4014
13562TIP3    H262178   3.012   4.618  16.267 -1.2908  0.2384  1.1503
13563TIP3   OH262179   1.932   6.672  10.401  0.1949  0.0259 -0.1975
13563TIP3    H162180   1.941   6.657  10.495  1.8082 -0.2631 -0.3552
13563TIP3    H262181   1.852   6.627  10.376  0.0886 -0.4333  0.9415
13564TIP3   OH262182   1.227   4.491   1.730  0.7765 -0.0875 -0.1596
13564TIP3    H162183   1.299   4.507   1.791  1.3871 -0.9938 -0.6244
13564TIP3    H262184   1.254   4.534   1.649  1.2207 -1.1853 -0.6074
13565TIP3   OH262185   4.493   4.806   1.477 -0.7630  0.0738 -0.2742
13565TIP3    H162186   4.495   4.893   1.517  4.3365 -0.3949  1.2119
13565TIP3    H262187   4.471   4.747   1.549  0.3995 -0.1391 -0.0678
13566TIP3   OH262188   6.120   0.365   2.277 -0.1989  0.2874 -0.2485
13566TIP3    H162189   6.025   0.379   2.272 -0.5165 -1.5104  0.0012
13566TIP3    H262190   6.140   0.373   2.370 -0.0683  0.8448 -0.3228
13567TIP3   OH262191   0.614   3.964  17.101  0.3617  0.4781  0.2027
13567TIP3    H162192   0.677   4.031  17.126 -0.3413  0.4954  2.1126
13567TIP3    H262193   0.579   3.932  17.185 -0.2033 -1.4112 -0.7015
13568TIP3   OH262194   4.361   2.071   5.599 -0.2311 -0.7256 -0.0237
13568TIP3    H162195   4.386   2.022   5.521 -1.0869 -1.3151  0.0589
13568TIP3    H262196   4.306   2.011   5.649 -1.1680  0.2494  0.1557
13569TIP3   OH262197   5.118   0.685  16.687 -0.4548  0.5971 -0.0354
13569TIP3    H162198   5.186   0.638  16.735 -0.0525  1.1834 -0.0282
13569TIP3    H262199   5.066   0.616  16.646  0.3401  0.1433 -0.3063
13570TIP3   OH262200   1.778   4.472  16.186 -0.0292 -0.3442  0.0014
13570TIP3    H162201   1.752   4.422  16.108 -1.2921 -0.8206  0.7006
13570TIP3    H262202   1.763   4.563  16.162  0.3597 -0.4320 -0.5897
13571TIP3   OH262203   0.665   5.534   5.278 -0.4746  0.2463 -0.6997
13571TIP3    H162204   0.640   5.539   5.370 -1.5801  0.2537 -0.9815
13571TIP3    H262205   0.586   5.562   5.230 -0.4450 -1.2115 -1.6887
13572TIP3   OH262206   1.441   4.504  14.415  0.7695  0.6059 -0.4264
13572TIP3    H162207   1.405   4.495  14.504 -2.0832  0.5963 -1.4514
13572TIP3    H262208   1.410   4.590  14.385  1.8784  0.7049 -1.3496
13573TIP3   OH262209   2.929   5.582  16.119  0.1268  0.4916 -0.5688
13573TIP3    H162210   2.962   5.562  16.206 -0.5553 -1.6146 -0.7361
13573TIP3    H262211   2.837   5.603  16.132  0.0684  0.3563 -0.7475
13574TIP3   OH262212   3.449   5.342   3.736  0.4949 -0.0144  1.0987
13574TIP3    H162213   3.534   5.372   3.769  0.9149 -0.4258  0.4364
13574TIP3    H262214   3.472   5.273   3.674 -0.3416 -0.2448  1.0401
13575TIP3   OH262215   6.696   2.967  16.856 -0.0105  0.3472 -0.6384
13575TIP3    H162216   6.613   2.924  16.876  0.3491 -0.0091  0.1722
13575TIP3    H262217   6.720   2.935  16.770  0.5023 -1.5270  0.1487
13576TIP3   OH262218   2.781   2.410  10.852 -0.5349  0.2437  0.3672
13576TIP3    H162219   2.783   2.495  10.895  0.1574 -0.5832  2.0351
13576TIP3    H262220   2.870   2.398  10.818 -1.2516  1.2230 -2.1116
13577TIP3   OH262221   4.997   0.549   0.273  0.0746  0.5649 -0.7613
13577TIP3    H162222   4.941   0.477   0.242 -0.6251  0.2898  1.0152
13577TIP3    H262223   4.940   0.599   0.331  1.2138  1.2497 -0.2139
13578TIP3   OH262224   4.879   4.324  12.382  0.0533 -0.4437 -0.3479
13578TIP3    H162225   4.824   4.302  12.307  0.5833 -1.2299 -0.5087
13578TIP3    H262226   4.890   4.419  12.376 -2.8351  0.0522  0.7624
13579TIP3   OH262227   0.438   2.964  17.430 -0.4455  0.3251  0.3242
13579TIP3    H162228   0.402   3.036  17.380 -0.5888  0.0834  0.0794
13579TIP3    H262229   0.373   2.894  17.424  0.1280 -0.1766 -0.2707
13580TIP3   OH262230   1.405   4.162   4.976 -0.1266 -0.1302  0.2404
13580TIP3    H162231   1.389   4.257   4.977 -1.0310 -0.2458 -1.2902
13580TIP3    H262232   1.499   4.154   4.995 -0.6065  0.8395  3.9199
13581TIP3   OH262233   6.719   0.656  17.096 -0.2038 -0.1593 -0.1745
13581TIP3    H162234   6.625   0.637  17.105 -0.2460  0.4555  0.7483
13581TIP3    H262235   6.729   0.745  17.130  0.0591  1.4872 -3.9996
13582TIP3   OH262236   0.475   5.499   5.909 -0.0659  0.4022 -0.2669
13582TIP3    H162237   0.555   5.447   5.912  0.2596  0.6904 -2.2349
13582TIP3    H262238   0.438   5.481   5.823 -3.3083 -1.3666  1.3332
13583TIP3   OH262239   2.338   1.847  16.501 -0.2209 -0.1624 -0.0343
13583TIP3    H162240   2.340   1.753  16.520  1.3660  0.3180  2.7250
13583TIP3    H262241   2.254   1.860  16.456 -0.0918 -2.9861 -1.3563
13584TIP3   OH262242   6.322   3.871  17.041 -0.0889 -0.4367  0.1057
13584TIP3    H162243   6.318   3.881  17.137  0.1061 -1.9696  0.3010
13584TIP3    H262244   6.288   3.783  17.025 -0.0768 -0.2116 -1.2480
13585TIP3   OH262245   0.622   1.489   1.765  0.9091 -0.0140 -0.3803
13585TIP3    H162246   0.568   1.491   1.844  0.3196 -0.4200 -0.7664
13585TIP3    H262247   0.632   1.582   1.741  0.0630  0.0532 -0.5127
13586TIP3   OH262248   1.957   2.938   1.631  0.1625  0.2616 -0.1795
13586TIP3    H162249   1.871   2.898   1.620 -0.0518  0.6908 -0.0894
13586TIP3    H262250   2.017   2.880   1.584 -0.4592  1.0067 -1.9617
13587TIP3   OH262251   0.905   0.657  12.964  0.1754 -0.2064  0.1168
13587TIP3    H162252   0.974   0.723  12.956 -0.9870  0.9610 -0.6915
13587TIP3    H262253   0.942   0.590  13.022  2.1435  0.1477 -0.6530
13588TIP3   OH262254   4.777   1.834   5.833  0.1199  0.4276  0.8419
13588TIP3    H162255   4.711   1.807   5.897 -1.1267  0.9522 -0.1707
13588TIP3    H262256   4.759   1.927   5.818  0.1314  0.2320 -0.5371
13589TIP3   OH262257   2.897   5.559  16.383  0.4174 -0.3662  0.4439
13589TIP3    H162258   2.857   5.561  16.470  0.1291 -2.5088  0.4094
13589TIP3    H262259   2.989   5.538  16.400  0.1265 -1.9541  0.2196
13590TIP3   OH262260   1.391   2.765  15.664  0.0780 -0.1010  0.3898
13590TIP3    H162261   1.380   2.685  15.614  0.9814  0.3507 -0.5634
13590TIP3    H262262   1.341   2.750  15.745 -1.3195 -0.8756 -0.5849
13591TIP3   OH262263   1.677   5.351  14.471 -0.2221  0.8017 -0.3359
13591TIP3    H162264   1.644   5.415  14.408 -2.1385 -1.0805 -1.4002
13591TIP3    H262265   1.734   5.294  14.420 -1.7751 -0.7340 -0.4357
13592TIP3   OH262266   0.555   2.914  13.037  0.1140 -0.2750  0.0184
13592TIP3    H162267   0.597   2.994  13.069  0.7341 -0.7501  0.4097
13592TIP3    H262268   0.514   2.876  13.114  1.7429 -1.5064  0.3333
13593TIP3   OH262269   3.986   2.705   4.584  0.0960  0.4376  0.1278
13593TIP3    H162270   3.960   2.780   4.532 -1.4571 -0.2178 -0.0800
13593TIP3    H262271   4.026   2.645   4.521  1.9872  1.3361  0.4062
13594TIP3   OH262272   5.485   6.374  16.760  0.3083  0.4746 -0.2370
13594TIP3    H162273   5.565   6.335  16.725  0.6498  0.3514  0.6548
13594TIP3    H262274   5.453   6.431  16.690  1.6331  1.1783 -0.2938
13595TIP3   OH262275   6.033   2.618   2.863 -0.7552 -0.3347 -0.2938
13595TIP3    H162276   6.039   2.523   2.862 -0.2181 -0.3581  1.5136
13595TIP3    H262277   6.121   2.647   2.885 -1.0979  0.5555 -0.0680
13596TIP3   OH262278   4.482   6.195  12.089  0.4374 -0.1742  0.2448
13596TIP3    H162279   4.473   6.160  12.178 -1.1540 -0.2173  0.0967
13596TIP3    H262280   4.413   6.151  12.039  1.8503 -0.8079 -1.2415
13597TIP3   OH262281   1.998   0.943  14.660  0.3098  0.6954  0.0092
13597TIP3    H162282   1.943   0.876  14.620 -0.5283 -0.1020  2.3030
13597TIP3    H262283   1.977   1.024  14.613 -2.0198  0.1938  0.0673
13598TIP3   OH262284   5.819   4.802  15.472 -0.3959 -0.4541  0.1926
13598TIP3    H162285   5.890   4.786  15.534  1.1702  1.5603 -0.9447
13598TIP3    H262286   5.752   4.849  15.523  1.6189  2.7945  0.1734
13599TIP3   OH262287   3.435   6.721   4.065  1.2595  0.5947 -0.0438
13599TIP3    H162288   3.485   6.802   4.068  2.8338 -0.3723  1.5989
13599TIP3    H262289   3.443   6.691   3.974  2.9983  0.8832 -0.0192
13600TIP3   OH262290   1.699   2.275   3.855 -0.2505 -0.5524  0.6268
13600TIP3    H162291   1.761   2.211   3.891  0.4973 -0.5871 -0.6701
13600TIP3    H262292   1.660   2.230   3.780  0.6417  0.6396 -0.6060
13601TIP3   OH262293   6.665   4.220   5.888 -0.1737  0.1662  0.3708
13601TIP3    H162294   6.672   4.312   5.865 -2.3801  0.0532 -1.1090
13601TIP3    H262295   6.690   4.216   5.981  2.3960  1.7865 -0.1519
13602TIP3   OH262296   2.744   5.900   4.624 -0.0533 -0.0339  0.7279
13602TIP3    H162297   2.826   5.859   4.598  0.2210  0.2475  1.1377
13602TIP3    H262298   2.703   5.926   4.541 -0.2718 -1.1836  0.4588
13603TIP3   OH262299   4.665   2.578  17.461 -0.1247 -0.1515  0.0825
13603TIP3    H162300   4.627   2.657  17.499 -1.7076 -0.1985 -1.3117
13603TIP3    H262301   4.702   2.606  17.378 -0.8988 -0.8989 -0.5271
13604TIP3   OH262302   4.808   0.272   5.363  0.1347 -0.0383 -0.5803
13604TIP3    H162303   4.787   0.365   5.368  0.3398 -0.0777  2.0045
13604TIP3    H262304   4.727   0.232   5.330 -0.5061  0.8891 -0.1865
13605TIP3   OH262305   2.154   5.916  12.221 -0.4556  0.1031  0.2496
13605TIP3    H162306   2.113   5.832  12.243  0.0827 -1.0274 -2.6152
13605TIP3    H262307   2.083   5.969  12.187 -0.4190 -0.0319 -0.0425
13606TIP3   OH262308   3.781   0.019  13.188  0.2285  0.3721 -0.0043
13606TIP3    H162309   3.840   0.077  13.236  1.0608  1.3988 -2.1699
13606TIP3    H262310   3.838  -0.037  13.136 -0.5748 -2.1157  1.5996
13607TIP3   OH262311   1.039   2.715   2.929 -0.2135  0.1907  0.0410
13607TIP3    H162312   0.977   2.758   2.988 -1.3786 -0.0026 -1.0202
13607TIP3    H262313   0.995   2.713   2.844  1.6936  1.0429 -1.0189
13608TIP3   OH262314   5.079   2.217  14.906  0.3287  0.2304  0.0863
13608TIP3    H162315   5.077   2.133  14.859 -0.8291  0.4591 -0.3094
13608TIP3    H262316   5.014   2.271  14.861 -0.9710  0.4066  2.0596
13609TIP3   OH262317   0.039   4.250  13.352 -0.2401 -0.3631 -0.2013
13609TIP3    H162318  -0.020   4.314  13.312  0.4634  0.0694 -0.5775
13609TIP3    H262319   0.106   4.235  13.286 -0.2031 -1.2349  0.0216
13610TIP3   OH262320   2.004   0.686   3.969 -0.0108 -0.1750 -0.3669
13610TIP3    H162321   2.047   0.749   3.911  0.4124  1.3524  1.4757
13610TIP3    H262322   1.951   0.740   4.028 -0.1980 -1.6111  0.8446
13611TIP3   OH262323   1.247   1.749   1.047 -0.3451  0.3358  0.2579
13611TIP3    H162324   1.196   1.668   1.050 -0.2052  0.2743  1.1746
13611TIP3    H262325   1.225   1.794   1.129 -0.0784  1.0186 -0.0368
13612TIP3   OH262326   0.360   4.482   1.132  0.2551  0.5429  0.0857
13612TIP3    H162327   0.324   4.570   1.116 -1.8505 -0.2707  0.0789
13612TIP3    H262328   0.309   4.425   1.075  1.1505 -0.7869  0.5800
13613TIP3   OH262329   5.463   0.874   2.822 -0.3280 -0.4546  0.2634
13613TIP3    H162330   5.387   0.850   2.874 -0.7593 -1.0351 -0.5988
13613TIP3    H262331   5.474   0.968   2.836  0.9374 -0.9333  3.1360
13614TIP3   OH262332   6.370   6.682  12.475 -0.6504  0.3341  0.2380
13614TIP3    H162333   6.343   6.698  12.384  0.1636 -0.8536 -0.2469
13614TIP3    H262334   6.395   6.589  12.476  2.3213  1.0426  0.8689
13615TIP3   OH262335   6.087   5.862  12.065 -0.0799  0.2876 -0.2442
13615TIP3    H162336   6.002   5.903  12.051 -0.9320 -1.3065  0.1267
13615TIP3    H262337   6.069   5.783  12.115  1.6071 -0.1545 -0.2536
13616TIP3   OH262338   1.023   6.703  12.291  0.2672  0.2427 -0.0829
13616TIP3    H162339   1.102   6.653  12.271 -0.0649  0.6466 -2.8145
13616TIP3    H262340   0.959   6.672  12.226 -1.4372  0.8215  1.2562
13617TIP3   OH262341   1.712   5.981  12.364 -0.2691  0.2703  0.2450
13617TIP3    H162342   1.732   5.888  12.373 -0.0131  0.3996  1.1084
13617TIP3    H262343   1.700   6.012  12.454 -0.5386  1.0300 -0.0441
13618TIP3   OH262344   4.779   6.061  12.759  0.1068 -0.1645  0.3167
13618TIP3    H162345   4.700   6.016  12.729  1.2700 -1.6447 -0.7258
13618TIP3    H262346   4.782   6.142  12.708  0.8507 -1.5767 -2.0403
13619TIP3   OH262347   5.442   0.899   3.366 -0.0559  0.8052  0.4717
13619TIP3    H162348   5.427   0.988   3.397 -0.4582  1.0262 -0.3123
13619TIP3    H262349   5.519   0.868   3.414 -0.9806  0.9155  2.0675
13620TIP3   OH262350   5.170   1.117   0.399 -0.0988 -0.4440 -0.3701
13620TIP3    H162351   5.213   1.048   0.349  0.4465 -1.6709  1.6460
13620TIP3    H262352   5.178   1.089   0.490 -1.7234  1.2740  0.3795
13621TIP3   OH262353   4.372   1.117   2.118 -0.4461 -0.3666  0.2820
13621TIP3    H162354   4.436   1.056   2.082  0.6918  0.9783 -0.0668
13621TIP3    H262355   4.417   1.156   2.194  0.0084  2.0556 -1.1238
13622TIP3   OH262356   2.050   2.669   4.630 -0.1795 -0.0730 -0.3825
13622TIP3    H162357   2.008   2.684   4.715  0.8425  0.8384 -0.0124
13622TIP3    H262358   2.118   2.737   4.625  0.3293 -0.6474 -1.5580
13623TIP3   OH262359   2.368   2.332  14.839 -0.1635 -0.0291  0.1804
13623TIP3    H162360   2.342   2.275  14.766  0.8010 -0.3303  0.0503
13623TIP3    H262361   2.456   2.362  14.815  0.2745 -0.3406  1.3318
13624TIP3   OH262362   6.121   0.722  12.750 -0.5484  0.5342  0.7476
13624TIP3    H162363   6.073   0.647  12.786  0.1556 -0.7335 -0.8084
13624TIP3    H262364   6.053   0.784  12.726 -1.2358 -0.0656  1.0899
13625TIP3   OH262365   3.581   1.691  11.960 -0.3391  0.0404  0.2146
13625TIP3    H162366   3.587   1.733  11.874  0.5474 -2.9617 -1.3430
13625TIP3    H262367   3.665   1.645  11.969 -1.0699 -1.0160  1.9544
13626TIP3   OH262368   2.930   1.112   3.522 -0.8340 -0.2473 -0.7747
13626TIP3    H162369   2.918   1.156   3.437 -2.6467 -0.7965 -0.8399
13626TIP3    H262370   2.902   1.022   3.507  1.0508 -0.9931 -0.1475
13627TIP3   OH262371   5.568   4.983  14.320  0.2330 -0.0719  0.0676
13627TIP3    H162372   5.597   5.026  14.240  0.9124 -0.3972  0.1306
13627TIP3    H262373   5.648   4.973  14.372 -0.5162  2.1292  1.7648
13628TIP3   OH262374   4.526   5.115  13.449  0.3688 -0.4292  0.7322
13628TIP3    H162375   4.458   5.073  13.502  0.9992 -0.1486  1.7945
13628TIP3    H262376   4.589   5.045  13.432  0.0107 -0.5965  0.0684
13629TIP3   OH262377   1.505   5.701  11.490 -0.5196 -0.1056  0.0487
13629TIP3    H162378   1.432   5.686  11.550 -0.5708  2.1052  0.6308
13629TIP3    H262379   1.465   5.745  11.415  0.0413 -0.0148 -0.1973
13630TIP3   OH262380   3.853   5.894   0.568  0.0062 -0.1865  0.0681
13630TIP3    H162381   3.827   5.953   0.497 -0.8621 -0.7535 -0.0899
13630TIP3    H262382   3.801   5.923   0.643  1.4181  0.8591  0.6938
13631TIP3   OH262383   5.752   3.715   5.050  0.6335  0.1656  0.3069
13631TIP3    H162384   5.817   3.764   4.999 -1.1319  0.8719 -1.3854
13631TIP3    H262385   5.718   3.779   5.113  0.0387  0.4328 -0.2803
13632TIP3   OH262386   6.243   6.452   2.541 -0.3437  0.5186 -0.0353
13632TIP3    H162387   6.282   6.524   2.589 -0.6303  0.5592  0.1396
13632TIP3    H262388   6.295   6.375   2.566 -0.2285  0.6114  0.0103
13633TIP3   OH262389   4.630   4.888  12.222 -1.0190  0.0630 -0.1465
13633TIP3    H162390   4.577   4.895  12.302 -0.8965  0.6199 -0.1097
13633TIP3    H262391   4.677   4.806  12.232 -2.0588 -0.5719 -0.2896
13634TIP3   OH262392   4.351   1.419   3.119 -0.1521  0.0408  0.0039
13634TIP3    H162393   4.273   1.474   3.128 -0.6312 -0.5350 -0.5171
13634TIP3    H262394   4.339   1.374   3.035  1.7920  1.5769 -1.1874
13635TIP3   OH262395   3.249   2.842  14.360  0.1138  0.2836  0.1353
13635TIP3    H162396   3.322   2.806  14.309 -0.3137 -0.3844 -0.0213
13635TIP3    H262397   3.258   2.803  14.446  0.6835  1.2125  0.5193
13636TIP3   OH262398   5.050   3.293  15.633  0.6185 -0.5300  0.1133
13636TIP3    H162399   5.121   3.353  15.656  0.5756 -0.9258  1.3400
13636TIP3    H262400   4.988   3.347  15.585  1.3661  0.0035 -0.2804
13637TIP3   OH262401   0.058   1.819   4.404  0.1434  0.1112  0.0280
13637TIP3    H162402   0.022   1.818   4.492  0.0256 -1.4518 -0.0085
13637TIP3    H262403   0.136   1.764   4.409  0.6527  0.7508 -0.6440
13638TIP3   OH262404   1.064   5.579   2.898 -0.2622 -0.3311 -1.1468
13638TIP3    H162405   1.034   5.666   2.874 -0.4617 -0.3105 -0.8285
13638TIP3    H262406   1.152   5.572   2.862  0.4572  0.6562  0.3287
13639TIP3   OH262407   6.372   1.472  11.268 -0.8284  0.2091 -0.6401
13639TIP3    H162408   6.288   1.459  11.223 -1.5107 -1.3664  0.9523
13639TIP3    H262409   6.427   1.399  11.239 -1.0406 -0.4248  0.4751
13640TIP3   OH262410   3.464   4.350   4.242  0.2231  0.3363  0.8404
13640TIP3    H162411   3.419   4.272   4.274  2.8071 -2.3317 -1.4039
13640TIP3    H262412   3.513   4.382   4.318 -0.9043 -0.2139  1.8231
13641TIP3   OH262413   2.551   5.508  15.435 -0.0633 -0.0187 -0.1667
13641TIP3    H162414   2.602   5.437  15.395 -0.7427  0.5074 -2.0746
13641TIP3    H262415   2.568   5.584  15.380  0.4018  1.2672  1.6609
13642TIP3   OH262416   4.185   1.547  14.500  0.1875 -1.0555 -0.3138
13642TIP3    H162417   4.144   1.611  14.559 -0.3743 -0.7843 -0.9877
13642TIP3    H262418   4.195   1.468  14.554  0.2027 -0.6409  0.3065
13643TIP3   OH262419   5.928   4.447  16.403 -0.1190  0.5864  0.4479
13643TIP3    H162420   6.004   4.405  16.443  0.8415  1.7972 -0.0495
13643TIP3    H262421   5.961   4.531  16.371 -1.3179  0.4980 -1.1234
13644TIP3   OH262422   0.202   0.292   0.343 -0.1387  0.1524  0.3322
13644TIP3    H162423   0.164   0.370   0.381 -2.5211  0.4304 -2.3170
13644TIP3    H262424   0.286   0.321   0.306 -0.2890  1.0667  0.6987
13645TIP3   OH262425   6.700   4.300  12.462  0.1442 -0.0722  0.6595
13645TIP3    H162426   6.784   4.254  12.462 -0.5536 -1.4017  0.1677
13645TIP3    H262427   6.723   4.391  12.446  1.4355 -0.5637 -0.5091
13646TIP3   OH262428   2.402   4.634  11.236 -0.0411  0.0145 -0.5974
13646TIP3    H162429   2.452   4.587  11.302 -2.4297  0.2805  1.5204
13646TIP3    H262430   2.372   4.566  11.176 -0.6843 -0.7407  0.5522
13647TIP3   OH262431   4.398   6.361  13.317 -0.1492 -0.0977  0.2382
13647TIP3    H162432   4.440   6.429  13.264 -2.2812  0.5416 -0.7404
13647TIP3    H262433   4.415   6.279  13.269 -0.4907  0.2335 -0.4679
13648TIP3   OH262434   3.994   0.066  16.263 -0.3464 -0.2226 -0.0922
13648TIP3    H162435   3.917   0.037  16.312  0.0555 -0.6831  0.2780
13648TIP3    H262436   4.029   0.139  16.315  0.2552 -0.9039  0.5047
13649TIP3   OH262437   6.364   2.652   4.203  0.3099  0.7242 -0.1074
13649TIP3    H162438   6.385   2.620   4.291  0.1824  1.8104  0.3359
13649TIP3    H262439   6.447   2.684   4.168  0.0133  2.0694  0.3862
13650TIP3   OH262440   5.143   1.025  15.573 -0.0275  0.1038 -0.0680
13650TIP3    H162441   5.184   0.982  15.648  0.9765  3.2341  1.3546
13650TIP3    H262442   5.058   0.982  15.564  0.9816 -2.2965  0.9618
13651TIP3   OH262443   1.470   1.725  13.190  0.4242  0.0887  0.1976
13651TIP3    H162444   1.553   1.680  13.175  0.4652 -0.0312  0.7535
13651TIP3    H262445   1.426   1.674  13.258  0.2042  0.5434  0.4031
13652TIP3   OH262446   5.979   5.158   5.339 -0.2862  0.3888 -0.5464
13652TIP3    H162447   5.976   5.214   5.417  2.1144  0.7437 -0.6217
13652TIP3    H262448   6.006   5.072   5.372 -0.5675  0.1857 -0.8378
13653TIP3   OH262449   3.576   5.724   0.401  0.1655  0.1639 -0.6116
13653TIP3    H162450   3.571   5.672   0.482 -1.2763 -0.3232 -0.9837
13653TIP3    H262451   3.666   5.714   0.372 -0.3308 -3.3990 -1.4310
13654TIP3   OH262452   6.128   2.079  17.111 -0.5833 -0.2875  0.3997
13654TIP3    H162453   6.068   2.081  17.186 -0.1919 -0.2884  0.7150
13654TIP3    H262454   6.072   2.058  17.036 -1.0822  0.3134  0.5907
13655TIP3   OH262455   4.173   3.170  13.406 -0.3115 -0.2125  0.6666
13655TIP3    H162456   4.132   3.255  13.425 -0.3352  0.4005 -1.7471
13655TIP3    H262457   4.100   3.108  13.409 -1.2256  0.5968 -1.8350
13656TIP3   OH262458   3.839   0.478  16.349 -0.0781 -0.7594 -0.0627
13656TIP3    H162459   3.799   0.452  16.266  1.7859 -0.1776 -1.2096
13656TIP3    H262460   3.783   0.440  16.416 -0.2712 -3.4387 -1.6033
13657TIP3   OH262461   3.047   3.623  14.542  0.2476  0.2840  0.4185
13657TIP3    H162462   2.995   3.673  14.479 -0.2485  0.7428  1.1809
13657TIP3    H262463   3.047   3.534  14.507 -0.8051  0.3362  0.2514
13658TIP3   OH262464   4.071   1.626   4.148  0.1297  0.3925 -0.0079
13658TIP3    H162465   4.133   1.575   4.200  0.8132  0.0476 -1.1336
13658TIP3    H262466   4.126   1.677   4.089 -0.6045  1.4598  0.2044
13659TIP3   OH262467   1.938   5.888   6.724 -0.4893  0.2182 -0.0935
13659TIP3    H162468   1.866   5.951   6.719  1.2980  2.2900 -1.4849
13659TIP3    H262469   1.977   5.903   6.810 -0.0706  1.0724 -0.4187
13660TIP3   OH262470   3.017   0.143  16.402 -0.6232  0.2839 -0.5190
13660TIP3    H162471   3.100   0.190  16.409 -0.6456  0.4398 -1.1895
13660TIP3    H262472   3.039   0.051  16.417  0.1268 -0.0341 -3.1082
13661TIP3   OH262473   5.566   1.348  13.186  0.0261 -0.2440 -0.2271
13661TIP3    H162474   5.567   1.385  13.098 -0.6551 -1.2889 -0.6941
13661TIP3    H262475   5.560   1.254  13.173 -0.6714 -0.3865  0.9327
13662TIP3   OH262476   5.346   2.806   4.499 -0.1725 -0.0605  0.0290
13662TIP3    H162477   5.274   2.830   4.441  1.0657  2.5113 -0.5525
13662TIP3    H262478   5.341   2.869   4.571 -0.3811 -1.8616  1.7035
13663TIP3   OH262479   1.945   4.777  17.290 -0.0958 -0.1560 -0.0798
13663TIP3    H162480   1.983   4.862  17.270 -1.1741  0.2210 -0.6448
13663TIP3    H262481   1.863   4.776  17.241  0.1763 -1.7640 -0.5485
13664TIP3   OH262482   2.511   0.498   2.232 -0.5794  0.0266 -0.4388
13664TIP3    H162483   2.570   0.564   2.269 -0.6432 -0.2678  0.1931
13664TIP3    H262484   2.517   0.424   2.292 -2.8239  0.5808  0.5686
13665TIP3   OH262485   4.050   5.643   5.301 -0.8462  0.2489  0.6448
13665TIP3    H162486   4.019   5.568   5.353  1.1297  0.2986  2.0172
13665TIP3    H262487   4.034   5.719   5.357 -1.8238  0.7435 -0.2809
13666TIP3   OH262488   2.646   0.025  12.154 -0.6231  0.0023 -0.0213
13666TIP3    H162489   2.693  -0.013  12.080 -3.2229  2.5248 -3.3075
13666TIP3    H262490   2.714   0.062  12.209  1.5189 -3.2445 -0.2096
13667TIP3   OH262491   5.816   0.615   4.176  0.4349 -0.6841  0.5757
13667TIP3    H162492   5.876   0.661   4.117  0.2164 -1.3803 -0.1938
13667TIP3    H262493   5.756   0.568   4.118 -1.0265  0.1876  1.3235
13668TIP3   OH262494   3.198   3.459  10.627  0.2154 -0.0419 -0.3065
13668TIP3    H162495   3.188   3.415  10.542 -1.0394 -0.8009  0.2063
13668TIP3    H262496   3.292   3.462  10.642  0.3889 -1.1864 -1.0761
13669TIP3   OH262497   4.975   4.107   5.039 -0.5502 -0.1578 -0.7444
13669TIP3    H162498   4.897   4.151   5.004 -0.9514 -2.2686 -2.7484
13669TIP3    H262499   5.030   4.178   5.071 -2.2388  1.5863 -1.5002
13670TIP3   OH262500   5.154   1.633  12.079 -0.0009  0.4215 -0.1225
13670TIP3    H162501   5.117   1.549  12.105  0.5142 -0.0007 -0.6996
13670TIP3    H262502   5.098   1.664  12.008  0.8247 -0.3095 -1.1265
13671TIP3   OH262503   2.659   3.552  13.561  0.2347  0.3419 -0.0920
13671TIP3    H162504   2.595   3.606  13.608  0.6680  0.5730  0.2305
13671TIP3    H262505   2.742   3.567  13.606  0.6951  0.7094 -1.0373
13672TIP3   OH262506   5.323   5.471  12.720  0.0375  0.3612 -0.2788
13672TIP3    H162507   5.270   5.510  12.650 -1.5948  3.1980  2.3246
13672TIP3    H262508   5.407   5.516  12.713 -0.2475  0.9136 -0.1848
13673TIP3   OH262509   1.327   1.393  11.691 -0.7374 -0.4033  0.0834
13673TIP3    H162510   1.341   1.485  11.712  0.4806 -0.1524 -1.5867
13673TIP3    H262511   1.236   1.388  11.662 -0.3712  0.6598 -1.3977
13674TIP3   OH262512   0.726   5.662   1.328 -0.5299 -0.1773  0.2025
13674TIP3    H162513   0.820   5.659   1.311 -0.0904  0.3714  2.1676
13674TIP3    H262514   0.686   5.615   1.255  1.4122 -2.1331  0.2993
13675TIP3   OH262515   5.314   1.548  14.187 -0.3835 -0.0812  0.0269
13675TIP3    H162516   5.381   1.483  14.169  1.3107  1.2101  1.3781
13675TIP3    H262517   5.340   1.624  14.135 -1.4808  0.0683 -0.3343
13676TIP3   OH262518   3.593   5.898  15.185  0.1274 -0.0309  0.2652
13676TIP3    H162519   3.639   5.968  15.138  0.5622  0.4810  1.4220
13676TIP3    H262520   3.543   5.943  15.253  0.5905 -0.8424  1.1718
13677TIP3   OH262521   2.038   1.217  13.151 -0.0748  0.1243  0.2711
13677TIP3    H162522   2.037   1.170  13.067  0.4705  0.2377  0.2038
13677TIP3    H262523   2.114   1.275  13.146 -0.4844  0.6993  0.5344
13678TIP3   OH262524   2.591   4.827  13.305  0.0269  0.1233  0.0142
13678TIP3    H162525   2.518   4.801  13.248 -0.4132 -2.5088  1.5911
13678TIP3    H262526   2.579   4.921  13.317 -3.9288 -0.3045  1.1041
13679TIP3   OH262527   4.366   5.063  17.288 -0.2677 -0.0077  0.3801
13679TIP3    H162528   4.271   5.057  17.297 -0.4942  2.7425  0.8326
13679TIP3    H262529   4.397   4.973  17.298 -2.6757 -0.7536  2.1038
13680TIP3   OH262530   0.515   2.487   3.684 -0.1940  0.3476 -0.2546
13680TIP3    H162531   0.457   2.477   3.609 -1.8964 -1.5801  1.2064
13680TIP3    H262532   0.456   2.507   3.757  0.6692 -3.0334  1.5716
13681TIP3   OH262533   0.666   1.369  16.647  0.4590  0.0028 -0.3382
13681TIP3    H162534   0.671   1.464  16.655  0.5032  0.1474 -1.8492
13681TIP3    H262535   0.741   1.345  16.593 -0.0731 -0.7780 -0.7571
13682TIP3   OH262536   0.108   1.960   3.269  0.0648 -0.0051 -0.0614
13682TIP3    H162537   0.145   1.933   3.185  3.3569  1.2630  0.7846
13682TIP3    H262538   0.021   1.992   3.248  0.5557 -0.2802 -2.9081
13683TIP3   OH262539   4.042   0.867  10.655 -0.1062 -0.3256  0.8510
13683TIP3    H162540   3.998   0.793  10.614  0.1530 -1.4398  2.4953
13683TIP3    H262541   4.122   0.830  10.692  0.6924  1.0450  0.5947
13684TIP3   OH262542   2.360   5.852   4.777  0.1374  0.0475 -0.0877
13684TIP3    H162543   2.422   5.903   4.829  1.2596 -0.9878 -0.3787
13684TIP3    H262544   2.285   5.911   4.765  1.2618  1.5225 -0.1700
13685TIP3   OH262545   0.721   4.488   1.727 -0.5950 -0.1073  0.2305
13685TIP3    H162546   0.711   4.395   1.707 -2.2237  0.0858  0.0658
13685TIP3    H262547   0.744   4.490   1.819 -1.2283 -0.6501  0.4076
13686TIP3   OH262548   6.368   4.923   4.374 -0.4540 -0.3724  0.2336
13686TIP3    H162549   6.417   5.004   4.361  0.7020 -0.8970  1.1153
13686TIP3    H262550   6.302   4.923   4.305  0.1824  0.8233 -0.4033
13687TIP3   OH262551   3.192   1.246  14.314  0.6113 -0.2511  0.1532
13687TIP3    H162552   3.252   1.319  14.297  0.7157 -0.2738  0.4201
13687TIP3    H262553   3.173   1.252  14.407 -1.8842  1.3422 -0.3620
13688TIP3   OH262554   4.804   3.806   2.428 -0.5636 -0.3112 -0.0277
13688TIP3    H162555   4.805   3.849   2.343 -0.8773 -0.6261 -0.1924
13688TIP3    H262556   4.831   3.874   2.490 -0.9140  0.0829 -0.3019
13689TIP3   OH262557   0.550   4.501  14.084 -0.8775  0.5449  0.0399
13689TIP3    H162558   0.622   4.516  14.146 -1.1044 -0.5128  0.5903
13689TIP3    H262559   0.580   4.541  14.003  0.3544  0.1362  0.2626
13690TIP3   OH262560   3.618   2.648   2.009  0.0134  0.0952  0.0073
13690TIP3    H162561   3.662   2.566   1.988 -2.6030 -1.4545  0.2914
13690TIP3    H262562   3.581   2.677   1.925 -0.1698  0.3038  0.1599
13691TIP3   OH262563   5.161   3.327  12.098 -0.1168 -0.0781 -0.2649
13691TIP3    H162564   5.212   3.376  12.034  1.2588 -0.6397  0.3678
13691TIP3    H262565   5.108   3.268  12.045  1.1496 -0.6850 -0.9070
13692TIP3   OH262566   1.457   0.336   0.743  0.5313  0.4547 -0.4514
13692TIP3    H162567   1.409   0.292   0.812  1.0443  0.1335 -0.2906
13692TIP3    H262568   1.535   0.283   0.730  0.5909  0.6745 -1.0701
13693TIP3   OH262569   0.329   6.068  12.264  0.6320  0.0139 -0.0173
13693TIP3    H162570   0.316   6.004  12.335  0.7518 -2.3193 -1.9830
13693TIP3    H262571   0.243   6.079  12.225  0.8161  0.2645 -0.3593
13694TIP3   OH262572   3.852   6.091   0.370 -0.2036  0.3194  0.0102
13694TIP3    H162573   3.838   6.145   0.293  2.1771 -0.5632 -1.1305
13694TIP3    H262574   3.872   6.153   0.440 -1.6895  1.0806 -0.1928
13695TIP3   OH262575   5.272   1.712   1.088  0.1191  0.9402  0.1007
13695TIP3    H162576   5.327   1.781   1.050 -1.0074  1.8354  0.0487
13695TIP3    H262577   5.182   1.744   1.078 -0.4522 -0.6126 -0.0653
13696TIP3   OH262578   1.307   2.751   2.742  0.2450  0.0683  0.7002
13696TIP3    H162579   1.255   2.694   2.686  0.1718  0.8500 -0.0395
13696TIP3    H262580   1.381   2.697   2.770 -0.0200 -0.4969  0.3178
13697TIP3   OH262581   4.557   3.755  11.723  0.0309  0.1334 -0.0493
13697TIP3    H162582   4.464   3.770  11.706 -0.7078 -2.6397  0.9958
13697TIP3    H262583   4.593   3.729  11.638 -0.8965 -1.8109  0.1092
13698TIP3   OH262584   0.219   4.442  12.859  0.0912 -0.5087 -0.6775
13698TIP3    H162585   0.152   4.509  12.841  1.0660 -0.1385 -3.2740
13698TIP3    H262586   0.170   4.370  12.898 -1.4530  0.6002 -0.4536
13699TIP3   OH262587   1.241   2.560  15.241 -0.2018 -0.1733 -0.1606
13699TIP3    H162588   1.240   2.629  15.175  0.7491  0.1441  0.1375
13699TIP3    H262589   1.169   2.502  15.217 -0.2293  0.2509 -1.1386
13700TIP3   OH262590   4.008   0.013  17.406  0.4878 -0.1862 -0.0633
13700TIP3    H162591   4.079   0.073  17.429  0.6798 -0.5282  0.2341
13700TIP3    H262592   3.939   0.031  17.471  0.0651  0.5472 -0.6920
13701TIP3   OH262593   1.671   0.688   5.649 -0.0184  0.5081 -0.3770
13701TIP3    H162594   1.695   0.684   5.742 -2.4493 -1.5996  0.2715
13701TIP3    H262595   1.743   0.644   5.604 -1.0190 -2.9953  1.1439
13702TIP3   OH262596   6.680   5.320   1.301  0.8970 -0.0529  0.0226
13702TIP3    H162597   6.585   5.310   1.310  0.8241  1.1642  0.8001
13702TIP3    H262598   6.710   5.349   1.388  1.7057  1.4442 -0.7160
13703TIP3   OH262599   2.566   0.237   5.086  0.3096 -0.0480  0.8452
13703TIP3    H162600   2.526   0.154   5.112  1.6248 -0.8945  0.2427
13703TIP3    H262601   2.620   0.261   5.161 -0.5834  0.6410  1.2940
13704TIP3   OH262602   0.959   4.635  12.048 -0.2973  0.2984  0.2244
13704TIP3    H162603   0.986   4.606  12.135  0.0215 -0.2620 -0.0527
13704TIP3    H262604   0.950   4.730  12.055 -0.6023  0.2154  0.9571
13705TIP3   OH262605   5.219   4.394   3.737  0.0514 -0.4059 -0.2711
13705TIP3    H162606   5.292   4.420   3.793 -0.3473  0.1681 -0.0069
13705TIP3    H262607   5.181   4.476   3.707  1.5223 -0.6324 -3.1141
13706TIP3   OH262608   0.828   5.226   2.152  0.1482 -0.0515 -0.1647
13706TIP3    H162609   0.895   5.233   2.084  1.4796  1.6856  1.2343
13706TIP3    H262610   0.758   5.283   2.122  0.1522 -0.3246 -0.7011
13707TIP3   OH262611   3.972   3.128  12.532 -0.5876  0.3460  0.0698
13707TIP3    H162612   4.056   3.113  12.489 -0.9169  0.3702 -0.5945
13707TIP3    H262613   3.991   3.192  12.601 -0.3468  1.5125 -1.0440
13708TIP3   OH262614   5.888   3.196  12.000  0.4772 -0.0117  0.0424
13708TIP3    H162615   5.926   3.263  11.942 -0.1773 -0.7452 -1.2823
13708TIP3    H262616   5.955   3.128  12.004  0.2881 -0.2203 -0.3262
13709TIP3   OH262617   0.506   5.243  17.055 -0.7545  0.1298  0.1796
13709TIP3    H162618   0.523   5.314  17.116  0.5834 -0.1270  0.1405
13709TIP3    H262619   0.564   5.172  17.084  0.9265  0.4387 -2.1077
13710TIP3   OH262620   3.703   1.821  12.506 -0.0052 -0.4872 -0.4462
13710TIP3    H162621   3.769   1.752  12.494  0.2712 -0.6284  1.6034
13710TIP3    H262622   3.624   1.774  12.531  0.5860 -0.0556  2.5327
13711TIP3   OH262623   5.353   4.106  15.716 -0.1073 -0.1770  0.0844
13711TIP3    H162624   5.390   4.106  15.628  0.1085  0.9715  0.1717
13711TIP3    H262625   5.410   4.164  15.766 -2.4786  2.4068  0.0016
13712TIP3   OH262626   0.110   1.360  13.692 -0.5190 -0.7234 -0.0020
13712TIP3    H162627   0.074   1.299  13.756  1.1554 -0.5158  1.2241
13712TIP3    H262628   0.061   1.441  13.705  0.4013 -0.3991  1.7199
13713TIP3   OH262629   3.588   1.285  12.520  0.5315  0.1100  0.6927
13713TIP3    H162630   3.626   1.357  12.571  1.2040  0.3589 -0.1404
13713TIP3    H262631   3.662   1.250  12.470 -0.2203  0.2143 -0.5095
13714TIP3   OH262632   1.393   5.531  11.160 -0.4998  0.1957  0.2242
13714TIP3    H162633   1.419   5.621  11.141  0.8490 -0.0240  0.8241
13714TIP3    H262634   1.464   5.478  11.123 -1.3212 -0.6226 -0.1944
13715TIP3   OH262635   1.893   5.697  13.121 -0.1281 -0.6547  0.0997
13715TIP3    H162636   1.875   5.656  13.206 -2.0696 -1.6680 -0.7498
13715TIP3    H262637   1.914   5.624  13.063  0.3629 -0.0417 -0.5178
13716TIP3   OH262638   2.820   1.483  17.482  0.0921  0.4007 -0.2458
13716TIP3    H162639   2.849   1.564  17.522 -1.4687  1.5041 -1.2394
13716TIP3    H262640   2.728   1.474  17.509  0.3062 -1.1950  0.0784
13717TIP3   OH262641   5.005   1.539  16.160 -0.3330 -0.0734  0.2910
13717TIP3    H162642   4.934   1.570  16.104 -0.5939 -0.6671  0.2888
13717TIP3    H262643   5.083   1.582  16.125 -0.3506 -1.0848 -1.0552
13718TIP3   OH262644   0.379   2.367  17.270  0.3679 -0.1828  0.2209
13718TIP3    H162645   0.382   2.459  17.297  0.1415 -0.1107  0.0114
13718TIP3    H262646   0.305   2.330  17.318 -0.0379 -0.0534 -0.2840
13719TIP3   OH262647   2.972   1.091   0.288 -0.2716  0.5627 -0.0840
13719TIP3    H162648   2.996   1.184   0.287 -1.6983  1.0588  2.5232
13719TIP3    H262649   3.049   1.047   0.322  0.3184  0.7856 -1.0759
13720TIP3   OH262650   5.691   1.201  11.303  0.0846  0.5585 -0.3674
13720TIP3    H162651   5.679   1.130  11.366  1.0415  0.2084 -0.5664
13720TIP3    H262652   5.745   1.163  11.233  0.1670  1.3303 -0.7401
13721TIP3   OH262653   3.171   1.877  14.260 -0.5103  0.7662  0.3747
13721TIP3    H162654   3.208   1.965  14.275  0.2138  0.4866  0.2573
13721TIP3    H262655   3.088   1.894  14.216  0.3242  1.3445 -1.0344
13722TIP3   OH262656   0.793   1.399   0.660  0.8221  0.1670  0.4945
13722TIP3    H162657   0.830   1.355   0.736  1.0821  0.0669  0.3137
13722TIP3    H262658   0.776   1.488   0.688  0.3863 -0.0182  0.8362
13723TIP3   OH262659   1.519   6.343  11.394  0.2914  0.1105  0.5338
13723TIP3    H162660   1.612   6.364  11.389  0.6001 -1.2651 -0.0575
13723TIP3    H262661   1.499   6.303  11.310 -0.7168 -0.0454  0.8321
13724TIP3   OH262662   2.306   5.778  15.304  0.0111 -0.0362  0.0833
13724TIP3    H162663   2.290   5.692  15.264  1.0178 -0.1459 -0.1117
13724TIP3    H262664   2.283   5.765  15.396  0.2452 -0.5425  0.0746
13725TIP3   OH262665   5.566   3.561  14.850  0.3528  0.0072  0.1339
13725TIP3    H162666   5.587   3.534  14.940 -0.8353  0.4888  0.5751
13725TIP3    H262667   5.474   3.538  14.839  0.3254  0.5057 -0.7569
13726TIP3   OH262668   2.296   2.540  16.902 -0.6528  0.3554 -0.2298
13726TIP3    H162669   2.205   2.571  16.902 -0.9247 -0.3359  1.4953
13726TIP3    H262670   2.297   2.469  16.966  0.7545 -0.7816 -1.4471
13727TIP3   OH262671   2.277   5.283   6.658  0.0907 -0.0425 -0.2997
13727TIP3    H162672   2.332   5.220   6.704 -1.0428 -0.7321  0.1423
13727TIP3    H262673   2.321   5.367   6.671 -0.1516 -0.2148  2.0306
13728TIP3   OH262674   3.124   5.590   4.413  0.6554  0.7741 -0.0456
13728TIP3    H162675   3.106   5.538   4.335 -0.4867 -0.9261  1.2832
13728TIP3    H262676   3.201   5.550   4.453 -0.0028  0.3011  0.7844
13729TIP3   OH262677   2.098   4.762   2.591  0.1138 -0.4637 -0.3289
13729TIP3    H162678   2.067   4.850   2.568  2.2043  0.2193 -0.8494
13729TIP3    H262679   2.040   4.703   2.545 -2.1505  0.5699  1.0509
13730TIP3   OH262680   5.070   0.286   3.628 -0.3144 -0.0952 -0.4737
13730TIP3    H162681   5.160   0.313   3.607  0.1903 -1.6579 -0.5093
13730TIP3    H262682   5.018   0.315   3.553  0.0927  1.1363 -0.2899
13731TIP3   OH262683   6.719   6.042  13.225  0.0990 -0.2342  0.0259
13731TIP3    H162684   6.769   5.969  13.189 -0.1588  0.6368 -2.2812
13731TIP3    H262685   6.718   6.107  13.155 -1.0304  1.3358  1.4210
13732TIP3   OH262686   1.357   2.528  12.362 -0.1761 -0.0073  0.1270
13732TIP3    H162687   1.280   2.471  12.374 -0.1956 -0.0581 -0.2400
13732TIP3    H262688   1.431   2.467  12.355 -0.0112  0.0609  1.1285
13733TIP3   OH262689   4.592   4.133   5.387  0.3963 -0.6988 -0.1638
13733TIP3    H162690   4.617   4.210   5.438  0.4929 -0.6768 -0.2429
13733TIP3    H262691   4.500   4.119   5.408  0.5709 -1.0056  0.4286
13734TIP3   OH262692   2.482   4.677  13.544 -0.3994 -0.1679  0.4661
13734TIP3    H162693   2.468   4.721  13.460 -1.0042 -2.0025 -0.4276
13734TIP3    H262694   2.481   4.584  13.523  1.1656 -0.6462  2.2548
13735TIP3   OH262695   2.288   6.546  13.577 -0.4255 -0.3014 -0.6944
13735TIP3    H162696   2.195   6.555  13.594  0.0345  0.6077  1.6980
13735TIP3    H262697   2.309   6.618  13.517 -0.4020  3.0812  2.9588
13736TIP3   OH262698   1.558   3.287   1.038  0.0385 -0.1509 -0.3502
13736TIP3    H162699   1.613   3.360   1.065 -0.0491  0.4931 -1.8118
13736TIP3    H262700   1.614   3.210   1.049  0.6403  0.3040 -0.1827
13737TIP3   OH262701   4.766   5.776   0.046 -0.1936 -0.3734 -0.1834
13737TIP3    H162702   4.719   5.750   0.124 -1.3754 -1.5978 -1.2506
13737TIP3    H262703   4.698   5.787  -0.021  0.9807 -2.4899 -1.8616
13738TIP3   OH262704   4.627   0.525  13.125 -0.1521 -0.2538  0.3779
13738TIP3    H162705   4.555   0.475  13.162  0.1994 -0.3079  1.0096
13738TIP3    H262706   4.600   0.616  13.132 -0.1577 -0.2738  0.6270
13739TIP3   OH262707   4.344   2.108  14.028  0.3003 -0.0452  0.1914
13739TIP3    H162708   4.347   2.107  14.124 -2.4115  1.3512  0.3737
13739TIP3    H262709   4.407   2.177  14.004  0.9375 -0.3384  0.9547
13740TIP3   OH262710   5.290   6.634  14.939  0.0289  0.3646  0.1426
13740TIP3    H162711   5.255   6.545  14.940  0.9067  0.0160  0.9910
13740TIP3    H262712   5.335   6.641  14.854  1.4972 -0.6418  0.7952
13741TIP3   OH262713   1.844   1.458  12.183 -0.3904  0.2339 -0.0037
13741TIP3    H162714   1.804   1.544  12.200 -2.7129 -0.4372 -1.6181
13741TIP3    H262715   1.898   1.442  12.260 -1.8481  2.0570  1.5066
13742TIP3   OH262716   3.094   1.480   3.715  0.3095  0.1178  0.0494
13742TIP3    H162717   3.004   1.454   3.734  0.6279 -0.7754  0.3755
13742TIP3    H262718   3.129   1.511   3.799  0.7280 -0.8315  0.2319
13743TIP3   OH262719   6.570   4.368   1.237  0.1417 -0.2355 -0.1930
13743TIP3    H162720   6.484   4.328   1.221 -0.4933  0.2644  1.6874
13743TIP3    H262721   6.630   4.318   1.182 -0.9065 -2.5535  0.6191
13744TIP3   OH262722   6.076   6.171  16.358  0.6220  0.0076  0.2192
13744TIP3    H162723   6.009   6.232  16.325  1.1669  0.8758  0.6757
13744TIP3    H262724   6.158   6.219  16.349  1.1447 -0.9122 -0.0005
13745TIP3   OH262725   1.309   5.893  16.765 -0.2600  0.3796 -0.3679
13745TIP3    H162726   1.239   5.829  16.762 -0.9222  0.8430  2.5059
13745TIP3    H262727   1.387   5.842  16.790 -0.0844  0.2606 -1.1195
13746TIP3   OH262728   4.806   2.596   0.741 -0.1797 -0.3229  0.1696
13746TIP3    H162729   4.727   2.583   0.689  0.4172 -1.6402 -0.4689
13746TIP3    H262730   4.775   2.628   0.826 -1.4896 -1.7314  0.2588
13747TIP3   OH262731   0.412   0.506   2.926  0.0744 -0.5402  0.1993
13747TIP3    H162732   0.366   0.498   2.843 -2.1226 -0.6909  1.3649
13747TIP3    H262733   0.493   0.553   2.904  0.7518 -2.6529 -2.3905
13748TIP3   OH262734   2.902   6.251   5.221  0.4290  0.0584 -0.1394
13748TIP3    H162735   2.934   6.191   5.288  1.5399 -0.3599 -1.0051
13748TIP3    H262736   2.952   6.331   5.234  0.1245  0.2304 -0.0175
13749TIP3   OH262737   1.211   5.911   4.337  0.1681  0.4234 -0.6215
13749TIP3    H162738   1.272   5.880   4.270 -0.2750 -1.5937 -0.1602
13749TIP3    H262739   1.265   5.921   4.416  0.2629  0.4912 -0.6951
13750TIP3   OH262740   3.011   5.413   3.745  0.1430  0.1275  0.0236
13750TIP3    H162741   3.050   5.493   3.780  0.2604 -0.1480  0.5395
13750TIP3    H262742   3.071   5.343   3.772 -1.3968 -0.4908  2.0886
13751TIP3   OH262743   2.858   1.568  13.468 -0.3398 -0.1993 -0.4374
13751TIP3    H162744   2.798   1.536  13.401  0.2699 -0.2535 -0.9633
13751TIP3    H262745   2.863   1.662  13.453 -0.2318 -0.2061 -0.4467
13752TIP3   OH262746   1.106   2.556   2.621 -0.3000 -0.0422  0.3218
13752TIP3    H162747   1.121   2.507   2.702  2.0359 -1.5258 -0.8943
13752TIP3    H262748   1.071   2.491   2.560  0.8637  0.2623 -0.7180
13753TIP3   OH262749   0.437   0.957  16.797 -0.0384  0.9583 -0.1245
13753TIP3    H162750   0.461   1.032  16.744 -0.2593  1.2373  0.1612
13753TIP3    H262751   0.416   0.995  16.883 -0.0473  0.5605  0.0499
13754TIP3   OH262752   6.135   5.660  14.706 -0.2830 -0.1350 -0.0414
13754TIP3    H162753   6.230   5.676  14.706  0.0130 -1.6655  0.6877
13754TIP3    H262754   6.096   5.747  14.704  1.1459  0.5920  1.2175
13755TIP3   OH262755   2.833   4.213   2.537  0.2459 -0.2281 -0.3148
13755TIP3    H162756   2.815   4.123   2.511  2.0654 -0.6175 -0.4027
13755TIP3    H262757   2.865   4.255   2.458 -2.6836  1.2160 -0.8659
13756TIP3   OH262758   1.372   5.090   2.018 -0.6909 -0.2465 -0.1311
13756TIP3    H162759   1.279   5.066   2.011 -1.1080  1.0869  0.5086
13756TIP3    H262760   1.372   5.186   2.016  0.7876 -0.2379 -1.2110
13757TIP3   OH262761   4.597   2.832  14.198 -0.4115  0.0049 -0.4104
13757TIP3    H162762   4.516   2.856  14.153 -0.4992  0.4796  0.0013
13757TIP3    H262763   4.627   2.753  14.152  0.5563  1.5792 -2.6616
13758TIP3   OH262764   3.697   3.441   4.968 -0.3918  0.3182 -0.2818
13758TIP3    H162765   3.703   3.498   5.045  0.1801  2.4300 -1.8025
13758TIP3    H262766   3.787   3.434   4.936 -0.6431 -0.4097 -0.8668
13759TIP3   OH262767   1.824   2.298  11.454  0.3891  0.0251 -0.5158
13759TIP3    H162768   1.910   2.275  11.416  1.1505 -1.6297  2.0054
13759TIP3    H262769   1.835   2.388  11.484  1.1709 -0.1037 -0.3946
13760TIP3   OH262770   3.906   4.614   3.680 -0.5020 -0.2595 -0.4739
13760TIP3    H162771   3.937   4.655   3.761 -0.1617 -2.2393  0.4567
13760TIP3    H262772   3.813   4.600   3.695 -0.2474 -1.5779  0.0642
13761TIP3   OH262773   0.755   5.024   6.255  0.5377 -0.0000  0.4156
13761TIP3    H162774   0.667   5.060   6.262 -0.1114  0.2239 -4.6797
13761TIP3    H262775   0.813   5.098   6.267 -0.1943  0.5605  0.5308
13762TIP3   OH262776   5.582   5.309  12.322 -0.0282 -0.0723 -0.1573
13762TIP3    H162777   5.660   5.293  12.270  0.4959 -0.3923  0.7048
13762TIP3    H262778   5.553   5.396  12.296 -0.0963 -0.4407 -1.3623
13763TIP3   OH262779   1.891   6.455  13.535 -0.4016 -0.4684  0.1278
13763TIP3    H162780   1.907   6.396  13.608 -0.0999 -2.6545 -1.6097
13763TIP3    H262781   1.810   6.423  13.495  0.8586 -1.1196 -2.0843
13764TIP3   OH262782   3.954   4.592   6.681  0.2297  0.2132 -0.3518
13764TIP3    H162783   3.982   4.575   6.771 -0.1781 -1.1331 -0.4672
13764TIP3    H262784   3.908   4.513   6.654  2.0963 -0.2762 -2.4401
13765TIP3   OH262785   4.534   0.353   3.227 -0.2154 -0.1804  0.2428
13765TIP3    H162786   4.509   0.336   3.137 -2.3523 -1.3119  0.9735
13765TIP3    H262787   4.490   0.436   3.249  1.7247  1.0262 -0.2245
13766TIP3   OH262788   5.388   5.518   4.852 -0.6327  0.1912 -0.1355
13766TIP3    H162789   5.325   5.494   4.920 -0.3067  0.4199  0.2557
13766TIP3    H262790   5.354   5.477   4.772 -1.2785  0.3215  0.0650
13767TIP3   OH262791   2.769   0.469  15.879  0.1192 -0.4404 -0.0856
13767TIP3    H162792   2.844   0.433  15.832  0.1974 -0.3752 -0.0108
13767TIP3    H262793   2.741   0.398  15.937 -0.2254 -0.6622 -0.5155
13768TIP3   OH262794   3.394   5.197  11.208  0.6940 -0.1907  0.2763
13768TIP3    H162795   3.436   5.114  11.232 -2.8577 -2.5052 -0.6494
13768TIP3    H262796   3.409   5.205  11.113 -1.1092 -1.3074 -0.1664
13769TIP3   OH262797   1.696   2.990   3.899  0.2078 -0.3762 -0.2713
13769TIP3    H162798   1.666   2.984   3.808  0.1753 -0.9687 -0.2272
13769TIP3    H262799   1.737   2.905   3.916 -0.2463 -0.4634  0.4288
13770TIP3   OH262800   0.204   1.104  14.699 -0.4701 -0.3902 -0.1221
13770TIP3    H162801   0.179   1.046  14.627  0.4170  1.6070 -2.1595
13770TIP3    H262802   0.294   1.079  14.720  0.6894  1.3929 -2.4191
13771TIP3   OH262803   6.360   0.242  15.099  0.1963 -0.1480  0.2864
13771TIP3    H162804   6.281   0.295  15.089  0.0217 -0.4731 -0.0901
13771TIP3    H262805   6.397   0.238  15.011  1.4755  1.2826  0.7135
13772TIP3   OH262806   3.747   2.052   1.699 -0.0178  0.2159  0.0495
13772TIP3    H162807   3.665   2.021   1.660  1.1423 -0.1154 -2.3064
13772TIP3    H262808   3.780   2.117   1.637  0.9810  1.1639  1.5132
13773TIP3   OH262809   5.916   6.439  17.469 -0.7967  0.3749  0.9267
13773TIP3    H162810   5.894   6.350  17.498 -0.1644 -0.3863 -0.7686
13773TIP3    H262811   6.006   6.453  17.500 -0.5892  0.0719  0.4789
13774TIP3   OH262812   6.087   2.257   1.637  0.2503  0.2077 -0.4635
13774TIP3    H162813   6.000   2.239   1.603 -0.2491  1.2003  0.2729
13774TIP3    H262814   6.145   2.245   1.562 -0.4671 -0.7479 -0.8890
13775TIP3   OH262815   6.272   6.563  11.542 -0.2717  0.0887  0.0086
13775TIP3    H162816   6.315   6.513  11.473  0.1761  2.7908 -1.8158
13775TIP3    H262817   6.178   6.555  11.524 -0.1517  0.8878 -1.0576
13776TIP3   OH262818   1.715   0.876   0.531  0.2254 -0.3844 -0.2124
13776TIP3    H162819   1.789   0.880   0.591  0.0459 -0.6276  0.0277
13776TIP3    H262820   1.713   0.786   0.500  0.3595 -0.2435 -0.6434
13777TIP3   OH262821   5.128   2.549   4.015  0.0640 -0.3217  0.0645
13777TIP3    H162822   5.049   2.581   3.972 -1.8767 -3.7875  0.7011
13777TIP3    H262823   5.200   2.578   3.959 -1.5292  3.0454 -0.4988
13778TIP3   OH262824   0.843   1.509  11.552  0.2997  0.2120 -0.3418
13778TIP3    H162825   0.806   1.532  11.467  2.5255  0.8931 -1.1841
13778TIP3    H262826   0.820   1.583  11.609 -2.3217 -0.8266  0.1037
13779TIP3   OH262827   6.698   1.956   2.598  0.0501 -0.1127  0.6366
13779TIP3    H162828   6.712   1.861   2.593  0.2610 -0.0374 -0.5266
13779TIP3    H262829   6.758   1.985   2.666  1.0017 -0.6445  0.0599
13780TIP3   OH262830   5.444   6.148  16.101  0.0747  0.1431  0.0200
13780TIP3    H162831   5.527   6.101  16.098 -0.6337 -1.2426  1.2642
13780TIP3    H262832   5.378   6.081  16.118 -1.1176  1.4210  0.6974
13781TIP3   OH262833   0.803   0.475  13.364 -0.6216 -0.2872 -0.2782
13781TIP3    H162834   0.867   0.545  13.378 -1.5997  0.7874 -1.0267
13781TIP3    H262835   0.764   0.460  13.450 -0.5306  0.2209 -0.1426
13782TIP3   OH262836   6.540   6.749   0.499 -0.0981 -0.2611  0.5914
13782TIP3    H162837   6.628   6.786   0.491 -0.6976  1.0406 -0.2164
13782TIP3    H262838   6.488   6.796   0.434 -2.3084  1.7557  3.5498
13783TIP3   OH262839   6.056   5.015  14.230  0.1501  0.0421  0.5562
13783TIP3    H162840   5.973   4.967  14.235 -0.5515  1.1431 -0.2085
13783TIP3    H262841   6.047   5.085  14.294  1.5930 -1.4020  2.4387
13784TIP3   OH262842   3.787   3.268  11.175 -0.3272  0.5648  0.4424
13784TIP3    H162843   3.820   3.266  11.085 -0.6107  1.0120  0.3225
13784TIP3    H262844   3.692   3.259  11.165 -0.3321  0.2852  0.7221
13785TIP3   OH262845   0.732   4.449  15.392  0.4537  0.3491 -0.1612
13785TIP3    H162846   0.789   4.373  15.409 -0.3720 -0.6072 -1.4339
13785TIP3    H262847   0.783   4.505  15.334  1.0811  0.8085  0.8089
13786TIP3   OH262848   2.055   4.711   3.532  0.1158  0.3327  0.5518
13786TIP3    H162849   1.992   4.649   3.495 -1.0061  0.1387  2.5898
13786TIP3    H262850   2.036   4.794   3.488 -0.1715 -0.1744 -0.3101
13787TIP3   OH262851   5.182   0.047   3.745  0.0645 -0.2792 -0.6199
13787TIP3    H162852   5.274   0.061   3.769 -0.1757  1.3405 -0.5463
13787TIP3    H262853   5.160   0.122   3.690 -2.1634  1.2422  2.1055
13788TIP3   OH262854   5.301   3.037  14.768  0.6912  0.2307 -0.4016
13788TIP3    H162855   5.261   2.966  14.818  1.0490 -0.5911 -1.2545
13788TIP3    H262856   5.239   3.110  14.775  0.6152  0.0538  1.0036
13789TIP3   OH262857   0.353   5.157   2.296 -0.5448  0.3597 -0.3076
13789TIP3    H162858   0.288   5.169   2.365  0.8327  0.4819  1.0295
13789TIP3    H262859   0.419   5.099   2.335  0.6732  1.0800 -1.2239
13790TIP3   OH262860   2.829   3.734   1.819  0.0048 -0.3369  0.0088
13790TIP3    H162861   2.911   3.721   1.867 -0.5388  0.4388  1.1838
13790TIP3    H262862   2.824   3.828   1.806 -2.0666  0.0046  2.5298
13791TIP3   OH262863   5.797   3.427   1.693  0.2660 -0.1184 -0.1173
13791TIP3    H162864   5.720   3.461   1.740 -0.6056 -2.0632 -0.0109
13791TIP3    H262865   5.825   3.499   1.638 -0.1130  1.4760  1.6673
13792TIP3   OH262866   2.472   3.589  11.081  0.1178 -1.0709  0.2219
13792TIP3    H162867   2.557   3.632  11.089 -1.0488  1.3663  0.5129
13792TIP3    H262868   2.415   3.657  11.046 -2.2621 -1.8342  2.3249
13793TIP3   OH262869   2.942   5.048   6.353  0.4082 -0.7922 -0.3011
13793TIP3    H162870   3.009   5.109   6.384  0.7652 -0.3337 -1.8587
13793TIP3    H262871   2.976   4.961   6.376  0.8401 -0.4934  0.2102
13794TIP3   OH262872   5.149   1.235  14.625 -0.4008  0.2999 -0.4298
13794TIP3    H162873   5.090   1.254  14.698  1.0392 -2.4036  1.6149
13794TIP3    H262874   5.215   1.304  14.629 -0.3347  0.1788  0.8797
13795TIP3   OH262875   0.446   5.947  11.269 -0.1643 -0.2200 -0.7855
13795TIP3    H162876   0.535   5.976  11.288 -0.1137  0.1637 -1.5540
13795TIP3    H262877   0.417   6.004  11.198 -0.9703 -0.4417 -0.6463
13796TIP3   OH262878   1.922   4.548   2.542  0.1054 -0.1639 -0.3839
13796TIP3    H162879   1.918   4.453   2.525 -0.4031 -0.1924 -0.1427
13796TIP3    H262880   1.853   4.563   2.608 -1.5994  0.7569 -2.2539
13797TIP3   OH262881   0.464   1.004  14.686  0.7774 -0.5723  1.3742
13797TIP3    H162882   0.525   0.978  14.618 -0.6029 -1.7828  0.5435
13797TIP3    H262883   0.468   1.100  14.687  0.6064 -0.5137 -0.6322
13798TIP3   OH262884   6.434   1.273   1.768 -0.6824  0.4165 -0.3815
13798TIP3    H162885   6.377   1.204   1.801 -0.9865  0.2107 -1.3016
13798TIP3    H262886   6.481   1.305   1.845  0.6654 -1.9205 -0.1529
13799TIP3   OH262887   5.693   3.055  15.839  0.5406  0.9908 -0.3027
13799TIP3    H162888   5.618   3.111  15.819  1.8690  1.9485 -3.2192
13799TIP3    H262889   5.724   3.087  15.924 -2.9289 -0.2456  1.5889
13800TIP3   OH262890   0.964   0.573   4.977  0.1350 -0.4587 -0.4633
13800TIP3    H162891   0.889   0.629   4.959  0.3851 -0.6233 -2.0961
13800TIP3    H262892   0.926   0.488   4.996 -0.1104 -0.4766 -1.0168
13801TIP3   OH262893   4.092   5.919   3.161 -0.6477 -0.1005  0.2101
13801TIP3    H162894   4.178   5.957   3.144 -0.3442 -0.0168  1.8055
13801TIP3    H262895   4.093   5.836   3.113 -0.6683  1.0162 -1.8569
13802TIP3   OH262896   6.745   0.163   6.436  0.2037 -0.4381  0.4133
13802TIP3    H162897   6.781   0.244   6.472  0.7334 -0.1480 -0.7340
13802TIP3    H262898   6.762   0.098   6.504 -2.0915  0.7585  2.3049
13803TIP3   OH262899   5.555   5.351  13.851 -0.0045 -0.0868 -0.4451
13803TIP3    H162900   5.555   5.422  13.787 -3.7973 -0.0446 -0.6485
13803TIP3    H262901   5.520   5.276  13.803 -1.3051 -0.5200  1.0829
13804TIP3   OH262902   1.649   3.587  16.298 -0.3030  0.3632  0.2832
13804TIP3    H162903   1.713   3.608  16.366  0.5817  0.3601 -0.5284
13804TIP3    H262904   1.564   3.607  16.338  0.1415 -0.3620  1.6468
13805TIP3   OH262905   0.347   3.022  17.004  0.2756 -0.1418 -0.8306
13805TIP3    H162906   0.297   3.068  16.937 -0.0632  0.0744 -0.4393
13805TIP3    H262907   0.384   3.091  17.059  1.3836 -0.2842 -1.3654
13806TIP3   OH262908   3.674   2.352  11.288 -0.3842  0.4639 -0.1651
13806TIP3    H162909   3.672   2.324  11.380 -1.2794  1.1165  0.0308
13806TIP3    H262910   3.742   2.298  11.248 -0.0463  0.0986  0.8593
13807TIP3   OH262911   2.743   1.808   5.747 -0.3158  0.0877  0.4724
13807TIP3    H162912   2.696   1.736   5.789  0.3868 -0.4311  0.3827
13807TIP3    H262913   2.720   1.800   5.654  1.6410 -1.5450  0.0497
13808TIP3   OH262914   1.080   4.191   1.956 -0.4755  0.0820  0.1471
13808TIP3    H162915   0.986   4.173   1.960 -0.3666 -0.8088 -0.7738
13808TIP3    H262916   1.097   4.205   1.862  0.4552 -0.6138  0.2023
13809TIP3   OH262917   3.252   5.184  13.315  0.4826 -0.1390 -0.0290
13809TIP3    H162918   3.280   5.234  13.238 -0.2524 -0.4034 -0.4791
13809TIP3    H262919   3.333   5.152  13.354  0.8315 -2.8896 -2.6228
13810TIP3   OH262920   0.178   1.780  17.063 -0.3371  0.2684 -0.0457
13810TIP3    H162921   0.244   1.776  17.132  0.3526 -0.4512 -0.7106
13810TIP3    H262922   0.186   1.868  17.027  0.9165 -0.0744 -0.6913
13811TIP3   OH262923   0.740   2.396  16.341  0.2134 -0.0529  0.1553
13811TIP3    H162924   0.773   2.486  16.337  0.9362 -0.2254  1.3816
13811TIP3    H262925   0.668   2.393  16.279  1.2180  0.9277 -1.1090
13812TIP3   OH262926   4.212   0.027   1.295 -0.6305  1.0505  0.0159
13812TIP3    H162927   4.166   0.095   1.246 -2.2310 -2.2210 -3.5414
13812TIP3    H262928   4.304   0.037   1.268 -0.9343  1.4793 -0.9057
13813TIP3   OH262929   4.620   6.126   0.381 -0.1697  0.2265  0.3518
13813TIP3    H162930   4.694   6.101   0.326  0.0909  0.8034  0.4348
13813TIP3    H262931   4.571   6.189   0.328 -0.5924 -0.1291  0.3079
13814TIP3   OH262932   5.196   4.479   4.314  0.8970 -0.3068  0.0602
13814TIP3    H162933   5.201   4.424   4.236  0.5810  0.2937 -0.3962
13814TIP3    H262934   5.240   4.429   4.382 -0.0825 -1.4844 -0.1293
13815TIP3   OH262935   0.993   4.623   5.988 -0.4046  0.0304 -0.1610
13815TIP3    H162936   0.927   4.651   6.051  0.0815  0.7629  0.0413
13815TIP3    H262937   1.042   4.703   5.968 -0.6531 -0.1641 -1.5929
13816TIP3   OH262938   3.256   3.509   6.053  0.1676 -0.3490 -0.6232
13816TIP3    H162939   3.186   3.571   6.074  0.0300 -0.5051 -0.6164
13816TIP3    H262940   3.327   3.563   6.017  1.1348  0.1676  1.9026
13817TIP3   OH262941   0.730   4.558  14.291 -0.3038 -0.0470 -0.3594
13817TIP3    H162942   0.713   4.568  14.385 -0.5861  0.0001 -0.4147
13817TIP3    H262943   0.824   4.540  14.286 -0.5093 -1.2985  0.0128
13818TIP3   OH262944   4.586   3.326   5.436 -0.1713  0.3706  0.1289
13818TIP3    H162945   4.600   3.248   5.382 -1.3628  0.8187 -0.8707
13818TIP3    H262946   4.499   3.314   5.475 -0.5971  1.3969 -0.4397
13819TIP3   OH262947   4.395   4.131  14.401  0.5075  0.2897  0.0478
13819TIP3    H162948   4.418   4.092  14.485 -0.8122 -3.1348 -0.9692
13819TIP3    H262949   4.300   4.145  14.405  0.2099 -1.0390 -1.1675
13820TIP3   OH262950   1.493   1.871   2.843  0.2497  0.3658  0.0798
13820TIP3    H162951   1.435   1.890   2.916 -0.1448  0.4316 -0.2511
13820TIP3    H262952   1.465   1.931   2.774 -0.7854 -1.1658 -0.8691
13821TIP3   OH262953   1.858   6.055   0.209 -0.4236  0.6179  0.3104
13821TIP3    H162954   1.822   6.083   0.293  0.7230  1.8651  0.4229
13821TIP3    H262955   1.879   6.136   0.163 -0.4326 -0.0473 -0.9220
13822TIP3   OH262956   2.725   1.916   3.030 -0.1662  0.5775  0.1072
13822TIP3    H162957   2.677   1.915   3.113  1.9547  0.8794  1.4328
13822TIP3    H262958   2.805   1.867   3.049  1.4469  2.6237 -1.0575
13823TIP3   OH262959   6.516   4.440  13.529 -0.3793 -0.2135 -0.4635
13823TIP3    H162960   6.544   4.531  13.529 -1.3995  0.1472 -2.4479
13823TIP3    H262961   6.526   4.412  13.620 -0.8537  2.1303  0.3813
13824TIP3   OH262962   4.405   5.294   6.774 -0.4212  0.2111  0.4301
13824TIP3    H162963   4.341   5.365   6.773  1.4751  2.0260  0.1635
13824TIP3    H262964   4.378   5.239   6.847 -2.2137  0.9411  0.3793
13825TIP3   OH262965   0.812   2.054  16.738  0.1716 -0.4684 -0.0288
13825TIP3    H162966   0.813   1.964  16.770  1.0113 -0.0550  1.2101
13825TIP3    H262967   0.723   2.067  16.705 -0.3387 -1.3693  0.9412
13826TIP3   OH262968   4.892   1.781   0.436 -0.6684  0.1981  0.1678
13826TIP3    H162969   4.833   1.854   0.419 -0.8418  0.0247  0.0011
13826TIP3    H262970   4.978   1.821   0.446 -0.8117  0.4508  0.3857
13827TIP3   OH262971   4.906   0.650  16.129  0.3659  0.4919 -0.1276
13827TIP3    H162972   4.979   0.686  16.079  0.9139 -1.6313 -0.9701
13827TIP3    H262973   4.915   0.687  16.216  0.4210  2.9128 -1.0868
13828TIP3   OH262974   6.444   3.559  16.594 -0.0608  0.0121 -0.7142
13828TIP3    H162975   6.484   3.643  16.570  0.4355  0.3250  1.0780
13828TIP3    H262976   6.414   3.572  16.684 -2.2457 -0.9467 -1.2548
13829TIP3   OH262977   5.570   3.073   1.995 -0.3061 -0.3813  0.0287
13829TIP3    H162978   5.560   3.025   1.913  2.1266  0.2386 -0.7191
13829TIP3    H262979   5.664   3.091   2.001 -0.6425  1.0762  2.1201
13830TIP3   OH262980   0.616   5.340   5.530  0.0290 -0.1484 -0.0484
13830TIP3    H162981   0.558   5.416   5.537  1.0657  0.6778 -0.2554
13830TIP3    H262982   0.557   5.265   5.539 -1.0969  0.6563 -0.4151
13831TIP3   OH262983   4.436   4.293  16.319  0.4979 -0.0183  0.2394
13831TIP3    H162984   4.460   4.224  16.381 -0.7574  0.1733  0.9650
13831TIP3    H262985   4.518   4.338  16.301  1.1930 -1.1760  0.3907
13832TIP3   OH262986   6.415   1.144   2.594  0.2132  0.1186 -0.5256
13832TIP3    H162987   6.396   1.229   2.555  0.4728 -0.1812 -1.3232
13832TIP3    H262988   6.328   1.107   2.614  0.1117  1.3176  1.5498
13833TIP3   OH262989   0.384   0.392  12.400  0.3791 -0.0323 -0.6954
13833TIP3    H162990   0.361   0.301  12.381 -1.8251  0.3627 -0.1746
13833TIP3    H262991   0.441   0.386  12.476 -0.9183 -0.9371  0.2543
13834TIP3   OH262992   0.473   1.690  11.894 -0.2796  0.2634  0.1107
13834TIP3    H162993   0.405   1.745  11.855 -1.6980  0.4118  2.5815
13834TIP3    H262994   0.426   1.612  11.924  1.0189 -0.5423  0.1324
13835TIP3   OH262995   2.783   6.575  13.239 -0.2532 -0.0158  0.4732
13835TIP3    H162996   2.712   6.536  13.291  0.1856  0.0163  1.1057
13835TIP3    H262997   2.859   6.520  13.258 -0.0668  0.0502 -0.0750
13836TIP3   OH262998   5.625   1.806  17.232  0.3283 -0.1747 -0.3071
13836TIP3    H162999   5.565   1.876  17.258  0.3273 -0.4411  0.4243
13836TIP3    H263000   5.616   1.740  17.300  0.6781 -0.6805 -0.7472
13837TIP3   OH263001   6.501   3.070  14.834  0.1343  0.6458 -0.2970
13837TIP3    H163002   6.587   3.103  14.808  0.7054 -1.3145 -1.0755
13837TIP3    H263003   6.467   3.137  14.894  1.3683  2.3789 -1.4131
13838TIP3   OH263004   6.197   1.656   3.078  0.3209 -0.0809 -0.7294
13838TIP3    H163005   6.276   1.696   3.044  0.5184 -0.0060 -0.2019
13838TIP3    H263006   6.221   1.628   3.167  0.0542 -0.9593 -0.9266
13839TIP3   OH263007   6.308   5.281  14.356 -0.1415  0.2704  0.0623
13839TIP3    H163008   6.280   5.364  14.394  0.1591  1.0026 -1.2448
13839TIP3    H263009   6.337   5.228  14.430 -0.4222  1.2977  0.9202
13840TIP3   OH263010   3.244   2.176   2.284  0.0463  0.1858  0.5695
13840TIP3    H163011   3.239   2.135   2.197 -0.8065  0.9841  0.2266
13840TIP3    H263012   3.267   2.267   2.266 -0.6705  0.4857  1.1539
13841TIP3   OH263013   2.560   1.692   5.407 -0.2121  0.1126  0.5393
13841TIP3    H163014   2.631   1.756   5.398 -0.8097  0.8148  0.7231
13841TIP3    H263015   2.580   1.625   5.342  1.5615 -0.6071  1.7619
13842TIP3   OH263016   2.609   1.141   0.949 -0.1238  0.4318  0.1990
13842TIP3    H163017   2.681   1.190   0.989  0.1931  0.0935  0.0438
13842TIP3    H263018   2.602   1.177   0.860 -1.7830  2.2209  0.9689
13843TIP3   OH263019   2.781   4.426   1.356 -0.0772  0.4645 -0.1888
13843TIP3    H163020   2.804   4.475   1.278  0.0346  3.0929  1.3656
13843TIP3    H263021   2.706   4.472   1.393 -0.3030 -0.8463  1.1305
13844TIP3   OH263022   6.356   1.985   3.559 -0.3557 -0.2267 -0.4766
13844TIP3    H163023   6.434   2.006   3.612 -1.5171 -0.0163  1.2433
13844TIP3    H263024   6.303   1.929   3.617 -0.1610 -2.9241 -2.6923
13845TIP3   OH263025   4.485   5.764   0.881  0.1966 -0.0165  0.5137
13845TIP3    H163026   4.492   5.807   0.966  1.5377 -0.1695  0.5099
13845TIP3    H263027   4.391   5.764   0.861  0.0014  1.4084  1.2707
13846TIP3   OH263028   2.714   1.409  15.250  0.2260 -0.4525  0.0453
13846TIP3    H163029   2.711   1.332  15.308  0.3279 -0.1914  0.4032
13846TIP3    H263030   2.804   1.411  15.218 -0.0584 -1.1085 -0.8322
13847TIP3   OH263031   6.528   5.027   3.387 -0.3751  0.7733  0.1367
13847TIP3    H163032   6.564   5.100   3.337 -0.8864  1.7195  1.1149
13847TIP3    H263033   6.515   4.958   3.322  1.7328  0.9186 -0.5071
13848TIP3   OH263034   2.107   2.898  12.720 -0.1958 -0.5882 -0.2034
13848TIP3    H163035   2.038   2.920  12.657  0.0414 -0.3955 -0.4019
13848TIP3    H263036   2.148   2.819  12.685  0.4014 -0.0858 -0.6845
13849TIP3   OH263037   1.663   1.859   0.845 -0.1137 -0.1066 -0.1186
13849TIP3    H163038   1.651   1.934   0.787 -0.7654  0.1449  0.3238
13849TIP3    H263039   1.630   1.785   0.795 -0.0725  0.0051 -0.3141
13850TIP3   OH263040   2.497   5.005   0.373 -0.4279 -0.2714  0.5542
13850TIP3    H163041   2.432   5.033   0.309 -0.9659  0.2979  1.3299
13850TIP3    H263042   2.485   5.065   0.447  1.9160  0.8094  0.1744
13851TIP3   OH263043   4.249   5.518   6.724  0.0987  0.0104  0.1090
13851TIP3    H163044   4.262   5.538   6.816 -0.7499  0.5668  0.1183
13851TIP3    H263045   4.299   5.585   6.677  2.9119 -1.9098  0.1168
13852TIP3   OH263046   1.289   5.416   6.149 -0.3289 -0.0729 -0.4582
13852TIP3    H163047   1.314   5.398   6.059 -1.0911 -0.6437 -0.5550
13852TIP3    H263048   1.309   5.335   6.196  1.5897  0.7401  0.2218
13853TIP3   OH263049   3.989   5.873   5.452 -0.2216 -0.7487  0.0824
13853TIP3    H163050   3.907   5.905   5.416 -0.2118 -0.4105  0.3537
13853TIP3    H263051   3.966   5.840   5.539 -0.5930 -3.2225 -0.8624
13854TIP3   OH263052   5.528   3.535  11.866  0.5683 -0.3996  0.3134
13854TIP3    H163053   5.595   3.533  11.798 -0.1525 -0.5447 -0.4128
13854TIP3    H263054   5.544   3.456  11.918  1.1804 -0.2397  0.3766
13855TIP3   OH263055   5.632   2.578  11.623 -0.7161  0.3475  0.5775
13855TIP3    H163056   5.712   2.617  11.586 -1.8680  0.0726 -2.4725
13855TIP3    H263057   5.561   2.613  11.569 -2.3178 -1.9609  1.0437
13856TIP3   OH263058   3.323   0.270  13.167 -0.4230  0.3959 -0.0726
13856TIP3    H163059   3.376   0.340  13.129  0.9498 -1.2387 -1.2932
13856TIP3    H263060   3.381   0.229  13.231 -1.4303  0.7043  1.0753
13857TIP3   OH263061   3.863   2.904  17.239  0.9331  0.7255 -0.1777
13857TIP3    H163062   3.802   2.973  17.263  1.8023  1.3309  0.3548
13857TIP3    H263063   3.927   2.947  17.182  0.3786 -0.0995 -1.4684
13858TIP3   OH263064   3.318   4.563  15.632 -0.6666  0.5364  0.1939
13858TIP3    H163065   3.325   4.490  15.694 -0.7605  1.3577  1.1895
13858TIP3    H263066   3.285   4.636  15.684 -0.4046  1.3482 -0.7500
13859TIP3   OH263067   2.106   5.081   4.904  0.1004 -0.2406  0.1508
13859TIP3    H163068   2.041   5.035   4.957 -1.2184  1.3672 -0.0013
13859TIP3    H263069   2.187   5.075   4.955 -0.8703  0.2693  1.8057
13860TIP3   OH263070   1.425   1.936   5.640  0.1354 -0.4175  0.2924
13860TIP3    H163071   1.498   1.992   5.615 -0.4631  0.9816  1.5415
13860TIP3    H263072   1.387   1.978   5.717 -0.2274 -2.6733  1.4157
13861TIP3   OH263073   4.827   4.158  14.518  0.0981 -0.3132  0.0122
13861TIP3    H163074   4.891   4.116  14.575 -0.4608 -0.2432  0.7014
13861TIP3    H263075   4.763   4.197  14.577  1.8188  3.6418 -0.4385
13862TIP3   OH263076   1.842   4.589   6.600 -0.2973  0.1808 -0.2743
13862TIP3    H163077   1.815   4.503   6.568  0.3209 -0.0508 -0.2005
13862TIP3    H263078   1.908   4.569   6.667 -1.3416  0.6619  0.9292
13863TIP3   OH263079   6.738   2.737   3.757  0.4373 -0.0160  0.8014
13863TIP3    H163080   6.783   2.806   3.709 -0.7023  0.7305  0.7587
13863TIP3    H263081   6.655   2.777   3.783 -0.6922 -1.6829 -0.0850
13864TIP3   OH263082   4.059   4.885  16.035 -0.3823 -0.2327 -0.1278
13864TIP3    H163083   4.140   4.840  16.059 -0.0024 -0.7779 -2.2943
13864TIP3    H263084   4.067   4.901  15.941 -2.2185  0.9134 -0.1311
13865TIP3   OH263085   4.734   4.396   0.870  0.0186  0.4667  0.7211
13865TIP3    H163086   4.778   4.322   0.911  0.0620 -0.4791 -0.9506
13865TIP3    H263087   4.715   4.456   0.943  2.0337 -0.1084  1.8004
13866TIP3   OH263088   2.435   2.157   2.882 -0.2698 -0.3805  0.0812
13866TIP3    H163089   2.487   2.101   2.824 -0.2730 -1.8343  1.4231
13866TIP3    H263090   2.493   2.176   2.955 -0.5052  0.8361 -0.0344
13867TIP3   OH263091   2.653   4.457   0.538  0.1228 -0.3431 -0.4464
13867TIP3    H163092   2.677   4.378   0.490 -1.2027 -0.2057 -1.3795
13867TIP3    H263093   2.613   4.425   0.619  1.1896 -0.5918 -0.0082
13868TIP3   OH263094   0.638   6.283  15.401 -0.2298  0.2954 -0.4043
13868TIP3    H163095   0.696   6.281  15.324 -0.8937 -1.0637 -0.9028
13868TIP3    H263096   0.607   6.193  15.410 -0.6083  0.5551  1.1408
13869TIP3   OH263097   0.229   3.523  16.321  0.0574 -0.1535 -0.4155
13869TIP3    H163098   0.193   3.546  16.406 -0.6256  1.6551 -1.1531
13869TIP3    H263099   0.316   3.563  16.320  0.9678 -2.0017  0.2170
13870TIP3   OH263100   0.571   5.586  15.074  0.2874 -0.1997 -0.2479
13870TIP3    H163101   0.507   5.536  15.125 -2.1515  1.3378 -1.6248
13870TIP3    H263102   0.579   5.669  15.121  0.1638  0.1599 -0.8602
13871TIP3   OH263103   0.596   4.914   5.418 -0.3112  0.4437  0.1536
13871TIP3    H163104   0.544   4.835   5.407  1.1904 -0.4590 -0.8101
13871TIP3    H263105   0.623   4.913   5.509 -0.1142 -0.2911  0.0909
13872TIP3   OH263106   0.301   5.843   1.802 -0.2136 -0.2373 -0.5828
13872TIP3    H163107   0.270   5.865   1.714  2.9248 -0.4336 -1.8863
13872TIP3    H263108   0.268   5.754   1.817 -0.9228 -0.1437 -1.4682
13873TIP3   OH263109   4.205   6.297   2.645  0.6311 -0.1477 -0.5145
13873TIP3    H163110   4.256   6.349   2.582 -0.5235  1.3777 -0.2561
13873TIP3    H263111   4.161   6.363   2.699 -0.3612 -1.4279  0.2793
13874TIP3   OH263112   0.854   4.485   0.387 -0.3501  0.2160 -0.0410
13874TIP3    H163113   0.804   4.566   0.371  0.3910  0.3618 -1.9876
13874TIP3    H263114   0.921   4.485   0.318 -0.4390 -2.1467 -0.2114
13875TIP3   OH263115   5.248   0.795  13.940 -0.0231  0.1186  0.3190
13875TIP3    H163116   5.343   0.787  13.938  0.1956  2.0648  0.6559
13875TIP3    H263117   5.224   0.819  13.851 -0.0005  1.1504  0.5773
13876TIP3   OH263118   5.542   4.387  17.041 -0.5573  0.0442 -0.2279
13876TIP3    H163119   5.602   4.312  17.043 -0.3250  0.1677 -1.4211
13876TIP3    H263120   5.555   4.431  17.125  0.2329 -0.5529 -0.0253
13877TIP3   OH263121   5.996   4.416   0.374 -0.1486  0.1747 -0.3046
13877TIP3    H163122   5.988   4.459   0.289 -1.4500  1.5188  0.4366
13877TIP3    H263123   5.997   4.323   0.355 -4.9099  0.1586 -1.6289
13878TIP3   OH263124   2.883   4.947   1.170  0.3334 -0.0656  0.1200
13878TIP3    H163125   2.843   5.034   1.177  1.5371  0.4603  0.8328
13878TIP3    H263126   2.860   4.903   1.252  0.2398 -0.1916  0.0262
13879TIP3   OH263127   4.681   0.212  14.913  0.4022 -0.1532  0.1297
13879TIP3    H163128   4.776   0.214  14.923  0.8827 -1.3240 -3.1566
13879TIP3    H263129   4.657   0.304  14.898  1.3587 -0.1076 -1.2812
13880TIP3   OH263130   1.927   6.232   4.774  0.2530 -0.6670  0.4480
13880TIP3    H163131   1.953   6.322   4.755  3.6531 -1.0650  2.4048
13880TIP3    H263132   1.836   6.239   4.801 -0.0289  1.9408 -0.8690
13881TIP3   OH263133   1.823   5.735  15.516 -0.9994 -0.3458  0.0695
13881TIP3    H163134   1.873   5.672  15.569  2.1265  1.3924 -0.5886
13881TIP3    H263135   1.870   5.740  15.433 -0.1965  3.7733  0.5564
13882TIP3   OH263136   5.456   0.994  14.892 -0.3889  0.1339  0.2708
13882TIP3    H163137   5.413   0.950  14.819 -2.1875 -0.9423  1.8802
13882TIP3    H263138   5.549   0.977  14.879 -0.7353 -0.7810 -1.2703
13883TIP3   OH263139   3.652   3.702  16.437 -0.8467  0.5231 -0.9470
13883TIP3    H163140   3.726   3.742  16.482 -0.0045 -1.8815 -0.0472
13883TIP3    H263141   3.667   3.722  16.345 -0.0259  1.5060 -0.6246
13884TIP3   OH263142   0.886   4.684   0.075  0.1936  0.1047 -0.2702
13884TIP3    H163143   0.853   4.728   0.154  0.1440 -1.6428  0.7301
13884TIP3    H263144   0.945   4.616   0.109  0.3093 -0.5665 -1.7539
13885TIP3   OH263145   4.400   1.468  14.015  0.2996 -0.2650  0.3166
13885TIP3    H163146   4.441   1.549  13.985 -0.4880 -0.0129 -0.1298
13885TIP3    H263147   4.316   1.466  13.968 -0.8433 -0.0255  2.2684
13886TIP3   OH263148   2.041   1.385  17.293 -0.7542  0.3271  0.7365
13886TIP3    H163149   2.081   1.381  17.206  0.7313  0.6076  1.3894
13886TIP3    H263150   2.114   1.376  17.354 -1.7988 -0.0879  1.9713
13887TIP3   OH263151   2.970   5.157   0.628 -0.2444  0.1327 -0.4782
13887TIP3    H163152   2.946   5.220   0.695 -2.2344 -0.4108 -0.6091
13887TIP3    H263153   2.982   5.075   0.675 -0.5490 -0.0056 -0.6338
13888TIP3   OH263154   3.079   2.518  15.399 -0.3053 -0.1634  0.6115
13888TIP3    H163155   3.024   2.441  15.385 -0.4082 -0.0702  0.5010
13888TIP3    H263156   3.169   2.484  15.402 -0.4007 -0.3744  1.2426
13889TIP3   OH263157   6.095   0.362  11.422  0.1506 -0.3481 -0.1978
13889TIP3    H163158   6.062   0.317  11.500 -1.3893 -0.3892 -0.8459
13889TIP3    H263159   6.021   0.414  11.390  0.6845 -0.4777 -1.7466
13890TIP3   OH263160   5.754   6.684   1.091  0.0920  0.1731  0.4272
13890TIP3    H163161   5.765   6.591   1.114  1.1696 -0.1924 -1.3629
13890TIP3    H263162   5.841   6.713   1.064 -0.3822  1.5089  0.2787
13891TIP3   OH263163   6.404   3.156  13.315  0.7858 -0.3538 -0.1917
13891TIP3    H163164   6.420   3.249  13.300  0.3069  0.0879  1.7683
13891TIP3    H263165   6.324   3.136  13.266 -0.4592  0.8743  1.2698
13892TIP3   OH263166   1.487   0.332  11.850  0.4009  0.4570  0.4703
13892TIP3    H163167   1.476   0.349  11.756  0.7304 -1.5559  0.0176
13892TIP3    H263168   1.461   0.413  11.892 -3.0897  0.3867 -1.1703
13893TIP3   OH263169   1.273   0.102   5.715 -0.0748 -0.2482  0.1063
13893TIP3    H163170   1.209   0.067   5.777 -1.3620  2.8712  0.7050
13893TIP3    H263171   1.273   0.196   5.730  2.8818  0.1663 -1.6342
13894TIP3   OH263172   1.488   5.724  13.940 -0.2444  0.3829  0.3255
13894TIP3    H163173   1.464   5.639  13.903  1.3852 -0.4854  1.1542
13894TIP3    H263174   1.428   5.735  14.014  0.2751 -0.6205  0.9224
13895TIP3   OH263175   3.158   0.621  11.486 -0.2482 -0.2401  0.6307
13895TIP3    H163176   3.250   0.647  11.499 -0.6617  0.1628  3.1077
13895TIP3    H263177   3.136   0.570  11.563 -1.4371 -2.5133 -1.1109
13896TIP3   OH263178   4.972   6.423  15.180  0.2983  0.0621  0.4159
13896TIP3    H163179   5.004   6.439  15.268  2.1915 -0.1179 -0.1932
13896TIP3    H263180   4.947   6.331  15.179 -0.2353  0.1945  0.8868
13897TIP3   OH263181   6.203   4.125  16.876  0.2845  0.1366  0.1051
13897TIP3    H163182   6.275   4.062  16.881  1.4489  1.5351  2.5273
13897TIP3    H263183   6.128   4.078  16.915  0.5681 -0.4164  0.0013
13898TIP3   OH263184   3.390   3.533  11.039  0.1414 -0.2456 -0.9209
13898TIP3    H163185   3.365   3.609  10.986 -1.2466  0.9439  1.2798
13898TIP3    H263186   3.316   3.474  11.032  0.4285 -0.5851 -1.1480
13899TIP3   OH263187   1.857   5.298   3.608  0.4175 -0.3774 -0.3765
13899TIP3    H163188   1.767   5.277   3.582  0.9979 -1.8473 -1.3042
13899TIP3    H263189   1.892   5.348   3.535  0.4131  0.0865 -0.0689
13900TIP3   OH263190   0.139   0.662  13.886  0.2897 -0.0773 -0.0929
13900TIP3    H163191   0.230   0.668  13.915  0.8332 -0.2320 -1.6407
13900TIP3    H263192   0.137   0.585  13.829 -0.8109 -0.0629 -0.0954
13901TIP3   OH263193   1.012   5.357   6.786  0.3822 -0.0327  0.1148
13901TIP3    H163194   1.037   5.292   6.852  2.1553 -0.1114 -0.5542
13901TIP3    H263195   0.979   5.431   6.836 -2.1708 -1.5881  0.8758
13902TIP3   OH263196   4.529   0.337  17.514 -0.1716 -0.4016 -0.5614
13902TIP3    H163197   4.528   0.419  17.465 -0.2155  0.3928  0.7186
13902TIP3    H263198   4.547   0.269  17.448 -2.9299  0.2633 -2.1293
13903TIP3   OH263199   3.956   1.479   3.900  0.5631 -0.4249 -0.1864
13903TIP3    H163200   4.046   1.492   3.930  0.8882 -1.0013 -0.8522
13903TIP3    H263201   3.958   1.508   3.809 -0.7864  2.8111  0.6991
13904TIP3   OH263202   2.400   5.863   1.395  0.4223 -0.0143 -0.3114
13904TIP3    H163203   2.392   5.934   1.459  3.0996 -0.4732  0.6427
13904TIP3    H263204   2.310   5.850   1.363 -0.9954  0.5495  2.9855
13905TIP3   OH263205   5.200   3.498   0.343  0.3876 -0.6105  0.3247
13905TIP3    H163206   5.241   3.439   0.279 -1.9967 -1.5348 -0.4621
13905TIP3    H263207   5.156   3.439   0.404  0.6224  0.3352  1.4262
13906TIP3   OH263208   5.979   5.762   4.501  0.1867  0.5721 -0.0843
13906TIP3    H163209   6.072   5.767   4.477  0.1480 -0.0009 -0.3741
13906TIP3    H263210   5.975   5.695   4.569 -0.2896 -1.0066 -1.5990
13907TIP3   OH263211   4.810   0.725   6.194  0.1915  0.1912 -0.2243
13907TIP3    H163212   4.788   0.730   6.101  0.9009  1.2491 -0.3530
13907TIP3    H263213   4.899   0.690   6.196  1.1519  2.4652 -0.1184
13908TIP3   OH263214   2.526   4.488  10.720 -0.0045 -0.1551  0.1687
13908TIP3    H163215   2.584   4.425  10.677  0.1599  0.7454 -0.9888
13908TIP3    H263216   2.548   4.572  10.678 -1.5952  0.3351  0.2713
13909TIP3   OH263217   2.191   3.920  15.641 -0.2133  0.2150  0.5152
13909TIP3    H163218   2.236   3.976  15.704 -1.5548 -1.0050  2.6658
13909TIP3    H263219   2.249   3.844  15.630  0.3677  0.7685 -0.3403
13910TIP3   OH263220   2.144   4.231  12.596  0.5066 -0.6313  0.0791
13910TIP3    H163221   2.115   4.150  12.553  0.2702 -0.2456 -0.4917
13910TIP3    H263222   2.064   4.283  12.605  1.0115  0.5167 -1.6600
13911TIP3   OH263223   1.947   1.726   0.641  0.0384  0.1440 -0.7567
13911TIP3    H163224   1.865   1.693   0.607 -1.5832  1.0218  1.9441
13911TIP3    H263225   1.987   1.651   0.686 -1.1693  0.5269  1.0647
13912TIP3   OH263226   4.176   5.551  14.242  0.5423  0.6856  0.1214
13912TIP3    H163227   4.210   5.487  14.179 -2.7868 -3.0975  1.6937
13912TIP3    H263228   4.254   5.582  14.289  2.5742 -0.3873 -2.2936
13913TIP3   OH263229   6.377   0.765  12.835 -0.4410 -0.0338  0.2204
13913TIP3    H163230   6.296   0.724  12.803 -0.2651 -1.2065  1.1892
13913TIP3    H263231   6.356   0.795  12.924 -0.2802  1.1603 -0.1304
13914TIP3   OH263232   0.038   2.514   2.682  0.2827  0.1074 -0.0010
13914TIP3    H163233   0.067   2.437   2.731 -0.3049  0.6158  1.1777
13914TIP3    H263234   0.077   2.588   2.727 -0.1584  0.5850 -0.3890
13915TIP3   OH263235   2.968   3.367   2.307 -0.1931 -0.0910  0.5341
13915TIP3    H163236   2.970   3.272   2.320 -0.1670 -0.4152 -1.4266
13915TIP3    H263237   3.060   3.392   2.296 -0.0033  0.5426  3.0443
13916TIP3   OH263238   2.828   3.755  16.602 -0.0599 -0.9256 -0.2398
13916TIP3    H163239   2.840   3.846  16.578  0.4554 -1.5753 -2.7220
13916TIP3    H263240   2.897   3.738  16.667  0.4901  0.1768 -0.5106
13917TIP3   OH263241   1.280   0.818   3.968 -0.5944 -0.0966 -0.3728
13917TIP3    H163242   1.262   0.912   3.967 -0.1035  0.0009 -0.5984
13917TIP3    H263243   1.197   0.777   3.944 -1.2025  0.2046  1.1437
13918TIP3   OH263244   5.961   6.221  13.773 -0.3021 -0.0258  0.0596
13918TIP3    H163245   5.956   6.296  13.713 -0.6931  0.0782  0.2249
13918TIP3    H263246   6.025   6.247  13.839  0.2513 -0.2024 -0.3956
13919TIP3   OH263247   5.230   3.596  16.903  0.8460  0.3516 -0.2357
13919TIP3    H163248   5.181   3.639  16.833  0.6415  0.8205  0.1907
13919TIP3    H263249   5.277   3.525  16.859  0.0996  0.1424 -0.7173
13920TIP3   OH263250   4.634   1.538  12.447  0.6851 -0.2083 -0.4383
13920TIP3    H163251   4.542   1.560  12.464  0.3147 -2.5689  1.0724
13920TIP3    H263252   4.630   1.451  12.406  2.2669 -0.9779  0.9365
13921TIP3   OH263253   2.304   5.513  11.796 -0.0130  0.1766  0.0721
13921TIP3    H163254   2.316   5.603  11.828 -0.9949  0.6891 -0.9545
13921TIP3    H263255   2.210   5.504  11.782  0.0355 -1.1243  0.4438
13922TIP3   OH263256   2.669   2.244  10.665  0.2062 -0.5149  0.7101
13922TIP3    H163257   2.574   2.249  10.662  0.2613  0.3188 -0.3084
13922TIP3    H263258   2.697   2.332  10.691  0.7673  0.3643 -2.4333
13923TIP3   OH263259   6.216   2.039  16.237 -0.3723 -0.3983  0.0989
13923TIP3    H163260   6.174   1.960  16.270 -0.8974  0.1134  0.6769
13923TIP3    H263261   6.159   2.069  16.167  0.3057 -1.0246 -0.7369
13924TIP3   OH263262   3.327   2.629   6.025  0.2871 -0.4515  0.6658
13924TIP3    H163263   3.301   2.595   5.940  5.2751 -3.1868 -0.1596
13924TIP3    H263264   3.345   2.722   6.010  0.7682 -0.8093 -1.2316
13925TIP3   OH263265   4.900   2.555   6.254 -0.4891  0.3797 -0.0682
13925TIP3    H163266   4.859   2.638   6.229 -0.6932  0.6271  1.0503
13925TIP3    H263267   4.960   2.536   6.182 -1.6225  0.6688 -1.1106
13926TIP3   OH263268   0.976   2.883   5.099 -0.7410 -0.1968  1.0031
13926TIP3    H163269   0.927   2.890   5.181  2.3748 -0.3886  3.0527
13926TIP3    H263270   1.063   2.854   5.126  0.8845  1.2012 -2.2396
13927TIP3   OH263271   0.051   1.069  13.635  0.9435 -0.2020  0.3811
13927TIP3    H163272   0.120   1.131  13.610  0.3075  0.0058 -0.9490
13927TIP3    H263273   0.059   1.061  13.730  0.2436  2.9345  0.8101
13928TIP3   OH263274   2.776   4.521  16.040 -0.9087 -0.4222  0.4331
13928TIP3    H163275   2.844   4.525  16.107 -1.2925  2.1569  0.7538
13928TIP3    H263276   2.699   4.487  16.086 -0.4594 -1.2598  0.5964
13929TIP3   OH263277   4.809   4.526   0.195  0.2285  0.1365 -1.0206
13929TIP3    H163278   4.816   4.451   0.136  2.9814 -0.2594 -0.3584
13929TIP3    H263279   4.812   4.602   0.138 -3.5170 -0.1308 -1.7769
13930TIP3   OH263280   4.937   0.294   1.753  0.2814 -0.5912  0.0108
13930TIP3    H163281   4.946   0.243   1.833  0.8679 -1.6913 -0.7376
13930TIP3    H263282   5.026   0.320   1.732  0.2869 -1.3633 -0.9549
13931TIP3   OH263283   0.780   2.416   1.994  0.1319 -0.5824  0.2327
13931TIP3    H163284   0.698   2.429   1.947 -0.7819 -0.7747  1.7169
13931TIP3    H263285   0.761   2.444   2.084  1.8913  0.0073  0.4559
13932TIP3   OH263286   3.217   2.611  15.722  0.6642  0.2321 -0.1145
13932TIP3    H163287   3.129   2.582  15.745 -0.3316  1.8528 -1.5852
13932TIP3    H263288   3.217   2.611  15.626  2.8372 -1.2887 -0.1617
13933TIP3   OH263289   4.430   6.669   0.527  0.5686 -0.1962  0.1784
13933TIP3    H163290   4.501   6.674   0.462  0.0814  0.3793 -0.3192
13933TIP3    H263291   4.384   6.752   0.518 -2.0298 -1.6931 -1.6489
13934TIP3   OH263292   4.990   1.918  13.548  0.2731 -0.3262 -0.0152
13934TIP3    H163293   4.952   1.890  13.632 -3.8630 -2.7039 -2.3526
13934TIP3    H263294   5.011   1.836  13.503  2.8522  0.8960 -1.2278
13935TIP3   OH263295   1.678   6.285   4.899  0.6461  0.2654 -0.8243
13935TIP3    H163296   1.643   6.330   4.822 -0.2550  1.8901  0.4477
13935TIP3    H263297   1.652   6.341   4.973  2.2352 -0.7555  0.5894
13936TIP3   OH263298   6.138   4.661   0.810  0.2989 -0.7723  0.1514
13936TIP3    H163299   6.162   4.620   0.727  2.1184 -0.0527  0.2823
13936TIP3    H263300   6.175   4.749   0.805 -3.5754  1.0593 -0.1958
13937TIP3   OH263301   0.530   3.582   2.803  0.4782 -0.2682  0.2511
13937TIP3    H163302   0.539   3.638   2.880 -0.7854 -0.9630  0.9455
13937TIP3    H263303   0.487   3.503   2.836  1.9078 -1.5298 -0.7601
13938TIP3   OH263304   6.316   6.286   3.296  0.5779 -0.6014  0.3928
13938TIP3    H163305   6.282   6.205   3.258 -0.0962 -0.1180 -0.0600
13938TIP3    H263306   6.390   6.309   3.241  1.2768 -1.3149  0.9960
13939TIP3   OH263307   4.598   1.954  12.274  0.0376 -0.7850  0.5379
13939TIP3    H163308   4.534   1.901  12.229  0.1962  0.6911 -1.5595
13939TIP3    H263309   4.547   2.022  12.319  0.0257 -0.5769  0.2138
13940TIP3   OH263310   3.499   2.881  16.689 -0.5084  0.1866 -0.0888
13940TIP3    H163311   3.564   2.951  16.690 -1.8875  1.5337  1.0979
13940TIP3    H263312   3.465   2.882  16.600  1.4224 -0.9221 -0.8934
13941TIP3   OH263313   0.525   6.253  14.211 -0.3556 -0.1694 -0.1973
13941TIP3    H163314   0.475   6.208  14.143 -0.3866 -1.1055  0.4313
13941TIP3    H263315   0.605   6.281  14.168 -0.2406 -1.0238 -0.5517
13942TIP3   OH263316   5.043   6.402  11.433 -0.2098  0.0412 -0.2231
13942TIP3    H163317   5.050   6.457  11.355 -0.2883  0.2842 -0.0596
13942TIP3    H263318   5.061   6.461  11.506 -0.0117 -0.2147 -0.0649
13943TIP3   OH263319   5.430   4.165  14.652  0.1832 -0.3887  0.6338
13943TIP3    H163320   5.464   4.079  14.626  0.6947 -0.0104  0.0168
13943TIP3    H263321   5.476   4.227  14.595 -1.4119  0.1686 -0.1338
13944TIP3   OH263322   5.477   3.075  14.349 -0.4959  0.5309 -0.5888
13944TIP3    H163323   5.439   3.120  14.273  0.6431 -0.1806 -1.6132
13944TIP3    H263324   5.564   3.048  14.319 -0.2880 -0.3473  0.7639
13945TIP3   OH263325   0.061   5.325   2.261  0.0570 -0.1205 -0.0698
13945TIP3    H163326   0.105   5.357   2.340 -0.6061 -0.5105  0.4714
13945TIP3    H263327  -0.031   5.322   2.285  0.0177 -1.7783 -0.3176
13946TIP3   OH263328   1.258   3.513  16.722 -0.1338  0.5081 -0.1716
13946TIP3    H163329   1.269   3.607  16.704 -1.2351  0.8839  0.9658
13946TIP3    H263330   1.347   3.479  16.728  0.2851  1.2605 -1.5984
13947TIP3   OH263331   2.726   4.694   2.399 -0.4823 -0.0076  0.1672
13947TIP3    H163332   2.648   4.687   2.453 -0.8398 -1.1270 -0.4477
13947TIP3    H263333   2.741   4.788   2.390 -0.0925  0.2233  2.6027
13948TIP3   OH263334   4.454   3.778   1.641  0.5594 -0.2255 -0.4399
13948TIP3    H163335   4.463   3.764   1.547  1.4374  2.4553 -0.8271
13948TIP3    H263336   4.365   3.813   1.651 -0.2806 -2.3716  0.0401
13949TIP3   OH263337   2.415   2.917  11.174  0.3508  0.1132  0.3590
13949TIP3    H163338   2.506   2.921  11.143  0.2734 -1.3671 -0.1391
13949TIP3    H263339   2.372   2.856  11.115 -0.7215 -0.0005  1.2180
13950TIP3   OH263340   2.032   5.802   2.438  0.2812  0.4021  0.0707
13950TIP3    H163341   2.045   5.795   2.532 -0.7159 -2.2304  0.0895
13950TIP3    H263342   1.953   5.856   2.428 -0.8532 -1.0276  0.8964
13951TIP3   OH263343   3.929   4.799  12.869  0.1127  0.1541 -0.3448
13951TIP3    H163344   3.944   4.825  12.960 -0.2037  1.7449 -0.6999
13951TIP3    H263345   3.992   4.851  12.819 -0.3597  0.0083 -1.1000
13952TIP3   OH263346   5.306   1.642   4.103 -0.6378  0.1103 -0.7624
13952TIP3    H163347   5.218   1.603   4.100 -0.9780  0.1960  2.8291
13952TIP3    H263348   5.365   1.568   4.108 -0.8068  0.0230  0.1048
13953TIP3   OH263349   3.155   3.687  15.364  0.3351  0.5716 -0.2090
13953TIP3    H163350   3.205   3.697  15.283  0.3025 -3.4673 -0.9084
13953TIP3    H263351   3.219   3.660  15.429 -0.0133  1.4695  0.5273
13954TIP3   OH263352   4.139   6.453   5.865 -0.1339  0.1272  0.1410
13954TIP3    H163353   4.215   6.505   5.891  1.1596 -0.7358 -1.7132
13954TIP3    H263354   4.097   6.505   5.796 -0.6667  0.1396  0.4701
13955TIP3   OH263355   2.467   1.370  11.690  0.0439  0.8038 -0.1202
13955TIP3    H163356   2.443   1.330  11.606 -0.2177 -1.4496  0.9576
13955TIP3    H263357   2.399   1.434  11.707  0.3103  1.5882 -1.7871
13956TIP3   OH263358   4.057   3.033   0.180  0.0678 -0.0664 -0.8015
13956TIP3    H163359   4.008   3.002   0.104 -0.9745 -0.2456 -0.0739
13956TIP3    H263360   4.060   3.128   0.169 -1.1438  0.0333 -0.4782
13957TIP3   OH263361   6.208   3.154   4.450  0.0627  0.5175  0.1171
13957TIP3    H163362   6.271   3.086   4.470  0.1120  1.4272  3.7510
13957TIP3    H263363   6.124   3.118   4.478 -0.7782  0.2154 -2.4958
13958TIP3   OH263364   4.938   0.805   5.655 -0.0513  0.1058 -0.4755
13958TIP3    H163365   5.015   0.848   5.618  1.8151 -2.4428  0.1716
13958TIP3    H263366   4.964   0.780   5.743 -1.6999 -0.6968 -0.1663
13959TIP3   OH263367   6.696   5.038   2.743 -0.3817  0.4459  0.1230
13959TIP3    H163368   6.768   5.094   2.717 -0.6386  1.4216  1.4416
13959TIP3    H263369   6.618   5.092   2.733 -0.9737 -0.5970 -1.2989
13960TIP3   OH263370   3.360   5.935   4.466 -0.2150 -0.3245  0.6920
13960TIP3    H163371   3.402   6.003   4.413  0.9702 -1.3923  0.2032
13960TIP3    H263372   3.426   5.912   4.532 -0.1894 -1.6806  0.2318
13961TIP3   OH263373   0.262   4.854  11.622 -0.2058  0.2463  0.4677
13961TIP3    H163374   0.185   4.861  11.566  2.1669 -1.0637 -3.3625
13961TIP3    H263375   0.274   4.941  11.658 -1.5547  1.3971 -1.6692
13962TIP3   OH263376   4.026   2.672   3.017 -0.4629 -0.6743  0.1547
13962TIP3    H163377   4.058   2.762   3.017  0.7012 -1.0426 -1.1681
13962TIP3    H263378   3.941   2.677   2.972 -2.4734  0.3096  3.6812
13963TIP3   OH263379   4.572   5.734  15.506 -0.1807  0.3725  0.8423
13963TIP3    H163380   4.654   5.702  15.469  0.9391  2.2395  1.5735
13963TIP3    H263381   4.517   5.750  15.430  0.7946  0.8187  0.2097
13964TIP3   OH263382   5.420   6.442   5.839 -0.0755 -0.1719 -0.7366
13964TIP3    H163383   5.422   6.425   5.744  0.5114  0.3667 -0.8295
13964TIP3    H263384   5.512   6.448   5.863 -0.2228 -0.4814 -0.0930
13965TIP3   OH263385   0.760   6.752   5.931 -0.2869  0.1223 -0.1174
13965TIP3    H163386   0.697   6.807   5.977 -0.7309  0.8487 -1.5455
13965TIP3    H263387   0.728   6.663   5.943 -2.2283  0.5334 -1.6694
13966TIP3   OH263388   2.414   0.468   0.211 -0.0134 -0.6634 -0.1057
13966TIP3    H163389   2.385   0.383   0.244  0.7142 -0.5597  0.8522
13966TIP3    H263390   2.509   0.466   0.219 -0.0655  0.7927  1.3916
13967TIP3   OH263391   3.810   1.911  14.345  0.2577 -0.1427  0.3918
13967TIP3    H163392   3.838   1.920  14.436 -0.7514  0.0375  0.6935
13967TIP3    H263393   3.858   1.979  14.298 -0.5181  0.9275  1.1000
13968TIP3   OH263394   4.887   0.363   6.803  0.2126  0.5011  0.2855
13968TIP3    H163395   4.803   0.385   6.842 -0.5223  0.2296 -1.0749
13968TIP3    H263396   4.919   0.445   6.766 -0.9342  0.0690 -1.8415
13969TIP3   OH263397   1.679   1.368  14.504  0.2183 -0.3148  0.1303
13969TIP3    H163398   1.740   1.435  14.535 -0.1102 -0.0324  0.1800
13969TIP3    H263399   1.593   1.401  14.530  0.0825 -0.9489  0.5023
13970TIP3   OH263400   3.720   3.028  12.553 -0.4953  0.3136 -0.0105
13970TIP3    H163401   3.701   2.989  12.468  0.0526  0.6298 -0.2830
13970TIP3    H263402   3.813   3.048  12.550  0.3276 -2.5771  1.8470
13971TIP3   OH263403   5.308   0.730   0.956  0.0665 -0.1851  0.4663
13971TIP3    H163404   5.311   0.713   0.861  1.3985 -0.1540  0.4812
13971TIP3    H263405   5.264   0.653   0.992  2.3678 -1.7482  0.1128
13972TIP3   OH263406   2.188   2.351  11.087  0.3365  0.4565  0.6099
13972TIP3    H163407   2.154   2.423  11.035 -0.3319 -0.2010  0.1149
13972TIP3    H263408   2.269   2.326  11.043  0.3718  0.6530  0.5619
13973TIP3   OH263409   2.054   5.951  14.190 -0.1086  0.0883  0.0580
13973TIP3    H163410   1.979   5.987  14.238  0.0035  0.4774 -0.0469
13973TIP3    H263411   2.018   5.930  14.104  0.0166  0.7873 -0.1742
13974TIP3   OH263412   3.832   4.190   2.418 -0.6486  0.3447  0.2186
13974TIP3    H163413   3.901   4.218   2.478  0.4569 -3.2116  0.8474
13974TIP3    H263414   3.751   4.196   2.469  0.2874 -2.7816  2.3374
13975TIP3   OH263415   4.749   3.205  15.199 -0.5345 -0.2655 -0.3414
13975TIP3    H163416   4.710   3.215  15.112  1.0392  0.5871 -1.0011
13975TIP3    H263417   4.803   3.283  15.210  0.7213 -1.2312  0.6380
13976TIP3   OH263418   0.370   4.883   3.777  0.0846  0.3490  0.2809
13976TIP3    H163419   0.411   4.798   3.763 -0.1902  0.1966  0.3767
13976TIP3    H263420   0.355   4.918   3.689  0.3200  0.3600  0.2443
13977TIP3   OH263421   1.804   3.122   1.039  0.0567  0.0656  0.2845
13977TIP3    H163422   1.756   3.046   1.074 -1.4342 -0.0497 -1.8286
13977TIP3    H263423   1.896   3.101   1.056 -0.4279 -1.1191  1.7878
13978TIP3   OH263424   1.313   3.959  11.663 -0.4630  0.5012  0.3881
13978TIP3    H163425   1.256   3.906  11.606 -1.0286  0.2503  1.1702
13978TIP3    H263426   1.278   3.945  11.751  0.7350  0.4535  0.8736
13979TIP3   OH263427   0.180   4.446   0.345 -0.1960  0.3392 -0.0762
13979TIP3    H163428   0.228   4.412   0.421  0.0143  2.2746  0.7350
13979TIP3    H263429   0.105   4.493   0.383 -1.6195 -0.9093 -1.2311
13980TIP3   OH263430   4.106   3.530  10.851  0.1603  0.5294 -0.1345
13980TIP3    H163431   4.194   3.512  10.821 -0.5615  0.9105 -2.6699
13980TIP3    H263432   4.068   3.588  10.785 -1.6305  1.3243  1.4647
13981TIP3   OH263433   2.710   2.074  11.536 -0.0963 -0.1961  0.1965
13981TIP3    H163434   2.726   2.012  11.607 -0.6024 -1.9060 -1.1100
13981TIP3    H263435   2.755   2.154  11.563  0.5784 -1.1130  1.9526
13982TIP3   OH263436   5.298   6.608   6.057 -0.3189 -0.4355  0.1202
13982TIP3    H163437   5.308   6.550   5.982  1.7136 -1.5743  1.1752
13982TIP3    H263438   5.297   6.549   6.133  1.4515  0.8087  1.2074
13983TIP3   OH263439   4.833   3.472  15.925  0.6805  0.4778 -0.3509
13983TIP3    H163440   4.833   3.426  16.009  0.2455  0.4033 -0.3901
13983TIP3    H263441   4.878   3.413  15.865  1.4054  0.7301 -0.0636
13984TIP3   OH263442   0.425   3.825   0.464 -0.4575  0.3337 -0.1998
13984TIP3    H163443   0.359   3.756   0.472 -0.3312  0.0460 -1.3651
13984TIP3    H263444   0.508   3.781   0.482 -0.6085  0.8256  1.8494
13985TIP3   OH263445   6.082   4.162   0.053 -0.7750 -0.0692 -0.0689
13985TIP3    H163446   6.142   4.225   0.013  1.2124 -1.2948  0.8088
13985TIP3    H263447   6.062   4.100  -0.017  0.8932 -0.9408  0.1698
13986TIP3   OH263448   3.454   2.633   4.990  0.1563  0.6650 -0.0333
13986TIP3    H163449   3.496   2.564   5.042 -2.3633  0.2539  1.6281
13986TIP3    H263450   3.475   2.714   5.036  0.4609  0.6540 -0.1495
13987TIP3   OH263451   3.088   5.291   5.835  0.6484 -0.2907 -0.3357
13987TIP3    H163452   3.095   5.386   5.837 -0.0856 -0.1968 -1.3841
13987TIP3    H263453   3.129   5.265   5.752 -2.8145 -0.4631 -2.1910
13988TIP3   OH263454   5.444   5.562  11.273 -0.0225  0.2127 -0.0677
13988TIP3    H163455   5.410   5.598  11.191  0.1800 -2.6197 -1.5412
13988TIP3    H263456   5.530   5.526  11.249 -1.3673 -3.7578  0.3705
13989TIP3   OH263457   3.026   0.672  16.027  0.2806  0.4274 -0.0650
13989TIP3    H163458   3.081   0.747  16.004  0.9622 -0.1212 -0.2397
13989TIP3    H263459   3.048   0.606  15.962 -0.9846  0.3814 -0.4664
13990TIP3   OH263460   2.396   3.751   4.629 -0.3303 -0.0043  0.4647
13990TIP3    H163461   2.333   3.749   4.557  1.3910 -0.1880 -1.1086
13990TIP3    H263462   2.342   3.751   4.708 -2.2886  0.4441 -0.8094
13991TIP3   OH263463   3.884   0.379  15.544 -0.4534  0.4800  0.4466
13991TIP3    H163464   3.898   0.358  15.636  1.7466  0.6285  0.1855
13991TIP3    H263465   3.926   0.307  15.496  0.7083  1.6838 -0.4165
13992TIP3   OH263466   1.989   1.244   6.695  0.4143 -0.0338 -0.0584
13992TIP3    H163467   1.928   1.210   6.630 -1.5877 -0.3888  1.9100
13992TIP3    H263468   2.049   1.171   6.712  0.8562  0.0031 -1.3131
13993TIP3   OH263469   2.718   2.622   4.069 -0.5997  0.3069  0.2107
13993TIP3    H163470   2.778   2.558   4.106  0.4551  1.2736  0.1979
13993TIP3    H263471   2.726   2.610   3.974 -1.2012 -0.2466  0.2196
13994TIP3   OH263472   1.631   2.783   6.018 -0.1751 -0.1342  0.2342
13994TIP3    H163473   1.724   2.799   6.003 -0.4355  1.4115  0.0742
13994TIP3    H263474   1.627   2.694   6.054  1.4572  0.1686  1.2611
13995TIP3   OH263475   5.959   5.213  14.695  0.2318  0.5037  0.8730
13995TIP3    H163476   6.022   5.159  14.744 -0.2861 -1.8732 -0.8800
13995TIP3    H263477   5.880   5.159  14.690  0.4335  0.3162 -2.9100
13996TIP3   OH263478   3.508   3.582  14.191  0.6084 -0.2178  0.5911
13996TIP3    H163479   3.449   3.518  14.230  1.2906 -1.1415  0.1380
13996TIP3    H263480   3.458   3.664  14.190 -0.5829 -0.9335  0.3904
13997TIP3   OH263481   5.135   4.419  14.554 -0.4144 -0.3401  0.3262
13997TIP3    H163482   5.044   4.421  14.525  0.5040 -0.4778 -2.8598
13997TIP3    H263483   5.172   4.343  14.511  1.5632  0.5537  0.3631
13998TIP3   OH263484   6.587   6.461  15.636 -0.0416  0.1549 -0.0306
13998TIP3    H163485   6.561   6.549  15.609  0.0119  0.7545  1.7599
13998TIP3    H263486   6.577   6.461  15.731  1.0714 -1.4065  0.1241
13999TIP3   OH263487   1.514   5.746  14.506 -0.5614  0.3081 -0.3968
13999TIP3    H163488   1.476   5.830  14.482 -2.6392 -1.1401 -2.5742
13999TIP3    H263489   1.439   5.691  14.528  0.5712 -1.4976 -0.8263
14000TIP3   OH263490   4.276   2.563  17.170  0.0121  0.5196  0.2203
14000TIP3    H163491   4.324   2.491  17.130 -0.2315 -1.9155  3.7739
14000TIP3    H263492   4.203   2.580  17.111 -0.3187 -2.7333 -0.4759
14001TIP3   OH263493   2.266   6.228  16.770 -0.2095 -0.0107  0.0096
14001TIP3    H163494   2.251   6.200  16.680  0.0159 -1.4996  0.4133
14001TIP3    H263495   2.341   6.287  16.764  0.0751 -0.4322 -0.7280
14002TIP3   OH263496   1.363   1.198  11.891 -0.0121 -0.1164 -0.6179
14002TIP3    H163497   1.400   1.231  11.973  2.0214  1.4726 -2.0629
14002TIP3    H263498   1.339   1.277  11.843 -0.0097 -0.9666 -2.0514
14003TIP3   OH263499   2.865   4.776   5.863  0.0112 -0.3100  0.1594
14003TIP3    H163500   2.858   4.761   5.769  0.3808  0.1496  0.0522
14003TIP3    H263501   2.911   4.859   5.870 -1.2088  0.3387  0.7398
14004TIP3   OH263502   1.674   5.144   4.899  0.7409  0.2772  0.3026
14004TIP3    H163503   1.718   5.145   4.814  0.8983 -2.5213  0.2473
14004TIP3    H263504   1.607   5.076   4.891  0.0690  0.6750  2.1004
14005TIP3   OH263505   0.681   1.844  15.757 -0.2418  0.8889 -0.0315
14005TIP3    H163506   0.751   1.848  15.822 -1.2419  0.7324  1.1003
14005TIP3    H263507   0.604   1.880  15.802 -0.9975  0.6501 -1.0807
14006TIP3   OH263508   3.361   5.593  12.057  0.2217 -0.2499 -0.2622
14006TIP3    H163509   3.335   5.503  12.036  1.2234 -0.8459  0.9093
14006TIP3    H263510   3.320   5.646  11.990 -1.8013 -1.4024 -0.0194
14007TIP3   OH263511   2.178   1.624  16.764  0.5504  0.2248  0.2596
14007TIP3    H163512   2.253   1.680  16.782  0.6060  0.1379  0.2999
14007TIP3    H263513   2.174   1.619  16.668  2.3989 -2.1429  0.2117
14008TIP3   OH263514   1.729   5.900  15.300 -0.1793  0.0677  0.3229
14008TIP3    H163515   1.773   5.880  15.217  0.4498  0.3601  0.5786
14008TIP3    H263516   1.652   5.844  15.300  0.7346 -1.2318  0.3246
14009TIP3   OH263517   4.909   5.458  13.522 -0.3786 -0.1244  0.0250
14009TIP3    H163518   4.839   5.499  13.470  0.4759 -0.6205 -1.5827
14009TIP3    H263519   4.863   5.390  13.573 -1.1819  0.0029 -0.5010
14010TIP3   OH263520   0.342   3.020  11.896  0.3368 -0.2487 -0.0385
14010TIP3    H163521   0.353   3.029  11.802  1.8674  0.8864  0.2116
14010TIP3    H263522   0.375   2.932  11.916 -1.1349 -0.9832 -0.6758
14011TIP3   OH263523   5.032   1.618   2.117 -0.0350  0.0476  0.3039
14011TIP3    H163524   5.096   1.576   2.174 -0.6167  1.3117  1.9852
14011TIP3    H263525   4.949   1.607   2.163 -0.8672 -0.5752 -1.2876
14012TIP3   OH263526   0.958   4.540   4.326  0.2018 -0.1741 -0.2486
14012TIP3    H163527   0.904   4.602   4.375  0.2522  1.0333 -1.6783
14012TIP3    H263528   1.014   4.499   4.393  1.4763  2.6452  0.5622
14013TIP3   OH263529   3.782   4.020   6.303  0.2119 -0.4610  0.5424
14013TIP3    H163530   3.753   3.931   6.321  1.3686 -0.9070  0.2586
14013TIP3    H263531   3.818   4.051   6.387 -1.8215  0.4121  1.1407
14014TIP3   OH263532   4.729   3.192  17.353  0.6120  0.0312  0.5330
14014TIP3    H163533   4.637   3.197  17.329  0.1596 -1.9630  1.6719
14014TIP3    H263534   4.776   3.213  17.272 -0.7897  1.6352  0.0797
14015TIP3   OH263535   1.688   1.579  13.161  0.1212 -0.6894 -0.3803
14015TIP3    H163536   1.676   1.564  13.067  1.2508  2.6600 -1.1884
14015TIP3    H263537   1.783   1.590  13.172 -0.1946  1.8094  0.5505
14016TIP3   OH263538   0.255   5.172   2.572 -0.5165 -0.4980  0.3143
14016TIP3    H163539   0.223   5.102   2.629  0.6226 -1.7894 -0.5726
14016TIP3    H263540   0.348   5.180   2.594 -0.4939  0.3008 -0.0567
14017TIP3   OH263541   1.139   6.001   2.608  0.2106  0.0253  0.0434
14017TIP3    H163542   1.045   5.994   2.625  0.3456  2.2561  2.4781
14017TIP3    H263543   1.148   5.991   2.514 -2.5126  0.0435 -0.2853
14018TIP3   OH263544   3.650   5.589   2.872  0.5048 -0.0202 -0.0625
14018TIP3    H163545   3.647   5.496   2.893 -1.3885 -0.6001 -2.3803
14018TIP3    H263546   3.558   5.613   2.861  1.0007  1.9474 -0.2365
14019TIP3   OH263547   5.755   2.421  12.693 -0.2050  0.3326 -0.1523
14019TIP3    H163548   5.821   2.483  12.724 -1.2363  1.4842 -0.1905
14019TIP3    H263549   5.671   2.465  12.711 -1.0107 -1.4569  0.6990
14020TIP3   OH263550   0.580   5.604  11.731 -0.1468 -0.1719  0.6343
14020TIP3    H163551   0.579   5.687  11.683 -2.9147 -1.3268 -1.6344
14020TIP3    H263552   0.494   5.598  11.771  0.1792 -1.7440  1.1863
14021TIP3   OH263553   6.274   1.860  14.773 -0.0435 -0.1066 -0.2308
14021TIP3    H163554   6.182   1.884  14.786  0.2949  0.7210  0.8036
14021TIP3    H263555   6.311   1.932  14.722  0.2112 -0.0675  0.0083
14022TIP3   OH263556   2.836   0.949  12.937 -0.1983 -0.5316 -0.3177
14022TIP3    H163557   2.772   0.879  12.947  0.5041 -0.9854  1.3215
14022TIP3    H263558   2.857   0.949  12.843 -0.9876 -1.8080 -0.5159
14023TIP3   OH263559   6.505   4.098   1.923 -0.2212  0.0372  0.0271
14023TIP3    H163560   6.494   4.192   1.909  0.3953  0.2214  0.7488
14023TIP3    H263561   6.541   4.067   1.840 -0.0761  0.5024 -0.0917
14024TIP3   OH263562   3.671   4.072  12.979 -0.5404  0.2694 -0.3338
14024TIP3    H163563   3.635   4.157  12.951 -1.1841 -0.0542 -0.4948
14024TIP3    H263564   3.713   4.038  12.900 -2.1361 -0.5268 -0.8949
14025TIP3   OH263565   3.837   6.091   6.003  0.1272 -0.4217 -0.1869
14025TIP3    H163566   3.775   6.030   5.962  0.5711 -0.6736 -0.4936
14025TIP3    H263567   3.904   6.107   5.935  0.0857  0.3100 -0.0681
14026TIP3   OH263568   5.173   1.645   6.357 -0.3714 -0.0598  0.1654
14026TIP3    H163569   5.153   1.561   6.399 -0.7713  0.3078  0.7311
14026TIP3    H263570   5.091   1.694   6.360 -0.7870 -0.4849 -2.2519
14027TIP3   OH263571   2.149   6.447   4.009  0.3780  0.2685  0.1127
14027TIP3    H163572   2.189   6.369   4.048  0.4361  0.2760  0.0694
14027TIP3    H263573   2.068   6.460   4.059  1.0651  1.0108  1.0773
14028TIP3   OH263574   6.429   5.517   5.627 -0.1041 -0.4149 -0.4040
14028TIP3    H163575   6.432   5.421   5.623 -0.9750 -0.4296 -0.9440
14028TIP3    H263576   6.454   5.546   5.540 -1.9494 -0.2292 -0.9138
14029TIP3   OH263577   0.822   3.108  17.378 -0.4267 -0.7417  0.2197
14029TIP3    H163578   0.912   3.081  17.395 -0.5752 -0.7094  1.0875
14029TIP3    H263579   0.820   3.201  17.403 -0.5976 -0.6292 -0.1988
14030TIP3   OH263580   2.712   6.472  15.753 -0.2733  0.1492 -0.5616
14030TIP3    H163581   2.782   6.512  15.701 -0.1852 -0.4342 -0.8998
14030TIP3    H263582   2.738   6.487  15.844  0.8568 -0.9955 -0.6664
14031TIP3   OH263583   2.228   1.621  15.679 -1.0743 -0.0743  0.0405
14031TIP3    H163584   2.227   1.641  15.585 -1.1136 -3.1193 -0.7017
14031TIP3    H263585   2.136   1.604  15.700 -0.8226 -1.4592  0.0915
14032TIP3   OH263586   1.749   0.510   3.317 -0.0908 -0.1733 -0.5464
14032TIP3    H163587   1.839   0.479   3.319  0.2209  0.5720  2.3293
14032TIP3    H263588   1.697   0.435   3.347 -0.1730 -0.0489 -0.3713
14033TIP3   OH263589   1.078   3.448   4.829  0.1683 -0.0991  0.4297
14033TIP3    H163590   1.173   3.454   4.836  0.0581  1.0892  1.3202
14033TIP3    H263591   1.046   3.489   4.909 -1.0967 -1.1633  0.5073
14034TIP3   OH263592   3.077   6.261  13.562 -0.4118  0.4691 -0.0527
14034TIP3    H163593   3.090   6.213  13.480  0.4511  0.0441  0.3126
14034TIP3    H263594   3.003   6.217  13.603 -0.1877  0.0015 -0.1325
14035TIP3   OH263595   5.780   5.225  11.508 -0.0662 -0.9439 -0.5234
14035TIP3    H163596   5.709   5.287  11.525 -1.3426 -2.2670 -0.8697
14035TIP3    H263597   5.775   5.207  11.415  0.0696 -1.8380 -0.3640
14036TIP3   OH263598   2.439   3.817  11.313  0.0670  0.0517 -0.4542
14036TIP3    H163599   2.458   3.825  11.406 -3.0269 -3.8395  0.8178
14036TIP3    H263600   2.518   3.778  11.275  0.4092 -0.9843  1.2062
14037TIP3   OH263601   3.623   1.967   2.773  0.2022 -0.2579 -0.2948
14037TIP3    H163602   3.694   1.949   2.835 -0.2611 -0.7717  0.0936
14037TIP3    H263603   3.570   1.888   2.774  0.2182 -0.2998 -1.3984
14038TIP3   OH263604   0.392   2.778  13.479  0.1379  0.2295 -0.3012
14038TIP3    H163605   0.376   2.734  13.396  3.4883 -1.9266 -0.0150
14038TIP3    H263606   0.426   2.864  13.455  1.6541 -0.5910 -1.2992
14039TIP3   OH263607   2.816   0.671   2.010  0.2354 -1.1227 -0.3823
14039TIP3    H163608   2.777   0.758   2.022 -0.9668 -1.8151  1.0598
14039TIP3    H263609   2.871   0.680   1.932 -0.4757  0.7137 -0.7278
14040TIP3   OH263610   0.082   5.252   1.971  0.1390 -0.0281 -0.1671
14040TIP3    H163611   0.176   5.268   1.985  0.3661 -0.3884 -1.1510
14040TIP3    H263612   0.044   5.252   2.058  1.2141 -0.8499  0.3228
14041TIP3   OH263613   1.700   3.776   4.942 -0.5137  0.0742  0.0315
14041TIP3    H163614   1.641   3.754   4.871  1.4592  0.0493 -1.6973
14041TIP3    H263615   1.782   3.799   4.899  1.1627 -1.1425  2.3381
14042TIP3   OH263616   0.200   6.398   2.988  0.0906  0.4031 -0.2093
14042TIP3    H163617   0.130   6.332   2.988  1.1832 -0.7986  0.0198
14042TIP3    H263618   0.278   6.350   3.014  1.0596  1.6671 -0.6766
14043TIP3   OH263619   6.546   3.980  16.674 -0.2349  0.1767 -0.1304
14043TIP3    H163620   6.627   3.966  16.625  0.7644  1.4191  1.0913
14043TIP3    H263621   6.542   4.075  16.686 -1.2804  0.0270  0.8042
14044TIP3   OH263622   3.835   1.291   4.064 -0.3691  0.2251 -0.2336
14044TIP3    H163623   3.868   1.359   4.005  0.1480 -0.4692 -0.7671
14044TIP3    H263624   3.913   1.252   4.103 -0.6239 -0.3948 -0.3189
14045TIP3   OH263625   1.193   5.640   5.065  0.4254  0.1835  0.2611
14045TIP3    H163626   1.175   5.636   5.159  1.2221 -0.6144  0.3944
14045TIP3    H263627   1.119   5.595   5.025 -0.1827  0.9786  0.4515
14046TIP3   OH263628   6.536   4.114   3.954  0.0144 -0.1515  0.3370
14046TIP3    H163629   6.627   4.116   3.924 -0.2968 -2.0622 -0.9146
14046TIP3    H263630   6.540   4.069   4.039  0.2559 -0.2205  0.2908
14047TIP3   OH263631   5.153   5.225  14.923  0.8860 -0.4747  0.7791
14047TIP3    H163632   5.087   5.275  14.874  0.5524 -0.6796  1.0188
14047TIP3    H263633   5.136   5.134  14.900  1.5009 -0.4868  0.3365
14048TIP3   OH263634   2.011   2.549  16.669  0.2091 -0.6426 -0.1193
14048TIP3    H163635   2.096   2.523  16.634 -0.2332 -0.8556 -1.0929
14048TIP3    H263636   2.019   2.644  16.683  0.4349 -0.5672 -0.7236
14049TIP3   OH263637   4.858   6.131   4.702 -0.2263  1.0284 -0.1484
14049TIP3    H163638   4.833   6.079   4.778 -0.3969  1.2104 -0.0797
14049TIP3    H263639   4.820   6.085   4.628 -0.6853  1.2530 -0.0539
14050TIP3   OH263640   4.181   0.352  13.176 -0.0355  0.2687  0.4596
14050TIP3    H163641   4.142   0.295  13.110 -0.7229 -0.4563  1.4578
14050TIP3    H263642   4.159   0.441  13.148  1.9782  0.1933 -1.7171
14051TIP3   OH263643   4.052   0.998   0.196  0.6352 -0.3737 -0.3649
14051TIP3    H163644   3.994   0.938   0.149 -1.2905  0.9900  0.1773
14051TIP3    H263645   4.097   0.942   0.259  0.6178 -1.6186 -1.3974
14052TIP3   OH263646   1.581   6.550   5.334 -0.1848 -0.3069 -0.1429
14052TIP3    H163647   1.633   6.530   5.257  0.6373 -1.7130  0.7407
14052TIP3    H263648   1.576   6.467   5.382  0.0433  0.7110  1.7381
14053TIP3   OH263649   0.710   4.259  16.561  0.0485  0.4664 -0.3454
14053TIP3    H163650   0.720   4.215  16.477 -0.2780  0.7218 -0.5194
14053TIP3    H263651   0.787   4.315  16.569 -0.1312  0.7632 -0.6703
14054TIP3   OH263652   5.199   0.858  13.392 -0.5305  0.1668 -0.0361
14054TIP3    H163653   5.114   0.814  13.385 -0.3993 -0.2595  0.8891
14054TIP3    H263654   5.262   0.790  13.370 -0.4748  0.9555 -2.5692
14055TIP3   OH263655   2.561   0.480  11.460 -0.1251  0.6601 -0.5199
14055TIP3    H163656   2.545   0.406  11.401  0.0030  1.7422 -1.9343
14055TIP3    H263657   2.477   0.525  11.465 -0.2423  0.3594  0.4646
14056TIP3   OH263658   5.547   3.699   4.626 -0.3900  0.0170  0.5374
14056TIP3    H163659   5.595   3.753   4.689  1.0374  0.6613 -1.0486
14056TIP3    H263660   5.563   3.609   4.654  0.1462  0.2932  1.1394
14057TIP3   OH263661   1.797   6.307  13.074  0.1486  0.3779  0.1204
14057TIP3    H163662   1.720   6.257  13.046  0.4843 -0.1182  0.0597
14057TIP3    H263663   1.767   6.398  13.076 -0.2138  0.2901 -0.6933
14058TIP3   OH263664   4.329   5.234  16.713 -0.9537  0.2836 -1.1483
14058TIP3    H163665   4.235   5.240  16.697 -0.9486 -0.9138 -1.6969
14058TIP3    H263666   4.367   5.209  16.629 -0.3427 -0.9112 -0.5468
14059TIP3   OH263667   0.605   3.504   5.741  0.4771 -0.5133  0.1871
14059TIP3    H163668   0.627   3.569   5.808 -0.6154  0.7595 -0.6167
14059TIP3    H263669   0.686   3.491   5.693  0.6886  0.4029  0.2683
14060TIP3   OH263670   0.676   6.610  14.076  0.1711  0.3969  0.0785
14060TIP3    H163671   0.713   6.685  14.028 -0.2032 -0.2334 -1.2370
14060TIP3    H263672   0.639   6.648  14.155  2.0181  1.2977  0.5632
14061TIP3   OH263673   6.215   4.206   0.297 -0.1692 -0.7201 -0.9017
14061TIP3    H163674   6.271   4.129   0.294 -0.5741 -1.0949  0.3652
14061TIP3    H263675   6.155   4.196   0.223  0.5509 -0.9974 -1.4529
14062TIP3   OH263676   6.638   3.423   4.963 -0.3290  0.2440  0.1379
14062TIP3    H163677   6.577   3.439   4.890 -0.0550  1.1903  0.1057
14062TIP3    H263678   6.673   3.336   4.946  0.2667  0.7200 -1.2693
14063TIP3   OH263679   0.946   5.880  12.393  0.2145 -0.3326  0.2212
14063TIP3    H163680   0.969   5.971  12.414  1.8164 -0.1063 -2.1321
14063TIP3    H263681   1.026   5.830  12.409 -0.6295 -1.3735  1.4078
14064TIP3   OH263682   0.426   4.164  16.249 -0.0102 -0.5568 -0.0897
14064TIP3    H163683   0.378   4.161  16.332  0.2704 -2.3331  0.0347
14064TIP3    H263684   0.505   4.113  16.264  1.1066  0.8527 -0.8460
14065TIP3   OH263685   6.361   0.900  17.491 -0.1664  0.1399 -0.1287
14065TIP3    H163686   6.374   0.995  17.493  0.7546  0.0169  0.2593
14065TIP3    H263687   6.413   0.870  17.416 -0.9008 -0.0040 -0.5907
14066TIP3   OH263688   6.162   4.623  16.395  0.4199 -0.5643 -0.2722
14066TIP3    H163689   6.209   4.649  16.475 -0.4335 -2.0776  0.7746
14066TIP3    H263690   6.218   4.557  16.354  0.1399 -0.9472 -0.0541
14067TIP3   OH263691   5.732   3.321   2.296  0.4215  0.6055 -0.0521
14067TIP3    H163692   5.798   3.363   2.241  0.8982 -2.5744 -2.1727
14067TIP3    H263693   5.648   3.349   2.259  0.5500  2.4052  0.8785
14068TIP3   OH263694   1.543   1.353   0.573 -0.4527 -0.2205  0.0453
14068TIP3    H163695   1.552   1.266   0.534  1.4730 -0.1953  0.3571
14068TIP3    H263696   1.563   1.341   0.665  2.3313  0.8742 -0.3073
14069TIP3   OH263697   2.089   0.476  13.599 -1.0785 -0.0934  0.1120
14069TIP3    H163698   2.120   0.520  13.520 -1.3116 -0.3245 -0.1131
14069TIP3    H263699   2.090   0.544  13.666  0.3183 -0.2048  0.2238
14070TIP3   OH263700   1.385   5.491  13.753  0.1363  0.6813 -0.2566
14070TIP3    H163701   1.421   5.545  13.683 -0.6075  2.6881  0.8186
14070TIP3    H263702   1.298   5.529  13.770 -1.3214 -2.1327 -0.7827
14071TIP3   OH263703   2.838   3.560  14.105  0.2886  0.5739  0.3551
14071TIP3    H163704   2.778   3.580  14.177 -1.5678  0.0440 -0.9550
14071TIP3    H263705   2.800   3.482  14.064  2.3767 -0.3031 -0.0477
14072TIP3   OH263706   4.711   3.686   6.780 -0.7064 -0.3205 -0.2335
14072TIP3    H163707   4.738   3.745   6.710  0.2498 -0.2958  0.1337
14072TIP3    H263708   4.674   3.610   6.735 -0.8762  0.0535 -0.7365
14073TIP3   OH263709   0.676   0.265   2.262  0.0246  0.0283 -0.4656
14073TIP3    H163710   0.722   0.349   2.258  1.1524 -0.5366  0.0194
14073TIP3    H263711   0.744   0.200   2.243 -0.4716 -0.8747  0.7282
14074TIP3   OH263712   5.780   4.531   6.804 -0.1290 -0.0753  0.4361
14074TIP3    H163713   5.863   4.563   6.840 -0.5317  0.3175  1.0425
14074TIP3    H263714   5.775   4.440   6.832 -1.0940  0.5782  2.6951
14075TIP3   OH263715   5.040   4.277  11.283  0.1796 -0.3141  0.4187
14075TIP3    H163716   5.109   4.334  11.251 -0.1187  0.1664  0.6087
14075TIP3    H263717   5.081   4.191  11.292  0.2984 -0.4518 -1.1315
14076TIP3   OH263718   3.817   5.438  14.503  0.6603 -0.1068 -0.1073
14076TIP3    H163719   3.764   5.370  14.462  1.1926 -0.6111  0.0384
14076TIP3    H263720   3.759   5.475  14.570 -0.4043  1.0849 -1.6043
14077TIP3   OH263721   6.311   2.288  14.069  0.3073  0.0207 -0.1870
14077TIP3    H163722   6.245   2.314  14.005  0.3025  0.6533  0.0750
14077TIP3    H263723   6.318   2.193  14.058 -1.5835 -0.2645  0.6507
14078TIP3   OH263724   1.714   4.338   4.765 -1.0773 -0.0816 -0.1514
14078TIP3    H163725   1.792   4.349   4.819 -0.4636  1.0753 -1.2265
14078TIP3    H263726   1.643   4.377   4.816 -0.2630  2.2921 -0.7071
14079TIP3   OH263727   4.616   1.872   2.985 -0.0460 -0.2948 -0.0841
14079TIP3    H163728   4.575   1.800   3.033 -0.1154 -0.2236 -0.0371
14079TIP3    H263729   4.587   1.859   2.895  0.0256 -0.3859 -0.0944
14080TIP3   OH263730   2.563   2.674  15.100 -0.2041  0.1886  0.4147
14080TIP3    H163731   2.627   2.605  15.118  0.6772  1.3887  2.3303
14080TIP3    H263732   2.573   2.735  15.174 -2.9350  0.9145  0.2949
14081TIP3   OH263733   0.550   5.650   4.253 -0.0066  0.1316 -0.0126
14081TIP3    H163734   0.610   5.578   4.233 -0.6645 -0.2673 -0.5652
14081TIP3    H263735   0.589   5.727   4.210 -0.0650 -0.1953 -0.6605
14082TIP3   OH263736   3.985   6.195   1.897 -0.2461  0.1235  0.2231
14082TIP3    H163737   4.071   6.235   1.903 -0.5827  0.7036  1.6936
14082TIP3    H263738   3.935   6.234   1.969 -1.2846 -1.2887  0.3208
14083TIP3   OH263739   0.664   0.055   3.151  0.0018  0.1890  0.5875
14083TIP3    H163740   0.614   0.095   3.079  0.8467  1.6671  0.7908
14083TIP3    H263741   0.755   0.075   3.131  0.3242 -0.2175  1.5889
14084TIP3   OH263742   0.283   5.902  16.893  0.0845  0.7134 -0.2669
14084TIP3    H163743   0.354   5.936  16.947 -0.1055 -1.3765  1.4723
14084TIP3    H263744   0.322   5.829  16.844 -1.1343 -1.8957  2.3199
14085TIP3   OH263745   0.208   2.093   5.508 -0.3891 -0.4847  0.2582
14085TIP3    H163746   0.151   2.102   5.584  0.2396 -1.5120  0.8614
14085TIP3    H263747   0.257   2.012   5.523  0.2305 -0.3542 -0.9171
14086TIP3   OH263748   6.356   2.494  16.742  0.1217  0.2204 -0.1328
14086TIP3    H163749   6.321   2.498  16.654 -1.7020 -1.9606  0.4133
14086TIP3    H263750   6.450   2.478  16.730  0.8236  4.1668 -1.6038
14087TIP3   OH263751   5.583   4.614   5.330 -0.3806  0.4583 -0.2508
14087TIP3    H163752   5.492   4.634   5.352  0.0562  1.5608  0.6032
14087TIP3    H263753   5.631   4.630   5.411  0.6673  0.5518 -0.8851
14088TIP3   OH263754   4.329   0.167  12.489  0.2555 -0.4755  0.4159
14088TIP3    H163755   4.417   0.196  12.465  0.0314  0.1708  0.3687
14088TIP3    H263756   4.343   0.109  12.564  0.6627  0.2104  0.8794
14089TIP3   OH263757   5.049   4.872   0.403 -0.1614 -0.2560 -0.1522
14089TIP3    H163758   4.970   4.822   0.385 -0.4636  1.0855 -3.0614
14089TIP3    H263759   5.018   4.960   0.422  0.5323 -0.3745  1.7562
14090TIP3   OH263760   3.351   1.940  12.713 -0.2481 -0.1816  0.9363
14090TIP3    H163761   3.307   1.916  12.794 -0.1523  1.7989  1.6335
14090TIP3    H263762   3.356   2.036  12.716  1.0217 -0.1456 -0.7440
14091TIP3   OH263763   6.066   6.016   0.439 -0.3888  0.2389  0.0563
14091TIP3    H163764   5.981   6.015   0.484  0.2956  0.1831  1.4192
14091TIP3    H263765   6.082   6.108   0.418 -1.8743  0.0051 -2.4698
14092TIP3   OH263766   0.452   5.928  12.670 -0.0622  0.4875 -0.5728
14092TIP3    H163767   0.410   5.865  12.611 -1.4058 -0.6930  1.5336
14092TIP3    H263768   0.438   6.013  12.627 -3.8316  0.0537 -0.5279
14093TIP3   OH263769   4.928   2.765  16.708 -0.2212  0.4237 -0.3038
14093TIP3    H163770   4.903   2.850  16.744  0.6188  1.0764 -1.2032
14093TIP3    H263771   4.928   2.706  16.784 -1.7203  0.9931  0.1791
14094TIP3   OH263772   5.199   5.594   0.322 -0.0506  0.2231 -0.2365
14094TIP3    H163773   5.134   5.661   0.300 -0.9716 -0.8529 -0.9114
14094TIP3    H263774   5.269   5.642   0.366  0.1842  1.9275 -2.3222
14095TIP3   OH263775   1.764   1.706  17.087  0.0744  0.0550 -0.6739
14095TIP3    H163776   1.805   1.655  17.018  0.3179 -0.0233 -0.4746
14095TIP3    H263777   1.748   1.642  17.157  1.8642  0.5239  0.2303
14096TIP3   OH263778   3.638   5.125  17.114  0.2465 -0.5596  0.2815
14096TIP3    H163779   3.683   5.201  17.151 -1.5233  0.9267 -0.4529
14096TIP3    H263780   3.604   5.078  17.190  1.0164 -0.4037  0.7284
14097TIP3   OH263781   1.568   5.685  15.268  0.1240 -0.6054 -0.1179
14097TIP3    H163782   1.610   5.697  15.182  0.3669 -1.7728 -0.1861
14097TIP3    H263783   1.604   5.602  15.300  0.6565  0.2266  1.4921
14098TIP3   OH263784   2.204   4.153   2.982  0.3729 -0.1111  0.6744
14098TIP3    H163785   2.161   4.210   2.918 -1.2564 -0.7088  1.1924
14098TIP3    H263786   2.188   4.194   3.066 -1.0939 -1.4395  1.0863
14099TIP3   OH263787   3.177   4.710   4.310 -0.7331  0.8545 -0.1733
14099TIP3    H163788   3.237   4.707   4.385 -1.0767  0.6897  0.0962
14099TIP3    H263789   3.090   4.709   4.349 -0.9910 -1.8387 -0.6081
14100TIP3   OH263790   3.886   0.815   1.177  0.1557 -0.2199 -0.3358
14100TIP3    H163791   3.839   0.894   1.151  1.1529  0.3966 -0.2900
14100TIP3    H263792   3.885   0.817   1.273 -0.4158 -0.6415 -0.3215
14101TIP3   OH263793   1.467   2.493   0.372  0.3044 -0.0516 -0.3722
14101TIP3    H163794   1.452   2.416   0.428 -2.3399  0.5322 -0.1431
14101TIP3    H263795   1.549   2.530   0.404  1.1045 -2.1703  0.2042
14102TIP3   OH263796   3.663   3.610  12.679 -0.1664 -0.2948  0.2529
14102TIP3    H163797   3.650   3.651  12.593 -0.1594 -1.2486 -0.2120
14102TIP3    H263798   3.577   3.574  12.702 -0.3294  0.5022  0.9488
14103TIP3   OH263799   0.634   2.406   2.683 -0.1541 -0.5678  0.5058
14103TIP3    H163800   0.700   2.469   2.653 -0.4071  0.1739  1.4369
14103TIP3    H263801   0.557   2.424   2.628 -1.0116  1.5801  2.2243
14104TIP3   OH263802   4.568   4.261   3.719  0.2198 -0.3163 -0.0063
14104TIP3    H163803   4.476   4.286   3.720 -0.2196 -1.8215  0.6568
14104TIP3    H263804   4.613   4.331   3.766 -0.5535  0.5177 -0.4776
14105TIP3   OH263805   2.381   2.182  16.741 -0.2398 -0.0870  0.3538
14105TIP3    H163806   2.292   2.158  16.765 -1.5000  0.6001 -3.1498
14105TIP3    H263807   2.375   2.273  16.712  0.3666 -1.3177 -4.5633
14106TIP3   OH263808   3.917   1.388  11.328 -0.2530  0.2809  0.2281
14106TIP3    H163809   3.889   1.304  11.293 -1.7810  0.6622  0.4878
14106TIP3    H263810   4.002   1.369  11.369 -0.2357 -0.9640 -0.3278
14107TIP3   OH263811   2.061   5.729   0.896  0.4046  0.1988  0.1384
14107TIP3    H163812   2.083   5.742   0.803  0.9875 -1.1134  0.0836
14107TIP3    H263813   1.982   5.676   0.895  0.8336 -0.4517  0.3972
14108TIP3   OH263814   1.937   4.052  17.258 -0.2093  0.4417  0.1576
14108TIP3    H163815   2.016   4.030  17.308 -0.5471 -1.0903  0.0833
14108TIP3    H263816   1.924   4.145  17.273  1.7406  0.7863 -0.0176
14109TIP3   OH263817   3.435   4.524   6.099 -0.1747  0.2894  0.6336
14109TIP3    H163818   3.430   4.536   6.194 -0.8570 -3.0284  1.1186
14109TIP3    H263819   3.348   4.493   6.074  0.3656 -0.1065 -0.8600
14110TIP3   OH263820   6.180   0.240  16.016  0.2633 -0.4591 -0.2624
14110TIP3    H163821   6.273   0.251  16.000 -0.0271  0.8443 -1.2253
14110TIP3    H263822   6.159   0.309  16.079 -0.6822  1.6711 -2.7340
14111TIP3   OH263823   0.867   1.119  13.711 -0.3768 -0.0466 -0.0697
14111TIP3    H163824   0.845   1.193  13.767  0.1078 -0.7965  1.1360
14111TIP3    H263825   0.833   1.144  13.625 -3.1742  0.2161  0.9844
14112TIP3   OH263826   4.648   1.030  10.759 -0.0717 -0.0062  0.2837
14112TIP3    H163827   4.577   1.092  10.776 -0.0506 -0.1585  0.9644
14112TIP3    H263828   4.604   0.947  10.741 -0.0954  0.1652 -0.4932
14113TIP3   OH263829   1.188   3.935   6.089 -0.0762 -0.7458 -0.2013
14113TIP3    H163830   1.282   3.948   6.097 -0.3256  1.0489  0.2421
14113TIP3    H263831   1.160   4.000   6.024 -1.7323  2.8978  3.6722
14114TIP3   OH263832   1.755   3.879   5.540 -0.6413  0.5006 -0.2044
14114TIP3    H163833   1.692   3.828   5.489 -0.8953 -0.0028  0.5923
14114TIP3    H263834   1.756   3.837   5.626  0.3222  0.8811 -0.0111
14115TIP3   OH263835   3.010   6.345   2.954  0.1803 -0.4550  0.6715
14115TIP3    H163836   3.068   6.401   3.006 -0.0662  1.0387 -0.5652
14115TIP3    H263837   3.058   6.330   2.872 -0.2817 -1.0110  0.4968
14116TIP3   OH263838   5.103   3.477   4.309  0.2187  0.0444  0.2634
14116TIP3    H163839   5.154   3.411   4.355 -1.6283 -0.6409  1.4117
14116TIP3    H263840   5.016   3.439   4.301 -0.1672  1.1998 -1.5962
14117TIP3   OH263841   4.023   5.613  16.947 -0.1690 -0.4139 -0.0003
14117TIP3    H163842   4.031   5.633  17.041  0.7854  1.3088 -0.4219
14117TIP3    H263843   3.932   5.632  16.926  0.1546  1.3785  0.1219
14118TIP3   OH263844   4.016   2.829  13.957 -0.5517 -0.1237  0.4714
14118TIP3    H163845   3.928   2.830  13.921  0.9162  0.0314 -3.6937
14118TIP3    H263846   4.050   2.742  13.935  0.2018 -0.4180  2.5464
14119TIP3   OH263847   5.294   4.489   1.570  0.2533 -0.3410  0.6274
14119TIP3    H163848   5.250   4.414   1.529  0.6930  0.3821 -1.2123
14119TIP3    H263849   5.352   4.449   1.635  0.9496 -1.6588 -0.7451
14120TIP3   OH263850   5.205   4.293   0.199 -0.1229  0.0526  0.1622
14120TIP3    H163851   5.156   4.221   0.240 -0.8827  0.7389  0.4834
14120TIP3    H263852   5.237   4.256   0.116  0.0947 -0.8660  0.6313
14121TIP3   OH263853   3.662   1.633   5.927 -0.1820 -0.0599 -0.1472
14121TIP3    H163854   3.750   1.663   5.901  1.1268 -4.0424 -1.1046
14121TIP3    H263855   3.679   1.558   5.983 -2.8533 -2.6054 -2.4353
14122TIP3   OH263856   6.675   0.264   0.886 -0.6015  0.2882  0.3127
14122TIP3    H163857   6.742   0.274   0.818 -1.7807 -2.1888 -1.3914
14122TIP3    H263858   6.719   0.213   0.955 -0.9287 -2.5766 -1.4165
14123TIP3   OH263859   5.463   3.604  14.549 -0.0433  0.3451  0.3550
14123TIP3    H163860   5.370   3.608  14.571 -0.4687  2.1452 -1.4116
14123TIP3    H263861   5.507   3.593  14.633 -1.8085  0.4824  1.3467
14124TIP3   OH263862   4.008   3.690  10.603  0.2433 -0.0165 -0.6222
14124TIP3    H163863   3.932   3.636  10.626 -0.9469  1.7654 -0.1615
14124TIP3    H263864   3.976   3.749  10.535  1.3917  0.3695 -0.8488
14125TIP3   OH263865   0.576   2.728  12.606 -0.4433 -0.5608  0.7247
14125TIP3    H163866   0.594   2.653  12.549 -0.7989 -0.0452 -0.0978
14125TIP3    H263867   0.651   2.733  12.664 -0.5987 -1.7926  1.0650
14126TIP3   OH263868   3.934   4.477   2.814 -0.4917  0.2888  0.0446
14126TIP3    H163869   3.841   4.498   2.821 -0.3892  0.6896  0.2425
14126TIP3    H263870   3.965   4.479   2.905 -0.0398  1.3422 -0.1134
14127TIP3   OH263871   1.726   3.854  11.759 -0.5908  0.2206 -0.1346
14127TIP3    H163872   1.658   3.855  11.826 -2.1191  0.4187 -1.6255
14127TIP3    H263873   1.728   3.763  11.728 -2.6021  0.8164 -2.3603
14128TIP3   OH263874   0.663   1.456   0.947 -0.5487 -0.1738  0.1720
14128TIP3    H163875   0.682   1.545   0.919  0.2444 -0.1780  0.6575
14128TIP3    H263876   0.742   1.407   0.927 -1.2770 -0.9648 -0.8623
14129TIP3   OH263877   4.392   3.365   3.931 -0.2256  0.3748 -0.5189
14129TIP3    H163878   4.460   3.405   3.985  0.8595 -3.3607  1.1781
14129TIP3    H263879   4.438   3.333   3.854 -0.1600 -1.3893  0.2193
14130TIP3   OH263880   3.621   4.386  17.316  0.8120 -0.3624  0.0035
14130TIP3    H163881   3.639   4.472  17.354  3.4666 -1.4296  1.4944
14130TIP3    H263882   3.598   4.331  17.392 -1.3806 -0.8935 -0.9809
14131TIP3   OH263883   0.632   3.874  15.813  0.3149  0.0013  0.2270
14131TIP3    H163884   0.546   3.833  15.814  1.2769 -2.2839  2.9475
14131TIP3    H263885   0.631   3.936  15.887  0.5083  1.2257 -0.7602
14132TIP3   OH263886   1.328   3.767  16.921  0.2639  0.1870 -0.3011
14132TIP3    H163887   1.242   3.747  16.958  0.7896 -1.0278  0.2860
14132TIP3    H263888   1.370   3.822  16.987 -0.2631  1.2859 -0.8500
14133TIP3   OH263889   0.827   5.958   5.851 -0.3232 -0.2304 -0.1462
14133TIP3    H163890   0.877   5.944   5.770  0.9068 -1.8702  0.8371
14133TIP3    H263891   0.893   5.964   5.920 -1.3992 -2.9483  1.2747
14134TIP3   OH263892   4.588   1.842  15.255 -0.4659 -0.1668 -0.1853
14134TIP3    H163893   4.496   1.824  15.236 -0.6819  1.7789 -1.2001
14134TIP3    H263894   4.590   1.934  15.283  1.2935  0.2237 -1.4162
14135TIP3   OH263895   3.772   5.493   6.676  0.6402  0.0407 -0.0858
14135TIP3    H163896   3.733   5.454   6.754  1.6151  3.8281  2.6376
14135TIP3    H263897   3.698   5.521   6.623 -0.1697  0.1722  1.0856
14136TIP3   OH263898   5.743   4.303   2.853  0.2790 -0.4983  0.3951
14136TIP3    H163899   5.657   4.275   2.823  0.5251 -2.5978  1.4956
14136TIP3    H263900   5.801   4.284   2.779  0.0670 -0.6786  0.2744
14137TIP3   OH263901   0.032   1.226  15.790 -0.2537  0.2878 -0.6619
14137TIP3    H163902   0.070   1.284  15.856 -1.2300  1.4177 -1.0685
14137TIP3    H263903   0.087   1.237  15.713 -0.5965  0.8980 -0.8246
14138TIP3   OH263904   6.279   6.331  14.217  0.4490  0.3250 -0.0396
14138TIP3    H163905   6.337   6.255  14.209  0.7788  0.6910 -1.3215
14138TIP3    H263906   6.288   6.377  14.134 -0.1318  1.5030  0.5242
14139TIP3   OH263907   0.158   3.108   1.066  0.0881  0.2574 -0.1674
14139TIP3    H163908   0.113   3.191   1.051 -1.5036 -0.8512 -1.9523
14139TIP3    H263909   0.089   3.048   1.092  0.9456 -0.8933 -0.4926
14140TIP3   OH263910   3.010   1.145  16.228 -0.3293 -0.0405 -0.0299
14140TIP3    H163911   3.064   1.142  16.307 -1.8177  0.0191  1.0422
14140TIP3    H263912   2.937   1.086  16.248  0.9997 -2.8913 -2.7708
14141TIP3   OH263913   4.679   3.280  13.115  0.2672 -0.2413 -0.0711
14141TIP3    H163914   4.614   3.340  13.077 -1.0496 -0.7284  1.3572
14141TIP3    H263915   4.749   3.278  13.049 -0.1535  1.9655 -0.6933
14142TIP3   OH263916   1.199   0.154   3.147  0.1597 -0.4481 -0.2079
14142TIP3    H163917   1.266   0.222   3.154 -1.0600  0.8597 -0.6311
14142TIP3    H263918   1.215   0.098   3.222  0.3275  1.1683  1.0361
14143TIP3   OH263919   2.698   3.431   6.582  0.4381  0.3958  0.6118
14143TIP3    H163920   2.687   3.433   6.487  0.9219  1.4244  0.5658
14143TIP3    H263921   2.665   3.345   6.608  1.3375 -0.3488 -0.6028
14144TIP3   OH263922   2.616   5.130  13.326  0.6713  0.1588  0.5229
14144TIP3    H163923   2.710   5.135  13.313  0.5278  2.1593 -0.0158
14144TIP3    H263924   2.579   5.196  13.267 -1.2382 -1.8716 -0.7152
14145TIP3   OH263925   3.565   3.929  17.399  0.3072 -0.7421  0.0819
14145TIP3    H163926   3.621   3.992  17.354 -1.4455  1.5315  0.8997
14145TIP3    H263927   3.530   3.875  17.328  0.4629  0.3624 -0.8766
14146TIP3   OH263928   5.764   5.701  13.279 -0.5054  0.0975  0.2864
14146TIP3    H163929   5.697   5.665  13.338 -2.1096 -1.0826 -2.1030
14146TIP3    H263930   5.816   5.625  13.253  0.4291  0.6734  0.3944
14147TIP3   OH263931   4.249   5.634   0.169 -0.2631 -0.7158 -0.1748
14147TIP3    H163932   4.217   5.544   0.171  1.4928 -1.3983 -0.9740
14147TIP3    H263933   4.227   5.666   0.081  0.3308 -0.8384 -0.3696
14148TIP3   OH263934   4.807   1.720  17.292  0.2376  0.6017 -0.2758
14148TIP3    H163935   4.793   1.815  17.290  2.6292  1.0766  1.3730
14148TIP3    H263936   4.902   1.710  17.287  0.0143 -1.7666 -0.8631
14149TIP3   OH263937   0.154   1.317  12.252  0.2258  0.1846  0.2686
14149TIP3    H163938   0.077   1.264  12.271  0.0827  0.5084  0.5939
14149TIP3    H263939   0.124   1.381  12.187  0.2464  0.2490  0.3227
14150TIP3   OH263940   5.968   4.164   4.981  0.0470 -0.3896  0.1722
14150TIP3    H163941   6.052   4.196   4.950 -0.3866 -1.1467 -1.9486
14150TIP3    H263942   5.920   4.243   5.005  0.1601  0.3841 -1.8929
14151TIP3   OH263943   2.499   3.124  14.256 -0.0256  0.5221  0.0316
14151TIP3    H163944   2.524   3.180  14.330  1.5862 -0.1783  0.0571
14151TIP3    H263945   2.448   3.181  14.199 -0.5693  1.3099  1.2585
14152TIP3   OH263946   1.930   1.316   4.254  0.4056  0.2086  0.6484
14152TIP3    H163947   1.837   1.319   4.232  0.0650 -2.1684  1.4023
14152TIP3    H263948   1.932   1.289   4.345  1.8078 -1.0394  0.2982
14153TIP3   OH263949   4.524   4.014  11.420 -0.2540 -0.2925 -0.1266
14153TIP3    H163950   4.453   4.000  11.358 -0.3749 -1.6680  0.3042
14153TIP3    H263951   4.604   3.995  11.370 -0.1618  1.1529 -0.5801
14154TIP3   OH263952   0.924   1.377   0.413 -0.3583 -0.2548 -0.1068
14154TIP3    H163953   0.892   1.408   0.498  1.2508  0.8295  0.1449
14154TIP3    H263954   0.870   1.423   0.348  0.8257  1.8582  0.2993
14155TIP3   OH263955   4.921   4.095   0.191 -0.3103 -0.8895 -0.3094
14155TIP3    H163956   4.981   4.068   0.260  0.2528  1.8021  0.3623
14155TIP3    H263957   4.881   4.176   0.224 -0.5117  0.1375 -2.8301
14156TIP3   OH263958   0.298   0.943   3.437 -0.1234  0.2906  0.0414
14156TIP3    H163959   0.235   0.997   3.388 -2.1597 -0.2782  1.8911
14156TIP3    H263960   0.378   0.946   3.384 -1.9858  0.1306 -3.0404
14157TIP3   OH263961   6.207   1.745  13.322 -0.4790 -0.0624 -1.1298
14157TIP3    H163962   6.257   1.818  13.283 -0.3042  0.2377 -0.3619
14157TIP3    H263963   6.216   1.674  13.259  0.5001  0.1502 -1.2532
14158TIP3   OH263964   6.211   5.738   1.560  0.1986  0.1603 -0.1385
14158TIP3    H163965   6.202   5.792   1.639  1.7926  2.2213 -1.2436
14158TIP3    H263966   6.298   5.760   1.526  0.3272 -2.0949 -1.4738
14159TIP3   OH263967   2.530   1.891   2.318 -0.3327  0.3454 -0.1171
14159TIP3    H163968   2.472   1.914   2.390  1.7104  0.9908  1.4413
14159TIP3    H263969   2.613   1.867   2.360 -0.0476 -2.7210 -2.0947
14160TIP3   OH263970   3.310   4.303  14.623 -0.1004 -0.3746 -0.4561
14160TIP3    H163971   3.227   4.258  14.607 -0.8796  1.5343 -2.1798
14160TIP3    H263972   3.361   4.289  14.544  0.5456 -0.0941 -0.0970
14161TIP3   OH263973   1.971   5.112   6.348 -0.0394  0.0283  0.5554
14161TIP3    H163974   2.011   5.189   6.307 -1.1979  0.3735  0.0009
14161TIP3    H263975   1.909   5.080   6.282 -0.9839 -0.2129  1.5259
14162TIP3   OH263976   3.107   3.362  14.458  0.1149 -0.3345 -0.0396
14162TIP3    H163977   3.055   3.344  14.380 -0.0586  0.8438 -0.2237
14162TIP3    H263978   3.168   3.289  14.464 -0.2751 -0.7487 -0.9337
14163TIP3   OH263979   1.579   2.032   4.330 -0.1499  0.3087  0.2993
14163TIP3    H163980   1.513   1.964   4.311 -0.3455  0.7599 -0.6685
14163TIP3    H263981   1.574   2.092   4.256  0.7451  0.8332  0.6516
14164TIP3   OH263982   3.003   2.134  15.233 -0.3761  0.2557 -0.2423
14164TIP3    H163983   3.005   2.130  15.328 -0.4721  1.2222 -0.1916
14164TIP3    H263984   2.936   2.070  15.208 -2.0944  1.6787  0.4906
14165TIP3   OH263985   1.088   1.037   4.484  0.1760 -0.1774 -0.0366
14165TIP3    H163986   1.032   1.093   4.430  0.4298  0.1574  0.0451
14165TIP3    H263987   1.045   1.035   4.569  1.3346  1.7775  0.6706
14166TIP3   OH263988   6.731   5.052   0.254  0.5835 -0.0948 -0.4198
14166TIP3    H163989   6.665   5.004   0.304  0.9207 -0.9772 -0.7860
14166TIP3    H263990   6.749   5.130   0.306  0.0103 -0.3583  0.1959
14167TIP3   OH263991   2.634   0.924   6.676 -0.1520 -0.1622 -0.0454
14167TIP3    H163992   2.568   0.899   6.741 -1.0387  0.3301 -0.7393
14167TIP3    H263993   2.599   0.893   6.593  1.4367 -1.6502 -0.2029
14168TIP3   OH263994   4.679   6.709   6.418 -0.1492 -0.3719 -0.0445
14168TIP3    H163995   4.633   6.627   6.438  2.0905 -1.9528 -0.9655
14168TIP3    H263996   4.771   6.689   6.433  0.5823  1.6300 -1.4766
14169TIP3   OH263997   6.469   1.851   1.985 -0.1828 -0.0985 -0.0790
14169TIP3    H163998   6.447   1.759   1.994  1.5186 -0.3701  2.1596
14169TIP3    H263999   6.393   1.898   2.022 -0.5481 -0.6376 -0.1353
14170TIP3   OH264000   6.728   4.647  11.791  0.6879 -0.0597  0.1158
14170TIP3    H164001   6.688   4.639  11.877  0.2168 -1.7674 -0.2287
14170TIP3    H264002   6.785   4.571  11.783  0.6175 -0.0092 -1.1254
14171TIP3   OH264003   1.340   5.864  14.746 -0.4119 -0.5612  0.5250
14171TIP3    H164004   1.254   5.839  14.713 -0.6295  1.9895 -1.0755
14171TIP3    H264005   1.328   5.873  14.840 -0.7058 -4.4223  1.0081
14172TIP3   OH264006   6.009   0.254  15.704 -0.2447 -0.0079  0.0108
14172TIP3    H164007   6.071   0.181  15.703  2.7120  2.3250 -0.3374
14172TIP3    H264008   6.048   0.318  15.764 -2.1888  1.6885 -0.4274
14173TIP3   OH264009   5.988   4.709  15.715 -0.0348  0.3584 -1.1391
14173TIP3    H164010   5.939   4.629  15.732 -0.1935  0.2981 -1.8480
14173TIP3    H264011   5.991   4.753  15.800  2.4267 -1.6757 -0.0462
14174TIP3   OH264012   1.285   6.528   5.446 -0.3785 -0.2502 -0.0841
14174TIP3    H164013   1.197   6.504   5.474 -0.0261 -1.0129  0.4166
14174TIP3    H264014   1.335   6.447   5.454 -0.1137 -0.3850 -2.4670
14175TIP3   OH264015   3.039   2.191  14.716 -0.8896  0.1086 -0.4510
14175TIP3    H164016   3.082   2.106  14.713 -0.3961  0.3867 -2.1180
14175TIP3    H264017   3.066   2.229  14.800  1.3681 -0.1264 -1.0175
14176TIP3   OH264018   4.667   2.153  15.098  0.0288 -0.5304  0.5368
14176TIP3    H164019   4.754   2.187  15.119 -1.1834  2.8516  0.7730
14176TIP3    H264020   4.624   2.144  15.183 -0.9862  1.5471  0.3216
14177TIP3   OH264021   1.917   5.044   4.577 -0.7228 -0.4399 -0.3090
14177TIP3    H164022   1.834   5.087   4.597 -1.4981 -1.5535 -1.0076
14177TIP3    H264023   1.915   5.031   4.482  2.0970  3.1860 -1.1164
14178TIP3   OH264024   2.075   6.509   0.525  0.1742  0.4177 -0.3057
14178TIP3    H164025   2.034   6.448   0.464  0.0757  0.6323 -0.4542
14178TIP3    H264026   2.046   6.479   0.612  1.0652 -0.4596 -0.2929
14179TIP3   OH264027   6.730   2.624  16.511 -0.2749 -0.4695 -0.5469
14179TIP3    H164028   6.754   2.715  16.527 -1.5074 -0.6057  2.8483
14179TIP3    H264029   6.783   2.573  16.573 -2.8184 -1.5510  0.8943
14180TIP3   OH264030   1.038   0.043   4.486 -0.5703 -0.2482 -0.2871
14180TIP3    H164031   1.124   0.020   4.522  0.3450 -0.9811 -2.7340
14180TIP3    H264032   0.982   0.053   4.563  1.7448  0.5529  1.4241
14181TIP3   OH264033   4.180   0.196   5.980 -0.2837 -0.0271 -0.1384
14181TIP3    H164034   4.121   0.243   5.922  0.2841 -0.1322 -0.8270
14181TIP3    H264035   4.128   0.124   6.015 -0.2627 -0.8378 -1.6723
14182TIP3   OH264036   2.615   4.498  14.194 -0.4333  0.0879 -0.3734
14182TIP3    H164037   2.542   4.555  14.219 -0.4740  0.5901 -1.5720
14182TIP3    H264038   2.627   4.441  14.269 -2.0736 -0.0158 -0.1460
14183TIP3   OH264039   5.054   5.674  12.316 -0.0722  0.6782  0.6548
14183TIP3    H164040   4.983   5.613  12.335  0.1832 -0.2238 -1.1038
14183TIP3    H264041   5.011   5.747  12.271  0.1896 -0.3934 -1.4612
14184TIP3   OH264042   0.226   6.004  14.222  0.1540  0.0955 -0.5268
14184TIP3    H164043   0.263   6.034  14.139  0.7879  0.5906 -0.0747
14184TIP3    H264044   0.194   5.915  14.203  0.7089  0.0271 -1.1773
14185TIP3   OH264045   2.045   3.108   3.251  0.7027  0.0032  0.0197
14185TIP3    H164046   2.099   3.030   3.241  0.0420 -0.5767  0.8310
14185TIP3    H264047   1.979   3.083   3.315  1.5906  1.8254  1.7335
14186TIP3   OH264048   3.053   3.991   5.361 -0.7057 -0.0985  0.3192
14186TIP3    H164049   3.052   4.083   5.389  1.5560  0.6346 -1.5867
14186TIP3    H264050   3.144   3.976   5.334 -1.4322 -2.3320 -1.1743
14187TIP3   OH264051   0.859   4.982  16.215  0.0723 -0.3794 -0.0248
14187TIP3    H164052   0.814   4.902  16.185  1.6332 -1.2730 -0.1009
14187TIP3    H264053   0.806   5.053  16.180 -2.2685 -1.3048  1.3530
14188TIP3   OH264054   1.009   2.526  11.346 -0.3391  0.6628 -0.4108
14188TIP3    H164055   0.952   2.571  11.283 -0.0855  1.6451  0.0376
14188TIP3    H264056   0.949   2.470  11.396 -0.5670 -0.0003 -1.3877
14189TIP3   OH264057   1.981   6.367  14.143 -0.1716 -0.1856  0.3841
14189TIP3    H164058   1.995   6.460  14.160 -0.4606 -0.3033  1.3714
14189TIP3    H264059   2.066   6.327  14.162 -0.3032 -0.2280  0.9205
14190TIP3   OH264060   5.355   5.480  15.798  0.6258 -0.0711  0.3081
14190TIP3    H164061   5.313   5.409  15.748 -0.1256  1.2995 -1.0951
14190TIP3    H264062   5.449   5.459  15.794  0.4884 -0.5673 -0.8010
14191TIP3   OH264063   2.344   4.389  14.894  0.2882  0.2737  0.0564
14191TIP3    H164064   2.304   4.324  14.952 -0.0556  2.5015  2.4570
14191TIP3    H264065   2.276   4.408  14.830  0.3344 -1.5407 -0.5948
14192TIP3   OH264066   0.190   0.330  11.543  0.2249  0.6612 -0.2013
14192TIP3    H164067   0.103   0.332  11.504  0.1774  1.0029 -0.0777
14192TIP3    H264068   0.235   0.406  11.508  0.2335  0.8885  0.2900
14193TIP3   OH264069   4.425   1.468   2.741  0.0254 -0.0541 -0.0498
14193TIP3    H164070   4.510   1.427   2.759 -0.2409  0.0413  1.5593
14193TIP3    H264071   4.439   1.517   2.660  0.6189 -2.5281 -1.5467
14194TIP3   OH264072   5.100   6.033  12.276  0.1014 -0.0129  0.0894
14194TIP3    H164073   5.060   6.015  12.191 -0.6183 -1.0356  0.6310
14194TIP3    H264074   5.118   6.127  12.274 -1.1507  0.2281 -0.6711
14195TIP3   OH264075   5.488   2.673   6.277  0.3412  0.6658  0.1457
14195TIP3    H164076   5.442   2.756   6.285  0.0251  0.4720  0.3782
14195TIP3    H264077   5.580   2.695   6.288  0.2040  0.8953  0.8810
14196TIP3   OH264078   5.973   2.426  11.491 -0.7087 -0.3606  0.0334
14196TIP3    H164079   5.968   2.339  11.452 -1.0909  0.3058 -1.4911
14196TIP3    H264080   5.882   2.452  11.505 -0.8218  1.0004 -2.4999
14197TIP3   OH264081   0.333   3.640  15.229 -0.3842 -0.2247 -0.3354
14197TIP3    H164082   0.406   3.683  15.185 -2.1285  0.9393 -2.2846
14197TIP3    H264083   0.342   3.547  15.207  1.3860 -0.3894  0.8806
14198TIP3   OH264084   2.292   3.115   1.107 -0.2678 -0.0987  0.5658
14198TIP3    H164085   2.284   3.129   1.202 -1.1110  1.9501  0.2473
14198TIP3    H264086   2.349   3.186   1.077 -1.0525  0.0532 -0.6370
14199TIP3   OH264087   2.940   3.848  14.409 -0.0084  0.0194 -0.1027
14199TIP3    H164088   2.999   3.908  14.454  0.3608 -0.6694  0.3609
14199TIP3    H264089   2.892   3.903  14.347 -0.2305  0.9153  0.8350
14200TIP3   OH264090   2.121   4.876   4.686  0.3296 -0.5700  0.1225
14200TIP3    H164091   2.067   4.898   4.609  0.7915 -1.4386 -0.4656
14200TIP3    H264092   2.116   4.954   4.741  1.7405  0.9901 -1.7872
14201TIP3   OH264093   0.157   0.328  15.452 -0.4762 -0.3550 -0.0047
14201TIP3    H164094   0.087   0.377  15.407 -0.5390  0.8358  1.3040
14201TIP3    H264095   0.190   0.390  15.518  0.1046 -1.7738  1.0792
14202TIP3   OH264096   0.837   3.744  14.812 -0.8073  0.0822 -0.5294
14202TIP3    H164097   0.808   3.778  14.897  2.3019 -0.2468  0.8122
14202TIP3    H264098   0.906   3.804  14.785 -1.4638 -0.0552 -2.7134
14203TIP3   OH264099   5.068   6.113  15.019 -0.0172  0.0894  0.3302
14203TIP3    H164100   5.118   6.140  14.942 -0.6495 -0.0766 -0.1416
14203TIP3    H264101   4.989   6.168  15.017 -1.4026 -1.8364 -0.7177
14204TIP3   OH264102   1.635   0.788   5.254  0.4809  0.4049  0.0493
14204TIP3    H164103   1.698   0.719   5.230 -0.5285 -1.0865  1.4259
14204TIP3    H264104   1.682   0.842   5.318  1.0094  0.4876 -0.4061
14205TIP3   OH264105   1.493   2.597   3.704 -0.3147  0.1090 -0.0980
14205TIP3    H164106   1.513   2.595   3.797  1.2415  1.5972 -0.3534
14205TIP3    H264107   1.419   2.657   3.697  0.6454  1.3612  0.0560
14206TIP3   OH264108   3.513   1.988  14.170 -0.4472  0.0973  0.6232
14206TIP3    H164109   3.561   2.070  14.182  0.6245 -0.2295 -1.0040
14206TIP3    H264110   3.451   2.008  14.099 -1.2573 -0.0855  1.2687
14207TIP3   OH264111   2.545   6.633   6.413  0.3925 -0.6975 -0.9190
14207TIP3    H164112   2.517   6.542   6.422  0.8468 -0.7245  0.4676
14207TIP3    H264113   2.466   6.679   6.382 -0.4649 -1.2134  0.3992
14208TIP3   OH264114   4.326   0.623   0.091 -0.6472 -1.0014 -0.3626
14208TIP3    H164115   4.287   0.536   0.086  0.0167 -1.2530 -1.4390
14208TIP3    H264116   4.387   0.617   0.165 -0.7079 -1.4023 -0.3409
14209TIP3   OH264117   1.642   1.767   4.589 -0.4387  0.4921 -0.6906
14209TIP3    H164118   1.634   1.804   4.677  0.1834 -1.5614  0.2953
14209TIP3    H264119   1.555   1.736   4.567 -0.1819 -0.9190  0.1554
14210TIP3   OH264120   5.140   5.493   4.428 -0.8111 -0.0557 -0.5003
14210TIP3    H164121   5.090   5.573   4.446  1.3772  1.0305  1.2305
14210TIP3    H264122   5.141   5.486   4.332 -3.3090  0.4273 -0.6280
14211TIP3   OH264123   4.360   1.760  17.105  0.5394 -0.0349 -0.4298
14211TIP3    H164124   4.315   1.844  17.117 -0.0651 -0.3330 -0.5998
14211TIP3    H264125   4.377   1.756  17.010 -0.0405 -0.4121 -0.5203
14212TIP3   OH264126   1.628   0.599  14.867  0.2091  0.0411  0.1766
14212TIP3    H164127   1.557   0.563  14.920 -0.5385  1.8239  0.4240
14212TIP3    H264128   1.631   0.543  14.789 -0.8291 -0.6115  0.5883
14213TIP3   OH264129   0.390   6.767   0.986  0.3229 -0.0052 -0.4207
14213TIP3    H164130   0.344   6.686   1.008 -1.2671  0.9294 -0.1047
14213TIP3    H264131   0.387   6.818   1.067  0.8935  0.5435 -0.7413
14214TIP3   OH264132   1.644   4.165   1.157 -0.2745 -0.0917 -0.4331
14214TIP3    H164133   1.644   4.131   1.247  1.2458 -0.8819 -0.7056
14214TIP3    H264134   1.609   4.093   1.104  1.7822 -0.8380 -0.8499
14215TIP3   OH264135   4.557   4.701  16.304  0.8293  0.6726 -0.4700
14215TIP3    H164136   4.637   4.753  16.307  0.2834  1.4814  0.7799
14215TIP3    H264137   4.490   4.761  16.271  0.9959 -0.4490 -3.1558
14216TIP3   OH264138   5.531   5.983   3.485 -0.2390 -0.1907  0.6872
14216TIP3    H164139   5.573   5.986   3.571  0.4143 -0.2830  0.3800
14216TIP3    H264140   5.458   5.923   3.496 -0.9452  0.7866  1.5081
14217TIP3   OH264141   1.634   5.494   0.751 -0.3587 -0.2249 -0.2290
14217TIP3    H164142   1.663   5.435   0.681  3.1410 -2.6499  2.9064
14217TIP3    H264143   1.560   5.448   0.791 -0.2354 -0.4788 -0.2889
14218TIP3   OH264144   2.215   6.558   2.395 -0.8402  0.3213 -0.3059
14218TIP3    H164145   2.254   6.489   2.449  1.2339  0.4597 -1.5663
14218TIP3    H264146   2.141   6.590   2.448 -0.8559 -1.7127  1.0192
14219TIP3   OH264147   1.173   5.017   5.684 -0.2513 -0.6262 -0.4341
14219TIP3    H164148   1.228   5.039   5.759 -1.1801 -0.1692  0.1263
14219TIP3    H264149   1.190   4.924   5.669 -2.0587 -1.4521  2.0743
14220TIP3   OH264150   1.842   5.063   3.899 -0.0849 -0.0528  0.4522
14220TIP3    H164151   1.810   5.153   3.890  1.1022  0.5595  2.0076
14220TIP3    H264152   1.866   5.038   3.810  0.3595  1.4864  0.1064
14221TIP3   OH264153   2.839   3.704   4.421  0.0936 -0.4186  0.1564
14221TIP3    H164154   2.750   3.672   4.437 -0.5025  1.3582  0.5742
14221TIP3    H264155   2.880   3.634   4.370 -1.4423 -1.3992  0.1880
14222TIP3   OH264156   1.641   6.465  14.418 -0.1746 -0.1013  0.4675
14222TIP3    H164157   1.701   6.534  14.388 -1.6595  1.0555  0.0735
14222TIP3    H264158   1.580   6.510  14.476 -4.4144  0.2572 -3.6619
14223TIP3   OH264159   6.362   2.581  11.005  0.1604 -0.4470 -0.3299
14223TIP3    H164160   6.274   2.547  10.989 -0.1988 -0.0981  0.8224
14223TIP3    H264161   6.407   2.572  10.921 -0.9954 -0.5712 -0.9494
14224TIP3   OH264162   0.325   1.372   2.326 -0.5097 -0.0381  0.1614
14224TIP3    H164163   0.243   1.349   2.281  0.2697  0.3747 -1.5561
14224TIP3    H264164   0.391   1.316   2.286 -0.2758 -2.2153  3.3053
14225TIP3   OH264165   1.224   3.521  13.150 -0.1311  0.6064  0.7316
14225TIP3    H164166   1.150   3.556  13.099 -0.4746  0.7232  1.2982
14225TIP3    H264167   1.215   3.562  13.236 -1.0904 -1.5239  1.7331
14226TIP3   OH264168   1.729   5.528  12.856  0.1852  0.2609  0.3311
14226TIP3    H164169   1.667   5.591  12.893 -1.5090  0.5523 -2.6851
14226TIP3    H264170   1.738   5.555  12.765  1.7780 -2.1037 -0.2788
14227TIP3   OH264171   5.568   3.073  16.176  0.1632 -0.2263 -0.1422
14227TIP3    H164172   5.614   3.156  16.166 -1.1368  0.5512  0.0433
14227TIP3    H264173   5.475   3.097  16.179 -0.1870 -1.5682  1.1847
14228TIP3   OH264174   3.413   6.332  12.622  0.6955 -0.0147 -0.1680
14228TIP3    H164175   3.392   6.421  12.594  1.6238  0.6330  1.1279
14228TIP3    H264176   3.390   6.330  12.715  0.9559 -1.0491 -0.1208
14229TIP3   OH264177   6.123   5.583   4.742  0.6416  0.1866 -0.0027
14229TIP3    H164178   6.087   5.607   4.827 -1.1255 -0.3429 -0.5635
14229TIP3    H264179   6.106   5.489   4.734  1.0561  0.1710 -0.8104
14230TIP3   OH264180   2.545   5.066  12.261  0.3449  0.4214  0.3164
14230TIP3    H164181   2.607   5.122  12.214  0.8953 -1.4089 -1.2826
14230TIP3    H264182   2.530   5.111  12.344  2.5128  1.7703  0.0578
14231TIP3   OH264183   1.412   3.189  14.053  0.4042 -0.7481  0.2738
14231TIP3    H164184   1.482   3.172  14.116 -0.5473 -1.4507  1.1787
14231TIP3    H264185   1.430   3.129  13.980 -0.6883 -2.9073  1.6766
14232TIP3   OH264186   0.744   6.258  12.919  0.2622  0.1084  0.2373
14232TIP3    H164187   0.751   6.214  12.834 -0.7492  0.5452 -0.0926
14232TIP3    H264188   0.802   6.208  12.976  0.7382 -0.3762 -0.6316
14233TIP3   OH264189   3.060   1.590   5.783  0.1485 -0.1746 -0.1634
14233TIP3    H164190   2.992   1.598   5.717  0.2849  0.2529 -0.2510
14233TIP3    H264191   3.023   1.529   5.847 -1.1278  1.4879  0.7812
14234TIP3   OH264192   6.614   1.458  16.973 -0.5996  0.5590  0.2489
14234TIP3    H164193   6.682   1.515  16.937 -0.5635 -0.1420 -0.8309
14234TIP3    H264194   6.540   1.517  16.990 -0.0611  1.1637  0.5458
14235TIP3   OH264195   4.618   2.314   4.432 -0.6037 -1.1154 -0.1687
14235TIP3    H164196   4.540   2.333   4.484 -0.4454 -1.3185  0.1442
14235TIP3    H264197   4.601   2.356   4.347 -0.4325  0.0805  0.3651
14236TIP3   OH264198   4.068   5.446   2.296  0.4869 -0.3282 -0.5645
14236TIP3    H164199   4.150   5.407   2.269  0.1848 -0.6265 -1.0683
14236TIP3    H264200   4.012   5.443   2.218  0.5617  1.4219 -0.7360
14237TIP3   OH264201   6.345   6.208   0.276 -0.3125  0.1602  0.2280
14237TIP3    H164202   6.381   6.234   0.361  0.4463 -0.8638  0.2497
14237TIP3    H264203   6.258   6.246   0.274 -0.5799 -0.2935  1.7274
14238TIP3   OH264204   5.676   6.250  12.064 -0.3604 -0.0610 -0.2920
14238TIP3    H164205   5.647   6.238  11.974 -0.6651 -1.3855 -0.0338
14238TIP3    H264206   5.768   6.225  12.063 -0.6809 -1.2926  0.0014
14239TIP3   OH264207   1.070   0.684   6.356 -0.1793 -0.6540 -0.3141
14239TIP3    H164208   1.052   0.724   6.441  0.1610  1.0593 -1.0055
14239TIP3    H264209   1.137   0.618   6.374 -0.7176 -0.9091  0.8612
14240TIP3   OH264210   2.231   2.879   4.658 -0.3647  0.0975 -0.1302
14240TIP3    H164211   2.281   2.901   4.737  0.8670 -1.1794 -0.5230
14240TIP3    H264212   2.283   2.914   4.586 -1.4645  1.2188 -0.4359
14241TIP3   OH264213   3.225   1.913   1.637  0.4583  0.6400 -1.0770
14241TIP3    H164214   3.138   1.877   1.619  1.0546 -0.7796 -1.2592
14241TIP3    H264215   3.218   1.950   1.725 -0.4356  0.9152 -1.2563
14242TIP3   OH264216   3.850   4.330  12.039  0.3197  1.1226 -0.8278
14242TIP3    H164217   3.859   4.367  11.951 -1.4840 -0.0569 -1.5690
14242TIP3    H264218   3.764   4.359  12.069  0.6097  0.9165  0.2571
14243TIP3   OH264219   4.862   2.297   0.797  0.2797  0.2587 -0.4574
14243TIP3    H164220   4.809   2.330   0.725 -0.6437 -0.6824 -0.2269
14243TIP3    H264221   4.845   2.357   0.869 -0.0276  0.2711 -0.5417
14244TIP3   OH264222   0.097   1.204  13.954  0.5220 -0.3725 -0.0656
14244TIP3    H164223   0.095   1.237  14.043  2.7899  0.2874 -0.2071
14244TIP3    H264224   0.105   1.109  13.963  0.3740 -0.3403  0.4077
14245TIP3   OH264225   4.021   4.804  13.146  0.1320  0.3500 -0.7911
14245TIP3    H164226   4.066   4.730  13.105 -0.8864 -0.3881 -0.5981
14245TIP3    H264227   4.082   4.834  13.214 -0.0462 -1.2560  0.1284
14246TIP3   OH264228   4.414   0.645  12.859 -0.1754 -0.2090 -0.5651
14246TIP3    H164229   4.320   0.646  12.841 -0.5323  0.2665  1.1178
14246TIP3    H264230   4.438   0.553  12.860 -0.4097 -0.3091 -1.8674
14247TIP3   OH264231   4.842   4.101  15.339 -0.1313  0.4658  0.1416
14247TIP3    H164232   4.858   4.105  15.245 -0.7333  1.9025  0.0769
14247TIP3    H264233   4.878   4.184  15.373 -2.6075  1.3921  0.7140
14248TIP3   OH264234   0.488   0.893  15.272 -0.2115  0.2401  0.5063
14248TIP3    H164235   0.523   0.916  15.186  0.7262 -0.2881  0.7371
14248TIP3    H264236   0.425   0.963  15.292 -0.1354  0.5811 -0.4199
14249TIP3   OH264237   1.713   0.319  15.980  0.0208  0.1809  0.2922
14249TIP3    H164238   1.732   0.408  15.952 -0.2697  0.5915  1.3348
14249TIP3    H264239   1.784   0.296  16.040 -1.2106  0.7126  2.0625
14250TIP3   OH264240   1.664   4.355  16.406  0.5701 -0.2302 -0.0310
14250TIP3    H164241   1.577   4.340  16.369 -0.0872  0.7248  1.0580
14250TIP3    H264242   1.716   4.385  16.332 -1.1582  3.3910 -0.0059
14251TIP3   OH264243   5.115   0.236   4.569  1.0432 -0.0640 -0.2008
14251TIP3    H164244   5.026   0.236   4.534  0.9893  0.8368 -0.0738
14251TIP3    H264245   5.116   0.164   4.632  0.5277 -0.3324 -0.4879
14252TIP3   OH264246   2.978   0.021  14.719  0.0221 -0.3007  0.5642
14252TIP3    H164247   2.989   0.062  14.633 -3.4460 -0.0782  0.0662
14252TIP3    H264248   2.929  -0.060  14.700 -0.5289 -0.4099  2.2830
14253TIP3   OH264249   5.401   4.286   1.305  0.4315 -0.2574  0.1315
14253TIP3    H164250   5.483   4.329   1.280  0.3096 -0.3262 -0.4012
14253TIP3    H264251   5.415   4.260   1.396  1.0721 -0.4328 -0.0070
14254TIP3   OH264252   4.101   1.622  17.130 -0.2013  0.1385 -0.0413
14254TIP3    H164253   4.063   1.640  17.216 -2.7601  1.0061 -1.2694
14254TIP3    H264254   4.162   1.694  17.115 -0.5530  0.5797  0.6178
14255TIP3   OH264255   2.029   0.809   2.591 -0.0339  0.1463  0.1434
14255TIP3    H164256   2.037   0.732   2.648 -0.7189 -0.3930 -0.4663
14255TIP3    H264257   2.117   0.845   2.588  0.4235 -0.9196  0.0448
14256TIP3   OH264258   5.329   0.716   0.682 -0.2101 -0.1418  0.2777
14256TIP3    H164259   5.280   0.693   0.603 -0.3624  0.1724  0.2800
14256TIP3    H264260   5.421   0.701   0.659 -0.1493  1.0945 -0.3606
14257TIP3   OH264261   3.942   0.341   6.131  0.4969  0.1526  0.0924
14257TIP3    H164262   3.978   0.369   6.215  1.5074 -1.1515  0.1204
14257TIP3    H264263   4.018   0.338   6.072  0.2318 -1.3307 -0.2134
14258TIP3   OH264264   0.814   2.784  11.622 -0.3294  0.3269 -0.0016
14258TIP3    H164265   0.832   2.843  11.695  0.3865 -0.5517  0.5510
14258TIP3    H264266   0.817   2.841  11.545  1.2688  0.8693  0.4244
14259TIP3   OH264267   4.416   1.331  14.265  0.5508  0.1707  0.1023
14259TIP3    H164268   4.412   1.372  14.178  2.1414 -0.2772 -0.2000
14259TIP3    H264269   4.350   1.262  14.262  1.2214 -0.4562 -1.0990
14260TIP3   OH264270   0.596   1.811   2.381  0.4375  0.1886 -1.2217
14260TIP3    H164271   0.571   1.834   2.470  1.1059  1.8062 -1.4164
14260TIP3    H264272   0.649   1.732   2.390  1.9177  1.2687  0.0318
14261TIP3   OH264273   0.775   2.037  17.059  0.2238  0.4271  0.5701
14261TIP3    H164274   0.794   2.050  16.966 -1.9066 -0.1537 -0.0207
14261TIP3    H264275   0.819   1.955  17.081  1.5064  1.0339  0.3513
14262TIP3   OH264276   3.841   2.504   5.268  0.1650 -0.0933 -0.5345
14262TIP3    H164277   3.931   2.488   5.295 -0.0450 -0.0759  0.1979
14262TIP3    H264278   3.831   2.599   5.272  0.2865 -0.0516 -1.1856
14263TIP3   OH264279   4.997   0.265  11.849  0.1719  0.0546  0.6375
14263TIP3    H164280   4.996   0.257  11.753 -1.5049 -0.4028  0.6635
14263TIP3    H264281   4.980   0.176  11.880 -0.5782  0.4343  1.3341
14264TIP3   OH264282   0.893   4.887  14.507 -0.1631 -0.1060  0.5100
14264TIP3    H164283   0.918   4.980  14.507 -0.3508 -0.0535  1.0287
14264TIP3    H264284   0.895   4.862  14.599  0.1592 -0.6962  0.3424
14265TIP3   OH264285   0.287   0.066  11.389 -0.2565  0.2781 -0.4379
14265TIP3    H164286   0.310  -0.015  11.434 -0.8769 -1.3704 -2.8705
14265TIP3    H264287   0.256   0.124  11.458 -1.9825 -2.3716  1.1851
14266TIP3   OH264288   0.612   1.055   6.803  0.3981 -0.3471 -0.1500
14266TIP3    H164289   0.565   1.112   6.742  1.0856 -2.2741 -2.6349
14266TIP3    H264290   0.702   1.087   6.801  1.2969 -2.5898 -3.2478
14267TIP3   OH264291   1.532   5.235   6.615 -0.0813 -0.8294 -0.3856
14267TIP3    H164292   1.546   5.167   6.680 -2.0108 -1.4057 -0.5086
14267TIP3    H264293   1.439   5.257   6.623 -0.2293 -0.4857 -2.5188
14268TIP3   OH264294   4.162   4.459  16.699 -0.3523  0.5727 -0.3937
14268TIP3    H164295   4.196   4.370  16.701  3.6406  1.8764 -1.5860
14268TIP3    H264296   4.144   4.480  16.791  0.0626 -0.9733  0.0690
14269TIP3   OH264297   4.883   1.086   2.524  0.1318  0.1230 -0.2281
14269TIP3    H164298   4.949   1.135   2.572  1.1048  0.1726 -1.5711
14269TIP3    H264299   4.800   1.125   2.551  0.6992  0.7173  0.7239
14270TIP3   OH264300   4.934   4.574   3.468  0.3688 -0.3481 -0.5994
14270TIP3    H164301   4.856   4.520   3.474 -0.4018  0.6069 -1.5800
14270TIP3    H264302   4.923   4.639   3.537 -0.1553  0.3168 -1.2900
14271TIP3   OH264303   3.282   2.469  12.895  0.4193  0.6828  0.2553
14271TIP3    H164304   3.251   2.504  12.811 -2.0477 -0.1839  0.7161
14271TIP3    H264305   3.327   2.542  12.937 -1.2310  2.1487 -0.4170
14272TIP3   OH264306   1.530   5.662   3.975 -0.0698 -0.2605  0.4826
14272TIP3    H164307   1.626   5.655   3.982 -0.0544 -0.8954 -0.2482
14272TIP3    H264308   1.502   5.576   3.945 -0.8779 -0.0853  0.7311
14273TIP3   OH264309   0.623   2.609  14.412  0.1079 -0.1880  0.2172
14273TIP3    H164310   0.541   2.584  14.369 -0.0726 -0.4260  0.6857
14273TIP3    H264311   0.690   2.559  14.367  0.1196  0.6746 -0.7648
14274TIP3   OH264312   2.979   6.769  12.574  0.1142 -0.5138 -0.0481
14274TIP3    H164313   2.983   6.687  12.622 -0.4051  0.1692  1.2042
14274TIP3    H264314   2.917   6.823  12.623  0.7530  0.7682 -0.6015
14275TIP3   OH264315   4.220   2.497  14.465 -0.4755  0.3701  0.3522
14275TIP3    H164316   4.143   2.469  14.416 -0.9677  1.0809  0.6950
14275TIP3    H264317   4.184   2.548  14.538  0.3794  2.1226 -0.4011
14276TIP3   OH264318   6.555   6.151  12.873  0.5712  0.0437 -0.2767
14276TIP3    H164319   6.585   6.166  12.783  0.9998 -1.0013 -0.3213
14276TIP3    H264320   6.617   6.201  12.927  0.7567  0.0807 -0.5195
14277TIP3   OH264321   3.094   6.335   0.816 -0.4564  0.6446 -0.2342
14277TIP3    H164322   3.095   6.246   0.779  1.2335  0.3694  0.3759
14277TIP3    H264323   3.007   6.343   0.856 -0.4589 -0.9332  0.1509
14278TIP3   OH264324   4.092   0.280  12.613 -0.0628  0.0686 -0.3192
14278TIP3    H164325   4.067   0.356  12.561 -0.2231  0.2662  0.0465
14278TIP3    H264326   4.178   0.255  12.578 -0.4565 -0.2002 -1.1181
14279TIP3   OH264327   4.934   6.537  12.090  0.0054 -0.1522  0.1475
14279TIP3    H164328   4.865   6.509  12.151 -1.5309  1.8389 -0.5730
14279TIP3    H264329   5.016   6.525  12.139 -1.0613 -0.0981  2.0169
14280TIP3   OH264330   1.336   3.909  12.869 -0.0891 -0.1627 -0.0355
14280TIP3    H164331   1.356   3.818  12.888  0.3300 -0.5882 -2.1965
14280TIP3    H264332   1.250   3.924  12.907 -0.1460 -1.4414  0.3710
14281TIP3   OH264333   6.514   5.874   0.347  0.3774  0.1008 -0.0710
14281TIP3    H164334   6.609   5.883   0.337  0.5820 -1.4750  0.2762
14281TIP3    H264335   6.496   5.905   0.435  0.9391 -1.8321  0.7734
14282TIP3   OH264336   2.850   5.223   3.285 -0.0854 -0.0071 -0.1301
14282TIP3    H164337   2.777   5.234   3.225  0.4834 -1.7597 -1.2158
14282TIP3    H264338   2.812   5.185   3.364 -0.5005  0.1583 -0.2491
14283TIP3   OH264339   2.486   2.999   2.164 -0.5521 -0.4285 -0.4552
14283TIP3    H164340   2.575   3.003   2.127  0.5788  0.3911  2.1364
14283TIP3    H264341   2.462   3.090   2.180 -1.3931 -0.7006 -0.0887
14284TIP3   OH264342   3.076   3.993  17.230  0.0067  0.1834 -0.7001
14284TIP3    H164343   3.162   3.999  17.186  1.0450  1.5937  1.3741
14284TIP3    H264344   3.095   3.948  17.312 -1.1541  0.9586  0.0076
14285TIP3   OH264345   2.304   0.161  16.881  0.2351  0.6823 -0.3627
14285TIP3    H164346   2.249   0.111  16.820 -0.1795  0.7214 -0.0291
14285TIP3    H264347   2.394   0.139  16.856  0.0630  0.1800 -0.5608
14286TIP3   OH264348   4.099   6.259  15.266 -0.4776 -0.1801 -0.3210
14286TIP3    H164349   4.162   6.313  15.314 -2.6523  1.1976  1.1686
14286TIP3    H264350   4.110   6.172  15.304  0.1452  0.1591  0.3238
14287TIP3   OH264351   2.001   0.202   3.836  0.3886  0.1975 -0.3190
14287TIP3    H164352   1.918   0.248   3.824  0.2157 -0.4373 -1.6705
14287TIP3    H264353   1.981   0.135   3.902 -0.1317  0.1702 -0.4987
14288TIP3   OH264354   1.271   6.233   2.349 -0.1737 -0.2835  0.4786
14288TIP3    H164355   1.285   6.140   2.329  0.5703 -0.3505  1.2341
14288TIP3    H264356   1.344   6.278   2.307 -0.6508 -0.0024 -0.0704
14289TIP3   OH264357   3.927   5.655   3.229 -0.6755  0.2181  0.0087
14289TIP3    H164358   3.916   5.686   3.139 -2.0570 -0.5633 -0.1109
14289TIP3    H264359   3.936   5.560   3.220 -1.0943  0.1099  0.7225
14290TIP3   OH264360   0.614   1.190  17.398  0.2019  0.2880  0.3939
14290TIP3    H164361   0.635   1.106  17.439 -2.2883 -0.2922  0.6502
14290TIP3    H264362   0.559   1.235  17.463 -0.7439  0.9404 -0.8183
14291TIP3   OH264363   4.355   3.076  16.789 -0.1695  0.1476 -0.1557
14291TIP3    H164364   4.269   3.078  16.833  0.8005 -4.7392  2.6895
14291TIP3    H264365   4.335   3.051  16.699 -1.7780 -1.4255  0.5847
14292TIP3   OH264366   2.664   4.324  16.748 -0.1941  0.1894 -0.5937
14292TIP3    H164367   2.746   4.289  16.713 -0.2786  0.2437 -0.8553
14292TIP3    H264368   2.620   4.249  16.787  1.1812  0.6116  2.0047
14293TIP3   OH264369   5.923   6.253   4.131 -0.4842 -0.2939 -0.6468
14293TIP3    H164370   5.868   6.264   4.209  1.8716 -1.2364  1.2904
14293TIP3    H264371   5.878   6.186   4.080 -2.0630  0.2873 -0.0774
14294TIP3   OH264372   1.035   0.226  11.258 -0.0671  0.1284  0.2661
14294TIP3    H164373   0.976   0.224  11.182  0.9621  0.3277 -0.5743
14294TIP3    H264374   1.095   0.153  11.243  0.1652  0.1855  0.8854
14295TIP3   OH264375   0.349   1.319  14.430 -0.3342  0.9470  0.1253
14295TIP3    H164376   0.265   1.363  14.444 -1.2109 -0.7939  0.5814
14295TIP3    H264377   0.383   1.304  14.518 -1.0199 -1.0047  0.1118
14296TIP3   OH264378   6.294   4.156  13.931 -0.5835 -0.3603 -1.0831
14296TIP3    H164379   6.286   4.249  13.951  0.9441 -0.5326  0.6634
14296TIP3    H264380   6.218   4.115  13.972  0.6940 -0.2643  1.6012
14297TIP3   OH264381   0.698   4.371  15.947  0.2327 -0.1490 -0.0122
14297TIP3    H164382   0.669   4.390  15.858  0.0592  1.5683  0.3828
14297TIP3    H264383   0.679   4.451  15.997  1.4723 -0.6119  1.2835
14298TIP3   OH264384   6.220   6.584  13.680 -0.0913 -0.6416 -0.0052
14298TIP3    H164385   6.286   6.614  13.743 -0.1716 -2.9542  1.3143
14298TIP3    H264386   6.267   6.575  13.598  0.4073  0.9165  0.0819
14299TIP3   OH264387   6.610   3.437   0.468  0.0547  0.2378 -0.2198
14299TIP3    H164388   6.574   3.402   0.386 -0.7226 -0.3704  0.3710
14299TIP3    H264389   6.534   3.464   0.519  0.5313  5.3536 -1.6073
14300TIP3   OH264390   0.014   0.620  12.366  0.0805 -0.1974 -0.2332
14300TIP3    H164391  -0.077   0.635  12.340 -0.0040  2.5931  1.3777
14300TIP3    H264392   0.011   0.612  12.461  1.6352  1.1769 -0.0312
14301TIP3   OH264393   4.914   4.432   4.351 -0.4504  0.0665 -0.0302
14301TIP3    H164394   4.884   4.517   4.382 -0.7151  0.2070 -0.6422
14301TIP3    H264395   5.009   4.439   4.348 -0.4444  0.1657  0.4185
14302TIP3   OH264396   0.766   0.292  14.662  0.3476 -0.1063  0.1212
14302TIP3    H164397   0.714   0.298  14.581  0.2904 -0.6893  0.1101
14302TIP3    H264398   0.706   0.316  14.731  0.0694 -0.7365  0.1032
14303TIP3   OH264399   4.974   2.132  13.376  0.3038 -0.1381  0.3634
14303TIP3    H164400   4.976   2.047  13.420 -0.3811 -0.6926 -0.6317
14303TIP3    H264401   5.050   2.130  13.319 -0.0340 -0.3339 -0.0875
14304TIP3   OH264402   4.453   0.667  16.175  0.2999 -0.8171  1.2329
14304TIP3    H164403   4.509   0.600  16.136 -0.6233 -0.3215 -1.1352
14304TIP3    H264404   4.513   0.727  16.218  1.3987 -1.4636  0.6422
14305TIP3   OH264405   4.244   1.899   3.638 -0.2645  0.1223  0.4919
14305TIP3    H164406   4.163   1.919   3.592 -0.3070  0.4888  0.7179
14305TIP3    H264407   4.272   1.983   3.675 -1.5281 -0.5658  3.2472
14306TIP3   OH264408   1.449   4.741  16.360 -0.7980 -0.5913  0.5746
14306TIP3    H164409   1.467   4.661  16.311 -0.5204  0.5251 -1.2968
14306TIP3    H264410   1.526   4.754  16.414  0.0976 -0.5538 -0.6579
14307TIP3   OH264411   4.322   1.581  17.335  0.4421 -0.3020  0.4900
14307TIP3    H164412   4.315   1.626  17.250  3.3415  0.1275  0.3490
14307TIP3    H264413   4.260   1.627  17.392  1.7618  2.6099 -0.2014
14308TIP3   OH264414   5.301   1.939  12.638  0.1998 -0.3968  0.1953
14308TIP3    H164415   5.220   1.984  12.661  0.0878 -0.4461 -0.0973
14308TIP3    H264416   5.335   1.907  12.721  0.4548  0.5123  0.4511
14309TIP3   OH264417   6.626   0.904  11.261 -0.5231 -0.4098  0.0112
14309TIP3    H164418   6.560   0.902  11.191  0.7228  0.5368 -1.2584
14309TIP3    H264419   6.648   0.997  11.269  3.3049 -0.9246 -2.2636
14310TIP3   OH264420   0.973   6.099  11.339 -0.1909  0.0577 -0.0682
14310TIP3    H164421   1.032   6.087  11.413 -1.1022 -0.1350  0.6546
14310TIP3    H264422   1.024   6.148  11.274  0.8686 -0.4349  0.3677
14311TIP3   OH264423   6.500   6.700   4.858  0.0787 -0.1622  0.4886
14311TIP3    H164424   6.575   6.716   4.801  0.2668 -1.0072  0.4795
14311TIP3    H264425   6.531   6.721   4.946 -0.6200  2.4943  0.1976
14312TIP3   OH264426   6.306   6.380   2.245  0.1993 -0.5901 -0.2483
14312TIP3    H164427   6.258   6.440   2.189  1.4927  0.3226 -0.4326
14312TIP3    H264428   6.295   6.415   2.333 -1.2534 -1.6276  0.0102
14313TIP3   OH264429   2.149   3.050   2.880 -0.6323  0.3766  0.1036
14313TIP3    H164430   2.153   3.071   2.787 -0.4507 -0.0360  0.0145
14313TIP3    H264431   2.141   3.135   2.923  1.6622  0.8089 -0.1590
14314TIP3   OH264432   4.255   6.027   3.566 -0.4228  0.6291  0.8667
14314TIP3    H164433   4.177   5.972   3.561 -0.0057  0.0594  0.6350
14314TIP3    H264434   4.230   6.107   3.520 -0.6880  0.2337  0.3166
14315TIP3   OH264435   6.201   1.531   6.798 -0.1301 -0.3733  0.1699
14315TIP3    H164436   6.233   1.619   6.778  0.5673 -0.8148 -0.7370
14315TIP3    H264437   6.147   1.508   6.723  0.2881 -0.9899  0.0467
14316TIP3   OH264438   0.679   2.385  17.494  0.0527  0.4259 -0.6719
14316TIP3    H164439   0.695   2.292  17.477 -0.8639  0.2110 -0.3889
14316TIP3    H264440   0.749   2.409  17.556 -1.0709 -0.6994  1.1476
14317TIP3   OH264441   6.499   0.648  11.597 -0.2013  0.5247  0.0037
14317TIP3    H164442   6.415   0.614  11.566  0.7075 -0.1826 -1.7945
14317TIP3    H264443   6.495   0.742  11.578 -1.7449  1.1162  2.7543
14318TIP3   OH264444   3.360   3.619   2.043 -0.6605 -0.0210 -0.0884
14318TIP3    H164445   3.342   3.624   1.949 -0.5320  2.4508 -0.0476
14318TIP3    H264446   3.455   3.626   2.049 -0.6853  0.0493  0.2121
14319TIP3   OH264447   3.259   6.148  16.197 -0.2473  0.1022 -0.1058
14319TIP3    H164448   3.214   6.229  16.221  4.3147  2.9880 -0.0369
14319TIP3    H264449   3.302   6.120  16.278  1.2683 -0.1820 -0.9871
14320TIP3   OH264450   3.302   2.256   6.220 -0.7793 -0.4158 -0.3690
14320TIP3    H164451   3.395   2.234   6.218 -0.8736 -0.8388 -0.2504
14320TIP3    H264452   3.295   2.322   6.289 -0.7294 -1.1935  0.3963
14321TIP3   OH264453   1.013   4.223   5.525 -0.3192  0.2742 -0.3171
14321TIP3    H164454   0.967   4.189   5.449 -0.6796  2.0729 -0.9623
14321TIP3    H264455   1.058   4.301   5.493  1.0808  0.0148  0.9016
14322TIP3   OH264456   1.215   5.228  14.484 -0.1862 -0.4349 -0.7019
14322TIP3    H164457   1.276   5.167  14.526  0.4367  0.3372 -0.4706
14322TIP3    H264458   1.261   5.312  14.485 -0.3273 -0.2954 -2.5203
14323TIP3   OH264459   3.963   0.476  14.672 -0.3070 -0.2660 -0.4205
14323TIP3    H164460   3.939   0.512  14.587 -0.9183  0.1785 -0.0686
14323TIP3    H264461   3.899   0.514  14.733  0.1745 -0.5104  0.2480
14324TIP3   OH264462   3.192   1.826   4.856  0.3433 -0.6191 -0.2727
14324TIP3    H164463   3.217   1.892   4.920  1.0837 -1.2779  0.1315
14324TIP3    H264464   3.114   1.862   4.814 -0.0231 -0.0786  0.8410
14325TIP3   OH264465   0.982   3.546   5.295  0.0639  0.3503  0.0187
14325TIP3    H164466   1.000   3.498   5.214 -1.5672 -1.7302  0.7981
14325TIP3    H264467   0.980   3.638   5.269  0.1764 -0.2231 -2.1750
14326TIP3   OH264468   0.038   6.073   1.495  0.2651 -0.3488 -0.3840
14326TIP3    H164469   0.117   6.026   1.522 -1.2255 -3.4826 -1.0367
14326TIP3    H264470   0.003   6.110   1.576  1.7744  0.1449  0.0745
14327TIP3   OH264471   4.252   0.408   0.440 -0.2584  0.0916 -0.2498
14327TIP3    H164472   4.296   0.469   0.499 -0.4130  1.6020 -1.6048
14327TIP3    H264473   4.172   0.454   0.414  1.0845  0.8135 -3.7284
14328TIP3   OH264474   2.991   3.118   2.358  0.0328  0.5754  0.3944
14328TIP3    H164475   2.971   3.052   2.291 -1.8168  1.3965  0.0617
14328TIP3    H264476   3.023   3.067   2.433  2.6523 -0.3371 -1.1952
14329TIP3   OH264477   5.508   3.133  15.399  0.1000 -0.0621  0.1621
14329TIP3    H164478   5.534   3.048  15.435 -0.9387  0.7021  2.9522
14329TIP3    H264479   5.416   3.123  15.377  0.1912  0.1103 -0.3066
14330TIP3   OH264480   3.058   1.959  13.949 -0.5441 -0.5260 -0.2153
14330TIP3    H164481   3.119   2.032  13.959 -1.4210 -0.0264  2.2346
14330TIP3    H264482   3.087   1.914  13.870  1.0161  1.5230 -0.8910
14331TIP3   OH264483   6.226   5.373   4.029 -0.1129  0.5479  0.0317
14331TIP3    H164484   6.236   5.307   4.097 -0.0115  0.9333  0.3908
14331TIP3    H264485   6.299   5.433   4.041 -1.3420  1.9180  1.0520
14332TIP3   OH264486   4.746   5.119   0.816 -0.7348 -0.0258 -0.0556
14332TIP3    H164487   4.652   5.120   0.798 -0.4028  0.8520 -2.0828
14332TIP3    H264488   4.782   5.187   0.758  0.8973  1.2466  2.2706
14333TIP3   OH264489   2.924   4.646   3.744 -0.0245 -0.4781  0.2582
14333TIP3    H164490   2.835   4.631   3.712 -0.1079 -0.6711  0.5771
14333TIP3    H264491   2.926   4.739   3.767  0.9076  0.4468 -3.0408
14334TIP3   OH264492   5.007   6.555   2.874 -0.3749  0.2193 -0.4351
14334TIP3    H164493   4.963   6.497   2.811  1.1640  0.0940 -1.4713
14334TIP3    H264494   5.006   6.507   2.956 -0.2329 -0.7419 -0.9798
14335TIP3   OH264495   3.612   2.498   0.637  0.0842 -0.4162 -0.2369
14335TIP3    H164496   3.530   2.531   0.675 -0.1508 -1.0339 -0.1832
14335TIP3    H264497   3.649   2.442   0.706  0.9199  0.4182  0.0101
14336TIP3   OH264498   0.129   1.327   1.446  0.3548 -0.2510  0.2868
14336TIP3    H164499   0.129   1.285   1.532  1.7259 -0.4092  0.2279
14336TIP3    H264500   0.037   1.331   1.422 -0.2657  1.6203  2.6199
14337TIP3   OH264501   4.654   0.882  13.457  0.1063  0.4155  0.3159
14337TIP3    H164502   4.699   0.957  13.496 -1.2956  0.5956  1.7028
14337TIP3    H264503   4.565   0.888  13.491 -0.6090 -0.6895 -1.2494
14338TIP3   OH264504   3.854   1.953   5.731 -0.0011  0.1845 -0.4544
14338TIP3    H164505   3.779   1.991   5.778 -0.6707 -0.4338 -0.9961
14338TIP3    H264506   3.850   1.993   5.645 -0.3862 -0.6846 -0.8518
14339TIP3   OH264507   3.884   2.811  15.464  0.4735 -0.2407  0.0127
14339TIP3    H164508   3.949   2.809  15.534  2.0567  0.8340 -1.3580
14339TIP3    H264509   3.813   2.866  15.497  0.7652 -0.5162  1.1068
14340TIP3   OH264510   2.495   5.694   3.015  0.1085 -0.5410 -0.2847
14340TIP3    H164511   2.528   5.611   2.982  0.3470 -0.6951  0.3153
14340TIP3    H264512   2.544   5.761   2.967  1.2339 -0.7653  0.4927
14341TIP3   OH264513   2.143   0.530   5.471 -0.1356  0.4320  0.2402
14341TIP3    H164514   2.185   0.614   5.453 -0.9969  1.0357  0.9593
14341TIP3    H264515   2.179   0.502   5.555 -2.4210  1.8612  1.8155
14342TIP3   OH264516   0.452   5.494  14.184 -0.9459  0.2538  0.3402
14342TIP3    H164517   0.473   5.587  14.181 -0.4995  0.1307 -1.2880
14342TIP3    H264518   0.454   5.472  14.277 -0.7125  1.7893  0.7231
14343TIP3   OH264519   6.125   1.972   5.419 -0.3741 -0.2773 -0.2346
14343TIP3    H164520   6.127   2.061   5.383 -0.3446 -0.1027  0.1867
14343TIP3    H264521   6.036   1.962   5.452  0.5481  0.9883  3.0695
14344TIP3   OH264522   3.033   2.292  14.038 -0.1673  0.1175 -0.0655
14344TIP3    H164523   3.039   2.228  14.110  0.7179 -0.7905 -0.9203
14344TIP3    H264524   3.124   2.306  14.012 -0.5246 -0.0355 -1.4226
14345TIP3   OH264525   5.822   2.977   3.949 -0.7155 -0.0632 -0.0677
14345TIP3    H164526   5.818   2.998   3.855  0.8642  0.9872  0.0763
14345TIP3    H264527   5.884   3.040   3.985 -2.2717  0.4055  1.9412
14346TIP3   OH264528   2.113   5.070   2.580  0.4240  0.9495 -0.5379
14346TIP3    H164529   2.181   5.115   2.529  0.6079  0.9039 -0.3349
14346TIP3    H264530   2.070   5.141   2.628  0.7260  0.9120 -0.2037
14347TIP3   OH264531   4.618   2.489   3.445 -0.3146 -0.3587  0.5633
14347TIP3    H164532   4.552   2.537   3.396  2.0260  0.2616 -2.2709
14347TIP3    H264533   4.590   2.398   3.439 -0.6620 -0.1796 -1.1004
14348TIP3   OH264534   6.002   4.811   0.288  0.3209 -0.6234  0.5475
14348TIP3    H164535   6.090   4.829   0.255 -0.6594  2.1266 -0.8805
14348TIP3    H264536   5.955   4.773   0.214 -0.8917  2.2503 -0.2879
14349TIP3   OH264537   5.798   0.822   0.216 -0.3048  0.2374  0.1048
14349TIP3    H164538   5.763   0.911   0.216  0.7386  0.6806 -1.1572
14349TIP3    H264539   5.862   0.821   0.146  0.7094 -1.1409  0.9912
14350TIP3   OH264540   6.061   3.013   0.703  0.3487  0.1571 -0.0349
14350TIP3    H164541   6.079   2.919   0.706 -1.1049 -0.2044 -1.3909
14350TIP3    H264542   5.981   3.020   0.653  0.9027  2.2040 -0.7143
14351TIP3   OH264543   1.267   2.257  16.166  0.7887  0.0905 -0.3113
14351TIP3    H164544   1.268   2.233  16.074 -1.9862  0.3513 -0.4961
14351TIP3    H264545   1.271   2.353  16.166 -3.3656  0.4530 -0.5603
14352TIP3   OH264546   6.167   3.759   4.484 -0.0723 -0.2149 -0.8440
14352TIP3    H164547   6.215   3.746   4.566 -1.5809 -1.1034 -0.0520
14352TIP3    H264548   6.202   3.841   4.449  0.3677  0.3743  0.8687
14353TIP3   OH264549   0.514   4.904   1.339  0.3869  0.6829  0.0943
14353TIP3    H164550   0.475   4.965   1.402  0.2416 -0.0116  0.6974
14353TIP3    H264551   0.545   4.959   1.268  0.2815  1.4606  0.6382
14354TIP3   OH264552   2.093   0.288  14.158  0.3782 -0.1903  0.0897
14354TIP3    H164553   2.065   0.246  14.077 -1.9638  0.3379  0.5587
14354TIP3    H264554   2.154   0.226  14.197 -0.8556 -1.8916 -0.5706
14355TIP3   OH264555   3.785   0.383  15.035  0.0387  0.7227  0.1143
14355TIP3    H164556   3.831   0.465  15.048  0.2446  0.5231  0.6966
14355TIP3    H264557   3.692   0.407  15.034  0.1361  1.0875 -0.7756
14356TIP3   OH264558   5.777   2.966  14.691 -0.0202 -0.2529 -0.8735
14356TIP3    H164559   5.726   2.909  14.633 -1.2315 -0.5781  0.4679
14356TIP3    H264560   5.838   2.906  14.735 -0.4144 -0.3246 -0.4154
14357TIP3   OH264561   4.217   0.508   3.973 -0.3451 -0.1800  0.2493
14357TIP3    H164562   4.301   0.543   4.004 -0.2348  0.0949 -0.3333
14357TIP3    H264563   4.166   0.493   4.053  0.6314 -1.3439  0.6820
14358TIP3   OH264564   4.464   1.747   3.183 -0.1214 -0.0735  0.5344
14358TIP3    H164565   4.489   1.676   3.242 -1.6809  0.7370  2.2394
14358TIP3    H264566   4.492   1.827   3.227 -2.3251  0.6222  0.7947
14359TIP3   OH264567   1.013   0.391  15.141  0.5743 -0.5813  0.3241
14359TIP3    H164568   0.964   0.390  15.224 -0.0497 -0.9232 -0.0429
14359TIP3    H264569   1.090   0.336  15.158  0.9122  0.0715  0.9456
14360TIP3   OH264570   2.369   4.557   6.733 -0.4936  0.1439 -0.0345
14360TIP3    H164571   2.406   4.481   6.688 -1.7181 -0.3575 -0.2290
14360TIP3    H264572   2.425   4.569   6.810 -0.4586 -1.1531  0.1635
14361TIP3   OH264573   3.781   5.374  12.987 -0.6077 -0.5520  0.2442
14361TIP3    H164574   3.743   5.423  12.914 -2.7699 -1.7594  0.4756
14361TIP3    H264575   3.845   5.316  12.946  0.3219  0.8164 -0.3007
14362TIP3   OH264576   6.406   5.506  15.077 -0.0746  0.0069  0.4292
14362TIP3    H164577   6.404   5.495  15.172 -0.1432  1.2064  0.5913
14362TIP3    H264578   6.496   5.483  15.052 -0.3390 -1.2930  0.6348
14363TIP3   OH264579   1.865   4.113  16.037 -0.3631 -0.3655 -0.3570
14363TIP3    H164580   1.884   4.113  16.131  0.1362  1.2537 -0.4205
14363TIP3    H264581   1.950   4.123  15.995 -0.7619  1.5861 -0.8456
14364TIP3   OH264582   0.820   4.882  13.960 -0.3914 -0.1848  0.3319
14364TIP3    H164583   0.732   4.866  13.994 -1.0440 -0.1047 -1.2187
14364TIP3    H264584   0.862   4.796  13.961  0.5352  0.1845  3.6061
14365TIP3   OH264585   2.233   5.159  13.914  0.3056 -0.1804 -0.7868
14365TIP3    H164586   2.240   5.115  13.829  0.6083 -0.5610 -0.5735
14365TIP3    H264587   2.204   5.090  13.973  2.0585 -0.4509 -0.1772
14366TIP3   OH264588   1.781   6.558  16.941 -0.1225 -1.3645 -1.2764
14366TIP3    H164589   1.823   6.524  17.019 -0.1228 -1.9072 -1.5082
14366TIP3    H264590   1.698   6.509  16.935 -0.7404 -0.3824 -0.8796
14367TIP3   OH264591   3.638   0.177   1.935 -0.3568  0.2781  0.1891
14367TIP3    H164592   3.672   0.264   1.914  0.0045 -0.0027 -0.3981
14367TIP3    H264593   3.617   0.182   2.028  0.6947  0.6542  0.4193
14368TIP3   OH264594   5.605   4.622  11.812 -0.0212  0.0016 -0.0087
14368TIP3    H164595   5.565   4.651  11.730 -1.0207 -0.8062  0.1799
14368TIP3    H264596   5.560   4.540  11.834  0.3901  0.0781  1.2221
14369TIP3   OH264597   6.176   6.489   1.737 -0.0267 -0.3704  0.1455
14369TIP3    H164598   6.173   6.476   1.831  0.9209  0.7702  0.3555
14369TIP3    H264599   6.266   6.467   1.712 -0.0915 -0.0591 -0.3928
14370TIP3   OH264600   4.273   1.128   0.844  0.0764  0.2976 -0.4005
14370TIP3    H164601   4.270   1.054   0.785 -1.4924 -0.4355  0.5370
14370TIP3    H264602   4.365   1.154   0.846  0.5514 -1.2393 -1.1978
14371TIP3   OH264603   0.660   0.051  12.163 -1.4021  0.1083 -0.1660
14371TIP3    H164604   0.636  -0.042  12.158 -2.8907  0.3884  1.0637
14371TIP3    H264605   0.683   0.065  12.255  1.3310  0.4274 -0.8086
14372TIP3   OH264606   2.518   2.531  11.010 -0.3142  0.0065 -0.2553
14372TIP3    H164607   2.441   2.568  10.967 -1.4799 -0.6811  1.1299
14372TIP3    H264608   2.533   2.448  10.964  0.7246  0.9530 -1.6835
14373TIP3   OH264609   3.057   5.869   5.555  0.1880  0.6071 -0.1855
14373TIP3    H164610   3.072   5.953   5.512 -1.8247  0.1819 -1.8973
14373TIP3    H264611   3.080   5.804   5.489 -0.8080 -0.1210  0.1554
14374TIP3   OH264612   2.219   4.710  13.692  0.4401 -0.1631 -0.0022
14374TIP3    H164613   2.296   4.655  13.676  0.3498 -0.7622  1.5059
14374TIP3    H264614   2.154   4.650  13.728 -0.3485  0.5718 -0.1700
14375TIP3   OH264615   3.785   5.134  14.763  0.0230  0.7996 -0.2457
14375TIP3    H164616   3.773   5.191  14.838  0.4360 -1.1155  1.3667
14375TIP3    H264617   3.804   5.048  14.801  1.5695  0.0236 -2.5510
14376TIP3   OH264618   5.257   5.100   0.958  0.4856  0.1059  0.5715
14376TIP3    H164619   5.320   5.048   0.907 -1.0288 -1.3292  0.0442
14376TIP3    H264620   5.227   5.041   1.027 -1.5200  0.0917 -0.2234
14377TIP3   OH264621   3.803   0.414   5.585  0.3749 -0.3549  0.3658
14377TIP3    H164622   3.830   0.492   5.633 -0.2301 -0.7457  1.3731
14377TIP3    H264623   3.707   0.417   5.585  0.3551 -0.7002 -0.2635
14378TIP3   OH264624   1.640   5.189  11.924  0.0108  0.5965 -0.4103
14378TIP3    H164625   1.686   5.269  11.954  1.8025 -0.3797 -0.4074
14378TIP3    H264626   1.594   5.158  12.002 -0.4660  1.4478 -0.3356
14379TIP3   OH264627   5.996   0.803   1.457  0.1991  0.1880 -0.7747
14379TIP3    H164628   5.936   0.873   1.431  0.4303  0.0893 -1.5775
14379TIP3    H264629   6.009   0.817   1.551  0.1202  1.1370 -0.8930
14380TIP3   OH264630   4.335   2.284  16.257  0.7304 -0.1696 -0.0218
14380TIP3    H164631   4.350   2.234  16.337  0.1587 -1.6409 -0.7967
14380TIP3    H264632   4.263   2.344  16.279  0.8435 -0.2786  0.6731
14381TIP3   OH264633   6.015   1.726   3.352 -0.6796 -0.4939 -0.7711
14381TIP3    H164634   6.090   1.667   3.346  1.6174  2.0680  0.5671
14381TIP3    H264635   5.983   1.716   3.441 -1.5699 -1.1068 -1.1437
14382TIP3   OH264636   4.627   4.657   5.228  0.1044  0.5337  0.0408
14382TIP3    H164637   4.653   4.678   5.318 -1.5872  2.9187  0.0461
14382TIP3    H264638   4.701   4.686   5.175  0.0024  1.6283  0.4817
14383TIP3   OH264639   6.416   2.854  12.396 -0.5635  0.2726 -0.7273
14383TIP3    H164640   6.481   2.832  12.462 -0.6486 -1.2334 -1.0998
14383TIP3    H264641   6.467   2.887  12.321 -0.4661  1.9371  0.0327
14384TIP3   OH264642   4.026   1.338   1.680  0.0076 -0.3336 -0.4895
14384TIP3    H164643   4.120   1.336   1.662  0.4105  0.4498  1.3098
14384TIP3    H264644   4.020   1.319   1.774 -1.5452  0.7267 -0.3443
14385TIP3   OH264645   6.469   5.748  15.317 -0.5149 -0.3036  0.1138
14385TIP3    H164646   6.380   5.782  15.313 -0.8829 -1.2414  0.2652
14385TIP3    H264647   6.524   5.827  15.319 -1.2257  0.2999 -1.8247
14386TIP3   OH264648   0.358   1.095  17.346  0.4722  0.0033  0.2883
14386TIP3    H164649   0.416   1.021  17.328  0.2631  0.2251 -1.4852
14386TIP3    H264650   0.294   1.062  17.409  0.4588 -1.2951 -0.3779
14387TIP3   OH264651   6.368   2.553  15.131 -0.2667 -0.7094 -0.1922
14387TIP3    H164652   6.407   2.640  15.136 -0.0954 -0.8521  1.8751
14387TIP3    H264653   6.420   2.507  15.065  0.0020  0.5654 -0.8938
14388TIP3   OH264654   4.447   0.697  14.828  0.1772 -0.2071 -0.2782
14388TIP3    H164655   4.381   0.718  14.762  0.6099  1.1975 -0.2895
14388TIP3    H264656   4.397   0.669  14.904 -0.3167 -2.4964 -1.3677
14389TIP3   OH264657   3.501   0.479  16.990  0.0323 -0.0570 -0.1130
14389TIP3    H164658   3.560   0.495  17.064 -1.3509 -1.6434  1.4295
14389TIP3    H264659   3.530   0.396  16.953  1.5719  1.3682 -2.3175
14390TIP3   OH264660   3.061   1.896   6.051 -0.0475  0.4948  0.1441
14390TIP3    H164661   3.016   1.863   6.129  3.0739 -0.2227  1.8162
14390TIP3    H264662   3.068   1.991   6.066  2.2967  0.1461  1.9125
14391TIP3   OH264663   5.417   3.969   1.788  0.0900  1.0603 -0.0867
14391TIP3    H164664   5.433   4.033   1.719 -2.3465  1.4796 -0.3563
14391TIP3    H264665   5.356   4.013   1.848  1.7020  0.5191  2.0851
14392TIP3   OH264666   0.240   5.857  13.691 -0.3160 -0.3662  0.7380
14392TIP3    H164667   0.319   5.803  13.689  0.1693  0.2829 -2.0278
14392TIP3    H264668   0.273   5.945  13.709 -0.2207  0.0453 -1.2019
14393TIP3   OH264669   1.193   0.772   6.580  0.4063 -0.0028 -0.4252
14393TIP3    H164670   1.219   0.851   6.628 -0.9779  0.3726 -0.2252
14393TIP3    H264671   1.242   0.776   6.498  3.2853 -0.9595  1.0993
14394TIP3   OH264672   5.129   0.250  16.720 -0.4616  0.2223 -0.6912
14394TIP3    H164673   5.215   0.274  16.755 -0.2847 -0.6867 -0.4634
14394TIP3    H264674   5.119   0.304  16.642  0.5771 -0.0638 -1.0411
14395TIP3   OH264675   3.852   4.066  15.235 -0.5288 -0.1992  0.0947
14395TIP3    H164676   3.834   4.022  15.152  0.8857  0.1231 -0.4149
14395TIP3    H264677   3.917   4.133  15.213 -0.0292 -0.1980  1.4803
14396TIP3   OH264678   2.716   4.219   0.402 -0.4141  0.4459 -0.2289
14396TIP3    H164679   2.675   4.147   0.449 -1.2701 -0.0429 -1.6687
14396TIP3    H264680   2.805   4.188   0.384  1.0096  1.7647  3.4736
14397TIP3   OH264681   2.227   2.213   3.536 -0.2698  0.1504 -0.1809
14397TIP3    H164682   2.229   2.210   3.631  0.4193 -0.5489 -0.2082
14397TIP3    H264683   2.141   2.179   3.512 -0.6265  0.7652  0.1952
14398TIP3   OH264684   4.903   5.447  12.402  0.9347 -0.4043  0.3527
14398TIP3    H164685   4.955   5.371  12.428  2.2908  0.6850  1.0228
14398TIP3    H264686   4.916   5.509  12.474 -1.9213 -0.3212  0.9012
14399TIP3   OH264687   4.660   0.522   2.928 -0.2558 -0.1482 -0.8052
14399TIP3    H164688   4.611   0.602   2.911 -0.8197 -0.4993 -0.8421
14399TIP3    H264689   4.666   0.479   2.843 -1.6188 -1.0772 -0.4558
14400TIP3   OH264690   1.599   1.493  16.945  0.4721  0.1692  0.3485
14400TIP3    H164691   1.606   1.586  16.964 -2.1036  0.1385  1.8524
14400TIP3    H264692   1.522   1.464  16.994  1.4390 -2.8555  0.2705
14401TIP3   OH264693   0.643   5.929  10.902 -0.1110  0.1421 -0.0540
14401TIP3    H164694   0.730   5.964  10.883 -0.3569  0.1617 -1.2164
14401TIP3    H264695   0.602   5.918  10.816 -1.2441  0.0940  0.4719
14402TIP3   OH264696   1.931   0.340   0.595 -0.4980 -0.4681 -0.1003
14402TIP3    H164697   1.838   0.348   0.614 -0.7171 -0.0087 -1.2551
14402TIP3    H264698   1.972   0.412   0.644 -0.8785 -0.0948 -0.3204
14403TIP3   OH264699   5.810   3.539  15.352 -0.3085  0.1036 -0.2493
14403TIP3    H164700   5.886   3.524  15.296  0.1430  0.7030  0.1813
14403TIP3    H264701   5.832   3.496  15.434 -1.7324 -2.3463 -1.0652
14404TIP3   OH264702   6.603   3.312   6.549  0.3234 -0.1109  0.2746
14404TIP3    H164703   6.620   3.223   6.582 -0.3909 -0.2124  0.3979
14404TIP3    H264704   6.567   3.298   6.461  4.1657  0.2259 -1.5364
14405TIP3   OH264705   3.106   0.795  15.441 -0.5455 -0.0476  0.4693
14405TIP3    H164706   3.064   0.766  15.522 -0.4443 -1.4629  0.0419
14405TIP3    H264707   3.162   0.722  15.415  0.2687  0.8186 -0.3049
14406TIP3   OH264708   4.358   0.177  14.602  0.3980 -0.5648 -0.4763
14406TIP3    H164709   4.336   0.146  14.689  2.9119 -0.0914  0.4363
14406TIP3    H264710   4.344   0.272  14.606 -0.7046 -0.6996 -1.0147
14407TIP3   OH264711   0.109   2.471  14.787 -0.4132  0.0379 -0.6749
14407TIP3    H164712   0.090   2.378  14.797  0.8618 -0.2242 -0.4939
14407TIP3    H264713   0.189   2.484  14.838 -0.9838  1.3930 -0.0889
14408TIP3   OH264714   4.090   5.129   1.882 -0.5600  0.7893  0.0981
14408TIP3    H164715   4.030   5.114   1.955 -0.2800 -0.9148  0.0399
14408TIP3    H264716   4.137   5.045   1.872  0.1233  1.3019 -1.3817
14409TIP3   OH264717   4.764   6.666  13.325  0.6766 -0.6524  0.0506
14409TIP3    H164718   4.785   6.643  13.416 -1.9707 -0.6676  0.7697
14409TIP3    H264719   4.778   6.584  13.277 -0.8119 -1.5951  1.0868
14410TIP3   OH264720   3.915   2.012   2.239 -0.6286 -0.0863  0.3903
14410TIP3    H164721   3.856   2.058   2.299 -1.7673 -1.1313  0.1205
14410TIP3    H264722   3.856   1.972   2.175  0.5175  0.7062 -1.2460
14411TIP3   OH264723   5.270   4.439  15.537 -0.3477 -0.6294 -0.0714
14411TIP3    H164724   5.337   4.486  15.487 -0.1290  0.3579  1.1085
14411TIP3    H264725   5.200   4.424  15.474  0.0688  0.2561 -0.7727
14412TIP3   OH264726   0.103   1.476  16.139  0.6011 -0.3188 -0.1256
14412TIP3    H164727   0.025   1.421  16.130  0.7198 -0.5464  0.2532
14412TIP3    H264728   0.098   1.511  16.228  0.6572  0.0876 -0.2791
14413TIP3   OH264729   0.662   0.416   1.707  0.0419  0.1096 -0.1624
14413TIP3    H164730   0.670   0.505   1.741 -0.0967  0.3060 -0.6322
14413TIP3    H264731   0.752   0.385   1.698  0.0612 -0.3666  1.4461
14414TIP3   OH264732   1.068   2.102   4.695  0.1716 -0.1985 -0.0753
14414TIP3    H164733   1.100   2.190   4.709  3.4605 -1.5003  1.4882
14414TIP3    H264734   1.145   2.051   4.672 -1.4183 -2.8875  0.0847
14415TIP3   OH264735   4.007   4.318   5.182  0.3416 -0.7179  0.2970
14415TIP3    H164736   3.992   4.256   5.254  1.5400 -1.9195 -0.4470
14415TIP3    H264737   3.970   4.274   5.105 -2.6812  1.3528  0.3672
14416TIP3   OH264738   1.816   2.389   5.812 -0.3801  0.4152  0.3512
14416TIP3    H164739   1.902   2.407   5.850  0.3413 -0.2211 -0.9100
14416TIP3    H264740   1.772   2.474   5.811  0.9319  1.1154 -0.6473
14417TIP3   OH264741   3.300   5.959  11.993  0.0314  0.1361  0.0864
14417TIP3    H164742   3.329   5.984  12.081 -0.8405 -0.9115  0.7095
14417TIP3    H264743   3.213   5.923  12.007  0.2726 -0.9637 -1.0630
14418TIP3   OH264744   3.313   2.434  14.948 -0.4162 -0.4911  0.4278
14418TIP3    H164745   3.341   2.354  14.904  1.3761  0.4469 -0.2217
14418TIP3    H264746   3.326   2.503  14.883 -2.3170  0.3140  0.8350
14419TIP3   OH264747   2.414   3.953   0.230  0.2486 -0.0587  0.1768
14419TIP3    H164748   2.477   4.024   0.216 -1.2823  1.1609 -0.7391
14419TIP3    H264749   2.468   3.879   0.258  1.7080  2.0904  3.7665
14420TIP3   OH264750   1.542   3.486   0.020  0.4585  0.1392 -0.0018
14420TIP3    H164751   1.488   3.457   0.094  0.1634 -0.8663 -0.5986
14420TIP3    H264752   1.526   3.580   0.014 -0.1307  0.0899  0.7100
14421TIP3   OH264753   1.347   5.936  10.775 -0.3421  0.0951 -0.1914
14421TIP3    H164754   1.433   5.903  10.801 -0.4255 -0.2839 -0.3882
14421TIP3    H264755   1.336   6.017  10.824  0.5905  0.7124 -0.9816
14422TIP3   OH264756   3.466   3.236   1.558  0.5505 -0.3119  0.7149
14422TIP3    H164757   3.411   3.158   1.566  0.9208 -0.6825 -0.2206
14422TIP3    H264758   3.440   3.276   1.475 -0.8800  1.5705  1.9638
14423TIP3   OH264759   4.695   6.043  12.302 -0.3736  0.0537  0.2081
14423TIP3    H164760   4.625   5.987  12.269  0.8092 -1.7514  0.5865
14423TIP3    H264761   4.761   5.981  12.334  2.0454  1.6068 -1.4595
14424TIP3   OH264762   6.757   1.062  16.550  0.1232  0.5280 -0.0910
14424TIP3    H164763   6.677   1.062  16.498 -0.8582 -0.2382  1.3339
14424TIP3    H264764   6.744   1.130  16.616  0.0928 -0.4273  0.9167
14425TIP3   OH264765   0.875   1.020   2.942  0.2395  0.1653 -0.3719
14425TIP3    H164766   0.876   0.982   3.029 -2.3968 -1.2947 -0.8693
14425TIP3    H264767   0.796   0.984   2.901  0.8636  1.5502 -3.0249
14426TIP3   OH264768   3.683   2.380  15.134  0.2348 -0.3795 -0.3259
14426TIP3    H164769   3.722   2.420  15.056  0.1048  0.7897  0.1834
14426TIP3    H264770   3.719   2.431  15.207 -2.0425  0.6362  0.1789
14427TIP3   OH264771   3.912   2.702   1.237  0.1093  0.2070  0.4907
14427TIP3    H164772   3.968   2.759   1.290 -0.8102 -0.2125  1.9613
14427TIP3    H264773   3.868   2.763   1.177  1.2794  0.6680  0.0549
14428TIP3   OH264774   2.540   5.623  11.556 -0.1778  0.2922  0.1140
14428TIP3    H164775   2.505   5.710  11.540  0.5909  0.9502  1.7620
14428TIP3    H264776   2.618   5.638  11.610  0.1629 -1.3896  0.1457
14429TIP3   OH264777   2.422   5.243   0.074  0.2696  0.0755 -0.9597
14429TIP3    H164778   2.395   5.212   0.161  0.0164  0.3005 -0.9532
14429TIP3    H264779   2.340   5.269   0.032  0.3524 -0.3832 -1.4088
14430TIP3   OH264780   2.736   4.859  11.709 -0.0782  0.1029  0.2847
14430TIP3    H164781   2.649   4.828  11.683  0.5250 -0.5713 -1.0084
14430TIP3    H264782   2.756   4.929  11.646 -0.2393  1.2216  1.4300
14431TIP3   OH264783   6.146   5.453  10.987 -0.3872  0.1705 -0.4684
14431TIP3    H164784   6.222   5.495  11.029 -0.0747 -1.1389  0.3514
14431TIP3    H264785   6.185   5.389  10.927 -0.7989 -1.1719  0.6392
14432TIP3   OH264786   0.192   2.171  11.359  0.7049 -0.2952  0.5295
14432TIP3    H164787   0.206   2.263  11.337 -0.1994 -0.2859 -0.0869
14432TIP3    H264788   0.210   2.165  11.452  0.7510  0.5118  0.5768
14433TIP3   OH264789   6.040   6.119  14.160 -0.6531  0.2014 -0.2877
14433TIP3    H164790   6.059   6.056  14.091  0.5238  1.3613 -1.0551
14433TIP3    H264791   6.122   6.166  14.174 -0.5178 -0.6865  2.6648
14434TIP3   OH264792   4.255   2.429  11.108  0.2686 -0.7547 -0.1858
14434TIP3    H164793   4.252   2.469  11.021 -2.7710 -1.3541 -0.4562
14434TIP3    H264794   4.269   2.336  11.091  0.3086 -0.7831  0.0030
14435TIP3   OH264795   6.443   0.570  14.493 -0.2120 -0.1791  0.3926
14435TIP3    H164796   6.488   0.485  14.489 -1.5247 -0.9604  1.6279
14435TIP3    H264797   6.432   0.595  14.401  1.0728 -0.8500  0.0284
14436TIP3   OH264798   1.152   6.578   3.193  0.3672  0.0846 -0.3442
14436TIP3    H164799   1.235   6.568   3.240  1.2138  2.5444 -1.1930
14436TIP3    H264800   1.103   6.643   3.244 -2.2749 -3.0975  1.5978
14437TIP3   OH264801   2.812   0.616   2.752  0.1200 -0.0884 -0.4117
14437TIP3    H164802   2.763   0.550   2.800  0.6375  0.5717  1.0925
14437TIP3    H264803   2.882   0.567   2.708 -0.0533 -0.6482 -0.0717
14438TIP3   OH264804   1.920   0.704  16.483  0.2352  0.3405 -0.5444
14438TIP3    H164805   1.914   0.715  16.388 -1.3491  0.0053 -0.5055
14438TIP3    H264806   1.997   0.648  16.496  0.4792  0.4092 -1.6180
14439TIP3   OH264807   4.701   2.540   5.376  0.5713  0.5177  0.0458
14439TIP3    H164808   4.621   2.564   5.330  0.7713  1.3006  0.0912
14439TIP3    H264809   4.718   2.450   5.349 -0.8011  0.0197  0.7246
14440TIP3   OH264810   1.849   3.188   5.317 -0.0548  0.8017 -0.2860
14440TIP3    H164811   1.769   3.224   5.355 -0.2053  0.5500 -0.3637
14440TIP3    H264812   1.910   3.262   5.315  0.0102  0.7792  0.5803
14441TIP3   OH264813   5.041   4.759   4.276 -0.4110 -0.2437  0.1799
14441TIP3    H164814   4.984   4.757   4.199  2.2844  0.0110 -1.9874
14441TIP3    H264815   5.065   4.668   4.291 -0.3482 -0.2219  0.2143
14442TIP3   OH264816   0.752   4.158  15.114  0.0480  0.3433  0.0057
14442TIP3    H164817   0.818   4.161  15.044  0.7842  1.2493  0.7113
14442TIP3    H264818   0.776   4.081  15.166 -0.5183 -0.3513 -0.7270
14443TIP3   OH264819   0.103   6.068   4.951  0.5460  0.1744 -0.1935
14443TIP3    H164820   0.079   6.006   4.882  1.4164 -0.3696 -0.0176
14443TIP3    H264821   0.020   6.086   4.996  0.4217 -1.5704  0.3302
14444TIP3   OH264822   5.925   5.729   2.199  0.2375  0.5365  0.3113
14444TIP3    H164823   5.957   5.811   2.236 -1.0482  1.3207 -0.2785
14444TIP3    H264824   5.973   5.719   2.117 -0.8359  1.5834 -0.4545
14445TIP3   OH264825   4.148   1.138  12.371 -0.0639  0.1182  0.2642
14445TIP3    H164826   4.080   1.191  12.329 -1.6472 -1.3197  0.9069
14445TIP3    H264827   4.149   1.057  12.322  1.7219  0.3556 -0.1590
14446TIP3   OH264828   2.754   2.707  17.447  0.3343  0.3273  0.5357
14446TIP3    H164829   2.823   2.657  17.404  0.0685 -0.2190  0.7363
14446TIP3    H264830   2.766   2.691  17.540  0.6324  1.1519  0.6538
14447TIP3   OH264831   5.731   0.290   0.211 -0.1591 -0.3121 -0.1925
14447TIP3    H164832   5.664   0.288   0.143 -0.9703  0.6682  0.5530
14447TIP3    H264833   5.797   0.350   0.177 -0.0658 -0.5965 -0.5330
14448TIP3   OH264834   5.588   0.112  11.652 -0.1198 -0.0088 -0.0065
14448TIP3    H164835   5.542   0.054  11.713 -0.8094  0.9422  0.4048
14448TIP3    H264836   5.664   0.062  11.622 -0.5488 -1.0032  0.5593
14449TIP3   OH264837   1.170   2.549   5.315  0.4052  0.8704 -0.6337
14449TIP3    H164838   1.092   2.595   5.347 -0.4554  0.5865 -2.1712
14449TIP3    H264839   1.224   2.618   5.276  0.2957  0.9152 -0.7096
14450TIP3   OH264840   3.488   0.514  17.289  0.0600  0.0001  0.2215
14450TIP3    H164841   3.521   0.440  17.340 -1.5576 -0.0939  1.2244
14450TIP3    H264842   3.393   0.505  17.292 -0.1355  1.0628 -1.2732
14451TIP3   OH264843   0.963   3.230   4.670  0.1778 -0.0921 -0.0921
14451TIP3    H164844   0.911   3.210   4.747  1.4384  0.4567  0.9501
14451TIP3    H264845   0.994   3.320   4.684  0.3735  0.0495 -1.2756
14452TIP3   OH264846   6.369   5.115   5.247 -0.3809 -0.2076 -0.2233
14452TIP3    H164847   6.301   5.113   5.180 -0.2077  1.6942 -0.5036
14452TIP3    H264848   6.450   5.128   5.199 -0.0560 -0.4071  0.2620
14453TIP3   OH264849   2.193   2.377  11.959  0.4030 -0.0503  0.6622
14453TIP3    H164850   2.255   2.448  11.941  0.1175 -0.0730 -0.4972
14453TIP3    H264851   2.235   2.299  11.922  0.7572 -0.5267  2.0141
14454TIP3   OH264852   6.215   3.154  11.960 -0.1085  0.2948 -0.5827
14454TIP3    H164853   6.290   3.208  11.936 -0.9086  2.2013  0.9625
14454TIP3    H264854   6.253   3.073  11.995  1.2046  0.9028 -0.5711
14455TIP3   OH264855   3.568   6.355   1.416  0.2290  0.4710 -0.2044
14455TIP3    H164856   3.496   6.388   1.362 -1.6975  0.8723  2.3963
14455TIP3    H264857   3.530   6.280   1.462  1.2388  1.0547  1.6777
14456TIP3   OH264858   6.472   2.587   3.602 -0.2004  0.2150  0.1819
14456TIP3    H164859   6.426   2.530   3.540 -0.2901  0.8895 -0.3746
14456TIP3    H264860   6.562   2.589   3.569 -0.0033 -0.2485  0.6678
14457TIP3   OH264861   1.283   4.036   2.071  0.3412 -0.5028  0.0450
14457TIP3    H164862   1.333   4.103   2.118  0.4909 -0.5897  0.0104
14457TIP3    H264863   1.212   4.084   2.030 -0.6556 -0.6254  1.5473
14458TIP3   OH264864   3.917   1.991  14.613 -0.6714 -0.0356  0.6188
14458TIP3    H164865   3.893   1.972  14.703  0.5151  0.7274  1.1215
14458TIP3    H264866   3.892   2.082  14.600 -1.5124 -0.3560 -0.0663
14459TIP3   OH264867   4.903   4.576  13.816 -0.3937  0.0349  0.2101
14459TIP3    H164868   4.827   4.578  13.874 -0.7809  1.4173 -0.3088
14459TIP3    H264869   4.923   4.483  13.806 -3.3182 -0.5559 -1.2776
14460TIP3   OH264870   4.183   3.501   3.281  1.1778 -0.3635 -0.0056
14460TIP3    H164871   4.192   3.476   3.190 -0.4681  1.0175 -0.6098
14460TIP3    H264872   4.097   3.467   3.307  1.5591 -0.6079  0.9770
14461TIP3   OH264873   4.595   2.817  15.172  0.1999  0.2845 -0.4190
14461TIP3    H164874   4.690   2.812  15.167  0.1792 -0.8388 -0.0106
14461TIP3    H264875   4.571   2.883  15.107  1.1940 -0.0220 -1.1216
14462TIP3   OH264876   2.750   6.585  15.025  0.6024 -0.5890  0.1221
14462TIP3    H164877   2.800   6.662  14.997  0.5355 -0.3214  0.7085
14462TIP3    H264878   2.660   6.618  15.035  0.9911 -0.1140  2.7137
14463TIP3   OH264879   4.884   2.198  16.555  0.0054 -0.1593 -0.3237
14463TIP3    H164880   4.828   2.171  16.628  0.0731  1.3209  0.3241
14463TIP3    H264881   4.834   2.266  16.510  0.3069 -0.4917 -1.1706
14464TIP3   OH264882   3.827   2.158  16.221  0.5041 -0.3965 -0.0422
14464TIP3    H164883   3.817   2.134  16.313 -0.4211 -0.0355 -0.0368
14464TIP3    H264884   3.919   2.181  16.213  0.5380 -0.1407  0.8733
14465TIP3   OH264885   2.498   6.680  15.052 -0.1917  0.1534 -0.2458
14465TIP3    H164886   2.503   6.770  15.086 -0.3887  0.2962 -0.5915
14465TIP3    H264887   2.404   6.665  15.038 -0.1206  0.0528 -0.6176
14466TIP3   OH264888   0.489   4.854  15.173 -0.3786  0.8966 -0.1933
14466TIP3    H164889   0.497   4.870  15.267 -1.1784 -0.4928  0.1284
14466TIP3    H264890   0.486   4.942  15.135  0.9962  1.5003  0.9528
14467TIP3   OH264891   4.904   0.787  14.936  0.1145 -0.0710  0.6419
14467TIP3    H164892   4.808   0.791  14.935  0.0763 -0.7665 -0.0645
14467TIP3    H264893   4.932   0.866  14.889 -0.1635 -0.4982 -0.2748
14468TIP3   OH264894   1.066   0.151   4.966  0.1591  0.2927  0.1847
14468TIP3    H164895   1.080   0.059   4.985 -2.7990 -0.0718  0.9990
14468TIP3    H264896   1.014   0.151   4.885  2.0194  1.4008 -1.1027
14469TIP3   OH264897   0.026   6.537  15.193  0.5885  0.4111  0.3802
14469TIP3    H164898   0.078   6.580  15.125  0.1609 -1.5926 -1.3193
14469TIP3    H264899  -0.065   6.552  15.166  0.2886  1.8259  2.0057
14470TIP3   OH264900   0.992   6.681  11.276 -0.0337 -0.1327 -0.2001
14470TIP3    H164901   1.083   6.709  11.266  0.4130 -0.4114  2.3510
14470TIP3    H264902   0.994   6.586  11.261  0.1916 -0.2024  0.2472
14471TIP3   OH264903   3.679   6.417  17.305 -0.3437  0.2774  0.3415
14471TIP3    H164904   3.678   6.508  17.275 -2.9190  0.2718  0.2269
14471TIP3    H264905   3.644   6.420  17.394 -0.0117 -0.5516  0.5089
14472TIP3   OH264906   3.894   6.309   2.544  0.6893 -0.3993 -0.1770
14472TIP3    H164907   3.931   6.355   2.469 -0.6563  1.7814  0.4133
14472TIP3    H264908   3.926   6.358   2.620 -2.7809  1.2447  0.3847
14473TIP3   OH264909   0.225   5.111  17.005  0.1743  0.2160 -0.2859
14473TIP3    H164910   0.309   5.151  16.982 -0.0656  0.2570 -1.1438
14473TIP3    H264911   0.175   5.183  17.044  0.6980  0.0750  0.6660
14474TIP3   OH264912   2.652   2.731  11.163  0.5046  0.1614  0.0598
14474TIP3    H164913   2.615   2.668  11.101  0.5700  0.3925 -0.2178
14474TIP3    H264914   2.676   2.806  11.109  0.1395  0.5494  0.4298
14475TIP3   OH264915   0.878   4.643  12.527 -0.0514  0.4570 -0.0588
14475TIP3    H164916   0.879   4.685  12.614 -0.3535 -1.0570  0.7088
14475TIP3    H264917   0.798   4.590  12.527 -0.5764  1.1986 -1.6642
14476TIP3   OH264918   4.864   1.860  11.896 -0.6177 -0.0491 -0.6771
14476TIP3    H164919   4.923   1.933  11.879  0.2545 -0.7711 -0.8287
14476TIP3    H264920   4.918   1.782  11.882 -1.6424 -0.7280 -0.9345
14477TIP3   OH264921   5.769   3.797   2.202  0.3017  0.1280  0.1400
14477TIP3    H164922   5.714   3.864   2.161  1.6879  1.8754  0.9805
14477TIP3    H264923   5.826   3.846   2.261  1.6465 -1.7752  0.5172
14478TIP3   OH264924   3.314   2.341  13.941  0.5513 -0.0290 -0.0802
14478TIP3    H164925   3.395   2.346  13.990  0.5616  0.2494 -0.1247
14478TIP3    H264926   3.332   2.387  13.859 -0.1063  1.3926  0.5421
14479TIP3   OH264927   1.982   3.027  15.604 -0.2187 -0.6126  0.1730
14479TIP3    H164928   1.957   3.066  15.688 -1.3005 -1.3441  0.2231
14479TIP3    H264929   2.066   3.067  15.583 -0.0125 -0.2725  1.5125
14480TIP3   OH264930   0.035   5.932  14.962  0.2258  0.2649 -0.6792
14480TIP3    H164931  -0.037   5.993  14.951  1.2256  1.6895  0.2559
14480TIP3    H264932   0.100   5.959  14.897 -0.1418 -1.1495 -1.6719
14481TIP3   OH264933   2.094   1.923  10.942 -0.2510  0.0941  0.3039
14481TIP3    H164934   2.183   1.957  10.953  0.4048 -1.6508  0.8514
14481TIP3    H264935   2.095   1.883  10.855 -0.6450  0.4520  0.1326
14482TIP3   OH264936   0.570   1.383   4.353 -0.0509  0.1348  0.0297
14482TIP3    H164937   0.626   1.460   4.341  0.3798 -0.1830 -0.0239
14482TIP3    H264938   0.541   1.361   4.265 -0.5375  0.5024  0.0954
14483TIP3   OH264939   1.681   1.413  12.464  0.2535  0.5740  0.2210
14483TIP3    H164940   1.647   1.324  12.458  1.3816  0.1873 -1.0439
14483TIP3    H264941   1.616   1.467  12.421  0.3105  0.1240 -0.4394
14484TIP3   OH264942   4.637   0.961   0.346  0.6509  0.5261  0.1220
14484TIP3    H164943   4.605   0.880   0.386 -0.3703  0.8218 -0.0490
14484TIP3    H264944   4.656   0.937   0.255  0.7730  0.3756  0.1871
14485TIP3   OH264945   2.752   5.223  14.467  0.0050 -0.1259 -0.0406
14485TIP3    H164946   2.661   5.250  14.478 -0.2644 -1.4137  1.1617
14485TIP3    H264947   2.749   5.154  14.401  0.3620  0.9414 -1.2223
14486TIP3   OH264948   1.127   0.422  10.872 -0.4875 -0.5185 -0.5310
14486TIP3    H164949   1.162   0.504  10.906  0.0995 -0.5058 -1.1434
14486TIP3    H264950   1.205   0.369  10.854 -0.8360 -0.9432 -0.8024
14487TIP3   OH264951   4.808   1.149  15.980 -0.0617 -0.0214  0.4049
14487TIP3    H164952   4.811   1.226  15.923 -1.1021  2.3036  3.2011
14487TIP3    H264953   4.716   1.123  15.981  0.2714 -1.3218 -0.4624
14488TIP3   OH264954   3.771   6.373  16.927  0.2919  0.2737  0.2569
14488TIP3    H164955   3.806   6.310  16.989 -0.1493 -0.8798 -0.6214
14488TIP3    H264956   3.765   6.324  16.845  0.6237  1.6793 -0.6389
14489TIP3   OH264957   6.679   5.287   5.445 -0.5234 -0.0580  0.4062
14489TIP3    H164958   6.599   5.311   5.398 -0.5386  0.0319  0.4782
14489TIP3    H264959   6.689   5.193   5.428 -1.0852 -0.2462  1.0528
14490TIP3   OH264960   1.631   4.405   1.545  0.0745 -0.0283  0.3146
14490TIP3    H164961   1.666   4.466   1.480  1.2915 -1.8637 -0.8711
14490TIP3    H264962   1.650   4.445   1.629  0.0944  1.5794 -0.4233
14491TIP3   OH264963   2.992   5.018   5.376  0.1452  0.1829  0.9590
14491TIP3    H164964   3.050   5.089   5.350  0.1400 -0.4839 -1.0531
14491TIP3    H264965   2.905   5.047   5.349  0.3024 -1.0543 -1.1147
14492TIP3   OH264966   5.613   4.215   0.857  0.3350 -0.1552 -0.9511
14492TIP3    H164967   5.553   4.271   0.808 -1.3980 -0.0519  1.1782
14492TIP3    H264968   5.675   4.276   0.897 -0.1015  0.0460 -0.5709
14493TIP3   OH264969   4.355   0.914  16.550  0.7129 -0.6055 -0.0027
14493TIP3    H164970   4.363   0.837  16.493 -1.3500 -1.7165  1.0822
14493TIP3    H264971   4.405   0.982  16.505 -0.8916 -1.3491 -3.2385
14494TIP3   OH264972   4.517   4.588   3.223 -0.2547 -0.2330 -0.0751
14494TIP3    H164973   4.422   4.580   3.233 -0.1087 -1.1413  0.6977
14494TIP3    H264974   4.538   4.670   3.267 -0.6059 -0.3614  0.3463
14495TIP3   OH264975   5.157   0.794   4.024  0.4075  0.6134 -0.5040
14495TIP3    H164976   5.186   0.803   3.933  0.3083  1.0155 -0.4962
14495TIP3    H264977   5.235   0.811   4.076  0.3626  0.8297 -0.5050
14496TIP3   OH264978   2.266   3.038  14.057 -0.3913  0.3224  0.4446
14496TIP3    H164979   2.288   3.104  14.122  0.1650 -1.0189  1.6888
14496TIP3    H264980   2.313   2.959  14.086 -2.3297 -1.0843 -0.0127
14497TIP3   OH264981   1.179   5.431   6.527 -0.3115 -0.1437  0.4129
14497TIP3    H164982   1.095   5.402   6.565 -0.1150 -1.2644  0.0288
14497TIP3    H264983   1.236   5.444   6.603 -0.3179 -1.0807  0.5886
14498TIP3   OH264984   0.163   5.200   0.915  0.1211 -0.2027 -0.0648
14498TIP3    H164985   0.099   5.268   0.938  0.3851 -0.2786  0.9158
14498TIP3    H264986   0.192   5.165   0.999  0.1713 -1.3660 -0.5519
14499TIP3   OH264987   3.345   4.286   4.640 -0.3728 -0.5001 -0.0740
14499TIP3    H164988   3.414   4.228   4.672  1.7209  1.3460 -0.9479
14499TIP3    H264989   3.322   4.251   4.554  0.2447 -0.5585 -0.2245
14500TIP3   OH264990   2.715   5.814  10.687 -0.2955 -0.0815  0.1012
14500TIP3    H164991   2.806   5.829  10.713 -0.1317  1.0712 -1.0410
14500TIP3    H264992   2.664   5.870  10.746  0.0346  2.0923 -1.5430
14501TIP3   OH264993   1.042   2.441  10.833  0.2516 -0.2159 -0.3318
14501TIP3    H164994   1.082   2.372  10.887 -0.5829 -0.6072 -0.1916
14501TIP3    H264995   0.996   2.496  10.896 -0.0988 -0.2381 -0.5665
14502TIP3   OH264996   3.656   5.286   0.526  0.2539 -0.0026 -0.5771
14502TIP3    H164997   3.703   5.257   0.448  0.6435  2.6342 -1.4106
14502TIP3    H264998   3.721   5.282   0.596  0.3541 -0.8818 -0.7146
14503TIP3   OH264999   1.584   6.240   6.326  0.2549  0.7162  0.2935
14503TIP3    H165000   1.663   6.199   6.290 -0.7818 -0.7026 -0.4707
14503TIP3    H265001   1.532   6.167   6.358 -1.2999  1.5029 -0.3313
14504TIP3   OH265002   5.366   2.179  15.552  0.4956  0.1804  0.3287
14504TIP3    H165003   5.295   2.225  15.509 -1.2651  0.1866  3.0154
14504TIP3    H265004   5.339   2.087  15.550  2.0525 -0.3134 -1.4370
14505TIP3   OH265005   2.595   2.278  16.382 -0.3397 -0.7065 -0.3313
14505TIP3    H165006   2.557   2.212  16.439  1.5647 -1.6909 -0.0974
14505TIP3    H265007   2.520   2.322  16.342 -1.6834 -1.3959  1.3259
14506TIP3   OH265008   4.427   2.257  11.432 -0.3250 -0.3515  0.1378
14506TIP3    H165009   4.456   2.179  11.480 -1.6590  0.6462  2.7697
14506TIP3    H265010   4.348   2.229  11.387  0.5481 -1.1200 -0.9724
14507TIP3   OH265011   1.672   1.084   3.934  0.1186  0.2533 -0.1365
14507TIP3    H165012   1.681   1.112   3.843  0.7179  0.3661 -0.0470
14507TIP3    H265013   1.578   1.077   3.948  0.0300 -0.5296 -0.9994
14508TIP3   OH265014   4.441   3.319   2.389  0.1852 -0.0716  0.1989
14508TIP3    H165015   4.362   3.282   2.349  1.3512  1.1337 -3.5900
14508TIP3    H265016   4.409   3.391   2.443 -1.3661  0.2675 -1.1070
14509TIP3   OH265017   6.613   2.207  13.789  0.4214 -0.5267 -0.2266
14509TIP3    H165018   6.639   2.118  13.813  2.5143  0.4906  1.5817
14509TIP3    H265019   6.631   2.259  13.867 -0.4055  1.5739 -1.3619
14510TIP3   OH265020   2.016   5.295   4.646  0.2690 -0.3218  0.1617
14510TIP3    H165021   2.032   5.337   4.561 -0.4840 -0.6203 -0.1355
14510TIP3    H265022   1.996   5.204   4.624 -0.5267 -0.2611  0.6125
14511TIP3   OH265023   2.739   2.677   5.850 -0.1709  0.2312 -0.1514
14511TIP3    H165024   2.808   2.611   5.856 -0.2411  0.1160 -0.6011
14511TIP3    H265025   2.660   2.631   5.878 -0.6778 -0.5781 -2.6452
14512TIP3   OH265026   5.166   3.304  13.870 -1.0393  0.4153 -0.3039
14512TIP3    H165027   5.087   3.309  13.815 -1.9403  2.2189  1.0584
14512TIP3    H265028   5.133   3.281  13.957  0.3547 -2.2501 -0.3879
14513TIP3   OH265029   4.958   6.130  13.688 -0.1379 -0.5036 -0.7556
14513TIP3    H165030   5.049   6.110  13.663 -0.2289 -0.6568 -0.9692
14513TIP3    H265031   4.964   6.155  13.780  0.3099  0.7874 -1.1078
14514TIP3   OH265032   1.002   3.812   5.196  0.5558 -0.2598 -0.0649
14514TIP3    H165033   1.018   3.903   5.223 -3.2829 -0.0523  2.2205
14514TIP3    H265034   0.947   3.819   5.118 -0.0530 -0.6130  0.3322
14515TIP3   OH265035   2.630   6.748  15.388 -0.2088 -0.4191  0.2405
14515TIP3    H165036   2.707   6.758  15.443 -0.5515 -0.7141  0.7797
14515TIP3    H265037   2.660   6.773  15.301 -0.2083  2.1933  0.9265
14516TIP3   OH265038   3.977   2.199   6.217 -0.4034  0.2705 -0.1040
14516TIP3    H165039   4.022   2.252   6.283 -0.3530 -0.1147  0.1766
14516TIP3    H265040   3.913   2.258   6.178 -1.6248  0.0646  1.4686
14517TIP3   OH265041   6.150   4.438   3.925 -0.4876 -0.4162  0.0094
14517TIP3    H165042   6.235   4.445   3.881  0.0982 -0.9416  1.0232
14517TIP3    H265043   6.163   4.372   3.992 -1.5412 -0.0840  0.5650
14518TIP3   OH265044   4.099   4.595   6.931 -0.2177  0.7638 -0.1655
14518TIP3    H165045   4.184   4.631   6.955 -0.6300  3.1034 -1.9293
14518TIP3    H265046   4.074   4.539   7.005  1.8187  1.8015  1.3665
14519TIP3   OH265047   1.338   2.224   0.201  0.5771 -0.5530  0.1221
14519TIP3    H165048   1.387   2.307   0.207  0.0724 -0.3267  1.5260
14519TIP3    H265049   1.247   2.250   0.186  0.6829 -0.9454 -1.4288
14520TIP3   OH265050   1.302   4.599  12.272  0.1166  0.2859 -0.1123
14520TIP3    H165051   1.307   4.537  12.199 -0.2446 -2.5724  2.0867
14520TIP3    H265052   1.209   4.621  12.278 -0.3892 -1.8553  1.1622
14521TIP3   OH265053   0.153   6.002   2.190  0.0182  0.0509  0.1537
14521TIP3    H165054   0.177   5.910   2.176 -0.8849 -0.2028  0.2073
14521TIP3    H265055   0.188   6.023   2.276 -0.6349 -0.5518  0.5760
14522TIP3   OH265056   5.681   1.854  10.729 -0.1405  0.7783  0.0227
14522TIP3    H165057   5.687   1.786  10.663  0.0852  0.9399 -0.1259
14522TIP3    H265058   5.595   1.842  10.769 -0.5067  1.0200 -0.6745
14523TIP3   OH265059   4.110   3.417   2.129  0.3262 -0.2595 -0.0967
14523TIP3    H165060   4.032   3.366   2.107  0.6719 -0.7655 -0.1545
14523TIP3    H265061   4.176   3.352   2.154  0.7457  0.1602 -0.0867
14524TIP3   OH265062   5.082   5.266  12.934 -0.2607 -0.7430  0.6457
14524TIP3    H165063   5.121   5.193  12.983 -0.5333 -1.1085  0.3266
14524TIP3    H265064   5.102   5.344  12.987  1.6872 -0.7887  0.0522
14525TIP3   OH265065   5.740   0.813  14.314 -0.2674  0.2131 -0.0673
14525TIP3    H165066   5.716   0.766  14.394 -2.5708  0.3311 -0.6159
14525TIP3    H265067   5.679   0.781  14.248  1.1305  0.6327 -1.6395
14526TIP3   OH265068   3.026   1.085   5.592  0.0206  0.1280  0.2153
14526TIP3    H165069   3.024   0.991   5.573 -0.6264 -0.1081  1.3901
14526TIP3    H265070   3.068   1.124   5.515  0.5276 -1.1443 -0.1756
14527TIP3   OH265071   5.841   5.900   1.418 -0.1651  0.0690  0.4801
14527TIP3    H165072   5.917   5.933   1.465  0.3389  0.6301 -0.6791
14527TIP3    H265073   5.878   5.850   1.345 -0.9203 -0.6842  0.5959
14528TIP3   OH265074   2.252   2.774  16.499 -0.5993  0.0338 -0.2568
14528TIP3    H165075   2.194   2.790  16.573 -0.4286 -0.5047  0.0019
14528TIP3    H265076   2.221   2.692  16.461  0.7179 -0.9204  0.6325
14529TIP3   OH265077   4.165   6.307   3.880  0.1706 -0.1137  0.3166
14529TIP3    H165078   4.249   6.351   3.863  0.4982 -0.5584  0.7432
14529TIP3    H265079   4.105   6.344   3.816 -0.0069  2.1882  1.6880
14530TIP3   OH265080   1.305   2.093   0.699 -0.3939  0.6847  0.4676
14530TIP3    H165081   1.241   2.036   0.656  0.5101 -0.8452  1.0695
14530TIP3    H265082   1.350   2.036   0.761 -2.8297  3.0664  4.8889
14531TIP3   OH265083   4.566   5.811  13.480  0.1514 -0.1203 -0.3341
14531TIP3    H165084   4.482   5.831  13.522  0.6291 -0.4837  0.8536
14531TIP3    H265085   4.624   5.882  13.509  1.1764 -1.7269  1.8298
14532TIP3   OH265086   1.006   0.488  13.143  0.5128 -0.4174  0.1449
14532TIP3    H165087   1.047   0.403  13.127 -3.7493 -2.6236 -0.5221
14532TIP3    H265088   0.969   0.480  13.231  0.7394  1.1561  0.4163
14533TIP3   OH265089   0.815   6.343  14.914 -0.3563 -0.0679  0.6739
14533TIP3    H165090   0.859   6.269  14.871  2.0754  0.0081  2.8053
14533TIP3    H265091   0.839   6.419  14.861 -1.8279 -0.5507 -0.7972
14534TIP3   OH265092   3.893   2.003   5.447  0.2355  0.1085  0.5020
14534TIP3    H165093   3.828   1.953   5.398  1.7037  0.2967 -1.7724
14534TIP3    H265094   3.873   2.095   5.427 -0.1321  0.2879  1.6088
14535TIP3   OH265095   3.948   2.885   0.391  0.3555 -0.0823  0.3609
14535TIP3    H165096   4.001   2.896   0.312  1.7035  2.3228  1.5094
14535TIP3    H265097   3.932   2.974   0.422 -1.3775 -0.9128  2.0258
14536TIP3   OH265098   0.873   4.656  15.283 -0.9444  0.1437 -0.4298
14536TIP3    H165099   0.945   4.606  15.244 -1.4961 -0.7853 -0.2661
14536TIP3    H265100   0.868   4.735  15.230  0.7619  0.6430  0.0797
14537TIP3   OH265101   5.200   0.901   5.729 -0.7058 -0.2135 -0.0017
14537TIP3    H165102   5.266   0.963   5.696 -2.5848  1.4198 -0.8671
14537TIP3    H265103   5.229   0.816   5.696  0.0742  0.6979 -1.8416
14538TIP3   OH265104   1.508   2.318  16.569  0.0648 -0.1279  0.0392
14538TIP3    H165105   1.547   2.231  16.582  1.4251  0.3573 -0.5577
14538TIP3    H265106   1.413   2.303  16.573  0.1857 -1.9983 -1.9824
14539TIP3   OH265107   0.109   1.648  14.717  0.3797 -0.0709 -0.2114
14539TIP3    H165108   0.087   1.695  14.799 -0.0226  0.6622 -0.7233
14539TIP3    H265109   0.024   1.626  14.679  0.5518 -2.0732  0.4689
14540TIP3   OH265110   4.324   5.640  14.509 -0.1429 -0.4537  0.2109
14540TIP3    H165111   4.340   5.562  14.561 -0.8421  0.3453  1.6815
14540TIP3    H265112   4.279   5.700  14.568 -0.1488  0.8502 -1.0500
14541TIP3   OH265113   0.775   5.271   4.504  0.1453  0.0344 -0.0870
14541TIP3    H165114   0.785   5.176   4.502  0.6903  0.0253  1.5426
14541TIP3    H265115   0.856   5.303   4.544  0.8937  1.3831 -2.5312
14542TIP3   OH265116   0.420   5.379  15.591  0.1039  0.2098  0.0705
14542TIP3    H165117   0.364   5.418  15.659 -3.6070 -1.9509 -1.4440
14542TIP3    H265118   0.427   5.287  15.617  0.2919 -0.2196 -1.4327
14543TIP3   OH265119   1.810   6.297  12.441  0.5688  0.5954 -0.0002
14543TIP3    H165120   1.851   6.369  12.489  0.2064  0.7453  0.0844
14543TIP3    H265121   1.826   6.220  12.496  0.3438  0.7305  0.2592
14544TIP3   OH265122   4.239   5.427  14.671  0.3004 -0.3448  0.1992
14544TIP3    H165123   4.193   5.379  14.602  1.0003  0.4980 -0.8953
14544TIP3    H265124   4.172   5.441  14.738 -0.6226 -0.5028 -0.6572
14545TIP3   OH265125   5.381   4.584   6.102 -0.2503  0.3471 -0.0030
14545TIP3    H165126   5.305   4.642   6.106 -0.5100  0.5234 -3.9587
14545TIP3    H265127   5.362   4.524   6.029  3.5763  0.7698 -1.5785
14546TIP3   OH265128   4.966   4.827  15.843  0.2959  0.4591  0.6076
14546TIP3    H165129   5.060   4.829  15.861  0.2201  0.5349  1.0205
14546TIP3    H265130   4.953   4.891  15.774  0.7800 -0.7309 -0.6284
14547TIP3   OH265131   4.998   1.970   5.988 -0.3620 -0.6216 -0.1480
14547TIP3    H165132   4.910   1.956   5.953 -0.0057  0.2945 -1.4905
14547TIP3    H265133   4.984   2.003   6.076 -1.3371 -1.2057 -0.0758
14548TIP3   OH265134   5.336   3.630  11.503  0.3367 -0.4855  0.5276
14548TIP3    H165135   5.396   3.561  11.531  0.0521 -0.9425  0.0383
14548TIP3    H265136   5.278   3.587  11.440 -0.7905 -0.1711  1.3264
14549TIP3   OH265137   1.093   6.765  15.245  0.3568  0.2448 -0.1258
14549TIP3    H165138   1.090   6.845  15.298 -0.2086 -0.4738  0.9715
14549TIP3    H265139   1.039   6.702  15.294 -0.5811 -0.3163 -1.7856
14550TIP3   OH265140   6.658   0.272   5.496 -0.2384 -0.0184 -0.0847
14550TIP3    H165141   6.727   0.301   5.436  0.2056  0.7726  0.7889
14550TIP3    H265142   6.670   0.325   5.574 -0.1377 -1.7443  1.1376
14551TIP3   OH265143   3.603   2.611  12.946  0.3306 -0.5560  0.4048
14551TIP3    H165144   3.636   2.681  12.890  0.1887  0.6604  1.7916
14551TIP3    H265145   3.643   2.532  12.912  0.0200  0.0951 -1.5918
14552TIP3   OH265146   4.200   3.578   5.319  0.1003  0.3143  0.1614
14552TIP3    H165147   4.295   3.566   5.326  0.0440 -0.2730 -0.0372
14552TIP3    H265148   4.176   3.629   5.396  0.8597  2.2043 -0.7982
14553TIP3   OH265149   0.741   1.780  16.807  0.4173 -0.7671  0.5703
14553TIP3    H165150   0.650   1.754  16.795  0.4233 -0.7376  0.4607
14553TIP3    H265151   0.788   1.734  16.738  0.4181 -0.4003  0.3241
14554TIP3   OH265152   2.101   4.275  14.036 -0.7646  0.6626 -0.5214
14554TIP3    H165153   2.101   4.361  13.994  1.1376  1.3137  0.7225
14554TIP3    H265154   2.009   4.249  14.036 -1.3337  2.4929 -1.2886
14555TIP3   OH265155   6.230   1.927   2.435  0.3791 -0.0384 -0.6404
14555TIP3    H165156   6.141   1.957   2.418 -0.4730 -0.5593  2.3604
14555TIP3    H265157   6.244   1.855   2.374 -1.0430  0.3555 -1.4743
14556TIP3   OH265158   5.785   4.331   4.161  0.3173  0.4573 -0.1867
14556TIP3    H165159   5.773   4.416   4.118  0.5640  1.0111  0.7951
14556TIP3    H265160   5.808   4.354   4.251  1.0364 -0.6610 -0.0778
14557TIP3   OH265161   5.908   6.331   6.328  0.7641  0.2679  0.0064
14557TIP3    H165162   5.865   6.416   6.332 -1.7211 -0.7333 -2.3083
14557TIP3    H265163   5.859   6.277   6.390  0.2093 -0.2647 -0.8793
14558TIP3   OH265164   6.603   0.690   1.104 -0.5981 -0.2104 -0.2002
14558TIP3    H165165   6.509   0.681   1.090 -0.3393 -1.6711 -1.1411
14558TIP3    H265166   6.612   0.702   1.199 -1.7669  0.6520 -0.1853
14559TIP3   OH265167   4.759   0.677   0.417  0.3804 -0.3202 -0.2112
14559TIP3    H165168   4.729   0.693   0.506 -0.8664  1.0521 -0.8334
14559TIP3    H265169   4.682   0.644   0.371  0.8506 -0.4437 -0.9390
14560TIP3   OH265170   4.239   2.396   5.838  0.6036 -0.2193  0.3342
14560TIP3    H165171   4.258   2.452   5.913 -0.9674 -0.2365  0.7729
14560TIP3    H265172   4.272   2.310   5.865  1.2277  0.0511  0.4611
14561TIP3   OH265173   2.279   3.956   3.395  0.4907 -0.7342  0.4428
14561TIP3    H165174   2.211   4.012   3.359  0.3552 -0.7621  0.6573
14561TIP3    H265175   2.294   3.890   3.326 -1.1730 -1.9796  1.2139
14562TIP3   OH265176   6.698   3.308  10.881  0.6740 -0.1859  0.0881
14562TIP3    H165177   6.741   3.232  10.842 -1.3497 -0.8804 -0.9641
14562TIP3    H265178   6.609   3.277  10.900 -0.0839  1.8055 -0.0197
14563TIP3   OH265179   6.731   0.622  13.290  0.6865 -0.2315 -0.0520
14563TIP3    H165180   6.801   0.681  13.262  0.2435 -0.0156 -0.7336
14563TIP3    H265181   6.734   0.550  13.227 -0.3239  0.2629 -0.7085
14564TIP3   OH265182   5.862   1.194  11.635 -0.2499  0.3030 -0.2015
14564TIP3    H165183   5.796   1.262  11.621 -1.0351  0.0478  1.8979
14564TIP3    H265184   5.943   1.243  11.652 -0.0524  0.6297 -1.9331
14565TIP3   OH265185   5.437   1.925   3.013 -0.1920  0.1531 -0.0533
14565TIP3    H165186   5.514   1.958   3.061  0.7094 -1.7115 -0.1477
14565TIP3    H265187   5.363   1.967   3.056  0.7581  0.5324  1.2995
14566TIP3   OH265188   5.243   0.209  11.391 -0.0448 -0.0778  0.3667
14566TIP3    H165189   5.190   0.271  11.341 -0.8800 -1.9558 -1.1712
14566TIP3    H265190   5.203   0.124  11.375  1.3027 -1.1108  2.0984
14567TIP3   OH265191   1.710   4.628  15.871  0.2365 -0.3494  0.0574
14567TIP3    H165192   1.615   4.631  15.872  0.2258  3.1237  0.3647
14567TIP3    H265193   1.731   4.537  15.850 -3.0973 -1.4032  0.7460
14568TIP3   OH265194   2.581   4.323  15.063  0.6502  0.9554  0.3620
14568TIP3    H165195   2.601   4.405  15.108  1.3921  2.3118 -2.2105
14568TIP3    H265196   2.497   4.339  15.020 -0.3630 -0.5344  1.6824
14569TIP3   OH265197   1.501   5.342   3.120  0.3516  0.0769  0.5052
14569TIP3    H165198   1.528   5.432   3.099 -1.2174  0.4399 -0.1090
14569TIP3    H265199   1.551   5.288   3.059  0.4513  0.6316  0.0818
14570TIP3   OH265200   1.169   1.510   3.840  0.3873  0.4252 -0.4475
14570TIP3    H165201   1.130   1.516   3.753  0.0073 -1.4131 -0.4504
14570TIP3    H265202   1.098   1.480   3.896  1.5572 -2.6046 -0.3724
14571TIP3   OH265203   3.471   3.684  16.897  0.1980  0.5402  0.0793
14571TIP3    H165204   3.443   3.648  16.813  0.4774  0.2546  0.1067
14571TIP3    H265205   3.563   3.658  16.905 -0.5655 -1.9603  1.7912
14572TIP3   OH265206   3.050   6.533  12.706 -0.2063 -0.1603  0.3783
14572TIP3    H165207   3.047   6.453  12.758 -0.2595  0.2138  0.9605
14572TIP3    H265208   3.022   6.506  12.618  0.7238 -0.9666  0.3153
14573TIP3   OH265209   0.400   6.003   3.647 -0.6267  0.5580  0.0660
14573TIP3    H165210   0.416   5.983   3.555 -1.1600  1.8395 -0.3380
14573TIP3    H265211   0.478   5.972   3.692  0.8049  2.1222 -1.1607
14574TIP3   OH265212   2.861   5.320   3.004  0.0668 -0.1349 -0.0350
14574TIP3    H165213   2.871   5.405   2.962 -1.8419  2.0648  3.5289
14574TIP3    H265214   2.944   5.306   3.050  0.3427 -0.2008 -0.5394
14575TIP3   OH265215   2.515   0.082   3.855  0.1590  0.0670 -0.0439
14575TIP3    H165216   2.534   0.146   3.785  0.2703  0.8326  0.6695
14575TIP3    H265217   2.448   0.124   3.909  0.3321 -0.3620  0.5157
14576TIP3   OH265218   5.166   0.051  16.272 -0.4684  0.6767 -0.0796
14576TIP3    H165219   5.216   0.132  16.258 -0.7482  1.0502  1.0049
14576TIP3    H265220   5.081   0.068  16.232 -0.6126  1.0263  0.3588
14577TIP3   OH265221   2.611   2.451  12.178  0.3743  0.0449 -0.6880
14577TIP3    H165222   2.562   2.380  12.137 -0.1478  1.0469 -1.8579
14577TIP3    H265223   2.703   2.430  12.159  0.2314 -0.3453 -0.9797
14578TIP3   OH265224   5.748   1.008  12.808  0.0208 -0.2101 -0.1264
14578TIP3    H165225   5.801   0.990  12.886  0.4708  1.1780 -0.0839
14578TIP3    H265226   5.804   1.061  12.752 -0.1257 -1.6153 -1.6554
14579TIP3   OH265227   5.385   1.790  14.077  0.1074  0.0438  0.5694
14579TIP3    H165228   5.480   1.793  14.089  0.3735 -0.6148 -1.0748
14579TIP3    H265229   5.370   1.839  13.996 -0.9517  0.0452  0.7542
14580TIP3   OH265230   2.995   0.728   1.799  0.2036 -0.1364  0.2828
14580TIP3    H165231   3.082   0.760   1.825 -0.9385  1.4006  2.5278
14580TIP3    H265232   2.953   0.803   1.758 -0.7150 -0.2725  0.9415
14581TIP3   OH265233   5.892   4.346  13.736  0.3384 -0.1136 -0.1996
14581TIP3    H165234   5.865   4.415  13.676  0.6984  1.6859  1.5602
14581TIP3    H265235   5.846   4.366  13.818  2.9571  0.0609  1.3666
14582TIP3   OH265236   5.569   2.513   4.797  0.6763 -0.1984 -0.5441
14582TIP3    H165237   5.551   2.607   4.795 -0.5441 -0.3915  0.6895
14582TIP3    H265238   5.568   2.489   4.889  3.9083 -0.9230 -0.5538
14583TIP3   OH265239   3.895   4.870   3.868  0.1199 -0.3745  0.0509
14583TIP3    H165240   3.963   4.935   3.850  0.8561 -1.1912 -0.1850
14583TIP3    H265241   3.825   4.891   3.806  0.3866  0.1403 -0.0794
14584TIP3   OH265242   3.660   0.136   0.385  0.1236  0.0723 -0.2932
14584TIP3    H165243   3.622   0.061   0.431 -1.7893  0.2677 -1.4108
14584TIP3    H265244   3.717   0.177   0.449 -0.7848 -0.8742  1.1928
14585TIP3   OH265245   1.445   4.493  16.254  0.6490  0.2128 -0.0927
14585TIP3    H165246   1.373   4.471  16.313  1.2416 -1.8813 -0.0606
14585TIP3    H265247   1.438   4.430  16.183  1.4790  1.0447 -0.9342
14586TIP3   OH265248   4.094   3.008  13.762 -0.0674 -0.9747  0.2951
14586TIP3    H165249   4.011   3.055  13.758  0.6569  0.3124 -0.2159
14586TIP3    H265250   4.080   2.939  13.827 -1.0905  0.1140  1.2719
14587TIP3   OH265251   1.614   3.580  17.125  0.1785  0.1325  0.5384
14587TIP3    H165252   1.668   3.659  17.120  0.3968  0.0520  1.4249
14587TIP3    H265253   1.653   3.529  17.196  0.1667 -0.8709 -0.1641
14588TIP3   OH265254   2.976   2.325  14.483 -0.1703  0.4352 -0.2173
14588TIP3    H165255   3.051   2.385  14.479 -0.4349  0.8306  0.4291
14588TIP3    H265256   2.992   2.274  14.563  0.3784 -0.8246 -1.0889
14589TIP3   OH265257   1.616   5.980  11.576  0.8265  0.3931  0.2309
14589TIP3    H165258   1.588   5.984  11.667  2.5472  0.0669  0.8115
14589TIP3    H265259   1.596   5.891  11.548  0.3553  0.4739  0.3024
14590TIP3   OH265260   1.767   2.154   2.946 -0.2285  0.3930  0.4380
14590TIP3    H165261   1.692   2.103   2.974  0.5019 -1.7509 -1.2311
14590TIP3    H265262   1.842   2.116   2.993  0.2366  0.3856 -0.2904
14591TIP3   OH265263   4.998   4.067  14.692 -0.6374  0.2122 -0.2781
14591TIP3    H165264   5.045   4.126  14.751 -1.6494  0.4324  0.3237
14591TIP3    H265265   5.062   4.045  14.625 -0.5361  2.9647 -1.2177
14592TIP3   OH265266   1.336   2.076   4.635  0.6624  0.5839 -0.0084
14592TIP3    H165267   1.332   2.010   4.565  0.2988 -0.4584  0.9622
14592TIP3    H265268   1.428   2.099   4.641  0.4600  2.3607 -2.3064
14593TIP3   OH265269   1.853   1.641  12.690 -0.3019 -0.1376 -0.0135
14593TIP3    H165270   1.947   1.638  12.674  0.0531  1.6892  1.4167
14593TIP3    H265271   1.815   1.646  12.602  0.8018 -2.1584 -0.6797
14594TIP3   OH265272   3.671   1.175   5.656 -0.0896  0.1431  0.5655
14594TIP3    H165273   3.582   1.188   5.689 -0.2136  2.3464 -0.4807
14594TIP3    H265274   3.668   1.090   5.612 -2.2290  0.9943 -1.0865
14595TIP3   OH265275   6.251   1.050   5.835  0.4023 -0.6273  0.1514
14595TIP3    H165276   6.187   1.063   5.765 -1.7376  1.5973  2.3568
14595TIP3    H265277   6.271   0.956   5.831 -1.0426 -0.9194 -2.2184
14596TIP3   OH265278   0.469   4.225   2.054  0.1670 -0.4360 -0.4706
14596TIP3    H165279   0.463   4.321   2.059 -2.6088 -0.5865  1.3255
14596TIP3    H265280   0.545   4.209   1.999  2.3208  2.7933  1.2327
14597TIP3   OH265281   0.736   3.328   1.175  0.2129  0.4378 -0.3236
14597TIP3    H165282   0.806   3.283   1.221  0.6552  2.2653  0.8906
14597TIP3    H265283   0.750   3.421   1.194 -2.1947  0.9147 -0.4971
14598TIP3   OH265284   3.692   4.470  10.860 -0.2436  0.0593  0.0195
14598TIP3    H165285   3.757   4.406  10.833  0.9173  1.2408 -0.0879
14598TIP3    H265286   3.611   4.441  10.819  0.1994 -1.4382  0.1490
14599TIP3   OH265287   1.129   6.107   0.062  0.2936  0.2888 -0.0677
14599TIP3    H165288   1.070   6.148   0.125  0.1628 -1.4541  1.0246
14599TIP3    H265289   1.216   6.117   0.101  0.1794 -1.0619  0.5864
14600TIP3   OH265290   4.261   3.773  13.274  0.1315  0.5622 -0.5372
14600TIP3    H165291   4.294   3.771  13.364  0.7380 -0.8351 -0.7696
14600TIP3    H265292   4.239   3.865  13.259 -0.3503  0.7658  1.1627
14601TIP3   OH265293   3.545   3.350  15.688 -0.4357 -0.0931  0.0223
14601TIP3    H165294   3.555   3.315  15.599 -1.4725 -0.5201  0.0684
14601TIP3    H265295   3.541   3.445  15.677  1.4204  0.0012 -0.1907
14602TIP3   OH265296   4.040   1.309   0.420 -0.0543 -0.6223 -0.0487
14602TIP3    H165297   4.111   1.358   0.379 -2.1657  1.5072 -1.3898
14602TIP3    H265298   4.083   1.234   0.461  3.0196  0.9432 -0.1605
14603TIP3   OH265299   3.503   6.763   2.423 -0.3430 -0.0833 -0.0709
14603TIP3    H165300   3.591   6.797   2.404 -0.9876  0.5564 -2.2046
14603TIP3    H265301   3.515   6.668   2.428  0.3576 -0.0721 -1.2185
14604TIP3   OH265302   5.341   1.381  16.994 -0.0378  0.6407 -0.2350
14604TIP3    H165303   5.320   1.474  17.002 -0.6283  0.6660 -1.7902
14604TIP3    H265304   5.420   1.370  17.045  0.4395  2.1557 -0.5983
14605TIP3   OH265305   4.457   4.050  11.989 -0.5869 -0.3373 -0.6060
14605TIP3    H165306   4.376   4.010  11.959 -0.4473 -0.9611 -0.1825
14605TIP3    H265307   4.526   3.997  11.948 -0.3999 -0.5915  0.0175
14606TIP3   OH265308   4.688   4.736   5.800 -0.1288 -0.1869  0.4695
14606TIP3    H165309   4.596   4.716   5.784 -0.5806  0.6999  1.7136
14606TIP3    H265310   4.693   4.832   5.795  0.9857 -0.2898 -0.7802
14607TIP3   OH265311   1.315   2.297   3.618 -0.0329  0.7228  0.2580
14607TIP3    H165312   1.395   2.260   3.656 -0.0816  0.8849  0.5264
14607TIP3    H265313   1.294   2.240   3.545  0.5114  0.8698 -0.0150
14608TIP3   OH265314   0.926   2.233   2.882 -0.3867  0.3864 -0.2055
14608TIP3    H165315   0.940   2.142   2.908  0.4645  0.2896 -0.9444
14608TIP3    H265316   1.010   2.275   2.898 -1.2264  1.4765  1.7297
14609TIP3   OH265317   6.017   3.044  13.977 -0.1951  0.0317 -0.5907
14609TIP3    H165318   6.020   2.994  13.896 -1.0010  0.1814 -0.7118
14609TIP3    H265319   6.100   3.092  13.978  0.2030 -0.6189 -0.8979
14610TIP3   OH265320   0.405   2.749   4.518  0.2638  0.2313 -0.2767
14610TIP3    H165321   0.488   2.782   4.552 -0.3437  1.5926 -0.0443
14610TIP3    H265322   0.411   2.762   4.423  1.1405 -1.6682 -0.5243
14611TIP3   OH265323   1.483   2.652   5.747 -0.0030  0.1280  0.3632
14611TIP3    H165324   1.457   2.643   5.656  0.2717 -2.2310  0.4743
14611TIP3    H265325   1.576   2.671   5.744  0.2896 -1.2331  0.1376
14612TIP3   OH265326   3.471   1.992  11.386 -0.1866  0.6337 -0.5570
14612TIP3    H165327   3.563   1.965  11.382 -0.1532  0.7273 -0.4385
14612TIP3    H265328   3.444   1.998  11.295 -0.9033 -2.1890 -0.6101
14613TIP3   OH265329   1.212   3.006   4.915  0.1071  0.4051  0.0086
14613TIP3    H165330   1.164   3.079   4.954  0.3800  0.4390  0.2778
14613TIP3    H265331   1.294   3.002   4.963 -0.2873 -0.6770  0.6395
14614TIP3   OH265332   4.300   2.781  14.281  0.2556  0.0606  0.0971
14614TIP3    H165333   4.317   2.799  14.373  2.4808 -0.1454 -0.2373
14614TIP3    H265334   4.333   2.693  14.266  0.4364  0.2981 -1.0224
14615TIP3   OH265335   3.701   6.721  17.336  0.4932  0.4220  0.8056
14615TIP3    H165336   3.755   6.771  17.398 -0.4838  1.4220  0.8868
14615TIP3    H265337   3.646   6.787  17.294  2.0010 -0.0403 -2.1199
14616TIP3   OH265338   3.994   0.980  11.867 -0.2310 -0.3743  0.2196
14616TIP3    H165339   4.040   0.953  11.946 -0.3368 -1.0212  0.0631
14616TIP3    H265340   4.061   0.981  11.799 -0.0184  0.7489  0.4295
14617TIP3   OH265341   4.932   3.425  14.911  0.1740  0.3134 -0.0431
14617TIP3    H165342   4.916   3.430  15.006  0.6267  2.2524 -0.0169
14617TIP3    H265343   4.886   3.501  14.875  0.4910 -0.0693 -1.3111
14618TIP3   OH265344   3.092   5.689   1.109 -0.0362  0.6185 -0.0121
14618TIP3    H165345   3.120   5.599   1.089 -0.0248  0.4079  0.9160
14618TIP3    H265346   2.997   5.683   1.117 -0.1528  0.9112 -1.0053
14619TIP3   OH265347   2.585   3.523  16.031  0.4540  0.5935 -0.2144
14619TIP3    H165348   2.531   3.447  16.052  1.4738  0.0839  0.6089
14619TIP3    H265349   2.615   3.507  15.941 -2.7499  2.0965 -1.7412
14620TIP3   OH265350   1.532   4.923   3.748  0.3551  0.1949 -0.0029
14620TIP3    H165351   1.561   4.913   3.838  0.6973  2.4661  0.1975
14620TIP3    H265352   1.604   4.887   3.695  0.6183 -0.1581  0.5856
14621TIP3   OH265353   0.814   6.112   4.209 -0.1923  0.7281 -0.3636
14621TIP3    H165354   0.842   6.197   4.243  1.7756  0.1218 -0.3483
14621TIP3    H265355   0.830   6.118   4.114 -0.3337  0.4777 -0.4050
14622TIP3   OH265356   4.446   3.601  16.879 -0.0043  0.3952  0.0389
14622TIP3    H165357   4.460   3.638  16.966  0.1937 -0.4671  0.3754
14622TIP3    H265358   4.391   3.666  16.834 -1.9833 -0.1510  1.5465
14623TIP3   OH265359   5.082   3.281  14.135  0.7573 -0.2436  0.3771
14623TIP3    H165360   5.010   3.219  14.142  1.1767 -0.7058  0.6822
14623TIP3    H265361   5.094   3.315  14.223  0.4918  0.3172  0.2007
14624TIP3   OH265362   2.933   4.228  16.782  0.3323 -0.6460 -0.1090
14624TIP3    H165363   2.994   4.297  16.810  0.2011 -0.5969  0.0561
14624TIP3    H265364   2.923   4.173  16.859  0.9385 -1.2227 -0.4262
14625TIP3   OH265365   2.133   2.006   1.361  0.6528 -0.0281  0.2239
14625TIP3    H165366   2.211   2.051   1.391  0.6163  0.2478 -0.0947
14625TIP3    H265367   2.121   2.034   1.270  0.1208  0.0268  0.3049
14626TIP3   OH265368   0.298   4.925   0.848  0.1466 -0.1591  0.6457
14626TIP3    H165369   0.370   4.989   0.851  1.8940 -1.9248 -1.0572
14626TIP3    H265370   0.219   4.978   0.863  1.1845  2.9743 -3.1255
14627TIP3   OH265371   0.249   1.582  12.150 -0.1943 -1.1038 -0.7485
14627TIP3    H165372   0.279   1.672  12.150 -3.3257  0.0945 -2.2796
14627TIP3    H265373   0.329   1.530  12.161  1.9081  1.7640 -1.2500
14628TIP3   OH265374   2.408   1.159  13.867  0.0582 -0.7029  0.4117
14628TIP3    H165375   2.434   1.250  13.883  0.9786 -0.4121 -2.2252
14628TIP3    H265376   2.458   1.108  13.931 -0.9597  0.6344  2.3688
14629TIP3   OH265377   0.981   5.827   3.459 -0.3130 -0.1664 -0.1090
14629TIP3    H165378   1.073   5.815   3.435  0.3693  1.0331  1.6887
14629TIP3    H265379   0.941   5.868   3.382  0.9535  0.4258 -0.4758
14630TIP3   OH265380   2.298   4.656   5.855  0.0749 -0.2966  0.3594
14630TIP3    H165381   2.253   4.684   5.775  1.0195  1.3621  0.3666
14630TIP3    H265382   2.348   4.579   5.828 -1.1365 -0.9438 -0.1395
14631TIP3   OH265383   1.931   1.364  12.580  0.3120 -0.7623 -0.5171
14631TIP3    H165384   1.846   1.387  12.544 -0.7422 -0.8417  1.7149
14631TIP3    H265385   1.914   1.287  12.635  1.6028 -0.2408  0.6869
14632TIP3   OH265386   4.124   1.044  10.929  0.2022  0.2963  0.6236
14632TIP3    H165387   4.086   0.969  10.975  1.7262 -1.2118 -0.4376
14632TIP3    H265388   4.201   1.008  10.884  1.2004  2.5913  0.3661
14633TIP3   OH265389   5.365   5.213   2.478 -0.5896  0.2988  0.2240
14633TIP3    H165390   5.453   5.176   2.466 -0.4250 -0.1064  2.2720
14633TIP3    H265391   5.379   5.293   2.528 -1.4873 -1.3236  3.3631
14634TIP3   OH265392   0.974   3.856   3.305  0.0269  0.8446  0.0684
14634TIP3    H165393   0.954   3.895   3.390 -0.8513  1.9351 -0.6084
14634TIP3    H265394   1.041   3.912   3.268  0.4726  0.3182  0.0699
14635TIP3   OH265395   2.341   0.041   0.716  0.3038 -0.2804  0.3658
14635TIP3    H165396   2.281   0.014   0.786 -1.2608  1.7413 -0.0787
14635TIP3    H265397   2.303   0.005   0.636  1.2926 -1.3755  0.3683
14636TIP3   OH265398   1.331   6.352   4.641  0.2244 -0.1823  0.0450
14636TIP3    H165399   1.321   6.446   4.653  2.3363 -0.0326  1.1002
14636TIP3    H265400   1.425   6.336   4.653  0.2153 -2.1840 -1.9732
14637TIP3   OH265401   4.592   4.212  12.811  0.7211  0.1173 -0.7721
14637TIP3    H165402   4.502   4.188  12.791  0.5154 -0.3492  0.6576
14637TIP3    H265403   4.640   4.129  12.811  0.7180  0.0980  0.5907
14638TIP3   OH265404   1.536   4.443   4.956 -0.0817 -0.0517  0.3798
14638TIP3    H165405   1.572   4.456   5.044  0.2230 -0.0433  0.2539
14638TIP3    H265406   1.454   4.491   4.957  0.0563  0.1851  0.5699
14639TIP3   OH265407   4.285   2.705   6.279 -0.4665  0.5284  0.6064
14639TIP3    H165408   4.263   2.678   6.368  0.8176 -0.7702  0.5565
14639TIP3    H265409   4.375   2.737   6.286 -0.4607  0.6841 -0.1796
14640TIP3   OH265410   2.906   2.774  15.923 -0.1162  0.2293 -0.6017
14640TIP3    H165411   2.968   2.775  15.996 -0.9529  0.9174  0.1115
14640TIP3    H265412   2.955   2.811  15.850 -0.0484  1.9810  0.2829
14641TIP3   OH265413   0.561   2.388  11.706  0.3300 -0.6188  0.2146
14641TIP3    H165414   0.601   2.468  11.672 -1.7164  0.9092  1.1948
14641TIP3    H265415   0.633   2.343  11.750  1.6321  0.4620 -0.7031
14642TIP3   OH265416   5.592   1.907   0.830  0.6544 -0.2988  0.4029
14642TIP3    H165417   5.524   1.944   0.773  2.0363  0.9901 -0.4960
14642TIP3    H265418   5.554   1.910   0.917 -0.1719  1.1550  0.0303
14643TIP3   OH265419   2.929   1.408   1.276 -0.1224 -0.1460  0.3114
14643TIP3    H165420   2.975   1.416   1.359  0.9964  2.2022 -0.4401
14643TIP3    H265421   2.841   1.378   1.300  1.0916 -2.6054  1.9737
14644TIP3   OH265422   0.364   5.811  14.980  0.1047  0.1071  0.7108
14644TIP3    H165423   0.284   5.786  15.026  0.6442  0.3071  1.7805
14644TIP3    H265424   0.353   5.775  14.892 -1.5627  0.9011  0.5500
14645TIP3   OH265425   0.268   1.980   1.524  0.3934 -0.0869 -0.1843
14645TIP3    H165426   0.232   2.042   1.587  2.2899  1.6252 -0.6928
14645TIP3    H265427   0.362   1.976   1.545  1.0167  0.2919 -2.6541
14646TIP3   OH265428   4.072   3.166  11.384 -0.6613  0.1214  0.2764
14646TIP3    H165429   4.102   3.255  11.402 -2.1922  1.3085 -2.4614
14646TIP3    H265430   4.135   3.109  11.429  0.8244  2.5342  1.4280
14647TIP3   OH265431   4.689   0.905  14.031  0.7099 -0.3929  0.1243
14647TIP3    H165432   4.781   0.892  14.007 -0.2316 -1.4587 -3.5129
14647TIP3    H265433   4.681   0.865  14.118  3.1334 -2.8802 -0.6334
14648TIP3   OH265434   2.027   5.493  12.627  0.4084  0.3568  0.2625
14648TIP3    H165435   2.109   5.541  12.631 -0.3451  1.6500  0.9971
14648TIP3    H265436   2.034   5.439  12.548  1.3828  1.5330 -0.4939
14649TIP3   OH265437   4.697   2.261  12.979 -0.1825 -0.5754  0.3087
14649TIP3    H165438   4.630   2.326  13.000 -0.3206 -0.2822 -0.9647
14649TIP3    H265439   4.737   2.239  13.063 -0.8568  0.3700  0.8862
14650TIP3   OH265440   4.017   6.727  11.965  0.2980  0.3165 -0.1562
14650TIP3    H165441   4.092   6.727  11.906 -0.5895 -0.5471 -1.3259
14650TIP3    H265442   4.040   6.664  12.034  0.9102  0.5562 -0.1397
14651TIP3   OH265443   4.691   5.243  12.811  0.0636  0.1362  0.1666
14651TIP3    H165444   4.776   5.266  12.773 -0.3548  1.1817 -0.1483
14651TIP3    H265445   4.635   5.319  12.795 -1.0346 -0.6653  0.0903
14652TIP3   OH265446   6.681   0.068  14.056  0.6130  0.2754  0.1788
14652TIP3    H165447   6.692   0.116  13.974  0.8455  0.9003  0.5694
14652TIP3    H265448   6.751   0.002  14.054  0.7021  0.3757 -0.0632
14653TIP3   OH265449   1.861   0.333   4.376 -0.0316 -0.0608 -0.2710
14653TIP3    H165450   1.820   0.398   4.434 -0.4318 -0.3869 -0.1818
14653TIP3    H265451   1.884   0.382   4.297 -0.2579  0.2056 -0.1726
14654TIP3   OH265452   6.495   3.856  10.991 -0.8090  0.6567 -0.4820
14654TIP3    H165453   6.456   3.919  10.930  0.1354  0.8774 -0.8846
14654TIP3    H265454   6.574   3.900  11.023 -0.5048 -0.0555 -0.2276
14655TIP3   OH265455   5.184   3.347   5.778  0.1148 -0.1361  0.5962
14655TIP3    H165456   5.116   3.367   5.714 -0.1187  1.9721  1.4157
14655TIP3    H265457   5.264   3.339   5.726 -0.0337  1.7416  0.0236
14656TIP3   OH265458   0.192   3.582   0.434  0.4600 -0.5103 -0.1258
14656TIP3    H165459   0.160   3.631   0.358 -1.3194 -1.4943 -0.0731
14656TIP3    H265460   0.129   3.511   0.445  0.4947 -0.2406  2.4561
14657TIP3   OH265461   4.993   3.582  15.561 -0.2119 -0.7903  0.4115
14657TIP3    H165462   5.080   3.615  15.538 -0.4661 -1.0419 -1.0272
14657TIP3    H265463   4.940   3.660  15.577  0.7674 -0.6344  3.4887
14658TIP3   OH265464   3.062   3.288  13.973  0.2356 -0.4937  0.5740
14658TIP3    H165465   3.117   3.299  14.051  0.3434 -0.9620  0.5661
14658TIP3    H265466   3.088   3.204  13.937  1.4665  0.5185 -1.0002
14659TIP3   OH265467   4.805   6.384   0.903  0.2654 -0.3207  0.0356
14659TIP3    H165468   4.871   6.341   0.849 -0.5566 -0.8326 -0.5907
14659TIP3    H265469   4.818   6.478   0.887 -0.8637 -0.4701 -2.2225
14660TIP3   OH265470   1.878   3.851  12.206 -0.0985  0.2508 -0.1284
14660TIP3    H165471   1.948   3.791  12.231  1.2074  1.0700 -1.5902
14660TIP3    H265472   1.909   3.891  12.124 -3.0808 -0.6688 -1.8838
14661TIP3   OH265473   3.362   6.534   1.345  0.1227  0.0337  0.0385
14661TIP3    H165474   3.313   6.530   1.262  1.0256 -1.3545 -0.4628
14661TIP3    H265475   3.409   6.617   1.340 -1.5776  1.0581  0.2105
14662TIP3   OH265476   2.596   3.905   4.273  0.3989  0.1959 -0.3127
14662TIP3    H165477   2.510   3.934   4.243 -0.4038 -1.1845  0.6232
14662TIP3    H265478   2.594   3.915   4.368  1.2552  0.0952 -0.2734
14663TIP3   OH265479   0.705   2.909  17.172  0.0927 -0.3416  0.5944
14663TIP3    H165480   0.687   2.993  17.214  1.9866  1.1368 -1.3187
14663TIP3    H265481   0.794   2.886  17.199 -0.9508 -2.6959  2.4274
14664TIP3   OH265482   4.792   1.164  16.945  0.2898 -0.0532  0.1693
14664TIP3    H165483   4.766   1.255  16.938 -4.0767 -1.0529  0.3542
14664TIP3    H265484   4.840   1.146  16.864  0.1717  2.0933 -0.4184
14665TIP3   OH265485   1.844   2.812  16.925  0.1103 -0.7187 -0.3875
14665TIP3    H165486   1.761   2.803  16.879  0.0249  1.9685 -0.9213
14665TIP3    H265487   1.842   2.900  16.963  1.6223 -1.5718  1.9018
14666TIP3   OH265488   2.998   0.445   4.755  0.5695 -0.7367  0.3668
14666TIP3    H165489   2.981   0.536   4.780  1.6903  0.0645 -1.5382
14666TIP3    H265490   2.956   0.436   4.669  1.1760 -1.7640  0.1590
14667TIP3   OH265491   5.381   3.854  17.281 -0.5277  0.5345 -0.0722
14667TIP3    H165492   5.335   3.849  17.365  1.9232  1.0032  1.4317
14667TIP3    H265493   5.409   3.945  17.274  0.5872  0.1797 -0.6255
14668TIP3   OH265494   1.372   3.602   4.959 -0.5442  0.6411 -0.1501
14668TIP3    H165495   1.307   3.555   5.011  0.1572  0.2472  0.3879
14668TIP3    H265496   1.382   3.686   5.003 -1.0708  0.9180 -0.5431
14669TIP3   OH265497   4.278   4.493  15.683 -0.2363  0.2034 -0.2279
14669TIP3    H165498   4.275   4.581  15.644 -1.1963  0.0411 -0.5375
14669TIP3    H265499   4.372   4.472  15.687  0.4211  2.8389  3.4837
14670TIP3   OH265500   1.807   2.143  13.445 -0.1111  0.3200  0.9001
14670TIP3    H165501   1.804   2.117  13.537 -0.5961 -2.7324  0.1283
14670TIP3    H265502   1.875   2.210  13.441  0.9949 -0.5630  3.2553
14671TIP3   OH265503   2.836   0.219  11.112 -0.2776 -0.4982 -0.6021
14671TIP3    H165504   2.845   0.235  11.018  0.2909  0.3472 -0.4164
14671TIP3    H265505   2.743   0.228  11.129 -0.0899  2.4950 -0.5868
14672TIP3   OH265506   6.096   2.352   2.895 -0.0186 -0.0191  0.2371
14672TIP3    H165507   6.161   2.283   2.880  0.7544  0.7381 -0.0077
14672TIP3    H265508   6.023   2.307   2.938  0.7047 -0.8785  0.6189
14673TIP3   OH265509   1.331   4.132  14.340  0.7542 -0.3777 -0.3222
14673TIP3    H165510   1.326   4.214  14.292  1.9496 -0.4724 -0.6422
14673TIP3    H265511   1.344   4.065  14.273  0.0744 -0.8047 -0.0437
14674TIP3   OH265512   3.971   4.816  15.783 -0.1432 -0.1804  0.1119
14674TIP3    H165513   3.912   4.754  15.824 -0.4257  0.1811  0.2533
14674TIP3    H265514   3.955   4.805  15.689  2.0289 -2.5591 -0.1163
14675TIP3   OH265515   0.903   5.852   2.910  0.5095 -0.4233  0.0833
14675TIP3    H165516   0.811   5.874   2.896 -0.1407 -1.8740  1.7397
14675TIP3    H265517   0.950   5.934   2.892 -1.0722  0.3223 -0.8584
14676TIP3   OH265518   0.540   5.095   4.244  0.3798  0.0827 -0.1893
14676TIP3    H165519   0.523   5.177   4.197  1.4088  1.3722  1.5388
14676TIP3    H265520   0.542   5.028   4.176 -0.0677  1.5469 -1.7220
14677TIP3   OH265521   1.568   6.094  17.054  0.1733  0.3290 -0.6637
14677TIP3    H165522   1.620   6.014  17.063 -0.4449  0.0056  0.1938
14677TIP3    H265523   1.630   6.165  17.068  1.0710  0.0778 -3.0433
14678TIP3   OH265524   3.532   6.318  12.338 -0.1914  0.0029 -0.7741
14678TIP3    H165525   3.535   6.223  12.348  0.4204  0.0562 -0.3868
14678TIP3    H265526   3.440   6.341  12.353  0.0529 -0.2976  1.5094
14679TIP3   OH265527   1.241   3.481   4.189  0.0666  0.4611  0.0771
14679TIP3    H165528   1.285   3.450   4.110 -0.0959 -0.5666  0.3865
14679TIP3    H265529   1.312   3.496   4.251  0.1268  0.5172 -0.0045
14680TIP3   OH265530   0.426   6.135  17.347  0.0865 -0.2355 -0.3122
14680TIP3    H165531   0.443   6.153  17.255 -0.2654 -1.0612 -0.5540
14680TIP3    H265532   0.346   6.183  17.367  0.2679  0.0989 -0.3811
14681TIP3   OH265533   0.306   6.196   6.837 -0.1673 -0.0948  0.3718
14681TIP3    H165534   0.286   6.147   6.757  1.4825  0.7037 -0.5790
14681TIP3    H265535   0.226   6.247   6.853 -0.9146 -1.0557 -0.1407
14682TIP3   OH265536   2.302   6.445   2.914 -0.0149  0.1432  0.6602
14682TIP3    H165537   2.314   6.381   2.985  0.2489 -0.6899 -0.1265
14682TIP3    H265538   2.284   6.392   2.837 -0.5556  1.0611  0.1413
14683TIP3   OH265539   4.163   5.828   6.799  0.0097 -0.3082 -0.2645
14683TIP3    H165540   4.105   5.859   6.730  0.7356 -2.5196 -1.9916
14683TIP3    H265541   4.249   5.823   6.757  0.9355  0.3544  1.4526
14684TIP3   OH265542   4.189   0.911   4.942 -0.4888  0.0071  0.7843
14684TIP3    H165543   4.196   1.001   4.909  0.2531  0.0366  1.0092
14684TIP3    H265544   4.101   0.883   4.917  0.0824 -0.0454 -1.4307
14685TIP3   OH265545   6.693   1.882   0.573 -0.1241 -0.9156 -0.0398
14685TIP3    H165546   6.708   1.936   0.496  0.2036 -0.0177  0.6369
14685TIP3    H265547   6.600   1.861   0.570 -0.5030  0.5829  0.2309
14686TIP3   OH265548   2.412   6.406   1.466  0.6549  0.1772 -0.1354
14686TIP3    H165549   2.394   6.428   1.558  1.0796  1.6341 -0.3808
14686TIP3    H265550   2.428   6.311   1.467 -0.4598 -0.0278  1.1041
14687TIP3   OH265551   2.776   3.262  16.278  0.2099  0.0111  0.1346
14687TIP3    H165552   2.697   3.313  16.296  0.6378  0.5480  0.5337
14687TIP3    H265553   2.801   3.285  16.189 -0.1635 -0.2748 -0.0478
14688TIP3   OH265554   1.278   5.266   3.820 -0.5459  0.7513 -0.1332
14688TIP3    H165555   1.184   5.282   3.823 -0.6732  0.0862 -0.4565
14688TIP3    H265556   1.299   5.230   3.906 -0.6712  0.4527 -0.2278
14689TIP3   OH265557   4.357   6.690   3.149 -0.1919 -0.1132 -0.8262
14689TIP3    H165558   4.399   6.611   3.182  0.6793  1.0812  1.1226
14689TIP3    H265559   4.429   6.743   3.113 -0.6598  0.1116 -1.4573
14690TIP3   OH265560   5.284   4.523  13.811  0.1378  0.1211  0.2258
14690TIP3    H165561   5.238   4.461  13.755 -1.1742  0.3859  0.9644
14690TIP3    H265562   5.348   4.564  13.753 -0.7454 -0.0671 -0.9279
14691TIP3   OH265563   3.698   2.483   0.177  0.7230  0.6318  0.2991
14691TIP3    H165564   3.765   2.416   0.176  0.2809  0.1893 -0.1352
14691TIP3    H265565   3.640   2.460   0.105 -0.7117  0.1755  1.5444
14692TIP3   OH265566   4.314   3.535   3.567  0.7463  0.1663  0.2620
14692TIP3    H165567   4.280   3.446   3.554  0.2140  0.5796 -1.4928
14692TIP3    H265568   4.289   3.557   3.657 -1.0090 -0.6745  0.0274
14693TIP3   OH265569   1.195   4.382  16.177 -0.0137  0.0019 -0.6865
14693TIP3    H165570   1.125   4.445  16.189 -0.1678 -0.0076 -1.5347
14693TIP3    H265571   1.227   4.396  16.088  0.6156 -0.4412 -0.5441
14694TIP3   OH265572   1.747   3.069  11.710 -0.7116 -0.0232  0.1251
14694TIP3    H165573   1.749   3.155  11.668 -0.0651  0.1751  0.5440
14694TIP3    H265574   1.761   3.007  11.639 -1.8094  0.1685 -0.2787
14695TIP3   OH265575   2.068   6.191  16.973  0.2447  0.3599 -0.2186
14695TIP3    H165576   1.982   6.192  16.930 -0.2551  1.9110  0.7131
14695TIP3    H265577   2.130   6.206  16.902 -0.2645 -0.5872 -0.8816
14696TIP3   OH265578   3.193   2.360   3.639  0.4338 -0.5446 -0.0487
14696TIP3    H165579   3.198   2.307   3.560 -0.4256  0.4956 -0.8269
14696TIP3    H265580   3.138   2.435   3.615  0.3935 -0.0562  1.4442
14697TIP3   OH265581   5.652   5.660  13.549  0.6135  0.0485  0.3780
14697TIP3    H165582   5.591   5.618  13.609  0.5764 -1.1886 -0.4728
14697TIP3    H265583   5.738   5.644  13.586  0.5367  0.0977  0.5761
14698TIP3   OH265584   6.539   5.319  15.302  0.2323 -0.4119  0.2621
14698TIP3    H165585   6.590   5.263  15.361  0.8299  2.3753  2.6463
14698TIP3    H265586   6.462   5.267  15.280  1.8614 -3.0158  0.3252
14699TIP3   OH265587   3.939   5.903  12.682 -0.6394 -0.3422  0.3414
14699TIP3    H165588   4.013   5.952  12.720  1.2402 -0.7082 -2.5520
14699TIP3    H265589   3.979   5.823  12.649 -2.1968 -0.2664 -1.8941
14700TIP3   OH265590   5.618   4.439  13.783 -0.2408  0.4154 -0.0899
14700TIP3    H165591   5.575   4.448  13.868 -0.2297 -0.3385  0.0041
14700TIP3    H265592   5.551   4.397  13.727 -0.5864  1.7629 -0.7327
14701TIP3   OH265593   6.470   6.646   4.165 -0.5758  0.2023  0.2729
14701TIP3    H165594   6.413   6.581   4.206 -1.0930 -0.6449 -1.7127
14701TIP3    H265595   6.480   6.714   4.233  0.1866 -1.9917  2.4946
14702TIP3   OH265596   6.095   6.112   4.690 -0.6395 -0.1660 -0.2228
14702TIP3    H165597   6.088   6.191   4.636  0.2541 -0.2819 -0.5200
14702TIP3    H265598   6.184   6.115   4.725 -1.2654  0.0325  1.4551
14703TIP3   OH265599   4.255   4.170   5.849 -0.3239 -0.4845  0.1369
14703TIP3    H165600   4.265   4.084   5.889  0.2251  0.0116  1.0914
14703TIP3    H265601   4.335   4.182   5.798 -0.6740 -0.7864 -0.4971
14704TIP3   OH265602   4.512   1.425   0.470 -0.1176  0.2424 -0.1040
14704TIP3    H165603   4.479   1.461   0.388 -0.4835 -1.1680 -0.6071
14704TIP3    H265604   4.584   1.482   0.494 -0.3057  0.9536 -1.1682
14705TIP3   OH265605   6.408   4.743   3.576 -0.2164  0.7425  0.5095
14705TIP3    H165606   6.466   4.815   3.599  1.8989 -0.3863 -0.9567
14705TIP3    H265607   6.448   4.703   3.499 -2.9870 -0.1089 -0.6464
14706TIP3   OH265608   6.422   3.633  12.790 -0.6150  0.0187 -0.6968
14706TIP3    H165609   6.400   3.684  12.867 -1.9345  0.5733 -1.4002
14706TIP3    H265610   6.508   3.596  12.808 -1.8083 -1.7723  2.0376
14707TIP3   OH265611   6.407   2.349  15.350 -0.2998 -0.8501 -0.3462
14707TIP3    H165612   6.439   2.412  15.287  1.4742 -2.0688 -0.7264
14707TIP3    H265613   6.313   2.342  15.331 -0.5699  1.6340 -0.2538
14708TIP3   OH265614   6.463   5.647  12.047 -0.1931 -0.1623  0.3211
14708TIP3    H165615   6.397   5.633  11.979  0.8551 -1.2488 -0.5150
14708TIP3    H265616   6.442   5.733  12.083 -0.9660  0.3156 -1.1712
14709TIP3   OH265617   2.383   5.080  15.271 -0.6720  0.3742  0.1055
14709TIP3    H165618   2.458   5.043  15.318 -1.1476  1.2183  1.5916
14709TIP3    H265619   2.399   5.058  15.179  1.2326  0.2609  0.4209
14710TIP3   OH265620   3.963   2.157  15.011  0.2225 -0.0884 -0.4934
14710TIP3    H165621   3.900   2.091  14.985 -1.9637  1.1484  1.3327
14710TIP3    H265622   3.938   2.235  14.961 -1.3438  1.0943  1.9624
14711TIP3   OH265623   1.077   6.528  15.431 -0.2360  0.4052  0.6403
14711TIP3    H165624   1.095   6.464  15.361  1.0108  0.0643  1.2436
14711TIP3    H265625   1.139   6.506  15.500  1.3024  3.1986  0.2764
14712TIP3   OH265626   0.680   3.493  11.148  0.4853 -0.3942 -0.1144
14712TIP3    H165627   0.644   3.440  11.076 -1.2889 -1.0341  1.1815
14712TIP3    H265628   0.749   3.438  11.186 -1.2439 -1.7911  1.1273
14713TIP3   OH265629   5.261   4.013  14.256 -0.0471  0.1026 -0.0984
14713TIP3    H165630   5.311   3.983  14.331 -0.7923 -0.9794 -0.0227
14713TIP3    H265631   5.179   3.964  14.259 -1.5477  2.4306  0.2814
14714TIP3   OH265632   4.090   4.702   1.879  0.0083 -0.3423 -0.2913
14714TIP3    H165633   4.008   4.723   1.834 -0.0702 -0.3016 -0.1285
14714TIP3    H265634   4.068   4.705   1.972 -0.0710 -1.3801 -0.2592
14715TIP3   OH265635   5.599   2.854   3.594  0.5547  0.0200  0.7188
14715TIP3    H165636   5.615   2.857   3.500 -0.7446 -3.2611  0.2352
14715TIP3    H265637   5.512   2.890   3.605  0.2491 -0.6299  0.4759
14716TIP3   OH265638   2.520   4.676   2.575 -0.3821  0.3652 -0.3673
14716TIP3    H165639   2.540   4.659   2.667 -1.1750  2.0032  0.1616
14716TIP3    H265640   2.460   4.751   2.578  0.5404  1.2515 -2.2670
14717TIP3   OH265641   4.814   4.819  16.795 -0.3909 -0.2147  0.8531
14717TIP3    H165642   4.770   4.882  16.738  0.1895  0.5066  1.1858
14717TIP3    H265643   4.781   4.841  16.883  0.9992  0.6925  1.1805
14718TIP3   OH265644   2.278   0.569   5.739 -0.5077 -0.1173 -0.3133
14718TIP3    H165645   2.303   0.654   5.775  1.0974 -1.1417  1.1537
14718TIP3    H265646   2.202   0.542   5.790 -0.8220  0.2867 -0.5639
14719TIP3   OH265647   5.097   2.715   6.473  0.5520  0.2420 -0.2715
14719TIP3    H165648   5.031   2.764   6.424 -1.3854 -1.3138  0.6503
14719TIP3    H265649   5.064   2.712   6.562  1.2670 -1.5376 -0.0205
14720TIP3   OH265650   5.808   1.034  16.365 -0.3311  0.1552  0.1571
14720TIP3    H165651   5.752   0.958  16.385 -0.3938 -0.0807 -0.8511
14720TIP3    H265652   5.871   1.037  16.437 -0.6099 -0.5845  0.4446
14721TIP3   OH265653   1.965   3.643  15.717  0.5528  0.0912 -0.2239
14721TIP3    H165654   1.990   3.707  15.784  0.9792  0.3035 -0.5788
14721TIP3    H265655   2.024   3.569  15.732  0.9720  0.3302 -0.6550
14722TIP3   OH265656   1.023   5.143   1.342 -0.3193 -0.5506 -0.1577
14722TIP3    H165657   1.062   5.147   1.255 -0.8423 -1.2116 -0.4343
14722TIP3    H265658   1.061   5.066   1.383 -0.3644 -0.4621  0.0540
14723TIP3   OH265659   0.133   6.703   6.203  0.2508  0.0421  0.0758
14723TIP3    H165660   0.164   6.619   6.236 -3.0153 -1.4384 -0.3272
14723TIP3    H265661   0.119   6.689   6.109  3.0857  2.2319 -0.8299
14724TIP3   OH265662   5.195   3.888  17.511  0.6465  0.2955 -0.2644
14724TIP3    H165663   5.169   3.826  17.580  1.3131  0.5738  0.2525
14724TIP3    H265664   5.117   3.900  17.458  0.3445 -0.5470 -0.0290
14725TIP3   OH265665   6.619   1.735  14.092 -0.1379 -0.0859 -0.0484
14725TIP3    H165666   6.589   1.734  14.183  2.0878 -0.3218  0.7379
14725TIP3    H265667   6.601   1.646  14.060  1.3681 -0.7998  1.0042
14726TIP3   OH265668   6.460   1.723   1.359  0.1989  0.4557 -0.1765
14726TIP3    H165669   6.507   1.670   1.295  0.9784 -0.5402  1.1729
14726TIP3    H265670   6.513   1.719   1.438 -0.1743  2.5600  0.2415
14727TIP3   OH265671   4.619   5.924   6.413  0.3479  0.1238 -0.0304
14727TIP3    H165672   4.526   5.948   6.406  0.2573 -0.5854 -2.0513
14727TIP3    H265673   4.623   5.865   6.488 -0.8176  0.2801  0.1769
14728TIP3   OH265674   4.126   2.016   4.987  0.0603  0.3953 -0.0830
14728TIP3    H165675   4.067   1.951   5.025  2.0799 -0.9719  0.8381
14728TIP3    H265676   4.121   2.091   5.047 -0.5198  0.1934  0.1283
14729TIP3   OH265677   4.907   4.594   5.905  0.2074  0.1185  0.1716
14729TIP3    H165678   4.862   4.598   5.989 -1.1567 -0.1330 -0.5142
14729TIP3    H265679   4.851   4.644   5.845  1.5757  1.0082 -0.4246
14730TIP3   OH265680   5.162   2.690  15.911  0.3089 -0.1492 -0.0987
14730TIP3    H165681   5.214   2.768  15.928 -1.2610  0.6918  0.9956
14730TIP3    H265682   5.193   2.626  15.976  1.1301 -0.2445 -0.5646
14731TIP3   OH265683   1.389   0.472  15.897  0.4771 -0.1711  0.0908
14731TIP3    H165684   1.330   0.405  15.861  0.7307 -0.0762 -0.5106
14731TIP3    H265685   1.438   0.504  15.821  1.1331 -0.0765  0.5499
14732TIP3   OH265686   4.427   2.554   1.653  0.2070  0.1009  0.0398
14732TIP3    H165687   4.482   2.621   1.612  1.3780 -0.7303  0.1955
14732TIP3    H265688   4.467   2.541   1.739 -2.0845  1.6852  1.4621
14733TIP3   OH265689   3.982   0.222  15.332 -0.3780 -0.1331  0.5376
14733TIP3    H165690   4.034   0.292  15.293 -1.4726  0.5657  0.2568
14733TIP3    H265691   3.961   0.164  15.259 -1.3139  0.4554  0.3237
14734TIP3   OH265692   2.686   5.325   4.864  0.3362 -0.9725 -0.3115
14734TIP3    H165693   2.776   5.293   4.862  1.4890  1.9887 -1.4809
14734TIP3    H265694   2.658   5.325   4.773  0.6809  1.7401 -0.5124
14735TIP3   OH265695   0.197   6.656   2.831 -0.0484  0.2200  0.5459
14735TIP3    H165696   0.246   6.634   2.752 -1.1014 -0.7539  0.1364
14735TIP3    H265697   0.261   6.650   2.902  0.1645 -2.3335  0.2101
14736TIP3   OH265698   0.733   6.084  12.239  0.7908  0.1477 -0.2480
14736TIP3    H165699   0.774   6.030  12.306 -0.1428 -1.7016 -1.0873
14736TIP3    H265700   0.672   6.025  12.195 -0.3417  1.9365 -1.1833
14737TIP3   OH265701   0.694   1.105   4.002  0.2336 -0.4568  0.2944
14737TIP3    H165702   0.782   1.132   3.978  0.4495 -0.2853  1.2402
14737TIP3    H265703   0.636   1.167   3.957  0.6184 -0.2386  0.1022
14738TIP3   OH265704   3.132   4.715   1.748  0.7327  0.4823  0.3451
14738TIP3    H165705   3.141   4.679   1.660  2.2111 -0.5728  0.8971
14738TIP3    H265706   3.049   4.679   1.780  0.2355  0.7866 -0.5423
14739TIP3   OH265707   4.945   1.170   3.236  0.4980 -0.0870  0.3042
14739TIP3    H165708   5.007   1.099   3.217 -0.8927 -1.5664  1.0878
14739TIP3    H265709   4.929   1.211   3.152  1.6398 -0.4445 -0.1037
14740TIP3   OH265710   5.264   3.004   1.736 -0.2280  0.5835  0.0759
14740TIP3    H165711   5.237   3.031   1.824 -1.3502  0.8342 -0.3241
14740TIP3    H265712   5.217   2.921   1.722 -2.0140  1.7541 -1.1986
14741TIP3   OH265713   3.545   4.198  14.776 -0.2397 -0.1167  0.0300
14741TIP3    H165714   3.528   4.206  14.870 -0.2224  1.4113 -0.0649
14741TIP3    H265715   3.465   4.232  14.735  0.5807  1.3327 -0.4611
14742TIP3   OH265716   4.072   5.918  14.018  0.1374 -0.2403  0.1152
14742TIP3    H165717   4.138   5.963  13.964 -0.0785 -1.3394 -1.1042
14742TIP3    H265718   4.118   5.897  14.099  0.9613  0.0160 -0.2738
14743TIP3   OH265719   2.877   5.689   0.570 -0.2903 -0.3802  0.1232
14743TIP3    H165720   2.944   5.755   0.550 -2.5549  2.8690  2.1478
14743TIP3    H265721   2.914   5.637   0.641 -0.1616  2.1222  2.0351
14744TIP3   OH265722   3.165   2.765  12.678  0.3886  0.0876 -0.0426
14744TIP3    H165723   3.108   2.787  12.605 -0.6287  0.5791  0.8693
14744TIP3    H265724   3.113   2.784  12.756  0.2366 -3.3476  0.8683
14745TIP3   OH265725   2.845   0.441  15.497  0.4337 -0.1975 -0.0487
14745TIP3    H165726   2.870   0.443  15.405 -0.9761 -1.5309 -0.5001
14745TIP3    H265727   2.752   0.418  15.496 -0.8792  4.0788  1.5200
14746TIP3   OH265728   2.716   0.590   5.288 -0.3963  0.3721 -0.3142
14746TIP3    H165729   2.711   0.677   5.327  0.0116 -0.0437  0.7062
14746TIP3    H265730   2.649   0.539   5.332 -0.3096  0.0376 -0.5572
14747TIP3   OH265731   3.093   5.229   1.227  0.0330  0.0808  0.0072
14747TIP3    H165732   3.157   5.174   1.274  0.9674  0.8715 -0.3092
14747TIP3    H265733   3.009   5.208   1.268  0.3014 -1.8715 -0.3775
14748TIP3   OH265734   1.351   6.129  14.621  0.0206 -0.1208  0.3651
14748TIP3    H165735   1.347   6.050  14.674 -1.8246 -0.7917 -0.7008
14748TIP3    H265736   1.296   6.192  14.668  0.0266 -0.0497  0.2764
14749TIP3   OH265737   0.223   2.683   3.607  0.2445  0.0055 -0.0259
14749TIP3    H165738   0.219   2.697   3.702 -0.1260  0.1431 -0.0595
14749TIP3    H265739   0.297   2.735   3.579  0.8454 -0.6575  0.2959
14750TIP3   OH265740   3.239   5.892   4.219 -0.5103 -0.6323 -0.3244
14750TIP3    H165741   3.257   5.898   4.313  0.3831  1.2530 -0.5709
14750TIP3    H265742   3.323   5.870   4.180 -0.7893 -1.0023 -0.7148
14751TIP3   OH265743   2.838   1.650  14.069 -0.6219  0.2417  0.1162
14751TIP3    H165744   2.844   1.741  14.096 -0.0031  0.9558 -2.2530
14751TIP3    H265745   2.863   1.650  13.977  1.9893 -2.6792  0.6513
14752TIP3   OH265746   4.152   6.627  16.160 -0.4773  0.6343 -0.0198
14752TIP3    H165747   4.127   6.694  16.223  0.3392  0.0072  1.0170
14752TIP3    H265748   4.202   6.564  16.211  2.1497  1.2047 -1.6770
14753TIP3   OH265749   6.273   4.210  12.461  0.5807 -0.4787 -0.4412
14753TIP3    H165750   6.318   4.273  12.405  1.4467 -0.3868  0.3381
14753TIP3    H265751   6.333   4.195  12.534  0.0646 -1.6323 -0.2243
14754TIP3   OH265752   1.905   5.489  13.681 -0.4452  0.2393 -0.1868
14754TIP3    H165753   1.876   5.398  13.688  1.1800 -0.2558  0.6678
14754TIP3    H265754   1.970   5.499  13.750 -1.0428  2.2570  0.1415
14755TIP3   OH265755   0.558   0.895   4.483  0.7138  0.6936 -0.0613
14755TIP3    H165756   0.519   0.930   4.404 -1.5892 -0.1558  0.6253
14755TIP3    H265757   0.576   0.972   4.537 -1.8364  1.0812  0.3596
14756TIP3   OH265758   4.745   0.057  11.710  0.4460 -0.0442 -0.1964
14756TIP3    H165759   4.800   0.041  11.786  1.8494  3.0027 -0.4115
14756TIP3    H265760   4.807   0.077  11.640 -0.8699  1.1062 -1.0888
14757TIP3   OH265761   2.146   6.663   2.132  0.6377 -0.0078 -0.4450
14757TIP3    H165762   2.094   6.582   2.127  0.4987  0.1445 -1.7193
14757TIP3    H265763   2.181   6.663   2.221  0.5008 -1.3870 -0.3684
14758TIP3   OH265764   1.203   3.886  11.937 -0.0810  0.3733 -0.6937
14758TIP3    H165765   1.181   3.969  11.980 -2.7371 -1.0343  0.9109
14758TIP3    H265766   1.293   3.868  11.963 -1.0784  0.3374  3.2710
14759TIP3   OH265767   6.575   6.254  17.338  0.3786 -0.0935 -0.8071
14759TIP3    H165768   6.546   6.318  17.403  1.3426  0.3623 -0.8179
14759TIP3    H265769   6.505   6.253  17.273  0.5123  1.2138 -0.9882
14760TIP3   OH265770   3.806   0.275  13.065 -0.5086 -0.5131  0.2232
14760TIP3    H165771   3.711   0.276  13.074 -0.4543  0.9342  0.9259
14760TIP3    H265772   3.838   0.233  13.144 -0.5494 -0.6143  0.1856
14761TIP3   OH265773   0.178   3.032  14.041  0.1174  0.4952 -0.0700
14761TIP3    H165774   0.272   3.041  14.057  0.0662  0.3998  0.2801
14761TIP3    H265775   0.137   3.045  14.127 -0.1990  0.6767 -0.2448
14762TIP3   OH265776   0.288   5.817   4.733 -0.0673 -0.4508  0.8552
14762TIP3    H165777   0.218   5.882   4.735 -0.4753 -0.8791  0.5529
14762TIP3    H265778   0.274   5.769   4.652  1.6349  0.6110 -0.1144
14763TIP3   OH265779   6.453   4.626  16.061 -0.2393  0.0028  0.4543
14763TIP3    H165780   6.514   4.688  16.102 -0.5825  0.7589 -0.1464
14763TIP3    H265781   6.509   4.569  16.008  0.2322 -1.1226  2.0855
14764TIP3   OH265782   4.081   4.114   6.441  0.3690 -0.1419 -0.1831
14764TIP3    H165783   4.071   4.209   6.430  0.4993 -0.0616  0.3547
14764TIP3    H265784   4.026   4.093   6.516  1.8403 -0.1682  0.9199
14765TIP3   OH265785   3.878   3.778  13.610  0.0060 -0.0568 -0.2042
14765TIP3    H165786   3.831   3.862  13.614 -2.7766 -1.4478 -1.1205
14765TIP3    H265787   3.964   3.801  13.576 -0.2251  2.5608  0.7320
14766TIP3   OH265788   5.570   0.685   0.540 -0.4928 -1.1756 -0.0634
14766TIP3    H165789   5.617   0.610   0.578  0.5553 -0.6968 -0.3777
14766TIP3    H265790   5.580   0.674   0.445  0.5717 -0.0891 -0.0956
14767TIP3   OH265791   1.474   3.374   4.567 -0.0655  0.0411 -0.7250
14767TIP3    H165792   1.529   3.402   4.639  0.7515 -0.7640 -1.0127
14767TIP3    H265793   1.401   3.327   4.608  0.9277 -1.3089 -0.4382
14768TIP3   OH265794   2.629   5.881  12.778  0.3448  0.1189 -0.1982
14768TIP3    H165795   2.676   5.846  12.853 -1.8742  1.2561  1.8482
14768TIP3    H265796   2.670   5.966  12.761  0.7308 -0.0600 -0.1707
14769TIP3   OH265797   4.511   2.346  15.989 -0.1715  0.0090 -0.1935
14769TIP3    H165798   4.453   2.275  16.017 -0.0149 -0.1521 -0.2760
14769TIP3    H265799   4.503   2.411  16.059 -1.7240  0.7293 -1.0060
14770TIP3   OH265800   1.398   0.568   2.081  0.1471  0.3668 -0.0961
14770TIP3    H165801   1.381   0.612   1.998 -0.5885  0.2518 -0.0100
14770TIP3    H265802   1.465   0.503   2.060 -1.2050 -0.7861 -0.9626
14771TIP3   OH265803   1.406   1.630  12.584 -0.5154 -0.1155  0.3699
14771TIP3    H165804   1.458   1.566  12.633 -0.2748 -0.4079 -0.2561
14771TIP3    H265805   1.316   1.602  12.596 -0.3865 -0.7766 -0.1863
14772TIP3   OH265806   4.724   2.695   2.866 -0.7121  0.1426 -0.0273
14772TIP3    H165807   4.796   2.757   2.879 -0.4415 -0.2315  0.3011
14772TIP3    H265808   4.767   2.611   2.855 -1.0811  0.0023 -0.4153
14773TIP3   OH265809   4.892   0.908  15.589  0.1624 -0.3820  0.0625
14773TIP3    H165810   4.811   0.958  15.576  0.7573  0.8121  0.7421
14773TIP3    H265811   4.870   0.847  15.660 -0.2868 -0.3935 -0.0823
14774TIP3   OH265812   3.064   0.464  13.139  0.0847  0.4844 -0.1270
14774TIP3    H165813   3.032   0.516  13.212  0.4465 -0.0731  0.4347
14774TIP3    H265814   2.995   0.399  13.124  0.5088 -0.1043  0.4503
14775TIP3   OH265815   1.901   5.047  16.182 -0.5320  0.0346 -0.8980
14775TIP3    H165816   1.949   5.062  16.263 -1.2787  1.9635 -0.7516
14775TIP3    H265817   1.969   5.028  16.117  0.2082  0.1694 -0.1774
14776TIP3   OH265818   0.643   2.125  15.587  0.0161 -0.2081 -0.7891
14776TIP3    H165819   0.607   2.059  15.646  1.4812 -0.0100  0.3922
14776TIP3    H265820   0.590   2.203  15.602  0.0568 -0.3087 -0.0948
14777TIP3   OH265821   2.330   0.572  14.962  0.0961 -0.4642 -0.5290
14777TIP3    H165822   2.240   0.577  14.928  0.5994  0.4359 -1.8300
14777TIP3    H265823   2.321   0.537  15.050 -1.5719 -0.0199 -0.4947
14778TIP3   OH265824   4.528   4.871   3.696 -0.6119 -0.1588 -0.1715
14778TIP3    H165825   4.559   4.961   3.694  1.7520 -0.8831  0.3574
14778TIP3    H265826   4.436   4.878   3.720 -0.3763  2.0910  0.3150
14779TIP3   OH265827   1.072   2.362   1.751  0.3412 -0.1959  0.3978
14779TIP3    H165828   1.035   2.298   1.690  2.6944 -0.0714 -1.2617
14779TIP3    H265829   1.004   2.373   1.818 -2.0966 -0.7806 -1.8488
14780TIP3   OH265830   0.383   3.629   4.542  0.2486 -0.1525  0.1422
14780TIP3    H165831   0.411   3.548   4.500  0.0384 -0.7977  1.2198
14780TIP3    H265832   0.304   3.605   4.591  1.5864  0.0520  2.5596
14781TIP3   OH265833   0.510   5.419   3.811 -0.3216  0.2627 -0.0023
14781TIP3    H165834   0.514   5.346   3.750  0.4566 -0.1662  0.5413
14781TIP3    H265835   0.440   5.395   3.872  0.0151 -0.1046  0.2504
14782TIP3   OH265836   1.401   5.704  15.489  0.4007  0.0313  0.1750
14782TIP3    H165837   1.452   5.715  15.409  0.7185 -1.1965  0.1873
14782TIP3    H265838   1.344   5.780  15.492  0.9291  0.4824 -0.8143
14783TIP3   OH265839   2.919   0.714   3.034 -0.1134  0.0483  0.2246
14783TIP3    H165840   2.920   0.664   2.953  0.0899 -0.7984  0.7296
14783TIP3    H265841   2.862   0.789   3.017 -1.4390 -1.0172 -0.1659
14784TIP3   OH265842   6.313   6.311   3.934 -0.3525 -0.0783  0.0546
14784TIP3    H165843   6.317   6.231   3.882  1.5886  0.0442 -0.0677
14784TIP3    H265844   6.280   6.284   4.019 -3.3419 -0.3322 -1.0634
14785TIP3   OH265845   2.388   6.601   5.761 -0.1275  0.2287 -0.5540
14785TIP3    H165846   2.460   6.663   5.771 -0.0084  0.0541 -0.3207
14785TIP3    H265847   2.431   6.517   5.742 -0.1795 -0.2312  1.2132
14786TIP3   OH265848   3.075   1.508  16.372  0.1116 -0.4932  0.3198
14786TIP3    H165849   2.991   1.514  16.328 -0.3356  2.6074  1.3844
14786TIP3    H265850   3.070   1.427  16.423 -0.6512 -2.3703 -2.5360
14787TIP3   OH265851   3.821   2.418  15.607  0.0957 -0.2828 -0.1322
14787TIP3    H165852   3.909   2.450  15.629 -0.2982  0.3143  0.6001
14787TIP3    H265853   3.837   2.341  15.553  1.1456 -2.3232  2.8758
14788TIP3   OH265854   2.206   1.090   4.509 -0.0511  0.3962  0.1461
14788TIP3    H165855   2.135   1.149   4.484 -0.7470 -0.9446 -1.2794
14788TIP3    H265856   2.170   1.039   4.582 -0.8436 -0.6924 -0.9571
14789TIP3   OH265857   4.738   1.781  12.435 -0.0938  0.5329  0.7044
14789TIP3    H165858   4.677   1.709  12.420 -0.5139  1.0449 -0.1482
14789TIP3    H265859   4.712   1.848  12.372  2.9344 -0.1954 -1.5350
14790TIP3   OH265860   4.212   4.439  13.251 -0.7737  0.2736  0.6752
14790TIP3    H165861   4.189   4.351  13.220 -1.8442  0.3335  1.2483
14790TIP3    H265862   4.212   4.492  13.171 -1.0141 -0.0647  0.4428
14791TIP3   OH265863   2.168   1.946  13.042  0.0783  0.1282 -0.2407
14791TIP3    H165864   2.101   2.015  13.044  1.7299  1.8091 -0.7442
14791TIP3    H265865   2.250   1.991  13.064  1.1923 -1.7272 -0.3908
14792TIP3   OH265866   5.952   5.717  12.826 -0.2262 -0.6824 -0.1995
14792TIP3    H165867   5.986   5.693  12.740  1.5535 -0.4006  0.3885
14792TIP3    H265868   5.879   5.776  12.807  1.5031  1.1701 -1.5543
14793TIP3   OH265869   3.826   2.358  14.878 -0.2595  0.3077  0.6639
14793TIP3    H165870   3.873   2.396  14.804  0.1990 -1.2476  0.1224
14793TIP3    H265871   3.734   2.357  14.851 -0.2069  0.5723  0.4809
14794TIP3   OH265872   1.477   0.397   3.096  0.3637 -0.1403 -0.1994
14794TIP3    H165873   1.487   0.486   3.130  2.4840 -1.1047  2.0194
14794TIP3    H265874   1.538   0.393   3.022 -0.9066  0.6574 -1.3292
14795TIP3   OH265875   6.520   3.866  12.613  0.5694 -0.6399 -0.6293
14795TIP3    H165876   6.484   3.822  12.690  2.4025 -0.1598  0.5830
14795TIP3    H265877   6.484   3.955  12.617 -0.7608 -1.1118 -1.3916
14796TIP3   OH265878   0.607   0.566   5.181  0.1297  0.8993 -0.2961
14796TIP3    H165879   0.521   0.595   5.211 -0.6501  0.7549 -2.2437
14796TIP3    H265880   0.609   0.588   5.088  1.9679  0.3443 -0.4299
14797TIP3   OH265881   2.196   2.518  16.386 -0.1868 -0.1643  0.4643
14797TIP3    H165882   2.115   2.467  16.381 -0.4893  0.2869  0.7156
14797TIP3    H265883   2.258   2.470  16.330 -0.4229 -0.8858  0.8030
14798TIP3   OH265884   0.309   2.499   3.867  0.0206 -0.3392 -0.0292
14798TIP3    H165885   0.256   2.432   3.823  0.1467  0.0552 -0.7878
14798TIP3    H265886   0.246   2.550   3.918 -0.0756 -1.0357  0.5602
14799TIP3   OH265887   6.476   2.893   3.887 -0.5688  0.6633 -0.6607
14799TIP3    H165888   6.453   2.800   3.888 -0.2764  0.5918 -0.5743
14799TIP3    H265889   6.426   2.928   3.813  0.5482  0.1138 -1.7122
14800TIP3   OH265890   2.255   2.278   5.145 -0.1915 -0.0237 -0.2768
14800TIP3    H165891   2.174   2.242   5.181 -1.1532  0.4500 -1.8751
14800TIP3    H265892   2.305   2.307   5.222 -1.4010 -0.5854  0.7473
14801TIP3   OH265893   3.948   4.901  16.772 -0.2391  0.3765  0.0460
14801TIP3    H165894   3.995   4.977  16.806 -0.2168  0.9988 -1.3318
14801TIP3    H265895   3.996   4.877  16.692  0.1302 -1.4792  0.7734
14802TIP3   OH265896   4.049   4.211   2.900  0.0231 -0.6258 -0.9651
14802TIP3    H165897   4.040   4.277   2.969  0.8390 -1.5490  0.0679
14802TIP3    H265898   4.114   4.149   2.934  0.0904 -1.3778 -2.3668
14803TIP3   OH265899   4.507   3.527   4.700  0.5741  0.1751 -0.0274
14803TIP3    H165900   4.414   3.546   4.696  0.6969  0.6803 -0.5013
14803TIP3    H265901   4.550   3.612   4.700  1.0120 -0.0189  1.2159
14804TIP3   OH265902   5.395   2.205   0.097  0.0896 -0.1391 -0.4956
14804TIP3    H165903   5.384   2.114   0.070 -0.4286  0.2902 -1.8152
14804TIP3    H265904   5.310   2.246   0.079 -0.1138  0.3257  1.3330
14805TIP3   OH265905   5.317   3.117   0.374  0.2916  0.4056 -0.2403
14805TIP3    H165906   5.313   3.099   0.468  0.3336 -1.0535 -0.4971
14805TIP3    H265907   5.410   3.115   0.353  0.4171  2.2515 -0.0786
14806TIP3   OH265908   5.460   4.423  12.182 -0.2716  0.2977  0.2803
14806TIP3    H165909   5.396   4.479  12.226  0.6875 -0.6953  3.1861
14806TIP3    H265910   5.543   4.469  12.195  0.2136 -0.6695  0.6522
14807TIP3   OH265911   2.672   3.700   5.746  1.0791 -0.2384 -0.4453
14807TIP3    H165912   2.698   3.723   5.836  1.0170 -0.8038 -0.2800
14807TIP3    H265913   2.578   3.685   5.752  0.8749  0.8042 -0.8359
14808TIP3   OH265914   2.155   2.317   4.884 -0.4440  0.0888 -0.4247
14808TIP3    H165915   2.173   2.403   4.847 -2.6169 -0.1864 -2.3527
14808TIP3    H265916   2.096   2.334   4.958  2.1927  0.4666  1.7310
14809TIP3   OH265917   4.056   5.303  16.709 -0.0607 -0.2581  0.0071
14809TIP3    H165918   4.101   5.386  16.693 -0.7734  0.1371  0.0301
14809TIP3    H265919   3.989   5.298  16.641  0.8569 -1.4795 -0.8528
14810TIP3   OH265920   1.103   3.935  15.605  0.5989 -0.0500  0.2815
14810TIP3    H165921   1.123   3.853  15.650 -1.2031 -0.4789  0.3630
14810TIP3    H265922   1.008   3.932  15.590  1.0016  0.3694 -2.9651
14811TIP3   OH265923   5.302   2.907  14.072  0.6313 -0.1278 -0.1625
14811TIP3    H165924   5.235   2.870  14.015  2.4234  0.0837 -2.5588
14811TIP3    H265925   5.283   2.871  14.158 -3.5449  1.2274 -0.2776
14812TIP3   OH265926   3.953   3.043   0.863  0.1681  0.4049 -0.1700
14812TIP3    H165927   4.005   3.013   0.787  0.5449  3.1832 -1.1111
14812TIP3    H265928   4.013   3.100   0.911 -0.6124 -0.0142  1.3546
14813TIP3   OH265929   0.415   3.992  11.175  0.2885 -0.1484 -0.2949
14813TIP3    H165930   0.390   4.083  11.188  0.1721 -0.1306 -0.6378
14813TIP3    H265931   0.504   3.986  11.208  0.0687 -0.0578  0.3303
14814TIP3   OH265932   4.005   1.765  16.794  0.4950  0.1765 -0.5233
14814TIP3    H165933   4.041   1.768  16.706 -2.9622  0.3292 -2.0943
14814TIP3    H265934   3.928   1.823  16.792  0.1868  0.0870  2.5496
14815TIP3   OH265935   4.956   6.420   0.288 -0.3847 -0.3771 -0.4521
14815TIP3    H165936   4.998   6.345   0.330  1.5986  1.5946  1.3751
14815TIP3    H265937   4.967   6.405   0.194 -1.1459 -2.8906 -0.2075
14816TIP3   OH265938   4.114   1.176   3.974 -0.0071  0.1166  0.0118
14816TIP3    H165939   4.143   1.090   3.945  1.6036  0.6088  0.0651
14816TIP3    H265940   4.049   1.203   3.909 -0.2625 -0.9592 -0.2021
14817TIP3   OH265941   5.508   5.243   5.539  0.2741  0.3416 -0.5294
14817TIP3    H165942   5.546   5.244   5.627 -0.7604 -0.7789 -0.0379
14817TIP3    H265943   5.569   5.295   5.486  0.3140  2.0892  1.0852
14818TIP3   OH265944   3.196   5.668  14.978  0.4152  0.4657 -0.5245
14818TIP3    H165945   3.124   5.712  14.932  0.4922 -0.8100 -1.9408
14818TIP3    H265946   3.250   5.740  15.012 -1.8111  1.4773  1.1520
14819TIP3   OH265947   2.764   5.862  13.088  0.1415  0.3894  0.0664
14819TIP3    H165948   2.736   5.945  13.126  0.1163  0.9424 -1.0995
14819TIP3    H265949   2.849   5.845  13.128  0.6405  1.5320 -0.4395
14820TIP3   OH265950   6.460   1.738  14.350  0.5010  0.0986  0.6885
14820TIP3    H165951   6.452   1.833  14.338 -0.7476  0.1955  2.0622
14820TIP3    H265952   6.370   1.706  14.342  0.9427 -1.0107  0.0252
14821TIP3   OH265953   5.332   0.660  17.192 -0.1397 -0.0980 -0.1899
14821TIP3    H165954   5.421   0.689  17.212  0.0964 -1.1962  0.4492
14821TIP3    H265955   5.323   0.576  17.237 -0.5845 -1.3051 -2.3675
14822TIP3   OH265956   5.930   1.354  11.363 -0.4686 -0.0271  0.2035
14822TIP3    H165957   5.838   1.334  11.350 -1.1156  1.8287  1.4318
14822TIP3    H265958   5.931   1.416  11.437  1.6906  0.5135 -0.1943
14823TIP3   OH265959   2.141   2.738   1.017 -0.3389 -0.1092 -0.0890
14823TIP3    H165960   2.233   2.758   1.037 -0.4752  2.7756 -1.7856
14823TIP3    H265961   2.145   2.661   0.960  1.1013  0.3079 -0.6032
14824TIP3   OH265962   4.243   0.559   2.349 -0.2031 -0.2711  0.0257
14824TIP3    H165963   4.197   0.592   2.272 -0.6491 -1.3625 -0.1945
14824TIP3    H265964   4.178   0.560   2.419 -0.5904 -1.8071 -0.2844
14825TIP3   OH265965   0.073   5.774  13.907 -0.2033 -0.0963  0.1023
14825TIP3    H165966   0.123   5.824  13.843  1.4773 -1.3748  0.3365
14825TIP3    H265967   0.027   5.708  13.856  0.1480 -0.3366  0.0972
14826TIP3   OH265968   4.482   4.365   4.516  0.1225  0.1955  0.7467
14826TIP3    H165969   4.488   4.388   4.424  0.4512 -0.7225  0.5283
14826TIP3    H265970   4.503   4.446   4.563  1.2126  0.3656  0.0081
14827TIP3   OH265971   1.611   4.280   2.547 -0.1854  0.3149 -0.0217
14827TIP3    H165972   1.614   4.349   2.615 -2.7153 -0.2954  0.8387
14827TIP3    H265973   1.606   4.328   2.465 -2.4557  1.2869  0.5940
14828TIP3   OH265974   1.909   3.915  15.587 -0.0344 -0.0871 -0.7373
14828TIP3    H165975   1.942   3.890  15.500  0.9355  0.1700 -0.4627
14828TIP3    H265976   1.975   3.880  15.648 -0.9402 -0.6733 -0.0644
14829TIP3   OH265977   1.671   3.008  10.649 -0.5534 -0.0230 -0.5028
14829TIP3    H165978   1.737   3.054  10.598 -0.3707  2.2317  1.6242
14829TIP3    H265979   1.719   2.940  10.695 -0.3323 -0.5550 -1.4857
14830TIP3   OH265980   2.143   2.320   2.509 -0.0662  0.2640  0.4266
14830TIP3    H165981   2.115   2.235   2.542 -2.9616  0.6341 -0.7349
14830TIP3    H265982   2.221   2.301   2.456 -0.5333 -1.6325  0.3603
14831TIP3   OH265983   4.199   6.116   6.721 -0.5272 -0.3119 -0.0040
14831TIP3    H165984   4.127   6.179   6.720  0.6897  1.1447  0.7368
14831TIP3    H265985   4.209   6.090   6.629  0.0030  1.8734 -0.6235
14832TIP3   OH265986   0.779   2.769  15.167  0.5427  0.0658  0.2270
14832TIP3    H165987   0.750   2.851  15.127 -0.9046 -0.0764  0.9348
14832TIP3    H265988   0.869   2.758  15.136 -0.0700  0.6258 -1.9257
14833TIP3   OH265989   6.126   0.769  16.067 -0.3687 -0.4359 -0.3654
14833TIP3    H165990   6.125   0.688  16.118 -1.8539  0.2871  0.8305
14833TIP3    H265991   6.036   0.778  16.036  0.0053  0.2979 -1.2821
14834TIP3   OH265992   6.600   4.839  11.658  0.2144  0.1076  0.1593
14834TIP3    H165993   6.646   4.761  11.689  0.7690  0.8371  1.2490
14834TIP3    H265994   6.519   4.840  11.708  0.7658  0.8744  1.0763
14835TIP3   OH265995   2.411   0.346  15.723  0.5639  0.5183 -0.1624
14835TIP3    H165996   2.477   0.324  15.789  1.1635  1.6238 -0.3612
14835TIP3    H265997   2.383   0.434  15.748 -0.4061  0.2912 -0.4363
14836TIP3   OH265998   5.538   0.649  14.827 -0.1014  0.1653 -0.1033
14836TIP3    H165999   5.445   0.661  14.846 -0.3312 -1.4993 -0.0876
14836TIP3    H266000   5.572   0.738  14.818 -1.5736  0.8094  0.4474
14837TIP3   OH266001   3.949   2.168   0.886  0.5480  0.1273 -0.1319
14837TIP3    H166002   3.933   2.074   0.891 -1.2561  0.2204 -2.4890
14837TIP3    H266003   4.020   2.183   0.948  1.1229 -2.8196  0.0946
14838TIP3   OH266004   4.418   1.892   5.212  0.7047 -0.2105  0.1584
14838TIP3    H166005   4.440   1.799   5.218  0.7523 -0.1837  0.4180
14838TIP3    H266006   4.348   1.905   5.277  1.5200  0.1754  0.9860
14839TIP3   OH266007   1.024   6.287  14.451  0.0901 -0.6570  0.8809
14839TIP3    H166008   0.995   6.362  14.399  1.1090 -0.1843  0.9780
14839TIP3    H266009   0.943   6.248  14.483 -0.4766  0.0832  0.3923
14840TIP3   OH266010   4.684   2.445  15.718 -0.8225 -0.6092 -0.3958
14840TIP3    H166011   4.631   2.516  15.755 -1.7972 -1.9593  0.8618
14840TIP3    H266012   4.734   2.411  15.792  1.6306  0.3912 -1.4741
14841TIP3   OH266013   6.087   5.341  11.252 -0.5062 -0.6714  0.1578
14841TIP3    H166014   6.167   5.289  11.238  1.5562  2.3789 -0.4530
14841TIP3    H266015   6.081   5.397  11.175 -2.8849 -0.3041  0.5342
14842TIP3   OH266016   1.704   1.427   2.603  0.3482 -0.4995  0.0746
14842TIP3    H166017   1.734   1.387   2.685  2.5808  0.2947 -0.2687
14842TIP3    H266018   1.680   1.516   2.628 -1.0589 -0.9080  0.2143
14843TIP3   OH266019   1.742   6.263  15.014 -0.4136  0.3266  0.5159
14843TIP3    H166020   1.774   6.282  14.926  2.5908  0.5675  1.5196
14843TIP3    H266021   1.749   6.168  15.022 -1.0462  0.2674  0.3754
14844TIP3   OH266022   3.450   2.721   3.306 -0.4748 -0.7622  0.6976
14844TIP3    H166023   3.537   2.688   3.325 -0.0180  0.1860  0.3600
14844TIP3    H266024   3.402   2.646   3.270  0.6160 -0.9830 -0.3438
14845TIP3   OH266025   4.927   5.196   0.128 -0.0947 -0.0135 -0.2327
14845TIP3    H166026   4.913   5.232   0.041 -0.6171 -0.5539 -0.3775
14845TIP3    H266027   4.850   5.141   0.144  0.6459 -1.0204  0.0006
14846TIP3   OH266028   6.539   1.508  12.342  0.1502  0.2704 -0.6268
14846TIP3    H166029   6.547   1.498  12.247 -0.8022  1.5547 -0.8693
14846TIP3    H266030   6.629   1.519  12.373  0.7794 -2.9284 -0.9818
14847TIP3   OH266031   5.454   6.674  13.561  0.3103 -0.0455  0.6880
14847TIP3    H166032   5.547   6.697  13.551  0.1004  0.6745  0.3168
14847TIP3    H266033   5.412   6.755  13.591 -0.3356 -0.1167  0.0127
14848TIP3   OH266034   6.124   3.463   4.026  0.6453  0.2939 -0.0686
14848TIP3    H166035   6.189   3.403   3.988 -0.1201 -0.2274 -0.5640
14848TIP3    H266036   6.175   3.518   4.086  1.0305 -2.3855  2.2426
14849TIP3   OH266037   3.333   0.158  16.539 -0.0871  0.2340 -0.4072
14849TIP3    H166038   3.396   0.196  16.601 -0.6357 -0.7268  0.7733
14849TIP3    H266039   3.375   0.078  16.508  0.0364  0.5322 -1.0184
14850TIP3   OH266040   2.161   2.792   3.009 -0.1161 -0.0195  0.0535
14850TIP3    H166041   2.157   2.881   2.975 -0.5093 -0.1458 -0.2341
14850TIP3    H266042   2.227   2.749   2.956 -0.3537 -0.0667 -0.2087
14851TIP3   OH266043   2.185   1.403   2.510  0.0496  0.2512 -0.6792
14851TIP3    H166044   2.158   1.341   2.442  0.4725  0.3155 -0.9081
14851TIP3    H266045   2.236   1.469   2.464  1.3116 -0.3146 -0.1313
14852TIP3   OH266046   4.522   3.608  12.072  0.1545 -0.1026 -0.2305
14852TIP3    H166047   4.518   3.528  12.125  0.1011 -0.0217 -0.1139
14852TIP3    H266048   4.473   3.673  12.122 -0.0542 -0.0780 -0.4635
14853TIP3   OH266049   3.124   2.459   0.425  0.1992 -0.3547 -0.1356
14853TIP3    H166050   3.171   2.518   0.365  0.7859 -1.8116 -1.1598
14853TIP3    H266051   3.194   2.415   0.474 -0.2080 -0.7840  0.0606
14854TIP3   OH266052   4.778   4.022   4.724 -0.1727 -0.1554  0.6222
14854TIP3    H166053   4.783   4.090   4.791  0.2736  0.6115 -0.1756
14854TIP3    H266054   4.684   4.013   4.705 -0.2167  0.3891  0.5792
14855TIP3   OH266055   6.635   1.948  17.068  0.0125  0.3300 -0.0873
14855TIP3    H166056   6.555   1.990  17.100  0.1786 -0.6096  1.6527
14855TIP3    H266057   6.604   1.872  17.018 -0.2107  1.0544 -1.0824
14856TIP3   OH266058   1.815   6.176  17.404  0.0268 -0.0742  0.9357
14856TIP3    H166059   1.893   6.218  17.368 -1.1372 -0.3324 -2.2289
14856TIP3    H266060   1.791   6.230  17.479  0.8128  2.6455 -0.6154
14857TIP3   OH266061   6.281   4.686  12.226  0.1917 -0.0998 -0.2469
14857TIP3    H166062   6.323   4.769  12.203  3.3310 -1.2981  0.7441
14857TIP3    H266063   6.249   4.652  12.142  0.7458  1.1332 -0.9822
14858TIP3   OH266064   4.461   5.239   2.704 -0.2723 -0.0610  0.2304
14858TIP3    H166065   4.458   5.145   2.686  0.3572 -0.2501  1.0634
14858TIP3    H266066   4.373   5.261   2.735 -1.1772  0.1321 -2.2231
14859TIP3   OH266067   5.845   0.734   4.419  0.3315  0.7352 -0.3132
14859TIP3    H166068   5.801   0.681   4.486  0.4910  2.0740  0.9126
14859TIP3    H266069   5.830   0.687   4.337 -1.5868  0.0701  0.3632
14860TIP3   OH266070   1.538   5.982  12.155  0.4124 -0.1539  0.4677
14860TIP3    H166071   1.507   6.068  12.124  0.9533 -0.4094 -0.8555
14860TIP3    H266072   1.596   6.002  12.228  0.2655  0.5852  0.3916
14861TIP3   OH266073   5.447   0.365   5.506  0.0464  0.2597  0.3917
14861TIP3    H166074   5.405   0.420   5.440  3.2176  1.0444 -1.1721
14861TIP3    H266075   5.489   0.295   5.456  0.8954 -0.2643  1.7815
14862TIP3   OH266076   3.640   0.461   4.535  0.7480  0.5021 -0.1069
14862TIP3    H166077   3.589   0.457   4.454  1.5690  0.7117 -0.6470
14862TIP3    H266078   3.581   0.428   4.602  0.7039 -1.6985 -1.1340
14863TIP3   OH266079   0.484   6.005  14.604 -0.2684  0.0313 -0.0770
14863TIP3    H166080   0.530   6.050  14.675 -0.9055 -0.3045  0.5581
14863TIP3    H266081   0.462   6.074  14.542  1.7348  0.1166 -0.7896
14864TIP3   OH266082   6.368   5.567  13.948 -0.3114 -0.5448  0.4836
14864TIP3    H166083   6.276   5.546  13.934 -0.0035 -1.4679 -0.2907
14864TIP3    H266084   6.393   5.617  13.870  0.1493 -1.3780  0.0874
14865TIP3   OH266085   2.690   6.603  16.232 -0.1225 -0.1411  0.1651
14865TIP3    H166086   2.746   6.673  16.199 -0.1804 -0.8040 -1.4130
14865TIP3    H266087   2.612   6.608  16.177 -1.5084  0.5297  2.0784
14866TIP3   OH266088   0.942   3.796  13.510  0.2205 -0.1980  0.3362
14866TIP3    H166089   0.861   3.753  13.482  0.2647 -0.1353  0.1170
14866TIP3    H266090   0.944   3.782  13.605  0.4592 -1.0509  0.2113
14867TIP3   OH266091   6.184   1.344  15.645  0.2405  0.0847 -0.3186
14867TIP3    H166092   6.150   1.255  15.648 -0.9351  0.3977 -2.3056
14867TIP3    H266093   6.108   1.400  15.659  0.4810  0.7773 -1.5926
14868TIP3   OH266094   2.598   0.363  15.113  0.1120 -0.2524  0.1853
14868TIP3    H166095   2.604   0.458  15.121 -3.4064  0.0459  1.0403
14868TIP3    H266096   2.636   0.343  15.028 -0.8295  2.2039 -0.8869
14869TIP3   OH266097   6.633   2.153  16.420  0.1761  0.1348 -0.0313
14869TIP3    H166098   6.637   2.066  16.381  1.9230 -0.9119  2.2775
14869TIP3    H266099   6.551   2.154  16.469 -0.4668  0.3162 -1.0618
14870TIP3   OH266100   2.800   5.266   5.859  0.2104 -0.0141  0.0906
14870TIP3    H166101   2.821   5.359   5.863  1.2414 -0.1529 -1.1989
14870TIP3    H266102   2.813   5.235   5.949 -0.2820  1.0980  0.5652
14871TIP3   OH266103   6.518   5.911   0.637  0.1796  0.3342 -0.3169
14871TIP3    H166104   6.592   5.971   0.636  0.4399  0.0119 -0.5458
14871TIP3    H266105   6.445   5.963   0.672  0.9532  0.1236  1.7188
14872TIP3   OH266106   5.389   0.840  11.480 -0.2066 -0.6576 -0.0515
14872TIP3    H166107   5.453   0.769  11.490  0.9454  0.2767 -0.5580
14872TIP3    H266108   5.405   0.875  11.393 -0.5745  0.3952  0.2865
14873TIP3   OH266109   2.954   3.517   3.606 -0.0902  0.1193  0.3429
14873TIP3    H166110   2.886   3.500   3.542 -0.9065 -1.9113  1.6287
14873TIP3    H266111   2.959   3.436   3.658  0.0160  1.8456  3.2834
14874TIP3   OH266112   5.683   0.598  17.450 -0.4337 -0.0933 -0.6029
14874TIP3    H166113   5.733   0.553  17.518 -2.1471 -0.8683  0.2129
14874TIP3    H266114   5.597   0.612  17.489 -0.3630  2.8758 -1.2691
14875TIP3   OH266115   3.224   0.422  16.973 -0.0881 -0.0220  0.0933
14875TIP3    H166116   3.220   0.357  16.903 -2.4077  0.8412 -0.6793
14875TIP3    H266117   3.313   0.456  16.970  0.2063 -0.8784 -1.6339
14876TIP3   OH266118   4.770   5.800   3.848 -0.4469 -0.3718  0.2874
14876TIP3    H166119   4.827   5.734   3.887 -2.3730 -2.4539 -0.2254
14876TIP3    H266120   4.695   5.805   3.907 -1.7682 -1.0127 -1.2509
14877TIP3   OH266121   2.107   2.843  12.118 -0.4027 -0.5973  0.2728
14877TIP3    H166122   2.040   2.830  12.051 -1.4506  0.9049  0.9719
14877TIP3    H266123   2.095   2.934  12.147  0.7369 -0.8644  1.7100
14878TIP3   OH266124   5.824   1.550  11.507 -0.2899 -0.3474 -0.4733
14878TIP3    H166125   5.791   1.602  11.433 -1.2965 -0.5092 -0.1603
14878TIP3    H266126   5.824   1.611  11.581  0.3397 -0.2918 -0.5135
14879TIP3   OH266127   0.418   1.832  14.038  0.1226 -0.0178 -0.1174
14879TIP3    H166128   0.387   1.910  14.084  1.2738 -0.0015  0.6700
14879TIP3    H266129   0.350   1.767  14.052 -0.4608  0.5919 -0.0689
14880TIP3   OH266130   4.523   4.832   5.056  0.0129 -0.9292  0.2984
14880TIP3    H166131   4.487   4.909   5.100 -0.5877 -0.6795 -0.5977
14880TIP3    H266132   4.519   4.763   5.122  1.4743  0.0085  1.4399
14881TIP3   OH266133   2.809   2.695  10.902 -0.6302 -0.0390  0.4702
14881TIP3    H166134   2.759   2.756  10.956 -0.7143 -1.7104  2.4159
14881TIP3    H266135   2.898   2.699  10.937 -0.2813  0.1128 -0.4252
14882TIP3   OH266136   0.133   4.672   0.911 -0.7193  0.0797 -0.0631
14882TIP3    H166137   0.202   4.727   0.875  1.1087 -0.6154  2.1451
14882TIP3    H266138   0.078   4.732   0.961 -1.4140  0.5424 -1.3393
14883TIP3   OH266139   0.068   3.337  13.561  0.0613 -0.0447  0.1682
14883TIP3    H166140   0.102   3.421  13.530  0.1437  0.4092  1.4159
14883TIP3    H266141  -0.014   3.360  13.605 -0.8429 -0.8644 -1.0018
14884TIP3   OH266142   5.277   5.876  15.629 -0.3853  0.5142 -0.7332
14884TIP3    H166143   5.228   5.957  15.612 -0.2841  0.6512 -0.3891
14884TIP3    H266144   5.340   5.900  15.697 -1.2937 -0.1957  0.4066
14885TIP3   OH266145   4.053   1.943   3.022  0.1852 -0.0011 -0.3461
14885TIP3    H166146   4.133   1.969   2.976  0.8337 -1.4177 -0.0592
14885TIP3    H266147   4.083   1.882   3.089 -1.0506  0.1094  0.3256
14886TIP3   OH266148   0.101   4.742   4.345  0.5914  0.2074 -0.3741
14886TIP3    H166149   0.019   4.745   4.295 -0.5210  1.3174  1.4144
14886TIP3    H266150   0.136   4.830   4.340  1.7459 -0.2775 -1.1793
14887TIP3   OH266151   1.947   2.613   2.795  0.2022  0.3625 -0.8513
14887TIP3    H166152   1.912   2.542   2.850 -0.3158  2.5364  1.8827
14887TIP3    H266153   2.034   2.583   2.770  0.2951 -0.9731  0.8323
14888TIP3   OH266154   3.310   4.538  13.146  0.4969  0.0373  0.2203
14888TIP3    H166155   3.382   4.532  13.084  0.3385  0.8681 -0.0553
14888TIP3    H266156   3.291   4.632  13.152 -0.9720 -0.2162 -0.1830
14889TIP3   OH266157   5.001   0.585  13.772  0.3040 -0.4611 -0.0306
14889TIP3    H166158   4.918   0.555  13.809 -0.0924 -0.0332 -0.5554
14889TIP3    H266159   5.003   0.679  13.792  0.1929 -0.2707 -0.8847
14890TIP3   OH266160   0.220   1.909  11.288 -1.0267  0.6272 -0.2589
14890TIP3    H166161   0.127   1.890  11.301 -0.9553  1.2133  1.2864
14890TIP3    H266162   0.227   2.003  11.301 -0.5147  0.9358 -2.4614
14891TIP3   OH266163   5.601   1.191  15.198  0.2383  0.2740  0.4587
14891TIP3    H166164   5.609   1.106  15.241  0.7772  0.3026  0.4275
14891TIP3    H266165   5.507   1.207  15.193  0.1553  0.2469  1.5777
14892TIP3   OH266166   2.171   1.188  15.011 -0.6696 -0.0063 -0.2651
14892TIP3    H166167   2.150   1.237  15.091 -0.7645  0.9561 -0.8528
14892TIP3    H266168   2.108   1.221  14.947 -1.1561 -1.3919 -0.5163
14893TIP3   OH266169   4.849   6.660  16.503 -0.1462  0.9912 -0.2709
14893TIP3    H166170   4.908   6.611  16.560  1.5046  3.2826  0.0953
14893TIP3    H266171   4.794   6.592  16.463  0.8145 -0.9737  1.5275
14894TIP3   OH266172   0.212   1.634   5.809 -0.5775  0.4851  0.5700
14894TIP3    H166173   0.161   1.711   5.834 -0.5924  0.8947 -0.6420
14894TIP3    H266174   0.223   1.643   5.714  0.1354 -0.5782  0.5398
14895TIP3   OH266175   0.641   3.242  14.007  0.1266  0.0787  0.5509
14895TIP3    H166176   0.634   3.310  14.074  0.0550  0.2598  0.3623
14895TIP3    H266177   0.724   3.262  13.962 -1.0890  1.5906 -1.1719
14896TIP3   OH266178   1.394   2.558   4.754  0.0142  0.0908 -0.1352
14896TIP3    H166179   1.335   2.613   4.805  1.1368  0.0333  1.2713
14896TIP3    H266180   1.438   2.502   4.818  2.5761  1.0571 -0.9037
14897TIP3   OH266181   2.065   4.057   3.753  0.8316  0.6416 -0.2385
14897TIP3    H166182   2.097   3.970   3.730  0.0667  0.4788 -0.7356
14897TIP3    H266183   2.081   4.110   3.674  0.8017  0.8176 -0.1269
14898TIP3   OH266184   4.896   3.585  14.499 -0.0115 -0.1159  0.1302
14898TIP3    H166185   4.846   3.647  14.551  0.9514 -0.4979  1.5493
14898TIP3    H266186   4.849   3.580  14.415 -1.3027  0.8782  0.7763
14899TIP3   OH266187   1.196   1.285  14.282  0.1825 -0.3930 -0.2432
14899TIP3    H166188   1.259   1.334  14.335  0.5515 -0.6519 -0.4406
14899TIP3    H266189   1.162   1.350  14.220  1.3519 -0.5681 -1.1215
14900TIP3   OH266190   3.423   5.469  16.681 -0.1130  0.1499 -0.2455
14900TIP3    H166191   3.487   5.470  16.752  2.2292 -1.4190 -2.1613
14900TIP3    H266192   3.384   5.557  16.683  1.2849  0.8063  1.7073
14901TIP3   OH266193   3.238   3.788   3.344  0.2169  0.0792 -0.5637
14901TIP3    H166194   3.317   3.753   3.304 -0.5702 -2.5851 -0.0026
14901TIP3    H266195   3.170   3.776   3.278 -0.0749  0.7015 -0.3895
14902TIP3   OH266196   3.820   2.480  16.744 -0.1651 -0.2539 -0.0540
14902TIP3    H166197   3.897   2.537  16.737  0.9114 -1.5532  0.7294
14902TIP3    H266198   3.757   2.531  16.795 -0.5539  1.5092 -2.1100
14903TIP3   OH266199   2.481   6.575  14.219 -0.2585 -0.5014  0.3866
14903TIP3    H166200   2.514   6.641  14.158  1.0678 -1.4082  0.0961
14903TIP3    H266201   2.406   6.537  14.175  0.9050 -1.4059 -0.8802
14904TIP3   OH266202   0.273   2.538   0.430  0.0546 -0.2620 -0.7548
14904TIP3    H166203   0.248   2.475   0.497  1.2270 -2.9300 -2.6687
14904TIP3    H266204   0.363   2.561   0.451 -0.1892  0.3830 -0.3818
14905TIP3   OH266205   1.932   2.141   2.181  0.1711 -0.3054 -0.1277
14905TIP3    H166206   1.923   2.164   2.088 -1.6162 -0.7630 -0.1034
14905TIP3    H266207   1.935   2.225   2.226 -1.3332 -0.0518 -0.4384
14906TIP3   OH266208   5.751   3.750   0.082 -0.0996  0.1694  0.4190
14906TIP3    H166209   5.658   3.730   0.068 -0.2271  1.0814 -0.1134
14906TIP3    H266210   5.790   3.745  -0.005  0.3323 -0.0713  0.6220
14907TIP3   OH266211   0.921   1.869  12.964  0.1391  0.2928  0.2481
14907TIP3    H166212   1.004   1.894  13.004  0.2887 -0.9636  0.7561
14907TIP3    H266213   0.936   1.782  12.928 -0.2524  1.0235 -1.8457
14908TIP3   OH266214   5.928   4.830  11.262  0.3699  0.2035  0.1106
14908TIP3    H166215   6.017   4.807  11.235 -0.5854 -0.5336 -2.7749
14908TIP3    H266216   5.924   4.925  11.256  0.0409  0.0963 -3.4824
14909TIP3   OH266217   4.082   6.297  10.523 -0.2892 -0.5421  0.0160
14909TIP3    H166218   4.085   6.236  10.596  1.0845 -2.7283 -1.7393
14909TIP3    H266219   4.171   6.332  10.517 -0.8599  1.0694  0.4940
14910TIP3   OH266220   3.535   3.905  14.036  0.0195 -0.1966 -0.1069
14910TIP3    H166221   3.553   3.824  13.987 -1.4310  0.5046 -1.9283
14910TIP3    H266222   3.485   3.875  14.113  0.2613 -1.1108 -0.2873
14911TIP3   OH266223   6.137   4.664  14.840 -0.2458  0.6924  0.5887
14911TIP3    H166224   6.054   4.623  14.817 -0.0988  0.3298  0.7029
14911TIP3    H266225   6.202   4.623  14.783 -0.2554  1.5084 -0.0300
14912TIP3   OH266226   6.623   2.470   0.217  0.3748  0.2550 -0.7977
14912TIP3    H166227   6.580   2.555   0.215  1.8170  1.0106 -1.5456
14912TIP3    H266228   6.686   2.473   0.145  2.0209 -0.5556  0.5192
14913TIP3   OH266229   0.217   2.566   0.157 -0.5107  0.2641  0.3195
14913TIP3    H166230   0.256   2.577   0.244  1.0899  1.5308 -0.4974
14913TIP3    H266231   0.283   2.517   0.108 -1.4119 -0.4635 -0.2033
14914TIP3   OH266232   0.011   4.690  13.955 -0.0505  0.7117  0.1603
14914TIP3    H166233  -0.017   4.652  13.872  1.7230  0.3471 -0.3191
14914TIP3    H266234   0.087   4.743  13.933  0.4137  0.6708  1.5339
14915TIP3   OH266235   2.344   1.540  12.399  0.1111 -0.0515 -0.1910
14915TIP3    H166236   2.435   1.542  12.369  0.3507 -1.0382  0.4054
14915TIP3    H266237   2.294   1.510  12.323  0.2786  0.4941 -0.5221
14916TIP3   OH266238   6.710   1.202  17.198 -0.2262  0.6130 -0.0822
14916TIP3    H166239   6.768   1.261  17.149  0.8302  0.5680  1.0772
14916TIP3    H266240   6.757   1.118  17.200 -0.1670  0.6629  1.1473
14917TIP3   OH266241   2.795   3.391  15.469  0.5479 -0.3038  0.0766
14917TIP3    H166242   2.739   3.339  15.411 -1.0638  0.2724  1.0392
14917TIP3    H266243   2.734   3.452  15.512  2.2217  1.7497 -0.3225
14918TIP3   OH266244   0.576   5.052   1.997 -0.1429  0.6472 -0.2133
14918TIP3    H166245   0.506   5.116   1.987 -0.0836  0.7012 -0.2852
14918TIP3    H266246   0.645   5.082   1.938  0.6852  1.6252  1.2002
14919TIP3   OH266247   3.905   3.612   5.755 -0.5240 -0.2275  0.5532
14919TIP3    H166248   3.947   3.679   5.809  0.3628 -0.9473  0.7826
14919TIP3    H266249   3.972   3.587   5.691 -1.3259  0.1105 -0.4365
14920TIP3   OH266250   4.982   4.496  11.587  0.3416 -0.1287  0.3275
14920TIP3    H166251   4.997   4.539  11.502 -1.6360 -1.6440 -0.8645
14920TIP3    H266252   5.031   4.414  11.582 -0.2304 -0.4804  0.4189
14921TIP3   OH266253   0.867   1.679  14.107 -0.2354 -0.2763  0.3579
14921TIP3    H166254   0.910   1.622  14.043 -0.5502 -1.1094  0.8594
14921TIP3    H266255   0.822   1.745  14.055 -0.2362 -0.7602 -0.2671
14922TIP3   OH266256   2.087   5.695  17.090  0.5316 -0.7614 -0.0381
14922TIP3    H166257   2.015   5.646  17.131  0.7409  0.2742  1.6619
14922TIP3    H266258   2.162   5.636  17.096  0.5820 -0.6049  1.2110
14923TIP3   OH266259   3.947   3.315  16.325  0.1805 -0.3161 -0.7728
14923TIP3    H166260   3.957   3.278  16.237  0.0127 -0.5026 -0.7125
14923TIP3    H266261   3.854   3.339  16.331 -0.0418 -1.2808 -0.2563
14924TIP3   OH266262   1.571   3.573  11.177 -0.2328  0.4782  0.3584
14924TIP3    H166263   1.649   3.619  11.145 -0.6496  1.0076  0.0791
14924TIP3    H266264   1.545   3.622  11.255  0.3338 -0.3477  1.0770
14925TIP3   OH266265   3.292   3.963   1.950  0.0663  0.2088 -0.5422
14925TIP3    H166266   3.308   3.941   2.041  1.2138  0.3020 -0.7140
14925TIP3    H266267   3.313   3.883   1.901  2.8039  1.1177 -1.0226
14926TIP3   OH266268   1.234   3.598   2.229  0.4253 -0.1598  0.0497
14926TIP3    H166269   1.264   3.679   2.269 -0.2433 -0.2443  0.7514
14926TIP3    H266270   1.296   3.532   2.260  0.1431 -0.1559  0.6307
14927TIP3   OH266271   5.164   3.817   0.501 -0.6451  0.6246  0.6240
14927TIP3    H166272   5.135   3.726   0.503  0.8666  0.1151  2.1159
14927TIP3    H266273   5.112   3.861   0.567 -1.0893  0.7477  0.1924
14928TIP3   OH266274   2.317   6.358   3.343 -0.3601 -0.0970 -0.4816
14928TIP3    H166275   2.404   6.336   3.308 -0.9015  0.7326 -2.5054
14928TIP3    H266276   2.331   6.369   3.437  1.3899 -1.5623 -0.5057
14929TIP3   OH266277   4.213   2.131  14.755 -0.1709 -0.4954 -0.3283
14929TIP3    H166278   4.240   2.139  14.663  0.9214 -1.8242 -0.1571
14929TIP3    H266279   4.143   2.066  14.753  0.6065 -1.3785 -0.1367
14930TIP3   OH266280   1.315   4.880  11.699 -0.4667  0.2814  0.0706
14930TIP3    H166281   1.396   4.878  11.749 -1.2361  1.8104  1.4875
14930TIP3    H266282   1.339   4.920  11.616  0.1608  1.1514  0.6557
14931TIP3   OH266283   4.002   2.743   4.844 -0.5232  0.3868  0.1145
14931TIP3    H166284   3.920   2.708   4.880  0.1589 -1.6210 -0.2119
14931TIP3    H266285   4.009   2.704   4.757  0.2104  1.4822 -0.3361
14932TIP3   OH266286   4.245   0.054  15.079  0.5291  0.3320 -0.0300
14932TIP3    H166287   4.159   0.022  15.109  0.4678  0.3534 -0.1801
14932TIP3    H266288   4.244   0.037  14.985  0.4302  0.9258 -0.1350
14933TIP3   OH266289   1.702   1.927  16.527 -0.1067 -0.2063 -0.3325
14933TIP3    H166290   1.685   1.950  16.618  0.3868 -1.0499 -0.0104
14933TIP3    H266291   1.659   1.995  16.476 -1.1695 -0.2176  0.5097
14934TIP3   OH266292   4.357   6.547  16.998  0.2317  0.5831 -0.1785
14934TIP3    H166293   4.316   6.466  17.029  0.4954  1.0887  1.6202
14934TIP3    H266294   4.294   6.584  16.936 -1.0116  0.2153  0.8181
14935TIP3   OH266295   3.617   4.993   0.340  0.5730 -0.6684 -0.0789
14935TIP3    H166296   3.644   4.931   0.408 -4.0301 -1.8466  1.0077
14935TIP3    H266297   3.569   4.940   0.276 -0.8014  1.2865 -0.7914
14936TIP3   OH266298   3.834   6.743  16.603  0.0818  0.4180 -0.3955
14936TIP3    H166299   3.925   6.766  16.617 -0.1969  1.0377  0.5113
14936TIP3    H266300   3.814   6.681  16.674 -0.4670  1.0638  0.0313
14937TIP3   OH266301   5.024   2.876  15.421  0.3756  0.4235 -0.1992
14937TIP3    H166302   4.996   2.860  15.511 -2.1832  1.3942 -0.7217
14937TIP3    H266303   5.070   2.796  15.396 -0.2949 -0.5378  1.4556
14938TIP3   OH266304   5.935   4.703   4.739 -0.1468 -0.0576 -0.5363
14938TIP3    H166305   6.017   4.660   4.712 -0.1876  0.2428 -1.1675
14938TIP3    H266306   5.937   4.787   4.694  0.8022  1.4248  2.0964
14939TIP3   OH266307   4.070   1.706   6.409  0.0287 -0.0194 -0.1457
14939TIP3    H166308   4.042   1.622   6.446  0.1782 -0.5395 -1.1765
14939TIP3    H266309   4.111   1.683   6.326  1.4830  0.9376  0.2662
14940TIP3   OH266310   2.195   5.168  14.891 -0.1151  1.3345  0.2064
14940TIP3    H166311   2.123   5.179  14.953  0.8652  0.1579  1.6252
14940TIP3    H266312   2.250   5.245  14.903  1.2834  0.0717  2.5577
14941TIP3   OH266313   2.638   3.742  15.090 -0.2096 -0.7370 -0.0248
14941TIP3    H166314   2.607   3.805  15.026 -0.7663 -1.5654 -0.5934
14941TIP3    H266315   2.723   3.775  15.119 -0.2911  0.0198 -0.6459
14942TIP3   OH266316   0.363   5.659  16.784 -0.1835 -0.0324  0.1764
14942TIP3    H166317   0.372   5.688  16.693  0.6821 -1.3204 -0.1805
14942TIP3    H266318   0.426   5.588  16.792  0.0931  0.3831  1.9376
14943TIP3   OH266319   6.548   2.454  16.345 -0.4256 -0.3297  0.9097
14943TIP3    H166320   6.596   2.383  16.387  0.0158 -0.4294  0.2476
14943TIP3    H266321   6.569   2.532  16.398 -1.4287 -0.7893  2.0271
14944TIP3   OH266322   5.648   2.058  16.794  0.4561 -0.3353 -0.1381
14944TIP3    H166323   5.644   1.982  16.852 -0.2427 -0.8282 -0.8222
14944TIP3    H266324   5.700   2.029  16.719  2.0419  0.5415  0.5534
14945TIP3   OH266325   1.869   3.977   0.852 -0.2355 -0.4340  0.4205
14945TIP3    H166326   1.800   3.910   0.849  0.2788 -0.9399 -0.5695
14945TIP3    H266327   1.866   4.017   0.765  1.6144 -1.3984 -0.1359
14946TIP3   OH266328   5.133   3.743   0.193 -0.3184 -0.4143 -0.4444
14946TIP3    H166329   5.134   3.665   0.248 -0.2439 -0.8540 -1.0523
14946TIP3    H266330   5.041   3.770   0.192 -0.4618 -0.8929 -0.7706
14947TIP3   OH266331   3.865   2.687   0.187  0.2460 -0.0269 -0.3472
14947TIP3    H166332   3.792   2.625   0.187 -0.3252  0.6388  0.2430
14947TIP3    H266333   3.877   2.709   0.094 -1.5003  1.2383 -0.3068
14948TIP3   OH266334   1.916   4.013  14.535  0.5800  0.1938  0.4614
14948TIP3    H166335   2.009   4.017  14.514  0.2789 -0.7905 -1.2382
14948TIP3    H266336   1.899   3.920  14.551  0.1508  0.5348  2.2444
14949TIP3   OH266337   0.626   1.092  13.972 -0.4690  0.4317 -0.5629
14949TIP3    H166338   0.626   0.997  13.982  1.2777  0.4870  0.3223
14949TIP3    H266339   0.582   1.108  13.888 -1.5156 -1.0885 -0.3248
14950TIP3   OH266340   1.004   1.833  11.156 -0.3290  0.2355  0.4551
14950TIP3    H166341   0.942   1.840  11.084 -2.4207 -0.7892  2.0553
14950TIP3    H266342   0.969   1.891  11.224  0.1473 -0.7564  1.5854
14951TIP3   OH266343   6.308   0.885   5.595 -0.5000 -0.2514  0.3618
14951TIP3    H166344   6.266   0.906   5.511 -0.5600  0.7698  0.6366
14951TIP3    H266345   6.358   0.964   5.617  0.4555 -0.9463  0.7205
14952TIP3   OH266346   3.274   1.289   5.097 -0.0391 -0.1990  0.0058
14952TIP3    H166347   3.359   1.308   5.057 -0.5079  0.7036 -0.6035
14952TIP3    H266348   3.211   1.335   5.042 -0.8872 -0.5186  0.6864
14953TIP3   OH266349   5.593   6.208  12.634  0.6391 -0.1275 -0.0257
14953TIP3    H166350   5.665   6.246  12.683 -0.2106  1.3522  0.1237
14953TIP3    H266351   5.518   6.211  12.694  0.1172 -0.3653 -0.6444
14954TIP3   OH266352   6.467   2.499  14.123 -0.0305 -0.2842  0.7929
14954TIP3    H166353   6.435   2.416  14.089 -0.1210 -0.0422  0.2732
14954TIP3    H266354   6.506   2.543  14.048  1.0693 -0.3538  1.3088
14955TIP3   OH266355   5.225   6.223   0.120 -0.1345 -0.9324  0.2293
14955TIP3    H166356   5.189   6.246   0.034  0.3561 -0.8085  0.0538
14955TIP3    H266357   5.291   6.290   0.137  0.4246 -1.4876  0.2775
14956TIP3   OH266358   3.222   1.455   1.977 -0.2153  0.2244  0.2045
14956TIP3    H166359   3.242   1.492   1.891  1.6486 -1.7084 -0.2850
14956TIP3    H266360   3.270   1.373   1.979 -1.3634 -0.4724  2.5764
14957TIP3   OH266361   6.761   0.015   5.293  0.3055  0.6081 -0.5501
14957TIP3    H166362   6.667   0.015   5.310  0.3062  1.1142 -0.5403
14957TIP3    H266363   6.772   0.071   5.216  0.7608  1.7864  0.3555
14958TIP3   OH266364   4.885   2.215   4.367  0.1746 -0.5810 -0.0259
14958TIP3    H166365   4.802   2.184   4.402 -0.1972 -0.3617 -0.6853
14958TIP3    H266366   4.866   2.303   4.333  0.3470 -1.0091 -1.3207
14959TIP3   OH266367   1.476   5.979   2.981 -0.1349  0.0398 -0.3678
14959TIP3    H166368   1.392   5.935   2.970 -0.2888  0.3675 -0.5139
14959TIP3    H266369   1.455   6.060   3.029  0.2440 -0.3888  0.5403
14960TIP3   OH266370   6.016   0.685  14.940  0.2901  0.0265  0.9564
14960TIP3    H166371   6.098   0.731  14.955  1.1716 -0.9197 -0.7531
14960TIP3    H266372   5.985   0.663  15.028  1.9073  0.3231  1.6396
14961TIP3   OH266373   3.482   3.626  13.593 -0.2181  0.7118 -0.3385
14961TIP3    H166374   3.454   3.535  13.599 -0.4686  0.7875 -0.3189
14961TIP3    H266375   3.515   3.648  13.680 -0.3593  0.7015 -0.2815
14962TIP3   OH266376   3.187   4.692  12.320  0.3613 -0.6535  0.2711
14962TIP3    H166377   3.189   4.650  12.234 -0.2484 -1.5959  0.7005
14962TIP3    H266378   3.102   4.738  12.322  0.9066  0.4113 -0.0908
14963TIP3   OH266379   2.353   2.150  14.621  0.4942 -0.3111 -0.2950
14963TIP3    H166380   2.269   2.180  14.584 -0.3777 -1.6471  0.5183
14963TIP3    H266381   2.418   2.176  14.555 -0.6181  0.2141 -1.2401
14964TIP3   OH266382   1.535   6.328   0.400  0.1999  0.2742  0.0744
14964TIP3    H166383   1.551   6.421   0.383 -1.9950  1.1494  2.2786
14964TIP3    H266384   1.444   6.324   0.429  0.2797 -2.5684  0.1818
14965TIP3   OH266385   1.672   6.360   4.374 -0.2201  0.1387  0.7031
14965TIP3    H166386   1.616   6.416   4.319 -0.6682 -0.3429  0.6579
14965TIP3    H266387   1.760   6.396   4.363 -0.4860  0.7710  0.5956
14966TIP3   OH266388   2.673   3.266  11.068  0.0895 -0.0519 -0.1014
14966TIP3    H166389   2.740   3.214  11.026 -0.1837 -0.0371 -0.5578
14966TIP3    H266390   2.651   3.335  11.005 -1.0852 -0.6676 -0.4049
14967TIP3   OH266391   1.149   5.586  14.646 -0.3193 -0.6241 -0.0364
14967TIP3    H166392   1.155   5.544  14.732  1.2314 -0.1298  0.1227
14967TIP3    H266393   1.104   5.668  14.663 -3.4845 -2.1334 -0.3654
14968TIP3   OH266394   6.104   1.662  17.393  0.7762  0.2415  0.3267
14968TIP3    H166395   6.118   1.571  17.365  1.8555  0.2975  0.6462
14968TIP3    H266396   6.035   1.694  17.335  0.8079 -0.6004 -0.1955
14969TIP3   OH266397   0.005   3.846  15.334  0.3410 -0.2344 -0.5840
14969TIP3    H166398   0.007   3.930  15.380 -0.0703 -0.9264  0.7522
14969TIP3    H266399   0.053   3.862  15.253  0.1691  1.3184 -0.4123
14970TIP3   OH266400   1.870   6.739   6.257 -0.3580  0.0342  0.2092
14970TIP3    H166401   1.828   6.731   6.342 -1.0081 -4.3147 -0.3125
14970TIP3    H266402   1.951   6.690   6.264  0.3562  0.8974 -1.3069
14971TIP3   OH266403   1.096   4.079  14.473 -0.4518  0.3752 -0.1080
14971TIP3    H166404   1.178   4.107  14.431 -1.1672  1.2150 -1.0021
14971TIP3    H266405   1.095   4.125  14.557  1.4707 -2.0761  1.4172
14972TIP3   OH266406   2.343   3.808  12.732  0.3074 -0.3612 -0.0754
14972TIP3    H166407   2.420   3.760  12.762  0.9505 -0.7026 -2.1444
14972TIP3    H266408   2.378   3.882  12.684 -0.5232 -1.6703 -2.9337
14973TIP3   OH266409   0.197   5.307  13.516 -0.1895  0.0914  0.2198
14973TIP3    H166410   0.185   5.401  13.528 -2.7504  0.0513 -1.3584
14973TIP3    H266411   0.137   5.266  13.578  1.1080 -0.5721  1.1016
14974TIP3   OH266412   3.099   3.967   3.838 -0.5461 -0.4493  0.1714
14974TIP3    H166413   3.164   3.931   3.778 -2.6649  1.5357 -3.7524
14974TIP3    H266414   3.029   3.901   3.839 -1.1700  0.1640 -0.9005
14975TIP3   OH266415   4.508   2.601  16.200  0.2376 -0.6078  0.3488
14975TIP3    H166416   4.461   2.576  16.279 -1.3674 -2.3907 -1.0645
14975TIP3    H266417   4.448   2.660  16.154 -0.9011 -3.1216 -1.6033
14976TIP3   OH266418   5.172   2.189  11.347  1.0537  0.8189  0.4917
14976TIP3    H166419   5.116   2.261  11.377  0.6668 -0.1097  2.0950
14976TIP3    H266420   5.209   2.220  11.264  0.5170  2.6585  0.9076
14977TIP3   OH266421   4.728   5.889   2.374 -0.3015 -0.2653  0.1675
14977TIP3    H166422   4.664   5.934   2.319  0.7080 -0.2793 -1.0479
14977TIP3    H266423   4.782   5.838   2.314  0.3119 -0.9495  1.2493
14978TIP3   OH266424   2.482   2.334  11.924  0.7802 -0.2428 -0.1262
14978TIP3    H166425   2.445   2.246  11.912 -0.3654  0.0845  0.8073
14978TIP3    H266426   2.553   2.339  11.860  0.5903 -1.6948 -0.4866
14979TIP3   OH266427   2.978   2.991  12.084  0.1347  0.3520 -0.2584
14979TIP3    H166428   2.965   2.897  12.077  2.3768 -0.2296  2.0069
14979TIP3    H266429   2.945   3.013  12.171  0.1902  1.5558 -0.5258
14980TIP3   OH266430   5.396   0.752   1.941  0.1882  0.8458  0.2876
14980TIP3    H166431   5.484   0.728   1.913  0.5934  2.6666 -0.1251
14980TIP3    H266432   5.389   0.721   2.031 -0.2571 -2.9538 -0.8893
14981TIP3   OH266433   3.944   4.744  17.190  0.1467 -0.1315 -0.8790
14981TIP3    H166434   3.857   4.785  17.189  0.5681  0.7976 -0.3436
14981TIP3    H266435   3.975   4.753  17.100  0.4955  1.3223 -0.6286
14982TIP3   OH266436   0.427   3.303  16.163  0.2054  0.0173 -0.4342
14982TIP3    H166437   0.337   3.305  16.131 -0.4218  1.7015  1.2484
14982TIP3    H266438   0.474   3.248  16.100 -1.4733  1.0342 -2.6913
14983TIP3   OH266439   4.182   3.215   6.231 -0.0475 -0.0188  0.1523
14983TIP3    H166440   4.230   3.288   6.192  0.3017  0.1302  0.8440
14983TIP3    H266441   4.247   3.144   6.237 -0.4319 -0.4554 -0.6836
14984TIP3   OH266442   6.561   3.152   1.118 -0.4242 -0.0185 -0.2431
14984TIP3    H166443   6.595   3.227   1.166  1.5629  0.5341 -2.3746
14984TIP3    H266444   6.500   3.189   1.054 -1.6291 -0.5662  0.5367
14985TIP3   OH266445   6.399   0.930  16.871 -0.0976  0.9572  0.1686
14985TIP3    H166446   6.408   0.951  16.964  1.1048 -0.1428  0.3350
14985TIP3    H266447   6.334   0.860  16.869 -0.2548  1.1032  0.1608
14986TIP3   OH266448   0.260   5.079   0.017 -0.1013  0.2811  0.5820
14986TIP3    H166449   0.324   5.074   0.089 -2.0832  0.7764  2.4955
14986TIP3    H266450   0.212   4.996   0.022  0.7116 -0.3618 -1.2497
14987TIP3   OH266451   5.557   3.438  16.448 -0.0728 -0.4595 -0.2160
14987TIP3    H166452   5.464   3.427  16.465 -0.0226 -1.2540 -0.3866
14987TIP3    H266453   5.594   3.350  16.460  0.6152 -0.1980 -0.3623
14988TIP3   OH266454   5.315   0.136   3.234  0.0337 -0.0435 -0.2863
14988TIP3    H166455   5.237   0.191   3.246 -2.5300 -2.9503 -2.1338
14988TIP3    H266456   5.314   0.077   3.309 -1.6449 -2.2480 -1.9153
14989TIP3   OH266457   4.632   1.377   1.032 -0.0097 -0.1093  0.5269
14989TIP3    H166458   4.588   1.404   1.112  1.2921 -1.8169  1.8946
14989TIP3    H266459   4.654   1.459   0.987 -3.4263  0.8283  0.3361
14990TIP3   OH266460   1.525   1.362   3.288  0.0675  0.4141  0.0764
14990TIP3    H166461   1.451   1.407   3.246 -0.3355 -1.5760 -1.5301
14990TIP3    H266462   1.566   1.428   3.344 -1.2509  2.3520 -1.1542
14991TIP3   OH266463   0.710   6.497   6.078 -0.0135 -0.1240  0.1341
14991TIP3    H166464   0.622   6.533   6.083  0.1887  0.4635 -0.3674
14991TIP3    H266465   0.701   6.407   6.108 -1.4738 -1.3073 -3.3658
14992TIP3   OH266466   0.099   3.988  12.772  0.3565  0.0051 -0.0665
14992TIP3    H166467   0.063   4.013  12.687  0.6045 -0.9836 -0.4823
14992TIP3    H266468   0.109   3.893  12.766  1.1209  0.0210  0.7820
14993TIP3   OH266469   3.055   2.962  17.285  0.4551 -0.3169 -0.0849
14993TIP3    H166470   2.985   2.922  17.233 -0.1370  1.3099 -0.6206
14993TIP3    H266471   3.023   3.051  17.302  0.8530 -0.6302  2.6558
14994TIP3   OH266472   3.342   6.142  15.081 -0.0146  0.3109  0.4769
14994TIP3    H166473   3.260   6.146  15.032  0.5975 -0.3717 -0.6645
14994TIP3    H266474   3.362   6.233  15.103 -0.6600  0.5660  0.0448
14995TIP3   OH266475   5.933   3.156   5.575 -1.0433 -0.3275  0.1590
14995TIP3    H166476   5.936   3.251   5.589  1.4459 -0.3631  0.3312
14995TIP3    H266477   5.939   3.118   5.663  1.1775 -0.5943 -0.0687
14996TIP3   OH266478   3.501   2.782  11.843 -0.0968  0.3421 -0.1486
14996TIP3    H166479   3.578   2.733  11.870 -0.1058 -0.2286 -1.1263
14996TIP3    H266480   3.452   2.722  11.787 -0.5152  1.1850 -0.7139
14997TIP3   OH266481   0.528   4.376  17.388 -0.0723 -0.2471 -0.1776
14997TIP3    H166482   0.462   4.310  17.366  1.4638 -2.5334  1.6744
14997TIP3    H266483   0.503   4.407  17.475 -1.6434  2.9465 -1.5691
14998TIP3   OH266484   4.499   0.472   2.489  0.1472  0.6344  0.6801
14998TIP3    H166485   4.442   0.507   2.420  0.2899  1.1770  0.8386
14998TIP3    H266486   4.477   0.523   2.567 -0.4622 -0.3926  1.2104
14999TIP3   OH266487   1.692   4.083   1.809  0.5704 -0.2984  0.2753
14999TIP3    H166488   1.604   4.055   1.833  0.2953  0.8043  0.5799
14999TIP3    H266489   1.741   4.086   1.891  0.2412  1.3249  0.4324
15000TIP3   OH266490   3.317   2.099  15.746 -0.0108  0.3198 -0.5261
15000TIP3    H166491   3.313   2.119  15.840  1.7473 -0.5822 -0.2263
15000TIP3    H266492   3.378   2.026  15.739 -0.9031 -0.3246 -2.2913
15001TIP3   OH266493   5.123   5.079  14.077 -0.6058 -0.7537 -0.1441
15001TIP3    H166494   5.120   5.127  14.159  1.6047 -1.6383  0.5222
15001TIP3    H266495   5.088   4.993  14.099 -0.6963 -0.7612 -0.3173
15002TIP3   OH266496   4.146   4.637  13.902 -0.8048  0.4360  0.0143
15002TIP3    H166497   4.115   4.565  13.957  1.1991 -0.6667 -0.2106
15002TIP3    H266498   4.136   4.715  13.957 -2.6197 -0.0341  0.4166
15003TIP3   OH266499   6.073   6.503   3.061  0.1766  0.2563 -0.2374
15003TIP3    H166500   6.136   6.471   2.997 -2.1568 -0.2757 -2.4431
15003TIP3    H266501   6.060   6.595   3.039  0.9199  0.6667  0.9195
15004TIP3   OH266502   4.355   5.733   0.563  0.0486  0.1452 -0.3745
15004TIP3    H166503   4.411   5.810   0.569  1.1762 -0.5977 -1.0196
15004TIP3    H266504   4.284   5.750   0.625  0.3370  1.6367 -0.4211
15005TIP3   OH266505   0.493   1.983   5.799  0.2085 -0.1842  0.3679
15005TIP3    H166506   0.507   2.016   5.710  0.8337 -0.4481  0.3647
15005TIP3    H266507   0.458   1.895   5.788 -3.1899  1.0107  0.3435
15006TIP3   OH266508   1.429   0.165  16.702  0.4689 -0.6938 -0.0826
15006TIP3    H166509   1.513   0.161  16.656  0.1355  0.1971 -0.7876
15006TIP3    H266510   1.371   0.109  16.651  0.8679 -2.1404  0.9740
15007TIP3   OH266511   1.318   0.876  11.629 -0.8704 -0.2853  0.2818
15007TIP3    H166512   1.266   0.864  11.709 -0.0930 -2.3580  0.5397
15007TIP3    H266513   1.344   0.787  11.605  2.1668  0.6061 -0.0913
15008TIP3   OH266514   3.286   2.733  13.834  0.4062  0.1382 -1.0106
15008TIP3    H166515   3.252   2.799  13.774  1.4235  0.8071 -0.8797
15008TIP3    H266516   3.281   2.651  13.785 -2.8095 -0.1401 -0.4724
15009TIP3   OH266517   1.427   3.994  16.534 -0.1187 -0.1175 -0.1072
15009TIP3    H166518   1.503   4.049  16.553 -0.6295  0.5920 -0.0375
15009TIP3    H266519   1.395   4.025  16.449  1.4647 -2.4970 -1.6711
15010TIP3   OH266520   1.776   6.224  11.993 -0.2839  0.0720 -0.0902
15010TIP3    H166521   1.803   6.231  11.902  0.4845 -0.1303  0.1107
15010TIP3    H266522   1.681   6.214  11.990 -0.3450  0.7832 -0.8276
15011TIP3   OH266523   1.997   5.295   1.137 -0.4753 -0.3315  0.2073
15011TIP3    H166524   1.920   5.350   1.122 -1.4620 -1.5489  0.6052
15011TIP3    H266525   1.977   5.249   1.219  1.1608  0.1106  0.8834
15012TIP3   OH266526   4.892   5.262   1.727 -0.2258  0.1732 -0.8333
15012TIP3    H166527   4.929   5.339   1.769 -0.4519  0.0303 -0.3641
15012TIP3    H266528   4.905   5.191   1.789 -1.6638  0.2029 -0.4536
15013TIP3   OH266529   6.639   5.955  17.308  0.4792 -0.2237  0.3182
15013TIP3    H166530   6.552   5.942  17.271  0.3060 -0.1648  0.7037
15013TIP3    H266531   6.644   6.049  17.328  0.7083 -0.1884  0.1056
15014TIP3   OH266532   5.723   0.251   3.940  0.8299  0.5117  0.3491
15014TIP3    H166533   5.746   0.178   3.997  0.8401  0.6240  0.4900
15014TIP3    H266534   5.807   0.289   3.913  0.8215  0.5739  0.4100
15015TIP3   OH266535   1.977   4.647  15.477  0.1158 -0.0578 -0.1665
15015TIP3    H166536   1.999   4.683  15.391  1.1473 -1.3387 -0.4702
15015TIP3    H266537   1.904   4.701  15.508 -1.5332 -0.7096 -2.6438
15016TIP3   OH266538   1.865   2.508   3.412 -0.2746 -0.6196 -0.7238
15016TIP3    H166539   1.855   2.422   3.372 -2.1171  0.5723 -3.0584
15016TIP3    H266540   1.789   2.558   3.383 -0.5401  1.1405  2.4788
15017TIP3   OH266541   3.841   1.080   0.504 -0.0547 -0.4991 -0.1092
15017TIP3    H166542   3.936   1.069   0.495 -0.0445 -0.0703 -0.5544
15017TIP3    H266543   3.830   1.127   0.587  0.1231 -0.4497 -0.1135
15018TIP3   OH266544   4.544   3.593   6.008 -0.0335 -0.1599  0.6084
15018TIP3    H166545   4.486   3.654   5.963  0.7294  0.9986  1.1547
15018TIP3    H266546   4.552   3.519   5.947 -1.2181  0.1283  0.0696
15019TIP3   OH266547   3.412   4.722   4.822  0.1978 -0.8079 -0.1195
15019TIP3    H166548   3.342   4.779   4.854  1.0671 -0.0684  0.4892
15019TIP3    H266549   3.477   4.782   4.785 -0.4504 -1.5687 -2.7326
15020TIP3   OH266550   1.224   4.974   3.328  0.1185  0.1457  0.0310
15020TIP3    H166551   1.246   5.004   3.416 -0.5159 -1.3440  0.7356
15020TIP3    H266552   1.136   5.009   3.312  0.6086  1.2170 -0.4243
15021TIP3   OH266553   2.960   2.513   5.829  0.0928 -0.2652  0.5131
15021TIP3    H166554   3.055   2.510   5.816 -0.0823 -0.0080 -0.9920
15021TIP3    H266555   2.928   2.431   5.791 -0.2320 -0.7108  1.7052
15022TIP3   OH266556   3.615   0.628  12.109 -0.5241 -0.3221 -0.6278
15022TIP3    H166557   3.596   0.563  12.176 -2.1666 -0.6904 -1.3728
15022TIP3    H266558   3.531   0.673  12.096  0.0309  0.4484 -1.6674
15023TIP3   OH266559   4.709   6.500   5.777 -0.2474 -0.2065  0.2602
15023TIP3    H166560   4.621   6.496   5.740 -0.8536 -1.2620  1.7202
15023TIP3    H266561   4.705   6.572   5.840  0.1664  0.2428 -0.2245
15024TIP3   OH266562   3.429   4.645   5.783 -0.4063 -0.8444 -0.3489
15024TIP3    H166563   3.375   4.681   5.713  0.6893  0.5999 -0.4862
15024TIP3    H266564   3.371   4.641   5.859 -0.9202 -0.0442 -0.6888
15025TIP3   OH266565   1.893   1.518   4.642 -0.0958 -0.4936  0.6321
15025TIP3    H166566   1.846   1.545   4.563 -0.5449 -2.5457  0.1526
15025TIP3    H266567   1.983   1.504   4.612 -0.6008 -2.8946  0.0238
15026TIP3   OH266568   4.517   4.141   5.754 -0.2718 -0.4833  0.1032
15026TIP3    H166569   4.572   4.073   5.715 -0.0056 -0.4305  0.3835
15026TIP3    H266570   4.579   4.198   5.800 -0.5393 -0.2927  0.2266
15027TIP3   OH266571   0.574   3.334   3.390 -0.5413  0.3731 -0.1466
15027TIP3    H166572   0.597   3.313   3.481  0.8311 -0.0719 -0.5603
15027TIP3    H266573   0.479   3.331   3.388 -0.5652 -1.1840  0.9286
15028TIP3   OH266574   5.643   5.432   6.696 -0.7759  0.7703  0.3174
15028TIP3    H166575   5.554   5.397   6.685 -0.5656  0.4166 -0.3168
15028TIP3    H266576   5.700   5.363   6.664 -0.1747  0.3616  2.1517
15029TIP3   OH266577   1.196   0.035  16.085  0.1105  0.1545  0.1044
15029TIP3    H166578   1.215   0.004  16.174 -0.6022 -0.0601  0.1881
15029TIP3    H266579   1.110   0.077  16.092  0.0006  0.0426 -0.5005
15030TIP3   OH266580   4.997   3.864   3.376  0.5209 -0.5916  0.9587
15030TIP3    H166581   5.012   3.906   3.291 -0.7866 -1.1405  0.4446
15030TIP3    H266582   5.059   3.908   3.435  0.2927  0.9771  0.0969
15031TIP3   OH266583   2.331   4.822   0.918 -0.1320  0.0796  0.2977
15031TIP3    H166584   2.425   4.810   0.934  0.5961  1.9346 -2.0075
15031TIP3    H266585   2.305   4.890   0.980  0.4613  0.7496 -0.1721
15032TIP3   OH266586   4.562   6.305   1.860  0.8218 -0.1925  0.5490
15032TIP3    H166587   4.525   6.224   1.896 -0.0620  0.0838  0.2809
15032TIP3    H266588   4.494   6.339   1.802  0.4299  1.6560  1.9804
15033TIP3   OH266589   3.048   0.178  12.840 -0.5777 -0.0118  0.0493
15033TIP3    H166590   3.122   0.155  12.784 -0.3802 -2.1904  1.0873
15033TIP3    H266591   2.992   0.233  12.785  0.8463  0.0725 -1.3897
15034TIP3   OH266592   3.821   0.575   5.290  0.2565 -0.2835  0.5915
15034TIP3    H166593   3.777   0.510   5.235  0.3666  0.1656 -0.0431
15034TIP3    H266594   3.875   0.523   5.350  1.2916 -0.7632 -0.7108
15035TIP3   OH266595   0.194   3.310  11.876 -0.5461  0.1469  0.0828
15035TIP3    H166596   0.275   3.282  11.919  0.0706 -0.0900 -1.1826
15035TIP3    H266597   0.172   3.238  11.817 -1.3280  0.4909 -0.0566
15036TIP3   OH266598   5.775   4.844   0.631 -0.2795 -0.2211 -0.1088
15036TIP3    H166599   5.860   4.805   0.615 -0.5990 -0.1765 -2.1762
15036TIP3    H266600   5.788   4.938   0.616 -0.4092 -0.0156  0.9410
15037TIP3   OH266601   5.759   1.553  15.549 -0.4743  0.3586  0.3544
15037TIP3    H166602   5.686   1.590  15.598 -2.1684 -0.0467 -1.7047
15037TIP3    H266603   5.718   1.488  15.491  1.5824 -0.1510 -0.6163
15038TIP3   OH266604   3.119   2.473   0.953  0.1187 -0.0377  0.2111
15038TIP3    H166605   3.198   2.521   0.981 -0.5112  1.4343 -0.4156
15038TIP3    H266606   3.148   2.382   0.945  1.3001  0.1468  1.7281
15039TIP3   OH266607   2.546   5.684   1.245 -1.0765 -0.1396  0.0560
15039TIP3    H166608   2.486   5.741   1.294 -1.9966 -2.0613  1.2880
15039TIP3    H266609   2.491   5.611   1.216  0.3727 -1.2450 -0.0152
15040TIP3   OH266610   3.651   3.679  13.332  0.4076  0.3183 -0.4134
15040TIP3    H166611   3.691   3.765  13.348  1.0298 -0.1521  0.7415
15040TIP3    H266612   3.623   3.650  13.419  1.8926 -1.4483 -0.4584
15041TIP3   OH266613   0.557   4.870  11.907  0.3186  0.2790  0.3535
15041TIP3    H166614   0.647   4.894  11.885  0.2108  1.3821  1.0463
15041TIP3    H266615   0.506   4.948  11.888 -0.8900 -1.0174 -2.1447
15042TIP3   OH266616   3.275   4.165  15.733 -1.0052 -0.5197 -0.4373
15042TIP3    H166617   3.241   4.183  15.645 -0.3900  2.2763 -0.1982
15042TIP3    H266618   3.249   4.241  15.785 -1.1103 -1.9766  1.7550
15043TIP3   OH266619   5.274   1.091  17.415  0.4856 -0.2387 -0.4111
15043TIP3    H166620   5.286   1.183  17.396  0.3595 -0.0865  0.2066
15043TIP3    H266621   5.360   1.060  17.443 -0.3264  0.9104  4.2499
15044TIP3   OH266622   2.248   1.585  16.489 -0.1003 -0.7005 -0.1958
15044TIP3    H166623   2.170   1.553  16.445  1.0143 -1.8020 -1.4599
15044TIP3    H266624   2.283   1.508  16.535 -0.4649  0.0980  1.4856
15045TIP3   OH266625   5.975   2.584  13.497  0.0697  0.0883  0.3429
15045TIP3    H166626   6.061   2.551  13.524  0.1557 -0.9037 -1.0315
15045TIP3    H266627   5.985   2.603  13.404 -1.1434  0.1528  0.2126
15046TIP3   OH266628   4.970   5.228   5.251  0.6591  0.0475  0.0437
15046TIP3    H166629   5.037   5.190   5.309 -1.5437 -1.0379  2.0676
15046TIP3    H266630   4.947   5.311   5.293 -1.5152 -1.1113  1.3202
15047TIP3   OH266631   0.755   2.528   5.593  0.4798  0.3799  0.3082
15047TIP3    H166632   0.759   2.435   5.572  1.6417  0.4266  0.2483
15047TIP3    H266633   0.722   2.531   5.683 -0.1591 -0.0503  0.0914
15048TIP3   OH266634   3.901   0.599  16.053  0.0045  0.1800  0.2496
15048TIP3    H166635   3.854   0.677  16.082  0.2153  1.3109 -2.1976
15048TIP3    H266636   3.990   0.611  16.086  0.7999  2.4784 -2.3386
15049TIP3   OH266637   3.581   2.130   3.145  0.3664 -0.2148 -1.0030
15049TIP3    H166638   3.651   2.094   3.091  1.3043  1.3030 -0.8585
15049TIP3    H266639   3.626   2.186   3.208 -0.9646  0.8372 -0.9351
15050TIP3   OH266640   6.178   6.515  15.496 -0.1708 -0.0314 -0.3870
15050TIP3    H166641   6.086   6.540  15.487 -0.0026  0.1352 -1.9988
15050TIP3    H266642   6.194   6.459  15.420  1.4089  1.0835 -0.9118
15051TIP3   OH266643   0.389   4.102   0.508  0.1445 -0.0998 -0.0241
15051TIP3    H166644   0.297   4.117   0.529  0.0009  0.7776 -1.1687
15051TIP3    H266645   0.393   4.011   0.479 -0.2746 -0.2825  0.4878
15052TIP3   OH266646   4.548   3.610  13.598 -0.0995  0.4325  0.1678
15052TIP3    H166647   4.599   3.652  13.667  0.8885  0.4362 -0.5365
15052TIP3    H266648   4.573   3.518  13.603 -0.9380  0.2169  0.5795
15053TIP3   OH266649   0.601   5.022  14.864  0.1428  0.3670 -0.5612
15053TIP3    H166650   0.652   5.062  14.935 -1.2499 -0.7092  1.1456
15053TIP3    H266651   0.608   5.084  14.792 -0.1960  2.6728  1.2557
15054TIP3   OH266652   4.861   1.763   0.758  0.0010  0.3385 -0.1943
15054TIP3    H166653   4.882   1.742   0.667  0.0060  0.6863 -0.2752
15054TIP3    H266654   4.860   1.858   0.761 -0.5300  0.3284  0.0474
15055TIP3   OH266655   0.564   6.348   5.883  0.5271 -0.7607  0.2051
15055TIP3    H166656   0.584   6.268   5.834  1.2114  0.0969 -0.9621
15055TIP3    H266657   0.641   6.403   5.873 -0.9431  1.1906 -1.3976
15056TIP3   OH266658   5.696   1.215  13.967 -0.1993 -0.3991  0.7137
15056TIP3    H166659   5.704   1.152  13.896  0.0403  0.3820  0.0332
15056TIP3    H266660   5.745   1.291  13.937  0.3627 -0.2528  1.9455
15057TIP3   OH266661   3.976   2.944   3.272 -0.1178 -0.0628 -0.2005
15057TIP3    H166662   3.899   2.991   3.306 -2.1084 -2.7733 -0.6016
15057TIP3    H266663   3.995   2.879   3.340  0.9269 -0.3410 -0.7541
15058TIP3   OH266664   1.015   4.482  11.016  0.4061 -0.3247 -0.0466
15058TIP3    H166665   0.928   4.494  11.055  0.9152  2.9602  0.3479
15058TIP3    H266666   1.041   4.394  11.044 -2.1406 -0.8126  1.1148
15059TIP3   OH266667   2.362   3.269  13.855  0.2430  0.0304 -0.2282
15059TIP3    H166668   2.457   3.277  13.857  0.1640  0.9210  0.2825
15059TIP3    H266669   2.345   3.218  13.776  1.1346 -0.0166 -0.4049
15060TIP3   OH266670   0.764   4.063   2.512 -0.3643  1.0633  0.2670
15060TIP3    H166671   0.763   4.156   2.533  0.7187  1.2151 -0.2638
15060TIP3    H266672   0.839   4.053   2.453 -1.9886  0.3189 -1.8201
15061TIP3   OH266673   3.236   5.731  11.799 -0.3543  0.3382 -0.2468
15061TIP3    H166674   3.324   5.760  11.772 -0.5933  2.4533  1.0403
15061TIP3    H266675   3.195   5.703  11.717  0.2993  2.8004 -1.5255
15062TIP3   OH266676   3.969   1.600  10.812 -0.1092  0.4162  0.4257
15062TIP3    H166677   3.970   1.505  10.813  3.0452  0.3590  1.5024
15062TIP3    H266678   3.960   1.623  10.719 -0.4910 -0.9002  0.1116
15063TIP3   OH266679   4.559   3.027   1.936 -0.1404  0.1166 -0.5909
15063TIP3    H166680   4.636   2.972   1.918 -0.7698 -1.6262  1.7115
15063TIP3    H266681   4.590   3.091   2.000 -0.4447 -0.2343 -0.0862
15064TIP3   OH266682   1.273   4.903   3.947 -0.1356 -0.6069  0.1808
15064TIP3    H166683   1.341   4.936   4.005 -0.3543 -1.1396  0.7582
15064TIP3    H266684   1.273   4.808   3.962 -2.0253 -0.4856  1.3487
15065TIP3   OH266685   5.641   4.628  16.385 -0.2963 -0.0935 -0.4050
15065TIP3    H166686   5.668   4.556  16.328  1.1661  0.7794 -0.8816
15065TIP3    H266687   5.663   4.598  16.474  0.7339 -0.0826 -0.6412
15066TIP3   OH266688   1.452   3.424  15.163 -0.2136 -0.4676 -0.6740
15066TIP3    H166689   1.527   3.483  15.161  0.0603 -0.7720  0.2479
15066TIP3    H266690   1.417   3.426  15.074 -0.8514  1.9170 -0.4450
15067TIP3   OH266691   2.361   2.878  11.946  0.2507 -0.3074 -0.6468
15067TIP3    H166692   2.452   2.898  11.920  0.2279 -0.6175 -0.9843
15067TIP3    H266693   2.350   2.920  12.030  0.8155 -0.5296 -0.4553
15068TIP3   OH266694   6.237   2.293  12.301 -0.1351  0.1778  0.3373
15068TIP3    H166695   6.168   2.293  12.235  1.2060  0.9667 -1.1309
15068TIP3    H266696   6.267   2.202  12.305 -0.1181  0.1497 -0.2857
15069TIP3   OH266697   0.273   3.920  14.334  0.0565  0.2578 -0.1382
15069TIP3    H166698   0.210   3.853  14.307  0.1815  0.4105 -0.8326
15069TIP3    H266699   0.234   4.002  14.305 -0.0909  0.4875  0.7018
15070TIP3   OH266700   0.136   2.258   6.635 -0.4649 -0.5302  0.4037
15070TIP3    H166701   0.213   2.204   6.655 -1.1305 -0.7362  2.5995
15070TIP3    H266702   0.067   2.194   6.616 -0.0741 -0.3445 -1.9397
15071TIP3   OH266703   6.279   2.713   2.930  0.0623  0.3369  0.1909
15071TIP3    H166704   6.279   2.767   3.009  0.2696  0.7157 -0.0646
15071TIP3    H266705   6.362   2.666   2.933 -1.0241 -1.6489  1.5294
15072TIP3   OH266706   2.277   5.624   5.786 -0.4490 -0.6105 -1.4314
15072TIP3    H166707   2.316   5.590   5.705 -0.1504 -2.1833 -0.6714
15072TIP3    H266708   2.184   5.605   5.777 -0.6405  0.5542 -2.0218
15073TIP3   OH266709   6.766   2.332   0.654 -0.3575  0.0464  0.2544
15073TIP3    H166710   6.712   2.273   0.706 -0.2034  0.9395  1.4579
15073TIP3    H266711   6.726   2.418   0.666 -0.3616  0.2652 -1.1823
15074TIP3   OH266712   1.064   5.828  16.442 -0.0106  0.1720  0.4662
15074TIP3    H166713   1.064   5.826  16.346  1.2522  0.3120  0.4450
15074TIP3    H266714   1.006   5.901  16.464  1.2742  1.4668 -0.2646
15075TIP3   OH266715   3.291   0.722   6.611 -0.4465 -0.0533 -0.2740
15075TIP3    H166716   3.244   0.648   6.573 -1.1293 -0.2832  0.9578
15075TIP3    H266717   3.372   0.728   6.560 -1.2891 -0.3656 -1.6966
15076TIP3   OH266718   2.660   6.566   0.714  0.3228 -0.3512 -0.1113
15076TIP3    H166719   2.698   6.536   0.632 -0.8658 -0.5965 -0.5896
15076TIP3    H266720   2.576   6.520   0.720  0.4374 -0.4320  1.2981
15077TIP3   OH266721   5.503   1.635  11.794 -0.6804 -0.0588  0.3131
15077TIP3    H166722   5.555   1.556  11.786  0.1715  0.1011  3.0162
15077TIP3    H266723   5.482   1.640  11.888 -2.9947  1.4990 -0.2051
15078TIP3   OH266724   4.288   3.628  13.520  0.4523 -0.2102 -0.3380
15078TIP3    H166725   4.371   3.614  13.566  0.4904  1.4150  0.1642
15078TIP3    H266726   4.233   3.672  13.584 -0.4688 -0.4020 -0.9817
15079TIP3   OH266727   0.022   3.560   2.485  0.4246 -0.1268  0.3682
15079TIP3    H166728   0.113   3.546   2.459  0.2609  0.3148 -0.5105
15079TIP3    H266729  -0.011   3.622   2.420 -1.0360 -1.7103 -0.4567
15080TIP3   OH266730   0.071   5.713   2.044  0.0442 -0.7160  0.1375
15080TIP3    H166731   0.098   5.645   1.982  0.6221 -1.3570  1.0767
15080TIP3    H266732   0.032   5.665   2.117 -0.4049  0.0178  0.3876
15081TIP3   OH266733   5.857   1.516   1.672  0.1701  0.4349 -0.0687
15081TIP3    H166734   5.795   1.444   1.664  2.0371 -1.1723 -0.8463
15081TIP3    H266735   5.899   1.522   1.587  2.1711  0.3840  0.8492
15082TIP3   OH266736   6.459   1.237  17.113  0.3227 -0.3867 -0.2235
15082TIP3    H166737   6.546   1.236  17.152  1.2181 -1.1738 -2.1187
15082TIP3    H266738   6.436   1.329  17.107 -0.4798 -0.2103  3.3063
15083TIP3   OH266739   3.014   5.876  14.895  0.2987 -0.7957  0.0979
15083TIP3    H166740   3.047   5.961  14.925 -0.6526 -0.4516  0.2106
15083TIP3    H266741   2.998   5.888  14.801 -0.7352 -0.5386  0.2944
15084TIP3   OH266742   3.015   5.452  11.816  0.6251 -0.1653  0.0684
15084TIP3    H166743   2.994   5.508  11.891  0.4029 -0.8756  0.5355
15084TIP3    H266744   3.017   5.363  11.851  3.8521 -0.2499 -0.0198
15085TIP3   OH266745   4.587   2.397   4.169 -0.3409  0.6502  0.2870
15085TIP3    H166746   4.669   2.404   4.120  0.8312 -0.2614  2.0128
15085TIP3    H266747   4.551   2.312   4.144 -0.5306  0.8491 -0.1229
15086TIP3   OH266748   0.812   5.229  15.631 -0.3991 -0.0944 -0.2009
15086TIP3    H166749   0.894   5.203  15.590 -0.4797 -1.2000  0.3224
15086TIP3    H266750   0.815   5.325  15.632  0.0952 -0.0625 -1.7730
15087TIP3   OH266751   3.795   4.077   5.411 -0.1605  0.1169  0.0176
15087TIP3    H166752   3.846   4.058   5.332  1.9801 -0.3882  1.4164
15087TIP3    H266753   3.732   4.005   5.416 -0.2143  0.0618 -1.1207
15088TIP3   OH266754   3.121   6.150   1.139  0.2521 -0.8480  0.4673
15088TIP3    H166755   3.125   6.092   1.063 -0.5248 -1.7458  1.0916
15088TIP3    H266756   3.212   6.157   1.168  0.8760  1.1402 -1.7017
15089TIP3   OH266757   5.862   1.067   1.885  0.4600 -0.4850 -0.4737
15089TIP3    H166758   5.932   1.024   1.836  0.2806  0.8388 -1.9635
15089TIP3    H266759   5.782   1.025   1.857  0.5481 -1.4152  0.5921
15090TIP3   OH266760   2.853   0.233   2.106 -0.1429 -0.1208 -0.1711
15090TIP3    H166761   2.837   0.147   2.144 -1.2894  0.4038  0.5869
15090TIP3    H266762   2.785   0.244   2.040 -0.2427  0.3616  0.0074
15091TIP3   OH266763   6.663   0.951   3.783  0.5005  0.4280  0.3077
15091TIP3    H166764   6.575   0.944   3.820  0.4532 -1.0586 -0.0189
15091TIP3    H266765   6.664   1.037   3.739 -0.4494  0.8772  1.1212
15092TIP3   OH266766   4.538   5.114  13.822  0.4115  0.1741  0.2660
15092TIP3    H166767   4.477   5.176  13.781 -0.3030 -0.2741  0.6368
15092TIP3    H266768   4.622   5.160  13.822 -0.3883  1.7651  1.8903
15093TIP3   OH266769   1.467   1.642  13.468  0.1091 -0.0080  0.3040
15093TIP3    H166770   1.438   1.551  13.464  1.3650 -0.4045 -0.9529
15093TIP3    H266771   1.499   1.654  13.558 -0.2855 -0.7394  0.5424
15094TIP3   OH266772   6.502   2.971  13.103 -0.6174 -0.6196 -0.1916
15094TIP3    H166773   6.583   2.938  13.140 -1.1757 -1.3650  0.4057
15094TIP3    H266774   6.495   3.060  13.137 -1.2035 -1.3316  1.7178
15095TIP3   OH266775   2.838   6.462  16.433  0.3436  0.3071 -0.6539
15095TIP3    H166776   2.805   6.469  16.343  2.8859 -0.6906 -1.7699
15095TIP3    H266777   2.761   6.471  16.488 -1.2390  1.4762 -2.9098
15096TIP3   OH266778   5.865   6.523  12.911  0.0200  0.8017  1.0487
15096TIP3    H166779   5.930   6.478  12.857 -1.5330 -3.1406  2.1121
15096TIP3    H266780   5.869   6.479  12.996 -2.8591  1.5220  1.6642
15097TIP3   OH266781   3.884   1.522   3.640 -0.4949 -0.7327 -0.1210
15097TIP3    H166782   3.830   1.458   3.594  0.9791 -1.2386 -1.2054
15097TIP3    H266783   3.856   1.606   3.605  0.6520 -1.1088 -2.0700
15098TIP3   OH266784   0.341   4.273  14.045  0.1411 -0.5013  0.4013
15098TIP3    H166785   0.394   4.345  14.012 -0.2092 -0.2676  0.3394
15098TIP3    H266786   0.338   4.286  14.139  1.1980 -1.2073  0.5425
15099TIP3   OH266787   2.302   4.481   0.011  0.7297  0.8326  0.7437
15099TIP3    H166788   2.225   4.528  -0.021  0.1429 -0.0475  0.8138
15099TIP3    H266789   2.269   4.427   0.083  1.1214 -0.5454 -0.0545
15100TIP3   OH266790   1.159   4.211  11.035 -0.3819 -0.4284 -0.2350
15100TIP3    H166791   1.210   4.161  10.972  0.4591 -1.6692  1.3397
15100TIP3    H266792   1.087   4.153  11.060 -0.7123  0.0463 -0.0595
15101TIP3   OH266793   2.316   6.756   3.695 -0.2086 -0.4510 -0.7139
15101TIP3    H166794   2.241   6.698   3.683 -0.2189 -0.3432 -1.1666
15101TIP3    H266795   2.360   6.721   3.773 -0.5870 -0.6618 -0.5907
15102TIP3   OH266796   6.575   5.104  15.475 -0.5618 -0.2139 -0.1055
15102TIP3    H166797   6.515   5.029  15.473 -0.4316 -0.3462  0.8233
15102TIP3    H266798   6.644   5.078  15.535 -1.3010  1.2283  1.4559
15103TIP3   OH266799   2.931   1.067   0.905  0.2220  0.4792  0.6959
15103TIP3    H166800   2.860   1.067   0.842  0.3708  1.8727  0.5090
15103TIP3    H266801   2.904   1.127   0.973  1.8049  2.2357 -0.1149
15104TIP3   OH266802   3.829   4.281  12.764  0.6274 -0.4548  0.1346
15104TIP3    H166803   3.868   4.368  12.754  1.6511 -0.9293 -0.0606
15104TIP3    H266804   3.741   4.299  12.798  1.2249  0.6012  1.2090
15105TIP3   OH266805   2.109   6.653  17.187  0.3788 -0.2300  0.0401
15105TIP3    H166806   2.168   6.611  17.124 -1.3920 -1.3303 -0.9676
15105TIP3    H266807   2.156   6.648  17.270  0.9578 -2.8201 -0.3374
15106TIP3   OH266808   4.017   1.026  17.374 -0.3563 -0.3228 -0.0423
15106TIP3    H166809   3.936   1.013  17.424 -0.5481 -0.3502 -0.3569
15106TIP3    H266810   4.085   1.039  17.440 -1.0856  2.7004  0.2606
15107TIP3   OH266811   0.367   1.093   1.786 -0.2831  0.1617 -0.3945
15107TIP3    H166812   0.441   1.107   1.727 -1.7162 -0.0570 -2.3376
15107TIP3    H266813   0.379   1.004   1.820  0.7669  0.4353 -0.0010
15108TIP3   OH266814   5.964   6.461  16.974 -0.5589  0.5768 -0.1300
15108TIP3    H166815   6.049   6.494  16.947 -0.5432 -0.4410 -1.4279
15108TIP3    H266816   5.901   6.513  16.925 -0.5150 -1.6858 -2.8118
15109TIP3   OH266817   1.557   3.487  13.606  0.2503 -0.0165  0.8011
15109TIP3    H166818   1.557   3.414  13.668  0.2808  0.6983  1.6800
15109TIP3    H266819   1.632   3.541  13.633 -0.5852  1.0460  1.0603
15110TIP3   OH266820   3.779   4.522  15.129  0.8155  0.0121 -0.1327
15110TIP3    H166821   3.722   4.480  15.193 -0.5200 -0.3743 -1.5049
15110TIP3    H266822   3.733   4.603  15.105  1.5070  0.3702 -0.2776
15111TIP3   OH266823   0.520   1.035   4.227 -0.3962  0.3938  0.3409
15111TIP3    H166824   0.581   1.043   4.154  1.9923  1.1266  2.2995
15111TIP3    H266825   0.441   0.998   4.188  0.3459  1.8149 -2.7927
15112TIP3   OH266826   5.250   5.037  13.379 -0.3779  0.1704  0.5769
15112TIP3    H166827   5.239   5.073  13.291  1.0019  0.2716  0.4321
15112TIP3    H266828   5.161   5.034  13.414 -1.2298 -1.7717 -1.5457
15113TIP3   OH266829   1.322   4.356  15.933  0.2011 -0.1542 -0.1718
15113TIP3    H166830   1.343   4.262  15.939  0.6856 -0.1039 -0.9416
15113TIP3    H266831   1.256   4.361  15.863  0.7625  0.1659 -0.6834
15114TIP3   OH266832   1.836   1.148  14.451 -0.4112 -0.9962  1.1597
15114TIP3    H166833   1.770   1.102  14.503 -0.8771 -0.3634  1.1402
15114TIP3    H266834   1.811   1.241  14.456  0.9042 -0.6460  1.7713
15115TIP3   OH266835   0.555   1.280  12.440  0.2435 -0.3928  0.2395
15115TIP3    H166836   0.641   1.239  12.430  0.0639 -0.6843 -0.1321
15115TIP3    H266837   0.492   1.211  12.419 -0.0460  0.3542 -1.5280
15116TIP3   OH266838   2.487   0.395   3.432  0.0250  0.3547  0.1093
15116TIP3    H166839   2.521   0.357   3.513  1.4692  1.4712  0.0718
15116TIP3    H266840   2.562   0.395   3.372 -1.2087 -1.2093 -1.5567
15117TIP3   OH266841   1.934   4.313  13.468  0.6147  0.5333 -0.4798
15117TIP3    H166842   1.976   4.361  13.397 -0.6327  0.7033 -1.1207
15117TIP3    H266843   1.848   4.353  13.477  1.1106  1.2344  1.8713
15118TIP3   OH266844   1.842   0.725  14.577  0.1146 -0.5580 -0.3927
15118TIP3    H166845   1.879   0.699  14.493  0.1357 -2.6663  0.2145
15118TIP3    H266846   1.750   0.698  14.572 -0.0184 -0.2135  0.0694
15119TIP3   OH266847   1.643   4.856   4.894 -0.3954  0.4471 -0.8141
15119TIP3    H166848   1.670   4.772   4.930 -0.8040  0.6960  0.1102
15119TIP3    H266849   1.686   4.861   4.808  1.5960  0.3585  0.1185
15120TIP3   OH266850   0.272   0.860   2.197 -0.2191  0.1481  0.1684
15120TIP3    H166851   0.224   0.859   2.280 -0.7473 -1.4556 -0.1064
15120TIP3    H266852   0.351   0.807   2.215 -1.4788 -2.2632 -0.9085
15121TIP3   OH266853   0.480   5.749  15.412 -0.1795 -0.2251 -0.5998
15121TIP3    H166854   0.528   5.723  15.490 -0.6783 -2.3247 -0.9317
15121TIP3    H266855   0.459   5.841  15.426 -0.4001 -0.5936  1.7952
15122TIP3   OH266856   0.051   3.625   0.750 -0.1303 -0.0254  0.2786
15122TIP3    H166857   0.050   3.531   0.733 -0.6725 -0.1498  0.9624
15122TIP3    H266858   0.144   3.646   0.763  0.0236 -0.4047 -0.2040
15123TIP3   OH266859   1.883   1.272  11.989 -0.0254  0.0055 -0.4124
15123TIP3    H166860   1.804   1.217  11.997 -0.0587  0.1843  0.6838
15123TIP3    H266861   1.873   1.338  12.058  0.5819  0.6789 -0.9545
15124TIP3   OH266862   2.644   4.084   4.958 -0.1103  0.4001  0.4979
15124TIP3    H166863   2.644   3.989   4.951  1.8102  0.4513 -0.9583
15124TIP3    H266864   2.715   4.104   5.018  0.0520  0.9272  0.1416
15125TIP3   OH266865   6.464   1.516   4.695 -0.3966  0.0197 -0.2269
15125TIP3    H166866   6.390   1.575   4.708 -0.4936 -0.0775 -0.3327
15125TIP3    H266867   6.533   1.572   4.659  0.2434  0.5306  1.6550
15126TIP3   OH266868   4.161   0.803  11.336 -0.5091  0.1009 -0.0116
15126TIP3    H166869   4.131   0.865  11.402 -2.0355 -1.2755  0.6576
15126TIP3    H266870   4.100   0.812  11.263  1.0231  1.4337 -1.1927
15127TIP3   OH266871   4.021   1.629  13.305  0.5481 -0.0933  0.2700
15127TIP3    H166872   4.063   1.710  13.276  0.5566 -0.3805 -0.5599
15127TIP3    H266873   3.944   1.658  13.353  0.7482  0.4110  0.2985
15128TIP3   OH266874   3.888   4.800   0.376 -0.0971  0.1375 -0.3279
15128TIP3    H166875   3.975   4.765   0.355  0.5208  1.4738 -0.0888
15128TIP3    H266876   3.894   4.893   0.353 -0.5156  0.9042  2.3395
15129TIP3   OH266877   1.970   1.809   4.504 -0.1299 -0.5375  0.0494
15129TIP3    H166878   2.034   1.853   4.559  0.3351  2.1731 -2.4295
15129TIP3    H266879   2.021   1.746   4.453  0.1891  0.0669 -0.3808
15130TIP3   OH266880   3.273   6.415   0.585  0.3347 -0.3523 -0.1911
15130TIP3    H166881   3.206   6.430   0.652  2.4638 -0.5882  2.1537
15130TIP3    H266882   3.320   6.498   0.579  0.3144 -0.3994 -1.2791
15131TIP3   OH266883   5.744   2.685   4.068 -0.0074  0.2387  0.1234
15131TIP3    H166884   5.654   2.691   4.099 -0.0897  0.1019 -0.0833
15131TIP3    H266885   5.738   2.707   3.975  0.1678  0.1987  0.1033
15132TIP3   OH266886   6.346   0.696   1.089 -0.7044 -0.5142 -0.6115
15132TIP3    H166887   6.287   0.622   1.081  0.1353 -1.2214 -0.3997
15132TIP3    H266888   6.330   0.730   1.178  0.3240 -1.7000  0.0561
15133TIP3   OH266889   3.870   5.783  14.959 -0.1942 -0.2855  0.3344
15133TIP3    H166890   3.911   5.866  14.983 -0.3157 -0.3840  0.9206
15133TIP3    H266891   3.849   5.792  14.866 -2.7087  1.4611  0.9355
15134TIP3   OH266892   2.771   6.709   2.822 -0.2735  0.0159 -0.1887
15134TIP3    H166893   2.825   6.705   2.901 -1.5271 -2.4171  0.6412
15134TIP3    H266894   2.724   6.626   2.821 -1.2694  0.5215 -2.8394
15135TIP3   OH266895   3.016   0.161  14.489  0.1038  0.4067  0.0419
15135TIP3    H166896   3.107   0.162  14.460 -0.1395  0.5822 -0.7377
15135TIP3    H266897   2.966   0.180  14.410 -0.5696  1.0172  0.6106
15136TIP3   OH266898   4.207   0.596  16.088 -0.0129 -0.1751 -0.1470
15136TIP3    H166899   4.206   0.519  16.146  0.8270 -0.1107 -0.0333
15136TIP3    H266900   4.282   0.647  16.117 -0.1788  0.3693 -0.6511
15137TIP3   OH266901   5.236   0.995   2.659  0.0741 -0.2991  0.4642
15137TIP3    H166902   5.328   0.974   2.643 -0.1223 -1.2194  0.4597
15137TIP3    H266903   5.194   0.910   2.672 -1.1576 -0.0711 -1.5640
15138TIP3   OH266904   2.703   0.212   2.686  0.0023  0.0425  0.3211
15138TIP3    H166905   2.725   0.125   2.719  0.0012  0.2806  0.9601
15138TIP3    H266906   2.778   0.237   2.632 -0.1439 -0.4862 -0.1501
15139TIP3   OH266907   0.411   3.653   3.496 -0.0175 -0.1355 -0.3002
15139TIP3    H166908   0.410   3.677   3.589  2.2241  0.4853 -0.3809
15139TIP3    H266909   0.376   3.564   3.495  2.2829 -1.1833  1.5337
15140TIP3   OH266910   3.279   1.976  14.579 -0.6671  0.2633  0.0104
15140TIP3    H166911   3.297   2.063  14.545  0.1488  0.6548  1.3767
15140TIP3    H266912   3.336   1.918  14.529  0.9553  0.8976  1.0738
15141TIP3   OH266913   1.656   4.207   4.513 -0.1580 -0.3975 -0.1991
15141TIP3    H166914   1.695   4.246   4.592  0.5503 -0.1122 -0.6748
15141TIP3    H266915   1.701   4.123   4.504  0.8010  0.1865 -1.0764
15142TIP3   OH266916   0.081   3.373  11.245 -0.3038  0.5123 -0.3442
15142TIP3    H166917   0.042   3.447  11.292  0.2995  1.1379 -0.8053
15142TIP3    H266918   0.169   3.365  11.282 -1.3260 -1.9198  1.8360
15143TIP3   OH266919   4.382   6.036   5.338 -0.0131  0.2693  0.0608
15143TIP3    H166920   4.412   5.960   5.387 -0.7129  0.6575  1.1306
15143TIP3    H266921   4.388   6.010   5.246  0.5375 -0.7726  0.3864
15144TIP3   OH266922   4.547   0.609  17.432 -0.1048  0.1059 -0.4674
15144TIP3    H166923   4.468   0.585  17.480  0.0985  0.4576  0.0553
15144TIP3    H266924   4.522   0.688  17.383 -0.4977 -0.6071 -1.4503
15145TIP3   OH266925   1.170   2.396  11.067 -0.4087  0.0887 -0.0870
15145TIP3    H166926   1.187   2.396  11.161 -0.9283  1.3570  0.0258
15145TIP3    H266927   1.226   2.327  11.033 -1.3965 -1.4934  1.3427
15146TIP3   OH266928   2.957   6.573   2.152 -0.2401  0.8343  0.4872
15146TIP3    H166929   2.967   6.636   2.081  1.8720 -0.3045 -0.3131
15146TIP3    H266930   3.044   6.570   2.194 -0.0271 -2.0033  0.0440
15147TIP3   OH266931   3.269   4.895   2.649  0.0553 -0.5385  0.8642
15147TIP3    H166932   3.308   4.952   2.583  0.7610 -2.6900 -0.6889
15147TIP3    H266933   3.295   4.934   2.732 -0.9842  2.3560 -0.0479
15148TIP3   OH266934   3.999   2.969  13.435  0.0316 -0.0521  0.0097
15148TIP3    H166935   3.911   2.932  13.443  0.0798 -0.1796 -0.0497
15148TIP3    H266936   4.024   2.953  13.344  0.0773  0.0704  0.0006
15149TIP3   OH266937   6.187   4.396  16.961  0.3840 -0.1680 -0.2240
15149TIP3    H166938   6.098   4.431  16.960  1.3763  2.6184  1.0826
15149TIP3    H266939   6.178   4.309  16.921 -2.7115  0.4223 -1.0979
15150TIP3   OH266940   3.763   0.331  12.421 -0.2938  0.5489  0.4603
15150TIP3    H166941   3.753   0.310  12.514  0.1482 -0.3387  0.3140
15150TIP3    H266942   3.806   0.255  12.383 -2.0332  0.1546 -0.8270
15151TIP3   OH266943   5.308   6.609   1.437  0.3795 -0.3175  0.2294
15151TIP3    H166944   5.269   6.526   1.466  0.6268 -1.3033 -2.0911
15151TIP3    H266945   5.355   6.587   1.357  2.9326  1.4982  1.0818
15152TIP3   OH266946   4.429   5.247   5.957 -0.7376  0.3750  0.0527
15152TIP3    H166947   4.358   5.240   6.021 -1.9176  1.1186 -1.1279
15152TIP3    H266948   4.407   5.325   5.906 -0.2348 -0.6192 -1.7536
15153TIP3   OH266949   4.696   6.725  14.872 -0.3768 -0.1512 -0.0408
15153TIP3    H166950   4.780   6.701  14.913 -1.0576 -1.4474  0.6487
15153TIP3    H266951   4.685   6.818  14.893  2.0554  0.7627 -2.2746
15154TIP3   OH266952   5.496   3.344   0.791  0.2092 -0.3658 -0.0299
15154TIP3    H166953   5.426   3.397   0.751 -1.4627 -1.1917  1.6920
15154TIP3    H266954   5.539   3.404   0.852  0.1733 -0.2279 -0.1377
15155TIP3   OH266955   0.007   3.216   2.759  0.3525  0.1055  0.2590
15155TIP3    H166956  -0.076   3.190   2.720  0.0844  0.6858  0.4263
15155TIP3    H266957   0.065   3.141   2.745  0.0740  0.0574 -0.6693
15156TIP3   OH266958   3.055   1.712  12.213  0.3087  0.5016 -0.3624
15156TIP3    H166959   3.146   1.712  12.246  0.2439  0.2376 -0.1820
15156TIP3    H266960   3.018   1.793  12.248 -0.3925 -0.7422  2.0097
15157TIP3   OH266961   5.379   0.109  14.993 -0.3854  0.2170  0.3178
15157TIP3    H166962   5.357   0.020  14.967 -1.2487  0.2973  0.7310
15157TIP3    H266963   5.469   0.103  15.026  0.3542 -0.0775 -1.6414
15158TIP3   OH266964   6.004   1.995   1.086  0.2140  0.3977  0.4270
15158TIP3    H166965   6.024   1.901   1.085  0.2705  0.4122 -0.1884
15158TIP3    H266966   6.057   2.031   1.015 -1.0017  0.6385 -0.3904
15159TIP3   OH266967   3.386   4.642   2.040 -0.1175 -0.1971 -0.4831
15159TIP3    H166968   3.365   4.730   2.072  1.1100 -0.3563  0.9021
15159TIP3    H266969   3.302   4.604   2.017 -0.7773  0.9584 -0.0514
15160TIP3   OH266970   0.787   6.173  14.506 -0.1427 -0.5015 -0.2641
15160TIP3    H166971   0.701   6.200  14.538 -0.1451 -1.5106  0.6502
15160TIP3    H266972   0.811   6.099  14.562  0.5614 -1.3374 -1.6214
15161TIP3   OH266973   2.410   4.925  11.354 -0.5262  0.0338 -0.6683
15161TIP3    H166974   2.486   4.878  11.321 -0.5124  1.0716 -2.2055
15161TIP3    H266975   2.413   5.010  11.310 -1.1084  1.1129  1.2611
15162TIP3   OH266976   1.839   3.292   1.474 -0.1269  0.6074 -0.1310
15162TIP3    H166977   1.820   3.200   1.494 -0.5810  0.6565 -0.3207
15162TIP3    H266978   1.899   3.320   1.543 -1.9951  0.9000  1.4768
15163TIP3   OH266979   3.974   6.585   0.449  0.2100  0.4137  0.3788
15163TIP3    H166980   4.013   6.666   0.482  0.0549  1.1084 -1.0663
15163TIP3    H266981   4.035   6.516   0.477  1.7095  1.3160 -0.5540
15164TIP3   OH266982   6.622   5.898  13.992 -0.1471 -0.3672  0.1613
15164TIP3    H166983   6.709   5.859  13.988 -0.3114 -0.9415  1.5156
15164TIP3    H266984   6.593   5.882  14.082 -1.6893 -0.2544 -0.2861
15165TIP3   OH266985   0.376   0.092   1.495  0.1435 -0.1622  0.4841
15165TIP3    H166986   0.281   0.091   1.508 -0.1565  1.3963 -1.2396
15165TIP3    H266987   0.409   0.148   1.565 -0.4998  1.2134 -0.2675
15166TIP3   OH266988   2.512   6.385  15.104 -0.1305  0.7265  0.1300
15166TIP3    H166989   2.504   6.440  15.026  0.9067 -1.0529 -1.3199
15166TIP3    H266990   2.432   6.332  15.105 -0.0587  0.6174  0.1573
15167TIP3   OH266991   1.841   1.792   2.607 -0.0832  0.3612  0.1726
15167TIP3    H166992   1.886   1.862   2.654 -0.1911  0.8754 -0.4700
15167TIP3    H266993   1.878   1.795   2.519  1.5776 -1.9039  0.7105
15168TIP3   OH266994   0.055   5.058   3.733 -0.0945  0.0209  0.5495
15168TIP3    H166995   0.127   5.059   3.796  1.2406 -0.1209 -0.8912
15168TIP3    H266996  -0.005   5.126   3.762  1.8038  1.7921  0.5257
15169TIP3   OH266997   1.592   6.258  13.843  0.0068 -0.1796  0.0876
15169TIP3    H166998   1.681   6.289  13.861  0.2373 -1.9175  2.3838
15169TIP3    H266999   1.554   6.243  13.930 -1.7307 -1.6665 -0.8648
15170TIP3   OH267000   5.193   0.410  12.480  0.4130 -0.0436  0.1841
15170TIP3    H167001   5.224   0.477  12.419  1.5966  0.8457  1.7066
15170TIP3    H267002   5.099   0.426  12.487  0.5847  1.1007  0.0816
15171TIP3   OH267003   6.739   1.491   3.559  0.7518  0.0910  0.5368
15171TIP3    H167004   6.738   1.439   3.478 -1.1940  0.0732  0.5240
15171TIP3    H267005   6.772   1.576   3.532 -1.2269  0.5404 -0.6300
15172TIP3   OH267006   0.113   3.711  11.987  0.0704 -0.1066  0.3066
15172TIP3    H167007   0.174   3.703  11.913 -0.4463 -0.6703 -0.0646
15172TIP3    H267008   0.129   3.632  12.039 -0.7305 -0.5264 -0.0842
15173TIP3   OH267009   2.590   0.152  16.789  0.1918  0.2233  0.5167
15173TIP3    H167010   2.668   0.115  16.831  1.3389  1.6347 -0.2935
15173TIP3    H267011   2.579   0.238  16.829 -0.7508  0.1757  0.3742
15174TIP3   OH267012   2.019   4.449  17.079  0.1900  0.0860 -0.3670
15174TIP3    H167013   1.974   4.501  17.012  0.5721  1.6216  0.4970
15174TIP3    H267014   1.950   4.396  17.119 -0.4534  0.7783 -0.5277
15175TIP3   OH267015   0.873   3.292   3.290 -0.3646  0.1462  0.0987
15175TIP3    H167016   0.842   3.205   3.266 -0.7149  0.5826 -1.0977
15175TIP3    H267017   0.798   3.349   3.276  0.6614  1.1043 -2.1207
15176TIP3   OH267018   1.052   6.570   1.406  0.5098 -0.0147  0.5514
15176TIP3    H167019   1.007   6.631   1.348 -0.0793 -1.3811 -0.4594
15176TIP3    H267020   0.989   6.552   1.476 -0.3582 -1.4841 -0.5610
15177TIP3   OH267021   1.765   4.087   2.658  0.2219  0.2695 -0.7269
15177TIP3    H167022   1.744   4.062   2.748 -1.5886 -0.3201 -1.2645
15177TIP3    H267023   1.690   4.139   2.629  0.1919 -0.5794 -2.2855
15178TIP3   OH267024   0.555   2.149   4.176  0.2651 -0.7427 -0.1212
15178TIP3    H167025   0.513   2.202   4.108  0.7824  0.6403  0.5987
15178TIP3    H267026   0.623   2.206   4.212 -0.7904 -0.9240  2.3854
15179TIP3   OH267027   2.326   3.481   3.522  0.2393  0.3396  0.9747
15179TIP3    H167028   2.364   3.395   3.501 -2.8079 -0.7247 -0.7948
15179TIP3    H267029   2.347   3.493   3.615  1.7280 -1.7773  1.0075
15180TIP3   OH267030   6.415   4.008  16.283 -0.1742  0.5446 -0.6217
15180TIP3    H167031   6.366   4.022  16.364  2.7221  3.2309  0.8971
15180TIP3    H267032   6.403   4.089  16.233  0.9814  0.3992 -1.1648
15181TIP3   OH267033   2.573   0.128  11.550 -0.2435  0.4337  0.7886
15181TIP3    H167034   2.536   0.047  11.586 -2.7935  1.4549  0.6324
15181TIP3    H267035   2.590   0.182  11.627  0.1150  0.2893  0.8107
15182TIP3   OH267036   5.062   3.912  15.339 -0.0105 -0.3888 -0.0593
15182TIP3    H167037   4.978   3.958  15.348  0.6648  1.1853 -1.2511
15182TIP3    H267038   5.128   3.977  15.363  0.8996 -1.7529  1.3584
15183TIP3   OH267039   0.930   2.861  15.781 -0.4179 -0.0458 -0.5270
15183TIP3    H167040   0.916   2.767  15.793 -1.2449  0.0916 -0.3082
15183TIP3    H267041   0.894   2.901  15.860 -0.3720  0.4694 -0.7611
15184TIP3   OH267042   4.517   5.912  11.615 -0.2357  0.3945 -0.3486
15184TIP3    H167043   4.586   5.979  11.610  1.9663 -1.7221 -0.1968
15184TIP3    H267044   4.500   5.889  11.524  0.1796  0.0565 -0.3445
15185TIP3   OH267045   5.439   5.535  12.264  0.0609 -0.0719 -0.4413
15185TIP3    H167046   5.377   5.568  12.199 -0.7790  1.5782  1.1421
15185TIP3    H267047   5.447   5.604  12.329  3.5012 -0.2599 -0.4706
15186TIP3   OH267048   3.409   4.486  13.741  0.0479  0.6826  0.1046
15186TIP3    H167049   3.412   4.510  13.834  0.1769 -0.5245  0.4254
15186TIP3    H267050   3.378   4.395  13.741  2.6051 -0.2786 -0.8470
15187TIP3   OH267051   3.906   0.450   2.399 -0.6003 -0.0862  0.2837
15187TIP3    H167052   3.907   0.543   2.422 -0.3069  0.1930 -0.7853
15187TIP3    H267053   3.920   0.449   2.304 -1.3537 -1.1900  0.1672
15188TIP3   OH267054   1.795   2.556   5.115 -0.4424 -0.0619  0.1658
15188TIP3    H167055   1.860   2.574   5.183  0.0878 -3.0769  0.6421
15188TIP3    H267056   1.793   2.635   5.062  0.7893  1.5705  2.3610
15189TIP3   OH267057   6.367   4.017   2.312 -0.3300  0.3405  0.0458
15189TIP3    H167058   6.351   4.056   2.397 -1.5631  0.0597 -0.0299
15189TIP3    H267059   6.356   3.923   2.326 -1.4408  0.3578 -0.5801
15190TIP3   OH267060   2.102   3.459   3.811 -0.4866  0.0396  0.4920
15190TIP3    H167061   2.053   3.382   3.838  0.3174 -0.6512  0.0201
15190TIP3    H267062   2.158   3.428   3.740  0.6853  0.7794  1.0621
15191TIP3   OH267063   4.714   4.993   1.343 -0.1473  0.3328 -0.0670
15191TIP3    H167064   4.713   5.029   1.431  2.1223 -1.5703  0.8669
15191TIP3    H267065   4.731   5.068   1.286 -0.5758  1.4361  1.2154
15192TIP3   OH267066   3.284   4.000   0.922  0.0007 -0.1156 -0.0001
15192TIP3    H167067   3.242   3.914   0.911  0.9198 -0.3285 -2.3584
15192TIP3    H267068   3.366   3.981   0.967 -1.3117  0.0462  2.6913
15193TIP3   OH267069   4.153   4.331   6.886  0.4022 -0.1159  0.3559
15193TIP3    H167070   4.151   4.424   6.865 -1.1835  0.1280  1.4327
15193TIP3    H267071   4.217   4.324   6.957  2.4997 -0.2992 -1.4368
15194TIP3   OH267072   5.179   0.728   4.910  0.0811  0.8426 -0.0991
15194TIP3    H167073   5.114   0.748   4.843  0.5957  0.1806 -0.8106
15194TIP3    H267074   5.151   0.778   4.986 -1.2534  0.5861 -0.3940
15195TIP3   OH267075   3.383   2.658  16.988 -0.3660 -0.3820  0.0044
15195TIP3    H167076   3.378   2.736  17.042 -0.2180 -0.6203  0.3735
15195TIP3    H267077   3.353   2.685  16.902  1.8204  0.6665 -0.5003
15196TIP3   OH267078   1.344   3.613   3.496  0.7509 -0.0252  0.0283
15196TIP3    H167079   1.392   3.672   3.555  0.3058  0.0711  0.2992
15196TIP3    H267080   1.259   3.601   3.538  1.2943 -1.9664  0.7077
15197TIP3   OH267081   6.682   5.358  10.703 -0.2966  0.6363  0.4747
15197TIP3    H167082   6.611   5.377  10.765 -1.1210 -0.5801 -0.0629
15197TIP3    H267083   6.649   5.285  10.650  0.0475  2.1185 -1.9420
15198TIP3   OH267084   6.498   4.827  17.133 -0.0671  0.1269  0.0932
15198TIP3    H167085   6.503   4.809  17.226 -0.7980 -1.2924 -0.1147
15198TIP3    H267086   6.416   4.786  17.105 -1.7795  3.5885 -0.5311
15199TIP3   OH267087   6.091   3.733  14.942  0.5266  0.4828  0.2007
15199TIP3    H167088   6.109   3.816  14.985 -1.4000  0.7329  0.6263
15199TIP3    H267089   5.997   3.719  14.955  0.5595 -1.1365 -0.9673
15200TIP3   OH267090   3.046   2.464  16.099  0.6245 -0.4662 -0.6721
15200TIP3    H167091   3.093   2.400  16.046  0.8196 -0.1679 -0.8636
15200TIP3    H267092   2.966   2.483  16.050  0.0327 -1.3693 -0.0906
15201TIP3   OH267093   3.629   2.080  16.410  0.1920 -0.3558 -0.2027
15201TIP3    H167094   3.581   2.012  16.457  1.4338 -0.4594  0.9903
15201TIP3    H267095   3.581   2.161  16.427 -1.0452 -0.8412 -1.2676
15202TIP3   OH267096   4.291   3.461  12.611  0.0092 -0.3038  0.2987
15202TIP3    H167097   4.375   3.507  12.616 -0.0789 -0.2598  3.1791
15202TIP3    H267098   4.225   3.530  12.614 -0.1451 -0.3978 -0.7117
15203TIP3   OH267099   2.486   2.452  13.356 -0.6345 -0.1214  0.9206
15203TIP3    H167100   2.409   2.490  13.313 -1.0532 -1.0377  0.8252
15203TIP3    H267101   2.561   2.494  13.314 -1.0502  2.6493  2.7046
15204TIP3   OH267102   6.769   6.152   0.150 -0.0563  0.5418 -0.3897
15204TIP3    H167103   6.682   6.112   0.145  0.5834 -1.0833  0.6117
15204TIP3    H267104   6.808   6.135   0.064  0.1001 -0.7709 -0.0711
15205TIP3   OH267105   6.128   5.696  16.164  0.4341 -0.5486  0.0046
15205TIP3    H167106   6.069   5.678  16.091 -0.7236  0.8549  0.5405
15205TIP3    H267107   6.166   5.782  16.143 -0.7891  0.4153  1.5637
15206TIP3   OH267108   6.170   2.749   0.355 -0.4534 -0.1509 -0.1071
15206TIP3    H167109   6.193   2.777   0.266  1.1674 -1.1340 -0.0459
15206TIP3    H267110   6.236   2.791   0.410  1.8336 -3.5321  0.0353
15207TIP3   OH267111   3.867   6.182   0.808 -0.1632  0.6448  0.4666
15207TIP3    H167112   3.899   6.255   0.860  1.7327 -0.2288  0.6057
15207TIP3    H267113   3.946   6.145   0.768 -1.1845 -0.7653 -0.3244
15208TIP3   OH267114   1.340   5.462   0.381  0.1374  0.1316  0.0319
15208TIP3    H167115   1.261   5.409   0.397  1.0754 -1.2766  0.1255
15208TIP3    H267116   1.309   5.553   0.388 -2.0062 -0.3088 -2.3285
15209TIP3   OH267117   4.983   5.683  13.987 -0.8390 -0.2011  0.3351
15209TIP3    H167118   4.962   5.603  13.940  0.9612 -1.6303  1.7925
15209TIP3    H267119   4.979   5.659  14.080 -0.1309  1.3524  0.8143
15210TIP3   OH267120   0.242   3.222   5.559 -1.1487 -0.0495  0.2807
15210TIP3    H167121   0.275   3.282   5.626 -0.2492  1.6942 -1.6260
15210TIP3    H267122   0.171   3.270   5.517 -1.1333 -0.7617 -0.5940
15211TIP3   OH267123   4.156   4.264   3.153 -0.0319  0.2769 -0.3355
15211TIP3    H167124   4.205   4.327   3.101  1.5640  0.0407  0.8028
15211TIP3    H267125   4.149   4.304   3.240  2.9008 -1.8730  1.0615
15212TIP3   OH267126   2.133   0.293  17.028  0.2518  0.1179 -0.0703
15212TIP3    H167127   2.196   0.239  16.980  0.3620  1.9569 -2.1704
15212TIP3    H267128   2.184   0.368  17.058 -0.1249 -0.3402  1.8347
15213TIP3   OH267129   6.545   4.710   4.426  0.2642 -0.2778 -0.4497
15213TIP3    H167130   6.501   4.677   4.347 -1.2549  1.2068 -0.3011
15213TIP3    H267131   6.552   4.805   4.411 -0.2919  0.0726  1.2808
15214TIP3   OH267132   1.195   0.370  11.807 -0.5004  0.3572  0.5196
15214TIP3    H167133   1.261   0.390  11.874  0.3021 -2.7496  0.8067
15214TIP3    H267134   1.245   0.347  11.729 -1.3281  0.3581 -0.0250
15215TIP3   OH267135   4.264   2.151  15.118 -0.6504  0.3242 -0.4044
15215TIP3    H167136   4.184   2.143  15.066 -1.1088  1.8925  0.0099
15215TIP3    H267137   4.334   2.153  15.053 -1.0306  0.0915 -0.8286
15216TIP3   OH267138   1.115   4.907   0.775  0.6737  0.0132 -0.2309
15216TIP3    H167139   1.081   4.819   0.763 -0.5317  0.1533  1.6759
15216TIP3    H267140   1.116   4.945   0.687 -2.9258 -0.4696 -0.6459
15217TIP3   OH267141   5.147   3.660   2.565  0.1935  0.4229  0.2948
15217TIP3    H167142   5.219   3.699   2.516 -0.4630  1.9446  0.5051
15217TIP3    H267143   5.097   3.612   2.499  1.3068 -0.5568  0.1298
15218TIP3   OH267144   5.253   5.195   3.418 -0.5271 -0.2027 -0.3246
15218TIP3    H167145   5.226   5.275   3.464  0.7078  0.6428 -1.0259
15218TIP3    H267146   5.185   5.182   3.352  0.0480  1.1728 -1.2272
15219TIP3   OH267147   4.231   3.658   2.354  0.4018 -0.4815  0.4826
15219TIP3    H167148   4.209   3.731   2.412 -0.0859 -1.2917  1.3448
15219TIP3    H267149   4.327   3.650   2.361  0.8771  1.8878 -1.8738
15220TIP3   OH267150   2.833   5.922   2.555 -0.4278 -0.2172  0.1904
15220TIP3    H167151   2.921   5.892   2.578 -0.8301 -0.3502  1.7003
15220TIP3    H267152   2.828   6.011   2.591 -0.6139  0.1242 -0.6738
15221TIP3   OH267153   5.661   2.925  12.215  0.1647 -0.0797 -0.4021
15221TIP3    H167154   5.741   2.878  12.191 -0.2155 -0.2539 -1.3826
15221TIP3    H267155   5.642   2.896  12.304  1.6051  0.5515  0.1406
15222TIP3   OH267156   0.285   2.321  16.388 -0.1893  0.1213  0.2002
15222TIP3    H167157   0.238   2.386  16.336  1.0486  3.1185  2.5413
15222TIP3    H267158   0.218   2.280  16.442 -1.3020 -2.1810 -2.6659
15223TIP3   OH267159   5.495   1.485  13.399 -0.3342 -0.1698 -0.6097
15223TIP3    H167160   5.457   1.441  13.475  1.0449  0.9712  0.8038
15223TIP3    H267161   5.521   1.414  13.340 -0.1266 -1.1484  0.6234
15224TIP3   OH267162   5.689   2.379  16.634 -0.1670 -0.0178 -0.4051
15224TIP3    H167163   5.616   2.369  16.695  0.3850  2.2201  0.7247
15224TIP3    H267164   5.681   2.470  16.602  1.0270 -0.3389 -1.7298
15225TIP3   OH267165   2.634   6.412  13.723 -0.2768 -0.1811  0.1834
15225TIP3    H167166   2.582   6.488  13.750  0.1435  0.9791 -2.0656
15225TIP3    H267167   2.699   6.447  13.662  0.1676 -2.3168 -0.6737
15226TIP3   OH267168   2.593   2.964   4.132 -0.3236 -0.3517  0.0280
15226TIP3    H167169   2.662   2.906   4.164 -0.9682 -1.6712 -0.8742
15226TIP3    H267170   2.624   3.052   4.153  1.5928 -0.9052 -0.2845
15227TIP3   OH267171   0.736   6.662   4.249 -0.0135  0.1428  0.1052
15227TIP3    H167172   0.682   6.741   4.243 -1.6849 -0.9985 -0.6320
15227TIP3    H267173   0.766   6.646   4.159 -2.9106 -2.1345 -0.6041
15228TIP3   OH267174   5.983   5.646  11.108  0.3025 -0.1282  0.5109
15228TIP3    H167175   6.000   5.582  11.039 -0.9080 -1.8039  1.6656
15228TIP3    H267176   5.888   5.658  11.107  0.4819  1.5633  0.4467
15229TIP3   OH267177   2.247   6.640   1.584  0.3178  0.7465  0.1510
15229TIP3    H167178   2.306   6.635   1.659  0.8093 -1.2054 -0.3044
15229TIP3    H267179   2.235   6.734   1.569  2.4382  1.1974  0.9451
15230TIP3   OH267180   3.198   2.274  13.565  0.2539 -0.1352 -0.3003
15230TIP3    H167181   3.133   2.312  13.624  1.2377  0.7241  0.2537
15230TIP3    H267182   3.207   2.337  13.494 -0.0167 -0.5789 -0.7331
15231TIP3   OH267183   3.422   5.385   4.076 -0.5108  0.6594  0.0183
15231TIP3    H167184   3.464   5.404   4.160 -0.9268 -0.7925  0.5707
15231TIP3    H267185   3.488   5.408   4.010  0.0646  1.1589  0.7548
15232TIP3   OH267186   2.697   3.498   3.935  0.0947  0.7400  0.1740
15232TIP3    H167187   2.723   3.457   3.853 -0.7590 -0.7894  0.6335
15232TIP3    H267188   2.659   3.427   3.987 -0.3970  1.8928  1.4625
15233TIP3   OH267189   5.105   2.494   1.473 -0.6449 -0.3311  0.4632
15233TIP3    H167190   5.050   2.453   1.541 -1.5647  2.3346  1.4604
15233TIP3    H267191   5.044   2.549   1.423  0.3056 -1.0546 -1.5920
15234TIP3   OH267192   3.794   6.228   2.139  0.3118 -0.6813  0.2085
15234TIP3    H167193   3.704   6.196   2.140  0.1179 -0.1777 -0.1670
15234TIP3    H267194   3.817   6.240   2.231 -0.1832 -0.3352  0.2894
15235TIP3   OH267195   1.119   4.349  14.911  0.2754  0.1058  0.4032
15235TIP3    H167196   1.195   4.298  14.883  0.4145  0.5544 -0.0560
15235TIP3    H267197   1.107   4.327  15.003 -0.2935 -1.5394 -0.0347
15236TIP3   OH267198   1.741   4.634   4.289  0.0640  0.2064 -0.2278
15236TIP3    H167199   1.754   4.662   4.199  1.3688  1.2485  0.2435
15236TIP3    H267200   1.646   4.634   4.302 -0.1966 -0.8531 -1.8423
15237TIP3   OH267201   3.025   0.086  11.582  0.0850 -0.4060 -0.1159
15237TIP3    H167202   3.016   0.031  11.504  0.3810  1.2426 -1.3595
15237TIP3    H267203   2.968   0.044  11.647 -0.6217 -1.4958 -1.3862
15238TIP3   OH267204   6.387   3.624   5.039  0.4063  0.3043  0.1084
15238TIP3    H167205   6.316   3.575   4.997 -0.9848  2.4247 -0.1513
15238TIP3    H267206   6.344   3.674   5.109  1.2609  3.0044 -1.1714
15239TIP3   OH267207   5.575   4.757   3.976 -0.4998  0.6049  0.3005
15239TIP3    H167208   5.661   4.785   3.945 -0.3264 -1.2392 -1.0244
15239TIP3    H267209   5.588   4.742   4.070  0.7307  0.0139  0.0559
15240TIP3   OH267210   1.337   0.852  14.216  0.5295  0.0056 -0.1340
15240TIP3    H167211   1.300   0.925  14.265  1.7099 -0.2575  1.2306
15240TIP3    H267212   1.335   0.778  14.278 -2.3782 -1.7170 -2.0583
15241TIP3   OH267213   3.421   1.277   2.064 -0.2833 -0.4292  0.0755
15241TIP3    H167214   3.468   1.353   2.030 -0.3876 -1.4174 -2.4969
15241TIP3    H267215   3.486   1.230   2.116  0.4368  0.2586 -0.1894
15242TIP3   OH267216   5.150   1.981   1.697  0.0907  0.5798 -0.3482
15242TIP3    H167217   5.109   1.898   1.673  0.3084  0.7812 -1.4683
15242TIP3    H267218   5.100   2.048   1.650  2.2999  0.7511 -2.6937
15243TIP3   OH267219   2.469   5.765   4.503  0.4510 -0.0344  0.1597
15243TIP3    H167220   2.554   5.806   4.514 -0.4985  1.8640  0.9794
15243TIP3    H267221   2.413   5.808   4.568 -1.4857 -0.1585 -1.3195
15244TIP3   OH267222   1.919   3.798  16.919  0.0135 -0.3863  0.3949
15244TIP3    H167223   1.835   3.821  16.959 -0.7565  0.6428 -1.6750
15244TIP3    H267224   1.974   3.875  16.932 -0.1431 -0.1628 -0.2323
15245TIP3   OH267225   0.767   6.665  16.242  0.0816 -0.4912 -0.5826
15245TIP3    H167226   0.687   6.617  16.262  1.2276 -2.7619 -1.1305
15245TIP3    H267227   0.753   6.700  16.154 -1.1651  1.1988  0.2193
15246TIP3   OH267228   1.546   2.072   1.256  0.4702  0.2438  0.2678
15246TIP3    H167229   1.486   2.130   1.303 -0.4212 -0.9970  0.7335
15246TIP3    H267230   1.557   2.113   1.171 -4.0534 -1.1898 -1.3191
15247TIP3   OH267231   3.183   2.151   3.467 -0.2969 -0.2085 -0.0065
15247TIP3    H167232   3.147   2.084   3.526  0.5845 -0.3232  0.4248
15247TIP3    H267233   3.108   2.181   3.415 -0.7710 -1.2862  0.0319
15248TIP3   OH267234   5.661   0.601  15.071 -0.0456  0.5302 -0.4035
15248TIP3    H167235   5.707   0.529  15.028 -1.1559  0.9825 -2.4894
15248TIP3    H267236   5.600   0.633  15.005  0.2692  3.2871  0.5116
15249TIP3   OH267237   2.252   0.338  15.172 -0.4774 -0.1698  0.2766
15249TIP3    H167238   2.201   0.262  15.142  2.0353 -2.3932  1.1967
15249TIP3    H267239   2.324   0.300  15.223  1.3108  2.8334  0.2464
15250TIP3   OH267240   3.676   4.454  14.542  0.0900 -0.1820 -0.0431
15250TIP3    H167241   3.746   4.495  14.491  1.0547 -0.6762  0.8403
15250TIP3    H267242   3.666   4.367  14.503 -0.4486  0.1049 -0.5471
15251TIP3   OH267243   2.665   5.355   2.109  0.1640 -0.6443  0.3585
15251TIP3    H167244   2.708   5.280   2.150 -1.1582 -0.4686  2.1357
15251TIP3    H267245   2.715   5.431   2.139 -0.9469 -0.4947  1.9181
15252TIP3   OH267246   1.497   5.455   1.241  1.0244  0.2357 -0.4565
15252TIP3    H167247   1.448   5.480   1.319  0.4034  0.6152 -0.9606
15252TIP3    H267248   1.430   5.437   1.175  1.3562 -2.9258 -0.1229
15253TIP3   OH267249   6.089   2.268   4.360  0.1590  0.4779  0.3787
15253TIP3    H167250   6.159   2.234   4.305 -0.3840 -0.8337  0.4548
15253TIP3    H267251   6.068   2.196   4.419 -0.2210  1.3773  1.3768
15254TIP3   OH267252   3.852   0.680  11.479 -0.0401 -0.1229 -0.3092
15254TIP3    H167253   3.778   0.693  11.539 -0.8220 -0.3486 -1.1901
15254TIP3    H267254   3.869   0.766  11.442  2.7568  0.8126  2.7470
15255TIP3   OH267255   5.943   1.486  15.345 -0.0553 -0.1240 -0.4796
15255TIP3    H167256   5.897   1.484  15.261 -0.0190  0.8066 -0.5284
15255TIP3    H267257   5.873   1.488  15.410 -0.0820 -0.3459 -0.4997
15256TIP3   OH267258   3.535   3.500   2.733  0.5433 -0.3385 -0.0534
15256TIP3    H167259   3.559   3.425   2.678 -1.4450 -0.3028 -1.0557
15256TIP3    H267260   3.440   3.508   2.722  0.6781  2.2268  0.1778
15257TIP3   OH267261   6.282   2.976  14.031  0.0703 -0.0777 -0.2312
15257TIP3    H167262   6.352   3.001  13.970 -0.1963  1.0622 -0.0928
15257TIP3    H267263   6.323   2.980  14.117 -0.0469  0.1576 -0.1858
15258TIP3   OH267264   5.644   4.139   5.037  0.3587 -0.7028 -0.3298
15258TIP3    H167265   5.571   4.165   5.093 -0.2766 -0.8360 -1.0751
15258TIP3    H267266   5.702   4.088   5.094  1.0369  1.2797  0.8596
15259TIP3   OH267267   2.011   0.366   1.552 -0.2054 -0.4841 -0.1596
15259TIP3    H167268   1.961   0.305   1.606 -0.6984 -0.0319 -0.0972
15259TIP3    H267269   2.027   0.441   1.608  0.6833 -0.6772 -0.1301
15260TIP3   OH267270   0.369   2.556   1.420 -0.4292 -0.1298 -0.1011
15260TIP3    H167271   0.388   2.650   1.427  0.8822 -0.4367  1.0306
15260TIP3    H267272   0.453   2.516   1.397 -0.8482 -1.0670 -0.0431
15261TIP3   OH267273   3.567   6.643  14.803  0.5042  0.4403  0.3077
15261TIP3    H167274   3.569   6.704  14.729 -2.5810  0.6441  0.2612
15261TIP3    H267275   3.548   6.697  14.879  0.9468 -0.1136  0.8320
15262TIP3   OH267276   6.486   2.212   0.957  0.0416  0.3148  0.6476
15262TIP3    H167277   6.518   2.176   0.875  1.2743 -0.5861  1.4836
15262TIP3    H267278   6.538   2.169   1.025 -0.4268  1.5678  1.8690
15263TIP3   OH267279   5.845   1.976  12.962 -0.0179  0.1323  0.1170
15263TIP3    H167280   5.916   2.039  12.979  0.2451 -0.2251  0.3467
15263TIP3    H267281   5.791   2.019  12.896  0.8974  0.0546 -0.7099
15264TIP3   OH267282   4.603   1.014  16.486 -0.0383 -0.4056 -0.2998
15264TIP3    H167283   4.655   1.082  16.443 -0.5944 -0.0644 -0.4467
15264TIP3    H267284   4.655   0.934  16.477 -0.7338 -0.6491 -2.8036
15265TIP3   OH267285   0.806   3.447   1.720  0.8720 -0.3316  0.2410
15265TIP3    H167286   0.832   3.463   1.811  1.7934 -0.6357  0.0420
15265TIP3    H267287   0.885   3.411   1.679  1.1230  1.6600 -1.1932
15266TIP3   OH267288   1.300   5.434   1.428  0.1401 -0.0808  0.1611
15266TIP3    H167289   1.228   5.402   1.375 -0.2525 -1.8675  1.6540
15266TIP3    H267290   1.284   5.528   1.438 -0.0964  0.2038 -2.2579
15267TIP3   OH267291   3.854   4.028   0.016  1.0135 -0.3076  0.4744
15267TIP3    H167292   3.894   4.090  -0.045 -0.5861  1.7584  1.3727
15267TIP3    H267293   3.800   4.083   0.073 -0.6625 -2.5741  1.2219
15268TIP3   OH267294   6.565   0.784  16.631 -0.2307  0.2514 -0.2586
15268TIP3    H167295   6.525   0.860  16.588  0.9914  0.2569 -1.4600
15268TIP3    H267296   6.636   0.821  16.684 -1.3664  0.1859  1.3598
15269TIP3   OH267297   6.463   6.204  11.736 -0.3866  0.0593  0.0046
15269TIP3    H167298   6.467   6.213  11.641  1.6311  1.8200  0.1813
15269TIP3    H267299   6.544   6.244  11.767 -1.0494 -0.3800  2.4895
15270TIP3   OH267300   1.549   4.519   5.245 -0.0042 -0.0052 -0.3161
15270TIP3    H167301   1.635   4.554   5.267 -0.6934  0.7671  1.3178
15270TIP3    H267302   1.540   4.440   5.299 -0.2419 -0.2169 -0.6540
15271TIP3   OH267303   1.649   3.414  16.624 -0.2966  0.1402  0.6474
15271TIP3    H167304   1.602   3.462  16.692 -0.4193  0.6918  0.1762
15271TIP3    H267305   1.601   3.432  16.543  0.8958  1.0170  0.0796
15272TIP3   OH267306   4.556   2.999   2.932  0.2968 -0.9268  0.4577
15272TIP3    H167307   4.572   2.953   2.850 -0.7824  1.0623 -0.9477
15272TIP3    H267308   4.629   3.061   2.940  0.4478 -1.1744  1.0614
15273TIP3   OH267309   3.265   0.716   0.017 -0.0702 -0.4777  0.3972
15273TIP3    H167310   3.191   0.758  -0.027  0.9808  1.1084  0.0663
15273TIP3    H267311   3.280   0.636  -0.034  0.2704  0.6455 -1.3474
15274TIP3   OH267312   1.418   1.353   2.381 -0.6452 -0.0653  0.2167
15274TIP3    H167313   1.339   1.349   2.329 -1.1525  0.5806  0.9047
15274TIP3    H267314   1.478   1.407   2.329 -0.4208 -1.0687 -0.5856
15275TIP3   OH267315   6.362   0.997   3.490 -0.3767 -0.3526  0.0843
15275TIP3    H167316   6.387   0.956   3.407 -0.8250  0.7196 -0.5992
15275TIP3    H267317   6.284   1.048   3.469 -1.5542 -1.4542  1.5679
15276TIP3   OH267318   4.773   3.246   1.816  0.1804 -0.2202  0.0614
15276TIP3    H167319   4.742   3.270   1.903  2.5914  2.6802  0.2757
15276TIP3    H267320   4.789   3.151   1.822 -0.8375 -0.3171  2.3534
15277TIP3   OH267321   5.223   1.698  16.707  0.1359 -0.3135  0.0091
15277TIP3    H167322   5.136   1.735  16.723 -0.3451 -0.8943 -1.1201
15277TIP3    H267323   5.216   1.607  16.737  1.1438  0.2953  2.2627
15278TIP3   OH267324   0.491   2.974  12.484  0.5296  0.3184  0.0380
15278TIP3    H167325   0.488   2.888  12.525  1.5262  0.4489  0.4223
15278TIP3    H267326   0.557   3.022  12.534  0.5972  1.0161 -0.7012
15279TIP3   OH267327   2.813   3.988   1.727  1.1155 -0.2804  0.0994
15279TIP3    H167328   2.767   4.063   1.764  1.0002  0.0569 -0.6931
15279TIP3    H267329   2.899   4.022   1.703  0.7315 -0.1243 -1.1581
15280TIP3   OH267330   6.354   0.644  13.844  0.5924  0.4108 -0.4202
15280TIP3    H167331   6.435   0.594  13.855  0.2674  0.2823  1.7012
15280TIP3    H267332   6.371   0.701  13.769  2.5431  0.2030 -0.1820
15281TIP3   OH267333   2.679   4.369  14.524  0.5727  0.3731  0.5880
15281TIP3    H167334   2.700   4.321  14.444  1.1806 -1.6326  1.8982
15281TIP3    H267335   2.589   4.343  14.544  0.5161  0.6597  0.7103
15282TIP3   OH267336   1.561   6.163   5.204  0.1211 -0.4875  0.0010
15282TIP3    H167337   1.518   6.096   5.151  0.6102  0.1701 -1.2745
15282TIP3    H267338   1.643   6.122   5.233 -0.1086 -0.8274  0.1679
15283TIP3   OH267339   0.160   4.290   1.395 -0.0501 -0.1574 -0.0031
15283TIP3    H167340   0.102   4.228   1.351 -0.3352 -2.0182  2.7281
15283TIP3    H267341   0.248   4.257   1.378 -0.1012 -0.3741  0.1610
15284TIP3   OH267342   2.951   3.207  10.693  0.0406 -0.6777 -0.4711
15284TIP3    H167343   3.030   3.179  10.739 -0.9154 -1.7295  0.6013
15284TIP3    H267344   2.931   3.134  10.635 -1.5511 -1.5850  1.1383
15285TIP3   OH267345   3.440   1.756   2.753 -0.1805 -0.1005  0.6395
15285TIP3    H167346   3.464   1.718   2.668  0.8639  3.3231 -0.7611
15285TIP3    H267347   3.359   1.804   2.735 -1.5661 -1.6646  2.3791
15286TIP3   OH267348   6.302   3.464  12.065 -0.8271  0.1066 -0.6653
15286TIP3    H167349   6.349   3.424  12.138 -3.5190 -1.0440  0.5953
15286TIP3    H267350   6.320   3.406  11.991 -1.9767 -1.6773  0.3542
15287TIP3   OH267351   2.474   1.046  15.916  0.0311  0.5231 -0.0564
15287TIP3    H167352   2.431   0.960  15.913  3.5385 -1.4627  0.9614
15287TIP3    H267353   2.542   1.041  15.849  2.1909  1.3122  1.9470
15288TIP3   OH267354   5.354   5.632   0.960 -0.1042  0.3202 -0.5569
15288TIP3    H167355   5.351   5.539   0.985  0.2556  0.3863 -0.2525
15288TIP3    H267356   5.429   5.637   0.899 -0.5712  0.2813 -1.1462
15289TIP3   OH267357   2.525   2.687  13.095 -0.0391  0.0931 -0.2926
15289TIP3    H167358   2.602   2.636  13.120 -0.0957  0.0398 -0.2259
15289TIP3    H267359   2.539   2.772  13.134 -0.1138  0.0181 -0.1013
15290TIP3   OH267360   5.475   2.320   3.045 -0.5250  0.1172  1.0584
15290TIP3    H167361   5.537   2.259   3.005 -0.9328  0.5743 -0.3149
15290TIP3    H267362   5.503   2.326   3.136  1.3537  0.1944  0.5098
15291TIP3   OH267363   3.199   1.115   3.938  0.5615  0.8440  0.2222
15291TIP3    H167364   3.258   1.103   3.863 -0.6155 -2.3566 -0.3644
15291TIP3    H267365   3.119   1.151   3.900 -0.1443 -1.0607 -0.2215
15292TIP3   OH267366   0.922   1.295  13.102  0.1430  0.0039 -0.0328
15292TIP3    H167367   1.013   1.295  13.132 -0.2110 -0.3811  1.0666
15292TIP3    H267368   0.892   1.385  13.117  0.0758 -0.0946  0.4094
15293TIP3   OH267369   5.429   6.582   1.194  0.1235 -0.2779  0.3129
15293TIP3    H167370   5.522   6.559   1.194 -0.1256 -1.3545 -0.3326
15293TIP3    H267371   5.407   6.591   1.101 -0.0127  1.8054  0.4877
15294TIP3   OH267372   2.485   0.957   0.042 -0.0232 -0.2258  0.2994
15294TIP3    H167373   2.567   0.913   0.022  0.0389 -0.4932  1.1003
15294TIP3    H267374   2.417   0.894   0.016  0.0595 -0.6359  1.0379
15295TIP3   OH267375   6.504   6.339  16.783 -0.0029 -0.1456 -0.2283
15295TIP3    H167376   6.521   6.432  16.764  0.4164 -0.2220 -0.2500
15295TIP3    H267377   6.570   6.292  16.732  0.6858 -0.3880  0.8512
15296TIP3   OH267378   6.522   5.892  16.295 -0.3847  0.0837  0.3571
15296TIP3    H167379   6.538   5.890  16.200  0.4892  0.2284  0.4870
15296TIP3    H267380   6.578   5.823  16.329  0.4005  0.9706  0.9085
15297TIP3   OH267381   0.121   1.633   1.413 -0.5051  0.3308 -0.1164
15297TIP3    H167382   0.172   1.608   1.490 -1.2036  0.7968  0.4996
15297TIP3    H267383   0.124   1.555   1.357 -0.7763 -0.3513  0.7934
15298TIP3   OH267384   5.649   5.987  16.694  0.3993  0.2837 -0.1047
15298TIP3    H167385   5.649   5.922  16.763  0.8224  0.0135 -0.3609
15298TIP3    H267386   5.558   6.018  16.690  0.0922 -0.6293 -0.3042
15299TIP3   OH267387   6.306   2.942  17.162 -0.1297 -0.6984  0.3298
15299TIP3    H167388   6.289   3.032  17.193  0.4366  0.0352 -1.3947
15299TIP3    H267389   6.374   2.909  17.221  1.1822  0.7903 -0.2841
15300TIP3   OH267390   3.114   4.058   1.734  0.2091 -0.3497  0.1104
15300TIP3    H167391   3.184   4.014   1.783 -0.7601 -1.4209  0.5804
15300TIP3    H267392   3.084   4.128   1.792 -0.9709 -1.6487  1.1257
15301TIP3   OH267393   1.971   2.750  15.687 -0.0083 -0.6012  0.7452
15301TIP3    H167394   1.980   2.843  15.664  0.9122 -0.4325  1.7263
15301TIP3    H267395   1.942   2.751  15.778  2.4720 -1.2473  1.6226
15302TIP3   OH267396   4.392   4.495   1.296 -0.3039 -0.0020 -0.1512
15302TIP3    H167397   4.464   4.473   1.355 -0.1859 -0.7065 -0.5422
15302TIP3    H267398   4.399   4.432   1.225 -1.2833 -0.0470 -0.2259
15303TIP3   OH267399   2.918   1.606   4.808  0.0750 -0.2522 -1.0525
15303TIP3    H167400   2.909   1.611   4.712 -0.9700  0.3717 -0.9339
15303TIP3    H267401   2.941   1.695   4.834 -1.7004  0.0893 -0.5401
15304TIP3   OH267402   2.471   0.740   2.835 -0.3032 -0.1453  0.1236
15304TIP3    H167403   2.393   0.772   2.879  0.3062  0.3483  0.8735
15304TIP3    H267404   2.510   0.818   2.795  0.8939 -0.0055  1.4971
15305TIP3   OH267405   0.532   4.725  12.371 -0.0504  0.3288 -0.2167
15305TIP3    H167406   0.618   4.752  12.341  0.4842  1.1761  1.9085
15305TIP3    H267407   0.472   4.754  12.302  1.0898  2.0046 -0.5587
15306TIP3   OH267408   4.747   4.811  16.015 -0.1220 -0.3539 -0.0983
15306TIP3    H167409   4.768   4.786  16.105 -0.2965  0.0288  0.0458
15306TIP3    H267410   4.833   4.827  15.975 -0.0985  3.0525  1.0083
15307TIP3   OH267411   2.880   3.230   1.689 -0.1808 -0.4693  0.4157
15307TIP3    H167412   2.950   3.221   1.753  0.6216  0.2036 -0.3238
15307TIP3    H267413   2.814   3.284   1.732  0.9783  1.1955  0.2448
15308TIP3   OH267414   5.582   2.037  11.096  0.5428 -0.1395 -0.8955
15308TIP3    H167415   5.612   1.949  11.075 -1.4496 -1.5270  1.4794
15308TIP3    H267416   5.626   2.058  11.179 -1.6154 -0.4510  0.3960
15309TIP3   OH267417   1.661   1.929  14.810 -0.1278  0.0001 -0.4548
15309TIP3    H167418   1.651   1.842  14.847  2.5855 -0.5042 -0.7334
15309TIP3    H267419   1.631   1.920  14.719  0.5138 -0.7710 -0.5997
15310TIP3   OH267420   2.736   2.211  12.488 -1.0124 -0.1528  0.5681
15310TIP3    H167421   2.747   2.216  12.393 -2.7036 -1.3101  0.2676
15310TIP3    H267422   2.680   2.286  12.509 -3.0638 -1.4995  0.1748
15311TIP3   OH267423   1.608   6.090  13.249  0.4071 -0.4917 -0.2604
15311TIP3    H167424   1.629   6.004  13.212 -0.3273 -0.3835 -0.9531
15311TIP3    H267425   1.558   6.134  13.181  0.2719  0.2729  0.3157
15312TIP3   OH267426   4.169   5.043  11.933  0.0994  0.0459  0.0457
15312TIP3    H167427   4.228   5.102  11.884  3.1705 -1.8891  1.1051
15312TIP3    H267428   4.157   4.968  11.874  1.8030 -1.1967  1.2016
15313TIP3   OH267429   1.702   2.508  15.903  0.1372 -0.5391 -0.4548
15313TIP3    H167430   1.737   2.574  15.843 -1.0310 -0.9276 -1.5958
15313TIP3    H267431   1.664   2.559  15.974  0.6179 -0.0410 -0.5427
15314TIP3   OH267432   5.856   3.978   2.660  0.4354 -0.3524  0.0132
15314TIP3    H167433   5.891   3.892   2.682 -1.8763 -1.7457 -1.2645
15314TIP3    H267434   5.913   4.009   2.589 -0.4120 -2.2637 -1.6090
15315TIP3   OH267435   4.117   4.935  17.295  0.1093  0.4691  0.4974
15315TIP3    H167436   4.092   4.992  17.222  2.9596  0.7328 -0.4171
15315TIP3    H267437   4.075   4.852  17.277 -0.9222  1.1370 -0.3005
15316TIP3   OH267438   3.284   1.808  15.251 -0.4430 -0.2837  0.1119
15316TIP3    H167439   3.225   1.746  15.293  1.8020 -1.0435  2.4175
15316TIP3    H267440   3.321   1.859  15.323  1.0917  0.7101 -1.2934
15317TIP3   OH267441   3.478   2.555   4.428  0.1719  0.2850 -0.4634
15317TIP3    H167442   3.476   2.534   4.335 -1.1111 -1.9436 -0.0208
15317TIP3    H267443   3.397   2.517   4.463  1.3198 -0.3089  1.8069
15318TIP3   OH267444   5.662   0.830   3.531 -0.7237 -0.3859  0.5959
15318TIP3    H167445   5.641   0.745   3.570  0.0044  0.0727  2.0576
15318TIP3    H267446   5.749   0.817   3.492 -0.0006 -0.0029  1.9812
15319TIP3   OH267447   3.150   1.155   5.312  0.7793 -0.8061 -0.4781
15319TIP3    H167448   3.195   1.173   5.228 -0.8529 -1.2450 -1.4847
15319TIP3    H267449   3.057   1.164   5.291  0.3549 -0.5172  1.4171
15320TIP3   OH267450   1.210   0.256  15.860 -0.6365 -0.1158  0.6105
15320TIP3    H167451   1.140   0.234  15.799  1.5002 -0.4441 -1.9549
15320TIP3    H267452   1.247   0.172  15.885  0.3132  0.0940 -0.0184
15321TIP3   OH267453   6.147   4.199  13.699  0.3195 -0.0827  0.4098
15321TIP3    H167454   6.075   4.255  13.727  0.9643  0.5080  0.9113
15321TIP3    H267455   6.214   4.209  13.766  0.5105 -1.3655  0.4521
15322TIP3   OH267456   5.314   6.142   5.564 -0.7000 -0.0782  0.3305
15322TIP3    H167457   5.342   6.087   5.638 -0.1673 -0.6498 -0.2765
15322TIP3    H267458   5.252   6.204   5.602  1.4615  1.3484  1.8100
15323TIP3   OH267459   5.263   5.010   2.115 -0.4516 -0.1755  0.0375
15323TIP3    H167460   5.201   4.987   2.184  0.7143  0.2617  1.2851
15323TIP3    H267461   5.340   4.956   2.133  0.2274  0.6415 -0.3335
15324TIP3   OH267462   1.606   4.227   3.102 -0.7159 -0.2949  0.1995
15324TIP3    H167463   1.665   4.165   3.145  0.5694  0.1781 -0.8161
15324TIP3    H267464   1.604   4.303   3.160 -0.4968 -0.3995  0.3430
15325TIP3   OH267465   4.898   0.425   5.933  0.1922 -0.1538  0.1852
15325TIP3    H167466   4.816   0.380   5.951  0.7424 -0.3685  2.5021
15325TIP3    H267467   4.888   0.458   5.843 -2.7893  0.6478  0.6842
15326TIP3   OH267468   6.739   4.207  14.820 -0.4415  0.4913 -0.0997
15326TIP3    H167469   6.772   4.122  14.791 -1.6881 -0.0951  0.1235
15326TIP3    H267470   6.705   4.247  14.740 -0.0979  0.6774 -0.1567
15327TIP3   OH267471   5.014   6.770   1.763 -0.2797  0.5799 -0.5092
15327TIP3    H167472   4.934   6.717   1.766  1.4910 -2.2832  1.4914
15327TIP3    H267473   5.002   6.836   1.830 -0.5517 -0.6122  0.6644
15328TIP3   OH267474   4.599   5.141   3.721 -0.2265  0.0740  0.4475
15328TIP3    H167475   4.515   5.153   3.765  0.8580  1.7772  2.1720
15328TIP3    H267476   4.619   5.227   3.684  0.4393 -0.5136 -0.6104
15329TIP3   OH267477   3.503   4.106  15.983 -0.0965  0.2086 -0.3848
15329TIP3    H167478   3.569   4.090  15.916 -0.3228 -1.3652 -0.2725
15329TIP3    H267479   3.419   4.102  15.936 -0.2401 -0.5952 -0.0804
15330TIP3   OH267480   1.418   4.128  17.388 -0.6970  0.2504  0.2779
15330TIP3    H167481   1.393   4.146  17.297 -0.8828 -1.7806 -0.1308
15330TIP3    H267482   1.339   4.147  17.439 -1.3262 -0.7287 -0.2951
15331TIP3   OH267483   5.195   4.195  12.127  0.0734  0.1113 -0.1247
15331TIP3    H167484   5.206   4.219  12.035  0.5317  2.0206  0.3849
15331TIP3    H267485   5.108   4.154  12.131 -0.8032  1.7614 -1.0946
15332TIP3   OH267486   1.483   2.566  11.412 -0.9156 -0.0246  0.5492
15332TIP3    H167487   1.536   2.634  11.371 -0.1023 -1.7095 -1.4096
15332TIP3    H267488   1.507   2.569  11.505  0.7698  0.8721  0.1260
15333TIP3   OH267489   6.334   5.496   4.321 -0.4940  0.1028 -0.1160
15333TIP3    H167490   6.376   5.571   4.362 -0.4876 -0.5391  1.1076
15333TIP3    H267491   6.256   5.531   4.279  0.2212  0.9926 -0.7181
15334TIP3   OH267492   1.303   1.314  12.466 -0.1270  0.3847 -0.3101
15334TIP3    H167493   1.249   1.393  12.470 -0.0372  0.5318 -1.5749
15334TIP3    H267494   1.381   1.340  12.416  0.3330 -0.2596  0.0637
15335TIP3   OH267495   5.257   4.230  11.857 -0.5603 -0.4985  0.6801
15335TIP3    H167496   5.328   4.167  11.853 -1.4537 -1.5589  1.1154
15335TIP3    H267497   5.301   4.315  11.860  0.6942 -1.1435  1.3034
15336TIP3   OH267498   4.946   1.999  11.005  0.2009 -0.6084 -0.1079
15336TIP3    H167499   4.980   1.985  10.917  1.7540  0.0542  0.3632
15336TIP3    H267500   4.950   2.093  11.019 -1.7075 -0.5051  0.0539
15337TIP3   OH267501   5.743   0.878   5.658  0.3500 -0.3134  0.3256
15337TIP3    H167502   5.808   0.933   5.703 -1.5205  1.6319  0.8288
15337TIP3    H267503   5.747   0.906   5.567 -1.2513  1.4996  0.7338
15338TIP3   OH267504   2.903   6.543  11.753  0.0908  0.0932  0.3521
15338TIP3    H167505   2.916   6.601  11.828  2.4496  2.4107 -1.6715
15338TIP3    H267506   2.828   6.579  11.707  0.6486  0.6901 -0.1096
15339TIP3   OH267507   1.719   5.103   2.246  0.1542  0.1539 -0.3688
15339TIP3    H167508   1.733   5.008   2.253  2.2323  0.2677 -2.3144
15339TIP3    H267509   1.710   5.132   2.337  1.9773 -1.5881  0.4384
15340TIP3   OH267510   4.480   4.811  17.322 -0.1566 -0.8487 -0.2264
15340TIP3    H167511   4.433   4.790  17.403 -0.9355 -0.6880 -0.6254
15340TIP3    H267512   4.503   4.726  17.285 -0.6424 -0.9460 -0.3124
15341TIP3   OH267513   5.721   0.081   4.160 -0.2110  0.2182  0.2544
15341TIP3    H167514   5.703   0.115   4.248 -2.0768  2.5489 -0.9044
15341TIP3    H267515   5.812   0.052   4.164 -0.3763 -0.2222  3.0577
15342TIP3   OH267516   3.229   2.034  16.297  0.3732  0.5737  0.2509
15342TIP3    H167517   3.145   2.057  16.256  0.1682  0.3425  0.5349
15342TIP3    H267518   3.229   1.938  16.300  0.7141  0.5688  0.1182
15343TIP3   OH267519   1.138   6.097   4.024 -0.5968  0.5771  0.2826
15343TIP3    H167520   1.108   6.177   4.067  0.2298  0.2982  1.4100
15343TIP3    H267521   1.076   6.030   4.052 -0.3764  0.5064  0.6028
15344TIP3   OH267522   0.570   3.470  13.636 -0.1810  0.0761 -0.6821
15344TIP3    H167523   0.551   3.559  13.606  0.9159  0.2181 -1.0179
15344TIP3    H267524   0.666   3.467  13.640 -0.1958 -1.1829 -0.9646
15345TIP3   OH267525   3.098   5.101   4.722 -0.4014  0.1635 -0.3167
15345TIP3    H167526   3.115   5.113   4.628 -0.6244  0.5252 -0.3088
15345TIP3    H267527   3.017   5.149   4.739 -2.3236 -2.6929 -0.6420
15346TIP3   OH267528   1.276   2.652  17.167 -0.1322  0.2632  0.4814
15346TIP3    H167529   1.231   2.571  17.143  1.0750 -0.6909  1.3138
15346TIP3    H267530   1.341   2.625  17.233  1.8889  1.4880 -0.8877
15347TIP3   OH267531   4.613   2.376   1.079 -0.6447  0.2301 -0.0724
15347TIP3    H167532   4.587   2.413   0.995 -2.2980 -2.9506 -1.1062
15347TIP3    H267533   4.699   2.338   1.063 -0.5878  0.3615 -0.0785
15348TIP3   OH267534   1.920   6.653  11.261 -0.3087 -0.5821  0.2336
15348TIP3    H167535   1.960   6.707  11.193 -0.1195  1.4473  1.8191
15348TIP3    H267536   1.990   6.593  11.289  0.6158  0.6591  0.6914
15349TIP3   OH267537   1.556   1.006  12.983 -0.3236 -0.2866  0.7470
15349TIP3    H167538   1.551   1.090  13.028  1.0969  0.9442 -1.2165
15349TIP3    H267539   1.645   0.974  13.002 -1.3963 -2.2685  2.8840
15350TIP3   OH267540   1.342   6.183  15.847  0.5512  0.0148  0.2476
15350TIP3    H167541   1.370   6.261  15.894  1.4394  0.4434 -0.9250
15350TIP3    H267542   1.255   6.205  15.813 -1.3524 -1.2504  3.7493
15351TIP3   OH267543   0.262   2.568  11.078  0.0731  0.2299  0.2036
15351TIP3    H167544   0.302   2.508  11.141 -0.0127  1.5211  1.5506
15351TIP3    H267545   0.235   2.643  11.131 -2.4035  0.2390 -0.9588
15352TIP3   OH267546   4.358   0.229  17.252 -0.6516  0.2386 -0.0062
15352TIP3    H167547   4.434   0.278  17.221  0.6477 -0.4011  2.0088
15352TIP3    H267548   4.321   0.190  17.172  1.5296  0.0086 -0.9796
15353TIP3   OH267549   3.378   6.740   1.018  0.1545 -0.0298  0.6983
15353TIP3    H167550   3.396   6.815   1.075  1.2052 -0.7436  1.3488
15353TIP3    H267551   3.296   6.704   1.051 -1.2554  1.7494 -0.6493
15354TIP3   OH267552   2.840   4.738  14.660 -0.7702  0.1558  0.1483
15354TIP3    H167553   2.812   4.650  14.685 -3.2217  1.2096  1.4917
15354TIP3    H267554   2.802   4.752  14.573  0.1861 -0.3264 -0.3560
15355TIP3   OH267555   3.357   1.613   1.193  0.1439  0.5018  0.3707
15355TIP3    H167556   3.385   1.669   1.265  0.2693 -0.2234  0.8983
15355TIP3    H267557   3.396   1.528   1.212  0.8372  0.4923 -0.9749
15356TIP3   OH267558   1.861   6.016   5.649  0.1283 -0.0912  0.6027
15356TIP3    H167559   1.787   5.955   5.651  0.2683 -0.5471 -2.6612
15356TIP3    H267560   1.931   5.968   5.604  0.2684  2.3196 -2.0450
15357TIP3   OH267561   5.742   2.167  12.281 -0.0398 -0.6296  0.1680
15357TIP3    H167562   5.651   2.138  12.286 -0.6848  0.7514 -2.0268
15357TIP3    H267563   5.741   2.253  12.324 -0.0092 -0.1704 -0.7404
15358TIP3   OH267564   1.346   4.797   2.670 -0.4013  0.0355  0.0388
15358TIP3    H167565   1.271   4.779   2.613 -1.5983  0.3770  1.4251
15358TIP3    H267566   1.326   4.882   2.710  1.8453  1.2581 -1.2355
15359TIP3   OH267567   6.329   1.401   6.350  0.1130 -0.0873  0.2610
15359TIP3    H167568   6.411   1.440   6.381  0.8978  0.5530 -2.3168
15359TIP3    H267569   6.267   1.474   6.350  0.2519  0.0341 -0.1048
15360TIP3   OH267570   1.486   1.673  11.740 -0.2161 -0.0300  0.6354
15360TIP3    H167571   1.427   1.703  11.671  1.1387  2.6284  0.5092
15360TIP3    H267572   1.570   1.659  11.695  0.3330  0.4146  1.5002
15361TIP3   OH267573   6.692   2.743  14.912  0.4026 -0.1878 -0.2757
15361TIP3    H167574   6.616   2.708  14.866  1.1183 -2.6526  0.2607
15361TIP3    H267575   6.766   2.691  14.879  1.3276 -0.2267  1.6911
15362TIP3   OH267576   1.281   0.872   3.038  0.1233 -0.0700  0.5164
15362TIP3    H167577   1.362   0.840   2.999  0.7919 -0.0738  1.8482
15362TIP3    H267578   1.292   0.968   3.039 -0.5201  0.0373 -0.5840
15363TIP3   OH267579   5.131   1.172   1.017 -0.4664 -0.0633 -0.1896
15363TIP3    H167580   5.038   1.195   1.027 -0.4513  0.3969 -0.9710
15363TIP3    H267581   5.178   1.253   1.036 -0.2098 -0.3215  0.3036
15364TIP3   OH267582   3.595   0.894  11.344 -0.0961  0.1486  0.1865
15364TIP3    H167583   3.666   0.839  11.312 -0.5548 -0.1644 -0.3068
15364TIP3    H267584   3.546   0.917  11.265  0.9905  2.5990  0.1273
15365TIP3   OH267585   6.758   2.661  15.535  0.1183  0.1149 -0.3758
15365TIP3    H167586   6.711   2.581  15.557  1.3791 -0.3537  0.8001
15365TIP3    H267587   6.713   2.729  15.585  1.7956 -0.6539  2.4262
15366TIP3   OH267588   4.511   2.971  17.365  0.8383  0.5752  0.6935
15366TIP3    H167589   4.554   2.964  17.280 -0.3707 -0.2767  0.1306
15366TIP3    H267590   4.496   2.881  17.393 -1.1753  0.8257  0.5392
15367TIP3   OH267591   2.815   2.095  13.969 -0.1443  0.3555 -0.0957
15367TIP3    H167592   2.786   2.167  13.913  1.9385  1.6260  0.3473
15367TIP3    H267593   2.910   2.096  13.962  0.0771 -0.6974  1.9672
15368TIP3   OH267594   1.253   4.586  14.097 -0.2276 -0.8372 -0.2038
15368TIP3    H167595   1.227   4.678  14.090 -0.8927 -0.9924  0.1994
15368TIP3    H267596   1.195   4.540  14.036 -0.0209 -1.0183 -0.2651
15369TIP3   OH267597   2.400   4.103  13.937  0.0387 -0.0403 -0.3401
15369TIP3    H167598   2.365   4.189  13.916 -0.8045 -0.3898 -0.4251
15369TIP3    H267599   2.395   4.054  13.855 -2.1404 -1.0372  0.3056
15370TIP3   OH267600   0.621   3.629  15.327 -0.2912  0.0743 -0.4997
15370TIP3    H167601   0.685   3.635  15.398  0.2271  2.8829 -1.0784
15370TIP3    H267602   0.648   3.552  15.277  1.7602  0.3415  0.1064
15371TIP3   OH267603   5.278   1.957  17.513 -0.3763  0.1606  0.1022
15371TIP3    H167604   5.279   1.912  17.597 -2.2769 -1.4085 -0.6363
15371TIP3    H267605   5.305   1.890  17.449  0.2136  1.0873 -0.6601
15372TIP3   OH267606   1.901   6.711  15.408  0.5163 -0.5774 -0.5446
15372TIP3    H167607   1.867   6.770  15.341  0.9382  0.6037  0.2432
15372TIP3    H267608   1.878   6.753  15.491  2.1589 -0.7138  0.0311
15373TIP3   OH267609   6.615   0.939  15.131 -0.6529 -0.2953 -0.1402
15373TIP3    H167610   6.542   0.897  15.176  2.1753 -1.6153  3.6763
15373TIP3    H267611   6.656   0.868  15.081  1.2732 -1.1507  2.4366
15374TIP3   OH267612   2.842   0.268  11.383  0.0408  0.1270 -0.2162
15374TIP3    H167613   2.856   0.224  11.299  0.5223  1.8334 -1.0609
15374TIP3    H267614   2.816   0.197  11.442  1.9392 -1.4927 -1.2039
15375TIP3   OH267615   4.561   5.801   1.694 -0.3825  0.3408  0.1626
15375TIP3    H167616   4.471   5.799   1.728 -0.0136 -3.1848  1.3711
15375TIP3    H267617   4.609   5.856   1.756 -1.0405 -0.7216  1.6871
15376TIP3   OH267618   2.678   4.345  13.319 -0.4354  0.3273  0.1035
15376TIP3    H167619   2.733   4.331  13.242  2.4291 -1.1120  2.2057
15376TIP3    H267620   2.693   4.437  13.342  0.0349  0.3170 -0.1390
15377TIP3   OH267621   4.924   4.020  15.908 -0.5172 -0.3089 -0.3988
15377TIP3    H167622   4.997   3.958  15.901 -0.5690 -0.4369  0.1358
15377TIP3    H267623   4.905   4.045  15.818 -1.0095 -1.6855 -0.7031
15378TIP3   OH267624   6.369   6.488  13.934 -0.8734 -0.6239 -0.7877
15378TIP3    H167625   6.412   6.467  13.851 -1.1908  1.2055 -1.4622
15378TIP3    H267626   6.393   6.579  13.951 -0.2989 -1.1295  1.4896
15379TIP3   OH267627   1.511   2.351   4.895 -0.1376  0.4884 -0.4465
15379TIP3    H167628   1.588   2.342   4.951 -0.4673 -1.8049 -0.2697
15379TIP3    H267629   1.439   2.312   4.945 -0.8300  0.0705 -1.6984
15380TIP3   OH267630   1.468   6.227  15.004  0.0264 -0.2722 -0.4717
15380TIP3    H167631   1.466   6.154  15.066 -1.5456  1.2759  1.4373
15380TIP3    H267632   1.559   6.256  15.005  0.0960 -0.4553  0.9337
15381TIP3   OH267633   6.215   0.185   6.629  0.0805  0.3667 -0.1940
15381TIP3    H167634   6.295   0.153   6.669 -0.0365 -1.0997 -1.0718
15381TIP3    H267635   6.164   0.220   6.702 -0.0324 -2.0092  0.9440
15382TIP3   OH267636   6.677   4.778   4.160  0.6816  0.3736 -0.2992
15382TIP3    H167637   6.585   4.752   4.156  0.5124  0.9792 -0.4591
15382TIP3    H267638   6.681   4.862   4.114  1.5788 -0.3236 -1.5720
15383TIP3   OH267639   1.958   1.974   2.743  0.1251  0.4746 -0.0557
15383TIP3    H167640   1.920   1.969   2.831 -0.4843  2.7522 -0.1125
15383TIP3    H267641   2.051   1.989   2.758  0.3077 -0.7458  0.1455
15384TIP3   OH267642   4.620   3.128   5.240 -0.1487  0.2608 -0.1142
15384TIP3    H167643   4.650   3.217   5.219  0.9411  0.0875  0.6154
15384TIP3    H267644   4.527   3.127   5.216  0.0832  1.2711 -1.1106
15385TIP3   OH267645   2.879   3.105  10.969 -0.0142 -0.1533  0.1771
15385TIP3    H167646   2.930   3.177  11.006 -0.2547 -0.5711  1.3553
15385TIP3    H267647   2.902   3.105  10.876 -0.5682  1.8812  0.0021
15386TIP3   OH267648   3.249   2.916  11.809  0.2538  0.1149 -0.4157
15386TIP3    H167649   3.313   2.845  11.804  0.5523  0.2976  0.6197
15386TIP3    H267650   3.164   2.873  11.802  0.3397 -0.6151  2.1115
15387TIP3   OH267651   5.110   4.697   2.073 -0.3215  0.1811 -0.5540
15387TIP3    H167652   5.144   4.731   1.991  1.6704 -1.0309 -0.3156
15387TIP3    H267653   5.151   4.751   2.140  1.2955 -1.3218 -0.2565
15388TIP3   OH267654   4.293   2.414  15.130 -0.2261  0.0552  0.7281
15388TIP3    H167655   4.381   2.433  15.163 -0.2055 -1.4599  1.6386
15388TIP3    H267656   4.279   2.322  15.152 -2.2747  0.4229  1.1232
15389TIP3   OH267657   4.141   2.558   1.709  0.2499 -0.2427 -0.6288
15389TIP3    H167658   4.129   2.639   1.660 -0.6388 -1.5336 -2.6929
15389TIP3    H267659   4.235   2.543   1.710  0.3792  0.5489 -0.6574
15390TIP3   OH267660   6.590   3.469  16.347 -0.1815  0.3714 -0.6463
15390TIP3    H167661   6.661   3.531  16.331  1.4384 -1.0283  0.6573
15390TIP3    H267662   6.556   3.493  16.433  0.4463 -0.4815 -0.1404
15391TIP3   OH267663   3.495   2.267  11.859 -0.0008  0.1573 -0.5990
15391TIP3    H167664   3.485   2.215  11.779 -1.9473  0.3638 -0.5369
15391TIP3    H267665   3.492   2.203  11.930 -1.1393  0.1960 -0.5860
15392TIP3   OH267666   1.986   1.568  10.968  0.2485  0.2384 -0.5783
15392TIP3    H167667   2.057   1.589  10.908 -0.4570  2.0495 -0.8311
15392TIP3    H267668   1.907   1.569  10.914 -0.0762 -1.0700 -0.1667
15393TIP3   OH267669   3.668   5.742  16.579 -0.4891 -0.0594  0.1910
15393TIP3    H167670   3.618   5.690  16.515 -0.6953  2.7520 -2.1661
15393TIP3    H267671   3.616   5.821  16.590  2.7286  2.5067 -1.4551
15394TIP3   OH267672   6.273   2.218   0.404  0.3764 -0.2209 -0.1350
15394TIP3    H167673   6.183   2.246   0.387 -0.0760 -0.5366  1.6010
15394TIP3    H267674   6.324   2.299   0.399 -0.0371  0.0122 -0.8207
15395TIP3   OH267675   1.298   4.200   5.625 -0.3098  0.4286  0.0652
15395TIP3    H167676   1.381   4.154   5.642 -0.4840 -0.2256 -0.7901
15395TIP3    H267677   1.283   4.188   5.531 -1.9181 -0.3943  0.3911
15396TIP3   OH267678   5.860   5.947  11.926 -0.1512  0.3086  0.1953
15396TIP3    H167679   5.870   5.854  11.905 -0.0268  0.3606  0.0151
15396TIP3    H267680   5.774   5.970  11.892  0.2413  0.5042 -0.6892
15397TIP3   OH267681   2.835   0.349   1.382 -0.5532 -0.1077  0.0080
15397TIP3    H167682   2.795   0.354   1.469 -0.0785 -2.0441  0.3710
15397TIP3    H267683   2.775   0.296   1.331  0.6487 -1.6146  0.0790
15398TIP3   OH267684   1.507   6.182  11.990  0.4638 -0.2210 -0.1793
15398TIP3    H167685   1.440   6.249  12.002  1.2568  0.4958  0.3436
15398TIP3    H267686   1.498   6.156  11.899 -0.3154  0.0946 -0.2004
15399TIP3   OH267687   4.032   3.328   1.005 -0.1924  0.0582 -0.5580
15399TIP3    H167688   4.124   3.303   1.002 -0.7388 -2.0859 -0.5408
15399TIP3    H267689   3.995   3.274   1.075 -0.6409  3.9817  2.6254
15400TIP3   OH267690   1.821   3.757  14.023  0.8207 -0.2650  0.5770
15400TIP3    H167691   1.754   3.706  13.979  0.6379  0.6187 -0.2174
15400TIP3    H267692   1.781   3.784  14.106 -0.4656  1.6371 -0.6042
15401TIP3   OH267693   3.591   6.656  10.766 -0.3983  0.4285 -0.5422
15401TIP3    H167694   3.604   6.735  10.820 -2.8756  0.1902  0.5294
15401TIP3    H267695   3.587   6.689  10.676 -2.8431  1.8291 -0.0109
15402TIP3   OH267696   3.756   4.554  15.586 -0.2713  0.2201 -0.8950
15402TIP3    H167697   3.704   4.522  15.512  0.4664 -1.1189 -0.8814
15402TIP3    H267698   3.768   4.476  15.641  1.9788  0.4017 -1.0625
15403TIP3   OH267699   2.804   6.666   5.707  0.0643 -0.4969 -0.1926
15403TIP3    H167700   2.776   6.589   5.756  0.8688 -1.7563 -1.6331
15403TIP3    H267701   2.884   6.638   5.661  0.7264  1.3843 -0.2877
15404TIP3   OH267702   5.782   3.408  12.497 -0.7075 -0.5902  0.4559
15404TIP3    H167703   5.752   3.329  12.451 -0.6182 -1.5315  1.9384
15404TIP3    H267704   5.703   3.461  12.506 -1.3689 -1.7141  1.7255
15405TIP3   OH267705   6.520   5.543  13.586  0.4965  0.6451 -0.0883
15405TIP3    H167706   6.426   5.560  13.578  0.5178  0.7546 -0.1089
15405TIP3    H267707   6.557   5.569  13.502  0.4927  0.2569 -0.2081
15406TIP3   OH267708   0.996   5.233  11.065 -0.6166 -0.2267  0.1331
15406TIP3    H167709   0.927   5.299  11.057 -0.7117  0.2184  3.2141
15406TIP3    H267710   0.951   5.149  11.053 -1.5925  0.0989  1.3009
15407TIP3   OH267711   6.524   6.476   3.167 -0.3977 -0.3991 -0.3688
15407TIP3    H167712   6.586   6.531   3.216 -2.3177  2.0067 -0.4583
15407TIP3    H267713   6.574   6.449   3.090  1.2195 -0.3895  0.6101
15408TIP3   OH267714   5.122   3.260  12.496  0.7915 -0.5580 -0.5076
15408TIP3    H167715   5.123   3.185  12.555 -3.7557  0.0534  0.7411
15408TIP3    H267716   5.115   3.222  12.408 -0.7838 -1.6398  0.0565
15409TIP3   OH267717   0.169   3.965   5.346  0.4191 -0.3654  0.1942
15409TIP3    H167718   0.245   4.024   5.348 -0.6587  1.1090 -0.5716
15409TIP3    H267719   0.170   3.929   5.257 -0.6435  0.9181 -0.3831
15410TIP3   OH267720   4.307   5.835  17.024  0.1722  0.4326 -0.3086
15410TIP3    H167721   4.345   5.792  16.948  1.6105 -0.3651  0.8105
15410TIP3    H267722   4.227   5.876  16.991 -0.1408 -1.2978 -1.8783
15411TIP3   OH267723   2.386   4.084  11.375  0.5896  0.5067  0.2128
15411TIP3    H167724   2.419   4.025  11.307  0.3395 -0.2308  0.7207
15411TIP3    H267725   2.346   4.026  11.440  0.4322  1.2310  0.7760
15412TIP3   OH267726   4.803   5.139  15.133 -0.5526  0.2778  0.4856
15412TIP3    H167727   4.806   5.217  15.078 -0.9492  0.9167  1.3492
15412TIP3    H267728   4.855   5.074  15.085 -0.8576  0.8183 -0.6166
15413TIP3   OH267729   4.498   6.536  13.875 -0.1854  0.8490  0.5677
15413TIP3    H167730   4.485   6.616  13.825  0.0983 -1.0444 -2.8558
15413TIP3    H267731   4.592   6.519  13.869 -0.3742 -0.2113  0.3593
15414TIP3   OH267732   3.856   2.699  12.420 -0.1033 -0.1614 -0.1634
15414TIP3    H167733   3.874   2.685  12.512 -1.5456  4.0142  0.9977
15414TIP3    H267734   3.761   2.711  12.415  0.2385  3.7265 -1.2321
15415TIP3   OH267735   4.894   0.420  15.445 -0.3220 -0.0062  0.1673
15415TIP3    H167736   4.924   0.380  15.364  2.7087 -0.2461  1.2964
15415TIP3    H267737   4.909   0.514  15.432  0.5588 -0.0811  0.5472
15416TIP3   OH267738   4.480   6.116  16.873 -0.1068  0.4194  0.1114
15416TIP3    H167739   4.478   6.068  16.955 -0.6405  2.0798  1.1235
15416TIP3    H267740   4.541   6.188  16.888 -2.7141  2.7778  0.3394
15417TIP3   OH267741   4.473   4.100  13.088  0.1128  0.1855  1.0428
15417TIP3    H167742   4.509   4.011  13.086 -1.0295 -0.2859  0.5177
15417TIP3    H267743   4.535   4.152  13.035  0.8978 -0.2385  1.5282
15418TIP3   OH267744   1.247   6.208   3.806 -0.0528  0.2601 -0.3930
15418TIP3    H167745   1.194   6.167   3.874  1.4021  0.2299  0.7811
15418TIP3    H267746   1.236   6.152   3.730 -0.0207 -0.9539  0.4605
15419TIP3   OH267747   3.016   1.380  16.069  0.4499  0.3238 -0.4954
15419TIP3    H167748   2.985   1.318  16.003 -0.0019 -0.2646  0.2633
15419TIP3    H267749   3.016   1.331  16.151 -0.9250  1.6087  0.3328
15420TIP3   OH267750   0.718   6.012  16.288 -0.1527  0.1906  0.3371
15420TIP3    H167751   0.685   5.953  16.221  0.1365 -1.1915  1.3578
15420TIP3    H267752   0.803   6.041  16.255 -0.8728  1.1205 -0.7740
15421TIP3   OH267753   1.487   5.447  13.222 -0.0662 -0.2610 -0.0263
15421TIP3    H167754   1.474   5.428  13.130 -0.1548 -0.5974  0.0549
15421TIP3    H267755   1.495   5.542  13.226  0.9505 -0.3079 -0.5078
15422TIP3   OH267756   1.702   0.466   1.787 -0.2852  0.4796 -0.7555
15422TIP3    H167757   1.657   0.460   1.703 -1.7903  0.6213  0.0192
15422TIP3    H267758   1.794   0.480   1.764 -0.6702  0.4867 -2.3703
15423TIP3   OH267759   0.215   0.550  14.207 -0.0592 -0.2665 -0.4973
15423TIP3    H167760   0.241   0.496  14.132  1.3925 -0.1869 -0.0817
15423TIP3    H267761   0.293   0.601  14.228 -0.6509  0.2038  0.6551
15424TIP3   OH267762   2.066   0.781  13.029  0.3466  0.0193 -0.0568
15424TIP3    H167763   2.134   0.797  12.964  1.0492 -0.4344  0.5497
15424TIP3    H267764   2.098   0.822  13.109 -0.1508 -0.0867  0.2043
15425TIP3   OH267765   3.062   3.974  15.922 -0.1562  0.9260 -0.1559
15425TIP3    H167766   2.976   4.010  15.902 -0.4871  0.5912  0.6223
15425TIP3    H267767   3.101   4.035  15.985 -0.7022 -0.0077  1.1308
15426TIP3   OH267768   5.579   3.168  14.726 -0.0273 -0.3279 -0.9361
15426TIP3    H167769   5.489   3.144  14.747 -0.0774  0.2868 -0.4171
15426TIP3    H267770   5.623   3.084  14.709 -0.7931 -0.6015 -1.6126
15427TIP3   OH267771   5.399   4.047   5.958  0.5645 -0.3759  0.1867
15427TIP3    H167772   5.404   3.992   5.880  1.9350 -1.1648  0.7887
15427TIP3    H267773   5.484   4.092   5.961 -0.7802  2.4469 -0.7185
15428TIP3   OH267774   2.044   6.215  13.180 -0.2135  0.2285  0.0655
15428TIP3    H167775   1.963   6.240  13.135 -1.2597 -1.5316  0.8568
15428TIP3    H267776   2.033   6.247  13.269  1.0778  2.1349 -0.4053
15429TIP3   OH267777   4.922   6.292   6.326 -0.0628 -0.1976  0.1461
15429TIP3    H167778   4.973   6.217   6.296 -0.2160  0.1495 -1.0639
15429TIP3    H267779   4.836   6.255   6.349 -0.4460 -0.3057 -1.3167
15430TIP3   OH267780   5.585   0.333   4.189 -0.1378 -0.0255 -0.0874
15430TIP3    H167781   5.621   0.291   4.267 -0.1085  1.5187  0.7825
15430TIP3    H267782   5.637   0.298   4.116  2.0083  0.8395  0.9363
15431TIP3   OH267783   2.657   3.729  16.189 -0.5486  0.0546 -0.0339
15431TIP3    H167784   2.736   3.781  16.196  0.3926 -1.3412  0.0613
15431TIP3    H267785   2.678   3.663  16.123 -2.0973  0.4562 -0.9864
15432TIP3   OH267786   3.155   1.216   1.697  0.2146  0.3075  0.0396
15432TIP3    H167787   3.189   1.147   1.754  1.1864  0.5993 -0.1752
15432TIP3    H267788   3.217   1.288   1.707 -0.8881  1.2448  0.4196
15433TIP3   OH267789   6.686   6.635   3.323  0.2830  0.3446 -0.4738
15433TIP3    H167790   6.646   6.699   3.382 -0.7396  0.7413 -1.5584
15433TIP3    H267791   6.688   6.554   3.373  0.7495  1.0041  0.5994
15434TIP3   OH267792   4.210   2.516  13.595 -0.4096  0.1975  0.6665
15434TIP3    H167793   4.149   2.563  13.537  1.9478  1.3952 -1.0035
15434TIP3    H267794   4.270   2.584  13.626  0.9437 -1.1421  1.0901
15435TIP3   OH267795   5.948   6.351   3.794  0.2103 -0.5225 -0.2019
15435TIP3    H167796   5.865   6.322   3.831 -0.0985  0.2236 -0.2859
15435TIP3    H267797   5.925   6.426   3.739  0.9619 -0.1942 -0.0886
15436TIP3   OH267798   5.698   1.312   3.621  0.0889 -0.3971  0.3182
15436TIP3    H167799   5.685   1.218   3.629 -0.8359 -0.4160 -0.9489
15436TIP3    H267800   5.634   1.351   3.680 -0.7825 -0.5753 -0.4742
15437TIP3   OH267801   5.057   2.940  17.050  0.2412 -0.6904  0.1757
15437TIP3    H167802   5.090   2.852  17.030  1.3196 -0.1912 -0.3255
15437TIP3    H267803   5.122   2.999  17.012 -0.4306  0.3307  0.5723
15438TIP3   OH267804   6.031   2.220  13.006 -0.0107 -0.0595 -0.2376
15438TIP3    H167805   6.116   2.263  13.005  0.3461 -0.6788  1.2051
15438TIP3    H267806   5.974   2.278  13.056  0.2769 -0.8737  1.0719
15439TIP3   OH267807   6.496   2.894   1.495  0.0296  0.3704  0.2579
15439TIP3    H167808   6.466   2.842   1.569  0.3271 -1.4504 -0.8301
15439TIP3    H267809   6.421   2.948   1.471 -1.7335 -2.3791 -0.9558
15440TIP3   OH267810   4.144   4.325   2.033 -0.4935  0.0418 -0.3135
15440TIP3    H167811   4.090   4.396   2.066 -0.4025  0.6750 -1.4679
15440TIP3    H267812   4.164   4.272   2.110 -3.8465 -1.0180 -0.0095
15441TIP3   OH267813   5.189   3.783  11.177 -0.2009  0.0073 -0.0011
15441TIP3    H167814   5.221   3.762  11.089  0.2679  0.8130 -0.0363
15441TIP3    H267815   5.107   3.735  11.184 -0.5594  0.4241 -1.1133
15442TIP3   OH267816   0.153   0.542  11.915 -0.5745 -0.3565  0.0689
15442TIP3    H167817   0.160   0.528  12.010  1.5955 -0.0240  0.0170
15442TIP3    H267818   0.067   0.508  11.892 -2.1042  1.5571  2.4780
15443TIP3   OH267819   1.595   1.464  16.576 -0.2549  0.0429 -0.2432
15443TIP3    H167820   1.615   1.385  16.627  1.7282  0.3276 -0.4852
15443TIP3    H267821   1.651   1.456  16.498 -1.6287  0.6641 -1.3355
15444TIP3   OH267822   2.208   4.658   1.932  0.6695  0.2039 -0.7169
15444TIP3    H167823   2.237   4.573   1.900 -2.4979 -0.6018 -1.8157
15444TIP3    H267824   2.187   4.708   1.854 -0.2749  0.9027 -0.0420
15445TIP3   OH267825   1.224   6.124  16.229  0.8575 -0.0787  0.5404
15445TIP3    H167826   1.202   6.099  16.319 -0.6886 -0.5678  0.0499
15445TIP3    H267827   1.245   6.041  16.185  2.5354  0.2471  0.6537
15446TIP3   OH267828   1.923   6.532   5.894 -0.5860 -0.4058 -0.3871
15446TIP3    H167829   1.881   6.604   5.942  1.0853  0.2846  0.1142
15446TIP3    H267830   1.881   6.453   5.927 -0.0651  0.1189  1.6451
15447TIP3   OH267831   5.818   1.383   2.667 -0.0543  0.0338 -0.0057
15447TIP3    H167832   5.828   1.337   2.750  1.5865  0.4221  0.0447
15447TIP3    H267833   5.750   1.448   2.683 -1.0467 -1.0997  0.4803
15448TIP3   OH267834   3.577   2.507  13.486 -0.4249  0.3583 -0.2244
15448TIP3    H167835   3.550   2.500  13.394 -1.3508 -1.3719  0.1297
15448TIP3    H267836   3.661   2.463  13.490  0.6072  2.2039 -0.5752
15449TIP3   OH267837   1.549   3.456   0.783  0.6281 -0.0399 -0.3848
15449TIP3    H167838   1.608   3.449   0.858  1.1294  0.6608 -0.7001
15449TIP3    H267839   1.519   3.367   0.766  3.3740 -0.8190 -1.6582
15450TIP3   OH267840   4.787   0.870   5.131  0.2364  0.5713  0.0313
15450TIP3    H167841   4.756   0.941   5.187 -0.7326 -0.7163  1.2338
15450TIP3    H267842   4.880   0.887   5.119  0.0038  2.0714  0.2161
15451TIP3   OH267843   3.657   5.587   5.135  0.4583 -0.0707  0.1369
15451TIP3    H167844   3.709   5.516   5.172  0.7349  0.1236  0.1213
15451TIP3    H267845   3.592   5.542   5.080  1.1312 -0.2834 -0.5036
15452TIP3   OH267846   1.636   6.598   4.229  0.3805 -0.3198 -0.6357
15452TIP3    H167847   1.560   6.641   4.190  0.3866  0.0245 -0.2715
15452TIP3    H267848   1.700   6.593   4.158  0.1020 -0.4167 -0.8833
15453TIP3   OH267849   0.253   5.340   4.387 -0.4971  0.5245 -0.3033
15453TIP3    H167850   0.291   5.265   4.433 -1.4145  0.4596  0.3935
15453TIP3    H267851   0.309   5.414   4.411 -1.0419  0.5241  1.0870
15454TIP3   OH267852   5.215   2.310   3.012  0.4377  0.1198  0.2888
15454TIP3    H167853   5.206   2.400   3.042  0.3948 -0.4120  1.9664
15454TIP3    H267854   5.301   2.283   3.043  0.7521 -0.2043 -0.8271
15455TIP3   OH267855   3.314   3.262   2.689  0.7482  0.5434 -0.0119
15455TIP3    H167856   3.367   3.218   2.756  0.5394  1.0383  0.4892
15455TIP3    H267857   3.262   3.326   2.738 -1.0610 -0.5823 -0.3279
15456TIP3   OH267858   6.490   0.415   1.082  0.2314  0.3795  0.5905
15456TIP3    H167859   6.528   0.348   1.026 -0.8104  1.3193 -1.3181
15456TIP3    H267860   6.555   0.485   1.082  0.3607  0.2631  0.8312
15457TIP3   OH267861   4.541   6.540   2.647 -0.6354  0.3626  0.1467
15457TIP3    H167862   4.546   6.635   2.640 -0.9598  0.2738 -1.5593
15457TIP3    H267863   4.601   6.507   2.580 -2.1528 -0.6152 -0.7919
15458TIP3   OH267864   1.190   3.812  11.456 -0.6156 -0.1989  0.3886
15458TIP3    H167865   1.272   3.824  11.408 -0.8199  1.5667  0.4232
15458TIP3    H267866   1.143   3.744  11.407 -0.2150  0.5711 -1.1270
15459TIP3   OH267867   0.118   4.436   0.707 -0.1570 -0.0432 -0.4063
15459TIP3    H167868   0.202   4.479   0.691  0.3342 -1.0350 -0.5191
15459TIP3    H267869   0.106   4.441   0.801  0.1163 -0.0628 -0.3702
15460TIP3   OH267870   2.584   5.153  16.247  0.0115  0.3117  0.0730
15460TIP3    H167871   2.546   5.215  16.309  0.8068 -0.1274  1.0277
15460TIP3    H267872   2.644   5.100  16.300  1.2265  0.3719 -1.2028
15461TIP3   OH267873   0.776   2.312  12.280 -0.5594  0.1985 -0.5441
15461TIP3    H167874   0.692   2.357  12.268 -0.2719  0.8783 -0.0421
15461TIP3    H267875   0.763   2.256  12.356 -0.5427  0.3443 -0.4334
15462TIP3   OH267876   6.707   2.012  10.428 -0.3245  0.7322 -0.1647
15462TIP3    H167877   6.793   2.048  10.408 -0.3135  0.8003  0.0087
15462TIP3    H267878   6.724   1.940  10.489 -0.3476  0.4395 -0.4971
15463TIP3   OH267879   1.090   3.650   3.148 -0.1132  0.5373 -0.5335
15463TIP3    H167880   1.031   3.704   3.200 -1.1803  0.6323 -1.7700
15463TIP3    H267881   1.177   3.684   3.166 -0.3408  0.1167  1.6827
15464TIP3   OH267882   3.595   5.688  11.524 -0.8084 -0.0516 -0.0254
15464TIP3    H167883   3.598   5.662  11.616 -0.0107 -1.2016 -0.3452
15464TIP3    H267884   3.509   5.659  11.493 -0.2461 -1.6662 -0.1644
15465TIP3   OH267885   4.794   1.997   5.531 -0.2354  0.5083 -0.1308
15465TIP3    H167886   4.798   1.937   5.457 -0.3496 -0.4432  0.6114
15465TIP3    H267887   4.740   1.952   5.595 -2.0935  2.3109 -0.3342
15466TIP3   OH267888   3.092   4.615  12.934 -0.0745  0.5288 -0.3365
15466TIP3    H167889   3.177   4.654  12.914  0.6413 -1.3855 -1.3602
15466TIP3    H267890   3.100   4.585  13.025  0.5480 -0.0807 -0.5835
15467TIP3   OH267891   1.319   1.627  16.908 -0.0839 -0.5360  0.6871
15467TIP3    H167892   1.346   1.716  16.886 -2.1050  0.0148  0.2534
15467TIP3    H267893   1.319   1.581  16.824  0.9988 -1.0034  0.9146
15468TIP3   OH267894   3.681   0.514  14.024 -0.2050  0.7657 -0.3839
15468TIP3    H167895   3.633   0.431  14.027  0.1419  0.4606 -2.1205
15468TIP3    H267896   3.772   0.488  14.007  0.1107  1.4533  0.2324
15469TIP3   OH267897   2.348   4.965   2.859  0.5151  0.1980 -0.4738
15469TIP3    H167898   2.411   4.945   2.790 -0.4134  1.6393 -1.8100
15469TIP3    H267899   2.352   5.060   2.868 -1.6033  0.3630 -0.7755
15470TIP3   OH267900   2.345   2.867   1.333 -0.6767  0.0207  0.3256
15470TIP3    H167901   2.400   2.896   1.406 -0.1760 -0.0114 -0.0389
15470TIP3    H267902   2.262   2.842   1.375 -0.0721 -0.9122  1.0199
15471TIP3   OH267903   0.438   4.372  12.186  0.3828  0.1179  0.4548
15471TIP3    H167904   0.400   4.448  12.142  0.4609  0.5590  1.1287
15471TIP3    H267905   0.385   4.298  12.156  0.8281  0.3015 -0.8522
15472TIP3   OH267906   1.629   5.093  14.566  0.2157 -0.2352 -0.1488
15472TIP3    H167907   1.614   5.177  14.520  1.0749  0.1161  0.1898
15472TIP3    H267908   1.686   5.116  14.639 -1.5258 -0.7120  1.4167
15473TIP3   OH267909   0.019   0.151  15.621  0.1419  0.0654 -0.4508
15473TIP3    H167910   0.066   0.221  15.576  1.3182 -0.0824  0.5154
15473TIP3    H267911   0.024   0.076  15.561  1.1348  0.0625 -0.3770
15474TIP3   OH267912   2.898   0.109  15.512  0.3380 -0.8800 -0.2018
15474TIP3    H167913   2.835   0.175  15.481  0.0912  0.3931  2.7266
15474TIP3    H267914   2.982   0.139  15.478 -0.0203 -0.0755 -0.4206
15475TIP3   OH267915   0.204   0.125   4.700 -0.1808  0.4013 -0.2669
15475TIP3    H167916   0.253   0.053   4.659  0.8091  0.5841  0.5690
15475TIP3    H267917   0.142   0.153   4.632 -0.9994 -1.6135 -0.4239
15476TIP3   OH267918   2.094   2.275  14.872  0.1762  0.9279  0.9920
15476TIP3    H167919   2.081   2.182  14.853 -1.4259  0.8385  2.3026
15476TIP3    H267920   2.144   2.276  14.954 -1.8969  1.1154  2.3444
15477TIP3   OH267921   0.375   5.879  13.015 -0.0557 -0.3828 -0.5632
15477TIP3    H167922   0.348   5.827  12.940 -0.0235 -1.6955  0.3062
15477TIP3    H267923   0.443   5.827  13.058  1.6280  1.3838 -0.9067
15478TIP3   OH267924   0.325   5.957   4.044  0.4427 -0.3433  0.0503
15478TIP3    H167925   0.379   5.982   4.119 -0.2928 -2.8480  1.5665
15478TIP3    H267926   0.384   5.904   3.990 -0.3733 -3.3240  1.8520
15479TIP3   OH267927   3.342   0.596  11.845  0.0604 -0.3746 -0.2408
15479TIP3    H167928   3.354   0.617  11.938 -0.7290 -2.0355  0.2849
15479TIP3    H267929   3.358   0.502  11.840  0.8750 -0.1744 -1.9604
15480TIP3   OH267930   4.299   1.169   5.091 -0.0435 -0.2649  0.6750
15480TIP3    H167931   4.311   1.167   5.186  0.3310  2.4535  0.7778
15480TIP3    H267932   4.228   1.231   5.077 -1.7221 -2.4010 -0.7865
15481TIP3   OH267933   1.767   6.020   3.423 -0.1233  0.2009  0.4069
15481TIP3    H167934   1.780   5.925   3.418  2.1350  0.4453  0.4723
15481TIP3    H267935   1.770   6.050   3.332 -1.4678  0.1719  0.3344
15482TIP3   OH267936   5.810   2.902   5.732 -0.0611  0.6338  0.1885
15482TIP3    H167937   5.810   2.854   5.815 -0.2449  1.3547  0.6161
15482TIP3    H267938   5.719   2.926   5.717 -0.0268  0.5271 -0.2178
15483TIP3   OH267939   0.857   6.209   4.811 -0.2006  0.2243  0.3522
15483TIP3    H167940   0.783   6.154   4.783  0.5181 -0.0415 -1.0966
15483TIP3    H267941   0.823   6.298   4.807 -0.5172  0.0877 -0.0532
15484TIP3   OH267942   4.755   3.414  13.828  0.1804 -0.4523 -0.2212
15484TIP3    H167943   4.831   3.372  13.787 -0.1968 -0.0419 -1.3992
15484TIP3    H267944   4.780   3.506  13.833  0.1405 -0.4715  0.2886
15485TIP3   OH267945   0.881   2.586   5.878  0.1433  0.4568  0.2696
15485TIP3    H167946   0.833   2.642   5.939 -0.2111 -0.5660  0.9481
15485TIP3    H267947   0.959   2.560   5.927  0.4959  0.6460 -0.1806
15486TIP3   OH267948   5.349   1.488  12.730 -0.6229 -0.0283  0.1820
15486TIP3    H167949   5.316   1.500  12.641  1.4007  1.1756 -0.4719
15486TIP3    H267950   5.315   1.564  12.778  2.3697  2.2123 -0.9300
15487TIP3   OH267951   3.770   6.416  12.305  0.2461 -0.0244 -0.0929
15487TIP3    H167952   3.683   6.376  12.314 -1.0978  2.8015  0.9786
15487TIP3    H267953   3.788   6.454  12.391  2.1571  0.1973 -0.5455
15488TIP3   OH267954   5.066   5.273   2.697 -0.2598  0.2618  0.3800
15488TIP3    H167955   5.100   5.187   2.670  0.7291  0.7552 -0.0047
15488TIP3    H267956   4.975   5.274   2.667 -0.8141 -1.2843  1.8400
15489TIP3   OH267957   4.675   0.497  14.760 -0.3974 -0.1922 -0.6572
15489TIP3    H167958   4.737   0.480  14.689 -0.5676 -0.8621 -0.6548
15489TIP3    H267959   4.621   0.569  14.728 -0.6381 -0.6594 -1.3219
15490TIP3   OH267960   0.266   4.984  13.610  0.2934 -0.1874 -0.9434
15490TIP3    H167961   0.186   5.030  13.635  0.6216  0.4711 -1.0961
15490TIP3    H267962   0.300   5.033  13.536  0.9120 -0.3846 -0.7953
15491TIP3   OH267963   5.555   5.020   2.507 -0.7034  0.4020  0.4484
15491TIP3    H167964   5.570   4.947   2.448 -0.5759  1.3279 -0.7192
15491TIP3    H267965   5.642   5.058   2.522 -0.9377  1.2445 -0.2359
15492TIP3   OH267966   1.743   2.185   2.631 -0.1939 -0.2440 -0.2201
15492TIP3    H167967   1.733   2.174   2.726  0.0570 -1.7196 -0.3332
15492TIP3    H267968   1.815   2.126   2.608 -0.2356  0.1179 -1.3276
15493TIP3   OH267969   0.407   4.756  11.111 -0.9169  0.4345  0.4400
15493TIP3    H167970   0.332   4.812  11.089  0.4140  1.5609 -1.5081
15493TIP3    H267971   0.376   4.667  11.093 -1.1916  1.0304 -2.4466
15494TIP3   OH267972   5.164   0.188  15.865  0.2237  0.2712 -0.3031
15494TIP3    H167973   5.111   0.210  15.788 -0.7765 -0.6194  0.1123
15494TIP3    H267974   5.146   0.259  15.927  0.3835  0.5568 -0.5829
15495TIP3   OH267975   3.468   0.566  16.393 -0.4091 -0.0780 -0.0516
15495TIP3    H167976   3.525   0.493  16.417  0.5090  0.3823 -0.7576
15495TIP3    H267977   3.380   0.537  16.417  0.0432 -1.0568  0.4798
15496TIP3   OH267978   3.681   0.335  12.008 -0.2338  0.2793  0.0997
15496TIP3    H167979   3.730   0.384  11.941  1.2233  0.4038  1.2101
15496TIP3    H267980   3.642   0.403  12.063 -1.6751  0.1799 -0.7441
15497TIP3   OH267981   1.289   6.225  13.907 -0.1890  0.3800 -0.4983
15497TIP3    H167982   1.235   6.250  13.982  0.5474 -2.2963  1.0540
15497TIP3    H267983   1.350   6.298  13.896 -1.5352  1.6735  0.2403
15498TIP3   OH267984   6.666   5.531  15.394  0.4860  0.3707 -0.3711
15498TIP3    H167985   6.622   5.470  15.334  0.6905  0.2266 -0.3746
15498TIP3    H267986   6.602   5.602  15.406 -0.6027 -0.7993  1.2103
15499TIP3   OH267987   6.388   5.740   1.888  0.0608  0.5592  0.9304
15499TIP3    H167988   6.393   5.647   1.869  0.3283  0.7266  0.1395
15499TIP3    H267989   6.338   5.746   1.970  2.2152 -0.4399  2.4128
15500TIP3   OH267990   2.929   2.642   2.689 -0.2038  0.1534 -0.1276
15500TIP3    H167991   2.881   2.720   2.661  1.1404  1.0873  0.0368
15500TIP3    H267992   2.929   2.585   2.612 -1.3877  0.2082 -0.1850
15501TIP3   OH267993   3.746   5.598  10.695  0.1467  0.1307 -0.2760
15501TIP3    H167994   3.746   5.693  10.692  0.3891  0.1326 -0.2698
15501TIP3    H267995   3.825   5.573  10.647  0.7688 -0.0289  0.7984
15502TIP3   OH267996   5.675   4.143   2.286  0.2262  0.1252  0.1088
15502TIP3    H167997   5.625   4.157   2.367 -0.0899 -0.5737  0.0337
15502TIP3    H267998   5.673   4.229   2.243 -0.0841  0.3577  0.5681
15503TIP3   OH267999   3.807   0.259   6.429 -0.3316  0.1481  0.1040
15503TIP3    H168000   3.810   0.306   6.513 -0.1914 -1.3519  0.9656
15503TIP3    H268001   3.764   0.320   6.369 -0.4374  1.2512  1.2636
15504TIP3   OH268002   3.121   1.259  14.583  0.2128  0.3868  0.3021
15504TIP3    H168003   3.025   1.269  14.587  0.2070  0.2570  0.4910
15504TIP3    H268004   3.154   1.349  14.582  0.0626  0.4402 -0.4758
15505TIP3   OH268005   4.040   5.210  14.980 -0.1769 -0.1069  0.2212
15505TIP3    H168006   3.971   5.240  14.921  0.6839 -0.1586 -0.8287
15505TIP3    H268007   3.992   5.171  15.054 -1.2688  0.1004 -0.3528
15506TIP3   OH268008   4.922   5.903  12.931 -0.0150  0.0938  0.3076
15506TIP3    H168009   5.003   5.882  12.886  0.0862 -2.3962  1.4782
15506TIP3    H268010   4.877   5.963  12.872  0.7096 -1.9065 -2.5123
15507TIP3   OH268011   0.987   6.691  17.166 -0.4675  0.0149 -0.4072
15507TIP3    H168012   1.071   6.707  17.122 -0.2355 -0.6736 -0.2263
15507TIP3    H268013   0.998   6.606  17.208 -1.9087 -0.9852 -1.9453
15508TIP3   OH268014   0.790   1.433  11.937  0.4685 -0.3400 -0.1959
15508TIP3    H168015   0.751   1.391  12.015  1.2301 -1.2069 -0.2692
15508TIP3    H268016   0.791   1.526  11.959  0.3953 -0.5367  0.7192
15509TIP3   OH268017   1.314   6.222   4.891  0.3028  0.0097 -0.3565
15509TIP3    H168018   1.291   6.249   4.802  0.9778  2.2760  0.1017
15509TIP3    H268019   1.376   6.288   4.922  0.3425 -0.8931  1.6940
15510TIP3   OH268020   4.271   5.913   2.207  0.3324  0.3091  0.1577
15510TIP3    H168021   4.216   5.860   2.264 -0.1446  1.0194  0.3751
15510TIP3    H268022   4.241   5.891   2.118 -0.1060  0.4683  0.2613
15511TIP3   OH268023   1.122   0.745   1.101  0.1409 -0.0956  0.3394
15511TIP3    H168024   1.079   0.664   1.073 -0.0985  1.3067 -4.1207
15511TIP3    H268025   1.215   0.729   1.085 -0.0500  0.9156 -2.1940
15512TIP3   OH268026   0.411   2.962   5.797 -0.2167  0.1269  0.0523
15512TIP3    H168027   0.331   3.012   5.816 -0.3464  0.6854 -1.7934
15512TIP3    H268028   0.459   3.016   5.735  0.7611 -1.0083 -0.2122
15513TIP3   OH268029   5.167   3.137   3.537 -1.0173 -0.0470  0.1446
15513TIP3    H168030   5.080   3.161   3.506 -0.4819  1.1373 -0.5393
15513TIP3    H268031   5.210   3.099   3.460 -0.4284  0.8186  0.0243
15514TIP3   OH268032   6.066   6.324  14.792  0.6457  0.6138  0.3865
15514TIP3    H168033   5.978   6.347  14.821  0.4567  0.5102 -0.0893
15514TIP3    H268034   6.098   6.402  14.747 -0.3825 -0.3093 -2.1190
15515TIP3   OH268035   0.904   0.936  11.862 -0.2125 -0.0447  0.2633
15515TIP3    H168036   0.864   0.988  11.932  0.8413  0.9626  0.1543
15515TIP3    H268037   0.996   0.964  11.861  0.1318 -1.1445 -0.5256
15516TIP3   OH268038   4.686   2.392  12.163  0.8640 -0.0536 -0.1299
15516TIP3    H168039   4.601   2.348  12.152  0.5522  0.3298  0.6175
15516TIP3    H268040   4.727   2.345  12.236  0.6906  0.6482  0.4254
15517TIP3   OH268041   1.722   5.245  11.531 -0.1003  0.4658  0.6858
15517TIP3    H168042   1.721   5.327  11.481  2.2480 -0.7722 -1.6016
15517TIP3    H268043   1.689   5.179  11.471  2.3684 -0.9956  0.7654
15518TIP3   OH268044   2.807   1.325  14.593 -0.1984  0.3714  0.1455
15518TIP3    H168045   2.814   1.261  14.664  1.1595  0.0723 -0.2250
15518TIP3    H268046   2.777   1.405  14.635 -0.8050 -0.1926  0.8101
15519TIP3   OH268047   5.628   1.073  17.001 -0.2191 -0.1534  0.3645
15519TIP3    H168048   5.636   0.989  17.046 -1.3533 -0.6960 -0.4018
15519TIP3    H268049   5.672   1.135  17.058 -1.6900 -0.7909  2.2948
15520TIP3   OH268050   1.421   5.322   0.814 -0.4196  0.0148 -0.4231
15520TIP3    H168051   1.366   5.398   0.831 -0.4424  0.0309 -0.5672
15520TIP3    H268052   1.396   5.294   0.726  0.4833  0.5932 -0.8712
15521TIP3   OH268053   4.196   2.584  10.891  0.5137 -0.5694 -0.3268
15521TIP3    H168054   4.180   2.673  10.924  1.2581  0.1131 -1.7276
15521TIP3    H268055   4.108   2.550  10.873  0.1261 -0.6795  1.5127
15522TIP3   OH268056   2.520   4.349   4.926 -0.0204  0.2029 -0.1005
15522TIP3    H168057   2.555   4.260   4.926 -0.1789  0.1265 -1.0661
15522TIP3    H268058   2.430   4.340   4.894 -0.1558  0.6697  0.1352
15523TIP3   OH268059   3.768   2.074  10.738  0.1016  0.4442 -0.2372
15523TIP3    H168060   3.791   2.031  10.655  0.0852 -1.4855  0.6983
15523TIP3    H268061   3.852   2.100  10.776  0.1528  0.7492 -0.5518
15524TIP3   OH268062   5.627   3.207   2.546  0.0332 -0.1666  0.0544
15524TIP3    H168063   5.632   3.217   2.451  0.7623  1.3595  0.2229
15524TIP3    H268064   5.539   3.239   2.568  0.3520  0.7914  0.0068
15525TIP3   OH268065   0.978   4.659  13.161  0.1737  0.0560 -0.5284
15525TIP3    H168066   1.006   4.588  13.218 -1.3230 -0.1839 -0.0548
15525TIP3    H268067   0.987   4.624  13.072 -0.0735 -0.5357 -0.3188
15526TIP3   OH268068   2.002   1.003  15.385  0.3562  0.0325 -0.1422
15526TIP3    H168069   1.946   1.035  15.315 -0.5567 -1.8010 -0.3141
15526TIP3    H268070   2.090   1.007  15.349 -0.0618 -0.5055 -1.2688
15527TIP3   OH268071   5.539   0.562  12.547 -0.3849  0.2689  0.3578
15527TIP3    H168072   5.452   0.571  12.585  0.1651 -1.8741  2.4177
15527TIP3    H268073   5.582   0.646  12.565 -0.9377  0.1575  2.4885
15528TIP3   OH268074   2.093   5.049  12.619 -0.2373  0.1027  0.1883
15528TIP3    H168075   2.085   5.017  12.530  0.9908 -1.8482  0.7353
15528TIP3    H268076   2.019   5.110  12.629 -0.9262 -0.3382 -1.8317
15529TIP3   OH268077   1.321   1.708   3.990  0.0747  0.1470  0.7057
15529TIP3    H168078   1.287   1.636   3.937  1.6970 -0.4483  0.3909
15529TIP3    H268079   1.269   1.784   3.964  0.3766 -0.2646 -1.3164
15530TIP3   OH268080   0.800   3.954   6.517  0.1707 -0.6415  0.0209
15530TIP3    H168081   0.861   3.892   6.476 -0.3064 -1.4075  0.4531
15530TIP3    H268082   0.844   3.982   6.597  1.6853  1.8460 -1.5462
15531TIP3   OH268083   5.040   5.973  12.010 -0.0126 -0.3040 -0.1016
15531TIP3    H168084   4.994   6.026  11.946  0.7438  0.5606  0.0467
15531TIP3    H268085   5.000   5.886  12.003 -0.8728  0.1309 -0.7563
15532TIP3   OH268086   5.534   4.611   6.770 -0.2144  0.0881  0.4093
15532TIP3    H168087   5.625   4.591   6.793  0.4145  1.2503 -0.9386
15532TIP3    H268088   5.509   4.542   6.709 -0.7504 -1.0419  1.8410
15533TIP3   OH268089   4.836   3.600   4.964 -0.0584 -0.4201  0.3341
15533TIP3    H168090   4.862   3.692   4.974 -0.4564 -0.2739  0.0671
15533TIP3    H268091   4.856   3.579   4.873 -1.7119 -0.0189 -0.1509
15534TIP3   OH268092   4.797   2.882   2.070 -0.2729  0.2818 -0.3784
15534TIP3    H168093   4.842   2.802   2.096  1.3581  1.5499  0.9168
15534TIP3    H268094   4.748   2.909   2.148  0.1733  1.1694 -0.3840
15535TIP3   OH268095   5.761   4.525  13.132  0.4079  0.1334 -0.4565
15535TIP3    H168096   5.691   4.465  13.160  1.5616 -0.8235  0.4579
15535TIP3    H268097   5.825   4.468  13.089  1.2629  0.7814 -0.0641
15536TIP3   OH268098   3.890   1.933   4.150 -0.6903  0.0719 -0.1090
15536TIP3    H168099   3.970   1.924   4.202 -0.7223 -2.8256 -0.3864
15536TIP3    H268100   3.829   1.978   4.207  0.8308  1.5554  0.4329
15537TIP3   OH268101   1.112   0.720  11.824  0.2711  0.3986  0.4586
15537TIP3    H168102   1.148   0.767  11.899 -0.5883  2.0828 -0.1438
15537TIP3    H268103   1.052   0.656  11.863  2.0322 -0.8473  1.3266
15538TIP3   OH268104   3.949   4.150  13.977  0.5472 -0.1894 -0.0335
15538TIP3    H168105   3.863   4.109  13.969  0.6109 -0.3365  0.0261
15538TIP3    H268106   3.956   4.174  14.069  0.3034  0.4169 -0.1706
15539TIP3   OH268107   4.832   1.802   6.889 -0.4378  0.0013  0.0607
15539TIP3    H168108   4.867   1.734   6.947 -0.9732 -1.1823 -0.9518
15539TIP3    H268109   4.907   1.857   6.869  0.4126 -1.2803 -0.4108
15540TIP3   OH268110   2.791   5.351  15.115 -0.2442 -0.2511 -0.2157
15540TIP3    H168111   2.831   5.359  15.029  0.2664  0.3725  0.0700
15540TIP3    H268112   2.864   5.332  15.174 -0.9238 -3.5709 -0.2942
15541TIP3   OH268113   1.652   5.110  15.524  0.6630  0.1027 -0.1635
15541TIP3    H168114   1.622   5.127  15.613 -0.2400 -0.3096 -0.3816
15541TIP3    H268115   1.719   5.042  15.534  1.1357  0.6167  0.2686
15542TIP3   OH268116   0.889   0.852   6.544 -0.0555  0.0827  0.4321
15542TIP3    H168117   0.929   0.928   6.500  3.0845 -1.8211 -0.3571
15542TIP3    H268118   0.842   0.807   6.475  1.7352 -0.9087 -0.2090
15543TIP3   OH268119   0.639   3.139  13.188  0.0633  0.2849 -0.4009
15543TIP3    H168120   0.668   3.174  13.104  1.9910 -0.2729 -0.0354
15543TIP3    H268121   0.649   3.212  13.249 -0.8231  0.5330 -0.5357
15544TIP3   OH268122   5.872   1.747   4.468  0.0751 -0.4616  0.1751
15544TIP3    H168123   5.826   1.682   4.415 -1.2469 -0.2346  0.9810
15544TIP3    H268124   5.829   1.830   4.448 -0.0191 -0.2701  1.0915
15545TIP3   OH268125   6.057   3.199  16.559 -0.4582 -0.2369 -0.9195
15545TIP3    H168126   6.050   3.130  16.493  0.2794 -0.2398 -1.0028
15545TIP3    H268127   5.991   3.264  16.533  1.8810  1.2848 -3.5099
15546TIP3   OH268128   3.525   1.941  15.839  0.0665 -0.2160 -0.3318
15546TIP3    H168129   3.611   1.968  15.872  0.3850  0.4671 -1.6856
15546TIP3    H268130   3.524   1.845  15.850  0.3045 -0.0664  1.2641
15547TIP3   OH268131   4.278   0.523  17.340 -0.6487 -0.0925  0.3659
15547TIP3    H168132   4.236   0.460  17.281 -1.1096  1.0851 -0.5956
15547TIP3    H268133   4.243   0.608  17.314  2.6960  1.0648 -0.8528
15548TIP3   OH268134   6.756   3.111  16.024  0.6147  0.6436 -0.0440
15548TIP3    H168135   6.850   3.126  16.033  0.9737 -0.6838 -1.2176
15548TIP3    H268136   6.742   3.022  16.058  0.0446  0.2743 -1.1736
15549TIP3   OH268137   2.160   6.083   2.205  0.1537 -0.1879 -0.1814
15549TIP3    H168138   2.225   6.068   2.273 -2.1859  0.1808  2.3134
15549TIP3    H268139   2.076   6.063   2.247 -1.4437 -0.0026 -3.0136
15550TIP3   OH268140   0.535   2.244   2.137 -0.1481  0.1325 -0.1724
15550TIP3    H168141   0.617   2.203   2.165 -0.9702 -2.0731 -0.8688
15550TIP3    H268142   0.561   2.301   2.065  0.8542 -0.0634  0.0100
15551TIP3   OH268143   5.979   4.022  16.938  0.0177 -0.3444 -0.1920
15551TIP3    H168144   5.944   4.020  16.849  0.8302  2.4951 -0.6632
15551TIP3    H268145   5.920   4.080  16.986  0.8546 -0.0653  0.5228
15552TIP3   OH268146   3.624   5.249   5.125  0.4688 -0.1776 -0.4802
15552TIP3    H168147   3.703   5.299   5.107  0.1033  0.9281  0.7682
15552TIP3    H268148   3.654   5.173   5.175  0.7115  0.4884  0.4077
15553TIP3   OH268149   5.778   6.582   5.665  0.1275  0.0871  0.6479
15553TIP3    H168150   5.752   6.672   5.685  1.1306  0.2924  1.0836
15553TIP3    H268151   5.870   6.578   5.688  0.4016 -0.7282 -0.4850
15554TIP3   OH268152   5.963   3.378   3.186  0.7139  0.7227 -0.1542
15554TIP3    H168153   5.992   3.450   3.130 -0.9946  1.2931 -0.3682
15554TIP3    H268154   5.961   3.302   3.129  0.4429  0.9832 -0.4966
15555TIP3   OH268155   0.075   1.941   0.333  0.3610 -0.3314  0.3194
15555TIP3    H168156   0.145   1.887   0.297 -0.9225 -1.1269 -1.0839
15555TIP3    H268157   0.106   2.031   0.323  0.7606 -0.6210 -1.1963
15556TIP3   OH268158   0.574   5.579  13.288 -0.6108  0.7254  0.1477
15556TIP3    H168159   0.604   5.594  13.378 -0.7076 -2.0511  0.7297
15556TIP3    H268160   0.482   5.604  13.288 -0.5956  0.7818  0.8072
15557TIP3   OH268161   1.912   0.654   1.710  0.0303  0.3062  0.0162
15557TIP3    H168162   1.969   0.674   1.636 -0.5282 -0.2463 -0.5761
15557TIP3    H268163   1.965   0.675   1.787  0.4443  1.3432 -0.5334
15558TIP3   OH268164   1.528   6.467  16.909 -0.2039 -0.6761  0.3097
15558TIP3    H168165   1.442   6.471  16.951 -0.0522 -1.4188  0.6981
15558TIP3    H268166   1.525   6.388  16.856 -0.5367  0.4590 -1.4454
15559TIP3   OH268167   4.101   0.165   1.498 -0.0512  0.0196 -0.7787
15559TIP3    H168168   4.137   0.123   1.420  1.2264 -0.5733  0.1006
15559TIP3    H268169   4.177   0.198   1.546 -0.7648  0.0117  0.4224
15560TIP3   OH268170   2.953   6.118  11.573  0.4607  0.2209  0.1402
15560TIP3    H168171   2.996   6.199  11.546  0.1889  1.0654  2.0340
15560TIP3    H268172   3.023   6.065  11.612  0.1855  0.7478  1.4032
15561TIP3   OH268173   2.558   4.695   4.538 -0.2663  0.0946  0.0903
15561TIP3    H168174   2.630   4.716   4.597  1.1563 -1.4980 -0.9640
15561TIP3    H268175   2.583   4.734   4.455 -0.9054  0.0179 -0.1444
15562TIP3   OH268176   6.043   6.481   4.020 -0.4659 -0.8901 -0.2275
15562TIP3    H168177   6.001   6.418   4.079  0.2673 -1.2424 -0.0750
15562TIP3    H268178   6.072   6.428   3.946 -0.0901 -0.6922 -0.2245
15563TIP3   OH268179   0.979   6.685   1.962 -0.6282  0.1585 -0.0960
15563TIP3    H168180   1.072   6.664   1.973 -0.5354  0.6293  0.0676
15563TIP3    H268181   0.946   6.617   1.903  0.2584  1.0141 -1.6547
15564TIP3   OH268182   6.201   5.207  11.680 -0.6851  0.0654  0.8705
15564TIP3    H168183   6.138   5.136  11.667  0.6958 -0.6484 -3.7091
15564TIP3    H268184   6.166   5.280  11.629  0.5547  0.7956  1.0317
15565TIP3   OH268185   2.436   0.257  13.441  0.0995 -0.1453  0.6526
15565TIP3    H168186   2.383   0.181  13.413 -0.9463  1.0773 -0.8622
15565TIP3    H268187   2.449   0.307  13.361  1.7353  0.7302  1.4312
15566TIP3   OH268188   2.127   0.699  13.751 -0.1098  0.1723  0.5932
15566TIP3    H168189   2.122   0.754  13.829 -0.9357  1.7177 -0.4965
15566TIP3    H268190   2.149   0.759  13.680  0.0796 -1.0997 -0.4604
15567TIP3   OH268191   0.448   2.217   0.460 -0.7066  0.3639  0.6014
15567TIP3    H168192   0.373   2.232   0.518  0.1360  1.0390  1.5296
15567TIP3    H268193   0.444   2.124   0.439 -1.7381  0.3699  0.7253
15568TIP3   OH268194   3.778   3.868   2.094  0.3580  0.2446 -0.1129
15568TIP3    H168195   3.856   3.815   2.077 -1.1537 -1.8517 -0.8534
15568TIP3    H268196   3.737   3.879   2.009 -0.8538  0.1691  0.4491
15569TIP3   OH268197   5.091   5.158  17.199 -0.5387  0.0578 -0.8487
15569TIP3    H168198   5.056   5.129  17.283 -2.1513 -0.4339 -1.6482
15569TIP3    H268199   5.059   5.248  17.190  0.1008  0.3057 -0.7059
15570TIP3   OH268200   2.226   2.684  15.146 -0.5713  0.3668 -0.2783
15570TIP3    H168201   2.286   2.688  15.071  0.3429 -1.2846  0.3089
15570TIP3    H268202   2.254   2.757  15.202 -0.0918  0.5265 -0.7149
15571TIP3   OH268203   0.728   4.060   3.334 -0.0015  0.9544 -0.6443
15571TIP3    H168204   0.765   4.147   3.316  0.8819  1.1512  1.7883
15571TIP3    H268205   0.796   4.015   3.383 -0.1565 -1.4454 -2.4393
15572TIP3   OH268206   0.370   1.329  13.010 -0.9611 -0.3119  0.2944
15572TIP3    H168207   0.355   1.288  12.924 -1.2538 -0.9718  0.6566
15572TIP3    H268208   0.450   1.286  13.043  0.8269  1.9046 -0.8400
15573TIP3   OH268209   5.678   5.774   5.272 -0.0800 -0.3756 -0.3004
15573TIP3    H168210   5.639   5.852   5.232  0.5012  0.9663  1.6085
15573TIP3    H268211   5.613   5.745   5.336  0.7975  0.1654  0.8740
15574TIP3   OH268212   2.195   1.469   1.072 -0.5662  0.1271  0.3083
15574TIP3    H168213   2.226   1.400   1.013  0.1243  0.1382  0.6566
15574TIP3    H268214   2.110   1.495   1.036  0.6663  1.4897 -1.8458
15575TIP3   OH268215   0.083   0.141   1.067  0.2167 -0.3819 -0.0317
15575TIP3    H168216   0.074   0.098   1.152  1.5992  1.4169  1.0948
15575TIP3    H268217   0.171   0.118   1.037  0.7389  1.0853  0.2950
15576TIP3   OH268218   4.148   1.769  16.565 -0.4297  0.5759  0.3125
15576TIP3    H168219   4.236   1.804  16.575 -0.7333  2.2787 -2.0412
15576TIP3    H268220   4.154   1.709  16.491 -1.6954  3.1980 -2.1730
15577TIP3   OH268221   5.208   5.533   5.079  0.3481 -0.8880 -0.1992
15577TIP3    H168222   5.241   5.597   5.142  1.0054 -0.4355 -0.9867
15577TIP3    H268223   5.114   5.547   5.077  0.4486 -0.1678 -0.1178
15578TIP3   OH268224   1.812   2.369  17.442  0.3348 -0.6148 -0.1679
15578TIP3    H168225   1.888   2.310  17.451 -0.0147 -1.0154  0.1798
15578TIP3    H268226   1.744   2.315  17.403  0.0235 -0.4271  0.1100
15579TIP3   OH268227   6.460   0.245   1.618 -0.2372  0.0102  0.2032
15579TIP3    H168228   6.536   0.246   1.677  0.2557  2.0881 -0.3952
15579TIP3    H268229   6.484   0.183   1.549 -0.0806 -1.0931  1.2166
15580TIP3   OH268230   6.274   6.166  12.940  0.7057  0.6472  0.3346
15580TIP3    H168231   6.238   6.079  12.954  1.6615 -0.6739 -3.8973
15580TIP3    H268232   6.369   6.154  12.941  0.8698  1.0100 -2.5548
15581TIP3   OH268233   0.417   6.469  13.111  0.3309  0.2995 -0.0448
15581TIP3    H168234   0.435   6.384  13.073 -2.5446 -0.0751 -0.8225
15581TIP3    H268235   0.484   6.527  13.075  2.0217 -1.4713  0.0905
15582TIP3   OH268236   0.896   6.121  17.101 -0.0108 -0.0232 -0.2765
15582TIP3    H168237   0.991   6.129  17.101 -0.1305  1.8367 -0.2642
15582TIP3    H268238   0.864   6.211  17.111 -1.7684 -0.8276  2.4095
15583TIP3   OH268239   4.462   3.033  17.075 -0.1263 -0.2594 -0.4064
15583TIP3    H168240   4.523   3.024  17.001 -0.6256  0.7514 -0.9734
15583TIP3    H268241   4.418   2.949  17.080  3.3536 -2.2029  1.9704
15584TIP3   OH268242   5.905   0.522  13.543 -0.0733  0.4475 -0.2759
15584TIP3    H168243   5.832   0.500  13.485 -0.6398 -0.1942  0.6443
15584TIP3    H268244   5.941   0.437  13.569 -0.9063  0.6240  1.6280
15585TIP3   OH268245   4.713   2.220   4.801 -0.4279 -0.2986 -0.3657
15585TIP3    H168246   4.655   2.294   4.784 -0.7986 -0.7607 -1.1871
15585TIP3    H268247   4.657   2.156   4.847  0.3366  0.5879  1.9562
15586TIP3   OH268248   6.247   3.836  14.514 -0.3020  0.1641 -0.2784
15586TIP3    H168249   6.309   3.907  14.502 -1.4572  1.3789  0.6460
15586TIP3    H268250   6.219   3.813  14.425  1.2047 -0.2064 -0.6807
15587TIP3   OH268251   2.186   1.888  13.565  0.3895  0.2562  0.1665
15587TIP3    H168252   2.101   1.866  13.605 -0.3512 -0.2282 -1.5612
15587TIP3    H268253   2.193   1.828  13.491  2.7769 -0.4445  0.8949
15588TIP3   OH268254   2.881   4.705   0.588  0.1013 -0.5777 -0.5073
15588TIP3    H168255   2.928   4.624   0.567  0.6282 -0.2259 -0.7234
15588TIP3    H268256   2.912   4.728   0.675  1.0388  0.1368 -1.0098
15589TIP3   OH268257   2.407   0.416  11.204  0.1093  0.0604  0.3983
15589TIP3    H168258   2.361   0.333  11.191 -0.3299  0.3752 -0.1115
15589TIP3    H268259   2.373   0.473  11.136  2.1542 -0.0540 -0.8143
15590TIP3   OH268260   1.846   6.473  16.179 -0.3540  0.7877 -0.3061
15590TIP3    H168261   1.800   6.393  16.154 -0.9786  0.3227  2.0529
15590TIP3    H268262   1.933   6.464  16.140 -0.8251 -0.4087 -1.1502
15591TIP3   OH268263   6.523   5.174  14.201 -0.0142  0.2725  0.1455
15591TIP3    H168264   6.453   5.207  14.258 -0.3838  1.1144 -0.7462
15591TIP3    H268265   6.550   5.251  14.151  2.2560  0.1848  1.1436
15592TIP3   OH268266   2.264   4.807  11.837  0.1281  0.1576 -0.0890
15592TIP3    H168267   2.264   4.867  11.762  0.5603 -0.9579 -1.0176
15592TIP3    H268268   2.306   4.857  11.907  0.5913  0.9070 -0.8752
15593TIP3   OH268269   3.415   3.328   4.395  0.7510 -0.3876 -0.2661
15593TIP3    H168270   3.489   3.341   4.454  1.4327 -1.2503 -0.9113
15593TIP3    H268271   3.447   3.359   4.310  0.7307 -1.6999 -0.7681
15594TIP3   OH268272   5.134   1.785   0.174 -0.0045 -0.6956  0.1292
15594TIP3    H168273   5.104   1.733   0.249 -0.7360  1.6364  1.5465
15594TIP3    H268274   5.083   1.866   0.179  0.7586  0.0138 -2.2532
15595TIP3   OH268275   4.035   5.699   1.138  0.3381 -0.1710  0.1264
15595TIP3    H168276   4.093   5.774   1.153 -0.9874  0.4458  2.6631
15595TIP3    H268277   3.948   5.732   1.158 -0.3067 -2.3441  1.2420
15596TIP3   OH268278   4.136   0.806   0.004  0.1864  0.2950 -0.4984
15596TIP3    H168279   4.219   0.767   0.031 -0.3487  0.1177  0.9843
15596TIP3    H268280   4.083   0.808   0.084 -0.7478  1.6734 -1.1078
15597TIP3   OH268281   5.376   0.343   0.078 -0.1232  0.1291 -0.1359
15597TIP3    H168282   5.398   0.256   0.045  3.8219  0.2154  1.6283
15597TIP3    H268283   5.322   0.327   0.155 -0.8532 -0.6120 -0.7855
15598TIP3   OH268284   3.717   4.003  15.470  0.0182 -0.5757  0.1036
15598TIP3    H168285   3.724   4.041  15.382  0.2279 -0.1386  0.3053
15598TIP3    H268286   3.791   3.944  15.477 -0.2676 -0.9743 -0.1859
15599TIP3   OH268287   5.689   0.074   5.683  0.2382 -0.0535 -0.5155
15599TIP3    H168288   5.649   0.141   5.739 -0.5679  0.3741 -1.5540
15599TIP3    H268289   5.650   0.089   5.597  1.1193 -0.9652 -1.0979
15600TIP3   OH268290   3.316   5.108   1.322  0.0878  0.1389 -0.2800
15600TIP3    H168291   3.339   5.045   1.391 -0.3225  0.9669  0.6351
15600TIP3    H268292   3.390   5.105   1.261  0.8381 -0.0062  0.6222
15601TIP3   OH268293   2.046   1.285   1.272 -0.3176  0.0357 -0.0926
15601TIP3    H168294   2.017   1.376   1.271  1.3403  0.6035 -0.2202
15601TIP3    H268295   2.063   1.264   1.180  1.1238  0.2685  0.0829
15602TIP3   OH268296   5.407   3.871   3.647 -0.5941  0.4160 -0.2072
15602TIP3    H168297   5.324   3.860   3.694  0.2807 -2.4311  0.9122
15602TIP3    H268298   5.472   3.885   3.716  0.3928 -1.5620 -0.6424
15603TIP3   OH268299   2.435   1.952   3.826  0.0771  0.2612 -0.4106
15603TIP3    H168300   2.432   1.959   3.922  0.9809 -1.4160 -0.2153
15603TIP3    H268301   2.502   2.015   3.799 -0.3045  0.8690  0.0241
15604TIP3   OH268302   2.277   0.792  13.542 -0.1499  0.8157 -0.1639
15604TIP3    H168303   2.340   0.862  13.559  1.6622 -0.2875 -1.8751
15604TIP3    H268304   2.322   0.712  13.569 -0.6141 -0.0459 -1.8151
15605TIP3   OH268305   4.893   1.715   6.603  0.0323 -0.1330 -0.0014
15605TIP3    H168306   4.854   1.732   6.689  0.1980 -1.2646  0.3133
15605TIP3    H268307   4.875   1.795   6.553  0.9645  1.0446  1.4413
15606TIP3   OH268308   1.657   1.924   3.083  0.5339 -0.1133  0.1196
15606TIP3    H168309   1.716   1.849   3.081 -1.0732 -1.5569  2.4010
15606TIP3    H268310   1.624   1.931   2.993 -0.4820 -3.2104  0.1449
15607TIP3   OH268311   6.363   6.437  11.312  0.1964  0.5573 -0.4570
15607TIP3    H168312   6.446   6.480  11.290  0.3470  0.5885  0.1407
15607TIP3    H268313   6.302   6.465  11.245  0.7353  0.3490 -1.0419
15608TIP3   OH268314   3.634   3.201   1.200  0.1122  0.6751 -0.2683
15608TIP3    H168315   3.575   3.207   1.275  0.6794 -0.2514  0.2668
15608TIP3    H268316   3.627   3.286   1.157  0.3277  1.4746  1.2315
15609TIP3   OH268317   0.817   3.097   3.903 -0.0641 -0.2461  0.0821
15609TIP3    H168318   0.879   3.110   3.974  0.2058 -0.6557 -0.0772
15609TIP3    H268319   0.853   3.146   3.830 -0.5345  0.4847  0.3355
15610TIP3   OH268320   3.341   5.673  15.357 -0.0713 -0.1352  0.1477
15610TIP3    H168321   3.395   5.721  15.420  0.9301 -2.1148  0.8817
15610TIP3    H268322   3.318   5.738  15.291  0.3889  1.5724  1.5973
15611TIP3   OH268323   6.176   1.975   0.277 -0.3988 -0.3163 -0.4250
15611TIP3    H168324   6.232   2.049   0.299 -2.1084  0.9350 -0.0303
15611TIP3    H268325   6.164   1.928   0.359 -0.7745  0.0474 -0.2658
15612TIP3   OH268326   3.659   0.749  11.703 -0.8274 -0.2554 -0.2793
15612TIP3    H168327   3.697   0.691  11.769 -0.5678  0.2274  0.0012
15612TIP3    H268328   3.685   0.836  11.730 -0.5963 -0.0590 -1.1123
15613TIP3   OH268329   0.161   5.546   6.604  0.1302 -0.2463 -0.1865
15613TIP3    H168330   0.219   5.592   6.544  0.8037  0.5737  1.0319
15613TIP3    H268331   0.074   5.554   6.566  0.5613  0.1314 -1.1074
15614TIP3   OH268332   5.377   2.047   0.661  0.6455 -0.3331  0.5731
15614TIP3    H168333   5.385   2.062   0.566 -1.8329 -0.9214  0.2229
15614TIP3    H268334   5.377   2.135   0.698  0.2480 -0.0290 -0.1189
15615TIP3   OH268335   0.349   6.273   2.278  0.2142 -0.2281  0.1628
15615TIP3    H168336   0.425   6.255   2.222 -0.2964  1.0276 -1.0057
15615TIP3    H268337   0.335   6.367   2.269 -0.8541 -0.2675  1.1859
15616TIP3   OH268338   2.120   5.590   4.049  0.7636  0.0215 -0.4710
15616TIP3    H168339   2.160   5.666   4.091 -0.4896  0.3196  0.2545
15616TIP3    H268340   2.057   5.627   3.987 -0.1519 -0.3969  0.1809
15617TIP3   OH268341   5.188   1.668  16.010  0.2882  0.3695  0.1731
15617TIP3    H168342   5.215   1.709  15.928 -0.0857 -0.3295 -0.3061
15617TIP3    H268343   5.268   1.666  16.063  1.0454 -1.0370 -0.9631
15618TIP3   OH268344   0.656   0.819   2.504  0.3577  0.2521 -0.1450
15618TIP3    H168345   0.645   0.912   2.524  3.1085  0.8641 -1.0879
15618TIP3    H268346   0.594   0.801   2.434 -0.7329  1.1470  0.5634
15619TIP3   OH268347   5.304   3.698  13.819  0.0988  0.0356  0.1862
15619TIP3    H168348   5.288   3.788  13.790 -0.5110 -0.6616 -1.7980
15619TIP3    H268349   5.320   3.706  13.914 -1.9089  1.9739  0.4390
15620TIP3   OH268350   4.789   3.131   2.979  0.2541  0.0501  0.1888
15620TIP3    H168351   4.836   3.210   2.955  0.0181  0.3196  0.5936
15620TIP3    H268352   4.840   3.060   2.942  1.5196  0.2649  1.4374
15621TIP3   OH268353   6.411   1.464  15.706  0.0760  0.1928 -0.3120
15621TIP3    H168354   6.329   1.415  15.694 -0.1745  0.5224  0.0378
15621TIP3    H268355   6.444   1.477  15.617 -1.4977  2.1420 -0.6977
15622TIP3   OH268356   2.057   4.312  14.411 -0.5922  0.2737  0.6704
15622TIP3    H168357   2.137   4.356  14.382 -0.8295  2.4082  2.9780
15622TIP3    H268358   2.071   4.220  14.387  1.9319  0.7974 -0.2242
15623TIP3   OH268359   6.556   0.132   1.388 -0.2739 -0.5860  0.0603
15623TIP3    H168360   6.608   0.211   1.376  0.9488 -1.1612  1.3625
15623TIP3    H268361   6.591   0.070   1.324  0.0981 -0.7060  0.3776
15624TIP3   OH268362   0.092   2.142   6.221 -0.1309 -0.2821  0.1001
15624TIP3    H168363   0.011   2.194   6.217  0.1243  0.0452 -2.5565
15624TIP3    H268364   0.064   2.053   6.200  0.2281 -0.0145 -1.7409
15625TIP3   OH268365   3.770   6.498  15.112  0.0109  0.5149 -0.6363
15625TIP3    H168366   3.744   6.495  15.204  0.8536 -0.6222 -0.4266
15625TIP3    H268367   3.696   6.459  15.065 -0.7732  1.8300 -0.5475
15626TIP3   OH268368   4.570   1.503   6.907 -0.1494  0.0071 -0.0519
15626TIP3    H168369   4.577   1.414   6.874  2.0190 -1.1818  3.1248
15626TIP3    H268370   4.658   1.524   6.939 -0.7400  3.0752 -0.0999
15627TIP3   OH268371   1.374   2.048   5.889  0.9154 -0.4090  0.1485
15627TIP3    H168372   1.292   2.000   5.887  0.8817 -0.3321 -0.2944
15627TIP3    H268373   1.356   2.124   5.945  0.6297 -0.2917 -0.0998
15628TIP3   OH268374   4.556   5.001   6.047 -0.1305  0.5701 -0.4845
15628TIP3    H168375   4.508   5.082   6.028 -0.7062 -0.0015 -1.5614
15628TIP3    H268376   4.622   4.996   5.978  0.2077  0.3523 -0.1457
15629TIP3   OH268377   3.752   6.070  14.068  0.1478 -0.3382 -0.3589
15629TIP3    H168378   3.808   6.138  14.032  0.5280 -0.3610  0.1678
15629TIP3    H268379   3.772   5.992  14.015  1.3735 -0.6075  0.4403
15630TIP3   OH268380   3.281   3.749  17.228  0.0235 -0.2876 -0.2725
15630TIP3    H168381   3.368   3.750  17.189 -0.0067 -0.3454 -0.3427
15630TIP3    H268382   3.221   3.747  17.153 -0.0336 -0.5790 -0.2214
15631TIP3   OH268383   3.557   4.262   5.041  0.6131 -0.8523  0.1951
15631TIP3    H168384   3.514   4.347   5.045 -0.5508 -1.4676  1.8742
15631TIP3    H268385   3.651   4.282   5.045  0.3328  0.3131  2.7579
15632TIP3   OH268386   6.546   4.912  16.348 -0.7204  0.4359  0.6283
15632TIP3    H168387   6.632   4.952  16.357 -1.1293  1.6084 -0.3187
15632TIP3    H268388   6.562   4.832  16.297 -0.2505  0.9442 -0.0466
15633TIP3   OH268389   1.991   5.889   1.857 -0.2920  0.0866 -0.2271
15633TIP3    H168390   1.980   5.904   1.764 -0.7708 -1.4014 -0.4417
15633TIP3    H268391   2.073   5.841   1.865 -0.2270  0.2492  0.1243
15634TIP3   OH268392   1.627   0.096  12.452  0.9409  0.2630 -0.0680
15634TIP3    H168393   1.713   0.135  12.440  0.9414  0.4429  0.4922
15634TIP3    H268394   1.573   0.166  12.489  0.3577  0.3577 -1.0638
15635TIP3   OH268395   0.624   4.241   1.640  0.0873  0.1218 -0.0349
15635TIP3    H168396   0.535   4.275   1.625 -0.0506  0.1484  0.7813
15635TIP3    H268397   0.655   4.216   1.553 -1.1921 -1.0696 -0.1919
15636TIP3   OH268398   0.866   2.592   3.155  0.2329  0.3779  0.1360
15636TIP3    H168399   0.886   2.659   3.220  2.5932  0.4435 -0.5926
15636TIP3    H268400   0.925   2.520   3.176 -0.7833 -0.6482 -0.3920
15637TIP3   OH268401   1.021   6.530   0.313 -0.2493 -0.5474 -0.1402
15637TIP3    H168402   1.015   6.519   0.218  0.0043  0.1121 -0.2371
15637TIP3    H268403   0.934   6.557   0.341 -0.5806 -1.6527 -0.0483
15638TIP3   OH268404   4.639   0.026  17.022  0.5275 -0.1108  0.0466
15638TIP3    H168405   4.690  -0.002  16.945  0.2971 -1.1127  0.2493
15638TIP3    H268406   4.548   0.015  16.996  0.4317  0.1841  0.2447
15639TIP3   OH268407   5.440   0.626   0.031 -0.1894 -0.0126 -0.3744
15639TIP3    H168408   5.357   0.665   0.056 -0.1621 -0.5241  0.5890
15639TIP3    H268409   5.430   0.533   0.050  0.4394 -0.1568 -0.6987
15640TIP3   OH268410   1.620   4.405  12.007  0.3012  0.2207  0.2772
15640TIP3    H168411   1.683   4.477  12.005 -0.9264  1.3323  0.4044
15640TIP3    H268412   1.567   4.417  11.928 -0.7282  0.2206  0.9523
15641TIP3   OH268413   6.198   0.893  13.880  0.2875  0.5539 -0.6259
15641TIP3    H168414   6.278   0.843  13.898  0.5891  0.4402 -2.1903
15641TIP3    H268415   6.181   0.879  13.787 -0.5031  2.1023 -0.7426
15642TIP3   OH268416   5.205   1.809  13.236 -0.0022  0.2145 -0.2380
15642TIP3    H168417   5.280   1.750  13.237  0.0500  0.2758 -0.4643
15642TIP3    H268418   5.139   1.766  13.290  0.0718 -0.0038 -0.3228
15643TIP3   OH268419   4.299   2.793  12.269 -0.6033 -0.5118  0.6907
15643TIP3    H168420   4.345   2.710  12.258 -2.6600 -1.6028 -0.2270
15643TIP3    H268421   4.251   2.782  12.351 -0.2003  0.1355  1.0200
15644TIP3   OH268422   2.464   1.878  16.269 -0.4808 -0.2019  0.2926
15644TIP3    H168423   2.425   1.873  16.356 -0.7756 -2.4465  0.0814
15644TIP3    H268424   2.467   1.788  16.238  2.0420  0.2285 -0.9904
15645TIP3   OH268425   5.507   4.791  17.051 -0.0542  0.0760  0.3077
15645TIP3    H168426   5.495   4.699  17.075 -0.1871 -0.1391 -0.5295
15645TIP3    H268427   5.420   4.830  17.060 -0.5000 -0.4247 -1.4769
15646TIP3   OH268428   2.400   5.164  15.852  0.2854  0.4086 -0.4346
15646TIP3    H168429   2.405   5.072  15.877  1.1206  0.1778 -1.4428
15646TIP3    H268430   2.478   5.204  15.891 -0.0124  0.6769 -0.1020
15647TIP3   OH268431   1.666   1.258   4.157 -0.1434 -0.2042  0.4684
15647TIP3    H168432   1.697   1.195   4.091 -1.4139  0.5262 -0.8753
15647TIP3    H268433   1.584   1.220   4.189 -1.1925  0.9615 -0.7283
15648TIP3   OH268434   6.696   2.102  17.289  0.3306 -0.2183  0.1178
15648TIP3    H168435   6.609   2.141  17.298  0.6342  0.8817 -1.2739
15648TIP3    H268436   6.704   2.085  17.195  1.8790  0.3536  0.1312
15649TIP3   OH268437   1.157   3.455   1.999 -0.3929  0.3648  0.3729
15649TIP3    H168438   1.081   3.398   2.012 -0.2861  0.1991  0.2706
15649TIP3    H268439   1.165   3.504   2.081  0.2974 -0.6883  0.9654
15650TIP3   OH268440   5.419   4.748   4.272 -0.4701  0.4990  0.5973
15650TIP3    H168441   5.358   4.760   4.200 -1.6519  0.4173  1.5556
15650TIP3    H268442   5.375   4.687   4.332  1.8214 -2.0559 -0.1016
15651TIP3   OH268443   3.665   2.726  12.673  0.3046  0.1351  0.2499
15651TIP3    H168444   3.666   2.804  12.618  1.5538 -1.2672 -1.8641
15651TIP3    H268445   3.609   2.664  12.626 -1.4160  0.0058  2.3474
15652TIP3   OH268446   3.345   5.612  11.442  0.1879 -0.1802 -0.1129
15652TIP3    H168447   3.301   5.697  11.441  0.8711  0.1949 -1.6327
15652TIP3    H268448   3.311   5.568  11.363 -0.0610 -1.2767  0.5860
15653TIP3   OH268449   1.689   3.708   4.339 -0.3203  0.1171  0.1199
15653TIP3    H168450   1.771   3.658   4.344 -0.6674 -0.4316  0.3826
15653TIP3    H268451   1.715   3.791   4.301  0.3253 -0.1409 -0.0257
15654TIP3   OH268452   2.428   4.859  12.466 -0.6641 -0.5352 -0.1677
15654TIP3    H168453   2.477   4.789  12.423 -2.2242 -1.7491 -0.0603
15654TIP3    H268454   2.424   4.929  12.401  1.7903 -0.0889  0.0864
15655TIP3   OH268455   3.469   1.851  14.422  0.1088  0.4536 -0.0696
15655TIP3    H168456   3.463   1.771  14.370 -0.3791  1.7243 -2.0874
15655TIP3    H268457   3.506   1.915  14.361 -2.3242  2.5389  0.4845
15656TIP3   OH268458   4.531   1.237   2.343  0.3422  0.0566  0.3711
15656TIP3    H168459   4.583   1.309   2.308  0.3537 -0.4730 -0.7375
15656TIP3    H268460   4.454   1.279   2.382  0.3390  0.6652 -0.2822
15657TIP3   OH268461   3.281   3.920  16.978 -0.1719 -0.0294 -0.7872
15657TIP3    H168462   3.341   3.854  16.943 -0.7704 -0.0364 -1.8467
15657TIP3    H268463   3.338   3.987  17.016  0.5403  0.2237 -2.2350
15658TIP3   OH268464   6.338   1.604   2.032 -0.0327 -0.3051  0.5395
15658TIP3    H168465   6.270   1.628   1.969  1.5344  1.2936 -0.6399
15658TIP3    H268466   6.312   1.646   2.113  0.5042  2.0022 -0.4147
15659TIP3   OH268467   0.356   3.440  11.149  0.2115 -0.4021  0.0970
15659TIP3    H168468   0.415   3.402  11.084  0.3406 -0.1379  0.0570
15659TIP3    H268469   0.375   3.534  11.147  0.5566 -0.4391  0.8473
15660TIP3   OH268470   0.570   2.678  16.570 -0.6809 -0.0449  0.4765
15660TIP3    H168471   0.522   2.745  16.521 -1.4474 -0.7100  0.2836
15660TIP3    H268472   0.660   2.685  16.538 -0.4582  1.6954  1.3553
15661TIP3   OH268473   0.850   0.267  14.063  0.2108  0.4721  0.0141
15661TIP3    H168474   0.891   0.250  14.148  1.9272  0.7137 -0.7252
15661TIP3    H268475   0.907   0.330  14.021  0.3259 -0.8902 -2.0005
15662TIP3   OH268476   4.418   3.671   0.492  0.1568  0.0111 -0.3263
15662TIP3    H168477   4.392   3.599   0.434 -4.1123  0.9095  0.1988
15662TIP3    H268478   4.345   3.682   0.552  2.4115  2.2070  2.3013
15663TIP3   OH268479   0.616   1.664   5.047 -0.7859  0.3457 -0.4892
15663TIP3    H168480   0.528   1.671   5.012 -0.6926  0.0729 -0.7832
15663TIP3    H268481   0.604   1.632   5.136 -0.9798  0.1978 -0.5679
15664TIP3   OH268482   4.211   3.265   3.536  0.6911  0.3362 -0.1041
15664TIP3    H168483   4.286   3.209   3.515  0.2493  0.1825 -1.3474
15664TIP3    H268484   4.135   3.206   3.530  0.5855 -0.1491  3.5723
15665TIP3   OH268485   6.320   2.388   2.285  0.8622  0.2793  0.2239
15665TIP3    H168486   6.292   2.325   2.352  0.0574  0.1330 -0.2359
15665TIP3    H268487   6.336   2.335   2.207 -1.2463  0.7563 -0.5989
15666TIP3   OH268488   2.423   3.202  12.141  0.1959 -0.0540 -0.1613
15666TIP3    H168489   2.508   3.219  12.181  0.5062 -0.1732 -0.7585
15666TIP3    H268490   2.395   3.119  12.180  0.4465 -0.1181 -0.1148
15667TIP3   OH268491   0.836   3.669  15.489  0.4299 -0.3502  0.3220
15667TIP3    H168492   0.819   3.697  15.578  0.9420  0.6859  0.1045
15667TIP3    H268493   0.932   3.668  15.482  0.4020 -0.8824 -0.0789
15668TIP3   OH268494   1.618   0.716  13.855 -0.9759  0.3034 -0.3667
15668TIP3    H168495   1.565   0.652  13.901 -0.6258  0.3232  0.0760
15668TIP3    H268496   1.610   0.796  13.907 -0.1450  0.1778 -0.0181
15669TIP3   OH268497   3.063   2.923  15.733 -0.0967  0.4659 -0.5564
15669TIP3    H168498   3.153   2.901  15.759  0.3096  0.6889 -1.7066
15669TIP3    H268499   3.049   2.873  15.652 -1.9157 -1.5634  0.8769
15670TIP3   OH268500   3.041   1.568  15.891 -0.2157  0.1421 -0.0048
15670TIP3    H168501   3.036   1.530  15.978  1.3223  0.0875  0.0855
15670TIP3    H268502   3.086   1.652  15.903  0.3841 -0.0498 -0.7716
15671TIP3   OH268503   2.987   3.778   6.344 -0.0062  0.4541  0.5633
15671TIP3    H168504   2.905   3.827   6.354 -1.8445 -2.1412 -0.4711
15671TIP3    H268505   3.048   3.840   6.305 -1.7378  2.2699  0.5959
15672TIP3   OH268506   0.831   1.342  16.242 -0.4322 -0.2353 -0.1515
15672TIP3    H168507   0.838   1.414  16.180  0.4414 -1.1911 -1.2214
15672TIP3    H268508   0.737   1.328  16.251 -0.6253 -1.0602 -2.5423
15673TIP3   OH268509   0.287   1.521   3.156  0.2147 -0.1482  0.9084
15673TIP3    H168510   0.308   1.547   3.067 -0.3741 -0.3634  0.7038
15673TIP3    H268511   0.318   1.431   3.164  0.4818 -0.0494  0.9988
15674TIP3   OH268512   3.391   1.496  12.028  0.5008 -0.5467 -0.3166
15674TIP3    H168513   3.426   1.480  12.116  0.4083 -2.0199 -0.5266
15674TIP3    H268514   3.454   1.555  11.988 -0.7594  2.2991  1.5742
15675TIP3   OH268515   3.579   2.693  16.471  0.2675  0.0112  0.7812
15675TIP3    H168516   3.669   2.663  16.457  0.0179 -0.0838 -0.7677
15675TIP3    H268517   3.569   2.694  16.566  1.7209 -0.5230  0.9671
15676TIP3   OH268518   6.466   5.633  12.459 -0.4059  0.3007 -0.0346
15676TIP3    H168519   6.398   5.578  12.498 -0.8681 -0.2564 -1.5274
15676TIP3    H268520   6.421   5.714  12.434 -0.4478  0.0946 -0.6541
15677TIP3   OH268521   5.711   2.922  13.700  0.6078  0.3812 -0.7101
15677TIP3    H168522   5.801   2.895  13.679  0.1428  0.4051 -2.9077
15677TIP3    H268523   5.685   2.978  13.627 -1.7516 -0.8769 -0.9119
15678TIP3   OH268524   0.359   3.074   0.287 -0.5332  0.1057  0.1134
15678TIP3    H168525   0.362   3.103   0.195 -0.6062  0.7745  0.3167
15678TIP3    H268526   0.374   2.979   0.283  1.2968  0.3791 -0.4524
15679TIP3   OH268527   2.853   2.824  13.262 -0.5413 -0.1286 -0.3827
15679TIP3    H168528   2.777   2.873  13.292  0.6496  1.3728  0.2889
15679TIP3    H268529   2.847   2.740  13.308 -0.4040  0.9709  1.7611
15680TIP3   OH268530   6.112   4.758   1.269 -0.0601 -0.1628  0.3602
15680TIP3    H168531   6.039   4.714   1.313  0.7749 -1.3014  0.6704
15680TIP3    H268532   6.162   4.686   1.229  0.0674  0.7128 -1.1307
15681TIP3   OH268533   1.699   6.590  13.908 -0.2146 -0.3539 -0.4994
15681TIP3    H168534   1.735   6.503  13.888  0.2966 -0.3185  0.2167
15681TIP3    H268535   1.681   6.587  14.002  1.5967  0.9256 -0.0565
15682TIP3   OH268536   6.478   2.501   1.017  0.1891 -0.0575  0.0060
15682TIP3    H168537   6.570   2.510   0.992  0.4099 -1.7552  0.1406
15682TIP3    H268538   6.454   2.412   0.992 -1.5033  0.4174 -0.2355
15683TIP3   OH268539   1.214   2.785   0.028 -0.0320  0.5318  0.3643
15683TIP3    H168540   1.229   2.761  -0.064 -0.8326 -1.1496  0.6292
15683TIP3    H268541   1.155   2.717   0.061  2.0253 -0.2290  2.7695
15684TIP3   OH268542   0.488   0.705   2.307  0.3154  0.5960  0.6578
15684TIP3    H168543   0.444   0.625   2.336 -1.8591  1.8614  1.0611
15684TIP3    H268544   0.549   0.676   2.239 -1.5378 -1.2274 -0.3197
15685TIP3   OH268545   3.359   1.678   0.910  0.2802  0.2634  0.1574
15685TIP3    H168546   3.391   1.592   0.884 -0.9892 -1.0464  2.5330
15685TIP3    H268547   3.363   1.677   1.006  0.2071  2.8665  0.2658
15686TIP3   OH268548   3.533   1.634   2.539  0.4609  0.2419  0.1042
15686TIP3    H168549   3.560   1.704   2.480 -0.4522  0.4795 -0.0496
15686TIP3    H268550   3.518   1.559   2.482  1.2836 -0.0418  0.2501
15687TIP3   OH268551   1.760   5.391   1.171  0.3441  0.5672 -0.0814
15687TIP3    H168552   1.786   5.482   1.159 -0.0384  0.9132  1.5614
15687TIP3    H268553   1.670   5.395   1.203 -0.3942 -0.4815 -1.8816
15688TIP3   OH268554   4.959   5.605   5.107  0.3049 -0.1064  0.3353
15688TIP3    H168555   4.961   5.550   5.028  2.8845  1.0675 -0.5417
15688TIP3    H268556   4.933   5.691   5.075 -1.0664 -0.1588  1.2391
15689TIP3   OH268557   5.037   1.048  15.182 -0.3398  0.1825 -0.0943
15689TIP3    H168558   5.078   0.962  15.178 -0.2060  0.2606 -0.4814
15689TIP3    H268559   4.947   1.031  15.210  0.3013  0.1244  2.0614
15690TIP3   OH268560   1.092   5.117   3.032  0.0794 -0.0126 -0.1106
15690TIP3    H168561   1.046   5.093   3.112  0.9432  1.7265  0.9720
15690TIP3    H268562   1.034   5.178   2.987  0.0321 -0.2052 -0.3177
15691TIP3   OH268563   1.838   4.009   6.144 -0.3469 -0.7429 -0.3036
15691TIP3    H168564   1.838   3.947   6.217  2.8964 -0.1426  0.3666
15691TIP3    H268565   1.843   4.095   6.186 -2.7579 -0.0521 -1.2572
15692TIP3   OH268566   3.996   6.455   5.342  0.2911  0.4396  0.2427
15692TIP3    H168567   4.087   6.443   5.367  0.6101  2.7683  0.4511
15692TIP3    H268568   3.987   6.410   5.258  1.1742 -1.1382  0.9543
15693TIP3   OH268569   2.216   5.486  13.395 -0.1592  0.4973  0.9019
15693TIP3    H168570   2.176   5.573  13.400  0.1667  0.5686  2.8431
15693TIP3    H268571   2.287   5.488  13.459  1.2878 -0.5044 -0.5912
15694TIP3   OH268572   1.902   2.825  14.054 -0.6730  0.2046  0.2583
15694TIP3    H168573   1.826   2.793  14.103 -0.7948 -0.8318 -0.5723
15694TIP3    H268574   1.976   2.780  14.094 -0.8104 -0.9114 -0.7122
15695TIP3   OH268575   0.341   1.251  12.730 -0.4606 -0.3104 -0.6812
15695TIP3    H168576   0.350   1.317  12.661  0.6987 -0.3014 -0.5483
15695TIP3    H268577   0.279   1.188  12.695 -3.3207  1.8690  0.0132
15696TIP3   OH268578   6.175   5.689   3.794 -0.2696  0.3699 -0.5419
15696TIP3    H168579   6.154   5.610   3.744 -1.0323 -0.6385  1.3222
15696TIP3    H268580   6.138   5.761   3.742  0.5758 -0.4167 -2.3451
15697TIP3   OH268581   2.343   1.996   0.367  0.4247  0.1691 -0.0418
15697TIP3    H168582   2.393   1.964   0.441 -1.1287 -0.8137  0.6455
15697TIP3    H268583   2.327   1.918   0.314  0.8876  0.7339 -1.0398
15698TIP3   OH268584   6.061   0.201   1.178 -0.0163  0.0729  0.5689
15698TIP3    H168585   6.122   0.138   1.139 -0.2867  0.6972 -0.9388
15698TIP3    H268586   6.117   0.257   1.232  1.0706  1.5346 -1.9090
15699TIP3   OH268587   2.536   0.105  17.518 -0.6830 -0.3939  0.4257
15699TIP3    H168588   2.545   0.197  17.491 -1.1075 -1.0062 -2.0916
15699TIP3    H268589   2.625   0.069  17.507 -1.0055 -0.8217 -1.0539
15700TIP3   OH268590   1.907   2.726  15.949 -0.6465  0.1950 -0.2496
15700TIP3    H168591   1.948   2.670  16.014  0.8071 -0.1269 -1.3920
15700TIP3    H268592   1.860   2.792  16.000 -0.2509 -0.5438  1.1107
15701TIP3   OH268593   0.020   0.387  17.251  0.2954 -0.7029  0.0066
15701TIP3    H168594   0.030   0.477  17.282 -2.8806  0.6872 -2.4761
15701TIP3    H268595   0.023   0.334  17.331 -0.8546  1.9316  1.9546
15702TIP3   OH268596   2.437   3.260   2.269 -0.2938  0.0187  0.8868
15702TIP3    H168597   2.495   3.247   2.343  1.0316 -0.0624 -0.1271
15702TIP3    H268598   2.371   3.321   2.300 -0.4104 -0.8483  2.4577
15703TIP3   OH268599   2.391   1.337  13.410  0.3246 -0.0054  0.0019
15703TIP3    H168600   2.459   1.280  13.446  0.5509  0.0254 -0.3664
15703TIP3    H268601   2.331   1.353  13.483 -0.1500 -1.3191 -0.0703
15704TIP3   OH268602   6.570   2.966   5.956 -0.1380  0.1637  0.7440
15704TIP3    H168603   6.476   2.979   5.940  0.4003  1.4881 -2.1545
15704TIP3    H268604   6.577   2.947   6.049 -3.2203  0.6306  1.1688
15705TIP3   OH268605   4.772   6.267  12.500  0.2579 -0.2188 -0.3595
15705TIP3    H168606   4.783   6.362  12.490  0.6701 -0.1524  0.5727
15705TIP3    H268607   4.755   6.236  12.412  1.8371  0.5119 -0.9830
15706TIP3   OH268608   3.715   3.530   2.385 -0.0176 -0.2952  0.2158
15706TIP3    H168609   3.672   3.595   2.440  0.4038  0.0264  0.1714
15706TIP3    H268610   3.807   3.535   2.409  0.0913 -0.5353 -0.1359
15707TIP3   OH268611   1.253   3.733  14.695  0.0598  0.1932 -0.3260
15707TIP3    H168612   1.183   3.703  14.637 -0.5680  1.5335 -0.2955
15707TIP3    H268613   1.233   3.825  14.711  0.9922  0.2015  0.9146
15708TIP3   OH268614   1.613   4.731   2.555  0.1141 -0.0140 -0.0647
15708TIP3    H168615   1.529   4.777   2.555 -1.1792 -2.1695  1.1691
15708TIP3    H268616   1.637   4.727   2.648  0.8013 -0.7345 -0.2684
15709TIP3   OH268617   3.746   4.545  11.104  0.1223  0.0103 -0.6325
15709TIP3    H168618   3.739   4.544  11.008  0.3100  2.1314 -0.7115
15709TIP3    H268619   3.805   4.473  11.125  1.3421  0.4753 -2.2533
15710TIP3   OH268620   0.442   0.906  12.184 -0.4317 -0.1761  0.0913
15710TIP3    H168621   0.373   0.862  12.134 -0.5696  0.7575 -0.5753
15710TIP3    H268622   0.469   0.842  12.249 -1.0419 -1.0199 -0.4594
15711TIP3   OH268623   3.817   3.671   4.257 -0.0195 -0.0950 -0.1775
15711TIP3    H168624   3.817   3.583   4.218 -1.6300 -0.3729  0.3784
15711TIP3    H268625   3.725   3.690   4.274  0.4394  0.9065  1.4738
15712TIP3   OH268626   2.246   4.224  16.947  0.0600  0.2717 -0.4358
15712TIP3    H168627   2.275   4.299  16.894  0.6373 -0.0891 -0.6437
15712TIP3    H268628   2.303   4.225  17.023  0.4146 -0.2642 -0.6940
15713TIP3   OH268629   3.237   5.250  14.992  0.1477  0.7215  0.2186
15713TIP3    H168630   3.260   5.247  14.899  1.1051  1.2113  0.4348
15713TIP3    H268631   3.317   5.226  15.037 -0.2906  0.5798  0.9317
15714TIP3   OH268632   2.929   0.215  17.147  0.1120 -0.4529  0.1233
15714TIP3    H168633   2.868   0.251  17.212 -0.6020  0.2429 -0.9055
15714TIP3    H268634   2.956   0.290  17.095 -1.1254 -1.3016 -1.8494
15715TIP3   OH268635   0.900   1.026  16.447 -0.9010  0.2126  0.2172
15715TIP3    H168636   0.922   0.979  16.527 -0.0205 -0.6800 -0.5187
15715TIP3    H268637   0.897   1.118  16.473  0.8945  0.0902  0.9898
15716TIP3   OH268638   5.329   4.223  12.954 -0.0376 -0.4423 -0.3051
15716TIP3    H168639   5.265   4.290  12.930 -0.7502 -1.2085 -0.6028
15716TIP3    H268640   5.360   4.189  12.870  0.6770 -0.1642 -0.1601
15717TIP3   OH268641   3.559   1.213   6.315  0.0691  0.4989 -0.4282
15717TIP3    H168642   3.465   1.231   6.308 -0.2112 -0.2710  0.9026
15717TIP3    H268643   3.584   1.181   6.229 -0.9369  0.5265 -0.7430
15718TIP3   OH268644   5.611   0.494   5.678 -0.1174 -0.7687 -0.4174
15718TIP3    H168645   5.582   0.585   5.671  0.6518 -0.1520  2.7653
15718TIP3    H268646   5.554   0.446   5.618 -0.6531  1.7495 -2.0806
15719TIP3   OH268647   5.542   0.610  15.321 -0.2046  0.4581  0.1178
15719TIP3    H168648   5.555   0.703  15.341 -0.4929  0.7074 -0.7824
15719TIP3    H268649   5.591   0.597  15.239  0.0855 -0.2575  0.4032
15720TIP3   OH268650   6.079   4.542   2.628 -0.6480  0.1881  0.2493
15720TIP3    H168651   6.142   4.542   2.700 -1.6124  0.4591  1.1176
15720TIP3    H268652   5.996   4.568   2.668 -2.1443 -3.3395 -0.1373
15721TIP3   OH268653   4.789   5.381  17.471  0.6155  0.2388  0.2566
15721TIP3    H168654   4.876   5.422  17.470  0.6053  0.2621 -0.7700
15721TIP3    H268655   4.742   5.422  17.398  0.5691 -1.4820 -0.7480
15722TIP3   OH268656   5.182   1.156   0.704 -0.1576  0.5542 -0.0450
15722TIP3    H168657   5.153   1.151   0.795 -2.1082 -0.8300 -0.6744
15722TIP3    H268658   5.178   1.249   0.682 -0.3200  0.8245  1.0525
15723TIP3   OH268659   3.199   4.644   3.660  0.2173  0.5991  0.6246
15723TIP3    H168660   3.255   4.571   3.689 -0.4990 -0.0608  0.3788
15723TIP3    H268661   3.114   4.625   3.698 -0.1439  0.9585  0.0050
15724TIP3   OH268662   1.748   0.668  15.885 -0.1921 -0.2253 -0.2546
15724TIP3    H168663   1.688   0.636  15.817  0.2556  0.6420 -1.0784
15724TIP3    H268664   1.830   0.623  15.867  0.2177  0.7591 -0.9415
15725TIP3   OH268665   0.845   6.075  13.603  0.2826 -0.1237 -0.4814
15725TIP3    H168666   0.917   6.070  13.665 -0.8575 -0.1630  0.8765
15725TIP3    H268667   0.818   6.166  13.604 -0.3136 -0.3000 -0.2443
15726TIP3   OH268668   4.295   3.385   0.184 -0.5373  0.3168  0.3648
15726TIP3    H168669   4.315   3.299   0.221 -1.2534  0.6179  1.4881
15726TIP3    H268670   4.355   3.393   0.110 -0.5013 -1.1744  0.1886
15727TIP3   OH268671   5.090   1.595  14.353 -0.0583  0.0708  0.0584
15727TIP3    H168672   5.176   1.602  14.312 -0.7944  1.2947 -1.3998
15727TIP3    H268673   5.073   1.501  14.358  1.1440 -0.1637 -0.1090
15728TIP3   OH268674   1.644   1.046   4.793  0.2873  0.5350  0.2262
15728TIP3    H168675   1.634   1.093   4.875 -1.3838 -0.0837  0.4068
15728TIP3    H268676   1.636   1.113   4.725  0.4611  0.8674  0.5299
15729TIP3   OH268677   3.963   0.251  17.239 -0.4150  0.0005 -0.2705
15729TIP3    H168678   4.022   0.186  17.277  0.4853  0.1818 -1.3058
15729TIP3    H268679   3.877   0.209  17.240  0.0390 -0.9573 -0.3444
15730TIP3   OH268680   1.750   6.618   2.635  0.1283  0.1138 -0.5530
15730TIP3    H168681   1.699   6.540   2.615  1.5027 -1.3731  1.3913
15730TIP3    H268682   1.799   6.637   2.554  0.1636 -1.3594 -0.8936
15731TIP3   OH268683   4.335   4.061  16.014 -0.2354 -0.6845 -0.2353
15731TIP3    H168684   4.278   4.125  16.056 -0.2276  0.2724 -1.6190
15731TIP3    H268685   4.302   3.976  16.044  0.0497 -0.0734  2.0106
15732TIP3   OH268686   1.918   1.115   5.220 -0.1905 -0.0995 -0.3955
15732TIP3    H168687   1.923   1.093   5.127  0.3294  1.1173 -0.6792
15732TIP3    H268688   1.844   1.065   5.253 -0.2477 -0.7140 -1.4140
15733TIP3   OH268689   4.837   2.925  15.856  0.0912  0.1864  0.3783
15733TIP3    H168690   4.798   2.982  15.922 -4.6591 -2.8525  0.6310
15733TIP3    H268691   4.786   2.942  15.777  0.3180 -1.8451 -0.2406
15734TIP3   OH268692   0.448   2.129   0.935  0.4400 -0.0429 -0.1831
15734TIP3    H168693   0.476   2.209   0.891 -0.9952  0.6134  0.0529
15734TIP3    H268694   0.487   2.135   1.022 -0.6291  1.0306  0.2600
15735TIP3   OH268695   6.107   3.497   5.022  0.2909  0.3743  0.1755
15735TIP3    H168696   6.073   3.413   5.053  0.5088  0.3305  0.2949
15735TIP3    H268697   6.089   3.558   5.094 -1.0955  0.7369 -0.4358
15736TIP3   OH268698   4.198   6.198   2.280  0.0653 -0.1470 -0.0267
15736TIP3    H168699   4.194   6.191   2.376 -0.2347  0.2273 -0.0090
15736TIP3    H268700   4.215   6.109   2.250 -0.6511 -0.4071  0.3345
15737TIP3   OH268701   0.326   4.987  16.344  0.2181 -0.2566 -0.1350
15737TIP3    H168702   0.381   4.976  16.266  0.9990  0.0007  0.3722
15737TIP3    H268703   0.372   4.939  16.413 -0.8917 -1.1801 -0.0090
15738TIP3   OH268704   6.513   5.269   2.860  0.0182 -0.0731 -0.1616
15738TIP3    H168705   6.443   5.334   2.867  1.9424  2.2164 -0.9619
15738TIP3    H268706   6.549   5.283   2.772  0.9581 -1.7603 -0.0693
15739TIP3   OH268707   3.968   2.684  13.509  0.5613  0.2594  0.3087
15739TIP3    H168708   3.908   2.758  13.513 -0.2161 -0.2028 -1.5886
15739TIP3    H268709   3.913   2.607  13.525  1.0497 -0.0350  0.6111
15740TIP3   OH268710   0.240   5.138   4.753 -0.3339 -0.1716 -0.0049
15740TIP3    H168711   0.306   5.171   4.815  0.0657  0.2075 -0.6248
15740TIP3    H268712   0.281   5.146   4.668 -1.5667  1.0877 -0.5271
15741TIP3   OH268713   3.151   0.490  13.909  0.2869  0.0327  0.5223
15741TIP3    H168714   3.072   0.541  13.924  0.5761  0.2930  1.2162
15741TIP3    H268715   3.200   0.498  13.991  0.7493 -0.6235  0.3128
15742TIP3   OH268716   0.134   0.647   6.077  0.0984 -0.0147  0.3483
15742TIP3    H168717   0.135   0.673   6.169  0.5801  0.5934  0.1784
15742TIP3    H268718   0.176   0.561   6.075  2.8392  1.2118  0.3604
15743TIP3   OH268719   6.681   1.732  16.545 -0.1253  0.2956 -0.2506
15743TIP3    H168720   6.621   1.783  16.491  0.2974  1.5666  0.4224
15743TIP3    H268721   6.627   1.662  16.582 -1.2078  1.3843  0.3078
15744TIP3   OH268722   4.317   2.122   2.090 -0.2285  0.0468 -0.4111
15744TIP3    H168723   4.336   2.034   2.057 -0.6027 -0.0595 -0.3449
15744TIP3    H268724   4.361   2.126   2.175 -2.1320 -0.9138  0.6845
15745TIP3   OH268725   3.275   6.182   3.902 -0.3599  0.1118 -0.3600
15745TIP3    H168726   3.281   6.103   3.848 -0.5999  0.0951 -0.3628
15745TIP3    H268727   3.208   6.162   3.967 -0.0242  0.1078 -0.0089
15746TIP3   OH268728   2.728   5.449  17.516 -0.0817 -0.1719 -0.5039
15746TIP3    H168729   2.782   5.457  17.594 -0.6019 -2.3124  0.1548
15746TIP3    H268730   2.687   5.363  17.524  0.3725 -0.7972 -3.4567
15747TIP3   OH268731   4.348   1.555  16.070  0.3565 -0.1639  0.0116
15747TIP3    H168732   4.422   1.571  16.128  0.5215 -1.3426  0.1553
15747TIP3    H268733   4.379   1.487  16.010 -0.2846  0.0158 -0.5354
15748TIP3   OH268734   6.074   2.177  13.623 -0.1194  0.1059  0.4118
15748TIP3    H168735   6.070   2.085  13.596  0.5865 -0.5006  2.1564
15748TIP3    H268736   6.108   2.224  13.547  0.3133 -1.2163 -0.2402
15749TIP3   OH268737   5.274   2.840  11.838 -0.0861 -0.2077  0.0336
15749TIP3    H168738   5.312   2.873  11.919 -1.1630 -0.8941  0.8457
15749TIP3    H268739   5.308   2.898  11.770  1.1222  0.1604  0.9195
15750TIP3   OH268740   6.257   6.646   2.206  0.6838  0.6532 -0.0065
15750TIP3    H168741   6.348   6.657   2.233  0.1676 -0.8266  2.5863
15750TIP3    H268742   6.208   6.703   2.265 -0.2315 -0.2198  0.0964
15751TIP3   OH268743   1.466   1.841   5.365  0.4987 -0.4928  0.2198
15751TIP3    H168744   1.445   1.884   5.282  1.3616  0.5913  0.5338
15751TIP3    H268745   1.399   1.873   5.426  0.0535 -1.0420  0.0264
15752TIP3   OH268746   5.798   1.583  12.134  0.3333  0.0912  0.5998
15752TIP3    H168747   5.856   1.551  12.204  0.1210 -0.4430  0.5353
15752TIP3    H268748   5.747   1.652  12.176  0.7009  0.2615  0.7792
15753TIP3   OH268749   3.809   3.478  16.679 -0.2200 -0.2660  0.0814
15753TIP3    H168750   3.905   3.485  16.680 -0.2747  1.0267  1.9391
15753TIP3    H268751   3.783   3.495  16.769 -2.4063  3.0786 -0.9933
15754TIP3   OH268752   4.860   3.140  15.453  0.2736  0.4666 -0.1375
15754TIP3    H168753   4.915   3.061  15.453  0.3654  0.4800  1.8427
15754TIP3    H268754   4.832   3.149  15.362  0.7091 -1.5369 -0.5342
15755TIP3   OH268755   6.639   1.648   0.799  0.2333  0.0159  0.0398
15755TIP3    H168756   6.587   1.640   0.719 -0.3788 -0.4308  0.4812
15755TIP3    H268757   6.683   1.733   0.790 -2.6984  1.7774  0.8835
15756TIP3   OH268758   6.552   4.262   0.367 -0.0968 -0.0674  0.5345
15756TIP3    H168759   6.550   4.297   0.456  1.3534  1.9115 -0.1248
15756TIP3    H268760   6.588   4.174   0.377  2.4871  1.0038  1.7591
15757TIP3   OH268761   2.879   2.311   2.526 -0.0850 -0.0016  0.6663
15757TIP3    H168762   2.884   2.375   2.455  1.4321 -0.3395  0.4430
15757TIP3    H268763   2.967   2.310   2.565 -0.9132  0.3221  2.6990
15758TIP3   OH268764   0.742   0.605  12.113 -0.2732 -0.0820  0.5119
15758TIP3    H168765   0.730   0.510  12.118  2.3648 -0.6202 -1.1644
15758TIP3    H268766   0.737   0.625  12.020  1.4004  1.0087  0.6037
15759TIP3   OH268767   1.118   6.395  16.181 -0.3290 -0.1388  0.0043
15759TIP3    H168768   1.083   6.463  16.239  0.5937  0.3233  0.0338
15759TIP3    H268769   1.181   6.348  16.236 -0.7293 -0.8159 -0.1131
15760TIP3   OH268770   3.110   0.958  16.440  0.2075 -0.2904 -0.0689
15760TIP3    H168771   3.121   0.864  16.455  3.0740 -0.3797 -1.9303
15760TIP3    H268772   3.180   0.999  16.490  0.2547  0.6631 -0.8835
15761TIP3   OH268773   5.222   6.121  16.996  0.3323  0.0323  0.3851
15761TIP3    H168774   5.206   6.028  17.012  0.5496  0.2461  1.9893
15761TIP3    H268775   5.143   6.166  17.027 -0.0607  0.3632 -1.0062
15762TIP3   OH268776   0.664   1.999  12.922  0.6297  0.5527 -0.1536
15762TIP3    H168777   0.620   1.923  12.959  0.9207  0.9332  1.0191
15762TIP3    H268778   0.754   1.972  12.910  0.6935  0.6445  0.0983
15763TIP3   OH268779   3.895   3.256   2.113  0.4817 -0.4674 -0.0416
15763TIP3    H168780   3.895   3.240   2.207  1.0958 -0.1800  0.0133
15763TIP3    H268781   3.888   3.169   2.073 -1.6224 -0.4853  0.2666
15764TIP3   OH268782   0.676   6.028  14.828 -0.2504  0.2575  0.2345
15764TIP3    H168783   0.752   6.070  14.869 -0.3500  0.8164 -0.1421
15764TIP3    H268784   0.612   6.020  14.899 -0.8082  2.1463 -0.0026
15765TIP3   OH268785   1.680   5.979   4.023  0.3117 -0.4359  0.6911
15765TIP3    H168786   1.641   5.949   3.941 -0.4381 -2.1151  1.6085
15765TIP3    H268787   1.708   5.899   4.067  2.4997  0.5583  1.2356
15766TIP3   OH268788   1.079   3.786   2.787  0.2867 -0.1624 -0.2695
15766TIP3    H168789   1.070   3.754   2.697 -0.0298 -0.4833 -0.1273
15766TIP3    H268790   1.163   3.832   2.788  0.0988  0.1958 -0.8343
15767TIP3   OH268791   2.902   4.443   2.283 -0.0094 -0.2304  0.5227
15767TIP3    H168792   2.931   4.473   2.369 -0.0386 -0.7078  0.7019
15767TIP3    H268793   2.856   4.518   2.245 -0.2465 -0.1097  1.0430
15768TIP3   OH268794   4.933   2.463   3.585  0.0597  0.0902 -0.3882
15768TIP3    H168795   4.860   2.506   3.631  0.1624 -2.1345  2.0861
15768TIP3    H268796   4.893   2.424   3.507 -1.3362 -0.7170  0.6992
15769TIP3   OH268797   1.628   1.088   1.806 -0.3419 -0.3413  0.0549
15769TIP3    H168798   1.654   1.001   1.837  0.4040  0.1862  0.9552
15769TIP3    H268799   1.675   1.149   1.863 -0.2006  0.6642 -1.0876
15770TIP3   OH268800   1.340   4.483  13.127 -0.5389  0.1033 -0.2955
15770TIP3    H168801   1.351   4.524  13.213 -2.6479  1.0495 -0.4154
15770TIP3    H268802   1.316   4.393  13.147 -0.0626  0.0591  0.0896
15771TIP3   OH268803   6.298   6.743   2.559  0.3731 -0.3651 -0.7929
15771TIP3    H168804   6.354   6.702   2.493  0.5460 -0.5051 -0.5563
15771TIP3    H268805   6.216   6.761   2.512  0.1702 -1.2812 -0.8148
15772TIP3   OH268806   1.766   2.510  14.494  0.0489 -0.3362  0.0477
15772TIP3    H168807   1.704   2.497  14.565 -1.4162 -1.6037 -1.3939
15772TIP3    H268808   1.852   2.492  14.533 -0.5576  0.4519  1.8213
15773TIP3   OH268809   4.410   0.295   4.676  1.1275  0.0253  0.0584
15773TIP3    H168810   4.471   0.234   4.715  2.8767  0.8404 -1.2534
15773TIP3    H268811   4.388   0.357   4.746  1.2717 -0.6681  0.7211
15774TIP3   OH268812   5.991   3.131  14.659  0.1221 -0.0092 -0.1500
15774TIP3    H168813   5.991   3.207  14.717  0.0803 -1.8255  2.4660
15774TIP3    H268814   5.906   3.088  14.676  0.4662 -1.0546 -0.9254
15775TIP3   OH268815   2.243   5.794   5.242 -0.2038 -0.8128 -0.1505
15775TIP3    H168816   2.321   5.739   5.229  1.7306  1.6605  0.2351
15775TIP3    H268817   2.201   5.797   5.156  1.3587 -0.4460 -0.9273
15776TIP3   OH268818   1.144   2.605   4.167  0.2023  0.1865 -0.3096
15776TIP3    H168819   1.142   2.696   4.136  0.2960  0.3757  0.2309
15776TIP3    H268820   1.064   2.566   4.133 -0.1026  0.6235 -0.1002
15777TIP3   OH268821   3.011   6.681  10.743  0.7067 -0.0655 -0.1089
15777TIP3    H168822   2.987   6.593  10.715  1.2945 -0.5998  1.0249
15777TIP3    H268823   2.976   6.689  10.832 -1.6712  1.8255 -1.0787
15778TIP3   OH268824   0.736   0.607   3.366 -0.0277  0.5786  0.4203
15778TIP3    H168825   0.762   0.601   3.458 -0.9945 -1.3016  0.6347
15778TIP3    H268826   0.812   0.645   3.321  0.1789  2.2720  2.0701
15779TIP3   OH268827   1.648   5.833   3.232 -0.4104 -0.0585 -0.0318
15779TIP3    H168828   1.647   5.917   3.185 -1.3477  0.0475  0.1665
15779TIP3    H268829   1.615   5.770   3.168  0.9771 -0.4352 -0.4261
15780TIP3   OH268830   5.126   2.998  12.565 -0.0118  0.3813  0.2927
15780TIP3    H168831   5.055   2.955  12.518 -0.9897  2.4402 -0.2040
15780TIP3    H268832   5.195   2.932  12.569 -2.4242 -2.3011  2.1635
15781TIP3   OH268833   0.868   2.130   4.454  0.3632  0.1689  0.0869
15781TIP3    H168834   0.916   2.189   4.396  0.4391 -1.7459 -1.9609
15781TIP3    H268835   0.881   2.165   4.542  1.4537  2.4105 -0.9075
15782TIP3   OH268836   1.783   2.228   1.348  0.0060  0.1151  0.1789
15782TIP3    H168837   1.766   2.219   1.442 -0.0266  0.8411  0.2491
15782TIP3    H268838   1.710   2.181   1.306  0.2054 -0.5016  0.5136
15783TIP3   OH268839   3.563   3.225   1.892 -0.5624  0.6363 -0.2729
15783TIP3    H168840   3.532   3.147   1.938 -0.7755  1.1208  0.4233
15783TIP3    H268841   3.485   3.279   1.882 -0.7448  0.0850 -2.1802
15784TIP3   OH268842   5.935   3.448   2.155  1.0211  0.4906 -0.2724
15784TIP3    H168843   6.001   3.418   2.218 -0.2228  0.9409  1.2840
15784TIP3    H268844   5.977   3.436   2.070  2.5351 -0.6675  0.5911
15785TIP3   OH268845   1.550   4.834   5.547  0.1414  0.4068 -1.1521
15785TIP3    H168846   1.629   4.864   5.593  0.2577 -1.3389 -0.1044
15785TIP3    H268847   1.513   4.913   5.509  2.2224  1.3270 -1.4089
15786TIP3   OH268848   0.045   2.903  11.912 -0.1507 -0.3105 -0.0110
15786TIP3    H168849   0.097   2.981  11.895  0.0181 -0.4327 -0.0526
15786TIP3    H268850   0.099   2.849  11.970  1.0964 -1.8305 -2.4043
15787TIP3   OH268851   4.273   1.607  15.158  0.0581 -0.3971 -0.2885
15787TIP3    H168852   4.272   1.560  15.241 -0.3598  0.9739  0.5206
15787TIP3    H268853   4.267   1.699  15.183 -3.3776 -0.0169 -1.8739
15788TIP3   OH268854   2.208   3.533   1.802 -0.8172  0.0200 -0.3402
15788TIP3    H168855   2.242   3.617   1.772  0.4148 -0.6059 -0.7773
15788TIP3    H268856   2.273   3.501   1.865 -1.9199 -0.0243  0.8128
15789TIP3   OH268857   6.536   0.312   0.163 -1.0357 -0.2180 -0.2140
15789TIP3    H168858   6.530   0.400   0.128  0.6474  0.8170  1.8739
15789TIP3    H268859   6.521   0.323   0.257 -0.5986 -2.1361  0.1172
15790TIP3   OH268860   1.814   0.622  13.396  0.7775  0.0142  0.1292
15790TIP3    H168861   1.788   0.591  13.483  2.3959  0.5479  0.8516
15790TIP3    H268862   1.910   0.616  13.396  0.8652  0.8844 -1.2908
15791TIP3   OH268863   5.646   6.720   3.854 -0.0708  0.2052 -0.2194
15791TIP3    H168864   5.659   6.665   3.931  1.5437 -0.5906 -0.9978
15791TIP3    H268865   5.601   6.663   3.791 -0.8337  0.6596 -0.1038
15792TIP3   OH268866   0.923   6.363   4.242 -0.2934  0.0519  0.4170
15792TIP3    H168867   0.956   6.416   4.315 -0.7200  0.7003  0.1511
15792TIP3    H268868   0.946   6.413   4.163 -2.4235  0.8826  0.2417
15793TIP3   OH268869   2.006   1.003  16.524 -0.0934 -0.0440  0.1539
15793TIP3    H168870   2.067   0.991  16.597  0.3222 -0.8516 -0.3119
15793TIP3    H268871   1.994   0.915  16.488  0.0214  0.3874 -0.9934
15794TIP3   OH268872   0.534   0.340   0.779 -0.0203 -0.4460  0.3182
15794TIP3    H168873   0.467   0.341   0.848  0.3428 -1.2476  0.6962
15794TIP3    H268874   0.568   0.430   0.777 -1.9356  0.3182 -0.7180
15795TIP3   OH268875   0.918   0.048  14.761  0.3639  0.2341  0.0918
15795TIP3    H168876   0.876   0.128  14.730 -1.5389 -0.2118  1.3532
15795TIP3    H268877   0.966   0.074  14.840  1.2034  0.4269 -0.4607
15796TIP3   OH268878   2.201   1.377  17.042 -0.0974 -0.0199  0.4061
15796TIP3    H168879   2.282   1.330  17.062  0.1483 -0.3364 -1.1771
15796TIP3    H268880   2.227   1.469  17.036 -0.0491 -0.0032  0.8517
15797TIP3   OH268881   1.041   5.931   5.612  0.5121  0.4681  0.0167
15797TIP3    H168882   1.048   5.861   5.548 -0.7773  1.1723 -0.9450
15797TIP3    H268883   1.082   5.896   5.691 -0.2068 -1.4126 -0.3961
15798TIP3   OH268884   3.019   5.418  11.401 -0.5210 -0.2514 -0.4309
15798TIP3    H168885   3.110   5.440  11.379 -0.5811  0.1738 -0.2602
15798TIP3    H268886   2.970   5.438  11.321 -0.6452  0.7015 -0.1288
15799TIP3   OH268887   3.229   0.674  15.716  0.2821 -0.6463  0.2066
15799TIP3    H168888   3.138   0.686  15.689 -0.0659 -1.8775  0.7625
15799TIP3    H268889   3.271   0.758  15.698 -1.8732  1.3225  3.4278
15800TIP3   OH268890   3.986   0.954  12.217  0.3993 -0.7479  0.4737
15800TIP3    H168891   3.947   0.892  12.155  1.1315 -1.7900  1.0423
15800TIP3    H268892   3.949   0.930  12.302  0.2320 -0.0109  0.6172
15801TIP3   OH268893   0.562   0.303   2.550 -0.1294  0.2732 -0.5447
15801TIP3    H168894   0.606   0.385   2.572 -0.1239  0.1061  0.0764
15801TIP3    H268895   0.591   0.284   2.461  2.4716 -0.7498  0.4173
15802TIP3   OH268896   6.395   2.240   2.053  0.0120 -0.1352  0.2220
15802TIP3    H168897   6.365   2.212   1.967 -1.1723  0.7412  0.3303
15802TIP3    H268898   6.491   2.238   2.046 -0.0271 -1.9261 -0.4812
15803TIP3   OH268899   0.073   5.387   0.221  0.0902  0.2935  0.4868
15803TIP3    H168900   0.080   5.483   0.225 -2.6703  0.5427  1.1028
15803TIP3    H268901   0.015   5.364   0.293 -2.1018 -1.4610 -1.6816
15804TIP3   OH268902   3.054   1.318   2.158 -0.0431 -0.0337  0.3925
15804TIP3    H168903   3.088   1.398   2.118  0.8048 -1.2259 -1.4536
15804TIP3    H268904   3.132   1.267   2.180 -0.5736 -0.5588  1.1039
15805TIP3   OH268905   5.957   4.822  15.966 -0.2314 -0.5141 -0.7509
15805TIP3    H168906   5.882   4.878  15.947 -1.1098 -0.9747  1.1338
15805TIP3    H268907   6.001   4.865  16.039 -1.2789 -2.5059  1.1553
15806TIP3   OH268908   3.279   4.360  12.297 -0.0665 -0.0101  0.4074
15806TIP3    H168909   3.315   4.279  12.260 -0.9050 -0.6370  0.9146
15806TIP3    H268910   3.254   4.413  12.221 -1.7160 -1.2538  0.0148
15807TIP3   OH268911   0.264   4.589   0.116  0.3326  0.1585 -0.2086
15807TIP3    H168912   0.280   4.538   0.037 -1.1840 -0.1668 -0.3409
15807TIP3    H268913   0.215   4.530   0.173  1.2223  0.4575  0.9110
15808TIP3   OH268914   4.187   2.610   2.671 -1.1348  0.2127 -0.3064
15808TIP3    H168915   4.244   2.615   2.748  0.6624  0.0040 -1.5364
15808TIP3    H268916   4.224   2.675   2.611 -1.2383 -1.0068 -1.7515
15809TIP3   OH268917   3.250   3.321  14.701 -0.9668  0.1993  0.2891
15809TIP3    H168918   3.264   3.237  14.743 -1.9021 -0.3220 -0.4120
15809TIP3    H268919   3.166   3.312  14.656 -1.1203  1.5274  0.2662
15810TIP3   OH268920   1.319   5.126   3.549 -0.2868 -0.2546 -0.5258
15810TIP3    H168921   1.283   5.180   3.620  1.8397 -0.4042  0.7544
15810TIP3    H268922   1.315   5.037   3.584 -0.1802 -0.4566 -1.0300
15811TIP3   OH268923   5.379   0.038  15.886  0.6488 -0.1231 -0.9347
15811TIP3    H168924   5.440   0.107  15.913  1.3892 -1.6703  1.6370
15811TIP3    H268925   5.293   0.078  15.894  1.0432  0.4600  0.7584
15812TIP3   OH268926   2.914   5.468  14.695  0.0847  0.2863  0.4231
15812TIP3    H168927   2.967   5.447  14.772 -0.7122 -0.0801  0.8847
15812TIP3    H268928   2.931   5.397  14.633  0.7707  0.6116  0.2340
15813TIP3   OH268929   5.220   4.018   1.446 -0.1385  0.3593 -0.1935
15813TIP3    H168930   5.197   3.943   1.500  0.1693 -0.8417 -1.6483
15813TIP3    H268931   5.314   4.029   1.459  0.0158 -0.1976 -0.7657
15814TIP3   OH268932   5.445   0.786  13.050  0.3494 -0.1090 -0.1077
15814TIP3    H168933   5.470   0.694  13.044 -1.7157 -0.6656 -0.7214
15814TIP3    H268934   5.448   0.817  12.959  0.2873  0.2311  0.0076
15815TIP3   OH268935   5.887   4.073  14.706 -0.1109  0.6423  0.5264
15815TIP3    H168936   5.961   4.123  14.742  0.2709 -0.2116  0.9748
15815TIP3    H268937   5.849   4.130  14.640  0.6740  1.2862  0.6127
15816TIP3   OH268938   3.573   4.812  13.106 -0.2472 -0.2354 -1.0971
15816TIP3    H168939   3.631   4.888  13.095 -0.6633  0.2006 -0.3791
15816TIP3    H268940   3.504   4.826  13.041 -0.8149  0.4884 -0.3531
15817TIP3   OH268941   1.542   0.698   4.866 -0.1773 -0.7773 -0.6927
15817TIP3    H168942   1.510   0.743   4.944  1.0758 -2.9895  1.2147
15817TIP3    H268943   1.467   0.646   4.836 -0.9866  0.8659 -1.6862
15818TIP3   OH268944   1.700   4.552   0.733  0.6881 -1.1064 -0.1742
15818TIP3    H168945   1.704   4.476   0.791  1.2029 -0.8233  0.1746
15818TIP3    H268946   1.789   4.589   0.736 -0.2629  1.3863  2.2060
15819TIP3   OH268947   1.650   2.207   1.018  0.3088 -0.0549 -0.0994
15819TIP3    H168948   1.716   2.276   1.013  0.6134 -0.3035  0.3733
15819TIP3    H268949   1.667   2.152   0.942  0.5120  0.0005 -0.0962
15820TIP3   OH268950   2.379   1.935   5.946  0.0673  0.3148  0.0022
15820TIP3    H168951   2.370   2.026   5.918  0.5695  1.3193  2.8652
15820TIP3    H268952   2.460   1.934   5.997 -0.8281 -1.3369  1.4753
15821TIP3   OH268953   2.462   3.950   5.313  0.0916  0.2270 -0.0229
15821TIP3    H168954   2.400   3.954   5.386  0.6192  0.9426  0.3980
15821TIP3    H268955   2.530   3.890   5.342 -0.7067 -1.0603 -0.7413
15822TIP3   OH268956   0.551   5.067   3.928 -0.2268  0.6375 -0.4778
15822TIP3    H168957   0.560   5.106   3.842 -1.3130  0.5162 -0.6619
15822TIP3    H268958   0.516   4.979   3.911 -0.0869  0.4714  0.0602
15823TIP3   OH268959   4.056   5.919  16.382  0.5263 -0.3819 -0.1971
15823TIP3    H168960   4.141   5.939  16.342  0.0287 -1.4963 -1.9600
15823TIP3    H268961   3.993   5.965  16.327 -0.1552 -1.4606 -0.3464
15824TIP3   OH268962   4.611   2.676  16.946  0.4503  0.1343  0.4994
15824TIP3    H168963   4.575   2.593  16.917 -0.5516 -0.1422  2.3627
15824TIP3    H268964   4.576   2.741  16.885  1.0576 -0.7534 -0.8319
15825TIP3   OH268965   1.261   4.919   4.924  0.1613  0.9317  0.0625
15825TIP3    H168966   1.295   4.900   5.011 -0.2574 -0.5357 -0.0694
15825TIP3    H268967   1.170   4.945   4.939 -0.4434 -0.9673 -0.0218
15826TIP3   OH268968   1.381   1.944  15.936  0.2596 -0.4603 -0.9180
15826TIP3    H168969   1.425   1.936  15.851  2.4074 -0.9383  0.1789
15826TIP3    H268970   1.408   2.029  15.969  0.5882 -0.8773 -0.0981
15827TIP3   OH268971   4.469   3.274  12.899  0.6046 -0.1324  0.1653
15827TIP3    H168972   4.406   3.345  12.889  0.6392 -0.1746 -0.4118
15827TIP3    H268973   4.438   3.205  12.839  0.4758 -0.6738  0.8442
15828TIP3   OH268974   6.023   0.321   5.380 -0.1370  0.4985 -0.1631
15828TIP3    H168975   5.987   0.253   5.437 -1.8146  1.2553 -0.2748
15828TIP3    H268976   5.971   0.399   5.400  0.4281  1.2344 -1.4766
15829TIP3   OH268977   1.479   0.743  12.809  0.1034  0.1632 -0.0744
15829TIP3    H168978   1.456   0.783  12.893 -0.0002  0.4534 -0.2360
15829TIP3    H268979   1.500   0.818  12.753 -2.8617  0.2243 -1.2344
15830TIP3   OH268980   0.565   3.838  16.842 -0.0588 -0.2471  0.0310
15830TIP3    H168981   0.581   3.892  16.919  3.8826 -1.3389  0.1969
15830TIP3    H268982   0.580   3.896  16.768 -1.5997  0.2230  0.0425
15831TIP3   OH268983   1.507   2.394  17.185 -0.2940  0.7204  0.1159
15831TIP3    H168984   1.469   2.307  17.181 -1.4087  1.2011 -0.1892
15831TIP3    H268985   1.553   2.405  17.102 -0.1993  0.4476  0.1325
15832TIP3   OH268986   6.086   4.278   1.454 -0.3867  0.6605  0.0809
15832TIP3    H168987   6.118   4.194   1.423 -0.7470  0.9074 -1.0058
15832TIP3    H268988   6.030   4.310   1.383 -0.1456  1.8767  0.4159
15833TIP3   OH268989   6.653   4.459   4.388  0.0660  0.3101 -0.7963
15833TIP3    H168990   6.605   4.535   4.421 -0.0569  0.9620 -2.3759
15833TIP3    H268991   6.648   4.467   4.292 -1.1661 -2.4129 -1.0745
15834TIP3   OH268992   4.885   4.917   2.537 -0.5205 -0.0391  0.4341
15834TIP3    H168993   4.823   4.977   2.495 -1.9459 -0.4565  1.8425
15834TIP3    H268994   4.955   4.973   2.571  1.0323  0.2717 -2.8999
15835TIP3   OH268995   6.530   3.131   2.633 -0.6548  0.3422  0.3726
15835TIP3    H168996   6.494   3.083   2.559  0.0935  0.8156 -0.3179
15835TIP3    H268997   6.510   3.223   2.614 -1.7340  0.3504  1.4831
15836TIP3   OH268998   0.856   0.764  14.068 -0.2872 -0.1088  0.4662
15836TIP3    H168999   0.884   0.855  14.058 -1.4832  0.3597  1.1845
15836TIP3    H269000   0.777   0.757  14.016 -0.7981 -0.4320  1.2629
15837TIP3   OH269001   4.657   4.874   1.068  0.2337 -0.4618 -0.1156
15837TIP3    H169002   4.685   4.829   1.148 -1.4219 -2.6502 -0.6685
15837TIP3    H269003   4.569   4.905   1.088 -1.2572 -3.2779 -1.7954
15838TIP3   OH269004   0.650   6.645  10.504 -0.1192 -0.1043 -0.2046
15838TIP3    H169005   0.556   6.630  10.514 -0.2985  0.9600 -0.1022
15838TIP3    H269006   0.665   6.731  10.543  0.7631  0.0873 -0.9133
15839TIP3   OH269007   4.028   4.093   0.884  0.4554 -0.0126  0.1093
15839TIP3    H169008   4.013   4.168   0.942 -1.2416 -1.1650  1.2305
15839TIP3    H269009   3.945   4.084   0.836  1.4048  0.1471 -1.6506
15840TIP3   OH269010   1.895   6.015   2.347 -0.0400 -0.1355  0.1152
15840TIP3    H169011   1.889   6.109   2.368  4.3788  0.4068 -0.0856
15840TIP3    H269012   1.876   6.010   2.253  2.2689  1.1374 -0.5089
15841TIP3   OH269013   5.936   4.770   4.169  0.3307 -0.0867 -0.1189
15841TIP3    H169014   5.944   4.763   4.074 -2.1371 -0.5157 -0.3646
15841TIP3    H269015   5.860   4.717   4.191 -0.8934  2.2394  1.7396
15842TIP3   OH269016   5.040   4.336  16.494 -0.5024 -0.1164 -0.4240
15842TIP3    H169017   5.068   4.256  16.449 -0.9403  0.1038 -1.1053
15842TIP3    H269018   5.100   4.345  16.568 -0.6800 -1.2781 -0.1210
15843TIP3   OH269019   5.440   4.208   2.982 -0.5484 -0.2467  0.4618
15843TIP3    H169020   5.482   4.145   2.923 -1.1490  1.4223 -1.9151
15843TIP3    H269021   5.359   4.165   3.010 -0.2228 -1.1032  0.1244
15844TIP3   OH269022   0.846   1.453   2.817  0.3201 -0.2725 -0.0100
15844TIP3    H169023   0.770   1.471   2.873  0.6775 -0.7708  0.6567
15844TIP3    H269024   0.908   1.409   2.875  1.4189  0.7711 -0.3483
15845TIP3   OH269025   6.233   1.817   1.123 -0.2349 -0.2685 -0.0099
15845TIP3    H169026   6.255   1.910   1.113 -1.7491  0.2416  0.9078
15845TIP3    H269027   6.260   1.777   1.041  0.4645  0.9806 -0.4259
15846TIP3   OH269028   5.916   3.439  13.325 -0.0236 -0.0172  0.4842
15846TIP3    H169029   5.886   3.442  13.234  0.1865  2.2196  0.4237
15846TIP3    H269030   5.970   3.517  13.334  0.0982 -0.2918  2.4973
15847TIP3   OH269031   3.954   0.647  12.653  0.7188  0.8253 -0.4129
15847TIP3    H169032   4.017   0.632  12.582 -0.5247 -0.6982 -1.2839
15847TIP3    H269033   3.964   0.571  12.710  1.8387  2.1386  1.1938
15848TIP3   OH269034   4.437   2.262  12.085  0.2516  0.2808 -0.5280
15848TIP3    H169035   4.372   2.192  12.094  0.0726  0.4449 -0.5246
15848TIP3    H269036   4.501   2.228  12.023  0.7846 -0.3389  0.3508
15849TIP3   OH269037   6.023   4.943   6.233 -0.2383  0.4788  0.8429
15849TIP3    H169038   6.077   4.896   6.296 -1.4389 -1.2220  0.6537
15849TIP3    H269039   5.966   4.998   6.286  0.3997  0.8863  1.1169
15850TIP3   OH269040   0.646   5.243  14.718  0.3303 -0.2589 -0.1830
15850TIP3    H169041   0.641   5.252  14.623 -1.5217  0.2359 -0.0680
15850TIP3    H269042   0.728   5.287  14.742  0.2549  0.6139 -1.4410
15851TIP3   OH269043   6.728   0.498  14.395 -0.5298  0.1680  0.3321
15851TIP3    H169044   6.787   0.500  14.319 -0.5673  1.5606  0.3083
15851TIP3    H269045   6.686   0.584  14.395 -1.7065 -0.3817  1.0344
15852TIP3   OH269046   6.469   1.159   5.455 -0.6393 -0.0619  0.0824
15852TIP3    H169047   6.535   1.094   5.477 -0.0350  0.3662 -0.4309
15852TIP3    H269048   6.402   1.110   5.407 -1.0269 -0.6231  1.1598
15853TIP3   OH269049   4.022   5.933  13.688  0.0194  0.6716 -0.1210
15853TIP3    H169050   4.042   5.995  13.758  0.9965  1.5487 -1.1190
15853TIP3    H269051   4.101   5.879  13.680 -0.1349  0.4856 -0.4452
15854TIP3   OH269052   6.484   1.949  16.205  0.3138 -0.0781 -0.0049
15854TIP3    H169053   6.502   1.858  16.227  0.2266 -0.3869 -1.1179
15854TIP3    H269054   6.392   1.962  16.227  0.6056  0.0788  1.1876
15855TIP3   OH269055   3.711   5.099  15.828 -0.1858 -0.0923 -0.1600
15855TIP3    H169056   3.773   5.171  15.841 -0.1096 -0.2091  0.1247
15855TIP3    H269057   3.723   5.043  15.905  0.7592 -1.1534 -1.0404
15856TIP3   OH269058   4.796   5.405   5.996  0.0455 -0.8833 -0.0415
15856TIP3    H169059   4.878   5.436   5.957  0.1613  0.3220  1.0917
15856TIP3    H269060   4.823   5.343   6.063  0.1879  0.7005  1.4405
15857TIP3   OH269061   2.077   1.100  14.110 -0.0432 -0.5295 -0.1611
15857TIP3    H169062   2.116   1.166  14.167  0.3570  0.0129 -1.0335
15857TIP3    H269063   2.017   1.051  14.166 -1.4368  1.5067  0.2309
15858TIP3   OH269064   6.220   0.592  11.907 -0.2562  0.2059 -0.4408
15858TIP3    H169065   6.312   0.607  11.885  0.1677  0.5221  1.4251
15858TIP3    H269066   6.221   0.518  11.968 -1.1299  0.8376  0.3683
15859TIP3   OH269067   3.748   2.032  14.839 -0.3416  0.1350  0.1927
15859TIP3    H169068   3.706   2.081  14.767 -2.7782  0.1056  1.4755
15859TIP3    H269069   3.676   1.983  14.879  0.9076  0.1539  2.6538
15860TIP3   OH269070   0.222   2.030  14.617  0.0015 -0.3755 -1.0538
15860TIP3    H169071   0.139   2.049  14.660 -0.6613  2.2270 -3.1768
15860TIP3    H269072   0.199   1.974  14.543  0.3459 -0.6940 -0.9241
15861TIP3   OH269073   2.405   6.630   1.069 -0.4062  0.1747  0.5972
15861TIP3    H169074   2.436   6.539   1.064  1.3380  0.7214  0.6785
15861TIP3    H269075   2.319   6.628   1.028  0.1679 -1.2710 -0.6589
15862TIP3   OH269076   0.686   4.979   0.171 -0.2412  0.1226 -0.4114
15862TIP3    H169077   0.617   5.010   0.231 -0.4109 -1.6674  0.3805
15862TIP3    H269078   0.641   4.964   0.088 -0.5478  0.1770 -0.2575
15863TIP3   OH269079   6.667   4.133   2.393  0.5373  0.3452  0.3337
15863TIP3    H169080   6.622   4.188   2.458 -0.7442  0.7345 -0.8140
15863TIP3    H269081   6.698   4.057   2.443 -1.1408  0.2190  1.2768
15864TIP3   OH269082   6.124   3.394   2.374  0.2856  0.2005  0.3570
15864TIP3    H169083   6.151   3.318   2.426  0.6815 -0.0895 -0.2589
15864TIP3    H269084   6.204   3.425   2.332 -0.0753  0.1992 -0.3645
15865TIP3   OH269085   2.738   0.581   4.027  0.2350  0.4505 -0.1601
15865TIP3    H169086   2.683   0.503   4.016  1.1675 -0.4201  1.0718
15865TIP3    H269087   2.705   0.622   4.107 -0.9905  2.0044 -1.3966
15866TIP3   OH269088   3.702   1.923  12.239 -0.5337  0.5253 -0.2170
15866TIP3    H169089   3.716   1.902  12.331 -0.7974  0.6973 -0.1364
15866TIP3    H269090   3.607   1.917  12.227 -0.4559 -0.0356 -0.6112
15867TIP3   OH269091   1.106   3.360  16.298  0.6660  0.3702  0.6049
15867TIP3    H169092   1.128   3.324  16.383  0.0403 -0.6969  0.3335
15867TIP3    H269093   1.011   3.375  16.301  0.7152  0.7968  0.2664
15868TIP3   OH269094   3.572   6.411   2.794  0.8945  0.0906 -0.6131
15868TIP3    H169095   3.617   6.326   2.792  0.4332 -0.1516 -0.8796
15868TIP3    H269096   3.499   6.397   2.854  1.9035  0.8671  0.8664
15869TIP3   OH269097   0.244   5.374   6.044 -0.0303  0.5692  0.8326
15869TIP3    H169098   0.166   5.335   6.084 -0.0233  0.3151  0.6024
15869TIP3    H269099   0.231   5.363   5.950  1.2892 -1.4776  0.8273
15870TIP3   OH269100   2.035   2.824   2.317 -0.0506 -0.2608  0.2916
15870TIP3    H169101   2.064   2.733   2.315  0.5161 -0.2619  3.2184
15870TIP3    H269102   1.977   2.829   2.393  0.9945  2.0366  1.0522
15871TIP3   OH269103   2.444   3.280  16.084  0.3416  0.4171 -0.2797
15871TIP3    H169104   2.488   3.198  16.106 -0.2649  0.1966  0.1228
15871TIP3    H269105   2.419   3.270  15.993  0.0686  0.0632 -0.1680
15872TIP3   OH269106   3.105   1.817   3.316 -0.3960  0.0176  0.8015
15872TIP3    H169107   3.147   1.732   3.331 -0.4113  0.0611  1.0830
15872TIP3    H269108   3.028   1.796   3.263  0.3204  0.0099 -0.2772
15873TIP3   OH269109   5.321   1.083  13.272  0.2763  0.1132  0.0540
15873TIP3    H169110   5.272   1.067  13.352 -2.9370  1.8130 -1.3726
15873TIP3    H269111   5.306   1.004  13.219  0.5533 -0.0904  0.2762
15874TIP3   OH269112   4.432   0.709   1.204  0.3260 -0.5094  0.1426
15874TIP3    H169113   4.507   0.659   1.172  1.1210  0.2419  0.7809
15874TIP3    H269114   4.399   0.754   1.126  0.6567 -0.6941 -0.1058
15875TIP3   OH269115   4.879   1.607   1.461  0.3718 -0.7014 -0.2080
15875TIP3    H169116   4.811   1.673   1.447  1.7094  1.3465  2.0584
15875TIP3    H269117   4.845   1.552   1.532 -0.1276 -1.5934 -1.1123
15876TIP3   OH269118   3.112   0.953   0.679  0.1452 -0.0635 -0.0169
15876TIP3    H169119   3.109   0.857   0.673 -1.2556 -0.1011  0.7891
15876TIP3    H269120   3.029   0.977   0.720  0.2264  1.5530 -0.7146
15877TIP3   OH269121   3.514   2.463  13.225 -0.0198  0.5855 -0.6608
15877TIP3    H169122   3.546   2.526  13.161  0.3441 -0.1324 -1.2102
15877TIP3    H269123   3.551   2.379  13.196 -1.2019 -0.0273 -0.4567
15878TIP3   OH269124   1.288   4.518   5.185  0.0565  0.4144  0.2126
15878TIP3    H169125   1.223   4.469   5.237  1.1778  0.5835  1.8242
15878TIP3    H269126   1.367   4.519   5.239  1.0715  1.2060 -1.2176
15879TIP3   OH269127   1.407   2.688  13.069  0.2598  0.0495  0.3574
15879TIP3    H169128   1.494   2.700  13.107  0.8080 -1.4203 -0.3734
15879TIP3    H269129   1.388   2.595  13.080 -0.3697 -0.0466 -1.2203
15880TIP3   OH269130   3.562   5.517  14.226  0.2403  0.1636 -0.4284
15880TIP3    H169131   3.621   5.579  14.183 -0.2723  1.9989  1.3674
15880TIP3    H269132   3.475   5.554  14.214  0.0325  0.4908  1.6846
15881TIP3   OH269133   0.053   4.728  15.448 -0.0259 -0.6068 -0.2701
15881TIP3    H169134   0.069   4.646  15.494  0.3222 -0.3543  0.0600
15881TIP3    H269135  -0.032   4.757  15.480 -0.7724 -1.4957 -1.3633
15882TIP3   OH269136   0.034   1.756   3.430  0.4602  0.3535 -0.1919
15882TIP3    H169137  -0.042   1.757   3.372 -0.5800  0.5727  1.1143
15882TIP3    H269138   0.087   1.830   3.401 -0.4304  0.9385 -0.3811
15883TIP3   OH269139   3.077   0.379   3.653 -0.4224 -0.4750  0.2991
15883TIP3    H169140   3.040   0.328   3.725 -2.5511  0.7066  0.1201
15883TIP3    H269141   3.003   0.429   3.618  1.1033  1.0427 -0.9632
15884TIP3   OH269142   4.673   6.442   6.194 -0.8381  0.0797  0.3294
15884TIP3    H169143   4.653   6.504   6.265 -2.4414 -0.3059  0.2596
15884TIP3    H269144   4.664   6.356   6.235  1.5369 -0.1498  0.4652
15885TIP3   OH269145   2.204   2.895   5.444 -0.0324  0.1700 -0.0594
15885TIP3    H169146   2.273   2.908   5.509 -0.5371  1.9513  0.1845
15885TIP3    H269147   2.142   2.835   5.486 -0.1486  0.9751  0.9677
15886TIP3   OH269148   6.079   0.632   0.174 -0.2397 -0.8786  0.6493
15886TIP3    H169149   6.137   0.695   0.217 -0.8254  0.4512 -0.4238
15886TIP3    H269150   6.137   0.583   0.115 -0.1455  0.4193 -0.3917
15887TIP3   OH269151   6.078   5.172   2.493  0.1223  0.0609 -0.0427
15887TIP3    H169152   6.067   5.099   2.432 -1.1619  0.3595 -0.1842
15887TIP3    H269153   6.094   5.130   2.577  1.4428 -0.3546 -0.4630
15888TIP3   OH269154   0.548   6.530   6.766  0.1328 -0.7888 -0.5332
15888TIP3    H169155   0.494   6.574   6.832  0.4701  0.0609 -0.8042
15888TIP3    H269156   0.492   6.528   6.688  0.3258 -0.3131 -0.6858
15889TIP3   OH269157   5.527   2.896   1.654  0.1478  0.2723  0.0133
15889TIP3    H169158   5.445   2.944   1.665  0.7324  0.9706  1.7313
15889TIP3    H269159   5.539   2.849   1.736  1.2591 -0.1555 -0.3712
15890TIP3   OH269160   5.199   6.347   1.443  0.1575 -0.0858 -0.4588
15890TIP3    H169161   5.106   6.345   1.422  0.2138  1.2249 -0.9503
15890TIP3    H269162   5.202   6.373   1.535  0.0441  0.3953 -0.5882
15891TIP3   OH269163   2.169   1.122   3.672  0.1638  0.2756  0.1421
15891TIP3    H169164   2.143   1.178   3.598  0.9457 -1.4362 -1.4872
15891TIP3    H269165   2.234   1.062   3.636  0.9202 -0.3362  2.3587
15892TIP3   OH269166   3.958   0.860   4.246 -0.0228 -0.0891  0.4631
15892TIP3    H169167   3.985   0.846   4.155 -0.3681 -1.4532  0.5576
15892TIP3    H269168   3.870   0.823   4.251 -0.7600  1.6177  0.9189
15893TIP3   OH269169   0.925   0.810  11.626 -0.3568 -0.2519  0.5823
15893TIP3    H169170   0.893   0.874  11.689 -0.2342 -1.2878  1.7417
15893TIP3    H269171   1.003   0.772  11.667  0.1557 -0.4302 -0.5208
15894TIP3   OH269172   5.604   2.521   0.280 -0.5559 -0.5138  0.1615
15894TIP3    H169173   5.631   2.459   0.348 -1.0762 -0.8916  0.0261
15894TIP3    H269174   5.546   2.582   0.325 -0.0308 -0.1104  0.2984
15895TIP3   OH269175   0.031   3.357   0.923 -0.4247 -0.1228 -0.2422
15895TIP3    H169176  -0.063   3.373   0.911 -0.2364 -0.7045 -3.4652
15895TIP3    H269177   0.065   3.351   0.834  2.0138 -3.7073  0.7306
15896TIP3   OH269178   5.753   1.397   2.000  1.0545  0.3205 -0.3103
15896TIP3    H169179   5.661   1.384   1.975  0.4671 -1.1963  2.2014
15896TIP3    H269180   5.775   1.485   1.969 -0.9783  0.4022 -1.6928
15897TIP3   OH269181   0.069   0.207  17.483  0.1016  0.4199  0.0602
15897TIP3    H169182   0.108   0.142  17.425  2.4165 -0.0751  2.0489
15897TIP3    H269183  -0.000   0.160  17.529 -0.2826  0.2381 -0.6821
15898TIP3   OH269184   5.790   0.947  15.314  0.3592  0.0367 -0.1643
15898TIP3    H169185   5.811   0.907  15.229 -0.5508  0.4602 -0.5992
15898TIP3    H269186   5.875   0.959  15.356  0.6996 -2.0531 -0.1493
15899TIP3   OH269187   2.277   4.954   2.197  0.6845  0.7006  0.1606
15899TIP3    H169188   2.349   4.927   2.254 -0.2189  1.3534  1.6767
15899TIP3    H269189   2.207   4.892   2.215 -0.4374  2.2951  1.6135
15900TIP3   OH269190   5.814   4.571   2.758 -0.3863 -0.2926  0.7693
15900TIP3    H169191   5.755   4.526   2.818 -1.2560 -0.9218 -0.5077
15900TIP3    H269192   5.874   4.619   2.815 -0.2385 -2.0232  2.1737
15901TIP3   OH269193   4.433   0.339  15.162  0.0764  0.2551  0.1672
15901TIP3    H169194   4.514   0.391  15.168  0.1288  0.2815 -0.6921
15901TIP3    H269195   4.401   0.336  15.252  1.2792 -0.1504  0.6028
15902TIP3   OH269196   3.882   2.809   1.766  0.4193  0.2041  0.2271
15902TIP3    H169197   3.941   2.758   1.822  0.2641  1.4397  1.5739
15902TIP3    H269198   3.852   2.746   1.700  0.7409 -1.2749  1.4290
15903TIP3   OH269199   1.858   5.345   4.906  0.0726  0.4290  0.0857
15903TIP3    H169200   1.927   5.317   4.846  1.2036  0.4175  1.3442
15903TIP3    H269201   1.802   5.268   4.916 -0.1108  0.4164 -0.8923
15904TIP3   OH269202   3.823   1.650  11.273 -0.3901  0.3022 -0.1804
15904TIP3    H169203   3.770   1.663  11.351 -1.7986 -1.2700 -0.8014
15904TIP3    H269204   3.847   1.557  11.276  0.9201  0.6002 -0.7969
15905TIP3   OH269205   4.223   4.747  16.323  0.1178 -0.0105 -0.1356
15905TIP3    H169206   4.194   4.756  16.414 -0.1429  1.4644 -0.3433
15905TIP3    H269207   4.170   4.675  16.288 -2.3535  1.6750 -0.1065
15906TIP3   OH269208   5.485   4.179  15.443  0.0777  0.0529 -0.1742
15906TIP3    H169209   5.515   4.244  15.507 -2.0865 -0.4919  1.5192
15906TIP3    H269210   5.529   4.204  15.362  1.6339  1.8136  1.1046
15907TIP3   OH269211   1.836   2.418   2.939  0.0095  0.3042 -0.2347
15907TIP3    H169212   1.905   2.432   3.004 -0.5988  0.9155  0.2889
15907TIP3    H269213   1.813   2.325   2.947 -0.9116  0.6336  1.2925
15908TIP3   OH269214   2.001   4.860   0.491 -0.2866  0.0025 -0.3773
15908TIP3    H169215   2.089   4.890   0.514 -0.0578 -0.7634 -0.2572
15908TIP3    H269216   1.943   4.918   0.540  0.1666 -1.9894  2.7930
15909TIP3   OH269217   3.099   3.311  16.300  0.1797  0.0681  0.1730
15909TIP3    H169218   3.025   3.310  16.239  0.0688  0.6039  0.2959
15909TIP3    H269219   3.060   3.291  16.385  0.4868 -1.7802 -0.0733
15910TIP3   OH269220   6.168   3.554   5.639  0.3162 -0.2738 -0.0359
15910TIP3    H169221   6.254   3.592   5.624  0.8246 -0.8359  1.2967
15910TIP3    H269222   6.157   3.557   5.734 -1.4990  0.5507 -0.2236
15911TIP3   OH269223   5.182   3.125  16.373  0.9711  0.1637 -0.2673
15911TIP3    H169224   5.218   3.046  16.415  0.0772 -0.0949  0.0323
15911TIP3    H269225   5.102   3.143  16.421  0.9780  1.0566 -0.5744
15912TIP3   OH269226   5.054   1.748   1.613  0.0052  0.5534 -0.3499
15912TIP3    H169227   5.000   1.707   1.545  0.1241  0.3958 -0.3511
15912TIP3    H269228   5.076   1.676   1.672 -0.4763  0.7770  0.1111
15913TIP3   OH269229   3.993   2.125  12.464  0.3783  0.5855  0.4424
15913TIP3    H169230   3.962   2.177  12.390 -0.3268 -0.8770 -0.3355
15913TIP3    H269231   3.915   2.114  12.519  0.3040 -0.3324  0.1673
15914TIP3   OH269232   1.643   3.751   5.807 -0.0670  0.1095 -0.6255
15914TIP3    H169233   1.634   3.655   5.805  0.5971  0.0541 -1.3319
15914TIP3    H269234   1.661   3.771   5.899  1.2624 -0.5917 -0.7134
15915TIP3   OH269235   3.460   6.064  14.411 -0.5194  0.0894  0.0970
15915TIP3    H169236   3.487   5.973  14.404 -1.2383 -0.1240 -0.0225
15915TIP3    H269237   3.397   6.076  14.339  1.0921  1.2500 -1.1926
15916TIP3   OH269238   0.287   1.917  12.697 -0.5699 -0.3658 -0.0766
15916TIP3    H169239   0.245   1.988  12.649 -1.3814 -0.1491  0.9279
15916TIP3    H269240   0.220   1.885  12.757  0.9929  0.8074  2.4551
15917TIP3   OH269241   3.007   5.141   2.594 -0.1554  0.3130  0.0177
15917TIP3    H169242   3.027   5.057   2.552 -0.4916  0.1039  0.2720
15917TIP3    H269243   3.083   5.159   2.649 -0.1250  0.1287  0.0370
15918TIP3   OH269244   3.056   1.571   0.933 -0.3391 -0.3184 -0.1090
15918TIP3    H169245   3.132   1.619   0.966  0.8276 -2.4286  0.3944
15918TIP3    H269246   2.982   1.631   0.949  1.1540  1.7387 -0.5279
15919TIP3   OH269247   3.916   3.108   4.970 -0.6833 -0.2689  0.0422
15919TIP3    H169248   3.995   3.054   4.967 -1.1555 -0.9719  0.0267
15919TIP3    H269249   3.906   3.141   4.880  0.7607  1.5874  0.4844
15920TIP3   OH269250   1.425   6.308   3.983 -0.0764 -0.0099  0.1190
15920TIP3    H169251   1.358   6.352   4.035  0.1435  0.1945  0.2311
15920TIP3    H269252   1.376   6.255   3.920 -0.4205 -2.5441  2.3503
15921TIP3   OH269253   0.902   6.363  13.328 -0.4274  0.2011  0.2346
15921TIP3    H169254   0.828   6.350  13.387  1.0596 -1.6778  1.8194
15921TIP3    H269255   0.942   6.445  13.357 -0.4145 -0.0892  1.0555
15922TIP3   OH269256   2.799   5.775   5.591  0.5637 -0.4512 -0.8275
15922TIP3    H169257   2.882   5.822   5.579  1.0252 -0.6987  1.0981
15922TIP3    H269258   2.817   5.713   5.661 -1.1439 -0.8117 -0.6736
15923TIP3   OH269259   1.388   4.413   4.204 -0.6365  0.0750 -0.2448
15923TIP3    H169260   1.301   4.394   4.170 -0.0498 -0.1535 -1.7035
15923TIP3    H269261   1.416   4.331   4.245 -0.6086 -0.2527 -0.9104
15924TIP3   OH269262   2.677   2.405   0.462  0.1433 -0.4408 -0.3458
15924TIP3    H169263   2.673   2.312   0.439 -1.4596 -1.1026  2.1457
15924TIP3    H269264   2.591   2.439   0.437  0.4437  0.1934 -0.5316
15925TIP3   OH269265   0.302   3.210   0.030 -0.1162 -1.0747  0.1870
15925TIP3    H169266   0.393   3.231   0.052 -0.9951  0.9399  2.1905
15925TIP3    H269267   0.265   3.293  -0.000 -1.6487 -1.5370  0.7300
15926TIP3   OH269268   6.217   2.229   3.976 -0.0276 -0.7584 -0.6902
15926TIP3    H169269   6.191   2.316   4.006 -0.9632 -1.5182  0.8375
15926TIP3    H269270   6.141   2.197   3.928 -0.7275 -1.6948  0.9568
15927TIP3   OH269271   6.699   1.412   3.286 -0.4946 -0.0829 -0.0159
15927TIP3    H169272   6.612   1.412   3.244 -0.4316 -0.1100 -0.1462
15927TIP3    H269273   6.743   1.336   3.248 -0.3965 -0.0417  0.0177
15928TIP3   OH269274   5.757   3.971  14.925 -0.6263  0.0742  0.1211
15928TIP3    H169275   5.792   4.034  14.861  0.0706 -0.6087 -0.1774
15928TIP3    H269276   5.722   3.900  14.872 -0.4397 -0.2947  0.4893
15929TIP3   OH269277   5.735   5.717   2.900 -0.5873  0.8635 -0.6979
15929TIP3    H169278   5.795   5.788   2.924  0.2143 -0.3427  1.1137
15929TIP3    H269279   5.648   5.756   2.908 -0.1368  1.8850 -0.5972
15930TIP3   OH269280   3.938   6.615  13.068  0.9045 -0.7331  0.3306
15930TIP3    H169281   4.021   6.647  13.034 -0.2160  0.4751 -1.3971
15930TIP3    H269282   3.924   6.531  13.023  0.6055 -0.3252 -0.3522
15931TIP3   OH269283   0.828   4.470   2.230 -0.0293  0.2447  0.0191
15931TIP3    H169284   0.857   4.440   2.317 -1.3726 -1.1615  0.0283
15931TIP3    H269285   0.812   4.563   2.241  1.6210  0.4609  0.7715
15932TIP3   OH269286   5.395   5.218  11.508 -0.0228 -0.4033  0.3097
15932TIP3    H169287   5.379   5.310  11.527  1.8513 -0.1396  0.7097
15932TIP3    H269288   5.415   5.178  11.592  0.5604 -0.8725 -0.0393
15933TIP3   OH269289   1.425   1.338  17.118  0.3333  0.6171 -0.2046
15933TIP3    H169290   1.385   1.252  17.130  0.7352  0.3744 -0.5730
15933TIP3    H269291   1.365   1.399  17.161 -0.2674  0.2252 -0.4880
15934TIP3   OH269292   2.015   3.853   1.054 -0.0684  0.1174 -0.0637
15934TIP3    H169293   1.992   3.865   1.146  0.0287 -0.6930  0.0752
15934TIP3    H269294   1.941   3.807   1.016 -0.1473  0.5293 -0.4183
15935TIP3   OH269295   0.843   0.824   5.207  0.5221  0.1456  0.1730
15935TIP3    H169296   0.749   0.817   5.226  0.2279  0.7559 -0.9566
15935TIP3    H269297   0.847   0.877   5.128  1.9260  2.2178  1.5219
15936TIP3   OH269298   3.769   2.575   1.616  0.1269 -0.4329 -0.0080
15936TIP3    H169299   3.839   2.519   1.650  1.1258  1.9221  2.2238
15936TIP3    H269300   3.697   2.564   1.679 -1.5293 -2.5488 -2.0794
15937TIP3   OH269301   4.729   5.980   1.416  0.4231 -0.0232 -0.3900
15937TIP3    H169302   4.648   5.953   1.460 -0.6242 -0.4354 -2.4609
15937TIP3    H269303   4.717   6.074   1.401 -0.3414 -0.3427 -1.9466
15938TIP3   OH269304   6.125   5.518   1.058  0.0657  0.1242  0.3969
15938TIP3    H169305   6.208   5.508   1.106 -0.3321 -0.7288  0.9320
15938TIP3    H269306   6.146   5.578   0.987  0.8405  0.9063  1.2576
15939TIP3   OH269307   5.520   2.981   1.036  0.1652  0.1160  0.1056
15939TIP3    H169308   5.429   3.010   1.037 -0.4907 -1.8533  0.8751
15939TIP3    H269309   5.564   3.040   1.098 -1.1389 -0.5449  1.7216
15940TIP3   OH269310   5.238   1.591  14.735 -0.1388  0.0848 -0.5670
15940TIP3    H169311   5.287   1.539  14.671  0.7814 -0.0749  0.2468
15940TIP3    H269312   5.255   1.548  14.819  2.1729  2.7020  0.4235
15941TIP3   OH269313   1.717   2.844   1.580  0.4546 -0.1053  0.1438
15941TIP3    H169314   1.627   2.822   1.556  0.4751 -1.2200  0.9844
15941TIP3    H269315   1.771   2.804   1.513  0.3672 -0.4004  0.2474
15942TIP3   OH269316   3.658   4.648   2.713 -0.3166 -0.1346  0.3416
15942TIP3    H169317   3.730   4.664   2.651  1.1386  1.3118  2.2537
15942TIP3    H269318   3.592   4.714   2.690 -0.7057 -0.9126 -0.8824
15943TIP3   OH269319   6.133   1.051  14.307 -0.5152  0.2682  0.1422
15943TIP3    H169320   6.074   1.015  14.241 -1.2921  2.0555 -0.2071
15943TIP3    H269321   6.079   1.062  14.385 -0.6040  1.6195 -0.0828
15944TIP3   OH269322   5.132   0.287   2.223 -0.0035 -0.1406 -0.0731
15944TIP3    H169323   5.081   0.231   2.282 -1.0273  1.4013  0.5486
15944TIP3    H269324   5.103   0.376   2.243 -0.2222  0.4705 -2.7129
15945TIP3   OH269325   4.596   1.910  10.761  0.3523 -0.4587  0.4794
15945TIP3    H169326   4.529   1.945  10.820 -0.6420  0.4150 -1.0923
15945TIP3    H269327   4.546   1.869  10.690  1.4291  0.7830 -1.0695
15946TIP3   OH269328   1.804   5.716  16.780 -0.0928  0.0499 -0.1074
15946TIP3    H169329   1.848   5.796  16.809 -0.0092 -0.3245  0.8634
15946TIP3    H269330   1.874   5.657  16.756 -0.0955 -0.1513  0.3588
15947TIP3   OH269331   4.698   6.184  13.296 -0.0855  0.2258 -0.3401
15947TIP3    H169332   4.613   6.153  13.265 -0.4435 -0.0372  0.8330
15947TIP3    H269333   4.680   6.219  13.383  0.7863  1.3860 -0.5981
15948TIP3   OH269334   4.347   1.354   1.656  0.5211  0.3006  0.0928
15948TIP3    H169335   4.318   1.289   1.721  1.1661 -1.5804 -1.3925
15948TIP3    H269336   4.426   1.392   1.695  1.2686 -1.2567  0.1902
15949TIP3   OH269337   0.955   5.929   2.308  0.0139  0.1400  0.0261
15949TIP3    H169338   0.919   6.006   2.351 -1.8807 -1.2107  0.9943
15949TIP3    H269339   0.962   5.863   2.377  1.0403 -0.7499 -0.8782
15950TIP3   OH269340   6.212   1.263   1.245 -0.4647  0.1857 -0.3931
15950TIP3    H169341   6.165   1.203   1.188  0.8474 -0.8183 -0.4754
15950TIP3    H269342   6.287   1.212   1.277 -0.1977  1.2790  0.8194
15951TIP3   OH269343   2.076   4.407   4.238 -0.5861  0.2933 -0.3023
15951TIP3    H169344   2.006   4.383   4.298 -0.8312 -0.3386 -0.8302
15951TIP3    H269345   2.151   4.354   4.266 -0.9365 -0.6310 -1.0501
15952TIP3   OH269346   1.471   3.634  12.080  0.0875 -0.0432 -0.5722
15952TIP3    H169347   1.388   3.590  12.062 -1.6520  3.2458 -1.2278
15952TIP3    H269348   1.469   3.653  12.174 -0.8532  1.6602 -0.8954
15953TIP3   OH269349   4.480   5.755  16.216  0.0035  0.2872 -0.4960
15953TIP3    H169350   4.466   5.824  16.281  0.1748  0.9094 -1.1121
15953TIP3    H269351   4.393   5.717  16.202 -0.0497  0.2052  0.0239
15954TIP3   OH269352   0.500   3.011   1.786  0.0522 -0.4050  0.1779
15954TIP3    H169353   0.586   3.050   1.771 -0.0112  1.3354  3.5110
15954TIP3    H269354   0.518   2.930   1.834 -0.1667 -0.9428 -0.6096
15955TIP3   OH269355   0.351   0.337  11.019  0.8619  0.2152  0.3511
15955TIP3    H169356   0.348   0.425  10.983  0.5150  0.1406  0.1941
15955TIP3    H269357   0.269   0.296  10.990  0.0288  0.5037  2.1336
15956TIP3   OH269358   0.011   4.227   4.523 -0.3613 -0.2705 -0.0908
15956TIP3    H169359  -0.045   4.152   4.504  1.1347 -1.1146 -1.5142
15956TIP3    H269360  -0.047   4.303   4.519 -1.4454 -1.1283 -1.2826
15957TIP3   OH269361   3.564   0.904   5.639  0.0082  0.4169  0.3980
15957TIP3    H169362   3.590   0.829   5.585  1.3481  1.0760  0.0883
15957TIP3    H269363   3.574   0.873   5.729  2.0317  0.6415  0.3031
15958TIP3   OH269364   1.563   1.178  12.415  0.6244 -0.6773 -0.5592
15958TIP3    H169365   1.488   1.124  12.394  1.5023 -1.7716 -0.9671
15958TIP3    H269366   1.616   1.125  12.475  0.7943  0.3035  0.1955
15959TIP3   OH269367   1.867   5.243  13.806 -0.3735 -0.3784 -0.3000
15959TIP3    H169368   1.858   5.194  13.888  0.8917 -1.1494 -0.6064
15959TIP3    H269369   1.876   5.176  13.738 -1.8432  0.2366 -1.1548
15960TIP3   OH269370   1.162   1.764   2.313  0.5496  0.2026  0.6155
15960TIP3    H169371   1.166   1.855   2.283  1.0279  0.4229  1.3254
15960TIP3    H269372   1.241   1.723   2.278 -0.6789 -0.5304 -1.4960
15961TIP3   OH269373   1.493   5.989   0.495 -0.0636 -0.8429 -0.0466
15961TIP3    H169374   1.472   6.008   0.586  1.2797 -1.5041  0.4266
15961TIP3    H269375   1.489   6.074   0.451  2.2745  0.0392  1.2661
15962TIP3   OH269376   6.050   1.807   4.691  0.5523 -0.1436 -0.0730
15962TIP3    H169377   6.002   1.789   4.610  1.6071 -1.9475 -0.3647
15962TIP3    H269378   5.996   1.768   4.760  0.0665  0.6425 -0.0047
15963TIP3   OH269379   5.711   1.809  12.280 -0.3322 -0.1987 -0.4475
15963TIP3    H169380   5.776   1.830  12.348  0.1313 -2.4475 -0.1318
15963TIP3    H269381   5.628   1.803  12.328 -0.1241 -1.0720 -0.1812
15964TIP3   OH269382   3.081   0.600   1.048 -0.6765  0.4808  0.0715
15964TIP3    H169383   3.050   0.525   0.997 -0.4219 -0.0170  0.6415
15964TIP3    H269384   3.013   0.667   1.034 -1.9571 -0.5320  1.1558
15965TIP3   OH269385   6.051   2.117   2.672  0.2574 -0.1331  0.6874
15965TIP3    H169386   5.968   2.077   2.701 -0.0224  0.4014  0.6481
15965TIP3    H269387   6.111   2.043   2.661 -0.5438 -0.6431 -0.3933
15966TIP3   OH269388   2.011   6.618  14.032 -0.1250 -0.2045  0.0581
15966TIP3    H169389   1.955   6.596  13.958 -0.2036  1.1364 -0.2921
15966TIP3    H269390   1.997   6.711  14.047  0.1376 -0.3732  1.5607
15967TIP3   OH269391   4.083   4.568  13.013  0.1554 -0.2958 -0.2924
15967TIP3    H169392   4.109   4.547  12.923 -1.8678  1.5839 -1.4202
15967TIP3    H269393   3.992   4.538  13.018  0.2745 -0.4562  1.2018
15968TIP3   OH269394   4.209   1.006  12.924  0.1576  1.0181 -0.2507
15968TIP3    H169395   4.276   0.949  12.886  0.1249  0.8920 -0.1202
15968TIP3    H269396   4.233   1.012  13.016 -0.8844 -0.2881  0.1399
15969TIP3   OH269397   4.959   1.443   3.622  0.2511  0.6381  0.1904
15969TIP3    H169398   4.869   1.415   3.606  0.0500 -0.2653  2.5591
15969TIP3    H269399   4.955   1.539   3.617 -0.7987  0.6076  0.1172
15970TIP3   OH269400   1.866   4.485   5.627 -0.3842  0.3593  0.3815
15970TIP3    H169401   1.862   4.396   5.662  0.2694 -0.0388 -0.5285
15970TIP3    H269402   1.781   4.499   5.587 -0.0696 -0.3124 -0.5411
15971TIP3   OH269403   1.326   4.556  17.015  0.7014  0.0680  0.1022
15971TIP3    H169404   1.322   4.465  17.045  1.9003 -0.2383 -0.5879
15971TIP3    H269405   1.408   4.561  16.965  0.3110  1.3517 -0.4503
15972TIP3   OH269406   0.898   0.334   5.095  0.1665 -0.1705  0.1879
15972TIP3    H169407   0.831   0.274   5.127 -0.1397  0.5476  0.9580
15972TIP3    H269408   0.971   0.278   5.070 -0.5863 -0.9410 -0.3298
15973TIP3   OH269409   4.478   6.441  14.485 -0.4830 -0.6013 -0.2745
15973TIP3    H169410   4.521   6.361  14.455 -0.8295 -1.8646  2.2715
15973TIP3    H269411   4.549   6.500  14.507  0.0735 -2.0454  2.2852
15974TIP3   OH269412   1.084   3.601  11.707  0.0254 -0.1740  0.1122
15974TIP3    H169413   1.116   3.681  11.665 -1.2719 -0.5051 -1.6091
15974TIP3    H269414   0.997   3.624  11.739 -0.5579 -0.9712 -0.8142
15975TIP3   OH269415   4.743   1.157   3.410 -0.6238  0.0220 -0.4768
15975TIP3    H169416   4.660   1.160   3.362 -1.1306 -0.5535  0.3285
15975TIP3    H269417   4.810   1.168   3.344 -1.3578  0.8872 -1.1072
15976TIP3   OH269418   1.614   2.680   0.107 -0.4276 -0.0639 -0.4760
15976TIP3    H169419   1.685   2.728   0.064  0.2886  1.0732  1.7955
15976TIP3    H269420   1.653   2.595   0.129 -0.9474 -0.8350 -2.4063
15977TIP3   OH269421   3.143   0.250  16.769 -0.4413 -0.1688  0.7399
15977TIP3    H169422   3.189   0.235  16.687  1.4078  1.3991  1.4258
15977TIP3    H269423   3.078   0.179  16.774  1.5431 -2.1746 -0.5102
15978TIP3   OH269424   2.845   1.418   0.798 -0.0927 -0.4928  0.1584
15978TIP3    H169425   2.820   1.421   0.705 -1.2389 -0.7530  0.4482
15978TIP3    H269426   2.940   1.431   0.797  0.1457 -1.9489 -1.1680
15979TIP3   OH269427   0.345   0.334  13.005 -0.6936 -0.0391 -0.1194
15979TIP3    H169428   0.339   0.241  12.983  0.1446 -0.0629 -0.2881
15979TIP3    H269429   0.439   0.354  12.999 -0.9653  1.0673 -1.1457
15980TIP3   OH269430   2.473   1.706   2.644  0.2043  0.3513  0.4134
15980TIP3    H169431   2.558   1.668   2.664 -0.0014 -0.5077 -0.3060
15980TIP3    H269432   2.477   1.794   2.682  2.3164  1.2678 -1.6205
15981TIP3   OH269433   6.229   1.104   1.889  0.4702  0.6875 -0.1588
15981TIP3    H169434   6.257   1.132   1.977  0.4551 -1.1740  0.4687
15981TIP3    H269435   6.156   1.162   1.868 -0.3484  0.3516  1.6036
15982TIP3   OH269436   3.484   5.365  17.391 -0.2615 -0.2811  0.3970
15982TIP3    H169437   3.542   5.408  17.454  0.6955 -0.4998 -0.3055
15982TIP3    H269438   3.444   5.438  17.343 -0.5945 -0.1267  0.9058
15983TIP3   OH269439   0.723   3.469  16.452  0.4821 -0.1339  0.2107
15983TIP3    H169440   0.760   3.387  16.483  0.2462 -0.7415 -1.0565
15983TIP3    H269441   0.799   3.527  16.441  0.6851 -0.2919  0.7421
15984TIP3   OH269442   5.241   5.316  15.591 -0.4649 -0.2738  0.1589
15984TIP3    H169443   5.267   5.405  15.567 -0.2280 -0.7192 -1.3882
15984TIP3    H269444   5.203   5.280  15.510 -2.4122 -0.9292  1.3030
15985TIP3   OH269445   1.857   2.884  13.617 -0.0379  0.2464  0.2789
15985TIP3    H169446   1.808   2.962  13.641  1.5980  1.2177  0.5716
15985TIP3    H269447   1.813   2.852  13.538 -1.1207  1.0766  0.5187
15986TIP3   OH269448   0.471   6.305  13.912 -0.2265 -0.1614  0.0333
15986TIP3    H169449   0.440   6.300  13.822 -0.4520 -0.4506  0.1223
15986TIP3    H269450   0.409   6.365  13.955  0.1444  0.3265 -0.1069
15987TIP3   OH269451   0.582   5.495   0.022  0.2181  0.2268 -0.0058
15987TIP3    H169452   0.508   5.555   0.013  0.5787  0.9213  1.3162
15987TIP3    H269453   0.657   5.552   0.037  0.7600 -0.5214  0.1758
15988TIP3   OH269454   1.108   1.289  16.907 -0.0144  0.6560 -0.0664
15988TIP3    H169455   1.175   1.222  16.923 -0.4027  0.9157  3.4105
15988TIP3    H269456   1.124   1.318  16.818  3.4939 -0.3996  0.0839
15989TIP3   OH269457   2.358   0.224   3.209 -0.4568 -0.2041  0.6761
15989TIP3    H169458   2.298   0.154   3.236  0.7490 -1.5734 -0.0376
15989TIP3    H269459   2.401   0.252   3.290  1.3113 -2.5266  0.6535
15990TIP3   OH269460   1.985   5.493   3.458 -0.3948 -0.3871  0.2808
15990TIP3    H169461   1.977   5.587   3.439  0.8386 -0.6327 -1.8064
15990TIP3    H269462   1.999   5.453   3.372  0.7599 -2.2926  1.2920
15991TIP3   OH269463   6.670   3.259   6.089  0.3161  0.2389 -0.0608
15991TIP3    H169464   6.676   3.183   6.031  1.3921  0.9634 -0.9479
15991TIP3    H269465   6.688   3.334   6.033 -0.1135  1.1086  0.9202
15992TIP3   OH269466   3.348   0.946  12.319 -0.4258 -0.5017  0.0315
15992TIP3    H169467   3.408   0.914  12.252  1.3554 -0.9289  1.7248
15992TIP3    H269468   3.400   0.947  12.399 -1.4123  3.2213  0.8177
15993TIP3   OH269469   0.258   3.604   2.334  0.4126  0.6308 -0.0553
15993TIP3    H169470   0.306   3.630   2.413 -0.5075 -1.4481  1.2730
15993TIP3    H269471   0.324   3.603   2.265  1.5458  1.1349  0.9820
15994TIP3   OH269472   0.760   1.812   3.407 -0.1384  0.2069 -1.0101
15994TIP3    H169473   0.825   1.743   3.400  0.7522  1.0762 -1.4839
15994TIP3    H269474   0.777   1.853   3.491 -0.0150  0.4874 -1.1705
15995TIP3   OH269475   2.943   2.651  17.254  0.6426 -0.3834  0.7888
15995TIP3    H169476   3.005   2.619  17.188  1.0895  2.3555 -0.2569
15995TIP3    H269477   2.862   2.665  17.205  0.4344 -0.0473  1.2272
15996TIP3   OH269478   3.282   0.699  14.389  0.2471  0.0519 -0.2076
15996TIP3    H169479   3.313   0.789  14.398 -1.9195  0.8028  0.3107
15996TIP3    H269480   3.318   0.653  14.465  2.7435 -0.0206 -1.3277
15997TIP3   OH269481   0.726   1.228  11.066 -0.0850 -0.0758  1.2250
15997TIP3    H169482   0.766   1.234  11.153  0.0242  1.6226  1.0945
15997TIP3    H269483   0.632   1.228  11.083 -0.1841  3.3784  1.3103
15998TIP3   OH269484   0.966   0.179  13.374 -0.7225 -0.1557 -0.3935
15998TIP3    H169485   0.886   0.227  13.350 -0.7068 -0.6902 -1.5721
15998TIP3    H269486   0.944   0.087  13.359 -0.3332 -0.4330  0.6325
15999TIP3   OH269487   0.067   4.162   3.426 -0.1960  0.1667 -0.1586
15999TIP3    H169488   0.088   4.154   3.519 -0.1940 -0.0030 -0.1747
15999TIP3    H269489   0.151   4.167   3.382 -0.1899  1.1830 -0.0702
16000TIP3   OH269490   0.833   2.426  17.005  0.5810  0.3490 -0.3468
16000TIP3    H169491   0.803   2.392  17.090  2.1905  0.6631  0.3963
16000TIP3    H269492   0.913   2.474  17.026 -0.5134  2.9318 -1.6536
16001TIP3   OH269493   4.824   2.492   4.614  0.3106 -0.0926  0.2066
16001TIP3    H169494   4.763   2.420   4.595  0.3965 -0.3427  0.8674
16001TIP3    H269495   4.910   2.455   4.598  0.3097  0.2022 -0.5316
16002TIP3   OH269496   0.808   2.519  11.624  0.0661 -0.4972 -0.7321
16002TIP3    H169497   0.895   2.479  11.622 -0.4842 -1.9767  1.2033
16002TIP3    H269498   0.824   2.613  11.630  1.5604 -0.7825  0.1393
16003TIP3   OH269499   4.229   2.058   2.680 -0.0048  0.1490  0.3678
16003TIP3    H169500   4.295   2.120   2.647 -0.0694 -0.6172 -1.2870
16003TIP3    H269501   4.146   2.103   2.666  0.0755  0.6626  1.4358
16004TIP3   OH269502   5.240   0.815   5.464 -0.1315  0.2075 -0.5710
16004TIP3    H169503   5.159   0.811   5.414 -0.4390 -0.4262 -0.0342
16004TIP3    H269504   5.277   0.726   5.457  0.6402  0.5494 -1.0121
16005TIP3   OH269505   2.347   3.714  15.598  0.1846  0.2372  0.2756
16005TIP3    H169506   2.355   3.715  15.503  0.2910  1.2517  0.2836
16005TIP3    H269507   2.434   3.735  15.630  0.3161 -0.7823  0.6266
16006TIP3   OH269508   2.816   5.222  14.006 -0.0713 -0.2873  0.4743
16006TIP3    H169509   2.774   5.137  14.001 -0.1354 -0.2671  0.6969
16006TIP3    H269510   2.842   5.241  13.915 -1.5589  0.2091  0.1355
16007TIP3   OH269511   3.751   6.477  14.213  0.0053 -0.3616 -0.5296
16007TIP3    H169512   3.766   6.390  14.248 -0.8879  0.2654  1.5955
16007TIP3    H269513   3.723   6.529  14.288  1.9034  2.1575 -1.4032
16008TIP3   OH269514   3.287   0.269   3.520  0.2333 -0.7352  0.6358
16008TIP3    H169515   3.211   0.292   3.574  0.4892 -0.8051  1.0362
16008TIP3    H269516   3.251   0.252   3.433 -0.1589 -0.3952  0.7284
16009TIP3   OH269517   1.869   0.743   5.852  0.0749 -0.0663  0.2122
16009TIP3    H169518   1.960   0.711   5.852  0.7558  1.7323  1.1823
16009TIP3    H269519   1.839   0.727   5.941 -0.3538 -0.0691  0.0671
16010TIP3   OH269520   5.292   6.075   2.787 -0.5226 -0.8480  1.0422
16010TIP3    H169521   5.313   6.143   2.852 -0.6539  0.3615 -0.1386
16010TIP3    H269522   5.196   6.071   2.787 -0.5867  0.1211  0.0064
16011TIP3   OH269523   0.166   4.835  16.075 -0.4498 -0.1246  0.0166
16011TIP3    H169524   0.168   4.816  15.981 -1.6198 -1.4609  0.2218
16011TIP3    H269525   0.147   4.928  16.080  0.5978  0.1712 -1.0612
16012TIP3   OH269526   4.794   5.157  16.962  0.0516  0.2003 -0.6644
16012TIP3    H169527   4.888   5.138  16.957 -0.0007 -0.3251  0.1379
16012TIP3    H269528   4.772   5.145  17.054 -0.8352  0.1826 -0.8673
16013TIP3   OH269529   0.007   2.991  12.258  0.1524 -0.0527 -0.6575
16013TIP3    H169530  -0.070   2.942  12.229 -0.0809 -0.6071  0.7913
16013TIP3    H269531  -0.015   3.082  12.240 -0.6464 -0.2468 -0.7168
16014TIP3   OH269532   2.455   6.514   0.205  0.5305 -0.1110 -0.0799
16014TIP3    H169533   2.422   6.582   0.264  0.2335 -1.7670  1.7978
16014TIP3    H269534   2.551   6.520   0.213  0.5192  0.3355 -0.2463
16015TIP3   OH269535   3.656   3.328   0.381  0.5058  0.5206  0.4618
16015TIP3    H169536   3.698   3.380   0.313  0.0219  0.4107  0.0787
16015TIP3    H269537   3.720   3.328   0.453  0.6516  1.3579  0.3429
16016TIP3   OH269538   2.283   5.001  13.693 -0.3036  0.2057  0.2577
16016TIP3    H169539   2.302   4.907  13.700  0.6751  0.2570 -1.3357
16016TIP3    H269540   2.362   5.039  13.656 -0.4150  1.8098  1.5353
16017TIP3   OH269541   3.128   3.794  12.411 -0.2173  1.0906  0.0971
16017TIP3    H169542   3.173   3.861  12.461 -0.1529  1.9539 -1.0895
16017TIP3    H269543   3.041   3.789  12.451  0.2984  0.7229  1.2113
16018TIP3   OH269544   1.985   6.399  17.294 -0.3349  0.2538 -0.2759
16018TIP3    H169545   1.992   6.323  17.236 -0.8745 -1.4425  1.7435
16018TIP3    H269546   2.060   6.454  17.271  1.9037 -2.3875  0.1676
16019TIP3   OH269547   4.728   3.085  16.391  0.4206 -0.3564  0.1399
16019TIP3    H169548   4.643   3.128  16.390 -0.6612 -2.3621  1.2266
16019TIP3    H269549   4.736   3.044  16.305  0.1789 -0.3753  0.1271
16020TIP3   OH269550   3.702   2.212  13.437  0.0947  0.8462 -0.7506
16020TIP3    H169551   3.718   2.118  13.434 -1.1003  0.6501 -1.6916
16020TIP3    H269552   3.626   2.225  13.381 -0.1431  2.2966 -0.1332
16021TIP3   OH269553   1.213   1.854  12.382 -0.0905  0.4758  0.3461
16021TIP3    H169554   1.186   1.831  12.293  0.2046 -1.1115  0.6241
16021TIP3    H269555   1.131   1.866  12.430 -0.3465  4.2929 -0.7295
16022TIP3   OH269556   3.692   2.798  14.437  1.0494 -0.4409 -0.2425
16022TIP3    H169557   3.769   2.820  14.490  1.2422 -0.3711 -0.5497
16022TIP3    H269558   3.656   2.883  14.411  0.0109 -0.4317  1.1139
16023TIP3   OH269559   4.562   6.615  11.692  0.0855  0.5751 -0.0532
16023TIP3    H169560   4.568   6.595  11.786 -0.8394  1.4022  0.1966
16023TIP3    H269561   4.628   6.682  11.678  0.9756 -0.3070 -0.2379
16024TIP3   OH269562   6.587   6.454  15.951 -0.1353  0.4824 -0.4484
16024TIP3    H169563   6.541   6.531  15.916 -0.2366 -0.5047 -2.6838
16024TIP3    H269564   6.525   6.416  16.013 -1.7753  0.0748 -2.2259
16025TIP3   OH269565   5.939   4.190   3.988 -0.3523 -0.8113 -0.0839
16025TIP3    H169566   5.860   4.224   4.030  0.1493 -0.2343  0.4157
16025TIP3    H269567   6.002   4.181   4.059  0.1100 -1.0334 -0.5152
16026TIP3   OH269568   0.540   0.966  16.000  0.1846 -0.1347  0.0879
16026TIP3    H169569   0.596   1.020  16.056  0.4037  1.1665 -1.3111
16026TIP3    H269570   0.453   0.973  16.040  0.3577  0.6743  0.3491
16027TIP3   OH269571   1.820   6.597  16.465  0.1254 -0.3158  0.3434
16027TIP3    H169572   1.882   6.559  16.402  0.6878 -0.3997  0.9321
16027TIP3    H269573   1.843   6.690  16.468  0.7304 -0.4841  1.1233
16028TIP3   OH269574   2.031   2.726   3.420  0.5714  0.2044 -0.0668
16028TIP3    H169575   2.114   2.713   3.376  1.3183  1.5270  0.8878
16028TIP3    H269576   1.981   2.646   3.402  2.1283 -0.7180 -0.4423
16029TIP3   OH269577   5.336   6.283   6.673 -0.2355 -0.0437 -0.4600
16029TIP3    H169578   5.305   6.196   6.699 -0.1808 -0.4848 -1.7895
16029TIP3    H269579   5.258   6.338   6.675 -0.3239 -0.1898  0.1298
16030TIP3   OH269580   3.018   6.072  11.977  0.5930  0.7657  0.4970
16030TIP3    H169581   3.055   6.114  12.055  1.9353  1.2121 -0.3398
16030TIP3    H269582   2.998   6.145  11.918 -0.6038  0.4479  0.4762
16031TIP3   OH269583   6.038   2.094   0.663  0.5845 -0.5848 -0.3426
16031TIP3    H169584   6.133   2.090   0.652  0.5770 -3.9281 -0.3410
16031TIP3    H269585   6.015   2.010   0.703 -2.2244  0.8199  1.2954
16032TIP3   OH269586   6.144   0.324  14.550  0.3975 -0.1080  0.4320
16032TIP3    H169587   6.109   0.396  14.603 -1.6636  1.2756 -2.5041
16032TIP3    H269588   6.156   0.362  14.463  0.3906 -3.0259 -0.9537
16033TIP3   OH269589   2.740   6.043  15.244  0.3726 -0.1357  0.2834
16033TIP3    H169590   2.818   6.098  15.242 -0.3385  0.8776 -0.9101
16033TIP3    H269591   2.767   5.961  15.201  0.4216  0.7615 -1.4996
16034TIP3   OH269592   6.057   5.575   6.205  0.4140 -0.6122 -0.3905
16034TIP3    H169593   6.075   5.559   6.113  0.8002 -0.8984 -0.2698
16034TIP3    H269594   6.140   5.606   6.241 -0.6067  3.3168 -0.9234
16035TIP3   OH269595   4.335   4.218  12.712 -0.4683 -0.4179  0.3186
16035TIP3    H169596   4.301   4.199  12.625 -2.0155  1.3061  0.4834
16035TIP3    H269597   4.261   4.205  12.771 -0.4782  1.8373  0.8988
16036TIP3   OH269598   1.061   3.498  12.547 -0.2345  0.2291 -0.2244
16036TIP3    H169599   1.002   3.485  12.472  1.0831  1.1792 -1.4985
16036TIP3    H269600   1.126   3.428  12.538 -0.5431 -0.1663  0.5472
16037TIP3   OH269601   5.487   6.395  13.783  0.3401 -0.3756  0.0072
16037TIP3    H169602   5.561   6.367  13.729  0.6047  1.0480 -0.4121
16037TIP3    H269603   5.483   6.331  13.854 -0.1014 -2.4062 -1.7269
16038TIP3   OH269604   5.740   3.926  11.862  0.0157  0.5208 -0.2860
16038TIP3    H169605   5.681   3.889  11.928 -2.4412  0.5273 -2.3085
16038TIP3    H269606   5.749   3.857  11.796  0.0101  1.4953 -1.3484
16039TIP3   OH269607   3.144   6.710   0.283  0.2438 -0.0539 -0.4193
16039TIP3    H169608   3.222   6.655   0.295  1.2592  1.4979  0.4709
16039TIP3    H269609   3.103   6.677   0.203  2.9419  0.3001 -2.0839
16040TIP3   OH269610   1.629   3.016  11.975  0.1963 -0.1446  0.0335
16040TIP3    H169611   1.684   3.094  11.983  0.6193 -0.3989 -0.3455
16040TIP3    H269612   1.633   2.993  11.882 -1.5357  0.5389 -0.2540
16041TIP3   OH269613   3.423   3.091   6.155 -0.3883  0.8709  0.4784
16041TIP3    H169614   3.329   3.075   6.154 -0.2920  0.2812  0.3080
16041TIP3    H269615   3.438   3.150   6.081 -0.8257  2.2565  1.4610
16042TIP3   OH269616   0.025   0.758  14.253 -0.6722  0.0948 -0.8089
16042TIP3    H169617   0.095   0.693  14.250 -0.5321  0.2066 -4.1779
16042TIP3    H269618   0.067   0.840  14.228 -1.3475  1.0035  0.8646
16043TIP3   OH269619   3.258   1.331   2.597  0.2213  0.3502  0.5501
16043TIP3    H169620   3.336   1.354   2.546  0.7057 -0.3664  0.9482
16043TIP3    H269621   3.264   1.236   2.608 -0.1257  0.4279  1.5193
16044TIP3   OH269622   5.010   6.106   1.643 -0.2826  0.3878 -0.2351
16044TIP3    H169623   5.100   6.077   1.649  0.2530  2.0031  0.0902
16044TIP3    H269624   4.996   6.122   1.549 -0.3659 -0.2384 -0.3316
16045TIP3   OH269625   3.245   0.992   6.132  0.3972 -0.1234  0.9364
16045TIP3    H169626   3.209   0.967   6.047 -0.8958  0.0971  1.4060
16045TIP3    H269627   3.240   0.912   6.184  1.2209 -0.2672  0.8089
16046TIP3   OH269628   3.055   2.948   4.470  0.2026 -0.1474 -0.2082
16046TIP3    H169629   3.109   2.959   4.392  2.7012 -1.3473  1.2414
16046TIP3    H269630   3.103   2.992   4.539 -1.0308 -0.6641  1.0364
16047TIP3   OH269631   2.698   6.186   4.764  0.0141  0.2709 -0.2201
16047TIP3    H169632   2.711   6.116   4.700 -1.7391 -0.6262  0.3230
16047TIP3    H269633   2.646   6.252   4.717  1.2337  1.0095 -0.5762
16048TIP3   OH269634   1.494   2.115  12.558  0.8212  0.5968  0.0659
16048TIP3    H169635   1.474   2.033  12.604  1.8442  0.3551  0.0883
16048TIP3    H269636   1.466   2.184  12.619 -0.4184  0.2789 -0.1171
16049TIP3   OH269637   2.067   5.819   4.571  0.1429 -0.2332  0.0879
16049TIP3    H169638   1.980   5.845   4.601  0.2644 -0.4667  0.6567
16049TIP3    H269639   2.127   5.877   4.619  0.2357  1.4237 -1.8838
16050TIP3   OH269640   1.825   6.609   3.099  0.5011 -0.0455  0.4501
16050TIP3    H169641   1.800   6.691   3.141  0.3048 -0.7880  1.8463
16050TIP3    H269642   1.885   6.568   3.161  1.0203 -0.7094 -0.4751
16051TIP3   OH269643   1.934   4.943   4.129 -0.6807 -0.3088  0.2458
16051TIP3    H169644   1.998   5.007   4.160 -1.5090  0.2588  0.8626
16051TIP3    H269645   1.902   4.980   4.046 -0.0349 -0.7183 -0.1867
16052TIP3   OH269646   0.268   6.406  12.856  0.4524  0.0954 -0.2518
16052TIP3    H169647   0.219   6.448  12.786 -2.4965  0.6564  1.9393
16052TIP3    H269648   0.325   6.474  12.890 -1.6037  1.3482  0.8837
16053TIP3   OH269649   4.206   5.930  14.306  0.0837 -0.7187  0.4435
16053TIP3    H169650   4.161   5.896  14.383  0.9233 -2.8898  0.0747
16053TIP3    H269651   4.148   5.998  14.272 -1.1045 -0.8829  2.0257
16054TIP3   OH269652   3.948   5.831  15.301 -0.0969  0.1354 -0.0784
16054TIP3    H169653   3.873   5.861  15.249  0.5134  1.3580 -0.2894
16054TIP3    H269654   3.981   5.754  15.254 -1.8699 -1.1223  0.6251
16055TIP3   OH269655   4.262   3.375  16.942  0.2439  0.2432 -1.0205
16055TIP3    H169656   4.211   3.433  16.999  1.1050  0.2063 -0.1798
16055TIP3    H269657   4.330   3.431  16.906  0.2614  0.0586 -1.2731
16056TIP3   OH269658   2.347   2.433  15.247  0.4149 -0.3170 -0.3241
16056TIP3    H169659   2.306   2.404  15.329  0.1507 -1.9098 -0.9732
16056TIP3    H269660   2.328   2.526  15.242 -1.0359 -0.5258  0.5996
16057TIP3   OH269661   6.290   0.638   4.927  0.0826  0.3495 -0.4507
16057TIP3    H169662   6.285   0.664   4.835  0.1029  1.4074 -0.1630
16057TIP3    H269663   6.358   0.693   4.964 -0.6417  0.6752  0.4359
16058TIP3   OH269664   0.339   2.148  13.813  0.5711 -0.0775  0.5526
16058TIP3    H169665   0.366   2.057  13.803 -1.4280 -0.6856  0.1915
16058TIP3    H269666   0.321   2.177  13.724  0.0797  0.2782  0.7627
16059TIP3   OH269667   4.194   5.384   2.533  0.4898  0.0904  0.0759
16059TIP3    H169668   4.141   5.432   2.470 -0.0680 -2.1985 -1.2880
16059TIP3    H269669   4.281   5.423   2.525  0.2814  0.2784 -1.6596
16060TIP3   OH269670   4.726   3.514   1.356  0.4081 -0.0506 -0.1976
16060TIP3    H169671   4.731   3.538   1.449 -1.4243  1.4109 -0.4152
16060TIP3    H269672   4.653   3.452   1.352  0.2452  0.1742 -0.7040
16061TIP3   OH269673   2.629   0.340   4.807 -0.5927 -0.2155 -0.1157
16061TIP3    H169674   2.610   0.317   4.898 -0.5122  1.8022  0.4592
16061TIP3    H269675   2.677   0.265   4.773  1.2389 -0.1899  2.1373
16062TIP3   OH269676   5.962   2.202  14.919 -0.1278  0.3244 -0.1464
16062TIP3    H169677   5.888   2.227  14.863  0.3400 -0.7068 -1.2775
16062TIP3    H269678   5.932   2.218  15.008 -1.3536  0.8435 -0.6387
16063TIP3   OH269679   2.158   5.339   4.023  0.3847  0.4739 -0.5852
16063TIP3    H169680   2.077   5.306   4.063  0.6474 -0.2213 -0.6097
16063TIP3    H269681   2.148   5.434   4.023 -0.3306  0.4052 -0.3700
16064TIP3   OH269682   4.382   4.464  13.460  0.8632 -0.0547 -0.6681
16064TIP3    H169683   4.319   4.453  13.389 -4.9691  0.5551  3.6536
16064TIP3    H269684   4.396   4.375  13.493 -0.7562  0.0697  0.4596
16065TIP3   OH269685   2.290   4.088   1.032 -0.6771  1.0236 -0.2960
16065TIP3    H169686   2.380   4.118   1.036  0.0768 -1.0041 -0.8991
16065TIP3    H269687   2.264   4.077   1.123  0.5747 -0.7872 -0.1143
16066TIP3   OH269688   3.728   4.738   6.717  0.3443  0.2546 -0.0631
16066TIP3    H169689   3.815   4.701   6.701 -0.3296 -1.9038  0.8083
16066TIP3    H269690   3.698   4.694   6.797 -1.6152  0.8199 -0.4331
16067TIP3   OH269691   0.061   4.120  11.640 -0.0867  0.1652 -0.2736
16067TIP3    H169692   0.102   4.137  11.724  1.5148  0.9720 -1.1614
16067TIP3    H269693   0.123   4.064  11.593 -2.1469 -2.5133 -0.0043
16068TIP3   OH269694   3.383   1.607  17.148  0.1456  0.1699 -0.2555
16068TIP3    H169695   3.421   1.520  17.136 -0.6357 -0.3393  0.7379
16068TIP3    H269696   3.458   1.666  17.158  0.6922 -0.3036 -1.3465
16069TIP3   OH269697   6.163   3.818   4.905  0.4149  0.1545  0.0189
16069TIP3    H169698   6.086   3.876   4.901 -0.7806 -1.3090  0.8033
16069TIP3    H269699   6.187   3.817   4.997 -0.2561 -1.3980  0.2056
16070TIP3   OH269700   5.859   5.694   5.713 -0.2486  0.4029 -0.7132
16070TIP3    H169701   5.888   5.697   5.621 -1.9498 -2.1599 -1.4761
16070TIP3    H269702   5.767   5.721   5.710  0.4893  3.5159  0.8538
16071TIP3   OH269703   1.984   2.202   1.708 -0.3717  0.1812 -0.1666
16071TIP3    H169704   1.918   2.134   1.696  0.0247 -0.2466  0.0269
16071TIP3    H269705   1.947   2.280   1.667 -0.2401 -0.5097 -1.6419
16072TIP3   OH269706   2.198   1.808  13.296  0.2122  0.0742  0.1211
16072TIP3    H169707   2.125   1.746  13.307  0.2207 -0.3815 -2.0391
16072TIP3    H269708   2.174   1.861  13.221  0.9580  1.6688  0.9643
16073TIP3   OH269709   0.467   3.921   0.882  0.0375 -0.0488  0.2648
16073TIP3    H169710   0.406   3.903   0.954 -2.7113 -0.8108 -2.0718
16073TIP3    H269711   0.440   4.007   0.850 -0.2987 -0.6788 -1.2196
16074TIP3   OH269712   5.708   5.073  13.650  0.2301 -0.1583 -0.3583
16074TIP3    H169713   5.623   5.116  13.637 -0.0095 -0.3560  0.4962
16074TIP3    H269714   5.713   5.058  13.744  1.2293 -0.1311 -0.3985
16075TIP3   OH269715   1.383   6.765   6.008 -0.1564  0.6086  0.0485
16075TIP3    H169716   1.408   6.840   5.954  0.9764  0.5193  0.4288
16075TIP3    H269717   1.462   6.744   6.058 -0.0757 -1.5456 -0.8858
16076TIP3   OH269718   2.001   2.195  12.111 -0.1156  0.4510 -0.0187
16076TIP3    H169719   1.963   2.273  12.151  0.5478  1.4167 -1.2235
16076TIP3    H269720   2.085   2.224  12.075  0.8994 -1.1867  0.8775
16077TIP3   OH269721   5.596   0.596  14.052 -0.2686  0.5923 -0.1228
16077TIP3    H169722   5.656   0.559  14.116 -0.3577  0.6106 -0.0274
16077TIP3    H269723   5.606   0.540  13.975 -0.3068  0.4465 -0.0244
16078TIP3   OH269724   1.328   4.841  13.367 -0.2406  0.2144 -0.1807
16078TIP3    H169725   1.325   4.866  13.275  1.2066  1.1047 -0.0173
16078TIP3    H269726   1.275   4.906  13.412 -2.2012 -1.0842 -0.5178
16079TIP3   OH269727   6.611   1.648   5.449  0.2956 -0.1209 -0.2106
16079TIP3    H169728   6.608   1.556   5.476  1.0719  0.2982  1.4756
16079TIP3    H269729   6.692   1.656   5.400  0.6722 -0.1748  0.3869
16080TIP3   OH269730   6.237   2.925  13.256 -0.5648 -0.4162  0.5656
16080TIP3    H169731   6.170   2.988  13.227 -0.6496 -0.1017  1.4208
16080TIP3    H269732   6.314   2.946  13.203 -0.4795  0.6674  1.0918
16081TIP3   OH269733   0.573   6.288  14.622  0.0241 -0.1272 -0.2530
16081TIP3    H169734   0.492   6.310  14.667 -1.1963 -1.3084 -1.7899
16081TIP3    H269735   0.633   6.359  14.646 -1.7399  1.3114  0.1425
16082TIP3   OH269736   6.307   2.301  14.969 -0.1045  0.1825  0.0194
16082TIP3    H169737   6.383   2.253  14.938 -0.4780 -0.4994  0.1516
16082TIP3    H269738   6.275   2.251  15.043  0.2270  1.3029  0.9528
16083TIP3   OH269739   4.274   1.399   4.000  0.1002  0.2533  0.2303
16083TIP3    H169740   4.270   1.410   4.095 -0.7385 -0.0740  0.2466
16083TIP3    H269741   4.236   1.312   3.985  2.6455 -0.8573 -0.1949
16084TIP3   OH269742   6.408   6.760  14.001  0.4594 -0.3274  0.0860
16084TIP3    H169743   6.498   6.789  14.014 -0.1175  1.9322 -0.4797
16084TIP3    H269744   6.391   6.777  13.908 -0.3238 -1.4595  0.0093
16085TIP3   OH269745   5.270   5.978   1.636  0.4297 -0.2905 -0.0837
16085TIP3    H169746   5.274   5.938   1.549  1.0514  2.0419 -1.2164
16085TIP3    H269747   5.310   5.914   1.694 -0.1348 -1.9740 -1.4698
16086TIP3   OH269748   5.095   3.234   6.038  0.6414  0.3316  0.6191
16086TIP3    H169749   5.030   3.303   6.027 -0.1381 -0.4453  0.2030
16086TIP3    H269750   5.139   3.228   5.953 -1.3693 -1.6942 -0.3803
16087TIP3   OH269751   4.953   2.754  12.842 -0.2948  0.4703  0.2137
16087TIP3    H169752   4.928   2.665  12.816 -0.4147  0.0072  1.8384
16087TIP3    H269753   4.901   2.810  12.784  1.1556 -0.4465 -2.1525
16088TIP3   OH269754   4.809   1.976  12.605 -0.2223  0.7558 -0.3725
16088TIP3    H169755   4.770   1.906  12.552 -0.0383  0.7529 -0.5051
16088TIP3    H269756   4.743   1.996  12.671 -0.3493  0.5816 -0.4469
16089TIP3   OH269757   2.389   1.311   5.783 -0.2622  0.1756 -0.3050
16089TIP3    H169758   2.345   1.294   5.699  0.9394 -1.5945 -0.6302
16089TIP3    H269759   2.387   1.406   5.791 -1.6593  0.3150 -1.6407
16090TIP3   OH269760   4.624   3.152   6.474  0.7959  0.4941  0.0883
16090TIP3    H169761   4.689   3.175   6.408 -0.7859 -0.4660 -1.9219
16090TIP3    H269762   4.638   3.058   6.489  1.4653  0.7979  1.5666
16091TIP3   OH269763   0.870   1.329  17.435  0.3642 -0.5750  0.2671
16091TIP3    H169764   0.781   1.317  17.401  1.0269 -1.1375 -1.3651
16091TIP3    H269765   0.878   1.424  17.449 -1.1544 -0.6946  2.4651
16092TIP3   OH269766   6.449   5.364   5.328 -0.0399 -0.0777  0.0444
16092TIP3    H169767   6.410   5.401   5.249 -0.4902 -1.6239 -0.4821
16092TIP3    H269768   6.385   5.299   5.358  0.9727 -0.8285  0.6343
16093TIP3   OH269769   4.235   4.816  15.805 -0.1056  0.4932 -0.1621
16093TIP3    H169770   4.279   4.797  15.722 -1.0400 -0.4074 -0.4650
16093TIP3    H269771   4.142   4.812  15.785 -0.3475  0.0320  0.9803
16094TIP3   OH269772   5.604   4.852   5.053 -0.2973  0.2893 -0.2645
16094TIP3    H169773   5.647   4.871   5.136 -0.2774 -0.5972 -0.0616
16094TIP3    H269774   5.660   4.787   5.011 -0.1345  0.9716 -1.1272
16095TIP3   OH269775   3.450   5.100  15.744  0.3971 -0.2698  0.0166
16095TIP3    H169776   3.536   5.115  15.784  0.4245 -0.2855 -0.0360
16095TIP3    H269777   3.454   5.147  15.661 -1.2319  3.7484  1.9261
16096TIP3   OH269778   0.675   2.831  11.369  0.4031  0.0598  0.4380
16096TIP3    H169779   0.631   2.898  11.421 -0.9589  1.5973 -2.4765
16096TIP3    H269780   0.607   2.766  11.352  0.1536  0.7004 -1.1952
16097TIP3   OH269781   2.481   0.451   1.162 -0.3326  0.3555  0.1083
16097TIP3    H169782   2.489   0.414   1.074 -0.0855  2.8046 -0.9777
16097TIP3    H269783   2.413   0.518   1.155  0.5744  1.5037  1.4296
16098TIP3   OH269784   0.012   3.035  13.815 -0.5230 -0.1593  0.6134
16098TIP3    H169785  -0.009   3.111  13.869 -1.1716  0.4554 -0.4558
16098TIP3    H269786   0.065   2.979  13.872 -0.6291  0.7544  1.6573
16099TIP3   OH269787   3.143   1.926   5.278 -0.0299  0.0683  0.0413
16099TIP3    H169788   3.155   1.971   5.362 -1.5581 -0.2747  0.4712
16099TIP3    H269789   3.055   1.889   5.284 -0.2356  0.2058 -1.7956
16100TIP3   OH269790   1.151   1.959  13.106 -0.2836 -0.3233  0.0202
16100TIP3    H169791   1.229   1.976  13.053 -0.3022 -2.2160 -0.7099
16100TIP3    H269792   1.186   1.944  13.194  0.0615 -0.0385 -0.0646
16101TIP3   OH269793   2.236   6.610  15.038  0.6532 -0.1809  0.1280
16101TIP3    H169794   2.199   6.588  15.124 -0.4599  0.7247 -0.1112
16101TIP3    H269795   2.232   6.528  14.989  2.8643 -1.1898  1.4367
16102TIP3   OH269796   6.605   3.144  17.153  0.1473  0.4664  0.3826
16102TIP3    H169797   6.536   3.168  17.092 -0.4262 -0.4802  0.6434
16102TIP3    H269798   6.617   3.050  17.141 -0.1790  0.1969  1.9258
16103TIP3   OH269799   0.842   2.452  13.649 -0.4756  0.0978 -0.1571
16103TIP3    H169800   0.915   2.390  13.656 -0.0344  0.4111 -1.7112
16103TIP3    H269801   0.765   2.402  13.678  0.1126 -0.6917  0.0829
16104TIP3   OH269802   6.001   1.006  14.721 -0.0906 -0.0637  0.1360
16104TIP3    H169803   6.033   0.952  14.793  0.3209 -0.7803 -0.5749
16104TIP3    H269804   5.906   0.997  14.725 -0.0394 -0.6037  0.2084
16105TIP3   OH269805   1.633   3.037  11.270  0.0671  0.0296 -0.2749
16105TIP3    H169806   1.552   3.046  11.220  0.1520  0.8612 -0.2770
16105TIP3    H269807   1.700   3.077  11.215  0.7172 -1.6726 -0.7903
16106TIP3   OH269808   1.212   4.812   5.963 -0.0594  1.0117  0.0338
16106TIP3    H169809   1.185   4.904   5.963 -0.9786  0.7579 -1.1290
16106TIP3    H269810   1.203   4.785   6.055  0.3877  2.1159  0.4185
16107TIP3   OH269811   1.278   0.671   0.741  0.1600  0.0288 -0.0771
16107TIP3    H169812   1.218   0.597   0.736  1.6993 -1.2326 -0.8408
16107TIP3    H269813   1.347   0.641   0.801  0.2940  1.2540  0.4060
16108TIP3   OH269814   2.837   4.122  17.277 -0.1671  0.2128  0.4110
16108TIP3    H169815   2.919   4.072  17.268  0.3734  1.0418  0.6125
16108TIP3    H269816   2.773   4.058  17.307  0.4017 -0.4589  0.2176
16109TIP3   OH269817   1.428   5.621   2.364 -0.9973 -0.0045 -0.4324
16109TIP3    H169818   1.336   5.623   2.390 -1.2219  0.4161 -1.2009
16109TIP3    H269819   1.454   5.529   2.372 -2.2218 -0.6100 -2.5986
16110TIP3   OH269820   1.789   2.782   4.017  0.4229  0.2622 -0.1838
16110TIP3    H169821   1.727   2.814   4.082 -0.7307 -1.2960 -0.4639
16110TIP3    H269822   1.860   2.743   4.068 -2.2180 -4.5003  0.4960
16111TIP3   OH269823   1.342   0.874  13.929 -0.6040  0.0803  0.2401
16111TIP3    H169824   1.316   0.878  14.021 -1.3816  1.8684 -0.0166
16111TIP3    H269825   1.375   0.962  13.909  0.5962 -0.5933 -0.9121
16112TIP3   OH269826   4.951   5.228   4.394  0.2753 -0.1057  0.1291
16112TIP3    H169827   4.958   5.235   4.489 -2.9481 -3.1454  0.8006
16112TIP3    H269828   5.002   5.149   4.372 -0.0843 -0.1830 -0.4569
16113TIP3   OH269829   1.328   4.005   1.372 -0.1110  0.8193  0.2077
16113TIP3    H169830   1.341   4.035   1.462 -0.6443  0.1697  0.5192
16113TIP3    H269831   1.402   3.947   1.355  0.2703  1.3512  0.0373
16114TIP3   OH269832   2.281   5.407   6.975 -0.3484 -0.0663  0.0786
16114TIP3    H169833   2.269   5.436   7.065  2.8845 -0.3347  0.6962
16114TIP3    H269834   2.306   5.315   6.982 -0.0478 -0.0931 -1.0800
16115TIP3   OH269835   1.636   0.843   1.294  0.4834 -0.6240 -0.5076
16115TIP3    H169836   1.563   0.903   1.310  0.0668 -0.9505 -1.1711
16115TIP3    H269837   1.627   0.777   1.363  0.7577 -0.1097  0.0316
16116TIP3   OH269838   5.760   4.392   1.557 -0.0802  0.4430 -0.0782
16116TIP3    H169839   5.708   4.331   1.609 -1.3852  1.8287  0.3187
16116TIP3    H269840   5.696   4.452   1.518  1.1134  1.3496 -0.7305
16117TIP3   OH269841   5.080   1.174  14.938  0.0541 -0.6127  0.9149
16117TIP3    H169842   5.077   1.123  15.019 -0.3969 -2.3132 -0.1117
16117TIP3    H269843   5.081   1.108  14.869 -0.5138  0.7963 -0.4936
16118TIP3   OH269844   5.247   3.718   1.325  0.2438  0.1635  0.0568
16118TIP3    H169845   5.275   3.802   1.290 -1.5395  0.4606 -0.7798
16118TIP3    H269846   5.199   3.741   1.405 -0.2956 -0.0408 -0.2036
16119TIP3   OH269847   3.054   5.531   5.612  0.0113 -0.0519 -0.5020
16119TIP3    H169848   2.983   5.533   5.675  0.9179  1.4693  0.5514
16119TIP3    H269849   3.016   5.568   5.532 -0.8408 -0.9390 -0.5207
16120TIP3   OH269850   4.975   4.695   1.009 -0.1086 -0.5525  0.2820
16120TIP3    H169851   4.884   4.693   0.981  0.6305  1.0345 -2.8046
16120TIP3    H269852   5.016   4.621   0.964  0.3754 -0.4295  0.5093
16121TIP3   OH269853   1.668   4.145   5.014 -0.5618 -0.1889 -0.1681
16121TIP3    H169854   1.730   4.169   4.945 -2.0262 -0.0530 -1.4898
16121TIP3    H269855   1.711   4.171   5.096  1.0087  0.0858 -1.0527
16122TIP3   OH269856   5.517   1.390   3.800  0.3261 -0.1445  0.3010
16122TIP3    H169857   5.425   1.394   3.774  0.3271  1.9081  0.4630
16122TIP3    H269858   5.519   1.431   3.886  1.6022  1.4109 -0.4243
16123TIP3   OH269859   1.267   2.553   3.464 -0.2335 -0.1619 -0.1893
16123TIP3    H169860   1.292   2.533   3.554 -0.0686 -0.5284 -0.3158
16123TIP3    H269861   1.338   2.518   3.411 -1.1273 -1.4460 -0.5790
16124TIP3   OH269862   3.871   4.948   1.300 -0.3807 -0.1355  0.3080
16124TIP3    H169863   3.801   4.934   1.236 -0.7654  0.4218  0.5855
16124TIP3    H269864   3.947   4.972   1.248 -0.7029  0.3676  0.0548
16125TIP3   OH269865   5.408   1.909   1.338 -0.1708  0.5320  0.3145
16125TIP3    H169866   5.406   1.817   1.366 -0.6296 -0.0445 -1.4424
16125TIP3    H269867   5.340   1.951   1.389 -2.0021 -0.8022 -0.8780
16126TIP3   OH269868   4.473   2.436  16.911 -0.5614 -0.4694 -0.5508
16126TIP3    H169869   4.525   2.410  16.987  2.1830  2.0942 -1.3515
16126TIP3    H269870   4.513   2.389  16.838 -1.1647 -0.5338 -0.8445
16127TIP3   OH269871   6.039   1.718  14.116  0.0580 -0.1400 -0.5069
16127TIP3    H169872   6.005   1.632  14.141  1.0015 -0.3624  0.0376
16127TIP3    H269873   6.122   1.700  14.071  0.1597  0.4756 -0.5880
16128TIP3   OH269874   1.078   0.130  12.092  0.6712  0.0200  0.4000
16128TIP3    H169875   1.086   0.056  12.153  1.4839  0.5641  0.9881
16128TIP3    H269876   1.167   0.143  12.059  0.3157  0.0017 -0.6000
16129TIP3   OH269877   4.778   5.178  14.780  0.7296 -0.0056 -0.5919
16129TIP3    H169878   4.745   5.252  14.831  2.0811 -0.9225  1.8285
16129TIP3    H269879   4.746   5.193  14.691 -0.3308  2.6352  0.1361
16130TIP3   OH269880   4.489   0.958   5.710  0.1535 -0.3724  0.1606
16130TIP3    H169881   4.505   0.952   5.804 -0.6091  0.0822  0.3289
16130TIP3    H269882   4.567   1.001   5.675  0.5135 -0.6962  0.5607
16131TIP3   OH269883   1.233   1.306   3.372 -0.6365  0.0668  0.5778
16131TIP3    H169884   1.269   1.386   3.333  0.0581 -0.9962 -1.1067
16131TIP3    H269885   1.288   1.291   3.449  1.0079 -0.1793 -0.5699
16132TIP3   OH269886   3.259   2.207   4.681 -0.3442  0.5886 -0.2112
16132TIP3    H169887   3.270   2.291   4.636  0.3751  0.9592  0.6107
16132TIP3    H269888   3.228   2.147   4.614 -1.3948  1.6370 -0.6925
16133TIP3   OH269889   2.088   0.572   5.940 -0.1547 -0.2589 -0.4851
16133TIP3    H169890   2.028   0.505   5.974 -1.3142  1.0939  0.2765
16133TIP3    H269891   2.121   0.617   6.017  0.3194  0.2879 -0.9913
16134TIP3   OH269892   1.381   0.526  13.802  0.0632  0.2143  0.7867
16134TIP3    H169893   1.442   0.479  13.746  0.0552  2.7139 -1.5467
16134TIP3    H269894   1.378   0.476  13.883  2.8004 -1.6798 -0.1600
16135TIP3   OH269895   1.601   4.776  13.901  0.7251 -0.0703 -0.3691
16135TIP3    H169896   1.555   4.848  13.858  2.1189 -0.3733 -2.5075
16135TIP3    H269897   1.578   4.699  13.849 -1.0345 -1.3350  2.0884
16136TIP3   OH269898   4.223   1.914  12.793 -0.0375  0.0721 -0.4222
16136TIP3    H169899   4.279   1.856  12.844 -0.7604  1.3462  1.9662
16136TIP3    H269900   4.153   1.858  12.761 -0.0783 -0.6229  0.8374
16137TIP3   OH269901   6.032   3.131   4.028  0.2053  0.2725 -0.1523
16137TIP3    H169902   6.127   3.140   4.022  1.2411 -3.6275  4.1339
16137TIP3    H269903   6.008   3.183   4.105 -0.7508 -0.3657 -0.0003
16138TIP3   OH269904   2.376   3.715  15.310 -0.2024  0.1529  0.4793
16138TIP3    H169905   2.452   3.665  15.282 -0.6654 -0.3715  0.1405
16138TIP3    H269906   2.307   3.691  15.249 -0.7099  0.4379  0.9276
16139TIP3   OH269907   4.006   4.966   2.997 -0.2391  0.4414 -0.6750
16139TIP3    H169908   3.986   4.949   3.089 -1.0729  1.4639 -0.6607
16139TIP3    H269909   4.047   4.885   2.967  0.1437  0.1307  0.6203
16140TIP3   OH269910   0.476   1.258  14.697  0.4752 -0.0883  0.3124
16140TIP3    H169911   0.532   1.302  14.633 -0.4107  1.0606  0.2867
16140TIP3    H269912   0.429   1.329  14.741 -0.1891 -0.9574  1.0555
16141TIP3   OH269913   0.310   0.630   1.185 -0.2114  0.8100  0.3033
16141TIP3    H169914   0.282   0.540   1.198  0.3146  0.5962 -0.0043
16141TIP3    H269915   0.331   0.662   1.273 -0.8958  0.8037  0.4714
16142TIP3   OH269916   0.833   4.896  15.147  0.5551  0.2637 -0.1307
16142TIP3    H169917   0.742   4.871  15.131  0.1103  1.1471  0.8761
16142TIP3    H269918   0.837   4.988  15.121  1.1017  0.2947  0.0521
16143TIP3   OH269919   3.089   0.270  12.370 -0.2398 -0.1136  0.2100
16143TIP3    H169920   3.040   0.269  12.452  2.6597  2.4947  2.2353
16143TIP3    H269921   3.174   0.231  12.393  0.0597 -0.9151 -2.0480
16144TIP3   OH269922   6.060   4.913  15.116 -0.4801  0.1190  0.1125
16144TIP3    H169923   6.027   4.954  15.196 -1.3060 -0.3282  0.0131
16144TIP3    H269924   6.155   4.914  15.126 -0.3707  2.9912 -0.3366
16145TIP3   OH269925   3.317   0.453   1.738  0.2491  0.3295 -0.0017
16145TIP3    H169926   3.340   0.432   1.829  2.5586  0.6126 -0.4449
16145TIP3    H269927   3.244   0.514   1.745 -1.0788 -1.2990  1.5645
16146TIP3   OH269928   5.579   3.970   2.107  0.0808 -0.1169  0.6135
16146TIP3    H169929   5.592   4.025   2.030  1.8576  0.3076  1.1868
16146TIP3    H269930   5.561   4.031   2.178 -3.1845 -0.5674  0.3269
16147TIP3   OH269931   1.587   2.767  13.622 -0.2001  0.3034  0.1396
16147TIP3    H169932   1.649   2.745  13.691 -0.4171  0.5996  0.4351
16147TIP3    H269933   1.544   2.684  13.601  2.2036 -0.5031 -2.0270
16148TIP3   OH269934   6.543   2.999   0.030  0.3508  0.2594 -0.1136
16148TIP3    H169935   6.530   2.923  -0.027  0.1548 -0.0257  0.3066
16148TIP3    H269936   6.634   3.026   0.015  1.2787 -1.6498  1.6410
16149TIP3   OH269937   2.587   3.541  15.251 -0.3694 -0.0380 -0.3951
16149TIP3    H169938   2.596   3.598  15.175  0.3273 -0.9187 -0.9914
16149TIP3    H269939   2.637   3.463  15.229 -0.1490 -0.3199  0.9682
16150TIP3   OH269940   3.385   4.677  12.883  0.6726  0.1906  0.5676
16150TIP3    H169941   3.339   4.737  12.824  1.1928 -0.0977 -0.1369
16150TIP3    H269942   3.476   4.678  12.853  0.6987 -0.9039  0.5883
16151TIP3   OH269943   6.294   3.169  15.539  0.5937 -0.3058  0.1517
16151TIP3    H169944   6.364   3.196  15.599 -0.6448  0.1710  1.4356
16151TIP3    H269945   6.214   3.175  15.591 -0.3654 -1.2769 -1.1483
16152TIP3   OH269946   6.119   2.221   3.266 -0.7508 -0.3171 -0.5126
16152TIP3    H169947   6.117   2.125   3.266  0.3440 -0.3810  0.7806
16152TIP3    H269948   6.091   2.246   3.178 -0.5779 -1.8409 -1.0329
16153TIP3   OH269949   4.557   3.675  11.453 -0.2847 -1.0592  0.3446
16153TIP3    H169950   4.479   3.675  11.398  0.1579 -0.9377 -0.2896
16153TIP3    H269951   4.630   3.689  11.392  0.0155  2.0008  1.2404
16154TIP3   OH269952   3.877   5.365   2.687  0.3375 -0.4417 -0.5334
16154TIP3    H169953   3.789   5.394   2.709  0.5532  0.8176 -1.2230
16154TIP3    H269954   3.877   5.271   2.706 -0.8891 -0.3013  0.2528
16155TIP3   OH269955   1.480   2.612  12.739  0.0504  0.3303 -0.3506
16155TIP3    H169956   1.420   2.650  12.675  0.6851 -0.8146 -1.6718
16155TIP3    H269957   1.553   2.675  12.744  0.3465  0.0781 -1.3296
16156TIP3   OH269958   1.453   6.062   6.493 -0.2834  0.3925 -0.0284
16156TIP3    H169959   1.397   6.081   6.569  0.0097 -0.3002  0.3693
16156TIP3    H269960   1.501   5.983   6.518  1.4583  1.3954 -0.0203
16157TIP3   OH269961   2.852   3.065  13.787  0.9287  0.6410 -0.4998
16157TIP3    H169962   2.795   3.131  13.746 -0.9342 -1.0989 -0.8759
16157TIP3    H269963   2.827   3.066  13.879  1.6610  1.1864 -0.3036
16158TIP3   OH269964   6.508   6.732  12.020 -0.5562 -0.2071 -0.0977
16158TIP3    H169965   6.583   6.707  11.965 -0.1879 -0.0400  0.3226
16158TIP3    H269966   6.518   6.678  12.099 -1.7726 -1.3676 -0.6988
16159TIP3   OH269967   3.176   3.730  15.794  0.0591 -0.3623 -0.4374
16159TIP3    H169968   3.116   3.794  15.833  1.7412  1.3978 -0.5823
16159TIP3    H269969   3.242   3.714  15.862 -0.0706 -1.6261 -0.5749
16160TIP3   OH269970   4.528   5.537   3.992  0.0974  0.1117 -0.2991
16160TIP3    H169971   4.508   5.510   4.082 -0.8004 -1.0634 -0.8217
16160TIP3    H269972   4.527   5.633   3.995  2.0333  0.1380  1.3408
16161TIP3   OH269973   0.255   2.843   3.838 -0.0092  0.1677 -0.3576
16161TIP3    H169974   0.261   2.775   3.905 -0.2705  0.1040 -0.3988
16161TIP3    H269975   0.268   2.925   3.887  0.2236  0.0952 -0.2957
16162TIP3   OH269976   4.082   5.618   1.831 -0.3464 -0.2197 -0.2763
16162TIP3    H169977   4.071   5.561   1.755  2.0214 -0.9726 -0.1166
16162TIP3    H269978   3.994   5.652   1.848 -0.9483  0.0760 -3.4136
16163TIP3   OH269979   2.690   2.285   6.337 -0.1620 -0.7217  0.5850
16163TIP3    H169980   2.709   2.270   6.244 -1.5879 -0.2720  0.1945
16163TIP3    H269981   2.727   2.209   6.382 -0.4669 -1.5178 -0.4724
16164TIP3   OH269982   3.413   6.130   3.260  0.1690  0.2120  0.2145
16164TIP3    H169983   3.361   6.201   3.297  0.5194  1.1504 -1.0431
16164TIP3    H269984   3.369   6.050   3.291 -1.0885  0.9737  0.4660
16165TIP3   OH269985   4.806   1.194  15.451 -0.1646  0.0362  0.3010
16165TIP3    H169986   4.803   1.190  15.355 -0.3305  2.9963  0.1066
16165TIP3    H269987   4.731   1.248  15.476  0.4771  0.1991  2.0347
16166TIP3   OH269988   0.100   6.573  17.105 -0.3809  0.4997  0.1009
16166TIP3    H169989   0.177   6.601  17.056 -1.7837  2.6758 -0.9826
16166TIP3    H269990   0.077   6.488  17.068  1.8163 -0.5094  0.8936
16167TIP3   OH269991   0.235   6.263   3.896  0.3189 -0.2833 -0.1893
16167TIP3    H169992   0.327   6.275   3.918 -0.2007  0.6263  1.6918
16167TIP3    H269993   0.195   6.225   3.974 -0.5485 -2.8227 -1.7169
16168TIP3   OH269994   1.259   1.352  17.461  0.5255  0.1326 -0.2599
16168TIP3    H169995   1.305   1.270  17.478 -1.4168 -0.5739  2.3752
16168TIP3    H269996   1.183   1.327  17.409 -0.3295  0.1090  0.9506
16169TIP3   OH269997   0.871   1.867   4.368 -0.5620 -0.0541  0.1021
16169TIP3    H169998   0.888   1.961   4.366  0.8394 -0.1119  3.3162
16169TIP3    H269999   0.913   1.834   4.289 -0.5489  1.9144 -0.7836
16170TIP3   OH270000   1.712   0.798  12.067 -0.0079 -0.3337 -0.0639
16170TIP3    H170001   1.699   0.890  12.088  1.4685 -0.0053 -0.4754
16170TIP3    H270002   1.793   0.774  12.113 -0.8645 -1.6857  0.7969
16171TIP3   OH270003   4.303   1.111   5.356  0.6920 -0.6378  0.4669
16171TIP3    H170004   4.237   1.099   5.424 -0.9489 -0.3455 -1.0016
16171TIP3    H270005   4.312   1.025   5.316 -0.1236 -0.3101 -0.4620
16172TIP3   OH270006   1.068   5.462   3.299 -0.1393  0.3571  0.6038
16172TIP3    H170007   1.009   5.482   3.227  1.0303  0.6927 -0.2889
16172TIP3    H270008   1.052   5.533   3.362 -0.2420  0.8022  0.0896
16173TIP3   OH270009   6.307   4.927   2.445 -0.5435  0.3773 -0.2412
16173TIP3    H170010   6.220   4.891   2.429 -0.1273 -1.8134  1.8630
16173TIP3    H270011   6.362   4.887   2.378 -1.2829  2.9211 -2.5469
16174TIP3   OH270012   3.149   3.348   4.369 -0.0813 -0.4353  0.2488
16174TIP3    H170013   3.124   3.407   4.440  0.5976 -0.0258  0.1564
16174TIP3    H270014   3.243   3.334   4.382  0.0517 -0.3315 -0.5864
16175TIP3   OH270015   1.226   6.078  14.924 -0.2741  0.4361  0.5745
16175TIP3    H170016   1.280   6.003  14.947  0.3029 -0.0052 -1.8462
16175TIP3    H270017   1.272   6.153  14.963  0.6607 -0.2066  0.7434
16176TIP3   OH270018   3.178   2.156  14.299 -0.7361 -0.1638  0.6665
16176TIP3    H170019   3.101   2.197  14.339 -0.3829  0.2401  0.9428
16176TIP3    H270020   3.253   2.196  14.344 -0.2910  0.8852 -0.9331
16177TIP3   OH270021   6.750   1.479   4.536  0.1657  0.0315  0.5247
16177TIP3    H170022   6.792   1.506   4.454 -0.5559  0.0119  0.1455
16177TIP3    H270023   6.677   1.424   4.510  1.4788 -2.1767  1.2933
16178TIP3   OH270024   4.568   4.609  10.932  0.5157 -0.3357 -0.5897
16178TIP3    H170025   4.592   4.700  10.914  0.1477 -0.3796 -1.3710
16178TIP3    H270026   4.476   4.612  10.958  0.5694 -0.4542 -0.3890
16179TIP3   OH270027   1.530   2.245   4.552 -0.4515 -0.3470  0.0630
16179TIP3    H170028   1.569   2.324   4.589 -0.5841  0.2915 -1.1119
16179TIP3    H270029   1.445   2.274   4.518 -1.1491 -1.3151  0.8902
16180TIP3   OH270030   4.873   6.397   4.660  0.5733 -0.0341 -0.8401
16180TIP3    H170031   4.843   6.309   4.683 -3.3296  0.8899 -1.7240
16180TIP3    H270032   4.913   6.386   4.573 -1.6537 -0.7354 -1.8539
16181TIP3   OH270033   5.844   4.396  15.226  0.4431 -0.1488 -0.0066
16181TIP3    H170034   5.767   4.341  15.213 -0.6717  1.5288 -0.8924
16181TIP3    H270035   5.879   4.369  15.311 -0.1428 -2.0579 -0.3247
16182TIP3   OH270036   1.685   6.540  15.410 -0.8917 -0.2865 -0.2936
16182TIP3    H170037   1.610   6.599  15.406 -1.5792 -1.1575 -0.5627
16182TIP3    H270038   1.760   6.598  15.423 -1.7736  0.4931  1.8084
16183TIP3   OH270039   0.279   0.597  16.309 -0.1602 -0.3611 -0.3583
16183TIP3    H170040   0.189   0.629  16.298  0.2328  0.8677 -0.2329
16183TIP3    H270041   0.321   0.663  16.365  0.8137 -0.9229 -0.4071
16184TIP3   OH270042   6.138   2.862  17.407 -0.2380  0.4166 -0.6556
16184TIP3    H170043   6.043   2.852  17.408 -0.3320  1.3067  0.2290
16184TIP3    H270044   6.159   2.878  17.315 -0.8968 -0.0640 -0.9049
16185TIP3   OH270045   6.659   5.008  12.726 -0.1483 -0.3047  0.5700
16185TIP3    H170046   6.713   4.994  12.804 -0.6026 -1.0257  0.7639
16185TIP3    H270047   6.577   5.044  12.759 -0.6683 -1.4068  0.5320
16186TIP3   OH270048   3.687   3.509   5.868 -0.7208 -0.2055 -0.3025
16186TIP3    H170049   3.655   3.591   5.906  0.0331 -1.0402  2.3808
16186TIP3    H270050   3.779   3.526   5.848 -0.3851 -0.5324  0.8686
16187TIP3   OH270051   1.108   2.856   1.938  0.2353  0.0913 -0.1104
16187TIP3    H170052   1.134   2.764   1.927  0.4765  0.1364  0.0707
16187TIP3    H270053   1.156   2.885   2.016  1.1294  0.7164 -0.8696
16188TIP3   OH270054   0.178   6.515   4.763 -0.0763 -0.1157 -0.0942
16188TIP3    H170055   0.223   6.434   4.788 -0.5429 -0.5618 -0.6866
16188TIP3    H270056   0.245   6.565   4.716  0.1601 -0.2444  0.1033
16189TIP3   OH270057   6.069   0.201  11.709  0.3586  0.1895  0.3933
16189TIP3    H170058   6.048   0.281  11.757 -1.3639  0.2758 -0.4237
16189TIP3    H270059   6.163   0.205  11.694  0.5462  1.3101  1.6682
16190TIP3   OH270060   2.941   2.032  16.219  0.3257  0.3892  0.1654
16190TIP3    H170061   2.911   2.122  16.217  1.9507  1.0418  1.8812
16190TIP3    H270062   2.881   1.988  16.280  0.6483  0.7677  0.7547
16191TIP3   OH270063   2.798   6.592  17.026  0.3656  0.0923 -0.5514
16191TIP3    H170064   2.704   6.602  17.038  0.4567 -0.0039  0.2558
16191TIP3    H270065   2.822   6.662  16.964 -0.2020  0.2124 -0.6358
16192TIP3   OH270066   1.234   4.770  12.739 -0.2498 -0.2683  0.1736
16192TIP3    H170067   1.312   4.826  12.744 -0.9193  0.6529  0.6025
16192TIP3    H270068   1.268   4.681  12.747  0.8231  0.0820 -0.3238
16193TIP3   OH270069   3.205   1.042   4.204  0.6978  0.3052  0.0337
16193TIP3    H170070   3.237   1.096   4.132  1.0914 -1.0180 -0.8054
16193TIP3    H270071   3.110   1.035   4.189  0.8720 -0.5113 -0.7516
16194TIP3   OH270072   6.123   2.368  16.854  0.6473  0.3325  0.0773
16194TIP3    H170073   6.058   2.349  16.787  0.8660  0.2757 -0.1183
16194TIP3    H270074   6.185   2.427  16.812 -0.2055  1.7931  0.7881
16195TIP3   OH270075   3.899   4.210  14.267  0.7094 -0.1991  0.3195
16195TIP3    H170076   3.816   4.177  14.302  1.2834 -1.1896  0.8018
16195TIP3    H270077   3.902   4.301  14.296  0.4112 -0.5337  1.4782
16196TIP3   OH270078   5.135   1.019   4.701 -0.0057  0.5753 -0.3075
16196TIP3    H170079   5.221   0.980   4.714 -0.7209 -1.2476 -0.7502
16196TIP3    H270080   5.094   0.965   4.633 -2.0436  0.4590  0.9256
16197TIP3   OH270081   1.390   6.518   4.395  0.0571  0.0908  0.1785
16197TIP3    H170082   1.477   6.555   4.407 -0.5967  1.8631 -0.3599
16197TIP3    H270083   1.332   6.575   4.446 -0.7855 -1.1744  0.6904
16198TIP3   OH270084   4.776   5.113  11.558  0.4588  0.5864 -0.0359
16198TIP3    H170085   4.692   5.068  11.557  0.1145  1.0165  2.1808
16198TIP3    H270086   4.841   5.044  11.547 -0.1429  0.0411 -0.2071
16199TIP3   OH270087   4.461   2.113   1.145  0.1857  0.2506 -0.2615
16199TIP3    H170088   4.423   2.180   1.088 -1.9886 -0.8907 -0.2579
16199TIP3    H270089   4.543   2.088   1.101 -0.1113  1.2499 -1.4633
16200TIP3   OH270090   5.893   2.531  13.758  0.8260  0.9841  0.5955
16200TIP3    H170091   5.962   2.587  13.794  1.0119  1.5067 -0.5120
16200TIP3    H270092   5.899   2.544  13.663  0.4886 -0.4907  0.3484
16201TIP3   OH270093   5.599   3.327  12.004 -0.5294 -0.4256  0.2230
16201TIP3    H170094   5.630   3.306  12.092 -0.3807  3.4067  1.2642
16201TIP3    H270095   5.653   3.273  11.946  0.5193 -1.8413  2.3840
16202TIP3   OH270096   6.095   3.221   5.080 -0.1365 -0.1970  0.4306
16202TIP3    H170097   6.146   3.200   5.002  0.8439 -0.6173  1.1714
16202TIP3    H270098   6.004   3.213   5.051  0.1713  1.0111 -1.0355
16203TIP3   OH270099   0.273   0.948  15.687 -0.3005  0.0509 -0.2122
16203TIP3    H170100   0.221   0.916  15.614  1.0626  0.7093 -1.5347
16203TIP3    H270101   0.330   0.874  15.709 -1.7502 -0.6882  1.2692
16204TIP3   OH270102   1.828   0.582   5.215 -0.2560  0.3699 -0.6663
16204TIP3    H170103   1.886   0.632   5.272 -0.6901  0.1427 -0.0189
16204TIP3    H270104   1.876   0.576   5.132  0.5163  0.4270 -0.2323
16205TIP3   OH270105   3.317   0.214  15.287 -0.4175 -0.2242 -0.1752
16205TIP3    H170106   3.399   0.263  15.278 -1.4440  1.8118  1.0184
16205TIP3    H270107   3.334   0.132  15.240  2.5721 -0.2254  0.6956
16206TIP3   OH270108   0.123   1.732   4.980 -0.3384 -0.4821 -0.2106
16206TIP3    H170109   0.123   1.813   4.929 -0.7767  0.8190  1.7160
16206TIP3    H270110   0.041   1.689   4.958 -0.6058  0.1552 -0.4703
16207TIP3   OH270111   3.701   3.896   1.832  0.3359  0.2249  0.7252
16207TIP3    H170112   3.792   3.870   1.816 -0.5829 -1.6551 -2.4295
16207TIP3    H270113   3.690   3.976   1.782  0.0035 -0.1840  0.1266
16208TIP3   OH270114   4.023   3.748   2.154  0.4821 -0.3814 -0.7821
16208TIP3    H170115   4.043   3.841   2.154  0.9288 -0.4655  0.3375
16208TIP3    H270116   4.072   3.712   2.228 -0.4831 -1.3309 -0.5671
16209TIP3   OH270117   1.149   2.855  12.635  0.1886 -0.3052  0.3849
16209TIP3    H170118   1.118   2.851  12.545 -1.3262  1.9907  0.7310
16209TIP3    H270119   1.244   2.845  12.629 -0.0429 -2.0803 -1.2387
16210TIP3   OH270120   0.127   4.685   3.538  0.0851  0.7687  0.3587
16210TIP3    H170121   0.068   4.626   3.586  0.9773 -1.1008 -0.7498
16210TIP3    H270122   0.071   4.724   3.470 -0.2029  0.0698  0.1823
16211TIP3   OH270123   0.281   5.743  11.643  0.0222  0.1222  0.0768
16211TIP3    H170124   0.356   5.749  11.702  0.0135 -0.2468  0.1279
16211TIP3    H270125   0.279   5.651  11.616 -0.6399  0.0408  0.3796
16212TIP3   OH270126   1.926   0.261   5.369  0.4902  0.6555 -0.5596
16212TIP3    H170127   1.969   0.182   5.402 -1.4483 -0.0877  0.3919
16212TIP3    H270128   1.942   0.327   5.436 -1.1011 -0.0760  0.6299
16213TIP3   OH270129   4.479   5.086   0.005 -0.5406 -0.1710 -0.3779
16213TIP3    H170130   4.435   5.088  -0.080  0.2990  0.8322 -0.8203
16213TIP3    H270131   4.448   5.165   0.050 -0.7076 -0.5085  0.1039
16214TIP3   OH270132   2.745   0.349  14.868 -0.2790  0.6335 -0.1463
16214TIP3    H170133   2.673   0.401  14.831 -1.5121 -1.0540 -0.2638
16214TIP3    H270134   2.815   0.355  14.803 -0.8574  1.1336 -0.7340
16215TIP3   OH270135   2.602   0.098  16.506  0.3536 -0.1048  0.1945
16215TIP3    H170136   2.570   0.116  16.594  0.0904  0.5022 -0.0170
16215TIP3    H270137   2.601   0.002  16.499 -1.2194 -0.1198  0.2659
16216TIP3   OH270138   1.813   2.044  14.201  0.0780 -0.2471  0.1837
16216TIP3    H170139   1.774   1.970  14.155 -0.6908  0.0670  0.3006
16216TIP3    H270140   1.880   2.077  14.142  0.4503 -1.0460  0.1413
16217TIP3   OH270141   3.235   6.502  15.439  0.4027 -0.3252  0.8135
16217TIP3    H170142   3.214   6.544  15.523  1.8803  2.4597 -0.1031
16217TIP3    H270143   3.151   6.501  15.392 -0.4506 -1.9420  2.2373
16218TIP3   OH270144   2.950   6.132  17.021 -0.1646 -0.4670  0.2015
16218TIP3    H170145   3.016   6.096  16.962 -1.8868 -1.4153 -1.2637
16218TIP3    H270146   2.870   6.135  16.968 -1.5717 -0.4110  2.2162
16219TIP3   OH270147   0.974   3.520  15.932  0.2501  0.0472  0.3940
16219TIP3    H170148   0.964   3.603  15.886 -0.5109  0.2919  0.9756
16219TIP3    H270149   0.998   3.545  16.022  3.2854 -0.4358 -0.1480
16220TIP3   OH270150   3.848   1.411  12.256  0.3176 -0.6874  0.0767
16220TIP3    H170151   3.845   1.339  12.318 -1.5646  0.0467  0.9050
16220TIP3    H270152   3.931   1.399  12.209  2.1904 -0.8717  3.1710
16221TIP3   OH270153   4.131   2.417  13.270 -0.2457 -0.7594  0.4237
16221TIP3    H170154   4.041   2.433  13.240  0.0646  0.8872  0.2904
16221TIP3    H270155   4.186   2.465  13.208  0.6251 -0.4178  1.4371
16222TIP3   OH270156   2.013   6.483   4.638  0.0330 -0.2315  0.3774
16222TIP3    H170157   2.070   6.552   4.604 -0.4617  0.0870  0.1745
16222TIP3    H270158   1.932   6.529   4.661  0.2157 -0.5092  1.6138
16223TIP3   OH270159   1.433   3.964   1.843 -0.1853  0.4429 -0.9299
16223TIP3    H170160   1.385   3.984   1.923  0.9541 -2.4045  0.6190
16223TIP3    H270161   1.393   4.020   1.776 -0.4391  3.7511  1.7680
16224TIP3   OH270162   0.560   5.924  16.802  0.1295 -0.0793  0.0818
16224TIP3    H170163   0.618   5.915  16.726  0.6433 -0.1600  0.4766
16224TIP3    H270164   0.616   5.902  16.877 -0.8020 -1.6358  0.3557
16225TIP3   OH270165   2.007   2.369   1.236 -0.2300  0.2415  0.4160
16225TIP3    H170166   1.948   2.309   1.282 -3.1323  1.8567 -0.9027
16225TIP3    H270167   1.998   2.344   1.144 -2.2715  3.1246 -0.2911
16226TIP3   OH270168   2.552   3.941  14.871  0.1626 -0.2224 -0.1009
16226TIP3    H170169   2.632   3.993  14.860 -0.6920  1.3661  0.8151
16226TIP3    H270170   2.522   3.923  14.781  0.8008  0.3508 -0.4368
16227TIP3   OH270171   2.181   3.199   3.527  0.0955  0.0748 -0.2127
16227TIP3    H170172   2.171   3.230   3.437  1.6153  0.4084 -0.3037
16227TIP3    H270173   2.206   3.107   3.518  0.5675  0.1913 -0.1694
16228TIP3   OH270174   3.843   2.712  17.003  0.7380 -0.5862  0.0442
16228TIP3    H170175   3.780   2.754  16.945  0.5385 -2.1284 -0.9187
16228TIP3    H270176   3.828   2.753  17.089  1.2021  1.9093 -0.9800
16229TIP3   OH270177   5.095   6.341  15.406 -0.1128 -0.3842  0.0222
16229TIP3    H170178   5.175   6.352  15.456  0.4331 -1.7925 -0.4880
16229TIP3    H270179   5.100   6.252  15.372 -2.2522 -0.8099  0.6163
16230TIP3   OH270180   6.159   2.726  12.798 -0.5718 -0.3014 -0.0806
16230TIP3    H170181   6.198   2.808  12.771  0.0067 -0.4078  0.3991
16230TIP3    H270182   6.065   2.741  12.794 -0.4998  0.9916  1.7200
16231TIP3   OH270183   4.870   5.441  16.935 -0.1532  0.1413 -0.0996
16231TIP3    H170184   4.834   5.489  16.861 -1.0619  0.5138  0.5763
16231TIP3    H270185   4.811   5.367  16.947  0.1012 -0.0262  0.1372
16232TIP3   OH270186   0.294   6.311  14.717  0.3205 -0.7653  0.6088
16232TIP3    H170187   0.303   6.234  14.773 -1.9834 -3.4623 -2.3850
16232TIP3    H270188   0.202   6.311  14.690 -0.0482  3.6133  1.0549
16233TIP3   OH270189   1.998   2.415  14.651 -0.6357  0.3806  0.2238
16233TIP3    H170190   2.047   2.497  14.658  0.5975 -0.1105 -1.6606
16233TIP3    H270191   2.037   2.357  14.716  0.0849  0.5754 -0.0291
16234TIP3   OH270192   3.966   6.134   4.651  0.1520  0.0693 -0.7344
16234TIP3    H170193   4.023   6.158   4.578  4.3646  1.1024  2.5560
16234TIP3    H270194   3.976   6.039   4.659  1.1032  0.1876 -0.4502
16235TIP3   OH270195   2.857   1.918  11.791  0.7013 -0.2749 -0.1148
16235TIP3    H170196   2.883   1.843  11.737 -0.9616 -2.0509  1.4029
16235TIP3    H270197   2.855   1.883  11.881 -0.7251  1.4197  0.5677
16236TIP3   OH270198   6.159   3.075  14.981  0.4553 -0.2732  0.1670
16236TIP3    H170199   6.226   3.126  14.937 -0.5364  0.1890 -0.8508
16236TIP3    H270200   6.204   3.038  15.057  1.9243 -0.2189 -0.6324
16237TIP3   OH270201   0.576   0.017  13.669 -0.4287  0.0439 -0.2014
16237TIP3    H170202   0.579  -0.053  13.604  0.4459 -1.5649  1.4847
16237TIP3    H270203   0.483   0.032  13.685 -0.6315 -1.3447  0.0210
16238TIP3   OH270204   0.707   5.318  13.631  0.3090  0.5368  0.4007
16238TIP3    H170205   0.678   5.277  13.550  2.5314 -0.3661  0.0006
16238TIP3    H270206   0.705   5.248  13.696  0.6405  0.7202  0.6129
16239TIP3   OH270207   2.134   1.640  12.615  0.2790  0.1226  0.0789
16239TIP3    H170208   2.121   1.700  12.688 -0.5165  0.2245 -0.1423
16239TIP3    H270209   2.215   1.593  12.637  1.3092  1.7423 -0.0900
16240TIP3   OH270210   2.733   5.347   3.599  0.2199 -0.0944  0.2005
16240TIP3    H170211   2.660   5.346   3.661  0.1065  0.1472  0.0724
16240TIP3    H270212   2.805   5.386   3.648 -0.0163  0.5770  0.0191
16241TIP3   OH270213   6.760   0.039  16.075 -0.0533 -0.0334 -0.1398
16241TIP3    H170214   6.665   0.027  16.074  0.1760 -2.6147  0.9037
16241TIP3    H270215   6.789   0.014  15.987 -0.0989 -2.4938  0.4879
16242TIP3   OH270216   3.732   5.779  13.592  0.1489 -0.3689  0.6803
16242TIP3    H170217   3.652   5.811  13.551  0.3021  1.2578  1.5549
16242TIP3    H270218   3.712   5.689  13.616 -0.5811 -0.7603 -1.2053
16243TIP3   OH270219   5.307   5.618  14.906  0.4738 -0.1193 -0.1235
16243TIP3    H170220   5.347   5.582  14.827 -1.3626 -0.1843 -1.0847
16243TIP3    H270221   5.373   5.607  14.974  2.3312  0.4339 -1.7518
16244TIP3   OH270222   3.600   6.377   5.657  0.4396 -0.0150 -0.4629
16244TIP3    H170223   3.510   6.409   5.668  0.6064 -0.0368  1.2278
16244TIP3    H270224   3.609   6.309   5.724  2.7703  2.3667  1.8515
16245TIP3   OH270225   5.649   4.973  11.594 -0.1732 -0.0380  0.0206
16245TIP3    H170226   5.568   4.923  11.593  1.2355 -2.5213 -1.9817
16245TIP3    H270227   5.686   4.962  11.507  2.2907  1.0584  0.8179
16246TIP3   OH270228   6.092   4.597   2.145  0.4341 -0.3371  0.0623
16246TIP3    H170229   6.084   4.587   2.050  0.9841 -0.7990  0.0577
16246TIP3    H270230   6.185   4.580   2.163 -0.1897 -3.1762  1.0129
16247TIP3   OH270231   0.228   2.059  10.468  0.2896 -0.1583  0.8229
16247TIP3    H170232   0.279   1.986  10.505 -0.1449 -0.6923  0.3810
16247TIP3    H270233   0.206   2.114  10.544  1.6209  0.1531  1.0075
16248TIP3   OH270234   4.220   2.751   6.597  0.2186 -0.0174  0.5143
16248TIP3    H170235   4.308   2.788   6.607  0.2569 -0.5680  2.5925
16248TIP3    H270236   4.165   2.803   6.656 -0.7772  0.0245 -0.4255
16249TIP3   OH270237   6.486   0.616   0.531 -0.0405  0.1698  0.3875
16249TIP3    H170238   6.427   0.605   0.605 -0.6173  4.1707  0.7143
16249TIP3    H270239   6.428   0.622   0.455  0.0980  1.4016  0.3611
16250TIP3   OH270240   2.031   1.671  17.252  0.2004  0.3775  0.1787
16250TIP3    H170241   2.041   1.584  17.212  1.8585 -1.0394  3.3408
16250TIP3    H270242   1.938   1.691  17.244 -0.1694 -1.5388 -0.8420
16251TIP3   OH270243   6.404   1.101  14.442 -0.4979  0.3496 -0.8429
16251TIP3    H170244   6.463   1.031  14.417 -1.2527 -0.4608 -0.4193
16251TIP3    H270245   6.317   1.061  14.440 -0.7821  0.7223  1.1940
16252TIP3   OH270246   3.749   5.775  13.117  0.2840  0.1450  0.0170
16252TIP3    H170247   3.690   5.754  13.045  1.9352  0.8105 -1.6142
16252TIP3    H270248   3.757   5.871  13.115  1.3079  0.0812  0.2710
16253TIP3   OH270249   5.985   3.992  13.052 -0.1116 -0.3013  0.4450
16253TIP3    H170250   5.982   4.011  12.959 -2.4449 -0.5182  0.4381
16253TIP3    H270251   5.959   4.074  13.094 -1.7121 -0.9316  0.7565
16254TIP3   OH270252   5.951   3.373  12.283  0.1502  0.1814 -0.0697
16254TIP3    H170253   5.880   3.382  12.220  1.4339  1.3607 -1.4575
16254TIP3    H270254   5.924   3.426  12.358 -1.4246 -1.2745  0.4288
16255TIP3   OH270255   5.334   6.548  11.527  0.8386 -0.6069 -0.1515
16255TIP3    H170256   5.373   6.495  11.458 -1.2633 -0.2857 -1.6864
16255TIP3    H270257   5.240   6.544  11.511  0.4512  1.7946  0.9794
16256TIP3   OH270258   0.087   5.716  11.400 -0.3701  0.0743 -0.2677
16256TIP3    H170259   0.157   5.704  11.335 -0.5977 -0.2201 -0.4654
16256TIP3    H270260   0.133   5.724  11.483 -0.1457 -2.0510 -0.1165
16257TIP3   OH270261   2.315   2.257   4.562  0.5560 -0.2480 -0.3224
16257TIP3    H170262   2.331   2.341   4.605  2.2061 -0.1319 -1.0556
16257TIP3    H270263   2.222   2.240   4.576  0.7648  0.3154  2.2446
16258TIP3   OH270264   5.644   2.640  13.377 -0.1352 -0.9128  0.3337
16258TIP3    H170265   5.642   2.608  13.287 -2.0319  0.5838 -0.1997
16258TIP3    H270266   5.729   2.609  13.411  0.1217 -2.4827 -1.5630
16259TIP3   OH270267   5.131   6.523   5.476  0.1113  0.4199  0.0387
16259TIP3    H170268   5.095   6.467   5.544  1.2546  0.3741  0.6211
16259TIP3    H270269   5.113   6.612   5.506  1.1613  0.4158  0.7370
16260TIP3   OH270270   1.012   2.367   1.440  0.1849 -0.6466  0.4145
16260TIP3    H170271   0.935   2.388   1.388  0.7756  0.2144 -0.1456
16260TIP3    H270272   1.073   2.328   1.378  1.5570  1.9345 -0.0236
16261TIP3   OH270273   2.451   6.453   4.104 -0.2698  0.1886  0.5163
16261TIP3    H170274   2.390   6.379   4.110 -1.0436  0.6447 -1.0282
16261TIP3    H270275   2.396   6.527   4.079  0.9537  0.5032 -1.4753
16262TIP3   OH270276   0.444   1.166   6.216  0.2148 -0.1358  0.4319
16262TIP3    H170277   0.375   1.232   6.225 -0.0220 -0.5831  2.3921
16262TIP3    H270278   0.524   1.212   6.241  0.2910 -0.1674  0.2406
16263TIP3   OH270279   6.230   0.834  14.883 -0.8126 -0.4059 -0.5673
16263TIP3    H170280   6.277   0.896  14.939 -1.5598 -1.4556  1.3208
16263TIP3    H270281   6.291   0.816  14.811  0.6940  0.0733  0.5334
16264TIP3   OH270282   2.364   2.492   0.121 -0.2693  0.9577  0.2768
16264TIP3    H170283   2.427   2.552   0.163  0.7357 -0.8056  1.3883
16264TIP3    H270284   2.390   2.405   0.151 -3.2649  0.1297  0.7461
16265TIP3   OH270285   6.051   0.359  13.273  0.3630  0.0339  0.5092
16265TIP3    H170286   5.959   0.368  13.298  0.0954 -1.8921  0.3669
16265TIP3    H270287   6.075   0.445  13.240 -1.9710  0.0845 -1.3543
16266TIP3   OH270288   5.921   1.474  17.074  0.1656 -0.4921  0.2501
16266TIP3    H170289   5.999   1.438  17.117  0.4516 -0.8035 -0.5058
16266TIP3    H270290   5.917   1.565  17.104  0.9735 -0.3971  0.0885
16267TIP3   OH270291   6.144   0.092  13.263  0.4535  0.5671  0.2827
16267TIP3    H170292   6.237   0.090  13.288  1.6730  0.5247 -3.6257
16267TIP3    H270293   6.120   0.185  13.270 -0.1990  0.2599  3.9728
16268TIP3   OH270294   3.383   2.488  13.683 -0.7344 -0.0824  0.2307
16268TIP3    H170295   3.465   2.504  13.636 -0.8829  0.1972  0.0608
16268TIP3    H270296   3.337   2.424  13.629 -1.9415  1.9514 -1.2920
16269TIP3   OH270297   4.886   4.232   2.299  0.1276 -0.3300  0.5079
16269TIP3    H170298   4.872   4.284   2.220 -0.6110 -1.5909 -0.2114
16269TIP3    H270299   4.889   4.297   2.369 -0.3258  0.7288 -0.4161
16270TIP3   OH270300   5.868   5.956   5.506 -0.4389  0.5554 -0.2156
16270TIP3    H170301   5.849   6.050   5.510 -0.4432  0.6024 -1.1631
16270TIP3    H270302   5.805   5.917   5.567 -1.2146  1.0656 -0.6634
16271TIP3   OH270303   6.708   4.575   3.051  0.0576 -0.1875 -0.5709
16271TIP3    H170304   6.799   4.606   3.049  0.0720 -0.2494 -1.0001
16271TIP3    H270305   6.699   4.535   3.138  0.2397  0.4078 -0.2674
16272TIP3   OH270306   3.824   0.023   2.773  0.5934 -0.0743  0.1118
16272TIP3    H170307   3.823   0.118   2.786  0.1542  0.0674 -0.9142
16272TIP3    H270308   3.765  -0.011   2.841  0.0721  0.4550 -0.0705
16273TIP3   OH270309   1.772   4.820   2.102  0.0814  0.1549  0.7373
16273TIP3    H170310   1.690   4.850   2.063  0.8669  2.7498  0.8937
16273TIP3    H270311   1.840   4.868   2.056  1.4091 -0.6089  1.8105
16274TIP3   OH270312   1.185   5.014  13.745 -0.0960  0.0378  0.1412
16274TIP3    H170313   1.207   5.088  13.801  1.3619 -0.6576  0.5478
16274TIP3    H270314   1.090   5.015  13.740 -0.1210  1.6675  0.4887
16275TIP3   OH270315   4.708   4.949   4.384  0.1826 -0.3066 -0.2887
16275TIP3    H170316   4.705   5.034   4.339  1.4637 -0.2191 -0.2371
16275TIP3    H270317   4.679   4.886   4.318  0.2167  0.0440 -0.6417
16276TIP3   OH270318   3.343   3.348  11.916  0.1020  0.0088  0.1856
16276TIP3    H170319   3.352   3.332  11.822 -0.8777  0.9205 -0.0743
16276TIP3    H270320   3.319   3.263  11.953  2.7516 -0.9357 -0.0104
16277TIP3   OH270321   1.472   1.896   3.581 -0.6035  0.1736 -0.1470
16277TIP3    H170322   1.427   1.854   3.508  0.2811 -0.8738 -0.1047
16277TIP3    H270323   1.480   1.828   3.647 -0.6063  0.8669  0.5804
16278TIP3   OH270324   4.160   3.265   3.818 -0.6763  0.7310 -1.0818
16278TIP3    H170325   4.235   3.302   3.866 -0.2918  0.2185 -1.2846
16278TIP3    H270326   4.190   3.258   3.728  0.5150 -3.1277 -0.5806
16279TIP3   OH270327   2.014   2.881  15.360  0.1964 -0.0119 -0.2128
16279TIP3    H170328   1.947   2.923  15.415  0.4699  0.4868 -0.2609
16279TIP3    H270329   1.974   2.877  15.273 -0.3683 -1.0969  0.0754
16280TIP3   OH270330   3.311   6.757  10.791  0.6567  0.3015 -0.0274
16280TIP3    H170331   3.321   6.847  10.760 -1.5349  1.4062  2.1191
16280TIP3    H270332   3.220   6.735  10.770  0.1601 -0.1440  2.3345
16281TIP3   OH270333   0.382   5.131   5.957  0.0050 -0.8038  0.2054
16281TIP3    H170334   0.302   5.184   5.961  1.0109  0.8276 -0.2682
16281TIP3    H270335   0.413   5.126   6.047  0.0564 -0.3131  0.2191
16282TIP3   OH270336   6.648   1.708  16.247 -0.2947 -0.5527  0.3293
16282TIP3    H170337   6.609   1.647  16.184 -0.8200 -0.3007  0.4091
16282TIP3    H270338   6.708   1.653  16.297  1.4674 -0.4228 -1.5059
16283TIP3   OH270339   0.672   6.459   2.544 -0.1386  0.3146  0.3236
16283TIP3    H170340   0.728   6.382   2.550  1.9855  1.8554  1.3953
16283TIP3    H270341   0.614   6.453   2.620  1.0272  0.5161  1.2445
16284TIP3   OH270342   3.559   5.804   1.842 -0.3133 -0.6634 -0.2549
16284TIP3    H170343   3.613   5.883   1.846 -1.0601 -0.1667  0.6865
16284TIP3    H270344   3.503   5.817   1.766 -1.5195  0.4940  0.7700
16285TIP3   OH270345   3.143   1.670   5.089 -0.3998  0.0857  0.2112
16285TIP3    H170346   3.157   1.708   5.002  0.0687  1.2149  0.7637
16285TIP3    H270347   3.228   1.674   5.131  0.0076 -2.8754 -0.1602
16286TIP3   OH270348   0.923   0.146  16.156  0.1741 -0.1472  0.0388
16286TIP3    H170349   0.852   0.162  16.218  0.8629 -2.7648  1.6814
16286TIP3    H270350   0.881   0.098  16.084 -0.3185  1.4712 -0.8063
16287TIP3   OH270351   4.282   1.942   1.871  0.3013  0.3105  0.2022
16287TIP3    H170352   4.203   1.970   1.825 -0.0146  0.0955  0.6057
16287TIP3    H270353   4.353   1.955   1.808  0.3094  2.8733  0.6461
16288TIP3   OH270354   5.949   0.231  13.566  0.1411  0.3574 -0.1810
16288TIP3    H170355   5.994   0.203  13.646 -2.8379  0.8838  1.8171
16288TIP3    H270356   5.953   0.155  13.508 -2.5161 -2.3056  2.7389
16289TIP3   OH270357   0.425   4.664  14.487 -0.1822  0.2816  0.1742
16289TIP3    H170358   0.439   4.706  14.572  0.5347  1.5439 -0.5276
16289TIP3    H270359   0.513   4.661  14.447 -0.4032 -0.9101 -0.2435
16290TIP3   OH270360   0.206   5.020   4.362  0.0796  0.1628  0.0849
16290TIP3    H170361   0.286   5.046   4.408 -0.5871 -0.4952  1.6882
16290TIP3    H270362   0.192   5.090   4.298  3.8659 -1.4686 -2.8345
16291TIP3   OH270363   1.587   6.398   2.599 -0.0152 -0.0964 -0.2922
16291TIP3    H170364   1.601   6.370   2.689  0.2558  2.0036  0.3620
16291TIP3    H270365   1.492   6.400   2.589 -0.0488 -0.0053  0.0445
16292TIP3   OH270366   4.365   3.693   6.275 -0.8838 -0.6526  0.1362
16292TIP3    H170367   4.344   3.786   6.288  2.0857  0.0081  0.8948
16292TIP3    H270368   4.458   3.686   6.296 -1.2311 -4.0434  1.1501
16293TIP3   OH270369   5.928   5.639  15.669  0.6628 -0.5381  0.1294
16293TIP3    H170370   5.947   5.717  15.617 -1.3520 -0.1524 -0.1303
16293TIP3    H270371   5.848   5.661  15.717  0.8992 -1.9123  1.2094
16294TIP3   OH270372   5.661   6.504   4.648 -0.4622 -0.6135 -0.0967
16294TIP3    H170373   5.734   6.513   4.587  0.6236 -0.4021  1.2065
16294TIP3    H270374   5.675   6.419   4.690 -1.2085 -0.7649 -0.1336
16295TIP3   OH270375   3.338   2.859  15.706  0.0420  0.5937  0.0263
16295TIP3    H170376   3.316   2.769  15.729 -0.2421  0.7471  0.3603
16295TIP3    H270377   3.412   2.882  15.763  1.3627 -0.0529 -1.3673
16296TIP3   OH270378   3.632   4.921   3.064 -0.0439  0.2791 -0.1880
16296TIP3    H170379   3.680   4.994   3.023  2.1479 -2.0496 -2.1015
16296TIP3    H270380   3.697   4.880   3.121 -0.6199 -1.2554 -0.5988
16297TIP3   OH270381   6.558   5.836   5.660 -0.7043 -0.7366 -0.8246
16297TIP3    H170382   6.552   5.750   5.618  2.9221 -0.9480 -1.2330
16297TIP3    H270383   6.617   5.822   5.734  1.2980  1.6199 -1.8277
16298TIP3   OH270384   2.575   3.837  13.403 -0.6258  0.4170 -0.1693
16298TIP3    H170385   2.497   3.804  13.358 -0.5503 -1.5534  1.0068
16298TIP3    H270386   2.648   3.798  13.356 -0.5063 -0.6230  0.8285
16299TIP3   OH270387   4.410   1.284  15.932 -0.1096 -0.3404 -0.2030
16299TIP3    H170388   4.448   1.333  15.859  1.8138 -1.5862 -0.1167
16299TIP3    H270389   4.361   1.213  15.890  0.3753 -0.6212 -0.3018
16300TIP3   OH270390   6.253   4.432  13.923  0.5243  0.0798 -0.4725
16300TIP3    H170391   6.164   4.467  13.912 -0.0049 -1.0070  0.2335
16300TIP3    H270392   6.303   4.506  13.957 -0.6844  0.1019  1.4186
16301TIP3   OH270393   4.526   0.974  13.792  0.2505  0.8418 -0.3765
16301TIP3    H170394   4.442   0.939  13.761 -0.3614  0.8599  1.1951
16301TIP3    H270395   4.503   1.049  13.846  1.0535 -0.6527  2.1919
16302TIP3   OH270396   0.351   6.037  13.973 -0.1895 -0.2349  0.6646
16302TIP3    H170397   0.375   6.111  13.917 -0.0908  0.7680  1.9856
16302TIP3    H270398   0.405   5.965  13.941  2.4323  1.1962  1.6304
16303TIP3   OH270399   4.962   1.718  10.997  0.1564 -0.2424  1.1163
16303TIP3    H170400   4.959   1.813  11.006 -2.5088 -0.2239  0.6493
16303TIP3    H270401   4.909   1.699  10.920 -0.0391 -2.1718  1.6683
16304TIP3   OH270402   3.618   6.562   5.102  0.1108  0.2541 -0.9638
16304TIP3    H170403   3.658   6.557   5.015 -0.4679 -0.9191 -1.1857
16304TIP3    H270404   3.601   6.655   5.116  4.5015  1.1367 -0.0870
16305TIP3   OH270405   5.209   3.934   0.905 -0.1428 -0.3363 -0.5688
16305TIP3    H170406   5.238   3.964   0.991 -2.6391 -0.9969  0.5722
16305TIP3    H270407   5.288   3.939   0.851  1.3469  0.7418  1.5518
16306TIP3   OH270408   3.226   5.111  12.070 -0.1746 -0.3317  0.2612
16306TIP3    H170409   3.312   5.083  12.103 -0.6944 -2.7121 -0.2061
16306TIP3    H270410   3.244   5.138  11.980  0.1048 -0.9511  0.1187
16307TIP3   OH270411   1.660   3.799  12.708  0.5561 -0.3066 -0.2524
16307TIP3    H170412   1.604   3.736  12.752  1.1733 -0.1737  0.7665
16307TIP3    H270413   1.600   3.865  12.673  0.0990  0.1561  1.3316
16308TIP3   OH270414   3.958   2.274  15.836  0.3214 -0.3382 -0.1665
16308TIP3    H170415   4.003   2.217  15.774  2.7597  1.2044  0.0823
16308TIP3    H270416   3.915   2.340  15.782 -0.8808 -1.2388 -0.3526
16309TIP3   OH270417   0.556   0.993   6.418 -0.1068  0.4453 -0.1906
16309TIP3    H170418   0.477   1.018   6.368 -0.4309  0.0851  0.1396
16309TIP3    H270419   0.523   0.966   6.503  0.3572  0.0452 -0.1359
16310TIP3   OH270420   0.031   4.664   0.424  0.8140  0.1727 -0.6415
16310TIP3    H170421   0.072   4.711   0.497  0.6411 -0.3937 -0.1708
16310TIP3    H270422  -0.048   4.714   0.404  1.0406  0.5224 -0.6668
16311TIP3   OH270423   1.754   6.382   0.971  0.3595 -0.2675 -0.7315
16311TIP3    H170424   1.800   6.308   1.011 -0.0470 -0.2949 -0.3072
16311TIP3    H270425   1.689   6.409   1.036  1.4236  1.3593 -0.2911
16312TIP3   OH270426   0.640   2.338  10.754 -0.0567  0.2572  0.2694
16312TIP3    H170427   0.680   2.423  10.740  0.8551  0.3090  2.8030
16312TIP3    H270428   0.607   2.313  10.668  2.0374  1.9279 -1.1104
16313TIP3   OH270429   3.977   0.403   3.296 -0.3659  0.4530 -0.2791
16313TIP3    H170430   3.926   0.470   3.341  1.0744  0.9500  0.6647
16313TIP3    H270431   3.949   0.321   3.338  0.2430  0.8116  0.8810
16314TIP3   OH270432   6.217   5.356   6.450 -0.0066  0.1622 -0.5010
16314TIP3    H170433   6.137   5.399   6.480 -1.1758 -1.6709 -0.8504
16314TIP3    H270434   6.231   5.285   6.513  1.5579  0.6621 -0.2502
16315TIP3   OH270435   4.368   5.764   6.644 -0.6035  0.7875 -0.0767
16315TIP3    H170436   4.463   5.752   6.637 -0.8566 -2.0157  0.0584
16315TIP3    H270437   4.338   5.762   6.553 -0.7637 -1.6437 -0.0380
16316TIP3   OH270438   0.328   4.512  16.435 -0.1788  0.0419 -0.3752
16316TIP3    H170439   0.416   4.521  16.473 -0.1592 -2.0344  0.1727
16316TIP3    H270440   0.270   4.505  16.510 -0.3543 -2.2377 -0.6702
16317TIP3   OH270441   6.494   2.046   5.920  0.0231  0.1881  0.0954
16317TIP3    H170442   6.461   2.051   5.830  0.2433 -0.8877 -0.0479
16317TIP3    H270443   6.442   1.977   5.961 -0.6098  1.1820  1.0392
16318TIP3   OH270444   1.416   0.856   4.662  0.4050 -0.1027 -0.1079
16318TIP3    H170445   1.500   0.837   4.705 -0.4132 -1.3382  1.0244
16318TIP3    H270446   1.367   0.907   4.726 -1.0798 -2.5117  0.8356
16319TIP3   OH270447   5.068   3.747  17.057 -0.1460 -0.1438 -0.0368
16319TIP3    H170448   5.105   3.831  17.031  1.7746 -0.9302 -0.0725
16319TIP3    H270449   5.119   3.683  17.008 -2.2609 -1.3208 -0.8227
16320TIP3   OH270450   6.619   3.561   1.040  0.1340  0.1974  0.0657
16320TIP3    H170451   6.545   3.540   1.098  0.4186 -0.3589  0.2333
16320TIP3    H270452   6.631   3.655   1.050  1.5808 -0.1703  2.6339
16321TIP3   OH270453   4.635   4.613   6.341 -0.2808  0.0553 -0.0648
16321TIP3    H170454   4.648   4.659   6.423 -1.6007 -0.0138  0.2054
16321TIP3    H270455   4.570   4.665   6.294  0.1942 -0.0947 -0.9231
16322TIP3   OH270456   2.782   1.099   4.088  0.4233  0.6908  0.9133
16322TIP3    H170457   2.688   1.106   4.070  0.0687 -3.9588 -0.3319
16322TIP3    H270458   2.824   1.145   4.015 -0.9108  1.1828  0.4299
16323TIP3   OH270459   0.898   5.817  15.758  0.1572 -0.3786 -0.1792
16323TIP3    H170460   0.917   5.896  15.808 -0.0714  0.8730 -1.9870
16323TIP3    H270461   0.945   5.747  15.805  0.4572  0.8138  1.3788
16324TIP3   OH270462   3.639   1.463  17.175 -0.2315 -0.2206  0.0081
16324TIP3    H170463   3.711   1.469  17.113 -0.9358  2.8366 -0.6921
16324TIP3    H270464   3.676   1.491  17.258 -0.4501  0.7638 -0.2184
16325TIP3   OH270465   1.575   5.087  13.107  0.1417  0.4591  0.0431
16325TIP3    H170466   1.635   5.020  13.138 -0.5749  0.7222  2.2029
16325TIP3    H270467   1.630   5.148  13.057  1.4893  0.1599  1.1056
16326TIP3   OH270468   0.110   4.191   0.196  0.0385 -0.1798 -0.7347
16326TIP3    H170469   0.053   4.119   0.225  1.5657 -1.4296 -0.7021
16326TIP3    H270470   0.101   4.257   0.265 -0.7519 -0.6826 -0.3290
16327TIP3   OH270471   3.062   0.223  15.216 -0.2776  0.0813 -0.5485
16327TIP3    H170472   3.079   0.245  15.125  1.4154 -0.1439 -0.3074
16327TIP3    H270473   3.148   0.211  15.255 -0.9083  1.4979  1.4205
16328TIP3   OH270474   2.783   5.228   1.166 -0.3363  0.3648 -0.3925
16328TIP3    H170475   2.791   5.314   1.125  3.3733  0.6333  0.4984
16328TIP3    H270476   2.742   5.245   1.250  2.1132  1.7373  0.6320
16329TIP3   OH270477   0.122   4.145   0.576 -0.3902 -0.0367 -0.0680
16329TIP3    H170478   0.051   4.081   0.564 -1.5580  0.6844  2.3627
16329TIP3    H270479   0.079   4.222   0.614  1.7350  0.2278  2.0522
16330TIP3   OH270480   6.605   4.238  12.159  0.1414 -0.0199  0.2826
16330TIP3    H170481   6.510   4.227  12.161  0.1138  0.2804  0.9763
16330TIP3    H270482   6.637   4.180  12.228  0.5294 -0.6734 -0.4293
16331TIP3   OH270483   3.375   4.358  11.151  0.1746  0.2434  0.8603
16331TIP3    H170484   3.443   4.424  11.165  0.9390 -0.4546  0.5182
16331TIP3    H270485   3.423   4.275  11.145 -0.5204 -0.0638 -1.2593
16332TIP3   OH270486   1.042   4.666  12.304 -0.2906  0.1518  0.5397
16332TIP3    H170487   0.987   4.637  12.377  0.4218 -0.8064  0.7055
16332TIP3    H270488   1.045   4.761  12.313  0.3899 -0.0009  2.2116
16333TIP3   OH270489   0.554   4.639   1.466 -0.1982 -0.0936  0.0546
16333TIP3    H170490   0.538   4.712   1.408  0.2677  0.5351  0.6940
16333TIP3    H270491   0.470   4.623   1.509  0.1106  1.2708  1.2436
16334TIP3   OH270492   0.873   4.753   0.621 -0.3014  0.3719 -1.0253
16334TIP3    H170493   0.790   4.733   0.664 -1.0167  2.0177 -1.5525
16334TIP3    H270494   0.935   4.690   0.657 -1.2706  0.5162  1.0469
16335TIP3   OH270495   1.661   6.698  10.938 -0.3772 -0.3164 -0.3529
16335TIP3    H170496   1.674   6.607  10.966  0.8949 -0.6886 -2.0139
16335TIP3    H270497   1.739   6.743  10.969  0.4946 -0.4907 -2.1699
16336TIP3   OH270498   6.439   5.844  13.248 -0.3829  0.7213  0.1269
16336TIP3    H170499   6.407   5.768  13.296 -0.1072  0.9746  0.7271
16336TIP3    H270500   6.513   5.811  13.197  0.3581  0.7656  1.1269
16337TIP3   OH270501   4.181   1.369  14.696 -0.5987 -0.1032  0.2749
16337TIP3    H170502   4.103   1.326  14.732 -0.2058  0.2592  1.5945
16337TIP3    H270503   4.210   1.428  14.765 -0.4750  1.4942 -1.0780
16338TIP3   OH270504   6.306   5.058  14.608 -0.6801  0.1075 -0.2123
16338TIP3    H170505   6.324   5.141  14.653  2.1093 -0.1425 -0.7212
16338TIP3    H270506   6.250   5.010  14.670 -0.1841  1.3277  1.2583
16339TIP3   OH270507   6.455   6.167   1.846  0.1258  0.1445  0.2983
16339TIP3    H170508   6.498   6.249   1.822 -0.5471  0.4943  0.2805
16339TIP3    H270509   6.472   6.157   1.940  0.5795  0.0769  0.2112
16340TIP3   OH270510   2.389   0.521  14.641  0.4132  0.1608  0.3541
16340TIP3    H170511   2.310   0.573  14.658  0.6339  0.3422  0.8534
16340TIP3    H270512   2.461   0.581  14.660  0.6836  0.3071 -1.0556
16341TIP3   OH270513   2.231   1.618  10.805  0.0019 -0.0191 -0.0298
16341TIP3    H170514   2.300   1.561  10.840 -1.0374 -0.7178  0.9127
16341TIP3    H270515   2.279   1.691  10.765  1.2977 -0.5860  0.4336
16342TIP3   OH270516   2.632   2.684   1.427  0.5857  0.5070  0.3406
16342TIP3    H170517   2.644   2.723   1.341 -0.4395 -1.0140 -0.5475
16342TIP3    H270518   2.555   2.728   1.463 -0.0760 -0.0983 -0.3101
16343TIP3   OH270519   4.762   0.502   1.861  0.7182 -0.4125 -0.0223
16343TIP3    H170520   4.830   0.537   1.919  0.3891 -2.1855  1.5396
16343TIP3    H270521   4.809   0.470   1.784  1.2798  1.0883 -0.3304
16344TIP3   OH270522   2.437   1.454  16.052 -0.1659  0.2128  0.1791
16344TIP3    H170523   2.514   1.501  16.019  0.4468 -1.0327 -0.2360
16344TIP3    H270524   2.386   1.432  15.974  0.2984 -1.0473  0.2012
16345TIP3   OH270525   5.923   0.594   5.358 -0.6053  0.0182 -0.3662
16345TIP3    H170526   5.909   0.567   5.448 -0.5065 -1.8913 -0.8760
16345TIP3    H270527   5.925   0.690   5.361 -1.3219  0.0079  1.5269
16346TIP3   OH270528   1.132   1.833   4.574  0.4383 -0.6666 -0.1839
16346TIP3    H170529   1.063   1.899   4.568  1.4613  0.3698 -0.8395
16346TIP3    H270530   1.085   1.750   4.574 -0.7603 -0.0927 -2.9068
16347TIP3   OH270531   1.775   2.301  15.678  0.0087 -0.2317  0.4042
16347TIP3    H170532   1.719   2.246  15.622 -0.6637  0.4367  0.4015
16347TIP3    H270533   1.745   2.390  15.661  2.6953  0.4333 -1.4313
16348TIP3   OH270534   1.722   2.672   4.821 -0.5415 -0.0322  0.0913
16348TIP3    H170535   1.655   2.736   4.845 -1.6273 -1.4010  0.8410
16348TIP3    H270536   1.673   2.597   4.787  0.7883  0.3925 -3.1477
16349TIP3   OH270537   2.738   3.728   5.167  0.7553  0.0106  0.5474
16349TIP3    H170538   2.831   3.708   5.160  0.9869  1.4205 -1.0677
16349TIP3    H270539   2.733   3.796   5.234  1.1753  1.3443 -0.7249
16350TIP3   OH270540   3.144   3.656   4.807  0.2522  0.7307 -0.1453
16350TIP3    H170541   3.055   3.683   4.783 -0.2283  0.0574  0.7947
16350TIP3    H270542   3.183   3.735   4.846 -0.4692  0.6336  0.8155
16351TIP3   OH270543   3.471   6.172   0.180 -0.2367 -0.0806 -0.4280
16351TIP3    H170544   3.474   6.077   0.180 -1.2893 -0.1206 -0.3468
16351TIP3    H270545   3.470   6.195   0.273  0.2370  0.0316 -0.4440
16352TIP3   OH270546   0.500   4.044   2.630 -0.4763  0.5023 -0.3230
16352TIP3    H170547   0.474   4.131   2.599  0.1850  0.7404 -0.2266
16352TIP3    H270548   0.595   4.044   2.623 -0.3139  0.4551  1.4378
16353TIP3   OH270549   2.089   5.318   6.185  0.3991 -0.1854 -0.6344
16353TIP3    H170550   2.036   5.309   6.107 -3.2397  0.6936  1.5144
16353TIP3    H270551   2.083   5.411   6.208  0.6518 -0.5677  1.1329
16354TIP3   OH270552   1.161   1.709  16.370 -0.2681  0.5876 -0.1505
16354TIP3    H170553   1.243   1.756  16.356  0.0301  0.4747  1.0764
16354TIP3    H270554   1.149   1.711  16.465 -2.9418  2.7307 -0.4211
16355TIP3   OH270555   5.799   1.801  11.743 -0.1636 -0.8296  0.2849
16355TIP3    H170556   5.880   1.827  11.700  0.4902 -4.2114 -0.8192
16355TIP3    H270557   5.730   1.845  11.694  0.8656  0.3739 -0.1402
16356TIP3   OH270558   0.769   1.188  12.125 -0.7030  0.5828 -0.3857
16356TIP3    H170559   0.745   1.103  12.088  0.3333  0.4380 -0.7438
16356TIP3    H270560   0.773   1.173  12.219  0.6414 -0.0750 -0.5354
16357TIP3   OH270561   5.721   2.509  14.302  0.3872  0.9410 -0.0158
16357TIP3    H170562   5.740   2.475  14.214  0.3023  2.1761 -0.5343
16357TIP3    H270563   5.681   2.594  14.286 -1.7151  0.2486  1.1578
16358TIP3   OH270564   1.624   0.052   1.451 -0.1059  0.5967  0.6469
16358TIP3    H170565   1.622   0.146   1.472 -1.4568  0.4380  1.3119
16358TIP3    H270566   1.572   0.011   1.520  2.2644 -0.9420  1.6687
16359TIP3   OH270567   1.219   3.111   0.623  0.2688 -0.1462  1.1905
16359TIP3    H170568   1.145   3.128   0.682  0.0954 -1.0363  1.2347
16359TIP3    H270569   1.190   3.039   0.567  0.5376  0.5073  0.1882
16360TIP3   OH270570   3.824   1.353   5.510  0.0385  0.1203  0.2680
16360TIP3    H170571   3.815   1.429   5.568  0.8728 -0.0126  0.5849
16360TIP3    H270572   3.756   1.293   5.538 -1.8169  1.4568 -1.1351
16361TIP3   OH270573   0.243   6.079  14.884 -0.1991  0.0880  0.1447
16361TIP3    H170574   0.311   6.020  14.918  0.6670  1.1653  0.3650
16361TIP3    H270575   0.240   6.150  14.948 -2.4097 -0.4973  0.7734
16362TIP3   OH270576   0.598   0.927  16.363 -1.5350  0.0030 -0.1611
16362TIP3    H170577   0.660   0.855  16.356 -2.8876 -1.3554  0.8709
16362TIP3    H270578   0.637   0.987  16.427  0.0618  0.7255 -1.7616
16363TIP3   OH270579   6.612   1.416  12.819 -0.2879 -0.3791 -0.0824
16363TIP3    H170580   6.700   1.382  12.831  0.3053  1.4902  1.5725
16363TIP3    H270581   6.624   1.505  12.786 -1.3554  0.7751  2.3359
16364TIP3   OH270582   6.256   4.411  15.336 -0.3427 -0.0299  0.8889
16364TIP3    H170583   6.285   4.484  15.391  1.8054  0.4288 -0.7128
16364TIP3    H270584   6.222   4.453  15.257  1.4779 -0.6960 -0.3062
16365TIP3   OH270585   5.623   4.785   1.992  0.3640 -0.2631  0.3864
16365TIP3    H170586   5.636   4.858   1.932  0.2911 -0.9530 -0.4939
16365TIP3    H270587   5.699   4.788   2.051  0.8561 -0.0456 -0.2496
16366TIP3   OH270588   0.958   2.591  17.311  0.2536  0.1709  0.3667
16366TIP3    H170589   0.877   2.543  17.329 -0.3450  0.2715 -1.8288
16366TIP3    H270590   1.026   2.523  17.309 -0.1772 -0.2497 -0.2121
16367TIP3   OH270591   1.175   6.180   3.382  0.0206  0.0401 -0.4532
16367TIP3    H170592   1.212   6.091   3.386 -1.0198 -0.4150 -0.7776
16367TIP3    H270593   1.248   6.236   3.407  1.1725 -0.7849 -1.7905
16368TIP3   OH270594   3.805   2.775  12.021 -0.0595 -0.3203  0.0351
16368TIP3    H170595   3.845   2.852  11.980 -1.1410 -1.1076 -2.7698
16368TIP3    H270596   3.834   2.702  11.966 -1.7984 -1.4373  0.5468
16369TIP3   OH270597   0.549   5.989  15.111 -0.3130 -0.4135  0.6814
16369TIP3    H170598   0.494   5.942  15.048 -1.1633  0.1601  0.9842
16369TIP3    H270599   0.493   6.002  15.187  0.3937 -0.2229  1.1733
16370TIP3   OH270600   0.451   4.865   0.533  0.6219 -0.1843  0.0849
16370TIP3    H170601   0.522   4.803   0.514  0.1436 -0.9582  0.7366
16370TIP3    H270602   0.419   4.891   0.447  1.5547  0.0237 -0.2197
16371TIP3   OH270603   5.030   5.907  16.077  0.0479  0.3244 -0.7003
16371TIP3    H170604   4.979   5.967  16.022 -2.9384  0.9211  2.3611
16371TIP3    H270605   5.076   5.965  16.138  1.0089 -0.3849 -0.7385
16372TIP3   OH270606   0.051   0.403   4.280 -0.6983 -0.1807 -0.3074
16372TIP3    H170607   0.076   0.494   4.298  1.1352 -1.0651  2.1292
16372TIP3    H270608   0.090   0.385   4.195 -0.4920  1.1000 -0.5147
16373TIP3   OH270609   3.476   5.858   4.118 -0.2518 -0.4494  0.1670
16373TIP3    H170610   3.517   5.917   4.055 -1.4167  0.1339 -0.0809
16373TIP3    H270611   3.532   5.781   4.119  0.5932  0.1324 -0.4760
16374TIP3   OH270612   2.764   3.945   2.477  0.7365 -0.6247 -0.8521
16374TIP3    H170613   2.835   3.941   2.541  0.9342  0.9153 -0.9389
16374TIP3    H270614   2.698   3.884   2.510  0.2947  1.0290  1.4999
16375TIP3   OH270615   5.436   3.972  12.799  0.2430  0.0148  0.4079
16375TIP3    H170616   5.343   3.953  12.788 -0.2610  1.6324  1.5482
16375TIP3    H270617   5.461   4.017  12.718  0.0730 -0.5488  0.0414
16376TIP3   OH270618   1.541   4.568   4.636  0.0928 -0.3142 -0.3318
16376TIP3    H170619   1.604   4.510   4.678  0.6916  1.3584  1.2253
16376TIP3    H270620   1.478   4.589   4.706 -2.2218 -1.8404 -1.7886
16377TIP3   OH270621   2.399   2.523   0.436 -0.4635  0.3236  0.1574
16377TIP3    H170622   2.372   2.433   0.454 -0.2225  0.6182  2.2254
16377TIP3    H270623   2.356   2.545   0.353  0.2922 -2.0001 -0.9477
16378TIP3   OH270624   1.802   1.199  13.358 -0.2642 -0.1180 -0.5656
16378TIP3    H170625   1.894   1.227  13.351  0.2250 -1.6474 -0.6955
16378TIP3    H270626   1.796   1.159  13.445 -1.5684  2.4321  0.6065
16379TIP3   OH270627   5.880   2.485   4.182  0.7053 -0.5014  0.1088
16379TIP3    H170628   5.834   2.496   4.266  1.1196  0.0476  0.2690
16379TIP3    H270629   5.846   2.556   4.127 -1.1933 -2.1223 -0.9545
16380TIP3   OH270630   5.885   0.112   6.850  0.3806  0.0478 -0.0102
16380TIP3    H170631   5.872   0.206   6.861 -1.0775 -0.2923  1.5212
16380TIP3    H270632   5.803   0.080   6.814 -0.0122 -0.9365  1.6448
16381TIP3   OH270633   4.444   6.298   0.531  0.0282 -0.4350 -0.1606
16381TIP3    H170634   4.534   6.328   0.524 -1.5011  4.7718 -2.8749
16381TIP3    H270635   4.414   6.329   0.616  0.0759  0.4459 -0.4577
16382TIP3   OH270636   1.181   5.883  11.400 -0.5034 -0.1037  0.3504
16382TIP3    H170637   1.191   5.974  11.429 -1.8243  0.5874 -1.2482
16382TIP3    H270638   1.120   5.845  11.463 -1.9990  0.8891 -0.4571
16383TIP3   OH270639   2.166   3.202  15.085  0.4472  0.2496  0.1750
16383TIP3    H170640   2.101   3.220  15.153  0.9958 -1.5689  1.2690
16383TIP3    H270641   2.153   3.109  15.064  2.6782 -0.1757  0.4407
16384TIP3   OH270642   2.323   2.262   0.445  0.1804  0.4426  0.4047
16384TIP3    H170643   2.338   2.169   0.426 -1.5424 -0.0959  1.4775
16384TIP3    H270644   2.245   2.284   0.395  0.3317  1.2113  0.4956
16385TIP3   OH270645   4.129   2.581  15.952  0.6918 -0.0241 -0.4805
16385TIP3    H170646   4.078   2.502  15.935  1.4049 -0.6006 -0.0117
16385TIP3    H270647   4.210   2.569  15.903  0.1010  1.2418 -1.8628
16386TIP3   OH270648   0.861   2.183   3.856 -0.0856 -0.5976  0.5719
16386TIP3    H170649   0.774   2.190   3.816  0.3573 -1.5198 -0.6185
16386TIP3    H270650   0.912   2.254   3.816 -0.4945  0.4672  1.8873
16387TIP3   OH270651   1.057   6.490  15.911 -0.6218 -0.4341 -0.7139
16387TIP3    H170652   1.079   6.478  16.004  0.0748 -1.6230 -0.9995
16387TIP3    H270653   0.990   6.424  15.895 -2.0259  0.9410 -0.6601
16388TIP3   OH270654   6.691   0.405  14.655 -0.0126 -0.6332  0.1721
16388TIP3    H170655   6.749   0.447  14.718 -1.0516  1.2404 -0.0556
16388TIP3    H270656   6.708   0.449  14.572 -1.1676 -0.5973 -0.0675
16389TIP3   OH270657   2.182   5.433  14.314  0.2967 -0.2704 -0.2381
16389TIP3    H170658   2.104   5.435  14.370 -0.2470 -1.2494 -0.9303
16389TIP3    H270659   2.192   5.341  14.290  1.0894 -0.0044 -0.9661
16390TIP3   OH270660   3.161   2.538   4.962 -1.1245 -0.2906  0.0928
16390TIP3    H170661   3.250   2.505   4.972 -1.7769 -1.5775  2.3458
16390TIP3    H270662   3.134   2.508   4.876  0.1102 -1.2237  0.0023
16391TIP3   OH270663   2.397   5.522   5.561  0.8978 -0.0192 -0.0019
16391TIP3    H170664   2.335   5.468   5.512 -0.8792  2.0797 -0.2419
16391TIP3    H270665   2.463   5.547   5.497 -0.1969  0.8791 -0.8316
16392TIP3   OH270666   0.261   0.581   3.244  0.3818  0.1158 -0.2126
16392TIP3    H170667   0.344   0.550   3.208  0.6418 -1.4353  1.5745
16392TIP3    H270668   0.194   0.536   3.192  0.7493 -1.9466  0.9808
16393TIP3   OH270669   4.333   0.910  17.328 -0.0747 -0.0853 -0.3837
16393TIP3    H170670   4.314   0.894  17.420  2.0906  1.9471  0.5121
16393TIP3    H270671   4.402   0.977  17.328  0.7096 -0.7012 -3.4547
16394TIP3   OH270672   0.996   5.425   2.600  0.0148  0.0723  0.1530
16394TIP3    H170673   1.085   5.405   2.630 -0.0746  0.1476  0.4748
16394TIP3    H270674   0.939   5.385   2.666 -0.1824  0.3752  0.1678
16395TIP3   OH270675   6.019   5.588   4.273 -0.2030 -0.3193  0.5843
16395TIP3    H170676   6.007   5.678   4.301  0.8898 -0.3379  1.1698
16395TIP3    H270677   6.036   5.593   4.179 -0.7545  0.0187  0.4988
16396TIP3   OH270678   0.119   6.597  12.730 -0.0418 -0.3217  0.1683
16396TIP3    H170679   0.065   6.667  12.693 -1.0811 -0.4415  1.3843
16396TIP3    H270680   0.205   6.610  12.690 -0.9974 -0.2660 -1.9937
16397TIP3   OH270681   3.481   4.800   0.149 -0.0871  0.5029  0.2872
16397TIP3    H170682   3.459   4.733   0.214  1.1026 -0.5844 -0.3744
16397TIP3    H270683   3.417   4.788   0.080 -0.2484  0.4469  0.4463
16398TIP3   OH270684   3.411   2.566   4.159  0.0027  0.4880 -0.2731
16398TIP3    H170685   3.438   2.655   4.137  0.6700  0.6664  1.1827
16398TIP3    H270686   3.323   2.575   4.194 -0.3747  0.4212 -1.1840
16399TIP3   OH270687   1.954   6.461   0.793 -0.6715  0.0729  0.2184
16399TIP3    H170688   1.878   6.466   0.850  1.9081  3.2612  3.9593
16399TIP3    H270689   2.002   6.384   0.823  0.0710  1.0644  1.7427
16400TIP3   OH270690   1.744   6.163   0.453 -0.4331 -0.1448 -0.2725
16400TIP3    H170691   1.753   6.156   0.548 -0.6239  1.9337 -0.0650
16400TIP3    H270692   1.659   6.206   0.440 -0.3579 -0.2987 -1.3944
16401TIP3   OH270693   4.837   5.960  13.430 -0.1240  0.0113  0.1379
16401TIP3    H170694   4.815   6.037  13.377 -0.1546 -0.9268 -1.2621
16401TIP3    H270695   4.930   5.971  13.449 -0.4267  1.0683  1.1272
16402TIP3   OH270696   2.676   6.497   4.872 -0.2266 -0.2654 -0.4160
16402TIP3    H170697   2.739   6.546   4.818  0.9526 -1.6560 -0.3681
16402TIP3    H270698   2.712   6.501   4.961 -1.4238  0.8229  0.0518
16403TIP3   OH270699   1.609   5.532   5.702  0.1464 -0.6090  0.1196
16403TIP3    H170700   1.681   5.512   5.762 -0.4227  1.1514  1.4646
16403TIP3    H270701   1.652   5.538   5.616  0.9279 -3.4442  0.2040
16404TIP3   OH270702   0.168   2.871   4.615  0.1008 -0.7278  0.2505
16404TIP3    H170703   0.185   2.964   4.605  0.1316 -0.6500  0.9577
16404TIP3    H270704   0.254   2.830   4.604  0.5543 -0.4560  2.3329
16405TIP3   OH270705   6.110   1.472   5.907 -0.1777 -0.2190 -0.0372
16405TIP3    H170706   6.198   1.443   5.881 -1.0517 -3.2635  0.0528
16405TIP3    H270707   6.073   1.511   5.828  0.9991  0.5906 -0.2305
16406TIP3   OH270708   2.577   3.685   3.481 -0.1777 -0.0301 -0.1442
16406TIP3    H170709   2.512   3.615   3.473  1.0055 -0.9695 -2.7519
16406TIP3    H270710   2.661   3.643   3.463  0.8066  1.7240  0.0501
16407TIP3   OH270711   1.795   2.996   4.958 -0.5999  0.2501 -0.9328
16407TIP3    H170712   1.855   3.043   4.900  0.7866  0.0958  0.3143
16407TIP3    H270713   1.852   2.954   5.022 -2.0665  0.1522  0.3566
16408TIP3   OH270714   0.310   4.300   5.395 -0.6634 -0.0037 -0.5621
16408TIP3    H170715   0.224   4.283   5.355 -0.2695  0.0131 -1.4290
16408TIP3    H270716   0.304   4.391   5.425 -1.0519 -0.0952 -0.3606
16409TIP3   OH270717   2.908   3.780  15.488  0.7337 -0.0017 -0.0633
16409TIP3    H170718   2.991   3.826  15.486  1.5997 -1.5102 -0.1913
16409TIP3    H270719   2.931   3.687  15.488 -0.9585 -0.4824 -1.4080
16410TIP3   OH270720   2.766   2.690  12.703  0.2060 -0.0151 -0.0633
16410TIP3    H170721   2.776   2.653  12.791 -1.3032 -0.1599  0.0691
16410TIP3    H270722   2.742   2.782  12.719  0.1476  0.0164 -0.3364
16411TIP3   OH270723   5.155   0.613   1.710  0.2319 -0.4964 -0.2058
16411TIP3    H170724   5.112   0.530   1.688 -1.8130  0.0437  1.3767
16411TIP3    H270725   5.219   0.589   1.777  0.3362 -0.9318 -0.4547
16412TIP3   OH270726   6.374   6.194   4.614  0.3518 -0.5525  0.3059
16412TIP3    H170727   6.394   6.230   4.528 -2.3831 -0.9503 -0.5831
16412TIP3    H270728   6.364   6.271   4.671 -0.4819 -0.1412 -0.3822
16413TIP3   OH270729   0.741   1.285   4.771 -0.3503  0.1141 -0.0315
16413TIP3    H170730   0.753   1.190   4.769 -0.0757  0.1524 -0.8437
16413TIP3    H270731   0.807   1.316   4.833 -0.0067 -0.1748 -0.2472
16414TIP3   OH270732   0.269   2.767  14.475 -0.2124 -0.2297  0.3305
16414TIP3    H170733   0.315   2.804  14.400  0.1354  1.0115  1.1386
16414TIP3    H270734   0.331   2.773  14.548 -1.1706  0.2532  1.1353
16415TIP3   OH270735   3.036   4.242   2.161  0.4005  0.0727 -0.0381
16415TIP3    H170736   2.986   4.316   2.195  0.6583 -0.3947  1.4225
16415TIP3    H270737   3.035   4.178   2.232  3.0432  0.0365  0.0496
16416TIP3   OH270738   3.597   0.940  14.670 -0.1369 -0.3643 -0.1659
16416TIP3    H170739   3.524   0.927  14.610  0.5653 -1.9260 -0.7507
16416TIP3    H270740   3.565   0.910  14.755 -0.8705  1.0867  0.1027
16417TIP3   OH270741   1.581   5.782  10.842  0.0059  0.2684 -0.1447
16417TIP3    H170742   1.532   5.727  10.904  1.2845  1.2209  1.8034
16417TIP3    H270743   1.664   5.736  10.831  0.2716  0.7502 -0.1523
16418TIP3   OH270744   0.922   2.936  13.761 -0.1250  0.3734  0.5146
16418TIP3    H170745   0.977   2.964  13.834  0.0617  0.7490  0.2294
16418TIP3    H270746   0.918   2.841  13.770  2.2018  0.0911 -0.5857
16419TIP3   OH270747   0.802   0.805   4.451  0.6658  0.2821  0.5414
16419TIP3    H170748   0.710   0.832   4.450  0.0112 -1.7896  1.0361
16419TIP3    H270749   0.835   0.828   4.364 -0.4890  0.4774  0.1439
16420TIP3   OH270750   5.465   1.392   0.092  0.0265  0.1571 -0.3528
16420TIP3    H170751   5.443   1.376   0.184  0.5604 -3.0419 -0.6557
16420TIP3    H270752   5.529   1.324   0.071 -1.1376 -0.1339 -3.4664
16421TIP3   OH270753   4.590   4.193  15.615  0.5875 -0.1735  0.1750
16421TIP3    H170754   4.639   4.202  15.697 -1.5978 -0.0985  1.5601
16421TIP3    H270755   4.578   4.283  15.585 -0.9477  0.0531  1.3123
16422TIP3   OH270756   0.763   1.096   1.435  0.2828 -0.2568 -0.0823
16422TIP3    H170757   0.798   1.060   1.516  4.1613  2.0181 -0.5406
16422TIP3    H270758   0.822   1.064   1.367  0.2144  1.9735 -1.2783
16423TIP3   OH270759   3.037   1.909  14.706 -0.4255 -0.3193  0.2387
16423TIP3    H170760   3.114   1.923  14.651  0.0438  3.9558  1.5984
16423TIP3    H270761   2.964   1.904  14.645  0.4731  0.2132 -0.9026
16424TIP3   OH270762   5.722   3.423   6.482 -0.0586  0.7666 -0.5833
16424TIP3    H170763   5.668   3.462   6.414 -1.2281  0.2910  0.0343
16424TIP3    H270764   5.775   3.358   6.436 -0.2829  0.9786 -1.1526
16425TIP3   OH270765   0.636   5.414  16.124  0.3553 -0.5099 -0.1504
16425TIP3    H170766   0.568   5.350  16.142 -0.2153 -0.6926 -2.6075
16425TIP3    H270767   0.617   5.488  16.182 -1.5839 -0.7998 -0.3744
16426TIP3   OH270768   5.731   5.452  16.801 -0.3388 -0.1033 -0.1767
16426TIP3    H170769   5.713   5.417  16.714 -0.0779  0.6352 -0.5451
16426TIP3    H270770   5.761   5.542  16.785  0.7223 -0.2903  0.6000
16427TIP3   OH270771   0.394   5.445  13.868  0.2101 -0.1042 -0.0644
16427TIP3    H170772   0.335   5.416  13.937  0.9071  1.7362  1.3829
16427TIP3    H270773   0.482   5.425  13.900  0.6164  1.9152  0.2481
16428TIP3   OH270774   2.351   2.346  16.253  0.3507 -0.3220  0.0469
16428TIP3    H170775   2.357   2.389  16.168  0.0379 -1.1011 -0.3782
16428TIP3    H270776   2.302   2.265  16.236 -1.3383  0.3753  1.2857
16429TIP3   OH270777   2.260   1.384   0.804  0.5113  0.1381  0.0439
16429TIP3    H170778   2.212   1.442   0.744  1.4276  0.7620 -0.1048
16429TIP3    H270779   2.227   1.297   0.783  1.6681  0.1789 -2.2728
16430TIP3   OH270780   4.459   3.420   0.943 -0.1101  0.1011 -0.3612
16430TIP3    H170781   4.409   3.397   1.021  0.3770 -0.0026 -0.0752
16430TIP3    H270782   4.492   3.508   0.961  0.3375 -0.0791 -0.2718
16431TIP3   OH270783   6.354   0.849  15.190 -0.3160 -0.4709 -0.2172
16431TIP3    H170784   6.310   0.933  15.178  0.8498  0.0622 -0.8841
16431TIP3    H270785   6.282   0.785  15.191 -1.1576  0.4378 -0.5388
16432TIP3   OH270786   6.268   3.835   0.623 -0.3252 -0.3508 -0.5456
16432TIP3    H170787   6.248   3.770   0.555  1.7557 -0.5705 -1.0203
16432TIP3    H270788   6.190   3.889   0.628 -2.2060 -2.9232 -0.0619
16433TIP3   OH270789   5.100   5.217   5.640 -0.4911  0.1166  0.3105
16433TIP3    H170790   5.174   5.272   5.667 -0.2660  0.0928 -0.2512
16433TIP3    H270791   5.030   5.280   5.620 -0.9614  0.1056  1.7817
16434TIP3   OH270792   4.600   2.437  12.706 -0.6566  0.3844 -0.4371
16434TIP3    H170793   4.577   2.470  12.792  1.4519 -0.7817  0.6736
16434TIP3    H270794   4.534   2.371  12.687  0.5091 -1.5917  1.7908
16435TIP3   OH270795   2.846   5.538  12.033 -0.0839  0.1979 -0.0894
16435TIP3    H170796   2.768   5.538  11.978 -0.8436  0.4761  0.9620
16435TIP3    H270797   2.837   5.616  12.088 -1.2846 -1.9552  3.0643
16436TIP3   OH270798   2.257   0.409   4.954  0.5843  0.1362  0.2130
16436TIP3    H170799   2.299   0.337   4.907 -0.1990 -0.7824  0.8869
16436TIP3    H270800   2.274   0.391   5.046 -0.0114  0.5592  0.4134
16437TIP3   OH270801   3.477   5.154   4.466 -0.3376  0.2863 -0.3995
16437TIP3    H170802   3.545   5.086   4.466 -1.3596 -0.7791 -0.1044
16437TIP3    H270803   3.395   5.105   4.463 -1.1003  1.5502 -2.0139
16438TIP3   OH270804   6.183   2.744  12.327  0.1616 -0.3536 -0.2547
16438TIP3    H170805   6.273   2.769  12.349  1.0034 -1.9587 -1.6254
16438TIP3    H270806   6.175   2.764  12.233 -1.5132  1.3361  0.1975
16439TIP3   OH270807   5.270   2.929  17.379 -0.2431 -0.1853  0.2204
16439TIP3    H170808   5.290   2.836  17.372 -0.0263 -0.0684 -0.8065
16439TIP3    H270809   5.348   2.974  17.347 -0.0516  0.3840  1.4057
16440TIP3   OH270810   1.577   4.606  12.972  0.2570  0.5628  0.2006
16440TIP3    H170811   1.642   4.605  13.043  0.2536 -2.4584  0.2656
16440TIP3    H270812   1.498   4.569  13.011  0.1551 -0.8539 -1.2406
16441TIP3   OH270813   0.070   6.605  11.596 -0.6157 -0.1277 -0.9972
16441TIP3    H170814   0.166   6.607  11.585 -0.4589 -1.9548 -0.2458
16441TIP3    H270815   0.044   6.522  11.557 -1.6243 -0.6607  0.7330
16442TIP3   OH270816   5.609   0.310  15.135 -0.6891  0.0868 -0.1716
16442TIP3    H170817   5.605   0.316  15.040  1.1874  0.1996 -0.2728
16442TIP3    H270818   5.552   0.381  15.166 -1.3468  0.0212 -1.1964
16443TIP3   OH270819   4.879   6.072   2.100  0.1020  0.0520  0.1999
16443TIP3    H170820   4.955   6.016   2.117 -0.4972 -0.6556  0.6334
16443TIP3    H270821   4.833   6.029   2.028  0.4018  0.7839 -0.4401
16444TIP3   OH270822   2.893   3.081   1.421 -0.9717  0.4790 -0.1058
16444TIP3    H170823   2.805   3.049   1.439 -1.2685  0.4420 -1.5173
16444TIP3    H270824   2.937   3.080   1.506 -2.1616 -0.0075  0.5224
16445TIP3   OH270825   6.736   6.317  11.752 -0.0706 -0.4155 -0.1118
16445TIP3    H170826   6.765   6.356  11.669  1.4963 -0.2538  0.4819
16445TIP3    H270827   6.803   6.252  11.773 -1.1461 -1.3967  0.3805
16446TIP3   OH270828   5.191   1.388   5.599 -0.3168  0.3192  0.1728
16446TIP3    H170829   5.159   1.476   5.581 -0.4939  0.7363  2.3354
16446TIP3    H270830   5.284   1.391   5.580 -0.3646  0.8988  0.0201
16447TIP3   OH270831   0.810   6.015   4.459 -0.3046 -0.2066 -0.3230
16447TIP3    H170832   0.815   6.049   4.369 -2.0028  0.1321 -0.3209
16447TIP3    H270833   0.793   5.922   4.448  2.4171 -0.8016 -0.3132
16448TIP3   OH270834   2.808   2.412  13.898  0.1662  0.3242 -0.4159
16448TIP3    H170835   2.760   2.445  13.974 -2.7028 -2.2204 -0.9443
16448TIP3    H270836   2.891   2.380  13.935 -0.2441  1.0803  1.2677
16449TIP3   OH270837   1.547   5.115  17.287  0.5679  0.3957  0.4398
16449TIP3    H170838   1.587   5.196  17.318 -2.5609  1.6115  1.7380
16449TIP3    H270839   1.522   5.069  17.367 -0.7279 -0.1735 -0.2640
16450TIP3   OH270840   0.534   2.315  12.174 -0.0862  0.1903  0.1207
16450TIP3    H170841   0.482   2.341  12.250  2.5467  1.8228  1.5239
16450TIP3    H270842   0.508   2.376  12.105 -0.8685  0.2208  0.4421
16451TIP3   OH270843   5.628   0.404  16.303  0.0063  0.1114 -0.3826
16451TIP3    H170844   5.701   0.343  16.309 -0.4683 -0.5377 -0.9863
16451TIP3    H270845   5.634   0.440  16.215 -0.2865  0.1968 -0.3680
16452TIP3   OH270846   4.300   0.441   5.135 -0.6037  0.2720 -0.2068
16452TIP3    H170847   4.288   0.407   5.046 -0.9611  1.2156 -0.5340
16452TIP3    H270848   4.238   0.515   5.141 -1.2257 -0.3189  1.1213
16453TIP3   OH270849   3.807   0.694   6.208 -0.5783 -0.1488  0.4455
16453TIP3    H170850   3.772   0.616   6.252 -0.0847 -0.5932  0.0698
16453TIP3    H270851   3.864   0.734   6.274 -1.2539  0.2092  0.8281
16454TIP3   OH270852   3.809   3.331  13.510  0.4143  0.0380  0.0916
16454TIP3    H170853   3.739   3.396  13.503  1.0564  1.2146  2.9358
16454TIP3    H270854   3.889   3.379  13.488  0.7889  0.0257  1.3123
16455TIP3   OH270855   2.584   5.526  11.298 -0.4125  0.1300  0.3385
16455TIP3    H170856   2.582   5.558  11.388  2.3685  1.5474 -0.0200
16455TIP3    H270857   2.598   5.604  11.245  1.7237 -1.0361 -0.9549
16456TIP3   OH270858   2.326   4.346  16.682 -0.1216 -0.4831 -0.2049
16456TIP3    H170859   2.405   4.349  16.629  0.6244 -3.2364  0.5651
16456TIP3    H270860   2.288   4.260  16.664 -3.7169  1.1815 -1.4927
16457TIP3   OH270861   1.937   2.555  12.191 -0.6520 -0.3055  0.5900
16457TIP3    H170862   2.003   2.500  12.149 -0.0560 -0.8696  2.2082
16457TIP3    H270863   1.984   2.599  12.261 -2.0893 -1.1058  2.1113
16458TIP3   OH270864   2.903   5.679  12.674 -0.0659 -0.0235  0.5982
16458TIP3    H170865   2.931   5.643  12.758  1.9497  0.6540  0.2866
16458TIP3    H270866   2.899   5.774  12.688  1.9197  0.2789 -0.4105
16459TIP3   OH270867   3.114   6.332  11.501  0.3725  0.1022  0.1944
16459TIP3    H170868   3.143   6.414  11.540 -0.1641 -0.2330  1.3397
16459TIP3    H270869   3.174   6.266  11.535 -0.4901 -0.2913  0.9839
16460TIP3   OH270870   5.241   5.529   6.294 -0.5220 -0.5018  0.8939
16460TIP3    H170871   5.210   5.564   6.377  0.5634 -0.2141  1.1977
16460TIP3    H270872   5.263   5.438   6.313  0.4534 -0.2285  1.1336
16461TIP3   OH270873   5.838   3.590  12.730 -0.0743  0.2442  0.2522
16461TIP3    H170874   5.829   3.680  12.762  1.0457  0.6319 -0.4615
16461TIP3    H270875   5.806   3.593  12.640 -2.1867 -0.6034  0.9115
16462TIP3   OH270876   3.017   5.191  15.979 -0.1164  0.6988 -0.4023
16462TIP3    H170877   3.023   5.286  15.969 -0.9268  0.6216 -1.8669
16462TIP3    H270878   2.952   5.164  15.914  0.2461 -0.8881 -0.1476
16463TIP3   OH270879   0.949   1.932  11.911  0.0609 -0.4551  0.6212
16463TIP3    H170880   1.023   1.892  11.958  0.9071 -0.1200 -0.3883
16463TIP3    H270881   0.889   1.859  11.894  0.8008 -0.9952  0.2649
16464TIP3   OH270882   1.774   6.646   3.986  0.1647  0.0130  0.3181
16464TIP3    H170883   1.834   6.716   4.013 -0.4191  0.5139  0.3453
16464TIP3    H270884   1.817   6.565   4.014  1.7541  0.2070 -1.3486
16465TIP3   OH270885   6.488   3.696   4.419  0.4651  0.0756  0.2572
16465TIP3    H170886   6.575   3.719   4.453  0.7804 -0.6982 -0.0065
16465TIP3    H270887   6.449   3.780   4.395  0.4057  0.6280  2.0908
16466TIP3   OH270888   0.617   0.141   0.203  0.4738 -0.2417 -0.0876
16466TIP3    H170889   0.695   0.157   0.256  0.6891  2.4159 -1.0771
16466TIP3    H270890   0.632   0.054   0.165  2.5790 -0.1348  0.3711
16467TIP3   OH270891   1.579   3.399   3.580  1.1423 -0.6755  0.4397
16467TIP3    H170892   1.512   3.345   3.622 -0.9668  1.6982  0.3133
16467TIP3    H270893   1.557   3.396   3.487  2.2840 -1.2176  0.1670
16468TIP3   OH270894   0.721   4.004  16.039 -0.4969  0.0966  0.3586
16468TIP3    H170895   0.720   3.924  16.093 -0.5838  0.4348  0.8646
16468TIP3    H270896   0.735   4.075  16.102 -0.8207  0.5197 -0.0439
16469TIP3   OH270897   1.285   0.892   5.338  0.1148 -0.1647  0.3057
16469TIP3    H170898   1.263   0.977   5.378 -0.5588  0.6869 -1.7087
16469TIP3    H270899   1.366   0.866   5.381  0.3352  1.5097  1.0089
16470TIP3   OH270900   4.371   4.996   5.731 -0.2498  0.6782 -0.1658
16470TIP3    H170901   4.389   4.902   5.726  0.6132  0.8785 -1.0048
16470TIP3    H270902   4.447   5.038   5.692 -0.1375  1.7875  1.1534
16471TIP3   OH270903   0.629   2.952  13.804 -0.1120 -0.0224 -0.6123
16471TIP3    H170904   0.598   3.012  13.737  1.4196  0.0263 -1.3100
16471TIP3    H270905   0.725   2.958  13.800  0.0887  1.4261  2.8406
16472TIP3   OH270906   1.509   0.802   2.513  0.4298  0.1690 -0.2490
16472TIP3    H170907   1.417   0.812   2.539  0.6399  0.0303  0.5718
16472TIP3    H270908   1.506   0.792   2.417 -0.3698  0.5993 -0.2768
16473TIP3   OH270909   4.209   0.474  11.990  0.6035 -0.5142  0.0212
16473TIP3    H170910   4.302   0.457  11.981  0.4911 -0.4215 -1.7754
16473TIP3    H270911   4.175   0.467  11.900 -0.9842  0.1995  0.5333
16474TIP3   OH270912   2.073   5.005  12.339  0.2228 -0.3619 -0.0994
16474TIP3    H170913   1.981   5.032  12.335  0.8353  1.8460 -0.5392
16474TIP3    H270914   2.083   4.942  12.268 -1.1288 -1.2909  0.5034
16475TIP3   OH270915   3.664   5.629  13.327  0.5024  0.0893  0.5340
16475TIP3    H170916   3.575   5.654  13.304  0.4057  0.0057  0.8201
16475TIP3    H270917   3.718   5.664  13.255  0.1776 -0.3794  0.0641
16476TIP3   OH270918   5.244   5.609  12.510 -1.0194  0.1628  0.3606
16476TIP3    H170919   5.181   5.641  12.445 -1.5544 -0.6568  0.4637
16476TIP3    H270920   5.243   5.675  12.579  0.0196  1.3774 -0.7142
16477TIP3   OH270921   1.481   0.898   1.051  0.2114 -0.1302  0.2808
16477TIP3    H170922   1.517   0.835   1.113  2.2117 -0.5817 -1.2860
16477TIP3    H270923   1.550   0.912   0.987 -1.2661  1.4350 -1.0606
16478TIP3   OH270924   2.721   4.428   4.719  0.4216  0.5476 -0.0491
16478TIP3    H170925   2.663   4.397   4.788 -0.8681  1.7926 -0.5124
16478TIP3    H270926   2.709   4.365   4.648 -3.6350  2.7833 -1.7200
16479TIP3   OH270927   5.103   6.348  11.041 -0.3946  0.1910 -0.8188
16479TIP3    H170928   5.199   6.353  11.036 -0.3991  0.4988 -0.6418
16479TIP3    H270929   5.077   6.433  11.076 -0.5772 -0.7130  1.4139
16480TIP3   OH270930   0.711   1.589   4.588  0.5266 -0.4470 -0.5347
16480TIP3    H170931   0.645   1.632   4.642  0.8367  1.3773 -1.5563
16480TIP3    H270932   0.694   1.495   4.600 -1.6524 -0.0359 -0.0550
16481TIP3   OH270933   0.155   0.392   3.059  0.2700 -0.0895 -0.2150
16481TIP3    H170934   0.245   0.361   3.069  0.1855  0.3035  2.7481
16481TIP3    H270935   0.156   0.445   2.979  1.9735 -2.2304 -1.7276
16482TIP3   OH270936   3.044   5.917   0.690  0.5225  0.2031  0.3965
16482TIP3    H170937   3.128   5.901   0.648  0.0352 -0.2129 -0.4554
16482TIP3    H270938   3.012   5.998   0.650  0.1425 -0.0924  0.0908
16483TIP3   OH270939   4.524   3.789   3.470  0.2644  0.3227 -0.1978
16483TIP3    H170940   4.618   3.779   3.459  0.3021  0.3426  0.1032
16483TIP3    H270941   4.511   3.880   3.496  0.1841  0.2591 -0.0105
16484TIP3   OH270942   1.469   2.956   1.795  0.7828 -0.3855  0.1176
16484TIP3    H170943   1.489   3.018   1.725  0.4076 -1.3046 -0.8246
16484TIP3    H270944   1.393   2.907   1.764  0.5137 -0.7245  1.2335
16485TIP3   OH270945   3.331   4.403   3.056 -0.1301 -0.1533 -0.3598
16485TIP3    H170946   3.413   4.437   3.093  0.0921  0.1740 -1.1263
16485TIP3    H270947   3.317   4.320   3.101  0.7311 -0.3111 -0.3680
16486TIP3   OH270948   3.897   2.779   5.218  0.3119 -0.0394  0.1175
16486TIP3    H170949   3.954   2.819   5.284  1.0367 -1.2448  0.2475
16486TIP3    H270950   3.824   2.841   5.210  0.2172  0.1693  2.0156
16487TIP3   OH270951   0.157   0.019   5.013  0.0358 -0.0742  0.1909
16487TIP3    H170952   0.182   0.049   4.926 -0.0765 -1.5764 -0.3886
16487TIP3    H270953   0.118   0.095   5.055  3.3710  1.7595  0.2966
16488TIP3   OH270954   2.960   4.547  16.821  0.6694 -0.1034 -0.3189
16488TIP3    H170955   2.942   4.476  16.881  1.4239 -1.6491 -1.8297
16488TIP3    H270956   3.053   4.568  16.835  0.6857 -0.0418 -0.5092
16489TIP3   OH270957   4.638   3.740  13.232  0.2775 -0.3191  0.2350
16489TIP3    H170958   4.647   3.655  13.275  2.0636  0.4670  1.5388
16489TIP3    H270959   4.609   3.799  13.302 -0.8791  0.1904 -0.6387
16490TIP3   OH270960   3.855   1.282   0.687  0.8602  0.0643  0.6445
16490TIP3    H170961   3.821   1.323   0.767 -1.7501 -2.5183  1.0148
16490TIP3    H270962   3.825   1.339   0.616 -1.4138 -0.3208  1.2323
16491TIP3   OH270963   3.931   1.852   0.454 -0.2224 -0.2369  0.0845
16491TIP3    H170964   3.919   1.757   0.466  3.6957 -1.5718 -3.6415
16491TIP3    H270965   3.860   1.878   0.395 -1.8671 -0.5495  1.8513
16492TIP3   OH270966   5.666   1.594   1.294 -0.0746  0.0412 -0.4008
16492TIP3    H170967   5.684   1.519   1.238  2.9228 -1.3095  2.0527
16492TIP3    H270968   5.751   1.637   1.305 -1.2519  2.3567  0.2490
16493TIP3   OH270969   6.104   6.755  15.918 -0.0097  0.4138 -0.1511
16493TIP3    H170970   6.158   6.832  15.935 -0.3994  0.5369  0.5357
16493TIP3    H270971   6.108   6.744  15.823  0.0254  1.2942 -0.2581
16494TIP3   OH270972   4.310   5.858  11.815 -0.1356  0.5772 -0.0232
16494TIP3    H170973   4.267   5.774  11.796  1.4526 -0.2766  0.0079
16494TIP3    H270974   4.335   5.892  11.729 -0.8132  1.0623 -0.0394
16495TIP3   OH270975   0.720   6.086   2.231 -0.4038 -0.5976  0.7253
16495TIP3    H170976   0.782   6.054   2.167 -1.0320 -0.5603  0.0804
16495TIP3    H270977   0.659   6.013   2.245 -1.6333  0.1442 -0.4889
16496TIP3   OH270978   4.734   0.479  15.033 -0.1209 -0.3788 -0.1403
16496TIP3    H170979   4.687   0.532  14.969  0.2049 -0.7001 -0.6536
16496TIP3    H270980   4.825   0.481  15.004  0.1947  0.2615  0.8584
16497TIP3   OH270981   1.585   0.001   0.937 -0.3740  0.6825  0.7453
16497TIP3    H170982   1.536  -0.081   0.930 -0.1298  0.6039 -0.1072
16497TIP3    H270983   1.645  -0.014   1.010 -1.4636  0.7105  1.6901
16498TIP3   OH270984   4.332   5.675  13.879 -0.0983  0.3808  0.0296
16498TIP3    H170985   4.339   5.689  13.973 -0.0087 -0.3934  0.1478
16498TIP3    H270986   4.415   5.635  13.854 -0.0743  0.6879 -0.4025
16499TIP3   OH270987   3.522   4.413   2.711 -0.0119 -0.0392  0.0440
16499TIP3    H170988   3.436   4.432   2.747 -0.4044  0.4757 -1.1169
16499TIP3    H270989   3.578   4.484   2.744 -0.2461  0.1366  0.0626
16500TIP3   OH270990   2.761   5.357  11.537 -0.2746  0.3776  0.3276
16500TIP3    H170991   2.840   5.403  11.509 -0.9169  1.2289 -0.1368
16500TIP3    H270992   2.721   5.325  11.456  0.5637 -1.7328  0.6832
16501TIP3   OH270993   4.090   3.941   1.145  0.4583  0.1811  0.8316
16501TIP3    H170994   4.113   3.942   1.052  1.0939  1.0628  0.9803
16501TIP3    H270995   4.003   3.900   1.149  1.7530 -2.8303  0.2022
16502TIP3   OH270996   1.786   3.942   4.201  0.1370  0.2370  0.5755
16502TIP3    H170997   1.794   3.912   4.111 -0.5670 -0.0517  0.6009
16502TIP3    H270998   1.711   4.002   4.200  0.8374  1.1284  0.7475
16503TIP3   OH270999   3.411   1.069   0.127 -0.5532 -1.1531  0.0335
16503TIP3    H171000   3.464   1.013   0.184  1.1785  0.9112  0.5671
16503TIP3    H271001   3.362   1.125   0.187 -0.6682 -0.6814 -0.4951
16504TIP3   OH271002   4.722   4.352  10.910  0.4698 -0.1175  0.7675
16504TIP3    H171003   4.677   4.437  10.907 -2.3061 -1.4826 -0.0073
16504TIP3    H271004   4.787   4.357  10.841 -0.5222  0.9693 -0.1360
16505TIP3   OH271005   0.240   0.799  12.439  0.5723  0.4851 -0.1340
16505TIP3    H171006   0.310   0.772  12.380 -0.2766 -0.4908 -0.7084
16505TIP3    H271007   0.159   0.772  12.395 -0.1000  0.2741  1.1877
16506TIP3   OH271008   0.039   3.924  16.173 -0.4817  0.4378 -0.0387
16506TIP3    H171009   0.097   3.970  16.112 -1.1867  1.7836  0.2745
16506TIP3    H271010   0.078   3.939  16.259 -0.7983  0.5704  0.0798
16507TIP3   OH271011   6.535   5.159   0.815  0.2421  0.4597  0.0737
16507TIP3    H171012   6.579   5.230   0.768  1.0969  0.9250  1.5109
16507TIP3    H271013   6.550   5.178   0.908  1.3015 -2.0767  0.5146
16508TIP3   OH271014   6.640   4.450   2.828 -0.0300  0.4719 -0.2642
16508TIP3    H171015   6.675   4.518   2.884 -1.0550  0.8542 -0.0691
16508TIP3    H271016   6.714   4.424   2.773 -0.1779  3.4840 -2.1115
16509TIP3   OH271017   6.382   0.804  13.104 -0.2131 -0.2406 -0.6189
16509TIP3    H171018   6.393   0.727  13.160  1.2941  0.8046  0.6219
16509TIP3    H271019   6.293   0.833  13.121 -0.5091 -1.2037 -0.4461
16510TIP3   OH271020   2.956   3.773   3.259  0.2881  0.4792 -0.4003
16510TIP3    H171021   2.960   3.843   3.194  0.8933 -0.6111 -1.5910
16510TIP3    H271022   2.966   3.693   3.208  0.2267 -0.4461  0.9939
16511TIP3   OH271023   1.648   1.271  14.213 -0.1242 -0.5370  0.0692
16511TIP3    H171024   1.655   1.362  14.184  0.0831 -0.3379  0.7264
16511TIP3    H271025   1.639   1.277  14.309 -0.5796 -1.1851  0.0744
16512TIP3   OH271026   6.065   0.314   3.145 -0.3120  0.3693  0.7032
16512TIP3    H171027   6.012   0.249   3.099  1.1412 -0.4877  0.1914
16512TIP3    H271028   6.144   0.267   3.171  1.3141  2.1899 -0.6572
16513TIP3   OH271029   4.995   6.056   4.333 -0.3444 -0.2033  0.7463
16513TIP3    H171030   4.910   6.073   4.373  0.3038 -1.7071  2.9091
16513TIP3    H271031   5.058   6.084   4.399  0.9679  1.8558 -1.1969
16514TIP3   OH271032   2.566   3.807  14.083  0.5435 -0.1358 -0.1731
16514TIP3    H171033   2.490   3.859  14.111 -0.9264 -1.3224 -1.7083
16514TIP3    H271034   2.609   3.861  14.017  0.5689  0.1964  0.1086
16515TIP3   OH271035   5.273   3.693   4.239 -0.0322  0.6477 -0.3585
16515TIP3    H171036   5.195   3.638   4.231  0.7221 -0.8574  1.7359
16515TIP3    H271037   5.343   3.632   4.262  0.9728  2.3819  1.5106
16516TIP3   OH271038   4.290   2.675  11.251  0.2062  1.2356  0.3345
16516TIP3    H171039   4.353   2.724  11.197 -0.6619  1.2418 -0.7056
16516TIP3    H271040   4.260   2.605  11.194 -0.4837  1.0345  0.9348
16517TIP3   OH271041   5.948   2.892   2.880 -0.1542  0.1728 -0.3359
16517TIP3    H171042   5.935   2.892   2.785  1.1277  1.2310 -0.5463
16517TIP3    H271043   6.010   2.820   2.895 -2.6549 -2.0439  0.1390
16518TIP3   OH271044   0.218   1.246   2.706  0.3231  0.0924  0.5337
16518TIP3    H171045   0.218   1.339   2.683  1.5526 -0.1360 -0.5118
16518TIP3    H271046   0.247   1.202   2.627 -1.8919 -1.3774  0.4631
16519TIP3   OH271047   3.214   3.909  13.513  0.8494 -0.0543  0.1910
16519TIP3    H171048   3.276   3.911  13.586  1.2696  2.2749 -0.1397
16519TIP3    H271049   3.268   3.897  13.435  0.5761 -0.8125  0.1114
16520TIP3   OH271050   5.318   1.742  11.178 -0.5837  0.3476 -0.0968
16520TIP3    H171051   5.359   1.793  11.249 -1.0079  0.4091  0.1092
16520TIP3    H271052   5.282   1.808  11.119  0.8363  0.3249 -1.0308
16521TIP3   OH271053   3.080   4.048   1.451 -0.7855 -0.3896 -0.7031
16521TIP3    H171054   3.140   4.088   1.388  0.5883 -1.9756 -0.4714
16521TIP3    H271055   3.112   4.077   1.537 -0.3495 -1.2079 -0.5796
16522TIP3   OH271056   0.665   1.682  10.835 -0.0846  0.3340 -0.2252
16522TIP3    H171057   0.705   1.597  10.851  0.0386  0.2198 -1.0633
16522TIP3    H271058   0.580   1.661  10.796 -0.4917  0.5879  0.5154
16523TIP3   OH271059   0.176   6.710   5.494 -0.1142 -0.0691  0.0536
16523TIP3    H171060   0.100   6.730   5.438 -0.3689  0.0912  0.4531
16523TIP3    H271061   0.249   6.707   5.433 -0.1844  1.3518 -0.1514
16524TIP3   OH271062   0.536   1.681   5.899  0.7445  0.4093 -0.3603
16524TIP3    H171063   0.498   1.718   5.979 -0.7876 -1.1970 -0.3039
16524TIP3    H271064   0.595   1.612   5.930  0.5436  0.1290 -0.5984
16525TIP3   OH271065   5.836   3.965   4.227 -0.0367 -0.3436 -0.2231
16525TIP3    H171066   5.781   4.038   4.255 -0.8106 -1.2039  0.5653
16525TIP3    H271067   5.806   3.890   4.279  2.0903 -0.7918  0.4876
16526TIP3   OH271068   5.181   3.545  14.577  0.5241 -0.0559  0.5089
16526TIP3    H171069   5.196   3.480  14.508 -1.1548 -0.3478  0.3587
16526TIP3    H271070   5.085   3.553  14.581  0.6309  0.8158  2.0121
16527TIP3   OH271071   4.905   2.394   1.064  0.0342  0.0086  0.2733
16527TIP3    H171072   4.994   2.359   1.076  0.4549 -0.2565 -2.8856
16527TIP3    H271073   4.917   2.472   1.010 -1.6642 -0.3656 -0.7232
16528TIP3   OH271074   0.701   5.400   4.264 -0.1363  0.7029 -0.3614
16528TIP3    H171075   0.689   5.326   4.205 -0.0430  0.9642 -0.7162
16528TIP3    H271076   0.736   5.362   4.344  1.8240  0.5650 -1.2234
16529TIP3   OH271077   6.486   4.378   1.852  0.2633  0.2758 -0.1825
16529TIP3    H171078   6.545   4.448   1.878 -0.2070  1.7185 -2.7155
16529TIP3    H271079   6.488   4.378   1.756 -0.8459 -2.2642 -0.2993
16530TIP3   OH271080   3.978   1.766  11.065 -0.0538  0.3882 -0.0608
16530TIP3    H171081   3.917   1.732  11.130  0.4007 -0.6910 -0.1741
16530TIP3    H271082   3.973   1.704  10.993  1.7156 -0.1598  0.2418
16531TIP3   OH271083   0.758   6.165   0.934 -0.0614  0.5648 -0.6958
16531TIP3    H171084   0.713   6.188   1.015  0.4494 -1.2536  0.1474
16531TIP3    H271085   0.850   6.153   0.960  0.0175 -0.5428 -1.4225
16532TIP3   OH271086   2.396   0.121   5.359  0.0331  0.6087  0.4735
16532TIP3    H171087   2.337   0.127   5.435  0.0121  0.1298  0.4967
16532TIP3    H271088   2.475   0.167   5.387  0.2032  0.0348  0.9623
16533TIP3   OH271089   3.671   5.517  12.754  0.0764  0.0804  0.1236
16533TIP3    H171090   3.643   5.576  12.684  0.4398 -0.0316 -0.1223
16533TIP3    H271091   3.609   5.444  12.750 -0.3865  0.4487  0.4420
16534TIP3   OH271092   6.058   1.096  11.410 -0.3497 -0.1675  0.0570
16534TIP3    H171093   5.993   1.163  11.387  0.2994 -0.5612 -3.4206
16534TIP3    H271094   6.006   1.017  11.426 -0.8819 -0.1526 -1.4030
16535TIP3   OH271095   1.161   5.896   0.998  0.2717  0.2052 -0.3792
16535TIP3    H171096   1.100   5.892   0.925 -0.5080 -1.8778  0.3057
16535TIP3    H271097   1.136   5.975   1.046 -1.5145 -0.2544 -0.4680
16536TIP3   OH271098   4.469   5.845   3.240 -0.4676  0.1666 -0.3028
16536TIP3    H171099   4.526   5.791   3.295  0.4886  0.3847 -1.0447
16536TIP3    H271100   4.529   5.908   3.198 -0.9430 -0.8105 -2.5872
16537TIP3   OH271101   5.703   1.826  16.953  0.7069 -0.2091 -0.2819
16537TIP3    H171102   5.676   1.825  17.045 -1.8067  1.2743 -0.9010
16537TIP3    H271103   5.730   1.736  16.935  0.0907 -0.8240  1.5866
16538TIP3   OH271104   5.928   0.492  15.580  0.0587  0.3330 -0.9887
16538TIP3    H171105   5.866   0.447  15.523 -0.9155 -0.6104  0.7291
16538TIP3    H271106   5.958   0.425  15.641 -0.3876  1.6723  0.8041
16539TIP3   OH271107   0.586   0.345  14.865  0.0973  0.1014  0.5870
16539TIP3    H171108   0.615   0.430  14.898  0.2619 -0.3657  1.6669
16539TIP3    H271109   0.495   0.360  14.837 -0.1261  0.4532  1.4675
16540TIP3   OH271110   0.997   5.301   3.869 -0.2685 -0.0025  0.1101
16540TIP3    H171111   1.010   5.216   3.912 -1.0004 -0.2215 -0.0792
16540TIP3    H271112   0.921   5.339   3.913 -0.7256 -0.0102 -0.6430
16541TIP3   OH271113   5.986   3.988  13.825  0.1903 -0.1171 -0.2638
16541TIP3    H171114   6.015   4.004  13.915 -0.1478 -0.1910 -0.1362
16541TIP3    H271115   5.910   3.930  13.835  0.9839 -1.2521 -0.6815
16542TIP3   OH271116   1.876   1.329  10.550  0.1201  0.0670 -0.4997
16542TIP3    H171117   1.782   1.346  10.556  0.4819  1.7329  3.4276
16542TIP3    H271118   1.883   1.234  10.536 -2.1085 -0.0658 -1.0066
16543TIP3   OH271119   5.673   1.681   0.710 -0.6051  0.4133  0.2508
16543TIP3    H171120   5.640   1.612   0.768  1.8757  0.4460  1.8327
16543TIP3    H271121   5.620   1.758   0.732 -1.7457 -0.3311  0.2181
16544TIP3   OH271122   2.456   0.779   2.349 -0.0018 -0.9055 -0.1322
16544TIP3    H171123   2.466   0.839   2.274  1.2686 -1.9671 -0.8520
16544TIP3    H271124   2.545   0.769   2.383 -0.3963 -1.4073  0.7653
16545TIP3   OH271125   0.226   5.805  11.052 -0.7228  0.1429 -0.1355
16545TIP3    H171126   0.297   5.854  11.012 -0.8318  0.4922  0.0905
16545TIP3    H271127   0.254   5.792  11.143 -0.4539 -0.6872 -0.3278
16546TIP3   OH271128   0.226   4.739  11.875  0.0652 -0.3361 -0.0746
16546TIP3    H171129   0.254   4.778  11.792  0.1120  0.7040  0.4095
16546TIP3    H271130   0.131   4.755  11.878  0.3305  1.4207  0.9290
16547TIP3   OH271131   3.557   1.936  13.813  0.1866 -0.5332 -0.1034
16547TIP3    H171132   3.551   1.956  13.719  2.9158  1.6796  0.0608
16547TIP3    H271133   3.612   1.857  13.816  0.5311 -0.3078 -0.3641
16548TIP3   OH271134   2.786   0.873   4.992  0.2598 -0.0743  0.0409
16548TIP3    H171135   2.716   0.809   5.006  0.4099 -0.1051  0.6760
16548TIP3    H271136   2.839   0.869   5.072  1.4348 -0.5988 -0.7295
16549TIP3   OH271137   1.072   2.652   5.674  0.4581  0.0795 -0.6165
16549TIP3    H171138   1.134   2.580   5.690  0.9264  0.2106 -1.6817
16549TIP3    H271139   0.993   2.627   5.720  1.3301 -0.0543  0.8659
16550TIP3   OH271140   5.758   6.279   0.510 -0.0427 -0.3078  0.1999
16550TIP3    H171141   5.714   6.240   0.586  0.3970  0.5728  0.9386
16550TIP3    H271142   5.840   6.230   0.502 -0.0025 -0.2802  0.4219
16551TIP3   OH271143   2.804   4.208   1.179 -0.6911  0.0577  0.7697
16551TIP3    H171144   2.772   4.248   1.098  3.1015  0.9914 -0.4490
16551TIP3    H271145   2.795   4.277   1.245  2.0230  1.6701 -0.4000
16552TIP3   OH271146   1.218   3.187   4.337 -0.4874 -0.0047  0.2659
16552TIP3    H171147   1.222   3.229   4.423  0.5170 -1.3461  0.9094
16552TIP3    H271148   1.290   3.226   4.288 -0.6393  0.2787  0.2686
16553TIP3   OH271149   0.999   5.403  13.093  0.3384 -0.1506  0.3856
16553TIP3    H171150   1.018   5.341  13.164 -2.2150 -0.2483  1.0679
16553TIP3    H271151   1.020   5.354  13.013  1.0665 -0.8612  0.9879
16554TIP3   OH271152   0.917   6.292  11.664  0.1026  0.0047 -0.4000
16554TIP3    H171153   0.923   6.287  11.569 -1.4916 -0.3146 -0.4988
16554TIP3    H271154   0.868   6.214  11.690  0.0017  0.3870  0.6299
16555TIP3   OH271155   1.840   4.642  13.648  0.0374  0.1201  0.0555
16555TIP3    H171156   1.758   4.593  13.640 -0.4454  0.8480  0.4496
16555TIP3    H271157   1.816   4.733  13.631  0.7966  0.3206  0.0122
16556TIP3   OH271158   6.341   3.496   2.224  0.0893 -0.3419 -0.1822
16556TIP3    H171159   6.429   3.460   2.235  0.7103  0.6901 -1.5161
16556TIP3    H271160   6.335   3.516   2.130 -1.9861 -1.4413 -0.3428
16557TIP3   OH271161   2.134   1.273   6.093 -0.2546 -0.0961 -0.4656
16557TIP3    H171162   2.086   1.291   6.174  0.9718 -0.7946  0.4659
16557TIP3    H271163   2.165   1.359   6.064  0.6475  0.0030  0.7188
16558TIP3   OH271164   1.296   2.430   5.773  0.1295  0.6188  0.4446
16558TIP3    H171165   1.369   2.491   5.763  0.1770  0.9294  2.2617
16558TIP3    H271166   1.315   2.383   5.854 -0.8945 -0.4345  0.1072
16559TIP3   OH271167   3.848   3.140  13.727 -0.1377  0.4757  0.0185
16559TIP3    H171168   3.835   3.196  13.650  2.1386 -0.9316 -1.5009
16559TIP3    H271169   3.856   3.202  13.799 -2.2631  1.8538 -0.8003
16560TIP3   OH271170   4.948   6.200  14.281 -0.1149  0.0202  0.1777
16560TIP3    H171171   5.007   6.125  14.271 -0.7958 -0.3827 -1.0336
16560TIP3    H271172   4.861   6.164  14.264 -0.4904  0.9919  0.0140
16561TIP3   OH271173   3.190   4.868  12.729  0.1079 -0.4604 -0.2027
16561TIP3    H171174   3.232   4.950  12.753  0.8582 -0.9637  0.2673
16561TIP3    H271175   3.097   4.882  12.746  0.4697 -0.4158  1.9829
16562TIP3   OH271176   2.671   3.955   3.694  0.4930 -0.0245 -0.3848
16562TIP3    H171177   2.661   3.931   3.787  1.1483  1.4487  0.0968
16562TIP3    H271178   2.765   3.971   3.684  0.6372 -1.4476 -1.6585
16563TIP3   OH271179   0.948   0.223  15.723  0.0677  0.0727 -0.0091
16563TIP3    H171180   0.957   0.141  15.674  2.1764  1.4822 -2.2489
16563TIP3    H271181   0.857   0.250  15.708  0.3300 -0.1076 -2.4409
16564TIP3   OH271182   6.664   4.040   1.697 -0.3253  0.0418  0.1588
16564TIP3    H171183   6.628   4.006   1.615 -1.6825  0.0519  0.7213
16564TIP3    H271184   6.751   4.000   1.704  0.0809  0.5319 -1.5748
16565TIP3   OH271185   0.212   1.020  16.401  0.7296  0.4142  0.0469
16565TIP3    H171186   0.132   1.035  16.451  1.1916 -0.0111  0.9300
16565TIP3    H271187   0.244   1.107  16.380  0.9285  0.6171  1.1443
16566TIP3   OH271188   1.975   1.441   2.711  0.3797 -0.1621 -0.5417
16566TIP3    H171189   1.987   1.397   2.626  2.0537 -2.2407  0.6597
16566TIP3    H271190   2.038   1.513   2.709  0.7590 -0.4972 -0.8856
16567TIP3   OH271191   1.110   5.184   0.837  0.0045 -0.4743 -0.0752
16567TIP3    H171192   1.174   5.221   0.776  1.2427  0.8702  1.9412
16567TIP3    H271193   1.123   5.089   0.831  2.3505 -0.2424  0.4119
16568TIP3   OH271194   1.609   4.834  14.535 -0.2888 -0.5284 -0.5744
16568TIP3    H171195   1.542   4.812  14.470 -1.5020  0.8976  0.1358
16568TIP3    H271196   1.600   4.929  14.547 -0.8689 -0.8798  2.4537
16569TIP3   OH271197   1.393   5.180   4.052  0.5028 -0.3520  0.3706
16569TIP3    H171198   1.337   5.186   4.130  0.9814 -1.1510  0.7894
16569TIP3    H271199   1.476   5.147   4.085  0.8245 -0.3670 -0.4355
16570TIP3   OH271200   5.402   4.854   6.826 -0.1025 -0.2145  0.7101
16570TIP3    H171201   5.435   4.771   6.791  0.2698  0.3036 -0.1946
16570TIP3    H271202   5.480   4.908   6.837 -0.4154  0.2620  0.6297
16571TIP3   OH271203   3.032   5.308   6.605  0.5783 -0.5520  0.7395
16571TIP3    H171204   3.103   5.262   6.560  2.0140  1.7601  0.4584
16571TIP3    H271205   3.045   5.287   6.697  3.1788  1.5793  0.9951
16572TIP3   OH271206   4.693   5.770   0.689  0.3682  0.1578  0.3511
16572TIP3    H171207   4.625   5.749   0.754  0.2782 -0.2193  0.1410
16572TIP3    H271208   4.657   5.843   0.639 -0.3995 -0.7763 -0.5125
16573TIP3   OH271209   2.952   4.661   3.053  0.3916  0.2737  0.1653
16573TIP3    H171210   2.870   4.690   3.094  1.1766  1.7876  0.7222
16573TIP3    H271211   2.924   4.600   2.985 -1.2565  1.1795 -0.0231
16574TIP3   OH271212   0.962   2.818   0.842  0.4584 -0.2570  0.2303
16574TIP3    H171213   0.926   2.744   0.891  0.0601  0.5393  1.1746
16574TIP3    H271214   0.921   2.812   0.756  1.5135 -1.9480 -0.2182
16575TIP3   OH271215   4.602   1.993  16.630  0.2642 -0.5456  0.4491
16575TIP3    H171216   4.532   2.011  16.568 -0.4534 -0.3381  1.3114
16575TIP3    H271217   4.667   1.945  16.578 -0.8385 -1.4129 -0.1813
16576TIP3   OH271218   2.849   4.211  16.310 -0.2745 -0.0686  0.3208
16576TIP3    H171219   2.919   4.257  16.357 -0.9388  1.5431 -0.1748
16576TIP3    H271220   2.772   4.222  16.367 -0.5536 -0.1216 -0.0485
16577TIP3   OH271221   4.783   2.296   5.272 -0.3898 -0.0775 -0.2148
16577TIP3    H171222   4.846   2.267   5.206 -2.2398  0.2673 -2.2605
16577TIP3    H271223   4.706   2.241   5.256 -0.5102 -0.8352  2.5312
16578TIP3   OH271224   0.381   3.058  10.407 -0.0349 -0.1143  0.4923
16578TIP3    H171225   0.368   3.060  10.502 -0.5322  0.2221  0.4208
16578TIP3    H271226   0.471   3.087  10.395 -0.6288  2.0046  0.7468
16579TIP3   OH271227   6.544   0.381  11.268  0.5640  0.0425  0.2895
16579TIP3    H171228   6.499   0.423  11.341 -1.7654  0.5016 -1.3080
16579TIP3    H271229   6.561   0.451  11.205  1.4418 -0.5311 -0.1385
16580TIP3   OH271230   5.103   6.512  16.266  0.2721  0.4112  0.5699
16580TIP3    H171231   5.098   6.594  16.315  2.9667  0.2064  1.3449
16580TIP3    H271232   5.097   6.444  16.333  1.7495  0.0841  0.3997
16581TIP3   OH271233   6.220   1.749  13.692 -0.2458 -0.3306  0.0489
16581TIP3    H171234   6.177   1.800  13.622 -2.0952 -0.7862  0.7864
16581TIP3    H271235   6.271   1.814  13.740 -1.9136  0.7455  0.4804
16582TIP3   OH271236   4.508   5.294   4.420 -0.0359  0.4550 -0.2643
16582TIP3    H171237   4.451   5.221   4.446  3.1640 -2.8832 -1.6566
16582TIP3    H271238   4.541   5.329   4.502  0.1937 -1.3792  0.4788
16583TIP3   OH271239   0.325   5.142  14.224 -0.4074 -0.0175  0.4569
16583TIP3    H171240   0.232   5.151  14.202  0.2188  0.6901 -2.2403
16583TIP3    H271241   0.338   5.048  14.237 -1.3532 -0.1976  0.1939
16584TIP3   OH271242   4.003   6.043   5.091 -0.2874  0.4684 -0.0035
16584TIP3    H171243   4.077   6.048   5.031  0.3752 -0.3815  0.7275
16584TIP3    H271244   4.005   5.954   5.125 -1.1844  0.6704  0.6127
16585TIP3   OH271245   0.026   1.490  12.030 -0.8626 -0.1795  0.0497
16585TIP3    H171246   0.103   1.537  12.064 -0.7054  0.3025 -0.9600
16585TIP3    H271247  -0.014   1.550  11.968 -1.9313 -0.5283  0.3865
16586TIP3   OH271248   2.545   0.908  11.791  0.2760  0.2845  0.4333
16586TIP3    H171249   2.523   0.827  11.836  0.7509 -0.1711 -0.1250
16586TIP3    H271250   2.586   0.963  11.857  0.7353 -0.2753  0.6204
16587TIP3   OH271251   0.920   5.636   4.279  0.3484 -0.0757  0.3340
16587TIP3    H171252   0.861   5.561   4.282 -1.4302  1.2567 -0.0300
16587TIP3    H271253   0.905   5.681   4.362 -1.0784  1.6345 -0.7869
16588TIP3   OH271254   2.748   2.889   2.676 -0.4467  0.1535  0.2429
16588TIP3    H171255   2.752   2.892   2.771  0.2328  0.3559  0.2107
16588TIP3    H271256   2.749   2.981   2.649 -1.1600  0.1164  0.0521
16589TIP3   OH271257   0.293   0.798   4.542 -0.3907  0.0483  0.1761
16589TIP3    H171258   0.229   0.836   4.481 -2.1429 -2.1361  0.5505
16589TIP3    H271259   0.378   0.824   4.506 -1.3312 -1.0139 -3.1497
16590TIP3   OH271260   4.997   2.014   2.168  0.6198 -0.7676 -0.4676
16590TIP3    H171261   5.085   2.020   2.130  0.6099  0.1770 -0.3568
16590TIP3    H271262   4.975   2.104   2.193 -0.2515 -1.0449 -0.1994
16591TIP3   OH271263   0.537   2.995   0.651  0.5463 -0.0295  0.5177
16591TIP3    H171264   0.506   3.071   0.602 -1.2709 -1.0558 -0.0073
16591TIP3    H271265   0.581   3.032   0.728  1.1794  1.5581 -0.5473
16592TIP3   OH271266   1.861   3.731  11.509 -0.2472 -0.0081 -0.1733
16592TIP3    H171267   1.920   3.713  11.582 -1.1779 -0.0469  0.5851
16592TIP3    H271268   1.916   3.721  11.431  0.4000 -1.5173  0.4288
16593TIP3   OH271269   3.399   4.794  15.053  0.5050 -0.4625  0.2998
16593TIP3    H171270   3.351   4.716  15.080 -0.5480 -0.4686 -1.4459
16593TIP3    H271271   3.410   4.784  14.958 -2.1581  2.7228 -0.5606
16594TIP3   OH271272   5.989   3.107  13.255 -0.0700  0.1610 -0.1652
16594TIP3    H171273   5.957   3.170  13.191 -2.6546  0.2205  1.0273
16594TIP3    H271274   5.933   3.031  13.243  0.0519 -0.1920  1.3290
16595TIP3   OH271275   0.004   6.390  12.575 -0.3471 -0.7445 -0.3505
16595TIP3    H171276  -0.073   6.435  12.541 -0.7458  0.5339  2.0441
16595TIP3    H271277   0.042   6.451  12.639  1.2473 -2.3234  0.3147
16596TIP3   OH271278   1.792   6.314   0.130 -0.2100 -0.0285 -0.7344
16596TIP3    H171279   1.824   6.404   0.137 -1.9387  0.6040 -0.5098
16596TIP3    H271280   1.699   6.319   0.154 -0.4226 -1.8238 -1.0185
16597TIP3   OH271281   4.749   3.933  15.686 -0.1199  0.2440 -0.4118
16597TIP3    H171282   4.781   3.865  15.627  1.5302  1.0743 -0.5174
16597TIP3    H271283   4.778   4.015  15.646 -0.4050  0.9093  0.7001
16598TIP3   OH271284   5.517   0.280  12.374  0.1205  0.5940 -0.5866
16598TIP3    H171285   5.472   0.290  12.290  0.6725 -1.7597 -1.2328
16598TIP3    H271286   5.552   0.191  12.372  0.8676  0.7668  1.8140
16599TIP3   OH271287   1.066   6.088   2.932  0.3764  0.3770 -0.2935
16599TIP3    H171288   1.057   6.174   2.972 -1.5466  0.3168 -0.5033
16599TIP3    H271289   1.098   6.105   2.844 -1.5545  1.0572 -0.9073
16600TIP3   OH271290   4.651   3.302   2.671  0.3161  0.0917  0.4155
16600TIP3    H171291   4.614   3.320   2.757  1.1178  0.7499  0.6330
16600TIP3    H271292   4.728   3.358   2.665  2.3026 -2.4293  0.6673
16601TIP3   OH271293   5.650   0.469   3.158  0.4606 -0.2146 -0.0223
16601TIP3    H171294   5.612   0.551   3.126 -0.1671  0.0817  1.4024
16601TIP3    H271295   5.592   0.401   3.125  0.3507  0.0067 -0.2877
16602TIP3   OH271296   6.028   5.630  12.588  0.4300 -0.0816 -0.5003
16602TIP3    H171297   6.102   5.600  12.535 -0.3787 -0.4489 -1.4572
16602TIP3    H271298   6.005   5.715  12.550  0.5644  0.1817  0.0027
16603TIP3   OH271299   5.836   5.917   4.951  0.2210  0.1394 -0.6247
16603TIP3    H171300   5.811   5.971   4.876 -0.8674  1.8543  0.8812
16603TIP3    H271301   5.756   5.910   5.002  0.9667 -0.8843  0.4446
16604TIP3   OH271302   4.210   3.025  12.453 -0.3376  0.0482 -0.7564
16604TIP3    H171303   4.271   3.050  12.384 -0.0821  0.3628 -0.4183
16604TIP3    H271304   4.200   2.930  12.443 -0.6605  0.1584 -1.5147
16605TIP3   OH271305   3.501   4.871  12.552 -0.7540  0.4343  0.0173
16605TIP3    H171306   3.420   4.836  12.589  0.1917 -0.1004  1.6717
16605TIP3    H271307   3.557   4.795  12.538  1.1048  1.0508  3.0971
16606TIP3   OH271308   3.714   3.656   1.259 -0.8650 -0.1843  0.2622
16606TIP3    H171309   3.748   3.607   1.334  0.4974 -1.7443 -1.2631
16606TIP3    H271310   3.689   3.588   1.196 -1.6359  1.0787 -0.8407
16607TIP3   OH271311   2.869   6.108   3.102  0.0070 -0.4646  0.1606
16607TIP3    H171312   2.779   6.139   3.102  0.4251  0.8946  1.4211
16607TIP3    H271313   2.907   6.143   3.022  0.3200  1.9754  1.2980
16608TIP3   OH271314   4.969   3.273   3.441  0.1543  0.6131  0.6606
16608TIP3    H171315   4.911   3.257   3.367 -0.4098 -0.6282  1.3374
16608TIP3    H271316   5.009   3.358   3.423 -1.5202  1.2800 -0.0402
16609TIP3   OH271317   5.002   5.826   3.682  0.3053  0.4199 -0.3158
16609TIP3    H171318   5.065   5.854   3.749  0.5288 -0.0164 -0.3366
16609TIP3    H271319   4.919   5.820   3.728  0.3630  0.5912 -0.1873
16610TIP3   OH271320   0.457   5.305   4.900  0.8032 -0.0377  0.1321
16610TIP3    H171321   0.399   5.381   4.911 -1.1308 -1.3805 -0.1938
16610TIP3    H271322   0.499   5.319   4.816  0.8864  0.9229  0.3215
16611TIP3   OH271323   1.507   2.205   4.139 -0.4337  0.0036  0.3883
16611TIP3    H171324   1.418   2.235   4.122  0.2770  1.5995 -0.7900
16611TIP3    H271325   1.531   2.156   4.060 -0.1730 -0.1607  0.5709
16612TIP3   OH271326   1.600   5.200   5.639 -0.0756 -0.1160  0.3041
16612TIP3    H171327   1.666   5.203   5.708  1.7819 -1.4273 -1.3090
16612TIP3    H271328   1.555   5.284   5.645  2.8803  1.5997  0.4412
16613TIP3   OH271329   4.175   0.208   4.573 -0.0739  0.3123  0.7846
16613TIP3    H171330   4.200   0.192   4.482  0.5345 -2.3896  1.3336
16613TIP3    H271331   4.258   0.223   4.619 -0.2656  0.4806  1.0774
16614TIP3   OH271332   0.090   4.314   2.724  0.8310  0.4003 -0.4088
16614TIP3    H171333   0.179   4.348   2.731  0.8161  0.3485  0.0801
16614TIP3    H271334   0.100   4.230   2.680  0.8689  1.0094 -1.6123
16615TIP3   OH271335   0.039   0.739   3.275  0.3700  0.1434  0.5994
16615TIP3    H171336   0.086   0.663   3.308 -0.2323 -0.3767  0.2843
16615TIP3    H271337   0.094   0.773   3.204  1.2791  0.7954  1.5799
16616TIP3   OH271338   2.707   5.259   0.237  0.3918  0.1359 -0.6702
16616TIP3    H171339   2.765   5.306   0.297  0.3197  0.4751 -0.8652
16616TIP3    H271340   2.620   5.265   0.277  0.3450  0.3554 -0.8031
16617TIP3   OH271341   0.988   0.113  13.002  0.5915 -0.3072 -0.0125
16617TIP3    H171342   0.964   0.076  13.088 -0.4353 -0.9528 -0.5522
16617TIP3    H271343   1.077   0.082  12.987  0.8306 -0.0829  0.8810
16618TIP3   OH271344   5.867   3.111  11.140  0.3919 -0.1347  0.0500
16618TIP3    H171345   5.825   3.077  11.219 -0.3457 -0.1344 -0.3359
16618TIP3    H271346   5.846   3.046  11.072 -0.9362  1.0148 -0.6761
16619TIP3   OH271347   3.235   0.193   5.860  0.8210 -0.3037  0.0417
16619TIP3    H171348   3.271   0.277   5.831  0.1161  0.3688  1.0224
16619TIP3    H271349   3.247   0.194   5.955  0.2210 -1.0375  0.1320
16620TIP3   OH271350   0.363   6.137   5.719 -0.1939  0.1243  0.2765
16620TIP3    H171351   0.346   6.187   5.799  1.3442  0.1632  0.6063
16620TIP3    H271352   0.458   6.139   5.709 -0.3974  1.7141 -2.5573
16621TIP3   OH271353   5.810   2.483   1.439 -0.0360  0.7378 -0.4069
16621TIP3    H171354   5.818   2.518   1.350  1.9603 -0.9432 -0.9496
16621TIP3    H271355   5.885   2.519   1.486  1.0735 -1.3203 -0.4995
16622TIP3   OH271356   1.245   5.501   1.087 -0.0824 -1.0036 -0.0454
16622TIP3    H171357   1.222   5.525   0.997  3.2742 -0.9179 -1.0052
16622TIP3    H271358   1.244   5.584   1.135 -2.3861 -1.1148  0.2224
16623TIP3   OH271359   3.540   3.282  14.716  0.2791  0.1915  0.7863
16623TIP3    H171360   3.620   3.286  14.664  0.2230 -3.3858  0.1984
16623TIP3    H271361   3.470   3.268  14.652 -0.2264 -0.9688  1.5579
16624TIP3   OH271362   2.992   3.443   6.619  0.0885  0.4466  0.6209
16624TIP3    H171363   3.021   3.369   6.672  0.2758  0.1289  0.0914
16624TIP3    H271364   2.898   3.428   6.605  0.3476 -0.3216 -0.4403
16625TIP3   OH271365   2.442   2.753   2.308 -0.8104  0.5002  0.8880
16625TIP3    H171366   2.462   2.680   2.250 -0.7062  0.7349  0.6220
16625TIP3    H271367   2.468   2.831   2.258 -1.8534  0.7850  0.7426
16626TIP3   OH271368   5.102   3.228  14.841 -0.5559  0.4482 -0.2857
16626TIP3    H171369   5.061   3.152  14.881 -0.1109 -0.0833 -0.8190
16626TIP3    H271370   5.039   3.299  14.853 -0.8149  0.0848  0.5429
16627TIP3   OH271371   1.765   4.658   1.437  0.0803 -0.5396 -0.1515
16627TIP3    H171372   1.788   4.655   1.530 -0.3308  1.4290  0.0673
16627TIP3    H271373   1.814   4.586   1.397  0.7718 -1.0130  1.4821
16628TIP3   OH271374   2.208   6.733   0.466  0.2303 -0.5641 -0.3414
16628TIP3    H171375   2.135   6.779   0.506  2.5084  1.1130  2.2303
16628TIP3    H271376   2.188   6.640   0.479 -1.8998 -0.2153 -0.7343
16629TIP3   OH271377   2.434   5.272   1.398 -0.5943  0.1283 -0.8532
16629TIP3    H171378   2.395   5.215   1.465  1.6320 -2.5299 -1.6584
16629TIP3    H271379   2.520   5.295   1.433 -0.2957  0.5575 -1.8420
16630TIP3   OH271380   4.695   5.405   6.537 -0.4456  0.1476 -0.2477
16630TIP3    H171381   4.714   5.450   6.619  0.0019  0.1083 -0.3244
16630TIP3    H271382   4.779   5.367   6.511 -0.3133  1.1155 -1.3143
16631TIP3   OH271383   2.053   0.719  14.380  0.4923  0.0884 -0.3605
16631TIP3    H171384   2.140   0.744  14.411  0.2185 -1.2374  1.7214
16631TIP3    H271385   2.017   0.799  14.343  1.2459  1.6865  2.1006
16632TIP3   OH271386   4.382   1.366   5.502  0.6794  0.6465  0.0619
16632TIP3    H171387   4.369   1.277   5.470  2.0474  0.6441 -0.5880
16632TIP3    H271388   4.312   1.380   5.566  0.7038 -1.0419  0.4891
16633TIP3   OH271389   1.702   2.481  16.496  0.5887  0.7506 -0.4891
16633TIP3    H171390   1.720   2.524  16.580 -0.6447 -0.6888  0.5738
16633TIP3    H271391   1.622   2.431  16.512  0.4126  0.3160 -2.5016
16634TIP3   OH271392   4.343   5.289   3.231 -0.3436  0.0570  0.0805
16634TIP3    H171393   4.258   5.322   3.203 -1.2147 -0.8460  1.5144
16634TIP3    H271394   4.365   5.221   3.168 -1.0826 -0.2754  0.1789
16635TIP3   OH271395   1.220   2.627  11.491 -0.2883 -0.4722 -0.0379
16635TIP3    H171396   1.306   2.600  11.461  0.4965  0.4663  1.2787
16635TIP3    H271397   1.159   2.580  11.433  1.0377 -2.5148  0.1251
16636TIP3   OH271398   1.170   1.088   1.014  0.1692  0.1978  0.5657
16636TIP3    H171399   1.211   1.002   1.006  0.0525  0.1858  0.0631
16636TIP3    H271400   1.181   1.128   0.928 -1.6187 -0.1450  0.1234
16637TIP3   OH271401   0.196   6.483  10.534  0.1774 -0.2341  0.0766
16637TIP3    H171402   0.177   6.525  10.451  1.5573 -0.5836 -0.4425
16637TIP3    H271403   0.184   6.389  10.517 -2.8364 -0.1822  1.2084
16638TIP3   OH271404   4.601   5.269  11.106  0.5856 -0.0012  0.0312
16638TIP3    H171405   4.674   5.233  11.057  1.2374 -0.0516  1.0185
16638TIP3    H271406   4.633   5.276  11.196 -0.4292  0.5129  0.3697
16639TIP3   OH271407   2.899   6.641   5.019  0.0051 -0.1743 -0.6695
16639TIP3    H171408   2.929   6.558   5.058  0.3831  0.6457  0.8438
16639TIP3    H271409   2.841   6.679   5.085  0.6003  1.2332 -0.9229
16640TIP3   OH271410   0.741   2.404  13.000 -0.2000  0.1737 -0.2287
16640TIP3    H171411   0.807   2.340  12.974 -0.7662  0.7292 -3.4382
16640TIP3    H271412   0.791   2.484  13.016  0.3199 -0.5455  2.1088
16641TIP3   OH271413   0.366   2.415  12.379 -0.3819 -0.1835 -0.1242
16641TIP3    H171414   0.352   2.363  12.459  1.3852  2.3096  1.9669
16641TIP3    H271415   0.312   2.493  12.392  0.8084  0.7724 -0.8182
16642TIP3   OH271416   0.811   2.034   0.181 -0.5827 -0.0537  0.6403
16642TIP3    H171417   0.721   2.010   0.207  0.1813 -0.8549  2.8264
16642TIP3    H271418   0.866   1.993   0.248  1.4047  0.7577 -0.4303
16643TIP3   OH271419   2.952   0.700  15.633 -0.0786  0.0582 -0.1400
16643TIP3    H171420   2.889   0.638  15.597  0.3608 -1.3311  1.3939
16643TIP3    H271421   2.899   0.756  15.690 -0.1290 -0.3388  0.2083
16644TIP3   OH271422   4.137   4.094  14.346  0.3959  0.3354 -0.4163
16644TIP3    H171423   4.072   4.043  14.394  0.3848 -1.4912 -2.2336
16644TIP3    H271424   4.085   4.151  14.289  0.4192  1.6120  0.7863
16645TIP3   OH271425   0.927   6.606   6.196  0.4270  0.4733  0.4961
16645TIP3    H171426   0.860   6.583   6.132  0.3415  0.0291  0.7424
16645TIP3    H271427   0.902   6.559   6.276  1.7358 -0.7713  0.2218
16646TIP3   OH271428   2.759   3.323  12.599  0.0233 -0.4011  0.1506
16646TIP3    H171429   2.708   3.327  12.680 -0.7983 -2.3965 -0.1884
16646TIP3    H271430   2.839   3.278  12.623  0.5554  0.5400  0.1798
16647TIP3   OH271431   2.969   5.875  16.695 -0.0300  0.0774 -0.0338
16647TIP3    H171432   2.925   5.791  16.691  0.2949 -0.0294 -2.0327
16647TIP3    H271433   2.914   5.929  16.752 -1.0027 -1.0251  0.0876
16648TIP3   OH271434   6.080   6.219  11.495 -0.1705 -0.1622  0.3067
16648TIP3    H171435   6.024   6.296  11.483  0.0718 -0.2899 -1.9958
16648TIP3    H271436   6.023   6.155  11.538 -1.3721  0.2049 -0.6761
16649TIP3   OH271437   3.963   5.051   1.579  1.2263  0.6403  0.4172
16649TIP3    H171438   4.057   5.065   1.572  1.0839  1.0385 -0.8969
16649TIP3    H271439   3.932   5.048   1.489  0.2168 -1.2234  0.7651
16650TIP3   OH271440   2.482   5.572   0.933  0.7318 -0.9986  0.4470
16650TIP3    H171441   2.421   5.532   0.995  1.2237 -0.7357  1.1062
16650TIP3    H271442   2.448   5.660   0.919  0.2423 -1.2794 -0.1894
16651TIP3   OH271443   2.444   0.846  17.155  0.4960 -0.1545 -0.0285
16651TIP3    H171444   2.518   0.854  17.095  0.7590  0.9888  0.4294
16651TIP3    H271445   2.383   0.788  17.109  0.4145  1.1551 -1.6853
16652TIP3   OH271446   1.924   4.202   0.239  0.0150 -0.3448 -0.6786
16652TIP3    H171447   2.003   4.155   0.213  0.6041  1.1512 -1.7370
16652TIP3    H271448   1.939   4.225   0.331 -0.1983 -1.9689 -0.1990
16653TIP3   OH271449   2.913   3.230  12.012  0.5782 -0.0143 -0.2210
16653TIP3    H171450   2.951   3.142  12.021  2.1629  0.8171  1.9845
16653TIP3    H271451   2.883   3.252  12.101  2.4974  2.6254 -0.1131
16654TIP3   OH271452   4.023   4.592  16.148  0.1101  0.3029  0.4287
16654TIP3    H171453   4.057   4.567  16.062  0.5670 -1.4113  1.0779
16654TIP3    H271454   3.988   4.511  16.185  1.2630  0.6555  2.4739
16655TIP3   OH271455   4.822   4.754   4.101 -0.1542 -0.2307  0.3069
16655TIP3    H171456   4.745   4.811   4.107 -0.5361 -0.6607 -0.4254
16655TIP3    H271457   4.787   4.669   4.075  0.4533 -0.7210  1.0343
16656TIP3   OH271458   4.879   0.978   2.278  0.5526 -0.8457  0.6343
16656TIP3    H171459   4.785   0.996   2.271  0.6942 -0.2139  0.2358
16656TIP3    H271460   4.900   0.995   2.370  0.2215 -1.2638  0.7873
16657TIP3   OH271461   0.268   4.787  13.051  0.5150  0.2099 -0.7277
16657TIP3    H171462   0.235   4.748  13.132 -0.8596  0.8378 -0.9692
16657TIP3    H271463   0.343   4.840  13.079  1.2221 -1.0433 -0.1470
16658TIP3   OH271464   3.710   1.447  16.224  0.6365 -0.1182 -0.3682
16658TIP3    H171465   3.773   1.434  16.153 -0.0987  0.9516 -1.2354
16658TIP3    H271466   3.764   1.474  16.299  1.3248 -0.4104 -0.7527
16659TIP3   OH271467   1.040   0.232   1.153 -0.3040 -0.1629 -0.5615
16659TIP3    H171468   1.060   0.202   1.242 -1.5148 -0.2783 -0.3146
16659TIP3    H271469   1.117   0.283   1.128  0.2296 -0.4590  0.3962
16660TIP3   OH271470   6.743   4.482   4.114  0.0240  0.3653 -0.0412
16660TIP3    H171471   6.670   4.466   4.054  0.0440  0.8307 -0.1980
16660TIP3    H271472   6.754   4.577   4.112  2.3245  0.1494 -2.0615
16661TIP3   OH271473   6.728   0.524   6.600 -0.7211 -0.1033 -0.1607
16661TIP3    H171474   6.760   0.613   6.585  0.1723 -0.1234  1.4087
16661TIP3    H271475   6.635   0.528   6.580 -0.4925  0.9207 -1.1087
16662TIP3   OH271476   0.159   5.400   5.138  0.3347  0.6535 -0.0312
16662TIP3    H171477   0.091   5.445   5.187 -0.1100 -0.5113  0.4628
16662TIP3    H271478   0.118   5.377   5.055 -0.4717 -1.5071  0.8943
16663TIP3   OH271479   6.441   4.965   0.314  0.9591  0.4005 -0.5636
16663TIP3    H171480   6.377   4.946   0.246  0.0620 -0.8984  0.5866
16663TIP3    H271481   6.482   4.880   0.333  0.1318  0.4134  1.5200
16664TIP3   OH271482   5.842   2.135  14.130  0.1919  0.4089  0.0902
16664TIP3    H171483   5.874   2.082  14.057 -3.3712  1.3482 -2.4117
16664TIP3    H271484   5.874   2.223  14.112 -0.6979  0.6432 -0.3985
16665TIP3   OH271485   1.438   4.810   0.425 -0.0263 -0.0788 -0.7055
16665TIP3    H171486   1.524   4.822   0.385  0.2419  1.3045  0.2459
16665TIP3    H271487   1.456   4.759   0.504 -0.3607 -1.4351 -1.4582
16666TIP3   OH271488   0.476   4.919  15.433  0.2508  0.0635  0.0939
16666TIP3    H171489   0.504   5.001  15.475 -0.4178 -0.0304  0.7429
16666TIP3    H271490   0.381   4.922  15.437  0.1762 -0.0965 -1.1638
16667TIP3   OH271491   5.596   6.576  17.230  0.8473  0.6968  0.4037
16667TIP3    H171492   5.563   6.610  17.147 -0.2388  0.8838  0.8876
16667TIP3    H271493   5.629   6.488  17.210  0.9214  0.8762 -0.2791
16668TIP3   OH271494   4.529   0.727   4.350 -0.0908 -0.5893 -0.5179
16668TIP3    H171495   4.531   0.654   4.289 -1.5575 -1.4278  0.3950
16668TIP3    H271496   4.448   0.775   4.328 -0.9580 -1.2366  1.0856
16669TIP3   OH271497   4.707   3.260   4.938 -0.2191  0.4906  0.2025
16669TIP3    H171498   4.745   3.282   4.853  0.8461  0.4344  0.6556
16669TIP3    H271499   4.634   3.201   4.917 -0.1044  0.6527 -0.6788
16670TIP3   OH271500   4.072   3.078  15.661 -0.2056 -0.2297  0.1062
16670TIP3    H171501   4.149   3.022  15.670  0.8905  1.3569  1.2837
16670TIP3    H271502   4.107   3.162  15.632 -1.7315  0.0168 -1.0976
16671TIP3   OH271503   4.426   5.940  12.273  0.2916 -0.4044 -0.7764
16671TIP3    H171504   4.398   5.870  12.215 -2.3131 -0.7948  0.7916
16671TIP3    H271505   4.347   5.992  12.289  1.7624  1.9333 -0.5502
16672TIP3   OH271506   4.505   1.047  13.133 -0.1314  0.3829  0.0263
16672TIP3    H171507   4.488   1.135  13.168 -0.0383  0.0321  0.9767
16672TIP3    H271508   4.420   1.005  13.130  0.0197 -0.0149  1.0324
16673TIP3   OH271509   1.547   4.834  12.799  0.5223 -0.3518 -0.4449
16673TIP3    H171510   1.564   4.748  12.837  0.1352 -1.0260 -1.7377
16673TIP3    H271511   1.623   4.887  12.824  0.1294 -0.6424  1.5167
16674TIP3   OH271512   5.005   3.968   4.542  0.1785 -0.4089 -0.3256
16674TIP3    H171513   4.939   3.991   4.608 -1.4216 -2.2320 -1.1841
16674TIP3    H271514   5.013   4.047   4.488 -0.6141  0.1601  0.3511
16675TIP3   OH271515   2.971   5.669   4.924  0.1358  0.3693  0.2047
16675TIP3    H171516   2.885   5.711   4.915  0.5138  1.0968 -0.0947
16675TIP3    H271517   3.034   5.738   4.900  0.8269 -0.0052  0.8981
16676TIP3   OH271518   4.045   5.793  11.721  0.3635  0.1473  0.6803
16676TIP3    H171519   3.994   5.712  11.724 -1.1839  1.0431 -0.3237
16676TIP3    H271520   4.062   5.808  11.628  0.0791  1.2822  0.7922
16677TIP3   OH271521   1.677   3.573  15.180 -0.2015  0.1766 -0.0472
16677TIP3    H171522   1.758   3.577  15.129 -0.4483  2.8623 -0.3333
16677TIP3    H271523   1.705   3.589  15.270 -0.2633 -0.3870  0.0771
16678TIP3   OH271524   3.797   5.975   3.212  0.2432  0.4183 -0.0614
16678TIP3    H171525   3.885   5.980   3.173  0.3588  2.0555  0.3469
16678TIP3    H271526   3.812   5.934   3.298  0.5111  0.1629 -0.2254
16679TIP3   OH271527   2.484   3.669  12.091 -0.1172 -0.3189 -0.2121
16679TIP3    H171528   2.566   3.639  12.053 -0.4761 -0.0871 -1.2043
16679TIP3    H271529   2.444   3.723  12.023 -0.6020  0.4339  0.6499
16680TIP3   OH271530   1.733   3.445  17.309 -0.0670  0.2023  0.3604
16680TIP3    H171531   1.747   3.352  17.292  1.9014  0.3480  1.0417
16680TIP3    H271532   1.665   3.447  17.376 -1.1599 -0.6648 -0.6762
16681TIP3   OH271533   3.775   2.077  12.641  0.4756  0.4141  0.7475
16681TIP3    H171534   3.738   1.991  12.625 -3.2691  1.9566 -0.0009
16681TIP3    H271535   3.794   2.078  12.735 -1.9605 -0.4179  1.3066
16682TIP3   OH271536   4.119   3.826   3.113 -0.5578 -0.3641  0.4519
16682TIP3    H171537   4.092   3.892   3.177 -0.9515 -0.4456  0.3743
16682TIP3    H271538   4.215   3.831   3.112 -0.5652 -0.1134  0.7816
16683TIP3   OH271539   6.661   5.338  15.651 -0.1352  0.3669  0.2166
16683TIP3    H171540   6.698   5.251  15.667 -0.8864 -0.0302 -0.1694
16683TIP3    H271541   6.580   5.322  15.602 -1.4776  1.1182  2.0611
16684TIP3   OH271542   1.553   2.425   3.003  0.0238  0.2431 -0.0313
16684TIP3    H171543   1.642   2.422   3.039 -0.0719 -2.9332  0.1917
16684TIP3    H271544   1.563   2.470   2.919  2.0140 -0.6452 -0.3340
16685TIP3   OH271545   3.142   2.429   1.715  0.1644  0.0124 -0.2072
16685TIP3    H171546   3.183   2.355   1.759  1.7640  0.6550 -0.5457
16685TIP3    H271547   3.100   2.391   1.638  2.1738 -0.4258 -1.1574
16686TIP3   OH271548   1.550   5.065   5.402 -0.1564  0.0845  0.2320
16686TIP3    H171549   1.502   5.113   5.334 -2.1705  0.8574  2.0885
16686TIP3    H271550   1.544   5.121   5.479 -0.2720 -1.9512  1.7796
16687TIP3   OH271551   3.563   2.980  14.646  0.0742 -0.2708 -0.3195
16687TIP3    H171552   3.606   2.895  14.631 -2.4743 -1.8743  0.8551
16687TIP3    H271553   3.626   3.030  14.698  0.4992 -2.6514  1.6427
16688TIP3   OH271554   1.153   0.245   6.007 -0.5864 -0.1308  0.1659
16688TIP3    H171555   1.187   0.168   6.052  1.2227 -0.1365 -1.1100
16688TIP3    H271556   1.086   0.280   6.066  0.1076 -1.4024  1.7776
16689TIP3   OH271557   5.839   4.803  14.842  0.1778  0.4335  0.0105
16689TIP3    H171558   5.893   4.881  14.856  0.0689  0.3727  0.8041
16689TIP3    H271559   5.889   4.749  14.781  0.4951  0.8852 -0.1322
16690TIP3   OH271560   4.095   2.406  16.354 -0.3550  0.0107 -0.3326
16690TIP3    H171561   4.049   2.476  16.308 -0.2952  0.9469  0.9590
16690TIP3    H271562   4.033   2.374  16.419  0.4725  0.6644  0.8168
16691TIP3   OH271563   4.217   0.270   5.558  0.1302  0.0854 -0.3488
16691TIP3    H171564   4.182   0.184   5.583  1.2125 -0.0719  0.7082
16691TIP3    H271565   4.303   0.250   5.520  0.1797  0.6684 -0.5458
16692TIP3   OH271566   4.971   5.513   1.012  0.2295 -0.4624 -0.2305
16692TIP3    H171567   4.879   5.527   0.988 -0.0816 -0.4028  0.9229
16692TIP3    H271568   4.992   5.427   0.977  0.3166  0.2615 -2.1132
16693TIP3   OH271569   2.427   4.643   1.230  0.4398  0.2988  0.4332
16693TIP3    H171570   2.346   4.681   1.264  0.2285 -0.1270  0.4151
16693TIP3    H271571   2.400   4.594   1.152  0.5057 -0.8928  1.1397
16694TIP3   OH271572   5.715   2.506   3.351  0.1851  0.3014  0.9647
16694TIP3    H171573   5.778   2.447   3.393  2.3987  1.1418 -0.9321
16694TIP3    H271574   5.632   2.460   3.356  1.1321 -1.3459  2.7037
16695TIP3   OH271575   1.333   3.034  15.802  0.1307 -0.1388  0.2317
16695TIP3    H171576   1.325   2.944  15.833  3.4631 -0.5721  0.1587
16695TIP3    H271577   1.334   3.027  15.707 -2.2510  0.3685  0.0891
16696TIP3   OH271578   2.019   1.683   0.290 -0.1657 -0.1009 -0.1366
16696TIP3    H171579   2.078   1.627   0.340  0.0969 -0.2733 -0.6329
16696TIP3    H271580   1.990   1.628   0.217  1.0440  0.7608 -1.3258
16697TIP3   OH271581   2.817   6.259  13.432 -0.3698  0.2142 -0.2141
16697TIP3    H171582   2.878   6.333  13.428 -0.3674  0.1592 -2.3380
16697TIP3    H271583   2.730   6.300  13.425 -0.6562  0.2674  2.5051
16698TIP3   OH271584   3.586   6.645  11.412  0.4180  0.6943  0.1354
16698TIP3    H171585   3.550   6.685  11.333  1.9189  2.2571  0.2086
16698TIP3    H271586   3.668   6.690  11.428  0.5500 -0.1280  2.1598
16699TIP3   OH271587   1.274   0.293  17.251 -0.2796 -0.1795 -0.0389
16699TIP3    H171588   1.218   0.348  17.307  1.5606  1.3281  0.4312
16699TIP3    H271589   1.250   0.318  17.162 -1.7212 -1.0308  0.0735
16700TIP3   OH271590   4.248   5.387   6.430 -0.1613 -0.0435 -0.5786
16700TIP3    H171591   4.259   5.474   6.468  0.5887  0.1920 -1.2842
16700TIP3    H271592   4.164   5.357   6.462  0.2954  0.2735  0.9846
16701TIP3   OH271593   1.149   4.560  14.387  1.0973  0.0358 -0.3126
16701TIP3    H171594   1.073   4.505  14.406  0.6855  0.6506 -0.1424
16701TIP3    H271595   1.180   4.529  14.302  0.2910  0.1650 -0.6686
16702TIP3   OH271596   2.880   4.872  13.321 -0.3341  0.7245 -0.3835
16702TIP3    H171597   2.870   4.865  13.226  0.0091  1.5910 -0.4882
16702TIP3    H271598   2.811   4.815  13.356 -0.1393 -0.0102 -1.1473
16703TIP3   OH271599   3.436   5.237  14.359  0.2527  0.0098  0.0808
16703TIP3    H171600   3.519   5.208  14.397 -0.6962  0.9180  3.1837
16703TIP3    H271601   3.459   5.313  14.306  1.4174  0.5533  1.2790
16704TIP3   OH271602   2.337   1.661  12.028  0.8430 -0.4330 -0.2957
16704TIP3    H171603   2.321   1.645  11.935  1.2086  0.3941 -0.5081
16704TIP3    H271604   2.382   1.582  12.059  2.3432  0.0305 -1.2417
16705TIP3   OH271605   5.343   4.799  13.884  0.1108  0.6845  0.3931
16705TIP3    H171606   5.406   4.746  13.836  0.8587  1.5699  0.3706
16705TIP3    H271607   5.263   4.747  13.884  0.6768 -0.2094 -0.0660
16706TIP3   OH271608   4.930   5.980   3.133 -0.4445  0.1692 -0.3312
16706TIP3    H171609   4.889   6.065   3.117 -1.4696 -0.4522 -1.1192
16706TIP3    H271610   4.858   5.917   3.129  0.1747 -0.6637  1.0721
16707TIP3   OH271611   6.204   6.554  16.865 -0.4238 -0.6738  0.1247
16707TIP3    H171612   6.223   6.552  16.771 -1.6155 -0.8142 -0.1175
16707TIP3    H271613   6.258   6.626  16.898  0.8012 -1.2832 -0.4720
16708TIP3   OH271614   0.655   3.127   5.738 -0.1703  0.2897 -0.4658
16708TIP3    H171615   0.742   3.149   5.705  0.0418 -1.4545 -1.2001
16708TIP3    H271616   0.663   3.131   5.833  0.1942  1.8691 -0.5280
16709TIP3   OH271617   3.483   1.277   6.646  0.2338 -0.6387 -0.1031
16709TIP3    H171618   3.413   1.287   6.711 -0.5487 -1.5033 -0.7797
16709TIP3    H271619   3.442   1.229   6.574  0.7953  1.1298 -1.6914
16710TIP3   OH271620   1.741   1.893  17.402  0.0097  0.3980 -0.1078
16710TIP3    H171621   1.668   1.836  17.377  1.7265 -1.3145 -1.5268
16710TIP3    H271622   1.736   1.898  17.497 -2.6196  1.3122 -0.2232
16711TIP3   OH271623   0.791   4.488  14.986 -0.1544 -0.3891 -0.2658
16711TIP3    H171624   0.725   4.475  15.054 -0.8580 -0.4237 -0.9333
16711TIP3    H271625   0.861   4.427  15.008 -1.2822 -1.8997 -0.6899
16712TIP3   OH271626   2.366   6.294  11.814 -0.2411  0.5797 -0.6492
16712TIP3    H171627   2.370   6.313  11.908 -0.6521  0.8716 -0.6925
16712TIP3    H271628   2.275   6.310  11.790 -0.5730 -1.2325 -0.7376
16713TIP3   OH271629   2.855   0.818  16.453 -0.5989 -0.1362 -0.4236
16713TIP3    H171630   2.917   0.766  16.401 -0.6523 -0.5981 -0.0250
16713TIP3    H271631   2.822   0.883  16.391  1.2613  0.9783 -0.3315
16714TIP3   OH271632   0.280   3.364   3.854 -0.2404 -0.0913  0.3120
16714TIP3    H171633   0.275   3.273   3.885  0.3159  0.1079  1.0211
16714TIP3    H271634   0.199   3.404   3.884 -0.6140 -0.4193 -0.2416
16715TIP3   OH271635   2.976   2.258   0.309 -0.0451 -0.1910  0.6534
16715TIP3    H171636   2.958   2.194   0.378  3.3106 -1.3555  0.6299
16715TIP3    H271637   3.027   2.327   0.352  0.2609  0.1553 -0.2281
16716TIP3   OH271638   2.840   5.779  12.219 -0.2888  0.4235  0.1715
16716TIP3    H171639   2.858   5.855  12.165  1.6328 -0.3074 -0.2850
16716TIP3    H271640   2.747   5.788  12.243 -0.5630  1.9643 -1.2976
16717TIP3   OH271641   6.181   5.285   3.038 -0.4033 -0.6030  0.2304
16717TIP3    H171642   6.240   5.345   2.992 -1.9044  1.5599  0.9681
16717TIP3    H271643   6.191   5.201   2.992  1.9176  0.1218 -0.7255
16718TIP3   OH271644   2.872   3.604  13.719  0.1209 -0.5822 -0.2814
16718TIP3    H171645   2.921   3.645  13.791  1.0291  1.3430 -1.9016
16718TIP3    H271646   2.934   3.601  13.646 -1.6962  0.5700 -1.9684
16719TIP3   OH271647   5.218   2.994   4.700 -0.1783  0.0009  0.3217
16719TIP3    H171648   5.235   2.951   4.784  0.6035 -1.0006 -0.3175
16719TIP3    H271649   5.229   3.087   4.718  1.7810 -0.3008  0.9553
16720TIP3   OH271650   4.133   1.332  16.231 -0.1528 -0.0653 -0.9107
16720TIP3    H171651   4.223   1.301  16.242 -0.2361 -0.5192 -1.4954
16720TIP3    H271652   4.087   1.260  16.188 -0.7621  0.2214 -0.7559
16721TIP3   OH271653   2.910   0.202   2.424  0.2837 -0.0641 -0.4703
16721TIP3    H171654   2.844   0.187   2.356  0.4618  0.6280 -0.8138
16721TIP3    H271655   2.973   0.132   2.412 -0.4569 -0.8162 -0.0490
16722TIP3   OH271656   5.375   3.338  17.127  0.6991 -0.0189 -0.5025
16722TIP3    H171657   5.364   3.433  17.122  0.5645 -0.0643 -1.1181
16722TIP3    H271658   5.458   3.321  17.084  0.9222 -0.1421 -0.0252
16723TIP3   OH271659   4.752   5.803  15.928 -0.0959  0.1142  0.1040
16723TIP3    H171660   4.787   5.722  15.966 -1.7869 -0.0268  1.5045
16723TIP3    H271661   4.658   5.786  15.918 -0.4891  1.8919  0.4051
16724TIP3   OH271662   1.398   1.119   3.970  0.2494 -0.2585  0.6461
16724TIP3    H171663   1.315   1.117   3.923 -0.7521  0.2860  2.3093
16724TIP3    H271664   1.421   1.211   3.974  0.0070 -0.2324  1.7077
16725TIP3   OH271665   4.113   4.701   1.548 -0.0926 -0.3636 -0.5476
16725TIP3    H171666   4.035   4.739   1.588  0.8173  0.3067  0.6765
16725TIP3    H271667   4.184   4.723   1.608  1.0281 -1.0696 -1.5539
16726TIP3   OH271668   1.621   2.760  15.786 -0.0767  0.1229  0.1927
16726TIP3    H171669   1.549   2.804  15.740  0.5362  0.0074 -0.9145
16726TIP3    H271670   1.633   2.811  15.866 -0.8603  0.6249  0.0015
16727TIP3   OH271671   0.251   0.044  13.677 -0.3182  0.5897  0.0912
16727TIP3    H171672   0.220   0.002  13.758  0.0155 -0.3856 -0.2718
16727TIP3    H271673   0.179   0.102  13.651 -0.1617  1.4358  1.4369
16728TIP3   OH271674   3.291   0.927  12.767  0.1690  0.1810  0.1383
16728TIP3    H171675   3.207   0.912  12.811 -0.0093 -0.1423 -0.3131
16728TIP3    H271676   3.344   0.851  12.791  0.4632  0.5590  0.7194
16729TIP3   OH271677   4.653   4.119   1.112  0.9830 -0.1660  0.9160
16729TIP3    H171678   4.653   4.058   1.039 -0.1189  0.4374  0.3776
16729TIP3    H271679   4.718   4.186   1.088 -0.8448  1.1796 -0.5697
16730TIP3   OH271680   2.357   3.539  14.288 -0.1941  0.1668 -0.5449
16730TIP3    H171681   2.324   3.626  14.266 -0.1276  0.2905 -0.1579
16730TIP3    H271682   2.452   3.546  14.273 -0.1208  0.3130 -0.0212
16731TIP3   OH271683   1.226   4.711  15.564  0.5420  0.5800 -0.4092
16731TIP3    H171684   1.292   4.645  15.583 -0.5724 -0.5572 -0.3665
16731TIP3    H271685   1.198   4.742  15.650  1.2541  1.3425 -0.4321
16732TIP3   OH271686   3.974   5.554   0.400 -0.1887  0.1793 -0.1064
16732TIP3    H171687   3.942   5.509   0.321  0.7307 -0.4205 -0.1627
16732TIP3    H271688   4.002   5.640   0.369  0.5428 -0.2002 -0.5254
16733TIP3   OH271689   4.124   4.561   2.215 -0.6941 -0.1084  0.1625
16733TIP3    H171690   4.213   4.590   2.199 -0.3550 -2.5180 -3.3722
16733TIP3    H271691   4.069   4.637   2.195  0.4419  1.3688  2.2982
16734TIP3   OH271692   4.369   1.247   1.254 -0.3482 -0.3954 -0.5682
16734TIP3    H171693   4.340   1.328   1.213 -1.6095 -0.3139  0.4628
16734TIP3    H271694   4.304   1.228   1.321  0.8169 -1.3812  0.3368
16735TIP3   OH271695   3.866   2.078   6.522 -0.3576  0.2075 -0.5866
16735TIP3    H171696   3.833   2.167   6.516 -0.8678  0.1757  1.1339
16735TIP3    H271697   3.813   2.028   6.460  0.4401  1.1965 -2.1298
16736TIP3   OH271698   4.362   3.833   5.534 -0.1296 -0.4594 -0.1811
16736TIP3    H171699   4.358   3.928   5.549  0.9798 -0.6669  1.7934
16736TIP3    H271700   4.408   3.824   5.451 -0.3927  0.7296 -0.4737
16737TIP3   OH271701   2.046   0.886   0.394 -0.0198  0.3984  0.0170
16737TIP3    H171702   2.023   0.812   0.450 -2.8440  1.4733  0.4421
16737TIP3    H271703   2.135   0.911   0.422  0.4521 -1.9011  0.7946
16738TIP3   OH271704   2.962   0.220   5.694  0.1069 -0.1179 -0.3719
16738TIP3    H171705   2.982   0.246   5.784 -0.1545 -2.5531  0.4703
16738TIP3    H271706   3.048   0.207   5.653  0.2329 -0.1942 -0.0875
16739TIP3   OH271707   5.625   2.088   1.595 -0.0715  0.1569 -0.0675
16739TIP3    H171708   5.558   2.093   1.663 -1.1642 -2.3447 -0.8195
16739TIP3    H271709   5.578   2.107   1.514 -0.6837 -4.0674 -0.9349
16740TIP3   OH271710   1.937   4.217  11.919  0.1825  0.4021 -0.0301
16740TIP3    H171711   1.967   4.254  12.002 -1.2549  2.7767 -0.4443
16740TIP3    H271712   1.987   4.264  11.852 -0.5214  0.4401 -0.5484
16741TIP3   OH271713   2.770   2.181   2.941 -0.0824 -0.2490  0.3016
16741TIP3    H171714   2.773   2.100   2.992  1.2733  0.0798  0.7905
16741TIP3    H271715   2.700   2.232   2.982  0.4623 -0.3132  1.3649
16742TIP3   OH271716   0.002   5.516  14.288  0.0988 -0.2696  0.6613
16742TIP3    H171717   0.069   5.510  14.356 -1.0241 -0.4342  1.7778
16742TIP3    H271718   0.042   5.473  14.212  1.6442  0.5492  0.9733
16743TIP3   OH271719   2.554   4.374  13.557 -0.9132  0.0115 -0.3134
16743TIP3    H171720   2.562   4.282  13.583 -0.4131  0.0704 -0.2557
16743TIP3    H271721   2.610   4.382  13.480 -0.6594  0.3574 -0.0935
16744TIP3   OH271722   5.435   6.188   0.736 -0.3161  0.8302  0.1194
16744TIP3    H171723   5.368   6.120   0.728  1.0755 -0.3491 -3.4785
16744TIP3    H271724   5.498   6.152   0.800  0.1149 -1.1228 -1.2990
16745TIP3   OH271725   6.647   5.344  14.674  0.1103 -0.0899 -1.0929
16745TIP3    H171726   6.578   5.409  14.662  0.0222 -0.5158 -3.3707
16745TIP3    H271727   6.621   5.271  14.618  2.9822  0.2639 -3.1219
16746TIP3   OH271728   2.046   6.494  16.638  0.4048  0.3940  0.8531
16746TIP3    H171729   1.962   6.470  16.598 -0.1429  3.3321  0.0475
16746TIP3    H271730   2.025   6.508  16.731  1.0376 -3.2854  1.7024
16747TIP3   OH271731   5.687   5.558  11.975  0.5678  0.6179 -0.7269
16747TIP3    H171732   5.647   5.575  12.060  1.1120  1.0948 -0.5609
16747TIP3    H271733   5.642   5.479  11.943 -0.0476  0.7676 -0.2655
16748TIP3   OH271734   3.511   1.784  13.371  0.6460 -0.2075 -0.6801
16748TIP3    H171735   3.443   1.759  13.434  0.1222  0.4800 -0.9617
16748TIP3    H271736   3.478   1.751  13.287  0.8401 -0.2004 -0.7581
16749TIP3   OH271737   3.194   5.116  12.823  0.4024 -0.0626  0.1928
16749TIP3    H171738   3.223   5.165  12.900 -0.8091 -1.3154  1.5145
16749TIP3    H271739   3.118   5.164  12.791  0.4278  0.0310  0.2717
16750TIP3   OH271740   3.294   5.664  15.937  0.1371  0.3043 -0.6254
16750TIP3    H171741   3.386   5.668  15.912  1.1584 -3.2822  1.6415
16750TIP3    H271742   3.287   5.719  16.015  0.5645  0.0755 -0.4235
16751TIP3   OH271743   5.434   5.682   0.528 -0.4169 -0.1039  0.2231
16751TIP3    H171744   5.382   5.759   0.504 -1.3709  0.0816  2.6275
16751TIP3    H271745   5.370   5.620   0.562  0.4447 -1.6920 -0.9140
16752TIP3   OH271746   1.336   1.090  12.639 -0.1478 -0.1799 -0.0107
16752TIP3    H171747   1.269   1.023  12.626 -0.3482  0.1086 -0.4531
16752TIP3    H271748   1.307   1.165  12.588  0.5144 -0.0552 -0.2205
16753TIP3   OH271749   2.934   1.003   1.748 -0.7126 -0.1349 -0.2312
16753TIP3    H171750   2.969   1.072   1.691 -1.0241 -0.0062 -0.2744
16753TIP3    H271751   2.930   1.043   1.835 -2.0213  0.3299 -0.4711
16754TIP3   OH271752   0.542   0.044  15.298  0.3110 -0.4936 -0.4171
16754TIP3    H171753   0.581  -0.042  15.280  1.5780 -0.2788  1.0546
16754TIP3    H271754   0.499   0.033  15.383  1.3305  0.5628  0.2592
16755TIP3   OH271755   3.557   5.517   4.263  0.3393 -0.0183  0.0452
16755TIP3    H171756   3.578   5.610   4.277  2.0091  0.1641 -2.8883
16755TIP3    H271757   3.625   5.470   4.310 -0.6202  0.1563  1.7037
16756TIP3   OH271758   5.744   2.940  11.317  0.2306  0.4550 -0.2626
16756TIP3    H171759   5.654   2.973  11.314 -0.4546 -1.3792 -2.7961
16756TIP3    H271760   5.736   2.849  11.347  1.5427  0.8917  1.6377
16757TIP3   OH271761   6.693   5.859  16.052  0.0058 -0.0362  0.2187
16757TIP3    H171762   6.600   5.877  16.040 -0.0510 -0.2489  0.3340
16757TIP3    H271763   6.737   5.943  16.033 -0.0146 -0.4953 -2.0485
16758TIP3   OH271764   1.846   3.631  11.163 -0.0488 -0.0825  0.6357
16758TIP3    H171765   1.869   3.721  11.142 -0.6232 -0.0471  0.1215
16758TIP3    H271766   1.881   3.579  11.090 -1.9698  0.0299 -0.4378
16759TIP3   OH271767   1.092   2.379  15.149  0.3839 -0.2485  0.2148
16759TIP3    H171768   1.018   2.319  15.150  0.6861 -0.6669  2.2554
16759TIP3    H271769   1.162   2.331  15.106  0.3270 -1.0149  0.9462
16760TIP3   OH271770   4.961   0.001  17.006  0.8728  0.2252 -0.2607
16760TIP3    H171771   4.987   0.093  17.012  1.1720  0.1893 -0.9021
16760TIP3    H271772   4.868   0.003  16.984  0.8395  0.3737 -0.1076
16761TIP3   OH271773   4.118   6.086   0.187 -0.4968  0.4183  0.4279
16761TIP3    H171774   4.095   5.994   0.180  0.0474  0.2541  0.7376
16761TIP3    H271775   4.176   6.091   0.263 -2.8768  1.4807  2.2990
16762TIP3   OH271776   1.475   4.166  14.609 -0.2392 -0.5238  0.0933
16762TIP3    H171777   1.571   4.166  14.602 -0.1915 -1.5815  0.5813
16762TIP3    H271778   1.445   4.168  14.518  0.2466 -0.6377 -0.0763
16763TIP3   OH271779   1.448   1.136  15.572  0.0633 -0.1441 -0.7213
16763TIP3    H171780   1.354   1.126  15.558 -0.0189 -0.6461  0.1792
16763TIP3    H271781   1.455   1.197  15.645  0.4556  0.4351 -1.2331
16764TIP3   OH271782   3.944   3.783   4.012 -0.3048  0.0636 -0.2908
16764TIP3    H171783   4.009   3.852   4.010  0.3090 -0.5139 -1.1903
16764TIP3    H271784   3.889   3.803   4.087  2.2252 -0.6459  1.8904
16765TIP3   OH271785   1.946   0.173  13.942 -0.2183  0.2997 -0.2676
16765TIP3    H171786   1.854   0.154  13.920  0.3102 -1.5626 -1.0252
16765TIP3    H271787   1.986   0.196  13.859  0.2650 -0.0317 -0.1265
16766TIP3   OH271788   6.412   6.116  12.254  0.3837 -0.0493  0.0516
16766TIP3    H171789   6.499   6.125  12.293  0.8002  0.0945 -0.8887
16766TIP3    H271790   6.421   6.046  12.190 -0.9962 -2.2191  2.0975
16767TIP3   OH271791   5.240   4.811  15.845 -0.2393  0.1477 -0.4080
16767TIP3    H171792   5.275   4.843  15.928 -0.3645 -0.0112 -0.2928
16767TIP3    H271793   5.275   4.722  15.837  0.9820  0.6776 -1.2426
16768TIP3   OH271794   2.643   1.622  16.938  0.2037 -0.7288 -0.2384
16768TIP3    H171795   2.620   1.584  17.023  0.8864  1.4657  1.0051
16768TIP3    H271796   2.729   1.661  16.952  0.2458 -0.1548 -1.9034
16769TIP3   OH271797   6.232   6.341  15.830  1.0437 -0.8331  0.5561
16769TIP3    H171798   6.218   6.420  15.780 -1.9427 -2.0837 -0.7821
16769TIP3    H271799   6.222   6.368  15.921 -1.0087  0.1846  0.0780
16770TIP3   OH271800   2.572   6.118  17.208  0.6126 -0.3366  0.1475
16770TIP3    H171801   2.609   6.044  17.160  0.3059 -1.1308  1.1061
16770TIP3    H271802   2.480   6.120  17.182  0.7028 -0.0658 -0.1516
16771TIP3   OH271803   5.342   2.131  13.024 -0.4953  0.3161 -0.2506
16771TIP3    H171804   5.319   2.126  13.117  3.9979  0.7079  1.0750
16771TIP3    H271805   5.347   2.039  12.996  0.9640  0.0392  0.7911
16772TIP3   OH271806   4.943   6.749   5.910 -0.7336 -0.0146 -0.3283
16772TIP3    H171807   4.850   6.771   5.911 -0.8888 -0.5743  1.5191
16772TIP3    H271808   4.948   6.662   5.950  0.4750 -0.5897 -1.6404
16773TIP3   OH271809   5.287   2.993   5.623  0.0085  0.0927 -0.6160
16773TIP3    H171810   5.265   3.067   5.679 -1.0319 -0.2104 -0.6042
16773TIP3    H271811   5.227   3.001   5.549 -2.1521 -2.3316  0.7495
16774TIP3   OH271812   5.262   0.910  14.182  0.0036 -0.6498  0.0574
16774TIP3    H171813   5.233   0.886  14.094 -1.4853  0.2235  0.2658
16774TIP3    H271814   5.250   0.830  14.234 -1.3549 -0.5511 -0.0559
16775TIP3   OH271815   4.153   3.302   5.214  0.4863 -0.1854 -0.0822
16775TIP3    H171816   4.159   3.339   5.126  0.3016 -0.2047 -0.1033
16775TIP3    H271817   4.217   3.231   5.214  0.0769 -0.5555 -0.3849
16776TIP3   OH271818   1.470   4.218   0.185 -0.6261 -0.1248 -0.3717
16776TIP3    H171819   1.429   4.136   0.211 -1.6163  0.0576 -1.2992
16776TIP3    H271820   1.477   4.213   0.090  1.2446 -0.0035 -0.2858
16777TIP3   OH271821   3.631   1.893   0.603 -0.1582  0.7949  0.2483
16777TIP3    H171822   3.648   1.871   0.512 -1.5196  0.3586  0.0698
16777TIP3    H271823   3.690   1.837   0.653  1.9847  2.3885 -0.3565
16778TIP3   OH271824   5.296   5.358  13.280  0.0650  0.7091 -0.7167
16778TIP3    H171825   5.241   5.416  13.229 -1.0558  0.6250  0.3518
16778TIP3    H271826   5.360   5.416  13.322  1.2820  0.7276 -2.5022
16779TIP3   OH271827   6.352   1.074  12.334 -0.3422  0.2544  0.1117
16779TIP3    H171828   6.344   0.988  12.375 -1.4667  0.7157  0.9353
16779TIP3    H271829   6.374   1.056  12.243 -2.5222 -1.0063 -0.2379
16780TIP3   OH271830   4.023   4.012   3.747  0.0098  0.2968  0.0950
16780TIP3    H171831   3.966   3.936   3.745  2.0793 -1.3250 -1.5117
16780TIP3    H271832   3.976   4.078   3.695 -2.7426  0.9879  3.1593
16781TIP3   OH271833   1.076   3.828   0.835 -0.0174  0.2701 -0.1487
16781TIP3    H171834   1.006   3.892   0.849 -0.1441  0.0853  0.0724
16781TIP3    H271835   1.105   3.844   0.745  0.5291  1.1955  0.1761
16782TIP3   OH271836   1.296   2.537  16.185  0.6353 -0.5130  0.2150
16782TIP3    H171837   1.305   2.602  16.115  0.1693 -1.1466 -0.4473
16782TIP3    H271838   1.375   2.548  16.238  0.4004  0.8289  0.3191
16783TIP3   OH271839   1.893   4.998  16.558 -0.3959  0.0774 -0.5141
16783TIP3    H171840   1.962   5.058  16.583 -0.2323 -0.7050  1.0312
16783TIP3    H271841   1.936   4.933  16.503  0.1712 -0.5429  0.6377
16784TIP3   OH271842   5.670   2.313  14.873  0.4290  0.1205  0.1075
16784TIP3    H171843   5.655   2.400  14.836  0.6917  0.5446  0.9642
16784TIP3    H271844   5.667   2.254  14.797 -0.2069  0.8109 -0.4275
16785TIP3   OH271845   5.952   6.346  15.711 -0.5956 -0.7107  0.0568
16785TIP3    H171846   6.040   6.309  15.724 -0.7379 -0.7945  0.7734
16785TIP3    H271847   5.940   6.406  15.785 -0.4921  0.5572 -0.9031
16786TIP3   OH271848   0.307   6.665  16.934  0.0623  0.4391  0.4697
16786TIP3    H171849   0.379   6.630  16.879 -0.0746  0.4913  0.2559
16786TIP3    H271850   0.288   6.750  16.896 -0.5461  0.1542  0.1257
16787TIP3   OH271851   4.970   4.598  12.372  0.5521 -0.0391 -0.8387
16787TIP3    H171852   5.056   4.581  12.334  0.5492  1.4347 -1.5671
16787TIP3    H271853   4.947   4.686  12.342 -1.2747 -0.4522 -0.7505
16788TIP3   OH271854   0.399   0.684  15.723 -0.2017  0.3480  0.1585
16788TIP3    H171855   0.491   0.706  15.706 -0.2117  0.2728  0.0034
16788TIP3    H271856   0.397   0.658  15.815  0.6165 -3.0866 -0.6632
16789TIP3   OH271857   4.082   6.070  17.169  0.1808  0.0945  0.2012
16789TIP3    H171858   4.070   6.044  17.078  1.2953 -0.0501  0.0740
16789TIP3    H271859   3.998   6.107  17.195 -0.1772  0.0592 -0.8561
16790TIP3   OH271860   0.053   2.943   4.117 -0.0514  0.6680  0.2888
16790TIP3    H171861  -0.041   2.958   4.112 -0.5698 -2.0815 -0.0488
16790TIP3    H271862   0.070   2.920   4.209 -0.2498 -1.3663 -0.1280
16791TIP3   OH271863   3.180   4.716   5.940 -0.2302 -0.1144  0.3574
16791TIP3    H171864   3.172   4.726   5.845  0.8260  1.5306  0.3985
16791TIP3    H271865   3.090   4.700   5.969 -0.8039  0.8003 -0.7916
16792TIP3   OH271866   5.682   0.445   0.576 -0.1164  0.4239 -0.4449
16792TIP3    H171867   5.726   0.457   0.660 -3.0032  1.2941  1.0714
16792TIP3    H271868   5.748   0.404   0.520  1.5426 -1.5099  2.6345
16793TIP3   OH271869   6.410   2.183   1.791 -0.0398 -0.0736 -0.3889
16793TIP3    H171870   6.504   2.174   1.806  0.2805  0.0317 -2.0870
16793TIP3    H271871   6.387   2.105   1.741 -0.9356 -0.2622  0.3050
16794TIP3   OH271872   4.735   1.948   1.389 -0.1505  0.3139  0.3234
16794TIP3    H171873   4.755   2.032   1.347 -0.6313 -0.3755 -1.3500
16794TIP3    H271874   4.645   1.958   1.421  0.4022  1.0321  1.7727
16795TIP3   OH271875   0.451   4.116   5.654 -0.5392 -0.4725  0.0467
16795TIP3    H171876   0.395   4.089   5.727 -0.7870  1.6433  0.7027
16795TIP3    H271877   0.410   4.195   5.620  1.1582  0.2050 -0.5209
16796TIP3   OH271878   2.891   5.169   6.114 -0.3255 -0.4938  0.1269
16796TIP3    H171879   2.979   5.189   6.082 -0.9575  1.9563 -0.2852
16796TIP3    H271880   2.906   5.119   6.194  1.4440 -0.2991 -0.0233
16797TIP3   OH271881   4.397   5.319  17.157  0.3321  0.0324  0.1735
16797TIP3    H171882   4.334   5.369  17.211  1.4691  1.0018  0.6421
16797TIP3    H271883   4.390   5.229  17.189 -0.1460  0.3076  0.8589
16798TIP3   OH271884   1.255   0.380   4.956 -0.0437 -0.1653  0.3495
16798TIP3    H171885   1.212   0.296   4.968  0.1063 -0.5159 -1.3951
16798TIP3    H271886   1.311   0.389   5.034  0.2269 -1.8519  0.3923
16799TIP3   OH271887   0.321   1.068   5.810  0.1415  0.4775 -0.8440
16799TIP3    H171888   0.257   0.999   5.794 -0.0807  0.7355 -1.0749
16799TIP3    H271889   0.268   1.146   5.827  0.1665 -0.1965  3.7080
16800TIP3   OH271890   0.930   6.089   2.046  0.5191 -0.1830 -0.2121
16800TIP3    H171891   0.901   6.057   1.960  1.2556 -1.6877  0.0573
16800TIP3    H271892   1.024   6.105   2.034  0.9509 -1.8337  0.6605
16801TIP3   OH271893   4.855   0.149  16.717 -0.1229  0.3453  0.1330
16801TIP3    H171894   4.897   0.230  16.689 -1.6833  1.0536 -0.3237
16801TIP3    H271895   4.923   0.082  16.712  1.1766  1.6134  0.4596
16802TIP3   OH271896   5.972   3.042   4.461 -0.0215 -0.8489  1.1005
16802TIP3    H171897   5.924   3.117   4.495  0.4731 -0.2315  0.4595
16802TIP3    H271898   5.958   3.045   4.367  0.3000 -1.3530  1.0308
16803TIP3   OH271899   5.212   3.652   3.786  0.7058 -0.5712  0.1013
16803TIP3    H171900   5.134   3.625   3.738  0.5725 -0.6404  0.3521
16803TIP3    H271901   5.210   3.599   3.866 -0.2482  1.0203  1.2131
16804TIP3   OH271902   4.082   3.961  13.111 -0.3657 -1.1525  0.5034
16804TIP3    H171903   4.130   4.040  13.136  0.7725 -1.1128 -1.5388
16804TIP3    H271904   4.013   3.952  13.176 -0.8116  1.7775  0.5440
16805TIP3   OH271905   0.611   3.977  12.166  0.1989 -0.0218  0.6389
16805TIP3    H171906   0.660   4.038  12.110  0.6034  0.2294  1.2592
16805TIP3    H271907   0.674   3.950  12.233 -0.3292 -0.1996  1.0680
16806TIP3   OH271908   1.538   2.847  16.852  0.1490  0.2941 -0.1454
16806TIP3    H171909   1.473   2.913  16.876  1.2464  0.4354  2.8976
16806TIP3    H271910   1.488   2.768  16.835 -0.9965  1.1734 -0.9687
16807TIP3   OH271911   1.314   1.033   1.870 -0.4758  0.6457  0.3770
16807TIP3    H171912   1.258   1.054   1.795 -0.4015  0.4291  0.2592
16807TIP3    H271913   1.402   1.027   1.833 -0.7234 -1.7958  0.0179
16808TIP3   OH271914   6.240   3.187  16.242  0.3360  0.1858  0.2141
16808TIP3    H171915   6.262   3.248  16.313 -0.1391  0.2309  0.3223
16808TIP3    H271916   6.176   3.127  16.281  1.1748 -0.6977  0.2652
16809TIP3   OH271917   4.757   3.502  12.189  0.2184  0.3088 -0.3187
16809TIP3    H171918   4.709   3.447  12.251 -0.6523 -0.3985 -1.5690
16809TIP3    H271919   4.764   3.587  12.232  0.1966 -0.3326  1.0006
16810TIP3   OH271920   6.021   4.910  12.749 -0.8677  0.8219 -0.2496
16810TIP3    H171921   6.096   4.906  12.690  0.2713  1.6805  1.0664
16810TIP3    H271922   5.961   4.972  12.708 -0.6930  0.4166 -1.1292
16811TIP3   OH271923   1.302   6.175  10.872 -0.4563 -0.1240  0.5201
16811TIP3    H171924   1.381   6.227  10.889 -1.1792  1.4285 -0.6476
16811TIP3    H271925   1.238   6.238  10.839 -1.4790 -1.6911 -0.6463
16812TIP3   OH271926   0.016   2.300   2.855  0.0424  0.1499 -0.6620
16812TIP3    H171927   0.061   2.300   2.940  1.9231  1.9965 -1.5425
16812TIP3    H271928  -0.075   2.279   2.876 -0.0528  2.5737  2.1605
16813TIP3   OH271929   1.666   0.826  12.633 -0.0338  0.4935  0.0257
16813TIP3    H171930   1.755   0.793  12.627 -0.2862  0.0770 -2.6361
16813TIP3    H271931   1.670   0.915  12.596 -0.6992  0.5148 -0.0237
16814TIP3   OH271932   2.658   2.114   3.681 -0.1582 -0.4582 -0.9447
16814TIP3    H171933   2.731   2.053   3.689 -0.9787 -1.8271 -2.8948
16814TIP3    H271934   2.699   2.198   3.660  0.9425 -0.5542  0.6553
16815TIP3   OH271935   2.234   1.636   1.852  0.3654 -0.5076 -0.0503
16815TIP3    H171936   2.158   1.653   1.796  0.0261  0.0013  0.5493
16815TIP3    H271937   2.196   1.605   1.934  0.7636  0.4192  0.4954
16816TIP3   OH271938   6.304   2.544   2.659 -0.0294 -0.4471 -0.0257
16816TIP3    H171939   6.370   2.475   2.660  3.3830  2.5323 -0.0235
16816TIP3    H271940   6.326   2.598   2.735 -0.7248  2.1416 -1.5825
16817TIP3   OH271941   4.921   1.440  12.362  0.5949  0.2660  0.2516
16817TIP3    H171942   4.917   1.524  12.316 -1.5993 -0.5978 -1.3222
16817TIP3    H271943   4.883   1.459  12.448  0.7391  1.0281  0.1577
16818TIP3   OH271944   2.387   1.159  11.172 -0.5899  0.4427 -0.2057
16818TIP3    H171945   2.440   1.212  11.112  0.9047 -0.3030  0.4224
16818TIP3    H271946   2.382   1.212  11.252  2.2135 -0.8795  0.9904
16819TIP3   OH271947   1.212   0.733   3.319  0.0870  0.5429 -0.2538
16819TIP3    H171948   1.203   0.791   3.243 -1.6734  0.6134 -0.0286
16819TIP3    H271949   1.243   0.790   3.389  1.0909  0.6117 -0.7425
16820TIP3   OH271950   2.957   5.039   5.803 -0.7491  0.5251  0.2985
16820TIP3    H171951   2.893   5.109   5.814 -0.0542  1.1004  0.7239
16820TIP3    H271952   3.040   5.076   5.833 -0.1641 -0.1415 -0.4410
16821TIP3   OH271953   3.128   0.012   2.367 -0.7160  0.5149  0.4443
16821TIP3    H171954   3.167   0.011   2.454  0.6541 -0.2490 -0.1511
16821TIP3    H271955   3.196   0.046   2.310 -1.7490  1.4425 -0.2919
16822TIP3   OH271956   0.275   6.350   0.490  0.3012  0.3810 -0.5682
16822TIP3    H171957   0.243   6.294   0.560 -0.6946  0.2264 -1.1291
16822TIP3    H271958   0.224   6.431   0.499  0.4517  0.5099 -0.8649
16823TIP3   OH271959   4.816   4.491   7.011 -0.0831 -0.3492  0.8480
16823TIP3    H171960   4.784   4.579   7.029 -1.4377 -0.4542 -0.7403
16823TIP3    H271961   4.746   4.433   7.041  0.7726 -0.8922  1.8310
16824TIP3   OH271962   4.295   5.176  12.622  0.2733  0.2318  0.0691
16824TIP3    H171963   4.251   5.260  12.608 -0.5585 -0.2573 -0.3521
16824TIP3    H271964   4.331   5.153  12.537 -1.1232 -0.7109 -0.3192
16825TIP3   OH271965   6.550   1.706  13.319 -0.4431 -0.4845  0.2844
16825TIP3    H171966   6.595   1.675  13.398 -0.7346  0.2592  0.7540
16825TIP3    H271967   6.468   1.743  13.351  0.2289  1.5102 -0.1369
16826TIP3   OH271968   5.378   4.210  11.485 -0.0236  0.8222 -0.1610
16826TIP3    H171969   5.461   4.256  11.468  0.2297  0.7667  0.8217
16826TIP3    H271970   5.366   4.153  11.410  1.5359 -0.1657  0.2932
16827TIP3   OH271971   6.370   6.185  16.473  0.5161  0.2030  0.1158
16827TIP3    H171972   6.446   6.127  16.464  1.0944  1.1224 -1.2856
16827TIP3    H271973   6.333   6.162  16.558 -0.5839 -3.7104 -1.2157
16828TIP3   OH271974   6.481   1.043  12.875 -0.6538 -0.4965  0.0121
16828TIP3    H171975   6.524   0.967  12.914 -1.5941 -1.6898 -1.1705
16828TIP3    H271976   6.449   1.011  12.790 -1.7109  1.0233 -0.1960
16829TIP3   OH271977   1.423   1.765  16.415  0.3651  0.4466  0.2585
16829TIP3    H171978   1.464   1.737  16.333 -0.3110  2.1582 -0.7197
16829TIP3    H271979   1.491   1.815  16.460  0.7725 -0.5891  0.8165
16830TIP3   OH271980   0.975   6.007  15.927 -0.0431 -0.7361  0.0571
16830TIP3    H171981   0.883   6.028  15.948 -0.2783  1.9669 -2.9085
16830TIP3    H271982   1.025   6.046  15.999 -1.0940  0.1423  0.3402
16831TIP3   OH271983   4.869   0.015  11.948  0.1292  0.2815  0.2698
16831TIP3    H171984   4.788   0.040  11.994 -0.1212  0.6217 -0.3420
16831TIP3    H271985   4.913  -0.045  12.009  0.0497  1.1039  1.1647
16832TIP3   OH271986   6.609   1.155  11.430  0.0119 -0.1825 -0.0650
16832TIP3    H171987   6.680   1.213  11.459  1.0653 -1.4370 -0.0706
16832TIP3    H271988   6.599   1.092  11.500  0.3864 -1.3122 -0.9989
16833TIP3   OH271989   1.328   5.480   3.634 -0.6496 -0.5199 -0.0509
16833TIP3    H171990   1.310   5.404   3.690 -0.3311 -0.9263 -0.4899
16833TIP3    H271991   1.338   5.443   3.546 -1.5460  0.1606 -0.4471
16834TIP3   OH271992   1.494   3.089   4.762  0.0290  0.1378 -0.1804
16834TIP3    H171993   1.477   3.182   4.775  0.5369  0.1685  0.3304
16834TIP3    H271994   1.580   3.086   4.720 -0.1691 -0.0882 -0.5755
16835TIP3   OH271995   0.398   3.737  12.268  0.2364  0.1227 -0.1992
16835TIP3    H171996   0.487   3.738  12.303  1.1663 -1.0668 -2.3341
16835TIP3    H271997   0.394   3.659  12.213 -1.4998  1.2013 -1.7259
16836TIP3   OH271998   6.279   0.381   5.337 -0.4948 -0.6126 -0.5637
16836TIP3    H171999   6.189   0.362   5.361 -1.0126  0.0830 -1.8346
16836TIP3    H272000   6.272   0.452   5.273  1.0123  0.0481 -0.0482
16837TIP3   OH272001   4.293   1.602  11.324 -0.1218  0.4851  0.5910
16837TIP3    H172002   4.353   1.601  11.249 -0.5736  1.1237  0.2105
16837TIP3    H272003   4.206   1.596  11.285 -0.3022 -0.9422  1.1653
16838TIP3   OH272004   4.590   0.970   2.281  0.5452 -0.0715  0.5841
16838TIP3    H172005   4.585   1.050   2.332 -1.8570 -0.5639  1.2787
16838TIP3    H272006   4.527   0.911   2.323  1.9651 -2.2109 -0.1147
16839TIP3   OH272007   3.979   3.478   2.984 -0.5212  0.3222  0.0083
16839TIP3    H172008   3.975   3.472   3.079  0.8605 -1.4089  0.0044
16839TIP3    H272009   3.901   3.430   2.954  0.5179 -1.6508  0.2841
16840TIP3   OH272010   0.295   1.948  16.137 -0.9593 -0.3429  0.0332
16840TIP3    H172011   0.210   1.987  16.114 -0.2562  2.3726  1.6473
16840TIP3    H272012   0.312   1.979  16.226  0.5734 -2.9890  0.7558
16841TIP3   OH272013   1.175   6.047   6.694  0.2154 -0.0503 -0.2669
16841TIP3    H172014   1.106   6.000   6.648 -1.0671  0.5095  1.0376
16841TIP3    H272015   1.141   6.061   6.782  1.1256  2.0818 -0.1900
16842TIP3   OH272016   5.684   2.224   5.634 -0.1560 -0.5842 -0.2435
16842TIP3    H172017   5.615   2.247   5.696  1.0491 -1.6313  1.5883
16842TIP3    H272018   5.641   2.167   5.570 -0.7392 -2.5199  1.7436
16843TIP3   OH272019   4.349   6.475  16.311 -0.2063  0.1197  0.6136
16843TIP3    H172020   4.403   6.406  16.350 -1.8172 -1.8908 -0.4981
16843TIP3    H272021   4.268   6.473  16.361 -1.2974 -0.7208 -1.0712
16844TIP3   OH272022   1.700   0.486   4.557  0.3491  0.1282  0.0896
16844TIP3    H172023   1.624   0.523   4.602  1.2564 -0.0236  1.8112
16844TIP3    H272024   1.758   0.456   4.627  3.2074  2.5745 -0.9929
16845TIP3   OH272025   4.973   0.852  11.145 -0.1505  1.0779 -0.2862
16845TIP3    H172026   4.930   0.850  11.060 -1.1893 -0.7782  0.2483
16845TIP3    H272027   4.902   0.859  11.209  0.4537  0.1247  0.5194
16846TIP3   OH272028   2.962   3.549   2.850 -0.5877  0.1072  0.1547
16846TIP3    H172029   2.932   3.534   2.940 -1.0719 -0.4049 -0.0843
16846TIP3    H272030   2.997   3.638   2.851  1.1579 -0.5304  1.3075
16847TIP3   OH272031   1.147   1.539   2.502 -0.5246  0.6218 -0.4444
16847TIP3    H172032   1.229   1.554   2.550 -0.7846  2.4594 -0.4889
16847TIP3    H272033   1.128   1.624   2.461 -2.6452  0.3409 -0.1385
16848TIP3   OH272034   0.736   1.556   3.666 -0.0284 -0.2544 -0.2351
16848TIP3    H172035   0.705   1.632   3.715  0.4524  0.7379 -1.4218
16848TIP3    H272036   0.673   1.547   3.594 -0.2418 -1.1624  0.0525
16849TIP3   OH272037   4.523   2.934  16.520  0.0184  0.0273 -0.1732
16849TIP3    H172038   4.526   2.953  16.613  0.9827  2.3389 -0.5949
16849TIP3    H272039   4.612   2.907  16.497 -0.4259 -1.3992 -0.2918
16850TIP3   OH272040   3.099   3.985   0.001 -0.2101  0.4133  0.4066
16850TIP3    H172041   3.111   4.080   0.011  1.6185  0.3098 -0.3708
16850TIP3    H272042   3.174   3.947   0.048 -1.4169 -0.7106  1.4939
16851TIP3   OH272043   1.476   3.748  17.516 -0.0591  0.1176  0.2058
16851TIP3    H172044   1.501   3.766  17.606  1.2339 -0.7004  0.0417
16851TIP3    H272045   1.522   3.815  17.465  0.6334 -0.4802  0.0263
16852TIP3   OH272046   0.677   4.511   5.928  0.3667 -0.2465 -0.1560
16852TIP3    H172047   0.611   4.551   5.984  1.3358  1.6064 -0.2630
16852TIP3    H272048   0.755   4.566   5.940  0.5107  0.4838 -3.5866
16853TIP3   OH272049   4.681   2.964  15.625  0.0471  0.2962  0.5031
16853TIP3    H172050   4.621   3.036  15.645  0.9466  1.0572  0.5621
16853TIP3    H272051   4.661   2.940  15.534  0.2253  1.1349  0.2294
16854TIP3   OH272052   0.298   4.003   2.078 -0.6369  0.1388 -0.0056
16854TIP3    H172053   0.356   4.079   2.076 -0.4223  0.0026  0.6684
16854TIP3    H272054   0.351   3.931   2.043  0.3737 -0.4660  2.5297
16855TIP3   OH272055   6.027   3.550  12.024  0.6127 -0.5269  0.4275
16855TIP3    H172056   6.100   3.504  12.065 -0.2730 -1.8942  0.5195
16855TIP3    H272057   5.998   3.612  12.091  1.1023 -0.6109  0.7267
16856TIP3   OH272058   5.723   3.064  11.654  0.0528  0.0748  0.0221
16856TIP3    H172059   5.692   2.999  11.717  0.4689  1.5551  1.8097
16856TIP3    H272060   5.806   3.027  11.622 -0.9703 -1.4869 -1.0100
16857TIP3   OH272061   4.010   4.387   6.405  0.4268 -0.0340  0.0367
16857TIP3    H172062   3.935   4.383   6.464 -0.1010  2.1174 -0.4128
16857TIP3    H272063   3.976   4.429   6.326  1.8951  0.2113 -0.4954
16858TIP3   OH272064   5.323   6.343  13.517  0.4726  0.6977  0.3300
16858TIP3    H172065   5.292   6.263  13.559 -1.6949  1.1607 -0.2735
16858TIP3    H272066   5.340   6.318  13.426  3.5096  0.0971  0.9672
16859TIP3   OH272067   3.151   0.723  13.674 -0.5468 -0.0138 -0.4525
16859TIP3    H172068   3.211   0.751  13.605 -0.0861  0.0119 -0.0374
16859TIP3    H272069   3.205   0.676  13.737 -0.9848 -0.1260 -0.1505
16860TIP3   OH272070   0.685   0.617   1.484 -0.2846  0.0398  0.0301
16860TIP3    H172071   0.728   0.666   1.414 -1.9752  0.1893 -0.9514
16860TIP3    H272072   0.652   0.684   1.544 -3.6393  0.3079 -1.9218
16861TIP3   OH272073   1.115   0.975  13.216 -0.2790 -0.0509  0.9491
16861TIP3    H172074   1.176   0.908  13.249  0.9935  0.8971  0.5948
16861TIP3    H272075   1.139   0.986  13.124  0.5689  1.9268  1.3428
16862TIP3   OH272076   5.121   4.282   1.481  0.0792  0.0857 -0.0238
16862TIP3    H172077   5.178   4.207   1.465 -1.6340 -1.2289 -0.2944
16862TIP3    H272078   5.085   4.266   1.568 -1.4574 -0.2501 -0.6882
16863TIP3   OH272079   3.024   0.772  13.169 -0.2152  0.1090 -0.4235
16863TIP3    H172080   2.966   0.701  13.196 -1.1305  1.1187  0.3542
16863TIP3    H272081   2.979   0.852  13.197  2.1876  0.9073  1.4697
16864TIP3   OH272082   6.587   5.260   0.373  0.6585 -0.3916 -0.4303
16864TIP3    H172083   6.535   5.311   0.311 -1.4497  0.1238  1.6310
16864TIP3    H272084   6.558   5.170   0.361  0.3794 -0.3177 -0.3147
16865TIP3   OH272085   0.069   2.541   5.965 -0.4875  0.4609  0.2301
16865TIP3    H172086   0.147   2.598   5.963  0.0787 -0.3031 -1.7867
16865TIP3    H272087   0.017   2.575   6.037  1.5026  1.2954  1.3682
16866TIP3   OH272088   2.628   2.538   5.080  0.2374 -0.6798 -0.6145
16866TIP3    H172089   2.602   2.517   5.170  1.4947  2.3937  0.5947
16866TIP3    H272090   2.550   2.519   5.028 -1.7035  0.5747  1.6505
16867TIP3   OH272091   5.034   2.491   5.287  0.4367 -0.2394  0.1659
16867TIP3    H172092   5.093   2.458   5.355  0.0223 -1.0690  0.1362
16867TIP3    H272093   4.948   2.459   5.312  0.1962 -0.1207 -0.4802
16868TIP3   OH272094   0.896   1.309   0.910 -0.0417 -0.7605  0.7274
16868TIP3    H172095   0.938   1.293   0.994 -0.6758 -1.4397  0.9183
16868TIP3    H272096   0.908   1.228   0.861  0.1335 -0.4467  0.2375
16869TIP3   OH272097   4.489   6.683  13.379  0.5702 -0.5791  0.2853
16869TIP3    H172098   4.493   6.725  13.464 -0.8508  0.0410  0.0691
16869TIP3    H272099   4.567   6.715  13.333 -0.4425  1.8324  0.1365
16870TIP3   OH272100   4.012   2.184  15.307  0.5377  0.2465 -0.0774
16870TIP3    H172101   3.943   2.165  15.243  2.0342 -1.4127 -1.2972
16870TIP3    H272102   4.070   2.245  15.262  0.6967  0.3991  0.3353
16871TIP3   OH272103   2.818   3.301   2.883  0.0345  0.2162  0.0047
16871TIP3    H172104   2.861   3.380   2.849 -0.1251  0.7822  1.0732
16871TIP3    H272105   2.877   3.229   2.859  0.7047  0.7805 -0.0766
16872TIP3   OH272106   3.815   5.323  12.489  0.3595 -0.3047  0.5978
16872TIP3    H172107   3.887   5.273  12.452  0.8965  0.2858  0.8389
16872TIP3    H272108   3.745   5.258  12.500  1.3421 -1.2228  1.7853
16873TIP3   OH272109   3.945   3.430   5.413 -0.3509  0.4700 -0.6327
16873TIP3    H172110   4.005   3.487   5.462 -0.4229  0.0859 -0.0884
16873TIP3    H272111   4.001   3.386   5.349  0.5138 -1.8426  1.5398
16874TIP3   OH272112   5.330   2.569   1.639  0.0757  0.3227  0.0105
16874TIP3    H172113   5.259   2.576   1.576 -0.2341 -1.5748  0.0783
16874TIP3    H272114   5.407   2.604   1.594 -0.4821  0.5135 -0.8044
16875TIP3   OH272115   2.938   0.940   2.448 -0.3910  0.8090 -0.0734
16875TIP3    H172116   2.867   0.876   2.455  0.3822  0.0496  1.0743
16875TIP3    H272117   2.894   1.025   2.458 -1.3948  0.4901 -1.3964
16876TIP3   OH272118   0.594   5.010   3.126 -0.4131 -0.4524  0.3800
16876TIP3    H172119   0.550   4.969   3.201  0.5024 -0.7954  0.7486
16876TIP3    H272120   0.570   4.955   3.052  0.4913 -1.4696  0.8061
16877TIP3   OH272121   6.246   1.702  15.701 -0.0961 -0.1624  0.3877
16877TIP3    H172122   6.282   1.766  15.761  0.2682  0.8500 -0.8711
16877TIP3    H272123   6.311   1.631  15.700  0.6336  0.4940  0.0679
16878TIP3   OH272124   6.733   2.872   1.357  0.0039 -0.5083  0.2012
16878TIP3    H172125   6.660   2.866   1.417 -1.0955 -0.4321 -1.0759
16878TIP3    H272126   6.774   2.786   1.361 -1.1922 -1.1284 -0.2973
16879TIP3   OH272127   1.848   6.611   2.155 -0.5412 -0.8169 -0.7631
16879TIP3    H172128   1.829   6.703   2.171  1.0852 -0.4398 -0.7743
16879TIP3    H272129   1.848   6.602   2.060 -0.3291 -0.7437 -0.7696
16880TIP3   OH272130   6.630   0.695   1.380 -0.3156 -0.2614 -0.1100
16880TIP3    H172131   6.559   0.656   1.431  0.8193 -0.7742  1.1715
16880TIP3    H272132   6.694   0.723   1.446  0.1965  1.1691 -1.1647
16881TIP3   OH272133   0.800   3.118   4.858  0.4759  0.3631 -0.8797
16881TIP3    H172134   0.713   3.158   4.859  0.7658  1.0052 -0.6046
16881TIP3    H272135   0.784   3.024   4.854 -0.2690  0.3255  1.6346
16882TIP3   OH272136   2.648   6.061  14.893 -0.0017 -0.5098 -0.0370
16882TIP3    H172137   2.667   6.155  14.890 -0.0616 -0.4857  0.3560
16882TIP3    H272138   2.553   6.057  14.898 -0.0107 -0.5970 -0.2732
16883TIP3   OH272139   1.529   0.934  15.810  0.6363  0.7982 -0.2218
16883TIP3    H172140   1.497   0.885  15.734  1.8732  0.7484 -0.7279
16883TIP3    H272141   1.475   0.903  15.883 -1.0889  1.3758 -1.1769
16884TIP3   OH272142   5.776   4.198  14.438 -0.0181 -0.1057 -0.0756
16884TIP3    H172143   5.795   4.142  14.362  0.5241  0.4218 -0.3377
16884TIP3    H272144   5.682   4.218  14.430 -0.4812 -1.8397  0.6236
16885TIP3   OH272145   1.602   4.848  14.152 -0.6755  0.5062  0.3427
16885TIP3    H172146   1.686   4.821  14.189 -0.5180  0.7639  0.1798
16885TIP3    H272147   1.613   4.836  14.058 -0.8700  0.4104  0.3325
16886TIP3   OH272148   5.291   4.120   4.708  0.1813 -0.2031  0.3144
16886TIP3    H172149   5.225   4.074   4.655 -0.4970  1.3612 -0.2619
16886TIP3    H272150   5.287   4.078   4.793 -2.7968  0.8865  0.8301
16887TIP3   OH272151   3.289   5.938   3.767  0.3103  0.4591 -0.3739
16887TIP3    H172152   3.340   5.858   3.754  0.4121  0.5427 -0.4935
16887TIP3    H272153   3.200   5.907   3.783 -0.1198  0.3856 -2.6603
16888TIP3   OH272154   6.515   3.720  11.423 -0.0038  0.3661 -0.4174
16888TIP3    H172155   6.571   3.792  11.454  0.4316 -0.7127  1.5060
16888TIP3    H272156   6.472   3.754  11.345  0.0636  2.7589  0.5154
16889TIP3   OH272157   3.493   6.062   1.247 -0.4516  0.1569 -0.1753
16889TIP3    H172158   3.546   6.071   1.327  0.9947 -0.5969 -0.9966
16889TIP3    H272159   3.526   5.983   1.205 -0.5267  1.0154 -1.9840
16890TIP3   OH272160   5.776   0.364  13.260  0.2860 -0.4497 -0.3665
16890TIP3    H172161   5.720   0.314  13.319  1.3380 -1.5168 -0.2538
16890TIP3    H272162   5.800   0.302  13.191  2.6379 -0.5252  0.4411
16891TIP3   OH272163   0.482   1.856   0.681  0.0467 -0.6349  1.1292
16891TIP3    H172164   0.561   1.902   0.708 -1.4712  1.3458  2.5669
16891TIP3    H272165   0.460   1.892   0.595 -0.5442  0.6271  1.7794
16892TIP3   OH272166   4.252   2.498   3.754  0.4367 -0.1546 -0.2791
16892TIP3    H172167   4.204   2.415   3.754  0.1601 -0.0122  0.8575
16892TIP3    H272168   4.312   2.490   3.828 -0.7104  1.2796  0.8511
16893TIP3   OH272169   2.161   2.900   1.901  0.1199 -0.0884 -0.0294
16893TIP3    H172170   2.212   2.947   1.966 -0.6315 -0.3968  0.8060
16893TIP3    H272171   2.215   2.902   1.822  0.0108  2.3603 -0.1062
16894TIP3   OH272172   6.636   2.752  11.706 -1.0470  0.4249  0.2149
16894TIP3    H172173   6.610   2.684  11.768  1.1902 -0.5500  0.1844
16894TIP3    H272174   6.706   2.799  11.751  0.5304 -0.2099 -1.4458
16895TIP3   OH272175   1.725   1.765  12.172 -0.1706  0.2566 -0.3360
16895TIP3    H172176   1.753   1.855  12.191  1.9195 -0.3674 -0.2132
16895TIP3    H272177   1.649   1.776  12.114  0.4961  2.1194 -0.9550
16896TIP3   OH272178   3.558   3.546   0.128 -0.0706 -0.3233  0.2253
16896TIP3    H172179   3.532   3.456   0.111 -2.6663 -0.4629  3.8535
16896TIP3    H272180   3.649   3.540   0.157 -0.9739 -2.3319  3.1235
16897TIP3   OH272181   5.732   2.520  17.112 -0.6889 -1.2218 -0.1419
16897TIP3    H172182   5.810   2.552  17.157 -0.9353 -0.8884  0.0565
16897TIP3    H272183   5.764   2.454  17.050 -0.1362 -0.4181 -0.7326
16898TIP3   OH272184   0.157   5.675   6.147 -0.1536  0.3688  0.7786
16898TIP3    H172185   0.063   5.661   6.135 -0.2271  0.0377  1.6216
16898TIP3    H272186   0.164   5.760   6.191  0.0394  1.0644 -0.5552
16899TIP3   OH272187   2.017   0.320   0.339 -0.2590 -0.0214 -0.4744
16899TIP3    H172188   1.993   0.363   0.421 -0.8138  0.7763 -1.0393
16899TIP3    H272189   1.961   0.362   0.273 -0.2082 -1.0259 -1.1733
16900TIP3   OH272190   1.516   1.997  14.104 -0.2261  0.8376  0.2439
16900TIP3    H172191   1.446   2.025  14.163  0.4795  0.0882  1.4788
16900TIP3    H272192   1.551   2.079  14.069 -0.1306  1.3655  1.5100
16901TIP3   OH272193   2.430   2.197  11.604  0.3635  0.3718 -0.4020
16901TIP3    H172194   2.465   2.284  11.582  0.3368 -0.0614 -2.3002
16901TIP3    H272195   2.389   2.167  11.523  0.8682 -1.6595  0.0588
16902TIP3   OH272196   4.347   2.829  13.985 -0.0665 -0.0442  0.3632
16902TIP3    H172197   4.255   2.853  14.000 -0.6523 -1.7641 -0.1272
16902TIP3    H272198   4.384   2.903  13.937 -0.2575  2.1120  3.2820
16903TIP3   OH272199   2.564   5.940  10.903 -0.7932 -0.3863  0.5529
16903TIP3    H172200   2.561   6.033  10.882  1.7676 -0.0985  1.1975
16903TIP3    H272201   2.492   5.902  10.851 -1.3772  1.7862 -0.3591
16904TIP3   OH272202   0.539   2.634  12.927 -0.2162 -0.0318  0.0604
16904TIP3    H172203   0.565   2.705  12.986  1.6283 -0.2869 -0.3793
16904TIP3    H272204   0.604   2.636  12.857 -0.8083 -1.4228 -0.5687
16905TIP3   OH272205   2.887   2.586   5.322  0.0054 -0.6540  0.1994
16905TIP3    H172206   2.943   2.603   5.398  0.7675  0.2717 -0.5389
16905TIP3    H272207   2.807   2.635   5.340  0.2889 -0.2193  0.2904
16906TIP3   OH272208   5.285   5.189  12.676  0.3216 -0.7416  0.6552
16906TIP3    H172209   5.292   5.284  12.666 -1.6317 -0.4582  1.5311
16906TIP3    H272210   5.369   5.162  12.713  1.0597  0.5570  0.0025
16907TIP3   OH272211   3.395   6.230  13.786 -0.4859  0.5205 -0.2471
16907TIP3    H172212   3.306   6.248  13.815 -0.9637 -1.3956 -0.3650
16907TIP3    H272213   3.451   6.281  13.845 -1.6014  0.3312  1.0131
16908TIP3   OH272214   3.566   5.752   5.358 -0.2119 -0.4096  0.1908
16908TIP3    H172215   3.610   5.714   5.283  1.0468  1.6508 -0.1972
16908TIP3    H272216   3.588   5.695   5.431  1.0691 -0.7853 -0.4655
16909TIP3   OH272217   4.949   0.086  16.083 -0.2667  0.3633 -0.5304
16909TIP3    H172218   5.005   0.075  16.006 -1.4291  0.8505 -1.4803
16909TIP3    H272219   4.912   0.173  16.074 -1.1389  0.0729  0.0869
16910TIP3   OH272220   3.895   6.445  14.723 -0.1008  0.2692  0.5317
16910TIP3    H172221   3.972   6.502  14.713 -0.4085  0.9856  1.9780
16910TIP3    H272222   3.894   6.423  14.816 -0.2942 -1.7250  0.1027
16911TIP3   OH272223   2.894   1.666  11.612 -0.4322  0.5029  0.5011
16911TIP3    H172224   2.983   1.634  11.625 -0.5939 -0.0194  0.3460
16911TIP3    H272225   2.840   1.607  11.664 -0.5954  1.4622  1.4557
16912TIP3   OH272226   2.086   4.328  15.722  0.5922 -0.7756  0.2900
16912TIP3    H172227   1.991   4.339  15.732  0.4951 -0.6897 -0.6353
16912TIP3    H272228   2.121   4.349  15.808 -0.2281 -0.7773  0.6380
16913TIP3   OH272229   1.549   6.085   3.610  0.3876 -0.1768 -0.3784
16913TIP3    H172230   1.616   6.057   3.547  0.3898  0.0394 -0.4709
16913TIP3    H272231   1.570   6.035   3.689  0.5815 -0.2068 -0.4463
16914TIP3   OH272232   0.125   6.033   3.376 -0.2697 -0.5252  0.4614
16914TIP3    H172233   0.207   5.987   3.357 -1.6184 -2.9197  0.1279
16914TIP3    H272234   0.136   6.064   3.466  0.5207 -1.9704  0.8986
16915TIP3   OH272235   3.246   2.929  10.961 -0.0325 -0.0037 -0.3294
16915TIP3    H172236   3.184   2.868  10.921  0.2710  0.3536 -1.3826
16915TIP3    H272237   3.304   2.873  11.013  2.5781 -1.2593 -4.1180
16916TIP3   OH272238   1.604   3.045  15.690 -0.0063  0.5428 -0.3192
16916TIP3    H172239   1.636   3.097  15.763  0.5963 -0.0687 -0.1376
16916TIP3    H272240   1.537   3.100  15.649 -0.4366  0.8456  0.7569
16917TIP3   OH272241   3.499   2.817   2.208 -0.1485 -0.0814 -0.1326
16917TIP3    H172242   3.562   2.758   2.167 -0.8450 -0.4249 -0.7288
16917TIP3    H272243   3.487   2.782   2.296 -1.3167 -1.4715 -0.8033
16918TIP3   OH272244   1.633   0.938  13.563 -0.1955  0.6630  0.0847
16918TIP3    H172245   1.702   0.917  13.626  0.9598  0.0679 -1.3340
16918TIP3    H272246   1.599   1.022  13.592 -0.0059  0.2070  1.7457
16919TIP3   OH272247   2.820   5.429  15.885 -0.2356  0.1040  0.1317
16919TIP3    H172248   2.748   5.405  15.943  2.1413 -0.3562  3.0839
16919TIP3    H272249   2.863   5.502  15.928  0.5894  0.9938 -2.0435
16920TIP3   OH272250   6.240   4.545  17.292 -0.5562  0.4640  0.1986
16920TIP3    H172251   6.317   4.562  17.237 -0.6926  0.7475  0.0942
16920TIP3    H272252   6.246   4.452  17.313  1.2347  0.9861  2.3559
16921TIP3   OH272253   4.413   4.958  16.230 -0.1027 -0.5274  0.1888
16921TIP3    H172254   4.401   5.008  16.149  1.6873  1.7013  1.1735
16921TIP3    H272255   4.336   4.902  16.235 -1.0520  0.3999 -2.2378
16922TIP3   OH272256   3.564   4.130   4.704 -0.2530 -0.0361  0.4632
16922TIP3    H172257   3.597   4.055   4.754  2.0383 -0.3267 -1.3303
16922TIP3    H272258   3.606   4.205   4.745 -0.7927  0.0572  0.8576
16923TIP3   OH272259   3.389   1.979  15.445  0.0173 -0.4197  0.7924
16923TIP3    H172260   3.464   2.020  15.401  1.1505 -2.5759  0.5758
16923TIP3    H272261   3.347   2.050  15.493  2.3524  0.8239  1.1234
16924TIP3   OH272262   4.956   1.353   4.935  0.2100 -0.6118 -0.4354
16924TIP3    H172263   4.957   1.417   4.864 -0.0679 -0.0602  0.0458
16924TIP3    H272264   5.048   1.340   4.956  0.2360  0.5013  0.2167
16925TIP3   OH272265   1.615   4.604   5.692  0.0994 -0.1281 -0.3321
16925TIP3    H172266   1.520   4.614   5.700  0.1140  0.6555 -1.0175
16925TIP3    H272267   1.646   4.692   5.672  0.9611 -0.4115 -0.2448
16926TIP3   OH272268   5.790   1.905  13.864 -0.6671  0.0443  0.1109
16926TIP3    H172269   5.836   1.989  13.870 -0.7619  0.0007  2.5158
16926TIP3    H272270   5.859   1.841  13.846 -0.0704  0.2711  1.4587
16927TIP3   OH272271   6.358   6.068  15.807  0.2871 -0.0525 -0.0714
16927TIP3    H172272   6.338   6.043  15.717 -0.1544  1.1926 -0.3496
16927TIP3    H272273   6.325   6.158  15.814 -1.2158 -0.6958  1.8563
16928TIP3   OH272274   3.005   3.421   5.009 -0.2371 -0.5679 -0.4682
16928TIP3    H172275   2.999   3.500   5.063  0.7249 -1.4635  1.0051
16928TIP3    H272276   3.002   3.454   4.919 -0.8203  1.0559  0.1033
16929TIP3   OH272277   5.516   3.559  12.332  0.0269 -0.2858  0.5228
16929TIP3    H172278   5.425   3.542  12.312  0.3621  0.4173 -1.8183
16929TIP3    H272279   5.514   3.627  12.400 -1.2137  1.4655 -1.1894
16930TIP3   OH272280   6.064   2.802   3.941 -0.4571  0.6522  0.4185
16930TIP3    H172281   6.047   2.714   3.907 -0.4774  0.3604  1.1626
16930TIP3    H272282   5.980   2.848   3.931 -0.5137  0.5127  0.2473
16931TIP3   OH272283   3.463   2.136  12.950  0.0317  0.4169 -0.2869
16931TIP3    H172284   3.382   2.133  13.002  0.1157 -0.2720 -0.1866
16931TIP3    H272285   3.435   2.163  12.863 -0.4612 -0.7914 -0.5221
16932TIP3   OH272286   5.624   1.884  14.601  0.2548  0.0380  0.0806
16932TIP3    H172287   5.607   1.829  14.678 -0.8577 -0.6131 -0.6051
16932TIP3    H272288   5.652   1.822  14.534  0.3278  0.4913 -0.3068
16933TIP3   OH272289   4.084   6.216   0.599 -0.0017  0.0905  0.5037
16933TIP3    H172290   4.127   6.180   0.522  0.1456  0.9997  0.1474
16933TIP3    H272291   4.129   6.298   0.616  1.2823 -0.9842  2.7430
16934TIP3   OH272292   3.605   6.053   4.310 -0.2543  0.7058 -0.6928
16934TIP3    H172293   3.638   6.127   4.260 -0.4272  0.9263 -0.4843
16934TIP3    H272294   3.580   5.988   4.244  2.1240 -0.1536 -0.8383
16935TIP3   OH272295   5.763   5.130  16.301  0.2743  0.3289  0.1582
16935TIP3    H172296   5.743   5.042  16.334 -0.2346  0.5673  0.5112
16935TIP3    H272297   5.749   5.187  16.377  0.1019  0.7711 -0.2053
16936TIP3   OH272298   1.334   0.357   0.071 -0.0075 -0.3392 -0.6917
16936TIP3    H172299   1.252   0.398   0.097  1.3400  1.3372  1.2323
16936TIP3    H272300   1.394   0.375   0.144  3.1089  1.7242 -3.4395
16937TIP3   OH272301   1.708   2.834   5.599  0.6176 -0.1279 -0.4632
16937TIP3    H172302   1.688   2.875   5.515 -0.0446  1.5640  0.4891
16937TIP3    H272303   1.675   2.895   5.665  1.3340 -1.3023  1.0495
16938TIP3   OH272304   3.955   6.485   1.466  0.0933 -0.5360 -0.1200
16938TIP3    H172305   3.930   6.577   1.462 -1.1462 -0.8759 -0.5957
16938TIP3    H272306   4.040   6.485   1.510 -0.1181  0.7815  0.3200
16939TIP3   OH272307   4.903   6.665   2.422  0.1548  0.4224 -0.4482
16939TIP3    H172308   4.991   6.628   2.421 -0.6008 -1.5059 -0.0124
16939TIP3    H272309   4.846   6.591   2.444 -1.4399  1.9371  0.7729
16940TIP3   OH272310   1.081   0.512   5.232 -0.4465 -0.1518 -0.2076
16940TIP3    H172311   1.049   0.422   5.232 -0.9526  0.0295 -0.4686
16940TIP3    H272312   1.053   0.549   5.148 -1.9884  0.8691  0.7170
16941TIP3   OH272313   3.978   5.510   0.914  0.3220  0.0713  0.1674
16941TIP3    H172314   3.900   5.528   0.861 -0.3795  0.0253  1.1591
16941TIP3    H272315   3.977   5.578   0.982 -0.2920 -1.4199  1.7257
16942TIP3   OH272316   0.536   6.400  14.896 -0.1354 -0.0843  0.0555
16942TIP3    H172317   0.508   6.480  14.939  2.3883  1.6707 -1.3010
16942TIP3    H272318   0.631   6.396  14.910  0.2743 -1.2366 -2.3316
16943TIP3   OH272319   6.562   1.545  13.037 -0.4204 -0.2326 -0.2031
16943TIP3    H172320   6.595   1.507  13.119  0.6986 -1.4800 -1.1964
16943TIP3    H272321   6.592   1.486  12.969 -0.3628  1.3907 -1.6505
16944TIP3   OH272322   5.062   4.379   7.033 -0.4692 -0.5828 -0.2887
16944TIP3    H172323   5.014   4.460   7.017 -0.0102 -0.3182 -0.3367
16944TIP3    H272324   5.084   4.382   7.126  0.2633 -0.2535 -0.4645
16945TIP3   OH272325   2.224   0.981  14.446  0.0162  0.3362 -0.0258
16945TIP3    H172326   2.272   1.039  14.387 -1.4233  1.6999  0.0538
16945TIP3    H272327   2.190   1.039  14.514  0.4427 -0.9898  1.3792
16946TIP3   OH272328   4.580   0.693  12.167 -0.4873  0.1877 -0.8899
16946TIP3    H172329   4.526   0.619  12.140  0.8829 -0.3853 -2.2075
16946TIP3    H272330   4.670   0.664  12.152  0.2171  1.1246  1.2103
16947TIP3   OH272331   3.017   1.354  12.190  0.0300 -0.0882  0.0059
16947TIP3    H172332   3.058   1.392  12.112  0.9405  0.1968  0.6131
16947TIP3    H272333   3.040   1.261  12.186  1.1089  0.1391  0.5532
16948TIP3   OH272334   6.172   5.219  12.472 -0.6465 -0.4367  0.6598
16948TIP3    H172335   6.265   5.220  12.448 -0.8234 -0.4696 -0.0361
16948TIP3    H272336   6.147   5.127  12.466 -1.0355 -0.2716 -0.3936
16949TIP3   OH272337   3.837   6.755  10.969  0.1333  0.1682  0.1305
16949TIP3    H172338   3.760   6.786  10.922 -0.8656 -0.9315  0.9869
16949TIP3    H272339   3.905   6.748  10.902 -0.4715  1.2164 -0.6286
16950TIP3   OH272340   0.929   6.763   1.234  0.3109  0.6299 -0.8740
16950TIP3    H172341   0.876   6.839   1.210 -1.9868 -0.6684 -0.3148
16950TIP3    H272342   0.967   6.732   1.152  0.5542  1.8689 -1.2372
16951TIP3   OH272343   5.825   3.505   4.868  0.2016  0.0854  0.5735
16951TIP3    H172344   5.774   3.555   4.932 -0.2908  0.1084  0.1704
16951TIP3    H272345   5.760   3.477   4.803  0.4622 -1.0309  0.7611
16952TIP3   OH272346   1.231   4.524   0.505 -0.2874 -0.3068  0.3700
16952TIP3    H172347   1.325   4.511   0.513 -0.2554 -0.4037 -0.1327
16952TIP3    H272348   1.202   4.458   0.441 -0.4673  0.6334 -0.5533
16953TIP3   OH272349   3.447   4.836   2.895  0.2522 -0.4844 -0.0503
16953TIP3    H172350   3.361   4.849   2.936 -0.4257 -1.0350 -1.2045
16953TIP3    H272351   3.508   4.883   2.950 -0.9024  0.5278  0.4128
16954TIP3   OH272352   3.512   6.362  12.083  0.3277  0.5627 -0.6339
16954TIP3    H172353   3.603   6.350  12.056  0.6520 -0.7308  0.9099
16954TIP3    H272354   3.512   6.351  12.178 -1.2085  2.1671 -0.3720
16955TIP3   OH272355   1.486   0.830   5.512  0.3478  0.1642  0.0308
16955TIP3    H172356   1.535   0.910   5.494  1.2911 -0.0724  1.4426
16955TIP3    H272357   1.549   0.771   5.553 -0.2836 -1.3926 -1.1113
16956TIP3   OH272358   5.680   3.819  17.343  0.2205 -0.4729  0.1132
16956TIP3    H172359   5.635   3.851  17.264  1.3565  0.6024 -0.1381
16956TIP3    H272360   5.618   3.759  17.384 -1.5745  1.1710 -0.0531
16957TIP3   OH272361   3.416   1.761  16.086  0.3306  0.2291 -0.7560
16957TIP3    H172362   3.392   1.687  16.142 -1.3499  0.9914 -0.3831
16957TIP3    H272363   3.501   1.789  16.119 -0.3394  0.2939  1.0892
16958TIP3   OH272364   2.529   1.023   0.343  0.7178  0.8934  0.2529
16958TIP3    H172365   2.602   1.001   0.401  1.9151 -0.0349 -1.5440
16958TIP3    H272366   2.559   1.001   0.255 -1.1894  1.8865 -0.7246
16959TIP3   OH272367   3.413   0.744   4.832 -0.5751  0.2444  0.1765
16959TIP3    H172368   3.338   0.691   4.805  0.6410 -0.1747 -2.7705
16959TIP3    H272369   3.383   0.834   4.822 -1.1450  0.1041  0.5488
16960TIP3   OH272370   5.787   0.017   3.624 -0.0140  0.6855  0.5965
16960TIP3    H172371   5.758   0.082   3.688 -2.2473  1.1142 -0.7256
16960TIP3    H272372   5.727  -0.057   3.635  0.3073  0.2891 -0.1943
16961TIP3   OH272373   0.404   4.897  14.298  0.0254 -0.6651  0.6920
16961TIP3    H172374   0.495   4.873  14.279  0.0762 -1.1206  1.4603
16961TIP3    H272375   0.354   4.818  14.279 -0.2300 -0.3818  0.1684
16962TIP3   OH272376   3.110   5.196   2.228  0.0271  0.2454  0.2431
16962TIP3    H172377   3.062   5.260   2.281  1.1052  0.7678  0.6324
16962TIP3    H272378   3.073   5.112   2.253 -0.7872  0.6442  0.4144
16963TIP3   OH272379   4.172   0.710  16.812 -0.1229  0.2933 -0.2834
16963TIP3    H172380   4.187   0.790  16.861  2.0026  0.4083 -1.0272
16963TIP3    H272381   4.258   0.684  16.780 -0.4975 -2.9043  0.8457
16964TIP3   OH272382   4.065   3.594  16.712 -0.8647  0.4254 -0.1091
16964TIP3    H172383   4.071   3.515  16.766  0.4629 -1.1232 -2.3551
16964TIP3    H272384   4.146   3.642  16.731  0.3696 -0.8905 -1.7151
16965TIP3   OH272385   0.440   6.575   6.132 -0.0098 -0.0411  0.4830
16965TIP3    H172386   0.379   6.648   6.143 -1.6661 -1.0649 -1.3519
16965TIP3    H272387   0.402   6.504   6.184  0.1896 -0.3664  0.1905
16966TIP3   OH272388   0.585   2.688   3.467  0.3715  0.0041 -0.2240
16966TIP3    H172389   0.621   2.654   3.549  0.0067 -1.1313 -0.5219
16966TIP3    H272390   0.615   2.779   3.464  0.3655  0.0856  1.1870
16967TIP3   OH272391   1.607   4.953   3.131  0.2046  0.1414  0.1351
16967TIP3    H172392   1.544   4.992   3.192 -0.9027 -1.5167  0.1190
16967TIP3    H272393   1.610   5.014   3.057  0.8555  1.7028  1.3927
16968TIP3   OH272394   3.009   0.107   0.439 -0.1493 -0.0583  0.2907
16968TIP3    H172395   3.085   0.065   0.399 -0.4491  0.2717 -0.6532
16968TIP3    H272396   2.975   0.042   0.501  0.0825 -0.7452 -0.2924
16969TIP3   OH272397   0.455   2.473   6.292  0.0605  0.0999 -0.2258
16969TIP3    H172398   0.390   2.410   6.324 -2.3821  3.4087  1.9861
16969TIP3    H272399   0.404   2.551   6.270  3.0042  1.7631 -1.7405
16970TIP3   OH272400   0.317   0.677  16.014 -0.1001 -0.3366 -0.3454
16970TIP3    H172401   0.315   0.772  16.020  2.5193 -0.1592 -1.1759
16970TIP3    H272402   0.323   0.647  16.105 -2.2252  0.1683  0.0079
16971TIP3   OH272403   4.338   5.564  16.462 -0.3870  0.1587 -0.0922
16971TIP3    H172404   4.286   5.542  16.539 -0.9774  0.1845 -0.4773
16971TIP3    H272405   4.362   5.656  16.475  0.2299 -0.0719  0.4602
16972TIP3   OH272406   0.184   6.326  13.225 -0.4374 -0.0841  0.0288
16972TIP3    H172407   0.109   6.308  13.168 -1.1102  0.5980  0.6704
16972TIP3    H272408   0.256   6.344  13.165 -1.2327  1.0442 -0.6433
16973TIP3   OH272409   4.567   3.304  16.292 -0.1384  0.3021  0.0242
16973TIP3    H172410   4.498   3.364  16.261 -0.2654  0.0491 -0.1841
16973TIP3    H272411   4.585   3.334  16.381 -0.9058  0.0309  0.2838
16974TIP3   OH272412   6.366   3.008   1.983  0.2089  0.6256 -0.1626
16974TIP3    H172413   6.415   2.934   2.018  1.2811  1.0155 -0.7931
16974TIP3    H272414   6.315   2.972   1.910 -1.6213 -0.0795  1.3631
16975TIP3   OH272415   2.483   3.854   5.035  0.4166 -0.3318 -0.2068
16975TIP3    H172416   2.520   3.905   5.107  0.8305 -0.3773 -0.3875
16975TIP3    H272417   2.409   3.808   5.074  0.0589  0.3807 -0.0339
16976TIP3   OH272418   2.578   1.380   1.825 -0.0525 -0.4799  0.6013
16976TIP3    H172419   2.575   1.285   1.835  1.8612 -0.6230  0.1225
16976TIP3    H272420   2.621   1.411   1.905  0.9360 -0.2029 -0.0144
16977TIP3   OH272421   3.870   1.729  12.107 -0.0404  0.0868  0.6207
16977TIP3    H172422   3.949   1.742  12.055 -0.1483 -0.3042  0.3578
16977TIP3    H272423   3.839   1.817  12.126 -1.6865  0.2899 -2.5248
16978TIP3   OH272424   3.381   2.551   2.476 -0.0961  0.3142 -0.1724
16978TIP3    H172425   3.395   2.621   2.540  0.0312  1.2850 -1.2342
16978TIP3    H272426   3.346   2.479   2.528  1.9750  0.3199  1.3376
16979TIP3   OH272427   4.789   5.278   2.345  1.0144  0.8659 -0.5827
16979TIP3    H172428   4.856   5.333   2.386 -0.6367  2.6219 -0.0790
16979TIP3    H272429   4.775   5.318   2.259  1.6557 -0.4222 -1.3160
16980TIP3   OH272430   6.670   3.802   1.239 -0.2017  0.6437  0.2144
16980TIP3    H172431   6.644   3.775   1.327 -1.3005 -0.4815 -0.3974
16980TIP3    H272432   6.746   3.747   1.218  0.4904  1.4087  0.7123
16981TIP3   OH272433   0.117   6.290   2.517  0.3351  0.0194 -0.8418
16981TIP3    H172434   0.161   6.219   2.469  1.3959 -0.3049  0.5446
16981TIP3    H272435   0.180   6.361   2.518  0.3098  0.0334  0.0382
16982TIP3   OH272436   2.540   3.805   2.016 -0.2243  0.2702  0.6792
16982TIP3    H172437   2.492   3.879   2.053  0.2034  0.8304  0.1261
16982TIP3    H272438   2.632   3.830   2.024 -0.0839 -0.1106  0.2950
16983TIP3   OH272439   0.748   6.321  13.573  0.0134 -0.2675  0.3018
16983TIP3    H172440   0.654   6.307  13.589  0.2857 -0.7764  1.5204
16983TIP3    H272441   0.776   6.381  13.642  0.3442  0.8800 -0.7941
16984TIP3   OH272442   3.315   3.458  13.871  0.1094 -0.3852 -0.2099
16984TIP3    H172443   3.280   3.465  13.960 -1.7804 -0.6471 -0.8808
16984TIP3    H272444   3.410   3.462  13.882 -0.0565 -0.9528  1.8634
16985TIP3   OH272445   4.256   6.530   3.402  0.1101  0.1462  0.3124
16985TIP3    H172446   4.177   6.549   3.350 -0.0866  0.1676  0.6142
16985TIP3    H272447   4.322   6.507   3.337 -0.6603 -1.7387  0.1245
16986TIP3   OH272448   3.498   0.345   1.567 -0.2360 -0.2624  0.2735
16986TIP3    H172449   3.576   0.357   1.621 -0.8832  0.4977  1.0779
16986TIP3    H272450   3.425   0.367   1.626 -0.8844  3.0370 -1.4768
16987TIP3   OH272451   5.567   4.776  12.349  0.2811 -0.8822 -0.3082
16987TIP3    H172452   5.583   4.865  12.316  0.1936 -0.1377  1.5222
16987TIP3    H272453   5.595   4.719  12.278 -0.3456  0.6103 -1.8293
16988TIP3   OH272454   1.544   2.249  15.955  0.2330  0.4662  0.3694
16988TIP3    H172455   1.625   2.298  15.965 -0.3910  1.7900 -0.6714
16988TIP3    H272456   1.491   2.303  15.896 -1.5456 -0.1908  1.3015
16989TIP3   OH272457   1.969   6.493   3.312 -0.0301 -0.0384  0.2049
16989TIP3    H172458   2.057   6.497   3.274  0.7243 -1.0411  1.7216
16989TIP3    H272459   1.968   6.411   3.361 -2.0781 -0.4028 -0.3484
16990TIP3   OH272460   0.395   1.663  16.379  0.0473 -0.4970 -0.8674
16990TIP3    H172461   0.310   1.648  16.421 -0.1367  1.1432 -0.5861
16990TIP3    H272462   0.373   1.686  16.289  0.0162  1.8213 -0.3190
16991TIP3   OH272463   1.377   2.880   3.787  0.6452  0.3816  0.0565
16991TIP3    H172464   1.400   2.945   3.854  4.5679 -0.8009  0.1232
16991TIP3    H272465   1.445   2.890   3.721 -1.0752 -0.9129 -2.0158
16992TIP3   OH272466   0.287   4.409  13.421 -0.3496 -0.0165  0.0779
16992TIP3    H172467   0.265   4.327  13.377  1.7597 -0.4422 -0.2824
16992TIP3    H272468   0.382   4.410  13.425 -0.1800  3.2385 -1.5066
16993TIP3   OH272469   2.056   3.888   2.778 -0.4903 -0.1531 -0.2541
16993TIP3    H172470   1.962   3.870   2.775 -0.6008  0.1034  0.9458
16993TIP3    H272471   2.072   3.945   2.703 -0.7982 -2.2417 -1.9819
16994TIP3   OH272472   3.351   2.312   3.062  0.5335  0.0870 -0.6652
16994TIP3    H172473   3.397   2.274   3.137  0.7623  2.2015  0.3339
16994TIP3    H272474   3.282   2.249   3.042  1.6200 -1.4205  0.1079
16995TIP3   OH272475   4.763   5.234  11.995  0.4274 -0.8318 -0.2703
16995TIP3    H172476   4.680   5.208  11.953  1.4179 -0.6656 -2.4962
16995TIP3    H272477   4.821   5.160  11.981  1.3578 -0.0118 -0.9587
16996TIP3   OH272478   1.866   3.724  13.311  0.1005 -0.8584 -0.2356
16996TIP3    H172479   1.928   3.667  13.266  1.8019 -1.7800  2.9056
16996TIP3    H272480   1.790   3.668  13.328 -0.7958 -0.3435 -2.2568
16997TIP3   OH272481   5.094   3.530  12.550  0.0807  0.4473  0.1492
16997TIP3    H172482   5.099   3.447  12.504 -1.1911  0.7593 -0.6063
16997TIP3    H272483   5.161   3.585  12.509 -1.3148  0.8640 -1.6970
16998TIP3   OH272484   5.783   1.477  15.130  0.3013 -0.1816  0.0938
16998TIP3    H172485   5.706   1.421  15.126  0.3474 -0.1651 -1.2644
16998TIP3    H272486   5.855   1.422  15.100  0.6528  0.0975  0.4085
16999TIP3   OH272487   3.179   3.189  17.080  0.2927  0.2686  0.1677
16999TIP3    H172488   3.214   3.264  17.128 -0.9276  1.5525 -0.8531
16999TIP3    H272489   3.085   3.193  17.096  0.2939 -1.6312  0.8505
17000TIP3   OH272490   3.700   4.666  13.469 -0.3408  0.5888 -0.6072
17000TIP3    H172491   3.695   4.664  13.374  0.4464 -0.4446 -0.6435
17000TIP3    H272492   3.676   4.578  13.497 -0.9265  0.9789  0.1792
17001TIP3   OH272493   5.232   3.132  15.505 -0.0831  0.0321  0.1237
17001TIP3    H172494   5.181   3.191  15.559 -1.4227 -0.9519 -0.0283
17001TIP3    H272495   5.238   3.051  15.556  0.2336 -0.2882 -0.4075
17002TIP3   OH272496   5.714   3.311   3.621 -0.3068 -1.1182 -0.6820
17002TIP3    H172497   5.714   3.377   3.552 -0.0676 -0.3043  0.0914
17002TIP3    H272498   5.765   3.239   3.584  0.8052 -0.2267 -0.9327
17003TIP3   OH272499   2.252   5.697  14.946  0.2099 -0.0971 -0.1013
17003TIP3    H172500   2.307   5.621  14.928  1.8177  1.1610 -0.8272
17003TIP3    H272501   2.315   5.767  14.968 -1.1404  1.2675 -0.4309
17004TIP3   OH272502   1.345   0.520  11.997  0.0073  0.0463  1.0220
17004TIP3    H172503   1.376   0.596  11.947  0.4561  0.3463  1.7366
17004TIP3    H272504   1.351   0.548  12.089 -0.3672 -0.6550  1.2651
17005TIP3   OH272505   4.050   1.926   3.433  0.0095 -0.0138 -0.0164
17005TIP3    H172506   4.102   1.859   3.389  0.0422 -0.4231  0.6321
17005TIP3    H272507   4.007   1.973   3.362 -0.4889 -1.1044 -0.4641
17006TIP3   OH272508   4.746   2.148  11.513 -0.1566 -0.5232 -0.4879
17006TIP3    H172509   4.659   2.109  11.528  0.8627 -2.4459  0.8198
17006TIP3    H272510   4.770   2.184  11.598  0.5004 -0.3968 -0.7283
17007TIP3   OH272511   0.708   3.767  16.223  0.3743  0.0481 -0.0227
17007TIP3    H172512   0.795   3.735  16.200  0.5539 -0.8019  1.7048
17007TIP3    H272513   0.653   3.689  16.228 -0.5917  0.6003 -1.3856
17008TIP3   OH272514   2.514   0.375  11.725 -0.6176 -0.0472 -0.0617
17008TIP3    H172515   2.443   0.431  11.693 -0.5623 -1.3796 -2.8249
17008TIP3    H272516   2.592   0.410  11.681 -0.3257 -1.2572 -0.5363
17009TIP3   OH272517   6.108   6.616  10.645 -0.0480 -0.0255 -0.5690
17009TIP3    H172518   6.045   6.634  10.714 -0.0043  0.3996 -0.6397
17009TIP3    H272519   6.132   6.702  10.610  2.4585  0.0669  1.1262
17010TIP3   OH272520   0.786   2.864   3.077  0.1609 -0.1012 -0.0910
17010TIP3    H172521   0.713   2.900   3.127 -2.0580  1.6939 -4.1544
17010TIP3    H272522   0.774   2.769   3.080 -0.6199  0.0303  1.6203
17011TIP3   OH272523   6.338   6.662   3.026  0.5131 -0.2562  0.2455
17011TIP3    H172524   6.412   6.718   3.050  0.2286  0.4304 -0.4342
17011TIP3    H272525   6.352   6.581   3.075  1.8473 -0.2262 -0.0559
17012TIP3   OH272526   0.884   0.899   1.033  0.1215  0.0766 -0.3974
17012TIP3    H172527   0.850   0.944   1.110 -0.2248 -0.5056 -0.1996
17012TIP3    H272528   0.963   0.855   1.064 -0.3829 -0.7106 -0.1912
17013TIP3   OH272529   2.167   6.492  11.339 -0.4953 -0.1764 -0.7676
17013TIP3    H172530   2.209   6.440  11.271  1.8304 -0.5077  0.7991
17013TIP3    H272531   2.161   6.432  11.414 -2.2713  0.4058 -0.3929
17014TIP3   OH272532   2.006   2.559  17.489  0.2062 -0.0259  0.3404
17014TIP3    H172533   1.940   2.515  17.436  0.0901  0.3260  0.1873
17014TIP3    H272534   1.964   2.640  17.518  0.7436  0.4719 -0.2170
17015TIP3   OH272535   1.462   0.816  15.568  0.3102  0.5220  0.3659
17015TIP3    H172536   1.372   0.799  15.597  0.5181 -1.3229  0.0560
17015TIP3    H272537   1.454   0.841  15.477  0.0389  1.4959  0.6466
17016TIP3   OH272538   0.108   4.225   5.694 -0.0196 -0.0655 -0.2460
17016TIP3    H172539   0.159   4.297   5.731  0.8081  1.7186 -4.3488
17016TIP3    H272540   0.017   4.251   5.707  0.1847 -0.0819  1.4090
17017TIP3   OH272541   6.117   0.139  11.234  0.4662 -0.0461 -0.0285
17017TIP3    H172542   6.144   0.160  11.323  0.5662 -0.0054 -0.0677
17017TIP3    H272543   6.054   0.208  11.211 -2.4226 -2.0420  1.3097
17018TIP3   OH272544   5.942   1.636  13.473  0.1043  0.3603 -0.0348
17018TIP3    H172545   5.963   1.707  13.413  1.9608 -0.1576 -0.0640
17018TIP3    H272546   5.921   1.562  13.417  1.8189 -0.1179 -0.0819
17019TIP3   OH272547   4.299   0.127   3.898  0.1616  0.0761  0.2083
17019TIP3    H172548   4.338   0.053   3.851 -0.4112 -0.6862  0.8986
17019TIP3    H272549   4.355   0.137   3.976 -0.4870 -0.4520  0.7522
17020TIP3   OH272550   4.092   2.626   0.957  0.6288  0.0629 -0.0925
17020TIP3    H172551   4.025   2.694   0.967  0.5995  0.5225 -2.7187
17020TIP3    H272552   4.126   2.612   1.046 -2.1068  0.6489  1.1495
17021TIP3   OH272553   0.664   3.388  16.761 -0.1097 -0.8338  0.0035
17021TIP3    H172554   0.723   3.432  16.700 -0.2418 -0.0640  0.4254
17021TIP3    H272555   0.702   3.301  16.773  0.9185 -0.3597  0.2382
17022TIP3   OH272556   2.194   0.274  16.484 -0.0905  0.0517 -0.1427
17022TIP3    H172557   2.282   0.301  16.508 -0.2295 -1.1152  1.8632
17022TIP3    H272558   2.191   0.283  16.388  2.2236 -0.0257 -0.2646
17023TIP3   OH272559   2.928   5.781  17.506 -0.2127  0.0656 -0.1226
17023TIP3    H172560   2.847   5.755  17.461 -0.3211  0.2275 -0.0227
17023TIP3    H272561   2.930   5.728  17.586 -0.7094  0.7453  0.3493
17024TIP3   OH272562   1.787   1.224  13.990 -0.6283 -0.2813  0.3937
17024TIP3    H172563   1.873   1.185  14.007  0.5374  1.7105 -0.6358
17024TIP3    H272564   1.742   1.217  14.074  0.7060 -0.9274  1.0977
17025TIP3   OH272565   5.002   5.670  16.463  0.2106  0.5246 -0.0531
17025TIP3    H172566   4.910   5.695  16.454  0.9143  3.1203 -0.6868
17025TIP3    H272567   5.041   5.687  16.377  1.1151 -1.5787 -0.1302
17026TIP3   OH272568   1.823   6.279  14.372  0.3221 -0.3615  0.2033
17026TIP3    H172569   1.907   6.294  14.328  0.3398 -0.5904  0.1558
17026TIP3    H272570   1.785   6.366  14.381 -0.5630 -0.4497 -2.0076
17027TIP3   OH272571   3.107   3.211  11.664  0.6671  0.5629  0.0521
17027TIP3    H172572   3.150   3.196  11.580  2.3894 -0.2498  1.0034
17027TIP3    H272573   3.096   3.123  11.701 -1.4512  0.7908  0.0737
17028TIP3   OH272574   5.401   5.319   0.622 -0.5584 -0.5295  0.4034
17028TIP3    H172575   5.460   5.338   0.550 -0.5941  0.1709  0.5532
17028TIP3    H272576   5.351   5.399   0.634  0.6772  0.0124  2.3625
17029TIP3   OH272577   4.890   3.299   3.932 -0.6113  0.1456 -0.0579
17029TIP3    H172578   4.973   3.273   3.890 -0.5511 -0.7996  0.6273
17029TIP3    H272579   4.852   3.362   3.871  1.1339  1.4698  0.1148
17030TIP3   OH272580   4.853   5.179  15.869 -0.5252 -0.4380 -0.0763
17030TIP3    H172581   4.793   5.239  15.824  1.7272  1.7861 -0.3711
17030TIP3    H272582   4.856   5.211  15.959  1.5726  0.7365 -0.5028
17031TIP3   OH272583   2.739   4.895   5.469 -0.2662  0.3541  0.2954
17031TIP3    H172584   2.740   4.928   5.379 -1.9722 -1.4005 -0.4427
17031TIP3    H272585   2.721   4.972   5.523 -0.7302  1.1961 -1.0090
17032TIP3   OH272586   1.995   4.342   3.926  0.2692  0.1660 -0.4962
17032TIP3    H172587   1.960   4.356   3.838  0.9744 -0.9974 -0.9850
17032TIP3    H272588   1.946   4.266   3.958 -0.3349  0.8817  0.3324
17033TIP3   OH272589   3.458   4.593   1.588  0.3301 -0.3785  0.1012
17033TIP3    H172590   3.443   4.556   1.675  1.5621 -0.8229  0.1481
17033TIP3    H272591   3.493   4.681   1.605 -0.4927 -0.0305  0.0278
17034TIP3   OH272592   4.578   6.390   2.919 -0.2422 -0.4675 -0.4885
17034TIP3    H172593   4.553   6.438   2.840 -3.3243  0.4960  0.8939
17034TIP3    H272594   4.522   6.312   2.918 -0.1961 -0.5288  0.6233
17035TIP3   OH272595   3.697   4.077  16.187 -0.4762  0.5553 -0.1875
17035TIP3    H172596   3.677   4.160  16.228 -2.3147  0.0613  0.0070
17035TIP3    H272597   3.613   4.045  16.154 -0.0845 -1.7888  0.8257
17036TIP3   OH272598   4.756   0.896  17.184  0.0098  1.1052  0.8783
17036TIP3    H172599   4.696   0.919  17.256  0.2578 -0.6383  1.6837
17036TIP3    H272600   4.832   0.859  17.228  0.4701  0.6675 -0.2764
17037TIP3   OH272601   5.998   6.116   1.125 -0.3670  0.0715 -0.4460
17037TIP3    H172602   6.002   6.202   1.167 -1.6219 -0.0231 -0.1021
17037TIP3    H272603   6.059   6.062   1.175 -0.0068  0.6026 -0.3012
17038TIP3   OH272604   3.477   3.921   5.219 -0.0746  0.0196  0.0410
17038TIP3    H172605   3.408   3.863   5.185 -1.4128 -0.3066  2.9984
17038TIP3    H272606   3.455   4.007   5.185 -1.4647 -0.2437  0.2051
17039TIP3   OH272607   2.655   1.317   5.486 -0.2682  0.3260 -0.2313
17039TIP3    H172608   2.656   1.407   5.455  1.3243 -0.4096 -2.5695
17039TIP3    H272609   2.569   1.284   5.461 -0.2797  0.7538 -0.7662
17040TIP3   OH272610   3.261   5.121  15.325 -0.1624 -0.1539 -0.4975
17040TIP3    H172611   3.308   5.083  15.251  2.2098  0.7094  0.4648
17040TIP3    H272612   3.306   5.204  15.341 -0.6502 -0.2938  1.8771
17041TIP3   OH272613   0.992   3.982   6.291  0.0791 -0.3868 -0.0232
17041TIP3    H172614   1.024   3.912   6.348 -0.7192  0.0569  0.9973
17041TIP3    H272615   1.058   3.988   6.222  0.4784 -1.7154  0.2097
17042TIP3   OH272616   5.413   0.769   1.356 -0.1644 -0.0460  0.0828
17042TIP3    H172617   5.463   0.820   1.419  1.7944  0.0361 -1.4294
17042TIP3    H272618   5.322   0.795   1.370  0.3967  1.2172  1.6854
17043TIP3   OH272619   3.821   0.273  14.426 -0.3973  0.0611 -0.0514
17043TIP3    H172620   3.764   0.213  14.379 -1.1980  2.3552 -2.2407
17043TIP3    H272621   3.909   0.238  14.415 -0.8421 -0.7195 -1.2549
17044TIP3   OH272622   4.942   1.731   3.632 -0.0130 -0.0139  0.3638
17044TIP3    H172623   4.942   1.820   3.667 -0.4677 -0.1445  0.6948
17044TIP3    H272624   4.914   1.742   3.541  2.4160  0.4801 -0.4026
17045TIP3   OH272625   4.488   3.851   1.335 -0.2873  0.2369  0.0929
17045TIP3    H172626   4.557   3.904   1.373 -0.7287 -0.4986  2.0457
17045TIP3    H272627   4.416   3.912   1.319 -0.6698  0.3416  2.0050
17046TIP3   OH272628   6.629   5.499  12.242 -0.0532 -0.4339  0.5223
17046TIP3    H172629   6.566   5.433  12.269 -1.6931  1.2093  0.9098
17046TIP3    H272630   6.636   5.558  12.317  1.7663 -0.4113  0.3788
17047TIP3   OH272631   0.333   2.693   5.975 -0.1923  1.0664  0.0286
17047TIP3    H172632   0.331   2.691   6.071  1.2335 -1.2146  0.0875
17047TIP3    H272633   0.423   2.714   5.953 -0.4217  1.1742 -0.8211
17048TIP3   OH272634   3.546   2.841  12.402 -0.2141 -0.3221 -0.0341
17048TIP3    H172635   3.532   2.834  12.307 -0.2791  0.8253 -0.1216
17048TIP3    H272636   3.482   2.781  12.440  0.1519 -1.1764 -0.7286
17049TIP3   OH272637   5.451   3.433   3.754  0.0245 -0.4484  0.6396
17049TIP3    H172638   5.501   3.505   3.794 -0.0637 -0.3316  0.5376
17049TIP3    H272639   5.506   3.403   3.682 -0.6564  0.5729 -0.3339
17050TIP3   OH272640   4.151   3.867  12.515  0.3317 -0.6107 -0.2951
17050TIP3    H172641   4.092   3.842  12.443 -0.3853 -1.0887  0.4465
17050TIP3    H272642   4.093   3.890  12.587  1.0360 -2.3548  0.8872
17051TIP3   OH272643   2.841   6.570  14.599 -0.0532 -0.6302 -0.3613
17051TIP3    H172644   2.846   6.477  14.620  0.7953 -0.1719  1.7581
17051TIP3    H272645   2.756   6.598  14.631  0.5432 -0.2764  0.9641
17052TIP3   OH272646   5.229   1.429   2.232  0.1049  0.2983  0.4004
17052TIP3    H172647   5.245   1.348   2.280 -0.0389  0.0734  0.0797
17052TIP3    H272648   5.314   1.452   2.194 -0.2568 -0.8721 -1.2672
17053TIP3   OH272649   1.749   6.085   5.385 -0.4332  0.7632  0.5594
17053TIP3    H172650   1.816   6.017   5.383 -0.6747  0.5174 -1.7130
17053TIP3    H272651   1.793   6.160   5.425  0.3413 -0.2129  1.5871
17054TIP3   OH272652   0.142   2.818   0.100 -0.3803 -0.1615  0.1115
17054TIP3    H172653   0.087   2.866   0.162  0.0783  0.7739 -0.1824
17054TIP3    H272654   0.172   2.741   0.149 -2.1991 -0.8929  0.1776
17055TIP3   OH272655   1.967   4.977   0.813 -0.1895  0.0827  0.1121
17055TIP3    H172656   2.045   5.027   0.835 -0.0393 -0.3815  0.6462
17055TIP3    H272657   1.951   4.922   0.890  0.1977 -1.3890 -0.8381
17056TIP3   OH272658   2.378   5.762  13.303  0.1444 -0.2130  0.2827
17056TIP3    H172659   2.286   5.739  13.292  1.0586 -3.4981 -2.2203
17056TIP3    H272660   2.392   5.836  13.243 -0.8765  0.4735  0.8708
17057TIP3   OH272661   1.562   5.268  16.742  0.1258  0.2874 -0.0185
17057TIP3    H172662   1.646   5.315  16.735  0.6402 -0.0854  2.5384
17057TIP3    H272663   1.584   5.186  16.787 -1.0579 -1.6737 -2.7654
17058TIP3   OH272664   3.036   1.983   2.413 -0.6633  0.1340 -0.1351
17058TIP3    H172665   3.087   2.062   2.429  0.5450 -0.7864  0.8099
17058TIP3    H272666   3.098   1.911   2.424 -1.1900 -0.9222 -3.1407
17059TIP3   OH272667   4.221   3.497  14.965  0.1145 -0.5338  0.1451
17059TIP3    H172668   4.129   3.478  14.984  1.0524 -3.0085  2.9776
17059TIP3    H272669   4.265   3.412  14.973  2.8607  0.7965  0.3128
17060TIP3   OH272670   6.114   6.526  14.637  0.1450 -0.3403  0.0184
17060TIP3    H172671   6.061   6.567  14.568  2.3952  0.4001 -1.3755
17060TIP3    H272672   6.172   6.466  14.590  1.0861 -0.5608  1.4011
17061TIP3   OH272673   0.722   4.737   2.892  0.1312 -0.1899 -0.1964
17061TIP3    H172674   0.684   4.694   2.968  0.3089 -0.4624 -0.2568
17061TIP3    H272675   0.687   4.688   2.817  0.8631 -0.6695 -0.2399
17062TIP3   OH272676   6.081   3.829   2.096 -0.1538  0.1379  0.0889
17062TIP3    H172677   6.071   3.802   2.005  2.1729 -0.4162 -0.0497
17062TIP3    H272678   6.097   3.924   2.091  0.8170 -0.0348 -0.1572
17063TIP3   OH272679   5.925   3.792  15.516  1.0904  0.1427 -0.0166
17063TIP3    H172680   5.850   3.746  15.480  1.0158  0.3075 -0.0740
17063TIP3    H272681   5.999   3.766  15.461  1.2189 -0.6123  0.5100
17064TIP3   OH272682   6.455   1.330  11.761  0.1098  0.0499 -0.0553
17064TIP3    H172683   6.517   1.401  11.780 -0.7358  1.1039 -1.0793
17064TIP3    H272684   6.388   1.371  11.706 -0.9355 -1.3165  0.1458
17065TIP3   OH272685   3.893   0.509  12.916 -0.2293  0.5582 -0.0364
17065TIP3    H172686   3.888   0.431  12.971  2.5261 -0.3444 -0.8938
17065TIP3    H272687   3.960   0.563  12.956 -0.4521  1.3994 -0.7575
17066TIP3   OH272688   0.103   5.261   3.134 -0.6649  0.1015 -0.2720
17066TIP3    H172689   0.057   5.281   3.215  1.6802  1.5835  0.7784
17066TIP3    H272690   0.081   5.333   3.075  0.8593  1.2481  0.5064
17067TIP3   OH272691   2.577   1.274   0.705 -0.7637  0.1236  0.1218
17067TIP3    H172692   2.550   1.280   0.614  1.3419  1.1333 -0.5055
17067TIP3    H272693   2.529   1.343   0.750 -1.4774 -0.0886 -0.3092
17068TIP3   OH272694   5.424   6.110  14.914  0.5788 -0.8759 -0.6335
17068TIP3    H172695   5.504   6.139  14.871  1.9100 -2.3143  0.7823
17068TIP3    H272696   5.453   6.050  14.982 -1.6209 -0.5506  0.6969
17069TIP3   OH272697   4.431   0.536   4.151  0.0371  0.4462 -0.1256
17069TIP3    H172698   4.411   0.448   4.182  1.0209  0.6578  1.2301
17069TIP3    H272699   4.509   0.526   4.097  0.5547  0.5586  0.5881
17070TIP3   OH272700   3.108   2.190  17.112  0.1372  0.2199  0.0594
17070TIP3    H172701   3.059   2.112  17.085 -0.3812 -0.3727  2.4922
17070TIP3    H272702   3.080   2.258  17.051  0.1715 -1.3181 -1.7738
17071TIP3   OH272703   0.187   0.701   3.523 -0.7400 -0.8712 -0.2901
17071TIP3    H172704   0.239   0.774   3.490 -0.8430 -0.1526  1.0802
17071TIP3    H272705   0.098   0.735   3.529 -0.5984 -0.7434  1.3758
17072TIP3   OH272706   4.090   1.612  13.586 -0.5171 -0.0162  0.2857
17072TIP3    H172707   4.174   1.603  13.631 -0.5679  0.3894  0.4695
17072TIP3    H272708   4.102   1.565  13.504  0.0798  0.5074  0.0605
17073TIP3   OH272709   5.060   6.256  11.792 -0.0902  0.5513 -0.0240
17073TIP3    H172710   5.063   6.321  11.862 -1.2195  1.2715 -0.6146
17073TIP3    H272711   4.992   6.194  11.819  0.4386  0.0307  0.1576
17074TIP3   OH272712   2.551   6.442  17.104  0.8493  0.4324 -0.3925
17074TIP3    H172713   2.517   6.365  17.149  0.1074  0.7381 -0.4254
17074TIP3    H272714   2.566   6.506  17.174  1.2277  0.3540 -0.3979
17075TIP3   OH272715   2.845   2.989  11.300 -0.0853  0.1961 -0.9348
17075TIP3    H172716   2.799   3.073  11.294  0.3795  0.4248 -1.4010
17075TIP3    H272717   2.895   2.983  11.218 -0.1380 -0.5500 -0.9207
17076TIP3   OH272718   6.677   5.833   2.519 -0.7002 -0.2996  0.2053
17076TIP3    H172719   6.702   5.762   2.577 -0.7239 -0.3858  0.1103
17076TIP3    H272720   6.735   5.824   2.443 -0.8582 -0.3561  0.0909
17077TIP3   OH272721   1.961   4.680  12.359  0.5193 -0.0109  0.9572
17077TIP3    H172722   2.021   4.705  12.289  1.0412 -0.6142  1.1783
17077TIP3    H272723   2.018   4.659  12.433  0.0213 -0.2514  1.2801
17078TIP3   OH272724   5.886   4.317   6.970 -0.3274  0.4154 -0.2982
17078TIP3    H172725   5.922   4.400   6.938  1.2459 -1.1217 -2.8557
17078TIP3    H272726   5.871   4.265   6.891  1.4631 -2.7997  1.2707
17079TIP3   OH272727   6.147   0.019   1.941  0.2842 -0.3348 -0.3417
17079TIP3    H172728   6.228  -0.028   1.963  1.3654  1.1315 -0.9747
17079TIP3    H272729   6.161   0.049   1.851 -0.0817  1.6605  0.2093
17080TIP3   OH272730   3.348   5.943   0.422 -0.3862  0.5727 -0.1477
17080TIP3    H172731   3.418   5.903   0.370 -0.7569  0.1309 -0.3114
17080TIP3    H272732   3.379   6.032   0.438  0.1935  0.3976 -0.2588
17081TIP3   OH272733   3.652   4.023   5.896  0.2893  0.5292 -0.8300
17081TIP3    H172734   3.625   3.942   5.852  0.7280  0.6259 -1.2910
17081TIP3    H272735   3.639   4.091   5.830  0.1032  0.8115 -0.5058
17082TIP3   OH272736   1.445   0.953  12.329 -0.3214  0.2017  0.1472
17082TIP3    H172737   1.464   0.860  12.317  0.8874  0.0817  2.5150
17082TIP3    H272738   1.360   0.955  12.373 -0.4457  0.2483 -0.0892
17083TIP3   OH272739   6.243   4.694   2.931 -0.2988 -0.0985 -0.8196
17083TIP3    H172740   6.228   4.600   2.937 -1.1249  0.0938  0.4161
17083TIP3    H272741   6.279   4.707   2.844 -1.3764 -1.4005 -1.4870
17084TIP3   OH272742   1.438   2.612  14.713  0.0153  0.5670 -0.1935
17084TIP3    H172743   1.461   2.660  14.634  0.0077  1.2652  0.2195
17084TIP3    H272744   1.500   2.644  14.779 -0.4804  0.5735  0.2785
17085TIP3   OH272745   0.108   6.162  13.422 -0.0230  0.0522  0.1563
17085TIP3    H172746   0.049   6.110  13.367  0.1893 -2.2294  1.9200
17085TIP3    H272747   0.155   6.218  13.361 -1.1303 -0.9876 -1.7602
17086TIP3   OH272748   6.188   1.082  16.085  0.2575  0.4506 -0.4653
17086TIP3    H172749   6.096   1.080  16.059 -0.1633 -1.4662  0.9818
17086TIP3    H272750   6.232   1.022  16.026  0.1718 -0.2539  0.1722
17087TIP3   OH272751   0.380   6.565   3.616 -0.0828 -0.8806  0.3432
17087TIP3    H172752   0.416   6.511   3.545 -0.2399 -2.2004  1.2227
17087TIP3    H272753   0.337   6.638   3.571 -0.2947 -1.7482 -0.9325
17088TIP3   OH272754   1.924   1.506   0.975  0.5700  1.0761  0.1966
17088TIP3    H172755   1.861   1.454   1.024  0.1714 -1.3136 -2.5810
17088TIP3    H272756   1.894   1.597   0.984 -0.9029  0.4486  2.1564
17089TIP3   OH272757   1.436   6.391   1.800 -0.4260  0.1944 -0.5465
17089TIP3    H172758   1.486   6.309   1.802  1.5397  1.3205  0.8014
17089TIP3    H272759   1.351   6.368   1.838  0.4756 -1.0234  0.8600
17090TIP3   OH272760   1.330   6.398  11.595  0.3371  0.1389 -0.2244
17090TIP3    H172761   1.334   6.492  11.613 -0.2799  0.1260 -0.0163
17090TIP3    H272762   1.373   6.389  11.510 -0.1975  0.6965 -0.5634
17091TIP3   OH272763   1.678   6.620  14.883  0.2285  0.2081 -0.0781
17091TIP3    H172764   1.703   6.544  14.936 -1.2976 -0.3141 -0.0599
17091TIP3    H272765   1.678   6.588  14.793  0.4025  0.4217 -0.1555
17092TIP3   OH272766   3.376   4.777  16.580 -0.1093  0.4313  0.3652
17092TIP3    H172767   3.384   4.695  16.531 -0.4387 -1.9593  3.9154
17092TIP3    H272768   3.455   4.827  16.557  0.7051 -1.4067 -1.0553
17093TIP3   OH272769   5.851   6.272   0.840 -0.1359 -0.0888  0.1094
17093TIP3    H172770   5.809   6.232   0.916  0.1815 -1.7339 -0.5277
17093TIP3    H272771   5.920   6.327   0.876  0.0959 -0.9559  1.0345
17094TIP3   OH272772   2.682   3.786   4.861 -0.3989 -0.5962 -0.2662
17094TIP3    H172773   2.741   3.784   4.936  0.2075  1.0386 -0.6699
17094TIP3    H272774   2.595   3.779   4.899 -0.2269  2.0789  0.8233
17095TIP3   OH272775   5.197   5.993   4.794 -0.0037  0.2485 -0.3862
17095TIP3    H172776   5.244   5.943   4.727  2.3847  0.3746  1.0951
17095TIP3    H272777   5.260   6.059   4.824 -0.9969  0.2399  1.9259
17096TIP3   OH272778   4.327   3.638   1.420 -0.1069 -0.0652 -0.0315
17096TIP3    H172779   4.246   3.661   1.375  0.3074  2.0135  0.1828
17096TIP3    H272780   4.396   3.681   1.369  1.0522 -2.8373 -0.9469
17097TIP3   OH272781   6.548   5.556  12.828  0.3010  0.4943  0.5877
17097TIP3    H172782   6.454   5.554  12.808  0.2811  0.5928  0.6703
17097TIP3    H272783   6.570   5.465  12.846  0.1582  0.5136  0.8606
17098TIP3   OH272784   6.407   3.666  13.811  0.5370 -0.0754 -0.3846
17098TIP3    H172785   6.495   3.677  13.775  0.4187  1.3787 -0.2788
17098TIP3    H272786   6.379   3.580  13.780  1.5631 -0.0846 -1.3381
17099TIP3   OH272787   4.231   2.367   0.214 -0.4282 -0.1571 -0.0605
17099TIP3    H172788   4.322   2.360   0.187 -0.6646 -1.0190 -0.7222
17099TIP3    H272789   4.190   2.418   0.144 -0.4253  0.3396  0.3017
17100TIP3   OH272790   5.556   6.711   5.975 -0.4229 -0.1733  0.5636
17100TIP3    H172791   5.533   6.791   5.927 -0.4463 -0.7978 -0.4946
17100TIP3    H272792   5.474   6.679   6.011 -0.8705 -1.0783 -1.1607
17101TIP3   OH272793   6.283   3.865  11.813 -0.0277  0.0774 -0.0822
17101TIP3    H172794   6.327   3.832  11.735  0.6228  0.2944  0.1763
17101TIP3    H272795   6.323   3.817  11.886  0.8766  1.3222  0.2895
17102TIP3   OH272796   6.741   3.086  13.558 -0.1947 -0.1726  0.3297
17102TIP3    H172797   6.789   3.168  13.569 -0.3160  0.1737 -1.3798
17102TIP3    H272798   6.756   3.038  13.639  2.1877  0.3619  0.2689
17103TIP3   OH272799   0.974   0.504  11.891 -0.8666  0.9635  0.2701
17103TIP3    H172800   1.051   0.466  11.849 -1.9257 -1.1851  0.1736
17103TIP3    H272801   0.970   0.461  11.976 -0.2046  3.4006  1.6190
17104TIP3   OH272802   0.173   1.591  11.486 -0.1422  0.3615  0.1864
17104TIP3    H172803   0.120   1.664  11.453  1.0072  1.0569 -0.1826
17104TIP3    H272804   0.263   1.620  11.474  0.5258 -2.4803 -3.1803
17105TIP3   OH272805   4.425   4.711   5.737 -0.2224 -0.0674  0.5732
17105TIP3    H172806   4.370   4.659   5.796  1.2926 -2.3142  0.1011
17105TIP3    H272807   4.406   4.678   5.650  1.5927 -0.6624  0.3705
17106TIP3   OH272808   3.128   1.168  12.616 -0.7792 -0.0385 -0.2369
17106TIP3    H172809   3.188   1.155  12.690  0.4041 -1.1487 -1.3418
17106TIP3    H272810   3.043   1.183  12.657  0.2427  1.8166  1.3849
17107TIP3   OH272811   2.080   5.371  17.024  0.7533  0.3637  0.7233
17107TIP3    H172812   2.172   5.388  17.041  0.9625  1.4454 -1.1744
17107TIP3    H272813   2.080   5.299  16.960  0.3119  0.5451  0.5093
17108TIP3   OH272814   3.267   2.930  13.610  0.3456  0.4064  0.3755
17108TIP3    H172815   3.174   2.934  13.630  0.2218 -0.9955  0.1751
17108TIP3    H272816   3.279   2.990  13.536 -0.7691 -0.8106 -0.8476
17109TIP3   OH272817   5.907   2.708  16.888  0.7889 -0.7936  0.1185
17109TIP3    H172818   5.909   2.669  16.976  1.3140 -0.4648  0.2561
17109TIP3    H272819   5.877   2.798  16.902 -0.0324 -1.0153 -0.1547
17110TIP3   OH272820   6.450   5.544   4.086 -0.5613 -0.2753 -0.1736
17110TIP3    H172821   6.545   5.547   4.071 -0.5650 -0.5768 -0.2817
17110TIP3    H272822   6.441   5.511   4.175 -0.5798 -2.8034 -1.0328
17111TIP3   OH272823   0.979   3.092  12.504  0.3492 -0.3569 -0.0478
17111TIP3    H172824   1.044   3.161  12.497  0.1256 -0.0866  0.4636
17111TIP3    H272825   1.023   3.014  12.473  0.6756 -0.0246 -0.4248
17112TIP3   OH272826   2.728   4.703   3.178  0.6126 -0.1762 -0.0656
17112TIP3    H172827   2.698   4.786   3.215 -0.3633 -0.2519 -0.6616
17112TIP3    H272828   2.724   4.641   3.250  1.4800  0.3181  0.4210
17113TIP3   OH272829   3.118   4.047   2.572  0.0431  0.0256  0.1050
17113TIP3    H172830   3.054   4.000   2.625  0.4748 -1.6658 -0.8001
17113TIP3    H272831   3.088   4.036   2.482  0.0630  1.6740 -0.1299
17114TIP3   OH272832   2.458   6.051  15.851  0.3284  0.0320  0.4246
17114TIP3    H172833   2.501   5.966  15.857  0.4567 -0.0091 -0.7133
17114TIP3    H272834   2.531   6.114  15.848  0.3244  0.0005 -0.9839
17115TIP3   OH272835   3.329   4.805   1.161 -0.0560  0.3517 -0.1679
17115TIP3    H172836   3.236   4.792   1.177  0.0175 -1.6083 -1.0724
17115TIP3    H272837   3.362   4.718   1.137  2.4471  0.5020  2.2247
17116TIP3   OH272838   3.137   3.098  12.709  0.3153  0.0036 -0.2887
17116TIP3    H172839   3.225   3.080  12.678  0.1026  0.0980 -0.9541
17116TIP3    H272840   3.108   3.015  12.748 -0.2227 -0.8260 -2.2945
17117TIP3   OH272841   0.659   1.011  12.921 -0.1084 -0.3834 -0.3075
17117TIP3    H172842   0.575   1.009  12.875  0.4368 -0.3090 -1.3550
17117TIP3    H272843   0.669   0.924  12.958 -0.8253 -0.2704  0.1673
17118TIP3   OH272844   3.401   5.467   1.926  0.5394 -0.2183  0.4986
17118TIP3    H172845   3.465   5.529   1.961  1.9666 -1.3077 -0.0927
17118TIP3    H272846   3.376   5.504   1.842  1.0380 -0.1975  0.3536
17119TIP3   OH272847   1.465   6.699  15.413 -0.4154 -0.4666  0.2727
17119TIP3    H172848   1.403   6.751  15.464  0.3188 -0.9040  1.6826
17119TIP3    H272849   1.415   6.669  15.337 -1.1496  1.3522 -0.0030
17120TIP3   OH272850   1.014   4.913  12.721  0.3306  0.2043  0.8676
17120TIP3    H172851   0.946   4.856  12.757  0.5922 -1.2707 -0.8245
17120TIP3    H272852   1.091   4.858  12.714  0.0646  0.0090 -2.6695
17121TIP3   OH272853   5.031   0.971  17.388  0.3226  0.0174 -0.3572
17121TIP3    H172854   5.120   0.997  17.413  0.0559  1.3597 -0.7276
17121TIP3    H272855   5.020   1.008  17.300 -0.5270 -0.3244 -0.3935
17122TIP3   OH272856   4.307   3.832   4.185 -0.7365  0.0679  0.0097
17122TIP3    H172857   4.293   3.926   4.198  1.7533  0.8308 -1.8394
17122TIP3    H272858   4.391   3.815   4.228  0.8199 -0.3027 -2.8976
17123TIP3   OH272859   1.554   1.713  15.666 -0.0367  0.2129  0.0671
17123TIP3    H172860   1.524   1.804  15.655  0.8805  0.6190  0.7522
17123TIP3    H272861   1.497   1.677  15.733  0.8052  0.9061  1.1901
17124TIP3   OH272862   4.826   0.782  14.567 -0.0814  0.0879 -0.4556
17124TIP3    H172863   4.739   0.818  14.587 -0.0835  0.1439 -0.5655
17124TIP3    H272864   4.853   0.828  14.488  0.9158  1.5576  0.6891
17125TIP3   OH272865   3.490   0.928  15.943  0.3917  0.4383 -0.2878
17125TIP3    H172866   3.467   0.904  16.033  0.8055 -0.3427 -0.3850
17125TIP3    H272867   3.505   1.023  15.947  0.5997  0.3777  0.5073
17126TIP3   OH272868   5.622   6.607   4.134  0.0787  0.0823  0.3524
17126TIP3    H172869   5.717   6.602   4.139 -0.0262 -1.1454  1.5081
17126TIP3    H272870   5.603   6.701   4.140  1.2012  0.3540 -0.0152
17127TIP3   OH272871   1.622   2.565   3.994 -0.0330 -0.0080  0.7638
17127TIP3    H172872   1.664   2.649   3.979 -0.4807 -0.0699 -1.0825
17127TIP3    H272873   1.692   2.500   3.983  0.0256  0.0528  0.7820
17128TIP3   OH272874   3.280   6.173  14.157 -0.0365 -0.1167 -0.1006
17128TIP3    H172875   3.360   6.222  14.139 -0.0038  0.4316  1.4028
17128TIP3    H272876   3.211   6.239  14.155 -0.3495 -0.4577 -0.6154
17129TIP3   OH272877   5.350   1.392  11.520 -0.6248 -0.4606  0.1465
17129TIP3    H172878   5.279   1.454  11.505  0.3225  0.7552  0.5474
17129TIP3    H272879   5.306   1.311  11.548 -1.8675  0.0883 -0.1724
17130TIP3   OH272880   4.288   4.069   2.954  0.1999  0.8506 -0.1809
17130TIP3    H172881   4.379   4.045   2.939  0.6956  3.2529 -1.5957
17130TIP3    H272882   4.290   4.121   3.034  0.0804  0.9242 -0.2245
17131TIP3   OH272883   2.708   6.734   1.820  0.1200  0.4552  0.0864
17131TIP3    H172884   2.614   6.737   1.806  0.1673  0.9448 -0.1619
17131TIP3    H272885   2.740   6.818   1.787  0.8449 -0.3321 -1.3064
17132TIP3   OH272886   0.789   0.475  11.680  0.2302  0.6533 -0.1762
17132TIP3    H172887   0.757   0.546  11.623 -2.1333  1.2179  1.6965
17132TIP3    H272888   0.832   0.520  11.752 -1.4536  0.2734  1.1241
17133TIP3   OH272889   0.057   2.805   3.050 -0.1337  0.3266  0.2405
17133TIP3    H172890   0.065   2.897   3.077  0.5578 -0.5937  3.5766
17133TIP3    H272891  -0.027   2.776   3.086  1.2680 -1.2334  2.4861
17134TIP3   OH272892   2.174   5.138   5.168  0.1725  0.1450 -0.7449
17134TIP3    H172893   2.085   5.104   5.162  0.1729 -0.1097  0.4954
17134TIP3    H272894   2.166   5.230   5.143 -0.0961 -0.3186 -2.5215
17135TIP3   OH272895   1.876   1.063  11.663  0.0091  0.4664 -0.5891
17135TIP3    H172896   1.903   0.978  11.696  0.5544  0.7679 -0.2456
17135TIP3    H272897   1.796   1.045  11.613 -1.5507  0.1451  1.8709
17136TIP3   OH272898   4.184   1.262   4.752  0.1223 -0.3230 -0.1821
17136TIP3    H172899   4.207   1.344   4.707 -1.9035 -0.7846 -2.2455
17136TIP3    H272900   4.245   1.197   4.716  0.6373 -0.0821  0.2275
17137TIP3   OH272901   4.845   1.233  10.791  0.4696 -0.0993  0.4913
17137TIP3    H172902   4.907   1.253  10.721  0.3409 -1.0461  0.0956
17137TIP3    H272903   4.803   1.152  10.764  1.2665 -1.1452  2.1956
17138TIP3   OH272904   4.075   5.508   1.553  0.5253 -0.4167 -0.1128
17138TIP3    H172905   4.092   5.448   1.480 -1.4070 -1.0168 -0.1258
17138TIP3    H272906   4.030   5.454   1.618  0.1256  0.6653  0.5283
17139TIP3   OH272907   2.457   0.394  16.459  0.1652  0.2281 -0.5321
17139TIP3    H172908   2.473   0.421  16.368 -0.9252  0.1297 -0.7593
17139TIP3    H272909   2.517   0.320  16.472  0.5020  0.3908 -1.0879
17140TIP3   OH272910   4.204   4.678  13.519  0.1279 -0.5858 -0.8083
17140TIP3    H172911   4.274   4.614  13.526  0.9386  0.0585 -2.4747
17140TIP3    H272912   4.220   4.723  13.436 -3.0313 -1.3247 -1.9842
17141TIP3   OH272913   0.760   1.723  11.906  0.9401 -0.0977 -0.0724
17141TIP3    H172914   0.669   1.736  11.932  0.9330  1.3396 -0.7277
17141TIP3    H272915   0.755   1.706  11.812  1.3372 -0.3812 -0.0446
17142TIP3   OH272916   3.964   6.500  15.766  0.1743  0.2255  0.0212
17142TIP3    H172917   3.938   6.591  15.781 -0.6971  0.6382 -3.3005
17142TIP3    H272918   4.058   6.498  15.787  0.1999  1.8880  0.1495
17143TIP3   OH272919   0.330   4.416   2.742 -0.4643 -0.2016  0.1420
17143TIP3    H172920   0.359   4.374   2.661  1.3977  2.5385 -0.7538
17143TIP3    H272921   0.382   4.374   2.811 -0.4865 -1.0650 -0.3524
17144TIP3   OH272922   2.263   4.890  16.804 -0.2468  0.5298 -0.0680
17144TIP3    H172923   2.173   4.867  16.828 -0.0242 -0.2144  0.0741
17144TIP3    H272924   2.274   4.852  16.716  0.4741 -0.8863  0.6045
17145TIP3   OH272925   1.593   5.233   6.120  0.2682 -0.2350  0.4776
17145TIP3    H172926   1.652   5.211   6.193 -0.8806 -1.6744  1.0137
17145TIP3    H272927   1.513   5.262   6.162  0.6343  1.9789 -0.2526
17146TIP3   OH272928   3.008   4.319   6.534 -0.1497  0.0764  0.2166
17146TIP3    H172929   3.048   4.290   6.616  2.5095  0.9990 -0.6422
17146TIP3    H272930   3.014   4.415   6.537  0.0683  0.1285 -1.0529
17147TIP3   OH272931   3.172   4.960   6.192 -0.8235 -0.3891 -0.0265
17147TIP3    H172932   3.121   4.880   6.177  1.5340 -2.1021  0.4382
17147TIP3    H272933   3.179   4.965   6.288  0.0540 -0.3288 -0.0893
17148TIP3   OH272934   2.092   5.744   0.071  0.0014  0.0357 -0.4931
17148TIP3    H172935   2.084   5.730   0.166  0.9607 -0.1488 -0.4244
17148TIP3    H272936   2.059   5.663   0.032 -2.0496  0.7774 -0.4060
17149TIP3   OH272937   0.158   2.792   2.071 -0.6779  0.1076 -0.6096
17149TIP3    H172938   0.125   2.765   1.986 -0.4944 -0.5809 -0.4689
17149TIP3    H272939   0.209   2.872   2.053  0.0972 -0.5225 -1.2842
17150TIP3   OH272940   6.466   6.389  16.205  0.3842 -0.0582  0.1080
17150TIP3    H172941   6.486   6.316  16.264  1.0130 -0.8246 -1.0228
17150TIP3    H272942   6.535   6.453  16.221  0.3600 -0.1083  0.4303
17151TIP3   OH272943   2.658   6.493   2.300 -0.1025  0.1138  0.2736
17151TIP3    H172944   2.714   6.547   2.355  0.1245  1.4064 -1.1579
17151TIP3    H272945   2.693   6.503   2.212  0.1099 -2.6393 -0.0504
17152TIP3   OH272946   2.303   3.507  17.452 -0.0674  0.3094 -0.0839
17152TIP3    H172947   2.366   3.578  17.455  1.3022 -0.7382 -1.8327
17152TIP3    H272948   2.267   3.510  17.363 -2.8233  1.0787  0.9357
17153TIP3   OH272949   4.952   5.416   3.714 -0.0344 -0.4446  0.2824
17153TIP3    H172950   4.871   5.415   3.764  0.2708 -0.4681  0.7899
17153TIP3    H272951   4.925   5.411   3.623 -0.5702 -1.2777  0.4779
17154TIP3   OH272952   1.484   3.541  12.348  1.0788 -0.1100  0.2172
17154TIP3    H172953   1.493   3.581  12.435  1.7959 -1.8184  0.9703
17154TIP3    H272954   1.389   3.535  12.334  0.7948 -3.0336  2.5061
17155TIP3   OH272955   5.023   5.336   0.718  0.3281  0.6974  0.0373
17155TIP3    H172956   5.041   5.311   0.808 -0.5248  0.4693  0.1512
17155TIP3    H272957   4.963   5.411   0.725  0.2138  0.6456 -0.3354
17156TIP3   OH272958   1.904   0.474  12.703 -0.2104  0.3707 -0.2963
17156TIP3    H172959   1.929   0.485  12.611  1.4945  1.2418  0.2289
17156TIP3    H272960   1.900   0.379  12.716  5.2685 -0.1212  0.0308
17157TIP3   OH272961   4.613   3.989  16.043 -0.1726 -1.1292  0.1272
17157TIP3    H172962   4.522   4.012  16.026  0.0866  0.5370  0.8412
17157TIP3    H272963   4.656   4.072  16.064  1.2425 -2.0392  1.0450
17158TIP3   OH272964   4.068   2.168  17.308 -0.1687  0.6182 -0.4258
17158TIP3    H172965   4.035   2.202  17.225 -1.4982  2.1805  0.6755
17158TIP3    H272966   4.089   2.246  17.360  2.4624 -0.3125  0.0698
17159TIP3   OH272967   3.381   0.994  14.475  0.2348  0.4396 -0.5967
17159TIP3    H172968   3.456   1.054  14.469  0.7973  0.1546  2.2888
17159TIP3    H272969   3.315   1.043  14.523  0.7031 -1.1594  1.8196
17160TIP3   OH272970   4.239   5.521  11.954  0.1549  0.3876 -0.1517
17160TIP3    H172971   4.226   5.562  11.869 -2.0485 -0.5961 -0.3636
17160TIP3    H272972   4.151   5.499  11.984  0.9089  0.1753  2.1397
17161TIP3   OH272973   4.740   1.011   1.394  0.5411  0.3535  0.9596
17161TIP3    H172974   4.654   0.990   1.431 -0.2619  2.2201  0.2655
17161TIP3    H272975   4.728   1.005   1.300  0.9086  1.5190  0.8217
17162TIP3   OH272976   3.290   6.646  12.148  0.2444  0.0013 -0.0874
17162TIP3    H172977   3.260   6.734  12.124  2.5551  0.2422 -2.4286
17162TIP3    H272978   3.354   6.661  12.217  0.6081  0.1527 -0.4568
17163TIP3   OH272979   0.626   2.799  14.881  0.1180  0.3341  0.0554
17163TIP3    H172980   0.657   2.880  14.924 -1.6197  0.6718  0.7577
17163TIP3    H272981   0.655   2.729  14.940  2.1386  0.3440 -0.8482
17164TIP3   OH272982   3.107   5.163   5.140  0.9145 -0.8771  0.2978
17164TIP3    H172983   3.148   5.076   5.136  0.5308 -1.1320  1.4632
17164TIP3    H272984   3.180   5.223   5.150  1.0847 -1.2394  1.3231
17165TIP3   OH272985   4.565   3.626   5.067  0.1299  0.0446  0.2364
17165TIP3    H172986   4.631   3.562   5.041 -0.1747 -0.3277  0.3852
17165TIP3    H272987   4.610   3.710   5.060  0.4720 -0.1670 -0.1461
17166TIP3   OH272988   3.638   0.083   4.310 -0.2307  0.5299  0.3933
17166TIP3    H172989   3.563   0.122   4.263  0.6237  1.0092 -0.6046
17166TIP3    H272990   3.715   0.125   4.272  0.7593 -2.1090 -0.7089
17167TIP3   OH272991   2.772   4.232  14.862  0.0083  0.0666  0.6679
17167TIP3    H172992   2.738   4.274  14.941 -0.9062 -1.6521  1.2379
17167TIP3    H272993   2.820   4.156  14.894 -0.2178 -0.5505 -0.4204
17168TIP3   OH272994   4.348   2.132   4.304 -0.0777 -0.2476 -0.3827
17168TIP3    H172995   4.255   2.118   4.322 -0.1554  0.4351 -0.2173
17168TIP3    H272996   4.359   2.227   4.307  0.3702 -0.2449 -1.6991
17169TIP3   OH272997   3.555   1.958  15.155 -0.5511 -0.5092 -0.3090
17169TIP3    H172998   3.544   1.971  15.061 -1.2020 -0.0672 -0.1756
17169TIP3    H272999   3.495   1.886  15.176 -2.8187  1.4528  0.2960
17170TIP3   OH273000   3.817   1.386   6.146 -0.2891 -0.2372 -0.1253
17170TIP3    H173001   3.902   1.403   6.106  0.5362 -0.0531  1.5838
17170TIP3    H273002   3.805   1.291   6.138  1.6957 -0.8549  2.4188
17171TIP3   OH273003   0.606   6.487  12.826  0.1895 -0.3887  0.3200
17171TIP3    H173004   0.624   6.440  12.907 -1.4155  1.2137  1.7189
17171TIP3    H273005   0.690   6.492  12.781  1.2561 -0.8480  2.1708
17172TIP3   OH273006   3.855   6.683   4.931 -0.0289  0.8811 -0.5306
17172TIP3    H173007   3.866   6.672   5.026 -1.1272  1.0946 -0.3540
17172TIP3    H273008   3.938   6.719   4.901  0.4552  0.4939  0.3003
17173TIP3   OH273009   5.096   4.895   4.747  0.2222 -0.6702  0.0449
17173TIP3    H173010   5.086   4.892   4.842  0.4309 -0.0440  0.0872
17173TIP3    H273011   5.007   4.901   4.714  0.1716 -0.4591  0.2179
17174TIP3   OH273012   0.975   6.254   2.285 -0.0892 -0.3313 -0.3118
17174TIP3    H173013   0.968   6.202   2.205  2.1746 -1.2143 -0.0279
17174TIP3    H273014   1.066   6.242   2.312 -0.3312  1.3841  1.4334
17175TIP3   OH273015   1.579   5.507   2.634 -0.3364 -0.3901 -0.0795
17175TIP3    H173016   1.625   5.591   2.641 -0.5658 -0.3670  1.6553
17175TIP3    H273017   1.632   5.447   2.687 -0.5497 -1.1790 -0.7486
17176TIP3   OH273018   0.196   1.032   0.035 -0.6090  0.0662 -0.1194
17176TIP3    H173019   0.104   1.004   0.032 -0.9055  1.0632 -2.1805
17176TIP3    H273020   0.193   1.122   0.068 -0.0203 -0.8733  2.7573
17177TIP3   OH273021   3.639   2.585  11.648 -0.0656  0.6510  0.4545
17177TIP3    H173022   3.561   2.572  11.594  1.4116 -0.5145 -1.5198
17177TIP3    H273023   3.694   2.644  11.597 -0.1208  2.4937  2.3991
17178TIP3   OH273024   5.344   5.473  11.529  0.3144 -0.7408 -1.2697
17178TIP3    H173025   5.333   5.568  11.539  0.3532 -0.9149  0.9838
17178TIP3    H273026   5.385   5.463  11.443  3.8504  1.6166 -0.0904
17179TIP3   OH273027   3.054   1.415   3.452 -0.8635  0.1047 -0.4038
17179TIP3    H173028   3.128   1.456   3.407  0.7607 -1.4724  0.6958
17179TIP3    H273029   3.070   1.432   3.545 -0.5112 -2.2706  0.0277
17180TIP3   OH273030   4.687   4.059  14.037  0.0848 -0.3337  0.4835
17180TIP3    H173031   4.761   4.019  13.991  0.6007 -0.0009  0.9978
17180TIP3    H273032   4.703   4.039  14.130 -1.8092 -2.4058  0.4321
17181TIP3   OH273033   2.575   2.325  13.054  0.6557  0.0568 -0.3524
17181TIP3    H173034   2.510   2.298  13.119  1.0939  0.6648  0.3544
17181TIP3    H273035   2.536   2.300  12.970 -0.8348  1.0205 -0.0041
17182TIP3   OH273036   1.380   3.712  13.964  0.2083  0.3375 -0.1011
17182TIP3    H173037   1.311   3.702  13.899  0.4559  0.7863 -0.4328
17182TIP3    H273038   1.343   3.772  14.029 -1.4791 -2.8550  2.1614
17183TIP3   OH273039   5.812   6.190  16.244 -0.1437 -0.2266 -0.4947
17183TIP3    H173040   5.786   6.100  16.224  0.6994 -0.7194  0.5320
17183TIP3    H273041   5.756   6.217  16.316  1.0907 -0.7478  0.6989
17184TIP3   OH273042   4.723   1.261  12.622 -0.6310  0.4112  0.4256
17184TIP3    H173043   4.729   1.333  12.685 -0.5043  0.4479  0.3731
17184TIP3    H273044   4.682   1.189  12.670 -0.0551  0.2645  0.7054
17185TIP3   OH273045   1.496   4.878   4.307 -0.0641 -0.5971 -0.1360
17185TIP3    H173046   1.467   4.930   4.382 -2.6940 -2.3966  0.2382
17185TIP3    H273047   1.484   4.787   4.335  1.2896 -1.3852 -1.8975
17186TIP3   OH273048   2.835   5.676  10.970 -0.3739  0.0390 -0.2948
17186TIP3    H173049   2.887   5.719  10.902  0.9363 -1.7347 -0.4974
17186TIP3    H273050   2.826   5.742  11.039  2.3230  0.4162 -0.1908
17187TIP3   OH273051   0.779   2.051  14.325  0.0683 -0.4926  0.0500
17187TIP3    H173052   0.766   2.102  14.246 -1.5271  0.2687  0.7656
17187TIP3    H273053   0.694   2.013  14.345  0.6012 -1.2563  1.0226
17188TIP3   OH273054   4.368   0.085   0.896  0.4867 -0.1882  0.3712
17188TIP3    H173055   4.383   0.005   0.844  3.9582  0.9556 -0.6220
17188TIP3    H273056   4.318   0.142   0.837  0.8506 -0.4146 -0.1647
17189TIP3   OH273057   3.973   3.282  16.049 -0.0023  0.5342  0.1714
17189TIP3    H173058   4.027   3.338  15.994 -3.6427  3.6917 -0.5701
17189TIP3    H273059   3.951   3.207  15.992  0.1542  1.3533 -1.0116
17190TIP3   OH273060   0.656   4.972   5.139  0.0856 -0.1899  0.0717
17190TIP3    H173061   0.615   5.055   5.165  0.5264 -0.3136  1.2150
17190TIP3    H273062   0.662   4.922   5.221  1.9252 -0.4329 -0.1814
17191TIP3   OH273063   4.964   5.112  16.712  1.1264  0.5259 -0.4789
17191TIP3    H173064   5.051   5.120  16.672  1.8112 -0.4519  0.7591
17191TIP3    H273065   4.982   5.082  16.801 -0.5295 -0.3600 -0.4252
17192TIP3   OH273066   4.955   0.622   4.734 -0.2695 -0.3794 -0.1851
17192TIP3    H173067   4.891   0.552   4.721  1.0468 -1.7733  0.6195
17192TIP3    H273068   5.021   0.606   4.667 -0.4958  0.7736 -0.7051
17193TIP3   OH273069   5.311   6.349  15.188  0.0534 -0.0329  0.2620
17193TIP3    H173070   5.347   6.437  15.194  2.8162 -1.0070 -0.5782
17193TIP3    H273071   5.295   6.336  15.094 -1.1445 -0.1815  0.4637
17194TIP3   OH273072   3.035   1.580  10.992 -0.3046  0.2984 -0.3188
17194TIP3    H173073   3.010   1.672  10.988 -1.3231  0.0559  0.1510
17194TIP3    H273074   2.974   1.536  10.932 -0.1254 -0.1361 -0.1838
17195TIP3   OH273075   1.688   5.807   5.655 -0.2161  0.2971  0.3254
17195TIP3    H173076   1.633   5.755   5.596  1.0724  0.4091 -1.0323
17195TIP3    H273077   1.709   5.747   5.727 -1.8271  0.1652  0.7310
17196TIP3   OH273078   4.116   5.584  15.243  0.1849 -0.2143  0.1396
17196TIP3    H173079   4.118   5.575  15.147  0.5906 -1.7276  0.2693
17196TIP3    H273080   4.083   5.500  15.274  0.4717  0.1116  1.3672
17197TIP3   OH273081   0.033   0.670  10.702 -0.3688  0.4063 -0.0933
17197TIP3    H173082   0.003   0.761  10.698 -1.1045  0.1481 -0.5813
17197TIP3    H273083   0.075   0.655  10.618 -1.0367  0.0306 -0.3647
17198TIP3   OH273084   6.214   2.377  17.147 -0.5120  0.4030 -0.0027
17198TIP3    H173085   6.144   2.333  17.194  0.0414 -0.2526  0.2325
17198TIP3    H273086   6.181   2.388  17.058 -0.0109 -2.2155 -0.6148
17199TIP3   OH273087   0.354   1.823  15.391 -0.1170  0.1232 -0.0932
17199TIP3    H173088   0.344   1.729  15.400 -1.9597  0.4281  1.9267
17199TIP3    H273089   0.443   1.835  15.359  0.6215 -2.2492  0.8601
17200TIP3   OH273090   3.549   3.471  10.449 -0.3055  0.8468 -0.0068
17200TIP3    H173091   3.551   3.381  10.482 -0.6081  0.4096 -1.1582
17200TIP3    H273092   3.458   3.486  10.425 -1.0785  2.7303  3.4828
17201TIP3   OH273093   3.914   0.203  11.885 -0.8731 -0.0532 -0.4960
17201TIP3    H173094   3.875   0.181  11.800 -0.8255  0.1713 -0.5770
17201TIP3    H273095   3.993   0.149  11.890 -1.8427 -1.4623  0.2223
17202TIP3   OH273096   0.566   6.465  17.281 -0.3118  0.2828 -0.0110
17202TIP3    H173097   0.625   6.447  17.354 -0.0888 -2.4682 -0.7506
17202TIP3    H273098   0.506   6.532  17.314  1.2365  0.8116  1.8498
17203TIP3   OH273099   6.629   3.035   6.669 -0.4161  0.2179  0.3838
17203TIP3    H173100   6.538   3.032   6.699  0.1168 -0.5964  2.0425
17203TIP3    H273101   6.672   2.963   6.715  1.0042  0.3560 -0.6529
17204TIP3   OH273102   2.680   0.610   5.023 -0.0474  0.8341  0.0491
17204TIP3    H173103   2.744   0.552   4.981  0.2863  0.7524  0.6646
17204TIP3    H273104   2.701   0.606   5.116 -0.8203  0.9679  0.2377
17205TIP3   OH273105   5.460   4.047  11.859  0.3650 -0.3111 -0.2060
17205TIP3    H173106   5.441   3.969  11.806 -0.4501 -0.2439 -0.0219
17205TIP3    H273107   5.555   4.052  11.860  0.4325  0.5212 -2.8944
17206TIP3   OH273108   6.412   0.963  14.114  0.7889 -0.0092 -0.0611
17206TIP3    H173109   6.485   0.953  14.175  0.3440 -0.7865  0.3583
17206TIP3    H273110   6.335   0.971  14.170  0.5010  0.4301 -0.5073
17207TIP3   OH273111   4.554   3.311   1.378 -0.2912 -0.1799  0.5692
17207TIP3    H173112   4.485   3.307   1.311  1.0320  0.6977 -0.9079
17207TIP3    H273113   4.509   3.287   1.459 -2.6556  1.6478 -0.0817
17208TIP3   OH273114   5.410   6.261  17.231  0.1087  0.6230 -0.0300
17208TIP3    H173115   5.478   6.239  17.294  0.3829  2.9704  0.5764
17208TIP3    H273116   5.420   6.197  17.161  1.4939 -0.4251  1.0697
17209TIP3   OH273117   2.627   5.740  15.277  0.0626 -0.1779 -0.5048
17209TIP3    H173118   2.555   5.797  15.249  0.4614  0.8288  0.4805
17209TIP3    H273119   2.676   5.723  15.197 -0.4235  0.3396 -0.9217
17210TIP3   OH273120   4.147   5.468  13.276  0.4560  0.1208 -0.6441
17210TIP3    H173121   4.143   5.468  13.371  0.9442 -0.9187 -0.6090
17210TIP3    H273122   4.219   5.409  13.254  0.0905  0.0178 -1.6621
17211TIP3   OH273123   4.677   3.085   0.630 -0.2098  0.0548  0.3404
17211TIP3    H173124   4.663   3.049   0.543  0.9921 -1.5913  0.7751
17211TIP3    H273125   4.771   3.099   0.636 -0.0755 -1.1817  1.8237
17212TIP3   OH273126   3.072   3.547  17.374  0.2120 -0.3765  0.2410
17212TIP3    H173127   3.126   3.625  17.366  0.7781 -0.9230 -3.8365
17212TIP3    H273128   2.987   3.573  17.338  0.6562 -1.7109 -1.9599
17213TIP3   OH273129   4.177   0.702  12.468  0.9466  0.2688 -0.4754
17213TIP3    H173130   4.110   0.656  12.417  0.0852  1.0718 -0.0928
17213TIP3    H273131   4.259   0.685  12.421  0.6314 -1.4629 -0.4659
17214TIP3   OH273132   5.479   1.570  15.649  0.0673  0.7006 -0.7977
17214TIP3    H173133   5.401   1.516  15.661  1.6215 -1.4389  0.2824
17214TIP3    H273134   5.455   1.655  15.686 -1.0228 -0.5748  1.6375
17215TIP3   OH273135   4.142   2.351   2.711  0.2870  0.3700  0.8879
17215TIP3    H173136   4.047   2.342   2.706  0.2371  1.0820  0.2654
17215TIP3    H273137   4.157   2.445   2.702  1.1257  0.1199 -0.7663
17216TIP3   OH273138   3.796   3.255   1.465  0.0421 -0.3566  0.1175
17216TIP3    H173139   3.878   3.206   1.473 -0.1107 -1.2445 -2.5968
17216TIP3    H273140   3.823   3.344   1.443  0.2910 -0.3425  0.4858
17217TIP3   OH273141   5.245   6.381   5.259 -0.2146  0.3048  0.1168
17217TIP3    H173142   5.321   6.425   5.221 -0.4848  0.6313 -0.0528
17217TIP3    H273143   5.222   6.434   5.334  1.1880 -1.1099  1.6468
17218TIP3   OH273144   3.808   3.980   4.165  0.0508 -0.6723  0.0095
17218TIP3    H173145   3.805   4.006   4.257  0.4316 -1.1532  0.1630
17218TIP3    H273146   3.716   3.974   4.139 -0.0583 -0.5138  0.3536
17219TIP3   OH273147   6.256   1.934   2.698 -0.3057  0.0116 -0.0772
17219TIP3    H173148   6.247   1.931   2.603 -0.4997 -0.6638 -0.0393
17219TIP3    H273149   6.209   1.857   2.730  0.6947 -0.3846  0.4927
17220TIP3   OH273150   4.062   2.227   5.155 -0.1852 -0.0570  0.4343
17220TIP3    H173151   3.976   2.269   5.161 -0.3134 -0.1838 -0.3343
17220TIP3    H273152   4.123   2.291   5.193 -0.6562 -0.1080  1.2968
17221TIP3   OH273153   0.757   6.355  14.102 -0.3290 -0.2694  0.1154
17221TIP3    H173154   0.705   6.430  14.073  0.9157  0.8230  0.6430
17221TIP3    H273155   0.848   6.386  14.100  0.5358 -2.5409 -2.1747
17222TIP3   OH273156   3.133   6.275   0.021  0.4716  0.4836  0.4311
17222TIP3    H173157   3.119   6.181   0.028  1.3447  0.1180 -1.9671
17222TIP3    H273158   3.172   6.300   0.106 -2.1060 -0.7736  2.1045
17223TIP3   OH273159   3.964   2.311  17.096  0.2104 -0.4314  0.3612
17223TIP3    H173160   3.911   2.356  17.162 -2.1109 -0.3211 -1.4402
17223TIP3    H273161   3.903   2.252  17.052  0.9830  1.1367 -3.1716
17224TIP3   OH273162   5.194   0.564   0.482  0.6284 -0.3336 -0.1207
17224TIP3    H173163   5.142   0.557   0.402 -0.0240  0.8986  0.1734
17224TIP3    H273164   5.275   0.516   0.462  0.5151  0.0268 -1.5487
17225TIP3   OH273165   3.306   2.628  11.757 -0.4014  1.0166  0.3937
17225TIP3    H173166   3.283   2.571  11.831  0.0911  0.6745  0.2869
17225TIP3    H273167   3.226   2.633  11.706  0.0022 -1.0043 -0.5204
17226TIP3   OH273168   5.727   2.361  16.358 -0.0014 -0.1857 -0.1537
17226TIP3    H173169   5.650   2.417  16.363 -0.9999 -1.4545 -0.6640
17226TIP3    H273170   5.718   2.302  16.433  0.6739 -0.1193 -0.0100
17227TIP3   OH273171   3.827   5.827  13.908  0.5992  0.4866 -0.0651
17227TIP3    H173172   3.824   5.732  13.911 -0.7304  0.5326  1.0364
17227TIP3    H273173   3.920   5.848  13.906  0.9110 -0.8319 -0.2506
17228TIP3   OH273174   4.975   6.641  14.919 -0.5295  0.4799  0.0786
17228TIP3    H173175   5.067   6.648  14.946 -0.3734  0.6735 -0.5002
17228TIP3    H273176   4.978   6.601  14.833 -1.0187  0.0979  0.2313
17229TIP3   OH273177   1.266   1.412  15.612 -0.1403 -0.0841 -0.2450
17229TIP3    H173178   1.276   1.367  15.696 -0.8463  1.0377  0.4647
17229TIP3    H273179   1.356   1.418  15.578  0.0562 -1.2827  0.0239
17230TIP3   OH273180   4.405   0.010  16.338 -0.6565  0.3289  0.2214
17230TIP3    H173181   4.398  -0.060  16.273  1.0242  1.3334 -1.1594
17230TIP3    H273182   4.388  -0.033  16.422  2.4293 -2.3092 -0.2854
17231TIP3   OH273183   2.607   5.290   2.473  0.3406 -0.1120 -0.3039
17231TIP3    H173184   2.577   5.365   2.422 -0.0718 -1.0111 -1.4261
17231TIP3    H273185   2.703   5.293   2.466  0.4093  0.9770  0.6875
17232TIP3   OH273186   6.277   1.264   4.122 -0.8676 -0.1865  0.4839
17232TIP3    H173187   6.314   1.222   4.200  0.5607 -1.5311 -0.8541
17232TIP3    H273188   6.351   1.306   4.079 -1.4526 -0.3083 -0.6822
17233TIP3   OH273189   1.092   3.583  11.283 -0.5915  0.6811  0.0186
17233TIP3    H173190   1.170   3.580  11.228  0.3285 -1.4451  1.3310
17233TIP3    H273191   1.049   3.499  11.268  0.2569 -0.4689  3.2226
17234TIP3   OH273192   5.954   3.634   0.248 -0.0048 -0.2179 -0.6786
17234TIP3    H173193   5.882   3.676   0.201  0.6333  1.8148  0.0897
17234TIP3    H273194   5.921   3.621   0.337  0.0964 -0.5691 -0.6909
17235TIP3   OH273195   4.935   4.894   3.679  0.7582 -0.1743  0.4831
17235TIP3    H173196   4.881   4.938   3.613 -0.3988  2.1691  2.8302
17235TIP3    H273197   5.022   4.930   3.667  0.9421 -0.9662 -0.7379
17236TIP3   OH273198   5.706   2.210  16.134 -0.5136  0.3066 -0.0163
17236TIP3    H173199   5.732   2.270  16.204 -0.5166  0.9243 -0.5302
17236TIP3    H273200   5.670   2.268  16.066  0.1129 -0.2175 -0.8039
17237TIP3   OH273201   6.427   3.947  13.511 -0.0847 -0.1153  0.2530
17237TIP3    H173202   6.457   3.966  13.599  3.1181  1.2819 -0.9809
17237TIP3    H273203   6.410   4.033  13.472  0.8754 -0.5237 -1.1624
17238TIP3   OH273204   1.791   1.562   5.100  0.1890 -0.3592  0.3010
17238TIP3    H173205   1.823   1.652   5.103  0.2942 -0.3994  3.4010
17238TIP3    H273206   1.866   1.511   5.070  0.4450  0.4474 -0.4690
17239TIP3   OH273207   2.525   5.290  10.535 -0.2942  0.1494 -0.1033
17239TIP3    H173208   2.594   5.233  10.502 -0.5672 -0.7835  0.8603
17239TIP3    H273209   2.561   5.378  10.530  0.0636 -0.0685 -1.8234
17240TIP3   OH273210   6.170   5.774  17.216 -0.2354  0.0550 -0.2724
17240TIP3    H173211   6.091   5.810  17.177 -1.7839 -0.3032  2.3280
17240TIP3    H273212   6.239   5.837  17.194 -0.9214 -0.1178 -3.4450
17241TIP3   OH273213   3.277   2.992   1.472  0.2139 -0.1395  0.8064
17241TIP3    H173214   3.191   2.978   1.512 -0.0278 -0.5164  0.1713
17241TIP3    H273215   3.260   2.995   1.378  0.7924  0.6174  0.7170
17242TIP3   OH273216   4.242   1.475   4.268 -0.5932  0.3331  0.4482
17242TIP3    H173217   4.205   1.395   4.304 -1.1041 -0.3641 -1.4594
17242TIP3    H273218   4.331   1.478   4.301 -0.9300 -0.3938  1.4765
17243TIP3   OH273219   4.490   5.321  16.189  0.2092  0.7008 -0.1064
17243TIP3    H173220   4.577   5.343  16.156  0.2389  1.2588  0.3205
17243TIP3    H273221   4.464   5.399  16.239  0.6417 -0.5514  2.1693
17244TIP3   OH273222   3.485   0.952   3.331 -0.2892  0.5764  0.0870
17244TIP3    H173223   3.520   0.924   3.416 -1.5301 -0.5228  0.2744
17244TIP3    H273224   3.417   1.016   3.353 -1.8500 -1.0130  0.0813
17245TIP3   OH273225   3.785   5.619  16.827 -0.1716  0.4525 -0.0771
17245TIP3    H173226   3.782   5.669  16.746  0.4966  0.0518 -0.3564
17245TIP3    H273227   3.785   5.527  16.800 -0.7304  0.3019  0.4047
17246TIP3   OH273228   5.856   2.967   0.377  0.3379  0.4196 -0.3957
17246TIP3    H173229   5.852   2.988   0.471 -0.1034  1.3859 -0.6161
17246TIP3    H273230   5.897   2.881   0.374  3.3427  1.6686  0.5400
17247TIP3   OH273231   3.953   0.188  14.945 -0.7131 -0.1943 -0.5020
17247TIP3    H173232   3.890   0.146  14.888 -1.6176 -1.2160  1.1917
17247TIP3    H273233   3.906   0.264  14.981 -0.7848 -0.6117  0.2964
17248TIP3   OH273234   4.308   1.698   2.868 -0.3618  0.5331 -0.0739
17248TIP3    H173235   4.355   1.712   2.950 -1.0510  0.5904  0.3257
17248TIP3    H273236   4.355   1.627   2.824  0.5928  1.1572 -0.0890
17249TIP3   OH273237   0.895   1.039   5.550  0.4078 -0.4431 -0.1031
17249TIP3    H173238   0.871   0.970   5.612 -0.0536 -0.0472  0.1662
17249TIP3    H273239   0.831   1.109   5.566 -0.4057 -0.7598 -1.7610
17250TIP3   OH273240   0.682   3.342  15.234  0.2115 -0.4533 -0.9682
17250TIP3    H173241   0.721   3.323  15.319 -0.8373  0.5303 -0.2510
17250TIP3    H273242   0.752   3.322  15.171  0.6158 -2.3509  0.0080
17251TIP3   OH273243   5.676   0.990   4.857  0.1053  0.0790 -0.1531
17251TIP3    H173244   5.606   0.953   4.910 -1.1311  1.2132 -0.9566
17251TIP3    H273245   5.748   0.927   4.865 -0.8425 -0.8943  1.0117
17252TIP3   OH273246   1.662   5.229  17.046 -0.6710  0.1188  0.0881
17252TIP3    H173247   1.580   5.180  17.053 -0.0853 -0.8694  0.2148
17252TIP3    H273248   1.706   5.214  17.130  0.0198 -0.0737 -0.3015
17253TIP3   OH273249   4.063   1.118   2.819  0.1517  0.3044  0.4117
17253TIP3    H173250   4.017   1.067   2.886  0.5611 -0.2359  0.2859
17253TIP3    H273251   4.000   1.123   2.747  0.4297 -0.8103  0.0677
17254TIP3   OH273252   4.899   3.047  11.674  0.1934 -0.0822  0.2935
17254TIP3    H173253   4.993   3.057  11.657  0.4608 -0.2664  1.5780
17254TIP3    H273254   4.864   3.136  11.670  0.7671  0.2322  1.6250
17255TIP3   OH273255   4.828   6.071   5.704  0.1520  0.1832  0.5512
17255TIP3    H173256   4.860   6.150   5.747  1.5706  0.1157 -0.2852
17255TIP3    H273257   4.872   5.999   5.749  0.2650 -0.0012  0.1552
17256TIP3   OH273258   5.897   6.361   2.217  0.2822  0.4258  0.1514
17256TIP3    H173259   5.912   6.426   2.149 -2.4333  1.6798  0.6106
17256TIP3    H273260   5.898   6.277   2.171  2.0804  0.9012 -0.7555
17257TIP3   OH273261   3.952   2.418  13.715 -0.2067 -0.3617 -0.4314
17257TIP3    H173262   3.989   2.338  13.678 -1.4366 -1.4414  0.5700
17257TIP3    H273263   3.936   2.396  13.807 -0.5960  1.0269 -0.1479
17258TIP3   OH273264   2.987   2.363   5.534  0.4315  0.1434  0.0085
17258TIP3    H173265   2.923   2.349   5.603  1.1668  0.6010  0.7961
17258TIP3    H273266   2.965   2.448   5.497  1.6144  1.1162  1.4474
17259TIP3   OH273267   3.914   5.066   2.080  0.1587  0.5883  0.4437
17259TIP3    H173268   3.833   5.016   2.089  1.5618 -1.7533  1.0767
17259TIP3    H273269   3.918   5.119   2.159 -0.6764  0.6010  0.4848
17260TIP3   OH273270   4.155   3.217  14.169 -0.0405 -0.3312 -0.0055
17260TIP3    H173271   4.157   3.287  14.104  1.2504 -0.3525 -0.0108
17260TIP3    H273272   4.215   3.151  14.135 -1.3489 -1.5273 -0.0727
17261TIP3   OH273273   2.478   4.254   5.854 -0.2523 -0.0470  0.1248
17261TIP3    H173274   2.406   4.197   5.882 -0.4934 -0.5083 -1.3756
17261TIP3    H273275   2.500   4.224   5.767  0.1847  1.6291 -0.3840
17262TIP3   OH273276   4.981   4.738   5.141  0.1535  0.6527 -0.1495
17262TIP3    H173277   5.037   4.814   5.126  0.2484  0.6936  0.4129
17262TIP3    H273278   4.933   4.727   5.059  2.1144 -0.3126 -1.2725
17263TIP3   OH273279   4.736   4.395   0.590  0.2769  0.4959  0.1843
17263TIP3    H173280   4.750   4.489   0.578 -3.6329  1.3982  1.2054
17263TIP3    H273281   4.764   4.378   0.681  0.6940  0.7173  0.1007
17264TIP3   OH273282   0.507   5.610   0.915  0.0644  0.5515  0.5007
17264TIP3    H173283   0.530   5.700   0.893  2.1081 -0.2050 -0.8062
17264TIP3    H273284   0.578   5.580   0.972 -0.9847 -0.0351  1.5578
17265TIP3   OH273285   2.850   0.249  10.823  0.0579 -0.2615 -0.3275
17265TIP3    H173286   2.927   0.304  10.840  0.3059  0.1985 -2.5482
17265TIP3    H273287   2.857   0.227  10.730 -2.4184 -0.3608 -0.5605
17266TIP3   OH273288   5.755   2.184   0.663  0.1429  0.6301  0.3059
17266TIP3    H173289   5.743   2.093   0.687  1.2228  0.1238 -0.9598
17266TIP3    H273290   5.847   2.203   0.684  0.1659  1.1593 -0.2341
17267TIP3   OH273291   0.344   5.202   3.024 -0.2779 -0.6216  0.8132
17267TIP3    H173292   0.258   5.174   3.054 -0.1525 -1.6374  0.3036
17267TIP3    H273293   0.393   5.120   3.013  0.2394 -0.1760 -0.4045
17268TIP3   OH273294   6.008   2.828   1.384  0.0700 -0.4299  0.1268
17268TIP3    H173295   6.099   2.811   1.360  0.8637  3.3959 -0.2800
17268TIP3    H273296   6.004   2.811   1.478  1.1128 -0.9656  0.0881
17269TIP3   OH273297   1.771   3.400  14.698 -0.2247 -0.2439 -0.1852
17269TIP3    H173298   1.838   3.332  14.709 -1.7729 -1.7030  0.8243
17269TIP3    H273299   1.704   3.378  14.763 -1.7140  1.1229 -1.1708
17270TIP3   OH273300   5.975   6.432  13.613 -0.6324 -0.2268  0.4833
17270TIP3    H173301   6.027   6.497  13.659 -1.7416  0.5691  0.6601
17270TIP3    H273302   5.992   6.449  13.520  0.5620 -0.9580  0.5484
17271TIP3   OH273303   6.308   2.624  17.191  0.6066 -0.2645 -0.2628
17271TIP3    H173304   6.276   2.534  17.184  0.7726 -0.3525  0.1053
17271TIP3    H273305   6.355   2.639  17.109 -0.8134  0.0477 -1.0631
17272TIP3   OH273306   6.037   5.041  15.363 -0.0078 -0.6534 -0.4269
17272TIP3    H173307   5.981   5.099  15.310  0.2003 -0.8713 -0.8880
17272TIP3    H273308   6.020   5.069  15.454  0.4717  0.4893 -0.6642
17273TIP3   OH273309   4.858   5.053  12.280  0.0500  0.6263 -0.4271
17273TIP3    H173310   4.806   4.981  12.243 -0.9801  1.3336 -0.4099
17273TIP3    H273311   4.949   5.028  12.263 -0.2820 -0.6414 -0.4789
17274TIP3   OH273312   1.465   4.226  13.515 -0.0577 -0.2647 -0.0533
17274TIP3    H173313   1.384   4.202  13.470  0.1051 -3.3439  1.0244
17274TIP3    H273314   1.450   4.202  13.606  2.5015 -2.4335 -0.0835
17275TIP3   OH273315   6.091   0.049   2.371 -0.4836 -0.0394 -0.0987
17275TIP3    H173316   6.074   0.084   2.283  0.8036  0.1514 -0.2858
17275TIP3    H273317   6.008   0.008   2.396 -0.3947 -1.6326 -2.1183
17276TIP3   OH273318   3.624   1.356  15.280  0.3186  0.4933  0.3541
17276TIP3    H173319   3.669   1.420  15.335 -1.4260  0.2592  2.1701
17276TIP3    H273320   3.536   1.391  15.269 -0.4660 -1.2085  0.7974
17277TIP3   OH273321   2.637   5.875  14.654  0.4024  0.3104  0.1393
17277TIP3    H173322   2.591   5.945  14.607 -0.0261  0.2889  0.5285
17277TIP3    H273323   2.668   5.916  14.734  1.1048  0.3361 -0.1357
17278TIP3   OH273324   5.216   3.040  15.250 -0.3794 -0.1531  0.7960
17278TIP3    H173325   5.208   3.082  15.336 -2.1365 -1.0500  1.1123
17278TIP3    H273326   5.131   2.999  15.236 -0.4938  0.8249 -1.8443
17279TIP3   OH273327   2.077   6.209  14.705 -0.3876  0.2383 -0.5759
17279TIP3    H173328   2.087   6.117  14.681 -2.3731  0.3285 -1.9037
17279TIP3    H273329   2.111   6.257  14.630 -1.6705  0.5617 -0.9615
17280TIP3   OH273330   0.455   1.705   2.158  0.4561 -0.0625  0.1579
17280TIP3    H173331   0.517   1.708   2.231  1.0814  0.4884 -0.3809
17280TIP3    H273332   0.415   1.792   2.158  1.1753  0.2804 -0.7497
17281TIP3   OH273333   1.610   2.934   3.621  0.0122  0.6880  0.3498
17281TIP3    H173334   1.671   2.861   3.611 -1.2600 -0.2508 -0.8600
17281TIP3    H273335   1.630   2.991   3.547  1.0265  1.6438  1.3103
17282TIP3   OH273336   6.521   4.819   2.958  0.1295  0.2397 -0.4017
17282TIP3    H173337   6.605   4.776   2.974  0.0632  0.3697  0.3446
17282TIP3    H273338   6.465   4.750   2.923  0.6699  0.2562 -1.3194
17283TIP3   OH273339   0.463   0.226   1.738 -0.1345  0.7189 -0.0758
17283TIP3    H173340   0.542   0.280   1.730 -0.6866  1.4852 -0.5158
17283TIP3    H273341   0.481   0.169   1.813  1.8611 -0.9086 -1.6531
17284TIP3   OH273342   4.515   3.489   4.144  0.3083  0.5624 -0.3927
17284TIP3    H173343   4.585   3.427   4.162 -1.4757 -1.1037  1.2599
17284TIP3    H273344   4.514   3.547   4.220 -2.3007 -1.6881  1.4752
17285TIP3   OH273345   1.542   3.866  14.672 -0.9657 -0.2127  0.4443
17285TIP3    H173346   1.577   3.872  14.761 -1.3482 -0.5458  0.6199
17285TIP3    H273347   1.504   3.953  14.655 -1.7354 -0.4337  0.9656
17286TIP3   OH273348   0.359   6.155  14.403  0.0530 -0.6007  0.2285
17286TIP3    H173349   0.435   6.176  14.349  0.9318 -0.9883  1.2607
17286TIP3    H273350   0.301   6.106  14.346 -0.6056  1.8431 -1.3272
17287TIP3   OH273351   4.735   4.262  12.095  0.1689  0.0751 -0.0028
17287TIP3    H173352   4.691   4.271  12.011  1.0147  1.5464 -0.3196
17287TIP3    H273353   4.702   4.180  12.131 -0.2101 -0.5766 -1.7635
17288TIP3   OH273354   5.513   2.810  13.553 -0.0289 -0.2288 -0.1482
17288TIP3    H173355   5.573   2.842  13.620  1.3034 -1.2115 -0.8120
17288TIP3    H273356   5.567   2.755  13.497 -1.1433  0.3978 -1.9322
17289TIP3   OH273357   5.997   1.638  11.891  0.0517  0.0619 -0.4265
17289TIP3    H173358   5.939   1.677  11.826 -0.6495  1.8314  1.1676
17289TIP3    H273359   5.951   1.651  11.975  0.8053 -2.3260  0.4490
17290TIP3   OH273360   6.173   5.246  12.802  0.0223  0.3978  0.0044
17290TIP3    H173361   6.159   5.183  12.873  1.4241  0.3715  0.2812
17290TIP3    H273362   6.087   5.286  12.788 -0.0473  1.3199  2.5837
17291TIP3   OH273363   3.025   2.559   1.346  0.1673  0.1333  0.2391
17291TIP3    H173364   3.001   2.524   1.260 -0.8058  0.8057  0.2213
17291TIP3    H273365   3.072   2.488   1.389  1.1370 -0.0330 -1.0512
17292TIP3   OH273366   3.913   4.787  15.520 -0.1801  0.2174  0.9290
17292TIP3    H173367   3.875   4.705  15.550  0.7599 -0.4641  0.3397
17292TIP3    H273368   3.925   4.775  15.426 -0.9508  1.4270  0.6456
17293TIP3   OH273369   1.247   0.860  17.117  0.3012  0.1364  0.0010
17293TIP3    H173370   1.206   0.825  17.038 -0.8460 -1.0414  1.0732
17293TIP3    H273371   1.310   0.793  17.143 -0.4485 -0.2270  0.9343
17294TIP3   OH273372   2.454   4.667  16.002  0.0136 -0.6903 -0.2079
17294TIP3    H173373   2.376   4.630  16.043 -0.9414  2.2185  0.8406
17294TIP3    H273374   2.525   4.647  16.063 -0.1282 -2.0692 -0.4521
17295TIP3   OH273375   0.046   1.138  11.204 -0.0073  0.1861 -0.0796
17295TIP3    H173376   0.079   1.168  11.289 -0.1423  0.3534 -0.0877
17295TIP3    H273377   0.122   1.144  11.146 -0.1437  0.9407 -0.1919
17296TIP3   OH273378   3.734   3.067  12.861 -0.2249 -0.3353 -0.0188
17296TIP3    H173379   3.752   3.161  12.867 -1.6480 -0.1320  3.1389
17296TIP3    H273380   3.746   3.046  12.768  0.7166  2.8069 -0.7310
17297TIP3   OH273381   2.740   2.716   3.470 -0.2348 -0.1225  0.3802
17297TIP3    H173382   2.829   2.679   3.475  0.5153  0.7227 -3.5708
17297TIP3    H273383   2.688   2.660   3.527  2.4327 -1.9809  1.1801
17298TIP3   OH273384   4.120   4.191   4.716 -0.0704 -0.0787  0.0895
17298TIP3    H173385   4.107   4.101   4.687  0.5540 -0.2655  0.3959
17298TIP3    H273386   4.210   4.195   4.746  0.2971  0.9671 -1.0691
17299TIP3   OH273387   2.167   5.712  12.720  0.1824 -0.2075 -0.0643
17299TIP3    H173388   2.131   5.786  12.769  1.0834  0.8633 -0.9705
17299TIP3    H273389   2.158   5.638  12.780  0.2605  0.8323  1.3036
17300TIP3   OH273390   3.874   4.480   2.005  0.2064 -0.7405 -0.6085
17300TIP3    H173391   3.828   4.467   1.922 -0.0613 -1.1931 -0.3941
17300TIP3    H273392   3.863   4.397   2.052 -0.6547 -0.1171  0.3621
17301TIP3   OH273393   0.169   1.279  13.273 -0.6675  0.5196 -0.3079
17301TIP3    H173394   0.216   1.328  13.206 -1.4787  1.4234 -0.2338
17301TIP3    H273395   0.091   1.245  13.229 -0.8754  0.5715  0.0166
17302TIP3   OH273396   2.928   1.618   0.331 -0.0709  0.1604  0.1311
17302TIP3    H173397   2.980   1.660   0.400  0.4752  0.7400 -0.6204
17302TIP3    H273398   2.933   1.678   0.257 -0.6439 -0.4616 -0.4276
17303TIP3   OH273399   4.719   1.347   6.306 -0.0780 -0.0471  0.4721
17303TIP3    H173400   4.791   1.409   6.318 -0.0305 -0.2204  1.0987
17303TIP3    H273401   4.716   1.297   6.387 -2.5348  1.6573  1.5559
17304TIP3   OH273402   2.460   3.247   5.462  0.2245  0.0716 -0.3497
17304TIP3    H173403   2.513   3.243   5.383  0.3890 -0.1960 -0.2274
17304TIP3    H273404   2.519   3.221   5.532  0.5500  1.9338  0.1113
17305TIP3   OH273405   0.134   6.426   6.793  0.2028 -0.7650 -0.1234
17305TIP3    H173406   0.131   6.429   6.889  1.1335  1.7308 -0.0917
17305TIP3    H273407   0.042   6.421   6.766 -0.0504 -2.0017  0.8737
17306TIP3   OH273408   3.317   3.845   3.709  0.0965 -0.1427  0.1022
17306TIP3    H173409   3.402   3.850   3.752 -0.3707 -0.8055  1.1417
17306TIP3    H273410   3.314   3.756   3.672 -0.1754 -0.1555  0.1497
17307TIP3   OH273411   2.977   4.674  11.072  0.6271  0.2428  0.2571
17307TIP3    H173412   2.930   4.664  11.155 -0.8587  0.9774 -0.4594
17307TIP3    H273413   3.059   4.627  11.085  0.0711 -0.3417  1.8604
17308TIP3   OH273414   5.872   6.270   5.255 -0.0262 -0.2473  0.1691
17308TIP3    H173415   5.964   6.294   5.264 -0.0093 -0.6310  1.1693
17308TIP3    H273416   5.826   6.354   5.244  0.2999  0.0540  1.0345
17309TIP3   OH273417   5.676   5.507   3.582  0.6832  0.8790 -0.1513
17309TIP3    H173418   5.728   5.585   3.562  0.2481  0.6831 -2.4289
17309TIP3    H273419   5.615   5.500   3.508 -1.8478  0.4657  1.8252
17310TIP3   OH273420   0.571   5.886   4.786 -0.3007 -0.1064 -0.4028
17310TIP3    H173421   0.618   5.803   4.794 -1.3006 -0.6116  0.4946
17310TIP3    H273422   0.488   5.862   4.746 -0.0689  0.6730 -1.3628
17311TIP3   OH273423   1.541   0.135  13.609 -0.2441 -0.5471 -0.2110
17311TIP3    H173424   1.508   0.105  13.525 -1.2517  0.4520 -0.2023
17311TIP3    H273425   1.477   0.201  13.638  0.3316 -0.5298  1.1095
17312TIP3   OH273426   4.051   0.775  14.749  0.2328 -0.3616 -0.3729
17312TIP3    H173427   4.084   0.853  14.792 -1.5468  0.6999 -0.8221
17312TIP3    H273428   3.962   0.798  14.721 -1.2091 -3.1980  1.3189
17313TIP3   OH273429   1.734   1.464  10.887  0.3015  0.0282  0.2240
17313TIP3    H173430   1.765   1.387  10.839  0.5188  0.4335 -0.2900
17313TIP3    H273431   1.643   1.474  10.859 -0.2728 -1.0667  1.6122
17314TIP3   OH273432   4.791   3.958   2.199  0.7812 -0.1389 -0.0576
17314TIP3    H173433   4.705   3.969   2.159 -0.0592 -2.3867  0.9999
17314TIP3    H273434   4.818   4.047   2.223 -1.8125  0.5063  0.7245
17315TIP3   OH273435   0.227   0.568  16.628  0.0321 -0.0124  0.2562
17315TIP3    H173436   0.143   0.598  16.664 -0.0545 -0.3583  0.3413
17315TIP3    H273437   0.206   0.491  16.577  0.4561 -0.8279  1.2638
17316TIP3   OH273438   6.442   4.931  13.230 -0.5605 -0.5023 -0.9733
17316TIP3    H173439   6.471   4.860  13.287 -0.5990  0.3160  0.1178
17316TIP3    H273440   6.360   4.961  13.269 -1.2777 -0.7541 -2.2265
17317TIP3   OH273441   1.627   6.290   2.859 -0.1339  0.1869 -0.3672
17317TIP3    H173442   1.549   6.239   2.879 -1.3772  1.9730 -0.3816
17317TIP3    H273443   1.635   6.352   2.932  0.7717  0.5940 -0.7889
17318TIP3   OH273444   3.705   6.628   0.369  0.5568 -0.1146 -0.8470
17318TIP3    H173445   3.797   6.605   0.375  1.8418  4.1608 -0.8563
17318TIP3    H273446   3.698   6.681   0.289 -2.2869 -1.5435 -1.6876
17319TIP3   OH273447   2.698   0.277   3.283  0.2494  0.2842 -0.0080
17319TIP3    H173448   2.730   0.238   3.202  0.1324 -0.1235  0.1396
17319TIP3    H273449   2.714   0.210   3.350 -4.6205 -1.8293 -0.5068
17320TIP3   OH273450   0.792   5.826   5.396  0.5113  0.4268  0.1219
17320TIP3    H173451   0.713   5.825   5.450 -0.0301 -1.8565 -0.6124
17320TIP3    H273452   0.862   5.799   5.456  0.4733  0.9352  0.4019
17321TIP3   OH273453   5.605   6.612   2.027  0.1199 -0.4070  0.4959
17321TIP3    H173454   5.635   6.602   1.936 -3.4586 -0.2296 -0.9023
17321TIP3    H273455   5.562   6.528   2.046 -2.4292  0.7963  0.5147
17322TIP3   OH273456   1.493   1.546  12.317 -0.0920 -0.0744 -0.4503
17322TIP3    H173457   1.468   1.600  12.241  0.1445  2.0083  0.8589
17322TIP3    H273458   1.467   1.599  12.393  0.5027 -1.6924  0.9325
17323TIP3   OH273459   3.551   4.439   2.069  0.1875  0.4915 -0.1581
17323TIP3    H173460   3.509   4.525   2.076 -0.0326  0.2874  1.4111
17323TIP3    H273461   3.478   4.377   2.077  0.5166  0.1493  0.1901
17324TIP3   OH273462   1.662   6.399   3.110  0.1297  0.4221 -0.1059
17324TIP3    H173463   1.606   6.448   3.171  0.9826  2.2476 -0.7124
17324TIP3    H273464   1.731   6.461   3.086  1.0603 -0.9852 -1.2313
17325TIP3   OH273465   3.029   4.508  14.377  0.3152  0.3299  0.2231
17325TIP3    H173466   2.973   4.488  14.452 -1.7166  1.3562 -0.9184
17325TIP3    H273467   3.062   4.595  14.394  1.0689 -0.0243  0.6003
17326TIP3   OH273468   5.010   0.544  14.316 -0.1574 -0.2646 -0.2520
17326TIP3    H173469   5.044   0.546  14.226 -0.0566 -0.5872 -0.2258
17326TIP3    H273470   4.924   0.584  14.310  0.4910  1.1853 -0.1968
17327TIP3   OH273471   6.535   4.354  15.344  0.1088  0.9171 -0.0574
17327TIP3    H173472   6.454   4.314  15.311  1.2836 -1.9447  0.2374
17327TIP3    H273473   6.604   4.317  15.289  1.2621  3.4953 -0.4711
17328TIP3   OH273474   4.841   1.491   1.715 -0.4741 -0.0407 -0.5771
17328TIP3    H173475   4.804   1.413   1.757 -1.4389  1.7147  2.0792
17328TIP3    H273476   4.934   1.488   1.736 -0.4366 -0.6166 -0.7937
17329TIP3   OH273477   4.264   4.977  14.160  0.0030  0.2797  0.1549
17329TIP3    H173478   4.242   5.041  14.228 -1.2724 -2.0164  2.0613
17329TIP3    H273479   4.203   4.994  14.089 -2.8366 -0.9459  2.1165
17330TIP3   OH273480   5.520   4.601   4.778 -0.2556 -0.0457  0.0959
17330TIP3    H173481   5.517   4.619   4.872 -2.1511 -1.1941  0.3089
17330TIP3    H273482   5.499   4.508   4.771  0.5333 -0.1418 -1.4466
17331TIP3   OH273483   6.235   2.140  15.195  0.1755  0.0102 -0.0801
17331TIP3    H173484   6.292   2.091  15.254  0.0501  0.6747  0.6115
17331TIP3    H273485   6.154   2.089  15.192  0.0417  0.1595  0.6403
17332TIP3   OH273486   6.603   0.049   6.145  0.9289 -0.7952 -0.3920
17332TIP3    H173487   6.625   0.136   6.180 -1.1313 -0.9878  1.5295
17332TIP3    H273488   6.591   0.064   6.051  0.0791  1.1320 -0.0169
17333TIP3   OH273489   5.451   6.497  12.066 -0.5911  0.2684  0.3346
17333TIP3    H173490   5.527   6.535  12.021 -1.5685  2.3802  0.3645
17333TIP3    H273491   5.479   6.489  12.158 -0.0926  0.1314  0.1734
17334TIP3   OH273492   5.939   5.816  16.641  0.1170 -1.0228  0.5725
17334TIP3    H173493   5.882   5.892  16.653  0.1880 -0.3194 -2.6124
17334TIP3    H273494   5.916   5.783  16.554  2.5684 -2.4658  0.3910
17335TIP3   OH273495   6.667   6.563  16.270 -0.3468 -0.1757 -0.2813
17335TIP3    H173496   6.678   6.488  16.330 -0.5399 -0.0162 -0.0446
17335TIP3    H273497   6.726   6.630  16.305  1.2230 -0.8383 -1.5469
17336TIP3   OH273498   1.906   3.241  13.891  0.2129 -0.4463  0.3649
17336TIP3    H173499   1.943   3.275  13.972  0.2725 -1.2416  0.6826
17336TIP3    H273500   1.979   3.194  13.850  0.7490  1.5321 -1.1145
17337TIP3   OH273501   1.032   1.138   3.493 -0.2951  0.1835  0.1472
17337TIP3    H173502   0.997   1.172   3.576  2.5252 -0.1504  1.5919
17337TIP3    H273503   1.098   1.203   3.467  2.5334 -2.1620  0.9813
17338TIP3   OH273504   3.592   5.479   1.220 -0.1378  0.3198  0.1973
17338TIP3    H173505   3.676   5.525   1.219 -0.6171  1.2333 -1.9546
17338TIP3    H273506   3.613   5.390   1.194  0.1089  0.7171 -1.0334
17339TIP3   OH273507   3.611   5.294   2.834 -0.7290 -0.2357 -0.4278
17339TIP3    H173508   3.531   5.313   2.883 -0.6237 -0.1044 -0.3078
17339TIP3    H273509   3.581   5.249   2.755 -0.8245 -1.5113  0.2961
17340TIP3   OH273510   0.920   4.567  16.091 -0.5132  0.4894  0.2569
17340TIP3    H173511   0.882   4.650  16.064  0.5872  0.7879 -0.4151
17340TIP3    H273512   0.934   4.577  16.185 -0.5107  1.0216  0.2051
17341TIP3   OH273513   6.171   3.766   1.136  0.3954 -0.2816  0.1636
17341TIP3    H173514   6.174   3.737   1.227  0.9648 -1.4592 -0.2187
17341TIP3    H273515   6.217   3.698   1.087  1.9283  1.3373 -0.7546
17342TIP3   OH273516   0.363   2.351  13.077  0.0385 -0.5007  0.4199
17342TIP3    H173517   0.420   2.415  13.034  0.0801  0.0576  1.2846
17342TIP3    H273518   0.398   2.266  13.049 -1.7516 -0.2603 -3.0813
17343TIP3   OH273519   3.038   2.693   3.175 -0.4649 -0.7677 -0.5640
17343TIP3    H173520   2.991   2.668   3.254  0.0176 -0.8614 -0.3027
17343TIP3    H273521   3.125   2.655   3.185 -0.1566 -0.1448 -0.7894
17344TIP3   OH273522   2.332   4.183  11.725  0.0926  0.1986 -0.6789
17344TIP3    H173523   2.273   4.120  11.684  0.4948 -0.6386 -0.0036
17344TIP3    H273524   2.317   4.265  11.678 -3.5663  0.7735  1.1503
17345TIP3   OH273525   5.300   4.745  12.435 -0.1139 -0.2421 -0.4818
17345TIP3    H173526   5.294   4.658  12.474  0.4929  0.3507  0.9759
17345TIP3    H273527   5.392   4.756  12.413 -0.0997  0.2285 -0.2016
17346TIP3   OH273528   0.652   1.686  17.063  0.2169  0.3952  0.3046
17346TIP3    H173529   0.620   1.714  16.978 -0.8165  0.8186  0.8232
17346TIP3    H273530   0.729   1.742  17.079  0.3806  0.3530 -0.3111
17347TIP3   OH273531   2.459   0.637  15.532 -0.1988  0.6304  0.6405
17347TIP3    H173532   2.455   0.543  15.550 -0.3678  0.5173  0.0384
17347TIP3    H273533   2.380   0.672  15.573 -0.0560  0.5330  1.0006
17348TIP3   OH273534   2.645   0.166  16.027  0.8458 -0.1554  0.3933
17348TIP3    H173535   2.668   0.088  15.976  0.0874 -0.2722  0.2175
17348TIP3    H273536   2.728   0.194  16.066  1.0249 -1.3930  0.9484
17349TIP3   OH273537   5.705   6.281  16.672 -0.3589  0.1229 -0.0686
17349TIP3    H173538   5.718   6.214  16.739 -0.3692 -0.5369 -0.7181
17349TIP3    H273539   5.770   6.262  16.605 -2.5909 -1.4670 -1.9884
17350TIP3   OH273540   1.408   0.434   4.657  0.0318 -0.2532  0.0671
17350TIP3    H173541   1.407   0.499   4.587 -0.3073 -0.4032 -0.0696
17350TIP3    H273542   1.352   0.472   4.725  2.6966  1.2849  1.5448
17351TIP3   OH273543   0.821   0.281   4.217  0.2120  0.3744  0.4485
17351TIP3    H173544   0.872   0.267   4.296  1.4953  0.7302 -0.2757
17351TIP3    H273545   0.875   0.341   4.164 -0.2873 -0.3874 -0.9806
17352TIP3   OH273546   4.292   6.548   2.762 -0.1071 -0.4629  0.3321
17352TIP3    H173547   4.311   6.618   2.825 -0.1100  0.2326 -0.4154
17352TIP3    H273548   4.378   6.522   2.729 -0.2224  0.9783 -1.2484
17353TIP3   OH273549   3.252   4.935   1.601  1.0351  0.4949  0.0591
17353TIP3    H173550   3.193   4.871   1.640  0.8190 -0.3819 -1.6104
17353TIP3    H273551   3.339   4.908   1.628  0.9813 -0.7789 -0.9330
17354TIP3   OH273552   0.676   6.212  11.338  0.0279  0.1178 -0.2498
17354TIP3    H173553   0.703   6.192  11.248  1.2499  0.4870  0.0167
17354TIP3    H273554   0.617   6.288  11.329 -0.0809 -0.0229 -0.7601
17355TIP3   OH273555   3.120   3.941  15.606 -0.3219 -0.5607 -0.1954
17355TIP3    H173556   3.073   3.972  15.684  0.6110  0.6071 -0.0799
17355TIP3    H273557   3.178   3.873  15.639  1.4519  1.2127  0.5187
17356TIP3   OH273558   5.364   6.135   5.010 -0.0552  0.0568  0.5223
17356TIP3    H173559   5.443   6.114   5.060  0.3743  1.7086  0.5751
17356TIP3    H273560   5.293   6.128   5.073  0.3099  0.6890  1.0027
17357TIP3   OH273561   0.980   1.798  13.718  0.1962 -0.5130 -0.1582
17357TIP3    H173562   0.910   1.814  13.782 -0.2057 -0.3155 -0.6385
17357TIP3    H273563   0.953   1.719  13.671 -0.3107  0.2191 -1.1428
17358TIP3   OH273564   0.666   1.666   0.761  0.1094 -0.0505 -0.6164
17358TIP3    H173565   0.731   1.713   0.814 -1.0499 -0.0884  0.9088
17358TIP3    H273566   0.617   1.735   0.717 -0.2448  0.0907 -0.0124
17359TIP3   OH273567   5.939   5.199  17.178  0.4100 -0.3112 -0.0201
17359TIP3    H173568   6.005   5.167  17.117  1.0868 -2.9476  1.9320
17359TIP3    H273569   5.983   5.270  17.226  1.6707 -1.6145  0.8276
17360TIP3   OH273570   5.133   1.247  11.594  0.1016  0.2920  0.1133
17360TIP3    H173571   5.089   1.227  11.677 -0.9313  0.7095 -0.3147
17360TIP3    H273572   5.067   1.294  11.543  0.4355 -0.7341 -1.2972
17361TIP3   OH273573   4.647   4.199  14.722  0.0000  0.3373  0.4126
17361TIP3    H173574   4.697   4.248  14.787  0.4353  0.2172  0.1734
17361TIP3    H273575   4.563   4.245  14.715  0.5863  1.3395 -0.1770
17362TIP3   OH273576   3.073   6.667   3.794  0.4914 -0.3981  0.3067
17362TIP3    H173577   3.077   6.639   3.886  0.2427 -1.2125  0.0812
17362TIP3    H273578   3.044   6.758   3.798 -0.6202 -0.7560  1.0005
17363TIP3   OH273579   1.727   2.859  14.613 -0.4993 -0.2072  0.1188
17363TIP3    H173580   1.655   2.796  14.602  0.2674 -0.6996 -2.8559
17363TIP3    H273581   1.798   2.807  14.650 -0.3326 -0.7817 -0.9709
17364TIP3   OH273582   5.906   0.032  16.237  0.4570  0.9700  0.3319
17364TIP3    H173583   5.919   0.073  16.151  1.7856 -1.1238 -0.5497
17364TIP3    H273584   5.884  -0.059  16.216 -1.6007  0.9720  2.2100
17365TIP3   OH273585   4.918   3.409   2.642  0.0027 -0.2917  0.2928
17365TIP3    H173586   4.949   3.482   2.588 -0.6501 -0.7137 -0.6713
17365TIP3    H273587   4.930   3.332   2.587 -0.2755 -0.7855  0.9201
17366TIP3   OH273588   0.174   5.017  11.265  0.4048 -0.0361  0.1886
17366TIP3    H173589   0.158   4.971  11.183  0.4578 -2.7625  1.6011
17366TIP3    H273590   0.127   4.966  11.331 -0.5200  2.6538  1.7652
17367TIP3   OH273591   4.047   3.112  13.007 -0.1655  0.1582  0.3699
17367TIP3    H173592   4.002   3.186  12.968  1.5377  2.0695  1.8008
17367TIP3    H273593   4.103   3.151  13.074  0.3772 -2.4979  1.5888
17368TIP3   OH273594   3.537   0.366   0.644  0.2560 -0.0466  0.4444
17368TIP3    H173595   3.579   0.394   0.563 -1.0685 -0.2104 -0.3361
17368TIP3    H273596   3.593   0.296   0.677  0.2185 -0.7940 -0.9809
17369TIP3   OH273597   1.415   3.108   2.029  0.2480 -0.0246 -0.0611
17369TIP3    H173598   1.423   3.202   2.012 -0.8880  0.3790  1.4953
17369TIP3    H273599   1.441   3.067   1.946  2.8305  1.5583 -0.1546
17370TIP3   OH273600   0.928   4.583   3.695  0.3651  0.3929  0.6309
17370TIP3    H173601   1.021   4.599   3.679  0.3243 -0.6937 -0.7476
17370TIP3    H273602   0.915   4.611   3.786  2.5587 -1.6415  1.6644
17371TIP3   OH273603   1.185   1.781  14.118  0.1874 -0.9015 -0.4704
17371TIP3    H173604   1.250   1.813  14.181 -0.2138  1.3383 -1.1190
17371TIP3    H273605   1.206   1.828  14.037 -3.5712  1.7973 -0.1338
17372TIP3   OH273606   3.865   5.571  15.862  0.1886  0.2418  0.1044
17372TIP3    H173607   3.891   5.603  15.776 -0.7987 -2.5854 -1.3816
17372TIP3    H273608   3.774   5.598  15.872  0.0873 -0.0323 -0.0681
17373TIP3   OH273609   1.335   2.356  11.286 -0.5037  0.6587 -0.1333
17373TIP3    H173610   1.392   2.319  11.218  0.7646  0.9086  0.7561
17373TIP3    H273611   1.384   2.430  11.321 -2.2384  2.1016 -0.6448
17374TIP3   OH273612   6.646   5.333   0.640  0.5693 -0.1480  0.0937
17374TIP3    H173613   6.619   5.316   0.549  0.4944 -0.0894  0.1046
17374TIP3    H273614   6.739   5.358   0.633  0.3043  0.8299 -0.0804
17375TIP3   OH273615   4.922   5.406   0.426  0.1305 -0.5852  0.8946
17375TIP3    H173616   4.871   5.393   0.346 -0.8964 -0.2834  1.4777
17375TIP3    H273617   4.995   5.345   0.419  1.4038  1.0680 -1.3596
17376TIP3   OH273618   3.777   3.610   2.739 -0.5122 -0.3272 -0.1849
17376TIP3    H173619   3.685   3.585   2.742 -0.3419 -0.9275 -0.0124
17376TIP3    H273620   3.822   3.534   2.703 -0.1581  0.1847 -0.8671
17377TIP3   OH273621   5.898   3.906   4.908 -0.1194 -0.0042  0.1791
17377TIP3    H173622   5.906   4.001   4.919 -0.5845  0.2693 -1.5557
17377TIP3    H273623   5.923   3.890   4.817  2.6029 -1.9184  1.1130
17378TIP3   OH273624   1.929   3.421  16.650 -0.1747 -0.5833  0.0362
17378TIP3    H173625   1.940   3.484  16.720  1.4958 -1.5586  0.7111
17378TIP3    H273626   1.834   3.410  16.642 -0.4100 -0.2942  2.0022
17379TIP3   OH273627   1.195   3.238  15.133 -0.4003 -0.5074 -0.0849
17379TIP3    H173628   1.153   3.181  15.197 -0.4517  0.8957  1.1852
17379TIP3    H273629   1.286   3.210  15.131 -0.4364 -0.6606  0.4900
17380TIP3   OH273630   6.743   2.036  14.720 -0.1850 -0.3251 -0.1490
17380TIP3    H173631   6.696   2.093  14.781  0.1183 -0.5579  0.3038
17380TIP3    H273632   6.734   1.949  14.757 -1.8281 -0.7951 -1.5556
17381TIP3   OH273633   2.474   0.543   4.637 -0.2015  0.3096  0.4450
17381TIP3    H173634   2.381   0.541   4.659 -0.5684 -0.2171 -1.0600
17381TIP3    H273635   2.511   0.465   4.679 -1.0319 -1.0840 -1.2767
17382TIP3   OH273636   4.274   5.268  13.766  0.0316 -0.2098 -0.2119
17382TIP3    H173637   4.303   5.353  13.734  0.2392  0.1075  0.7752
17382TIP3    H273638   4.192   5.251  13.720  0.3942  0.1490 -1.0033
17383TIP3   OH273639   0.943   2.160  14.889  0.1496 -0.1841 -0.7664
17383TIP3    H173640   0.883   2.123  14.824  0.9352 -1.4958 -0.7985
17383TIP3    H273641   0.971   2.243  14.851 -0.6294 -0.1765 -1.3535
17384TIP3   OH273642   2.129   2.398   5.662 -0.5536  0.4019  0.2762
17384TIP3    H173643   2.131   2.345   5.742  0.2117  1.3921  0.9364
17384TIP3    H273644   2.052   2.454   5.672  0.1620  1.3016  0.8507
17385TIP3   OH273645   3.145   4.975  16.115 -0.2505  0.2468  0.0123
17385TIP3    H173646   3.096   5.052  16.087 -0.3181  0.5731  1.0209
17385TIP3    H273647   3.224   5.010  16.156  1.2922 -0.2683 -2.3117
17386TIP3   OH273648   3.213   3.440   3.315  0.2265  0.4058 -0.1012
17386TIP3    H173649   3.243   3.464   3.403 -0.2416 -1.7467  0.7151
17386TIP3    H273650   3.282   3.470   3.257  1.1853  0.6943  1.1418
17387TIP3   OH273651   2.144   6.051   4.784  0.4947 -0.5449  0.5557
17387TIP3    H173652   2.209   6.112   4.819  2.0474 -1.7971 -0.0011
17387TIP3    H273653   2.061   6.099   4.789  1.6461  1.6670 -0.0171
17388TIP3   OH273654   3.035   1.840  14.980 -0.1031  0.2036  0.4110
17388TIP3    H173655   2.958   1.869  15.027  0.0982  0.0007  0.8788
17388TIP3    H273656   3.018   1.862  14.888 -0.8804 -0.1899  0.4519
17389TIP3   OH273657   2.842   3.950   4.170  0.3623  0.2548  0.3093
17389TIP3    H173658   2.759   3.933   4.214 -0.6888  2.7268 -0.5165
17389TIP3    H273659   2.845   3.885   4.099  0.7155 -1.8839  2.1677
17390TIP3   OH273660   3.510   0.356  14.182  0.4945 -0.1791  0.5572
17390TIP3    H173661   3.436   0.297  14.176  0.1969  0.1103  1.2592
17390TIP3    H273662   3.586   0.299  14.196  0.2237 -0.4096  1.1237
17391TIP3   OH273663   6.771   4.759  14.227  0.3251 -0.2790 -0.3432
17391TIP3    H173664   6.787   4.733  14.136 -2.7578 -2.0546 -0.5384
17391TIP3    H273665   6.842   4.718  14.277  0.5431 -1.6038 -1.6767
17392TIP3   OH273666   1.028   0.355   6.248 -0.3705  0.7215 -0.2802
17392TIP3    H173667   1.104   0.341   6.304 -0.2668  0.0321 -0.5902
17392TIP3    H273668   0.953   0.351   6.307 -0.2783 -0.2184 -0.2102
17393TIP3   OH273669   0.961   3.387   2.342  0.7008  0.1653 -0.7892
17393TIP3    H173670   0.943   3.414   2.432 -1.6769  0.8885 -1.3951
17393TIP3    H273671   0.991   3.467   2.299  0.5998  0.1215 -0.9403
17394TIP3   OH273672   0.098   5.009  12.940  0.0468  0.4807  0.0770
17394TIP3    H173673   0.112   4.939  13.003 -0.2356  0.4707  0.1325
17394TIP3    H273674   0.179   5.014  12.890  0.7417  1.3074  1.2331
17395TIP3   OH273675   3.497   4.448  12.706  0.1927  0.2172 -0.0696
17395TIP3    H173676   3.428   4.511  12.726  0.5738  0.6164  0.0168
17395TIP3    H273677   3.504   4.395  12.786  1.2185  1.3497  0.6316
17396TIP3   OH273678   4.049   2.310  11.271  0.2705  0.7001  0.6399
17396TIP3    H173679   4.127   2.358  11.246  1.0442 -0.6558  0.3594
17396TIP3    H273680   4.060   2.292  11.365  1.2287 -1.0712  0.2354
17397TIP3   OH273681   6.160   0.666  15.276  0.0881  0.2696  0.3045
17397TIP3    H173682   6.069   0.671  15.245 -0.4784 -1.4488  1.5669
17397TIP3    H273683   6.156   0.694  15.367  1.0943  1.5240 -0.0023
17398TIP3   OH273684   3.289   3.017   6.475 -0.6479 -0.4573  0.1692
17398TIP3    H173685   3.282   3.067   6.556 -0.7106 -0.1213 -0.0407
17398TIP3    H273686   3.380   3.025   6.449 -0.3544 -1.5363  0.8155
17399TIP3   OH273687   2.369   2.398  17.147  0.1583 -0.3917  0.2803
17399TIP3    H173688   2.464   2.402  17.138  0.0076  0.3367 -1.5860
17399TIP3    H273689   2.349   2.457  17.220  1.0908 -0.0112  0.2451
17400TIP3   OH273690   6.310   4.103   5.378  0.5708  0.1311  0.2037
17400TIP3    H173691   6.402   4.080   5.389  0.0576 -2.6785 -0.4825
17400TIP3    H273692   6.274   4.102   5.467  0.6893 -1.5467  0.2628
17401TIP3   OH273693   6.161   3.787   0.109 -0.0928 -0.5663  0.2311
17401TIP3    H173694   6.081   3.736   0.119 -0.2271 -1.2877 -3.4265
17401TIP3    H273695   6.223   3.728   0.065  0.9095  1.3365 -1.0598
17402TIP3   OH273696   4.242   2.165  11.031 -0.2631  0.0440 -0.0374
17402TIP3    H173697   4.163   2.111  11.031 -0.4024  0.0545 -3.2361
17402TIP3    H273698   4.313   2.105  11.008  0.5041  0.2882  1.5291
17403TIP3   OH273699   4.724   2.060   3.166  0.1119  0.1649  0.1940
17403TIP3    H173700   4.658   2.121   3.199  0.2910 -0.2089  1.2816
17403TIP3    H273701   4.676   2.004   3.105 -0.6062 -0.1152  0.9851
17404TIP3   OH273702   2.930   5.703   3.567 -0.7919 -0.0574  0.1721
17404TIP3    H173703   2.967   5.616   3.552  0.9403  0.4412  1.2823
17404TIP3    H273704   2.878   5.693   3.647 -0.4918 -0.0592  0.3697
17405TIP3   OH273705   0.169   2.736  14.130 -0.6076  0.4132  0.0601
17405TIP3    H173706   0.264   2.748  14.138 -0.8930  1.4093  3.5909
17405TIP3    H273707   0.141   2.806  14.071  0.6730  1.1076  0.2381
17406TIP3   OH273708   4.477   2.164  12.428  0.4479  0.9536  0.1446
17406TIP3    H173709   4.430   2.098  12.478  2.3619 -1.4117 -0.9906
17406TIP3    H273710   4.415   2.238  12.422 -1.4477 -0.3446  2.1900
17407TIP3   OH273711   0.514   1.962  17.420  0.1420 -0.3534  0.6082
17407TIP3    H173712   0.441   2.016  17.390  0.1774 -1.4853 -1.7254
17407TIP3    H273713   0.484   1.872  17.409  1.2084 -0.8444  1.4474
17408TIP3   OH273714   3.643   1.100  15.474  0.4479 -0.0346 -0.1860
17408TIP3    H173715   3.606   1.120  15.560  0.3219  1.7194 -0.6253
17408TIP3    H273716   3.663   1.185  15.435  2.3945 -0.8542 -1.0908
17409TIP3   OH273717   3.483   0.423   5.509  0.0853 -0.5042  0.0152
17409TIP3    H173718   3.441   0.444   5.425 -0.2524 -0.6661  0.1440
17409TIP3    H273719   3.413   0.388   5.563  0.7759 -2.8034 -0.4737
17410TIP3   OH273720   1.866   6.031  16.295  0.0870  0.1795  0.6313
17410TIP3    H173721   1.780   5.992  16.312 -0.4453  1.9305  2.3255
17410TIP3    H273722   1.870   6.041  16.200 -1.8289  0.5638  0.5601
17411TIP3   OH273723   0.615   0.893   5.570  0.2091 -0.0300 -0.1419
17411TIP3    H173724   0.588   0.808   5.605  1.8628 -0.4123  0.2900
17411TIP3    H273725   0.629   0.948   5.647 -1.1565  0.7755 -0.4252
17412TIP3   OH273726   2.791   1.650   3.823  0.1780 -0.5928  0.1095
17412TIP3    H173727   2.856   1.690   3.882  0.1522  0.4171 -0.5250
17412TIP3    H273728   2.785   1.711   3.750 -0.7001 -1.2266 -0.3574
17413TIP3   OH273729   0.284   5.108  11.720  0.4835  0.3057 -0.1552
17413TIP3    H173730   0.336   5.159  11.659  1.2057 -0.3189 -0.0698
17413TIP3    H273731   0.324   5.126  11.806 -0.6190  1.3051  0.1788
17414TIP3   OH273732   4.130   2.360   4.899 -0.0721  0.0717  0.0221
17414TIP3    H173733   4.054   2.398   4.943  1.0179 -0.4470  2.5731
17414TIP3    H273734   4.194   2.431   4.896  0.1675 -0.1405  0.0837
17415TIP3   OH273735   2.474   2.320  14.062 -0.0092  0.3433  0.1116
17415TIP3    H173736   2.475   2.298  14.155  1.1678  1.1548  0.3055
17415TIP3    H273737   2.519   2.247  14.020 -1.4526 -0.5393  0.0293
17416TIP3   OH273738   4.557   1.520  13.161 -0.0232 -0.2046  0.0840
17416TIP3    H173739   4.526   1.434  13.188  3.1564 -1.1760  1.0819
17416TIP3    H273740   4.589   1.507  13.071  0.3993 -0.0599  0.2104
17417TIP3   OH273741   2.100   1.430  16.331  0.6221  0.0837  0.8022
17417TIP3    H173742   2.179   1.400  16.286 -0.0795 -0.3372 -0.2114
17417TIP3    H273743   2.108   1.397  16.420  1.1532 -0.7778  0.4459
17418TIP3   OH273744   5.417   0.659   2.463 -0.7058 -0.1604 -0.3855
17418TIP3    H173745   5.483   0.590   2.466 -2.0398 -1.5746 -1.2945
17418TIP3    H273746   5.379   0.660   2.551 -0.0917  0.0272 -0.1201
17419TIP3   OH273747   0.165   5.613   0.964 -0.1805 -0.5758  0.8837
17419TIP3    H173748   0.208   5.583   1.044 -2.3298 -0.8669  1.9931
17419TIP3    H273749   0.094   5.551   0.949 -0.3753 -0.0246 -0.7834
17420TIP3   OH273750   1.948   3.426   4.608 -0.2317 -0.0736  0.8957
17420TIP3    H173751   1.874   3.365   4.601  0.4251 -0.7369 -1.5514
17420TIP3    H273752   1.992   3.419   4.523  0.9098  2.5436  1.1793
17421TIP3   OH273753   6.678   5.930  11.661  0.3571 -0.3462  0.0723
17421TIP3    H173754   6.699   5.845  11.700 -0.2571 -0.0433  1.1108
17421TIP3    H273755   6.617   5.910  11.590  0.4745 -0.8005  0.0968
17422TIP3   OH273756   1.462   6.663  14.341 -0.1505  0.0923 -0.5489
17422TIP3    H173757   1.508   6.726  14.396  0.3221 -1.1526  0.5378
17422TIP3    H273758   1.371   6.692  14.342  0.1712  1.1455 -0.6573
17423TIP3   OH273759   2.318   5.027   1.094 -0.3662  0.3947 -0.0402
17423TIP3    H173760   2.282   5.074   1.019 -0.3189  0.4806 -0.0088
17423TIP3    H273761   2.255   5.042   1.165 -0.7718 -0.2627 -0.2515
17424TIP3   OH273762   3.359   1.063   3.681 -0.1434 -0.1669  0.0077
17424TIP3    H173763   3.451   1.040   3.693  0.1424  1.2409  0.6496
17424TIP3    H273764   3.325   0.995   3.623  0.6854 -2.1214  1.6929
17425TIP3   OH273765   1.487   1.475   4.698  0.1210  0.1731  0.3101
17425TIP3    H173766   1.425   1.548   4.694  0.0557  0.0708 -0.7960
17425TIP3    H273767   1.525   1.481   4.786 -1.8619 -0.1145  1.2459
17426TIP3   OH273768   2.942   5.969  13.558 -0.1602  0.2392 -0.0045
17426TIP3    H173769   2.902   5.883  13.564 -0.1513  0.2685  0.5135
17426TIP3    H273770   2.895   6.022  13.623 -1.0250  0.9663 -1.1759
17427TIP3   OH273771   6.317   4.184   3.803 -0.0989 -0.2213  0.0652
17427TIP3    H173772   6.237   4.136   3.821 -1.3807  2.1255  1.1503
17427TIP3    H273773   6.384   4.138   3.854 -0.9304 -1.6462 -0.0710
17428TIP3   OH273774   0.511   0.409   1.436 -0.0547  0.1322  0.0880
17428TIP3    H173775   0.540   0.353   1.508  1.8083 -0.3251 -0.9466
17428TIP3    H273776   0.553   0.493   1.454 -0.9176  0.5175  0.3723
17429TIP3   OH273777   5.092   2.731   2.845 -0.5126 -0.4269 -0.2382
17429TIP3    H173778   5.054   2.817   2.858 -1.1955 -0.6041 -0.9798
17429TIP3    H273779   5.110   2.699   2.933  1.5642  1.2372  0.0111
17430TIP3   OH273780   4.682   4.583   2.450 -0.7804 -0.6430  0.5784
17430TIP3    H173781   4.673   4.623   2.536  1.5090  2.6826 -0.5502
17430TIP3    H273782   4.730   4.501   2.467 -2.8446 -1.5448  2.6538
17431TIP3   OH273783   2.832   3.191   3.217 -0.3227  0.6934  0.2355
17431TIP3    H173784   2.841   3.111   3.268 -0.1824  0.5448 -0.0190
17431TIP3    H273785   2.776   3.166   3.143  0.1395  0.6978 -0.1196
17432TIP3   OH273786   6.720   1.400   2.519  0.4899 -0.0514 -0.3733
17432TIP3    H173787   6.730   1.482   2.568  1.1687 -0.3649  0.0268
17432TIP3    H273788   6.682   1.427   2.436  1.7455  0.8333 -0.6964
17433TIP3   OH273789   0.259   4.792  12.292  0.0591 -0.4893 -0.2251
17433TIP3    H173790   0.255   4.763  12.383 -1.0045 -0.2369 -0.1753
17433TIP3    H273791   0.179   4.844  12.280 -0.1857 -1.1219 -1.5048
17434TIP3   OH273792   0.815   6.263   2.764 -0.1351 -0.4920  0.2980
17434TIP3    H173793   0.803   6.254   2.858  0.5913  1.7652  0.6683
17434TIP3    H273794   0.894   6.318   2.755 -0.8397  0.3042 -1.5634
17435TIP3   OH273795   3.375   5.341   2.935 -0.0743 -0.3084  0.3584
17435TIP3    H173796   3.292   5.385   2.956 -0.5080 -1.4387  1.1203
17435TIP3    H273797   3.395   5.290   3.012  0.8141 -0.8634 -0.2217
17436TIP3   OH273798   4.994   3.829   4.921  0.5503 -0.1197 -0.2264
17436TIP3    H173799   5.046   3.827   5.002 -0.1470 -1.6859  0.2182
17436TIP3    H273800   4.978   3.922   4.905  1.8264  0.2950  0.6896
17437TIP3   OH273801   2.940   3.881   2.680 -0.3216 -0.1390 -0.2427
17437TIP3    H173802   2.979   3.824   2.614  1.0367  0.1523  0.2637
17437TIP3    H273803   2.971   3.846   2.764 -1.7959 -0.3460  0.2401
17438TIP3   OH273804   4.898   2.270   2.444 -0.4973 -0.7151 -0.0680
17438TIP3    H173805   4.889   2.365   2.452  2.2475 -0.4319  1.1187
17438TIP3    H273806   4.915   2.255   2.351 -0.8255 -0.0370 -0.2422
17439TIP3   OH273807   0.880   5.866   3.715 -0.5822 -0.2586  0.2112
17439TIP3    H173808   0.931   5.850   3.636 -2.1156 -0.0306 -0.8774
17439TIP3    H273809   0.903   5.793   3.773  0.0266 -0.8454 -0.7284
17440TIP3   OH273810   1.102   6.230  17.345  0.3667  0.2721  0.9395
17440TIP3    H173811   1.104   6.211  17.439  0.6925  2.2721  1.3809
17440TIP3    H273812   1.166   6.170  17.307  0.4918 -0.3215  2.0359
17441TIP3   OH273813   0.979   5.760   1.372  0.2940  0.0054  0.2477
17441TIP3    H173814   0.966   5.813   1.451 -2.1407 -0.7047  0.4128
17441TIP3    H273815   1.063   5.789   1.337  0.2293  2.1599  1.6960
17442TIP3   OH273816   4.760   1.064   5.313  0.6901 -0.0067  0.0503
17442TIP3    H173817   4.755   1.152   5.276 -1.1279 -0.9251 -2.0631
17442TIP3    H273818   4.734   1.076   5.405  0.4829  1.6540 -0.1869
17443TIP3   OH273819   2.326   1.260  16.231  0.0384  0.0225  0.1167
17443TIP3    H173820   2.368   1.324  16.174  1.6947  0.5449  1.7976
17443TIP3    H273821   2.356   1.175  16.199  0.3920  0.2724 -0.2178
17444TIP3   OH273822   0.631   2.254   0.644  0.0137 -0.3854 -0.2276
17444TIP3    H173823   0.549   2.261   0.595  0.1668  0.1462 -0.4164
17444TIP3    H273824   0.620   2.311   0.719 -1.2578 -3.2030  1.9147
17445TIP3   OH273825   2.207   4.663   4.990 -0.2367  0.2513 -0.4222
17445TIP3    H173826   2.266   4.592   5.016  0.8311  1.2110 -0.1349
17445TIP3    H273827   2.243   4.695   4.907 -1.0132  0.1285 -0.8146
17446TIP3   OH273828   4.928   0.120   2.021 -0.4499 -0.0016  0.1200
17446TIP3    H173829   4.869   0.105   2.096 -1.0439  0.4954 -0.2441
17446TIP3    H273830   4.998   0.056   2.034 -1.0760 -0.6232  0.5520
17447TIP3   OH273831   6.160   4.117  15.317  0.0218  0.2187 -0.0731
17447TIP3    H173832   6.194   4.069  15.392 -1.9024 -1.3806 -0.1499
17447TIP3    H273833   6.155   4.208  15.347  0.5440 -0.1709  1.2552
17448TIP3   OH273834   5.714   6.157   3.103 -0.3477 -0.2351  0.0018
17448TIP3    H173835   5.631   6.159   3.151 -0.3410 -0.7970  0.0361
17448TIP3    H273836   5.776   6.117   3.164  0.1402  0.8645  0.2637
17449TIP3   OH273837   1.127   6.154   5.511  0.5303 -0.0178 -0.0515
17449TIP3    H173838   1.074   6.084   5.549  0.1890  0.5190  0.4803
17449TIP3    H273839   1.203   6.160   5.569 -0.3963  1.3669  1.0670
17450TIP3   OH273840   5.936   0.471   3.528  0.6002  0.3321 -0.0762
17450TIP3    H173841   5.904   0.412   3.459 -0.1732  0.2645  0.3304
17450TIP3    H273842   6.014   0.428   3.562  0.1018 -0.4109  0.1455
17451TIP3   OH273843   2.167   4.594   0.877  0.2681  0.4643  0.0109
17451TIP3    H173844   2.232   4.663   0.864  0.9442  0.5063  2.8629
17451TIP3    H273845   2.138   4.606   0.968  0.5816 -3.0884  0.7074
17452TIP3   OH273846   3.785   2.589   4.270 -0.1348  0.0034  0.6734
17452TIP3    H173847   3.783   2.600   4.365  1.0212 -0.4754  0.7716
17452TIP3    H273848   3.797   2.677   4.235  0.2318  0.0893  1.0131
17453TIP3   OH273849   2.636   4.437  12.338 -0.1513 -0.1700 -0.3831
17453TIP3    H173850   2.641   4.481  12.422 -1.3792  0.3700 -0.5755
17453TIP3    H273851   2.568   4.371  12.349  0.8207 -1.2187 -0.4726
17454TIP3   OH273852   2.644   2.981   0.253  0.5610 -0.1000  0.5642
17454TIP3    H173853   2.598   2.900   0.228 -0.3487 -0.1148  2.1624
17454TIP3    H273854   2.711   2.951   0.315  0.3823  0.3379  0.9699
17455TIP3   OH273855   5.502   6.253   5.407  0.4185  0.3557  0.1880
17455TIP3    H173856   5.449   6.306   5.347  0.8796 -1.5815 -2.0730
17455TIP3    H273857   5.439   6.219   5.470 -0.5400  0.4424 -0.6962
17456TIP3   OH273858   1.361   5.408   3.344 -0.1798 -0.2510  0.3148
17456TIP3    H173859   1.401   5.414   3.257 -1.8912 -0.2017 -0.5118
17456TIP3    H273860   1.268   5.426   3.329 -0.4610  0.1101  2.2154
17457TIP3   OH273861   4.094   2.118  14.239  0.1336  0.1718  0.3343
17457TIP3    H173862   4.051   2.168  14.169 -0.8073 -0.2970  0.5590
17457TIP3    H273863   4.122   2.037  14.196 -0.7040 -0.2445  0.5425
17458TIP3   OH273864   1.725   1.599   3.964  0.6773  0.0988  0.4089
17458TIP3    H173865   1.692   1.649   4.039  1.4544 -0.1389  0.9205
17458TIP3    H273866   1.657   1.533   3.949  0.3601  0.3532  0.6913
17459TIP3   OH273867   1.832   2.247  12.429 -0.3085  0.1825 -0.0808
17459TIP3    H173868   1.921   2.268  12.459 -0.4378  1.1653 -0.3474
17459TIP3    H273869   1.775   2.303  12.481 -0.8164 -0.7138  0.3524
17460TIP3   OH273870   6.341   2.477   0.343 -0.3805  0.2701 -0.1187
17460TIP3    H173871   6.282   2.551   0.333 -0.3063  0.1504 -1.7355
17460TIP3    H273872   6.424   2.517   0.370 -0.5522  0.7072 -0.2207
17461TIP3   OH273873   5.276   2.147   5.391  0.0058 -0.2860 -0.2205
17461TIP3    H173874   5.257   2.154   5.297  0.2765  0.8567 -0.2056
17461TIP3    H273875   5.191   2.126   5.431 -0.2182 -0.2424 -0.6657
17462TIP3   OH273876   1.686   4.610   3.695 -0.1284 -0.4288 -0.1008
17462TIP3    H173877   1.700   4.636   3.786  0.3405 -1.1113  0.0292
17462TIP3    H273878   1.718   4.684   3.644 -0.1033 -0.1678  0.2872
17463TIP3   OH273879   0.183   0.888  10.877  0.3797  0.4628 -0.3398
17463TIP3    H173880   0.271   0.863  10.848  0.1404  0.0717 -0.7376
17463TIP3    H273881   0.195   0.975  10.915  1.0260  0.2125  0.0504
17464TIP3   OH273882   6.360   1.484  12.676 -0.0097  0.0214 -0.3013
17464TIP3    H173883   6.365   1.410  12.615  0.3154 -1.1103  1.0304
17464TIP3    H273884   6.440   1.477  12.728 -0.2382  1.0067  0.2015
17465TIP3   OH273885   0.475   1.068   1.117 -0.3759  0.1677 -0.1476
17465TIP3    H173886   0.424   1.147   1.133 -0.3810  0.1834 -0.2462
17465TIP3    H273887   0.410   0.999   1.104 -0.3716  0.1428 -0.0449
17466TIP3   OH273888   6.205   3.180  15.964  0.2774 -0.3072 -0.1417
17466TIP3    H173889   6.290   3.220  15.947 -0.3649  0.8168 -0.8103
17466TIP3    H273890   6.198   3.178  16.060  0.9999 -0.3294 -0.0814
17467TIP3   OH273891   6.327   6.092   0.682 -0.2381 -0.4335  0.3318
17467TIP3    H173892   6.391   6.155   0.650 -0.9192  1.5783  2.5879
17467TIP3    H273893   6.252   6.103   0.624  0.9077 -1.9490 -1.5802
17468TIP3   OH273894   4.251   4.016  17.007  0.1789 -0.3118 -0.5117
17468TIP3    H173895   4.164   4.047  16.981  0.7249  1.5005 -0.3491
17468TIP3    H273896   4.244   3.921  17.008 -1.9131 -0.1974 -0.1230
17469TIP3   OH273897   2.061   2.996   1.083 -0.0632 -0.0993  0.3751
17469TIP3    H173898   2.086   2.913   1.042  0.4066  0.2486 -0.0494
17469TIP3    H273899   2.144   3.038   1.106 -0.2534  0.8331 -0.5836
17470TIP3   OH273900   1.268   2.030  16.299  0.3123  0.2705  0.4322
17470TIP3    H173901   1.211   1.964  16.259 -1.6542 -0.3058  3.8624
17470TIP3    H273902   1.265   2.104  16.238 -0.4029 -1.3810 -1.6784
17471TIP3   OH273903   1.459   1.243   0.147  0.1136 -0.4748  0.0700
17471TIP3    H173904   1.488   1.213   0.061 -1.8934 -0.6054 -0.6041
17471TIP3    H273905   1.509   1.322   0.164  0.6925 -0.5774 -1.1139
17472TIP3   OH273906   4.046   6.532   3.214 -0.0548 -0.7228  0.3822
17472TIP3    H173907   4.089   6.503   3.133  0.2748 -0.8536  0.6040
17472TIP3    H273908   3.979   6.594   3.184 -1.2566 -2.2263 -0.1763
17473TIP3   OH273909   1.950   1.968   5.456 -0.3765  0.4295  0.0412
17473TIP3    H173910   2.027   1.915   5.478  0.0611  0.9817 -0.1217
17473TIP3    H273911   1.934   2.020   5.534 -0.8114  0.0636  0.2030
17474TIP3   OH273912   4.668   0.218  15.415 -0.1408  0.5610  0.1995
17474TIP3    H173913   4.625   0.137  15.387  1.1425 -0.0266 -0.1337
17474TIP3    H273914   4.741   0.229  15.354 -1.8403  3.5074 -1.6077
17475TIP3   OH273915   5.618   1.791  15.811  0.4343  0.2632  0.0644
17475TIP3    H173916   5.672   1.724  15.852  0.4467 -1.2079 -2.1545
17475TIP3    H273917   5.676   1.835  15.749  0.2262  1.8725  0.9529
17476TIP3   OH273918   6.433   1.901   0.502  0.4121 -0.5905 -0.4437
17476TIP3    H173919   6.356   1.848   0.483 -1.3328  1.7302 -0.2994
17476TIP3    H273920   6.481   1.905   0.419 -1.5169  0.7288 -1.5891
17477TIP3   OH273921   5.653   0.872  10.837  0.1745  0.1195 -0.0619
17477TIP3    H173922   5.681   0.963  10.826 -0.9867  0.3843 -1.1216
17477TIP3    H273923   5.570   0.878  10.884  0.0607 -0.3813 -0.1953
17478TIP3   OH273924   1.765   2.427  13.171  0.0537 -0.1226  0.4304
17478TIP3    H173925   1.756   2.334  13.192 -1.8487 -0.1185 -0.1605
17478TIP3    H273926   1.797   2.428  13.081 -2.9736 -0.3277 -0.7669
17479TIP3   OH273927   1.393   0.040  13.410  0.1665  0.4199 -0.7991
17479TIP3    H173928   1.398  -0.024  13.339  0.9660 -0.5159  0.0623
17479TIP3    H273929   1.347   0.115  13.372 -1.9933 -1.1580 -1.4925
17480TIP3   OH273930   6.117   5.451  13.912  0.6532 -0.0217 -0.8757
17480TIP3    H173931   6.042   5.498  13.947  1.0587  0.6535 -0.8940
17480TIP3    H273932   6.145   5.393  13.983 -0.4731 -1.0127 -1.2013
17481TIP3   OH273933   3.452   4.386   1.784 -0.2134  0.4378 -0.4413
17481TIP3    H173934   3.385   4.339   1.733 -0.6844 -0.1971  0.7165
17481TIP3    H273935   3.472   4.327   1.857  0.8264  1.1001 -0.1727
17482TIP3   OH273936   0.007   4.611   5.830 -0.5188  0.0835  0.3394
17482TIP3    H173937  -0.034   4.545   5.773 -1.1713  1.3916 -0.7472
17482TIP3    H273938   0.039   4.560   5.905 -0.4026 -1.5743 -0.7684
17483TIP3   OH273939   4.365   2.269  12.696  0.0905 -0.6885  0.2750
17483TIP3    H173940   4.331   2.278  12.607  1.9044 -0.0487 -0.3900
17483TIP3    H273941   4.286   2.259  12.750 -1.2058  1.1534 -1.1221
17484TIP3   OH273942   2.462   2.683   4.172 -0.8652 -0.1056  0.0213
17484TIP3    H173943   2.446   2.762   4.120 -0.4253 -0.3030 -0.4256
17484TIP3    H273944   2.553   2.660   4.153 -1.3025 -1.3364 -0.7237
17485TIP3   OH273945   3.120   6.579   6.794  0.1539  0.4953 -0.0433
17485TIP3    H173946   3.058   6.559   6.724 -0.4234 -0.2138  0.6548
17485TIP3    H273947   3.102   6.671   6.816 -0.4829  0.3719 -0.0220
17486TIP3   OH273948   1.862   0.069   2.849 -0.0956 -0.2637 -0.1793
17486TIP3    H173949   1.853   0.128   2.923 -1.3045  1.3310 -1.5203
17486TIP3    H273950   1.869   0.128   2.773 -1.1093 -1.8360 -1.5476
17487TIP3   OH273951   4.838   3.897   1.717  0.6598  0.4900  0.1412
17487TIP3    H173952   4.903   3.831   1.739 -0.2282 -1.3822 -2.3322
17487TIP3    H273953   4.765   3.881   1.777  0.9418  0.0229  0.3593
17488TIP3   OH273954   0.989   5.146   3.610 -0.6514 -0.2816 -0.2646
17488TIP3    H173955   0.980   5.206   3.536 -0.3073 -0.3569 -0.3687
17488TIP3    H273956   0.997   5.203   3.687  2.2881 -0.0756 -0.6088
17489TIP3   OH273957   1.767   3.300   2.944  0.1057  0.0082  0.6713
17489TIP3    H173958   1.816   3.239   2.998 -0.4144 -0.7292  0.3329
17489TIP3    H273959   1.831   3.336   2.883  0.3504 -0.4605  0.6499
17490TIP3   OH273960   6.769   0.372  13.208 -0.1216 -0.5055  0.2323
17490TIP3    H173961   6.852   0.391  13.250  0.0954  0.7898 -0.7155
17490TIP3    H273962   6.791   0.362  13.115 -1.0818  0.4181 -0.1140
17491TIP3   OH273963   6.500   1.878   0.246  0.5301  0.4487  0.6794
17491TIP3    H173964   6.566   1.824   0.203  1.1824  0.6628  1.3886
17491TIP3    H273965   6.420   1.864   0.195  1.1239  0.1992 -0.2055
17492TIP3   OH273966   5.468   0.189  15.342  0.6342  0.2764  0.4148
17492TIP3    H173967   5.514   0.228  15.268  0.0658  0.1353 -0.0157
17492TIP3    H273968   5.534   0.183  15.411  0.9443  1.2297  0.2161
17493TIP3   OH273969   5.287   0.134  12.521 -0.0239 -0.7812 -0.5114
17493TIP3    H173970   5.264   0.224  12.498 -0.4823 -0.6110  0.5555
17493TIP3    H273971   5.380   0.138  12.544 -0.7346  0.1647  2.7915
17494TIP3   OH273972   5.528   4.598  14.506 -0.1349 -0.5761  0.4465
17494TIP3    H173973   5.593   4.642  14.452  1.1397 -0.1941  2.2315
17494TIP3    H273974   5.579   4.548  14.570 -1.5846 -0.1609  1.9851
17495TIP3   OH273975   1.288   4.007  14.810  0.3453  0.0066 -0.9382
17495TIP3    H173976   1.339   4.087  14.795 -0.0318  0.7862  1.5388
17495TIP3    H273977   1.347   3.949  14.857  0.0943 -0.5462 -1.2981
17496TIP3   OH273978   5.576   5.294   5.266 -0.2349  0.0106  0.1782
17496TIP3    H173979   5.566   5.304   5.171  0.7494  0.9269  0.1476
17496TIP3    H273980   5.665   5.259   5.277 -0.5181 -0.5404  0.7429
17497TIP3   OH273981   6.686   1.807  15.633 -0.6541  0.7983 -0.0516
17497TIP3    H173982   6.604   1.831  15.676 -1.0066 -1.2914  0.5700
17497TIP3    H273983   6.665   1.729  15.582  0.5707  1.2227 -1.2891
17498TIP3   OH273984   2.787   2.319  15.610 -0.0643 -0.2937  0.0067
17498TIP3    H173985   2.702   2.280  15.593  0.3768 -1.0326 -0.5901
17498TIP3    H273986   2.850   2.252  15.581  0.7147  0.4154  0.0253
17499TIP3   OH273987   1.118   4.253   1.690  0.6454  0.2010 -1.1139
17499TIP3    H173988   1.035   4.269   1.645  0.1742  1.8699  0.2063
17499TIP3    H273989   1.149   4.341   1.713  1.1481 -0.5149  1.2171
17500TIP3   OH273990   0.182   0.257   0.782  0.0501  0.4190 -0.1952
17500TIP3    H173991   0.143   0.343   0.765 -0.6176  0.5265  1.6093
17500TIP3    H273992   0.258   0.276   0.837  2.4262  0.1513 -3.1274
17501TIP3   OH273993   4.355   1.133   4.272 -0.0380 -0.1979  0.8766
17501TIP3    H173994   4.323   1.077   4.201  0.4161 -0.2664  0.7187
17501TIP3    H273995   4.450   1.122   4.269 -0.0716 -1.0057  2.1610
17502TIP3   OH273996   5.020   5.140   0.519 -0.0048  0.4654  0.0635
17502TIP3    H173997   5.082   5.087   0.569 -0.8764  0.7307  1.4704
17502TIP3    H273998   4.997   5.212   0.578 -1.3885  0.5591 -0.5583
17503TIP3   OH273999   4.700   0.127   1.557  0.2295  0.0225 -0.0043
17503TIP3    H174000   4.793   0.145   1.572  0.7829  0.2140 -2.9736
17503TIP3    H274001   4.654   0.176   1.625  2.2751 -0.5832  1.9274
17504TIP3   OH274002   4.857   1.308  11.048 -0.6919 -0.0201 -0.4714
17504TIP3    H174003   4.879   1.312  10.955 -1.0051  2.1492 -0.5151
17504TIP3    H274004   4.761   1.306  11.050 -0.6697 -1.4958 -0.1933
17505TIP3   OH274005   2.410   1.580   2.347  0.0420 -0.1232 -0.2128
17505TIP3    H174006   2.437   1.639   2.417  0.5394  1.0006 -1.3088
17505TIP3    H274007   2.389   1.638   2.274 -1.9888 -1.1680 -0.5200
17506TIP3   OH274008   2.422   4.882  16.223 -0.5565 -0.1629  0.3205
17506TIP3    H174009   2.476   4.957  16.197 -2.0122  0.7592 -0.1716
17506TIP3    H274010   2.485   4.813  16.243  0.7840  0.4889 -1.3760
17507TIP3   OH274011   0.675   0.449   0.365  0.2795  0.2809 -0.1202
17507TIP3    H174012   0.673   0.389   0.439 -0.3566  0.9828  0.4474
17507TIP3    H274013   0.609   0.414   0.304  1.6202 -0.9593 -0.9171
17508TIP3   OH274014   5.982   2.901   2.592  0.5773  0.0943 -0.1240
17508TIP3    H174015   5.958   2.808   2.593  1.4758 -0.1692  1.7074
17508TIP3    H274016   5.993   2.922   2.500  0.1138 -1.5656 -0.5918
17509TIP3   OH274017   4.910   2.646  16.968 -0.6618 -0.2850 -0.0769
17509TIP3    H174018   4.977   2.608  17.025 -0.0498  0.5200 -0.2332
17509TIP3    H274019   4.836   2.664  17.026 -0.7280 -1.1303  0.1095
17510TIP3   OH274020   3.059   0.658  12.135 -0.6152  0.2489  0.4317
17510TIP3    H174021   2.986   0.694  12.084  0.2272  0.4972 -0.6265
17510TIP3    H274022   3.064   0.714  12.212 -0.2334  1.5464 -0.5022
17511TIP3   OH274023   4.819   1.688  15.222  0.3445 -0.2817 -0.6392
17511TIP3    H174024   4.744   1.743  15.244  0.5482  0.1085 -0.9073
17511TIP3    H274025   4.879   1.747  15.177  0.3450 -0.8468 -1.3857
17512TIP3   OH274026   1.438   2.059   2.632 -0.1641  0.1721  0.1704
17512TIP3    H174027   1.350   2.065   2.596 -0.2367 -0.4677  0.2374
17512TIP3    H274028   1.454   2.146   2.670 -1.2222 -0.0582  1.2075
17513TIP3   OH274029   0.376   3.663   2.592 -0.5127 -0.6381 -0.2818
17513TIP3    H174030   0.349   3.749   2.625  1.9719 -0.0235  0.3796
17513TIP3    H274031   0.425   3.624   2.665  1.1379 -1.2186 -1.6171
17514TIP3   OH274032   2.122   2.919  13.471 -0.7193  0.5585  1.0007
17514TIP3    H174033   2.045   2.913  13.528 -1.1549 -0.2816  0.3542
17514TIP3    H274034   2.133   2.830  13.436  0.9155  0.5258  1.5287
17515TIP3   OH274035   1.750   2.034  12.259 -0.0510  0.1714  0.4651
17515TIP3    H174036   1.796   2.090  12.322 -0.4585  0.6899  0.3100
17515TIP3    H274037   1.667   2.012  12.301 -0.2265  0.3279  0.2060
17516TIP3   OH274038   0.937   3.814   4.914  0.5325 -0.0879 -0.1455
17516TIP3    H174039   0.999   3.751   4.877  0.1158 -0.4765 -0.1830
17516TIP3    H274040   0.917   3.874   4.842 -0.0926 -0.7010 -0.4944
17517TIP3   OH274041   5.954   2.338   2.153  0.3187 -0.1736  0.0947
17517TIP3    H174042   5.902   2.308   2.079  0.8393 -0.9251  0.0245
17517TIP3    H274043   6.009   2.263   2.176 -1.7011 -0.9796  2.9733
17518TIP3   OH274044   4.890   3.715   4.676 -0.4943  0.3352  0.1523
17518TIP3    H174045   4.941   3.768   4.736  0.1197  1.2788 -1.1472
17518TIP3    H274046   4.947   3.703   4.600 -0.7487 -1.9291  0.2528
17519TIP3   OH274047   1.566   0.884  14.821 -0.1962 -0.6205 -0.1210
17519TIP3    H174048   1.660   0.876  14.838 -0.1567 -2.1025 -0.8886
17519TIP3    H274049   1.525   0.831  14.890 -0.6234  1.4910  1.3512
17520TIP3   OH274050   0.527   5.203   2.618  0.8652  0.3812  0.9397
17520TIP3    H174051   0.599   5.165   2.566  0.5548  0.1709  0.6618
17520TIP3    H274052   0.570   5.238   2.696  1.2708  0.2455  0.7807
17521TIP3   OH274053   4.188   0.932  11.682 -0.4251  0.3375  0.2264
17521TIP3    H174054   4.281   0.929  11.707 -0.6775 -0.2149  1.1486
17521TIP3    H274055   4.185   0.993  11.608  0.5112  1.2078  0.8830
17522TIP3   OH274056   5.947   3.090  10.800 -0.4741 -0.8590  0.0515
17522TIP3    H174057   5.976   3.026  10.736  1.6298 -1.3846  1.4015
17522TIP3    H274058   5.933   3.039  10.880 -0.7072  0.0813  0.6232
17523TIP3   OH274059   4.878   1.525   5.914  0.2357  0.3956  0.5063
17523TIP3    H174060   4.862   1.590   5.845 -2.7754  0.1276  0.8069
17523TIP3    H274061   4.922   1.574   5.983  1.7456  1.0817 -0.8711
17524TIP3   OH274062   3.469   0.664   2.267 -0.3927  0.8128 -0.0020
17524TIP3    H174063   3.496   0.657   2.175  0.6661  1.4152  0.2463
17524TIP3    H274064   3.453   0.757   2.280  0.7629  0.9260  0.7556
17525TIP3   OH274065   5.788   2.105  15.798 -0.1453 -0.0042 -0.0266
17525TIP3    H174066   5.805   2.074  15.887 -0.6943 -3.7229 -1.0207
17525TIP3    H274067   5.834   2.188  15.791  2.9491 -1.3183  2.6181
17526TIP3   OH274068   2.474   5.584   1.632 -0.2303  0.0774 -0.3026
17526TIP3    H174069   2.481   5.490   1.613 -0.5958 -0.0305  0.0683
17526TIP3    H274070   2.494   5.591   1.725  2.8069  0.7543 -0.8895
17527TIP3   OH274071   2.429   3.490  12.304  0.9904  0.1488  0.0849
17527TIP3    H174072   2.338   3.462  12.301  1.0407 -0.1667  1.0535
17527TIP3    H274073   2.436   3.557  12.237  0.3951 -0.8298 -0.9829
17528TIP3   OH274074   2.687   3.271  15.242  0.1034 -0.2971 -0.6302
17528TIP3    H174075   2.782   3.275  15.230 -0.0214  0.4698 -1.5781
17528TIP3    H274076   2.662   3.183  15.213  0.8869 -1.9046  3.0245
17529TIP3   OH274077   0.054   2.238  16.920  0.2040  0.6004  0.5091
17529TIP3    H174078   0.122   2.180  16.954  0.4896  1.0618  0.7262
17529TIP3    H274079  -0.010   2.179  16.880 -0.3560  0.0014  2.1804
17530TIP3   OH274080   5.787   4.393   5.019 -0.0060  0.0640 -0.0479
17530TIP3    H174081   5.773   4.397   5.113  1.0344  0.2575  0.1174
17530TIP3    H274082   5.746   4.311   4.992 -0.2154 -0.0470  0.5889
17531TIP3   OH274083   5.765   3.638  16.139  0.7030 -0.3034  0.4874
17531TIP3    H174084   5.853   3.675  16.148  0.1072  1.7356 -1.3695
17531TIP3    H274085   5.755   3.622  16.045 -1.5444  1.2295  0.3994
17532TIP3   OH274086   5.306   6.539  15.789  0.0394  0.1887 -0.3647
17532TIP3    H174087   5.338   6.471  15.849  0.3253  0.2029 -0.4959
17532TIP3    H274088   5.363   6.614  15.806 -0.1193  0.3161 -0.3929
17533TIP3   OH274089   6.249   4.622  15.830 -0.3684 -0.2135 -0.2392
17533TIP3    H174090   6.155   4.607  15.832 -0.3965 -0.0088  0.2347
17533TIP3    H274091   6.281   4.586  15.913 -0.0956  0.1124 -0.1998
17534TIP3   OH274092   4.872   0.243  15.240  0.6213  0.1788  0.1594
17534TIP3    H174093   4.938   0.174  15.245  0.3455 -0.0410  0.8518
17534TIP3    H274094   4.869   0.267  15.147  0.9036 -0.5570 -0.0420
17535TIP3   OH274095   3.470   2.988   2.007  0.6992  0.1859 -0.1395
17535TIP3    H174096   3.476   2.939   1.925 -2.5354  0.3658 -0.6182
17535TIP3    H274097   3.499   2.927   2.074  1.0532 -0.8319 -1.1890
17536TIP3   OH274098   6.380   2.546   6.312 -0.1937 -0.2740 -0.0083
17536TIP3    H174099   6.381   2.641   6.309  0.7192 -0.2802 -0.0779
17536TIP3    H274100   6.451   2.523   6.373 -0.2231 -0.9109 -0.2073
17537TIP3   OH274101   0.115   3.922   4.806  0.3856  0.2136  0.2249
17537TIP3    H174102   0.034   3.945   4.762  1.8414 -0.1637 -2.8827
17537TIP3    H274103   0.166   4.003   4.807  0.6753  0.0319  0.5726
17538TIP3   OH274104   5.962   6.235  16.001  0.2867  0.0743  0.2201
17538TIP3    H174105   6.020   6.311  16.006  0.5574 -0.1051 -0.1141
17538TIP3    H274106   5.916   6.233  16.085 -0.1535  0.9466  0.0135
17539TIP3   OH274107   4.428   1.180  16.189  0.3680  0.6061 -0.1628
17539TIP3    H174108   4.459   1.197  16.100  0.2425 -1.1723 -0.5919
17539TIP3    H274109   4.458   1.255  16.240  0.5338  1.6082 -1.6776
17540TIP3   OH274110   3.266   1.875   0.705  0.2244 -0.1567  0.2491
17540TIP3    H174111   3.302   1.820   0.774  1.7328 -1.3414 -1.3852
17540TIP3    H274112   3.200   1.930   0.749 -1.8180 -3.6202  1.8948
17541TIP3   OH274113   2.561   4.812  17.076  0.0609  0.1339 -0.1226
17541TIP3    H174114   2.606   4.816  17.160  0.8678 -2.1107 -0.3698
17541TIP3    H274115   2.632   4.800  17.012 -0.6623  0.0874 -0.9299
17542TIP3   OH274116   1.528   5.582  16.576 -0.9252  0.0309 -0.2963
17542TIP3    H174117   1.592   5.571  16.505 -2.0490  0.9648 -1.4972
17542TIP3    H274118   1.479   5.500  16.577  1.3660 -1.5040  1.8854
17543TIP3   OH274119   3.881   6.673   5.214 -0.2867 -0.4683 -0.0488
17543TIP3    H174120   3.799   6.630   5.237 -0.8109  1.1088  1.2000
17543TIP3    H274121   3.946   6.634   5.273 -0.2160 -1.3583 -0.6961
17544TIP3   OH274122   4.366   4.378   4.222  0.1095  0.7636 -0.3403
17544TIP3    H174123   4.378   4.406   4.131 -1.5081 -0.7696 -1.0815
17544TIP3    H274124   4.328   4.290   4.215  1.4563 -0.0664  1.8432
17545TIP3   OH274125   1.827   5.567  11.561  0.0595  0.0837 -0.1261
17545TIP3    H174126   1.892   5.533  11.499 -0.0384 -1.5133  0.5985
17545TIP3    H274127   1.743   5.557  11.515  0.1338  0.3468 -0.3219
17546TIP3   OH274128   4.146   2.419  12.035  0.1210 -0.0015  0.0618
17546TIP3    H174129   4.163   2.327  12.014  1.1273 -0.1584  1.3994
17546TIP3    H274130   4.233   2.458  12.042 -0.2849  0.9184  0.1242
17547TIP3   OH274131   1.029   6.668   0.703  0.4705 -0.8172  0.1561
17547TIP3    H174132   1.069   6.674   0.616  0.1467 -1.4311 -0.0455
17547TIP3    H274133   0.939   6.697   0.690  0.6166 -0.2524  0.4298
17548TIP3   OH274134   2.583   2.165   2.108 -0.4423  0.4970 -0.1261
17548TIP3    H174135   2.529   2.111   2.051  1.4525 -0.9308 -0.7051
17548TIP3    H274136   2.618   2.104   2.173 -0.0777  1.4903  0.6404
17549TIP3   OH274137   4.227   2.894  11.390  0.6429  0.2767 -0.6305
17549TIP3    H174138   4.250   2.826  11.327  0.9873 -1.4297  1.2779
17549TIP3    H274139   4.139   2.871  11.419  1.0108  0.2714  0.5028
17550TIP3   OH274140   0.401   0.782   1.404 -0.2764 -0.0087  0.0835
17550TIP3    H174141   0.451   0.790   1.485 -0.2063  0.4211  0.0015
17550TIP3    H274142   0.394   0.872   1.371  0.8972 -0.3297 -1.1278
17551TIP3   OH274143   5.449   0.172   5.864  0.1373 -0.1897 -0.4123
17551TIP3    H174144   5.389   0.147   5.935  0.6382 -2.1905 -0.6350
17551TIP3    H274145   5.394   0.173   5.786 -0.3225  1.5876 -0.1143
17552TIP3   OH274146   0.415   0.659   6.845 -0.9348 -0.3199 -0.2010
17552TIP3    H174147   0.495   0.625   6.885 -0.2875  0.8983 -0.4034
17552TIP3    H274148   0.350   0.589   6.858  0.1649 -1.3592 -0.0903
17553TIP3   OH274149   6.500   0.582  16.475  0.4650 -0.0915 -0.1191
17553TIP3    H174150   6.490   0.515  16.542  1.1851  0.4761  0.5683
17553TIP3    H274151   6.525   0.661  16.523 -2.9407  1.4355 -0.5649
17554TIP3   OH274152   3.839   3.939   6.070 -0.1060 -0.1716 -0.1034
17554TIP3    H174153   3.756   3.955   6.027 -0.1653  0.1812  0.1405
17554TIP3    H274154   3.834   3.987   6.152 -0.0073 -0.8659  0.3171
17555TIP3   OH274155   6.191   2.654   1.019 -0.3756  0.3086 -0.3455
17555TIP3    H174156   6.252   2.580   1.017 -0.9667 -0.1982 -0.0588
17555TIP3    H274157   6.109   2.616   1.049 -1.1649  0.7387 -1.8412
17556TIP3   OH274158   4.404   6.623  14.207 -0.2133 -0.4382 -0.0172
17556TIP3    H174159   4.331   6.565  14.187  0.3577 -1.3072  0.3952
17556TIP3    H274160   4.366   6.692  14.262 -0.4296 -1.7496  1.5562
17557TIP3   OH274161   5.416   1.928   1.049  0.1593 -0.3120 -0.5633
17557TIP3    H174162   5.415   1.902   1.141  0.9853 -2.1046 -1.0156
17557TIP3    H274163   5.425   2.024   1.052 -3.0205  0.0855  1.1872
17558TIP3   OH274164   2.454   0.889   1.241  0.4988  0.8084 -0.0216
17558TIP3    H174165   2.429   0.977   1.269 -0.8035  0.5236 -0.2270
17558TIP3    H274166   2.480   0.845   1.322 -2.1145  0.3628  0.6817
17559TIP3   OH274167   1.077   2.938   4.671 -0.2239  0.1694 -0.0217
17559TIP3    H174168   1.108   2.940   4.761  1.1860 -0.0739 -0.4700
17559TIP3    H274169   1.039   3.024   4.656 -0.5459  0.1816  0.8202
17560TIP3   OH274170   0.141   2.845   5.845  0.2249  0.4718 -0.2322
17560TIP3    H174171   0.212   2.820   5.905  1.1834  0.6373 -1.2642
17560TIP3    H274172   0.186   2.877   5.767 -0.9941  1.6658 -0.4822
17561TIP3   OH274173   2.031   6.664  14.808 -0.8140 -0.7051  0.0040
17561TIP3    H174174   1.993   6.725  14.872 -0.3961 -0.4198 -0.0164
17561TIP3    H274175   2.037   6.581  14.855 -1.4243 -0.7464  0.0212
17562TIP3   OH274176   3.722   6.377  11.523 -0.2420 -0.1140  0.4998
17562TIP3    H174177   3.641   6.428  11.534 -0.0415  0.6013 -0.9638
17562TIP3    H274178   3.694   6.297  11.478 -0.1992 -0.0433  0.3448
17563TIP3   OH274179   4.248   5.254   0.775  0.1180 -0.6949  0.8083
17563TIP3    H174180   4.165   5.278   0.735  0.3737 -1.9757 -0.5676
17563TIP3    H274181   4.311   5.317   0.741  0.0501 -0.8619  0.3705
17564TIP3   OH274182   1.106   5.527   0.576 -0.2799  0.4375  0.3663
17564TIP3    H174183   1.080   5.598   0.518 -0.4496  0.1577  0.0955
17564TIP3    H274184   1.029   5.470   0.580  0.7449 -1.2475 -1.7203
17565TIP3   OH274185   5.762   4.382  16.009 -0.2151 -0.1631  0.2001
17565TIP3    H174186   5.708   4.360  16.085  0.2801  0.1064  0.6320
17565TIP3    H274187   5.817   4.455  16.039  0.9796 -0.9758  0.0246
17566TIP3   OH274188   3.428   6.759   0.758  0.1814 -0.0542 -0.6012
17566TIP3    H174189   3.423   6.744   0.852 -1.3210 -0.6956 -0.7586
17566TIP3    H274190   3.484   6.687   0.726  0.4665  0.0033 -0.2392
17567TIP3   OH274191   6.333   1.746  17.073  0.0666  0.4752  0.0077
17567TIP3    H174192   6.325   1.830  17.118  0.0388  1.3566 -1.5886
17567TIP3    H274193   6.335   1.768  16.980  2.0433 -1.1433 -0.3935
17568TIP3   OH274194   5.390   1.850   0.217 -0.5266  0.1134  0.2518
17568TIP3    H174195   5.445   1.780   0.254 -0.3546 -0.6728 -1.3883
17568TIP3    H274196   5.301   1.829   0.247 -1.4048 -3.7940 -3.9459
17569TIP3   OH274197   4.610   4.565  11.996 -0.1643 -0.4283  0.0587
17569TIP3    H174198   4.593   4.482  11.952  1.6377 -0.2169 -1.1441
17569TIP3    H274199   4.668   4.543  12.069  0.2359 -0.2521 -0.2022
17570TIP3   OH274200   3.236   3.392   2.149  0.2707  0.6654  0.0624
17570TIP3    H174201   3.300   3.325   2.172 -0.4365 -0.5212 -1.2826
17570TIP3    H274202   3.288   3.465   2.115  1.0197  0.6930  1.1984
17571TIP3   OH274203   2.394   3.705  16.411 -0.1120 -0.3296  0.0645
17571TIP3    H174204   2.353   3.747  16.335 -1.0907 -1.5639 -0.1186
17571TIP3    H274205   2.393   3.612  16.390 -0.2914 -0.6817  1.5360
17572TIP3   OH274206   2.019   5.590   5.761  0.1478  0.7111  0.1349
17572TIP3    H174207   1.948   5.585   5.824 -0.0554  1.1127 -0.0609
17572TIP3    H274208   1.986   5.542   5.684  0.5740 -0.1854  0.4928
17573TIP3   OH274209   5.788   0.085  14.138  0.3842 -0.2041  0.2368
17573TIP3    H174210   5.748   0.145  14.202  1.0879  1.4954 -0.8403
17573TIP3    H274211   5.868   0.130  14.110  1.7484 -2.3530  0.4406
17574TIP3   OH274212   4.638   3.850   2.683 -0.5168  0.3988  0.0859
17574TIP3    H174213   4.717   3.903   2.676  0.4829 -1.2069 -3.1039
17574TIP3    H274214   4.667   3.761   2.661 -2.9851 -0.4543 -0.0416
17575TIP3   OH274215   6.347   5.048  10.956 -0.6949  0.6847  0.3119
17575TIP3    H174216   6.329   5.137  10.926 -2.1221  0.0225 -0.8957
17575TIP3    H274217   6.262   5.004  10.953  0.0417 -0.8124  0.5887
17576TIP3   OH274218   4.665   2.205  16.364  0.4545 -0.4100 -1.2363
17576TIP3    H174219   4.619   2.233  16.443  0.0358 -0.2583 -1.5291
17576TIP3    H274220   4.682   2.287  16.316  0.5362 -0.5180 -1.3949
17577TIP3   OH274221   5.950   2.921  14.228 -0.2502  0.3960 -0.3263
17577TIP3    H174222   6.012   2.946  14.297 -0.3936 -0.0755 -0.0272
17577TIP3    H274223   5.991   2.952  14.147 -1.6310  4.1375  0.1956
17578TIP3   OH274224   4.563   1.266   1.458 -0.4788 -0.5066  0.2361
17578TIP3    H174225   4.524   1.221   1.383 -1.4609 -1.6169  1.3791
17578TIP3    H274226   4.493   1.322   1.492 -0.4338 -0.9011  1.0153
17579TIP3   OH274227   4.218   4.467   5.867  0.5176 -0.4901  0.3999
17579TIP3    H174228   4.267   4.390   5.898  1.5135 -0.2594 -0.5452
17579TIP3    H274229   4.126   4.444   5.883  0.8021 -1.8198  0.2711
17580TIP3   OH274230   3.726   4.161   4.425  0.1234  0.1439 -0.3896
17580TIP3    H174231   3.821   4.156   4.421  0.2444  1.2554  0.5941
17580TIP3    H274232   3.707   4.255   4.427 -0.9425 -0.0683  0.1632
17581TIP3   OH274233   0.392   3.056   2.721  0.1867 -0.5578 -0.0551
17581TIP3    H174234   0.460   3.008   2.674  0.8158  1.5969 -1.4995
17581TIP3    H274235   0.416   3.048   2.814  0.8046 -2.1326 -0.3246
17582TIP3   OH274236   1.334   6.713   0.694  0.1067 -0.4941 -0.1777
17582TIP3    H174237   1.269   6.741   0.630 -0.5273 -1.5719 -0.0269
17582TIP3    H274238   1.412   6.764   0.673 -0.8063  0.9076 -0.2947
17583TIP3   OH274239   6.297   0.338  17.083  0.5322  0.5681 -0.4289
17583TIP3    H174240   6.366   0.310  17.144 -1.1100  0.5757  1.5348
17583TIP3    H274241   6.219   0.345  17.137 -1.2802 -0.3993 -2.7558
17584TIP3   OH274242   2.413   0.727  10.916 -0.0462  0.0824  0.1733
17584TIP3    H174243   2.425   0.715  10.821  2.6059 -0.9420  0.5492
17584TIP3    H274244   2.484   0.786  10.941 -0.9350  0.6214  1.5113
17585TIP3   OH274245   1.797   4.613  11.966 -0.0993  0.1071 -0.2095
17585TIP3    H174246   1.793   4.701  12.002 -0.3981 -0.2739  0.7346
17585TIP3    H274247   1.887   4.602  11.937 -0.3881  1.2028 -1.6480
17586TIP3   OH274248   4.290   0.881   5.218 -0.5947 -0.0016 -0.1329
17586TIP3    H174249   4.248   0.810   5.266 -0.5678  1.0483  1.5447
17586TIP3    H274250   4.235   0.893   5.140 -1.2945 -1.0364  0.1794
17587TIP3   OH274251   3.556   2.911  11.569  0.1230 -0.2078  0.0869
17587TIP3    H174252   3.601   2.895  11.652 -0.0275 -1.3245 -0.0349
17587TIP3    H274253   3.625   2.901  11.503  0.0388 -0.3208  0.0157
17588TIP3   OH274254   2.075   1.269   3.470  0.0384 -0.3525  0.3245
17588TIP3    H174255   2.113   1.325   3.402 -0.3871 -0.4493 -0.0016
17588TIP3    H274256   1.992   1.240   3.433  0.0130 -0.7790  0.7044
17589TIP3   OH274257   6.323   0.793  13.608 -0.7255 -0.4103 -0.0279
17589TIP3    H174258   6.233   0.771  13.583 -0.5299 -0.0836 -1.0476
17589TIP3    H274259   6.377   0.732  13.559 -0.3383  0.1551 -0.3180
17590TIP3   OH274260   0.380   0.088   6.301 -0.3552 -0.1406 -0.5535
17590TIP3    H174261   0.296   0.053   6.269 -0.7348 -0.2587  0.5135
17590TIP3    H274262   0.364   0.181   6.315 -0.2033 -0.0946 -0.6891
17591TIP3   OH274263   4.319   3.678  12.313 -0.4719  0.1892 -0.1982
17591TIP3    H174264   4.272   3.689  12.395  0.1746 -1.1352  0.3902
17591TIP3    H274265   4.358   3.591  12.320  0.1786  0.3422 -1.6162
17592TIP3   OH274266   1.597   3.879  13.339 -0.1659 -0.3330  0.1393
17592TIP3    H174267   1.607   3.888  13.434 -2.1007 -0.5105  0.4111
17592TIP3    H274268   1.579   3.786  13.325 -0.8429 -0.1456 -0.2876
17593TIP3   OH274269   2.749   3.080  14.045  0.1849  0.5712 -0.2130
17593TIP3    H174270   2.745   3.172  14.021 -0.1349  0.5709 -0.1636
17593TIP3    H274271   2.676   3.067  14.105 -1.0817 -0.1884 -1.8600
17594TIP3   OH274272   4.213   2.267  15.956 -0.0786  0.1018  0.1159
17594TIP3    H174273   4.259   2.184  15.937 -0.1455  0.4049 -1.5062
17594TIP3    H274274   4.131   2.260  15.908 -0.7842  0.4740  1.2502
17595TIP3   OH274275   4.847   6.256  14.961  0.3135 -0.1282 -0.1669
17595TIP3    H174276   4.792   6.271  14.884 -2.2526 -1.1477  1.3186
17595TIP3    H274277   4.815   6.319  15.026  3.7081  2.0607 -0.3797
17596TIP3   OH274278   3.392   6.088   6.075  0.6529  0.3210 -0.1782
17596TIP3    H174279   3.306   6.108   6.111  0.4528  2.4451 -1.6221
17596TIP3    H274280   3.383   6.002   6.034 -1.8596  1.8480 -3.2145
17597TIP3   OH274281   5.240   4.551   0.262 -0.1491 -0.1526 -0.1403
17597TIP3    H174282   5.158   4.568   0.307  0.2911 -1.6829  1.3369
17597TIP3    H274283   5.227   4.469   0.217  0.3186 -0.0152 -0.5370
17598TIP3   OH274284   4.409   0.419   4.421 -0.2354 -0.0376  0.4728
17598TIP3    H174285   4.501   0.441   4.405 -0.4508  0.6433  0.0975
17598TIP3    H274286   4.410   0.371   4.504  0.4879 -0.2923  0.3270
17599TIP3   OH274287   1.952   4.807   0.240  0.4780 -0.4060 -0.1897
17599TIP3    H174288   1.991   4.829   0.325  1.7888 -1.2817 -0.5246
17599TIP3    H274289   2.008   4.850   0.176  1.1498 -1.9426 -0.6998
17600TIP3   OH274290   5.333   2.244  13.608 -0.4828  0.5213  0.4460
17600TIP3    H174291   5.411   2.202  13.644  1.2176  1.3354 -1.9891
17600TIP3    H274292   5.368   2.307  13.545 -3.1253  0.1140 -1.5877
17601TIP3   OH274293   5.603   4.744  15.695 -0.5322 -0.0441 -0.6168
17601TIP3    H174294   5.680   4.693  15.721 -1.4554 -1.3445 -0.3301
17601TIP3    H274295   5.539   4.725  15.763 -1.2085  0.8067 -1.0031
17602TIP3   OH274296   5.157   5.261  14.575  0.3190  0.3075 -0.1516
17602TIP3    H174297   5.243   5.302  14.585  0.7615 -0.6702  0.2210
17602TIP3    H274298   5.101   5.305  14.638  1.3754 -1.1925  1.9553
17603TIP3   OH274299   2.672   0.130   3.514  0.2156 -0.2362  0.0828
17603TIP3    H174300   2.714   0.161   3.595  0.5552 -1.0757  0.2392
17603TIP3    H274301   2.636   0.044   3.538 -2.4463  0.8137  0.2454
17604TIP3   OH274302   4.245   4.159   2.231 -0.4747  0.4863  0.2097
17604TIP3    H174303   4.307   4.148   2.303 -0.0109 -0.0515 -0.2588
17604TIP3    H274304   4.173   4.099   2.253  0.1495 -0.4726 -0.2789
17605TIP3   OH274305   5.964   5.864  11.378  0.2959 -0.2664  0.3685
17605TIP3    H174306   6.055   5.839  11.393 -0.1438 -0.7147  2.6825
17605TIP3    H274307   5.916   5.781  11.377 -0.1827  0.0072 -0.2123
17606TIP3   OH274308   2.332   0.243   0.339  0.0919  0.0346 -0.0713
17606TIP3    H174309   2.334   0.157   0.382 -1.4309  0.9618  2.0544
17606TIP3    H274310   2.253   0.284   0.373  0.3243  1.9772 -1.7095
17607TIP3   OH274311   3.407   0.112   1.429 -0.0776  0.4834  0.2327
17607TIP3    H174312   3.319   0.140   1.453  0.1229  2.7641 -1.4048
17607TIP3    H274313   3.465   0.162   1.485  0.2249 -0.5247  0.8474
17608TIP3   OH274314   1.972   6.160   5.032  0.4789 -1.1875 -0.0307
17608TIP3    H174315   1.904   6.097   5.058 -1.4115  0.2641 -1.1871
17608TIP3    H274316   1.954   6.178   4.940  2.1798 -0.4170 -0.2444
17609TIP3   OH274317   5.767   0.886   0.510 -0.5827  0.4337  0.0556
17609TIP3    H174318   5.682   0.846   0.493 -1.0825  0.6018  1.9847
17609TIP3    H274319   5.823   0.854   0.439 -1.3743 -2.3568  0.5892
17610TIP3   OH274320   3.152   0.314   3.219 -0.3606  0.0504  0.3250
17610TIP3    H174321   3.124   0.297   3.129  0.4421 -1.5702  0.3413
17610TIP3    H274322   3.246   0.329   3.213 -0.3300  0.1133  0.8680
17611TIP3   OH274323   3.952   1.648  10.531 -0.2109 -0.0786 -0.3471
17611TIP3    H174324   4.043   1.674  10.522  0.0142 -0.3879  0.9096
17611TIP3    H274325   3.951   1.554  10.511 -0.2136 -0.1347 -0.0782
17612TIP3   OH274326   5.092   2.146   0.521 -0.4231 -0.2938 -0.2719
17612TIP3    H174327   5.090   2.214   0.589 -1.5578 -0.9456  0.3657
17612TIP3    H274328   5.028   2.174   0.457 -0.3708 -0.3947 -0.3679
17613TIP3   OH274329   5.891   5.079   1.955 -0.1740 -0.1944  0.3802
17613TIP3    H174330   5.977   5.078   1.912 -0.2248  0.1727  0.2680
17613TIP3    H274331   5.830   5.051   1.887 -0.4655  1.8479 -0.2762
17614TIP3   OH274332   5.945   1.306   3.227 -0.6291  0.0482 -0.0099
17614TIP3    H174333   5.921   1.216   3.251 -0.4290 -0.0636 -0.2307
17614TIP3    H274334   5.907   1.319   3.140  2.8489 -1.2877 -1.9204
17615TIP3   OH274335   6.406   5.402   1.961  0.1343  0.2210 -0.0981
17615TIP3    H174336   6.465   5.457   1.910 -0.6092 -0.1716 -1.4237
17615TIP3    H274337   6.373   5.460   2.031 -0.7297  1.5293 -1.5280
17616TIP3   OH274338   3.352   2.982   5.454  0.0006  0.0350  0.4288
17616TIP3    H174339   3.345   3.071   5.420  0.3648  0.5924  1.7523
17616TIP3    H274340   3.312   2.927   5.387  0.2358  1.1362 -0.6483
17617TIP3   OH274341   1.747   3.830  17.167 -0.3675  0.1458  0.0965
17617TIP3    H174342   1.659   3.858  17.191 -1.2621 -0.4113 -2.2578
17617TIP3    H274343   1.805   3.894  17.210 -1.9415  1.0511  0.9659
17618TIP3   OH274344   2.702   4.534   3.401 -0.2448 -0.3495  0.3650
17618TIP3    H174345   2.750   4.461   3.362  0.4648  0.0567  0.4731
17618TIP3    H274346   2.767   4.583   3.450 -0.0461  2.0704 -2.0801
17619TIP3   OH274347   5.604   5.810   1.567  0.1668  0.3359 -0.5559
17619TIP3    H174348   5.684   5.846   1.528 -0.5130  0.8473 -1.4991
17619TIP3    H274349   5.581   5.874   1.635 -0.2885  0.9947 -1.3199
17620TIP3   OH274350   5.043   2.459  15.322 -0.7161 -0.0382  0.3579
17620TIP3    H174351   4.974   2.463  15.388 -0.9172 -2.1403  0.3427
17620TIP3    H274352   5.107   2.524  15.351 -0.0172 -1.9140  3.5803
17621TIP3   OH274353   2.951   4.968   3.477 -0.1864  0.5950  0.3321
17621TIP3    H174354   2.989   5.041   3.524  0.2452  0.9015 -0.4813
17621TIP3    H274355   2.859   4.992   3.466 -0.6461 -0.1158  2.2334
17622TIP3   OH274356   1.396   0.535   1.640 -0.0783 -0.2119 -0.0319
17622TIP3    H174357   1.456   0.461   1.633 -0.6092 -0.6836  0.4218
17622TIP3    H274358   1.322   0.512   1.584 -1.4982 -1.2516  2.1865
17623TIP3   OH274359   2.360   2.939   4.899 -0.0171  0.1580  0.1682
17623TIP3    H174360   2.397   3.012   4.948 -0.1554  1.9628 -2.2245
17623TIP3    H274361   2.433   2.878   4.887  0.8857  1.2886 -0.2515
17624TIP3   OH274362   2.608   1.116  16.471 -0.5521  0.3879 -0.1083
17624TIP3    H174363   2.621   1.128  16.565 -1.2964  0.4633 -0.0069
17624TIP3    H274364   2.534   1.056  16.465 -0.7062  0.6307 -0.6531
17625TIP3   OH274365   1.053   3.033   3.051 -0.4124 -0.3785 -0.2530
17625TIP3    H174366   1.001   2.989   3.118 -1.0507 -0.5468 -0.8422
17625TIP3    H274367   0.998   3.030   2.973  1.3257 -2.5635 -1.5380
17626TIP3   OH274368   4.645   4.265   6.171  0.6680  0.1611 -0.0743
17626TIP3    H174369   4.557   4.302   6.180  0.1465 -0.9580 -0.4015
17626TIP3    H274370   4.647   4.194   6.234  2.0187  1.3443  1.2899
17627TIP3   OH274371   1.684   3.752   6.067  0.2563 -0.1793  0.0161
17627TIP3    H174372   1.600   3.793   6.088 -0.3916 -0.7673 -1.2554
17627TIP3    H274373   1.720   3.724   6.151 -2.0965 -2.3152  0.4167
17628TIP3   OH274374   6.708   2.518   4.285 -0.8492 -0.4406  0.1846
17628TIP3    H174375   6.666   2.572   4.217  0.8430  0.5274 -0.1621
17628TIP3    H274376   6.644   2.449   4.304 -3.0765  1.5702  0.5320
17629TIP3   OH274377   1.046   3.204   5.003 -0.1896  0.4920  0.7921
17629TIP3    H174378   1.044   3.165   5.091  0.3685  0.1683  0.6665
17629TIP3    H274379   0.955   3.200   4.974 -0.6636  2.0286  1.9551
17630TIP3   OH274380   2.073   1.827  16.996  0.0148 -0.1683 -0.1474
17630TIP3    H174381   2.163   1.808  17.025  1.0522  2.2481 -1.4981
17630TIP3    H274382   2.038   1.741  16.972  0.4966 -1.7660  4.0007
17631TIP3   OH274383   4.060   6.230  11.390 -0.1010 -0.1153 -0.4434
17631TIP3    H174384   4.000   6.160  11.364  0.6733 -0.6019 -0.9320
17631TIP3    H274385   4.116   6.243  11.314  0.0984  0.6826 -0.1684
17632TIP3   OH274386   2.246   0.240  14.512 -0.2308 -0.5838  0.1872
17632TIP3    H174387   2.235   0.207  14.601 -0.5110 -0.4916  0.1884
17632TIP3    H274388   2.305   0.177  14.470 -0.7976 -1.1247  0.1771
17633TIP3   OH274389   2.217   6.543  10.674 -0.8273  0.4285  0.5980
17633TIP3    H174390   2.152   6.548  10.604  0.7820  0.4078 -0.9825
17633TIP3    H274391   2.241   6.450  10.679  0.2845  0.6580 -0.0435
17634TIP3   OH274392   1.979   6.017   3.039 -0.2353  0.2065  0.7504
17634TIP3    H174393   2.004   5.995   2.950 -1.5697 -0.3356  0.4859
17634TIP3    H274394   2.013   5.946   3.093  1.7674  1.2142  0.8938
17635TIP3   OH274395   6.419   5.829   0.075 -0.3259  0.4076 -0.1056
17635TIP3    H174396   6.487   5.864   0.133  0.3735  1.5012 -1.5322
17635TIP3    H274397   6.454   5.745   0.045 -0.8925 -0.3846  1.3690
17636TIP3   OH274398   3.051   3.300   6.245 -0.0659 -0.3224  0.2347
17636TIP3    H174399   2.998   3.221   6.258 -1.5902  0.9380  2.2423
17636TIP3    H274400   3.098   3.311   6.327  1.3555  0.0416 -0.5924
17637TIP3   OH274401   5.819   0.852   2.333  0.0078  0.5874  0.4149
17637TIP3    H174402   5.890   0.833   2.395  1.1423  1.5798 -0.5413
17637TIP3    H274403   5.846   0.811   2.252 -2.4532 -2.5683  0.9690
17638TIP3   OH274404   6.268   2.563  17.480 -0.1618 -0.2171 -0.6434
17638TIP3    H174405   6.352   2.541  17.442 -0.6136 -0.1125 -1.7533
17638TIP3    H274406   6.244   2.647  17.439  0.0771  0.7696  1.1162
17639TIP3   OH274407   1.646   4.659   2.298 -0.3127 -0.2847  0.2668
17639TIP3    H174408   1.713   4.700   2.243 -1.0283 -0.8021 -1.0412
17639TIP3    H274409   1.655   4.702   2.383 -0.1419  1.6053 -0.6460
17640TIP3   OH274410   4.459   2.862  12.964  0.3253  0.2503  0.3985
17640TIP3    H174411   4.512   2.827  13.035  2.3243  2.2817  0.0440
17640TIP3    H274412   4.441   2.953  12.989  0.4525  0.7972 -1.3115
17641TIP3   OH274413   4.233   6.493  13.029 -0.1072  0.4397 -0.3896
17641TIP3    H174414   4.185   6.440  13.093 -1.4875  0.3540 -1.4391
17641TIP3    H274415   4.302   6.435  12.997 -1.1776 -0.5395 -1.0295
17642TIP3   OH274416   0.168   3.704  13.971 -0.9372 -0.4478 -0.5277
17642TIP3    H174417   0.215   3.756  13.906 -1.7867 -1.6593 -2.1955
17642TIP3    H274418   0.226   3.630  13.990 -0.5740  0.0428  0.3365
17643TIP3   OH274419   5.254   2.128   4.332 -0.2844 -0.0806  0.1252
17643TIP3    H174420   5.342   2.130   4.370 -0.0421 -0.9744 -0.3470
17643TIP3    H274421   5.212   2.208   4.364  1.0921  0.9810 -0.6170
17644TIP3   OH274422   4.433   5.449   0.725 -0.3651  0.1033  0.6736
17644TIP3    H174423   4.448   5.529   0.775  0.9865 -0.5096  1.3036
17644TIP3    H274424   4.521   5.415   0.706 -0.8850 -0.5617 -0.6916
17645TIP3   OH274425   6.626   4.044   4.365  0.5633 -0.1630  0.0078
17645TIP3    H174426   6.540   4.051   4.408  0.6929 -1.9984  0.6470
17645TIP3    H274427   6.630   3.954   4.334  1.3133  0.5629 -2.1564
17646TIP3   OH274428   1.935   2.424   4.666 -0.1622 -0.0226 -0.0506
17646TIP3    H174429   1.843   2.444   4.648  0.3031  1.5124 -0.9482
17646TIP3    H274430   1.980   2.508   4.656  1.2982 -0.6774  0.7150
17647TIP3   OH274431   5.263   3.646  15.869 -0.0798 -0.0797  0.4237
17647TIP3    H174432   5.258   3.741  15.879 -0.1291  0.0091 -0.3632
17647TIP3    H274433   5.246   3.631  15.776  1.1633 -0.7712  0.2853
17648TIP3   OH274434   1.898   0.435   6.129 -0.1387 -0.0272  0.3341
17648TIP3    H174435   1.838   0.509   6.120 -0.6855 -0.5158 -0.0415
17648TIP3    H274436   1.858   0.379   6.196 -0.0381 -0.2930  0.1726
17649TIP3   OH274437   0.241   2.933  15.535 -0.1357 -0.1887  0.1405
17649TIP3    H174438   0.166   2.888  15.496  0.0158 -0.8263  0.5616
17649TIP3    H274439   0.228   3.025  15.513  0.1987 -0.5573 -1.8286
17650TIP3   OH274440   4.563   2.301  15.534  0.2246  0.2134  0.1338
17650TIP3    H174441   4.474   2.315  15.565  0.7058  1.7475  0.9156
17650TIP3    H274442   4.616   2.362  15.584  2.2982 -3.0655  2.3388
17651TIP3   OH274443   0.292   5.498   2.187 -0.2816  0.0220 -0.5202
17651TIP3    H174444   0.256   5.410   2.180  1.4320 -0.6783 -1.2983
17651TIP3    H274445   0.240   5.541   2.254 -2.3442 -0.9596 -1.4243
17652TIP3   OH274446   1.351   2.993   2.594  0.3502  0.6796 -0.2064
17652TIP3    H174447   1.343   2.912   2.644 -1.1730  0.6392 -0.4656
17652TIP3    H274448   1.395   3.054   2.653 -0.7708  0.4152  0.9482
17653TIP3   OH274449   3.411   3.567   3.184  0.4102  0.2432 -0.7498
17653TIP3    H174450   3.429   3.612   3.102  0.4272 -0.2702 -1.0358
17653TIP3    H274451   3.495   3.527   3.208  0.1696 -0.4415 -1.0124
17654TIP3   OH274452   5.020   6.698   0.420  0.2551  0.1821 -0.0604
17654TIP3    H174453   5.062   6.747   0.349  0.4611  0.3288  0.1610
17654TIP3    H274454   4.997   6.614   0.380  0.7938  0.0837 -0.1780
17655TIP3   OH274455   0.618   0.115  11.723 -0.3058 -0.0479 -0.1603
17655TIP3    H174456   0.557   0.057  11.768  0.1648 -1.0862 -0.8083
17655TIP3    H274457   0.597   0.105  11.630 -0.4099  1.0694 -0.2728
17656TIP3   OH274458   1.027   5.369  10.705  0.3226 -0.1457  0.4678
17656TIP3    H174459   0.993   5.287  10.740 -0.6118  1.1520  2.8564
17656TIP3    H274460   0.951   5.412  10.667 -0.1752  1.3171  2.8807
17657TIP3   OH274461   2.297   3.832  14.937  0.6515 -0.1857 -0.5362
17657TIP3    H174462   2.279   3.840  15.031  1.8093 -0.2230 -0.2975
17657TIP3    H274463   2.385   3.868  14.926  0.0338  1.0102 -1.8240
17658TIP3   OH274464   1.857   1.893   0.402  0.5101  0.6255 -0.1781
17658TIP3    H174465   1.914   1.822   0.372  0.9527  0.7222  0.4107
17658TIP3    H274466   1.879   1.904   0.494 -0.5334  0.6057  0.0858
17659TIP3   OH274467   4.930   6.444   3.132  0.0680  0.1055 -0.0628
17659TIP3    H174468   4.993   6.414   3.198 -0.7212  0.0578  0.6914
17659TIP3    H274469   4.901   6.530   3.163 -0.4955 -0.0257 -0.2050
17660TIP3   OH274470   3.213   3.311   6.492 -0.3803  0.1945 -0.0896
17660TIP3    H174471   3.276   3.284   6.559 -0.7924 -1.3996 -0.2952
17660TIP3    H274472   3.168   3.386   6.529 -1.4305 -1.3584  1.9736
17661TIP3   OH274473   1.654   2.499  14.194  0.6877 -0.8332 -0.0620
17661TIP3    H174474   1.562   2.480  14.178  0.6641 -0.5327 -0.3049
17661TIP3    H274475   1.668   2.476  14.285  0.5055 -1.3871 -0.1680
17662TIP3   OH274476   5.007   1.805  15.053 -0.4409  0.4712  0.3161
17662TIP3    H174477   5.044   1.872  14.996 -0.3825  0.3297  0.1908
17662TIP3    H274478   4.965   1.742  14.994 -2.0207  1.2990  0.4831
17663TIP3   OH274479   1.192   4.126  12.041 -0.0663  0.1488 -0.2556
17663TIP3    H174480   1.206   4.191  11.973  1.7847  1.1713  1.0434
17663TIP3    H274481   1.270   4.129  12.095 -1.7847 -0.0020  2.4460
17664TIP3   OH274482   5.736   4.954   5.284  0.2528 -0.0011  0.5028
17664TIP3    H174483   5.745   4.960   5.379  1.0037  0.9549  0.3958
17664TIP3    H274484   5.818   4.913   5.255  0.6687  0.9991  0.1794
17665TIP3   OH274485   0.516   2.806  14.560  0.6041  0.4377  0.4050
17665TIP3    H174486   0.564   2.749  14.500  1.4461  1.1222  0.4196
17665TIP3    H274487   0.582   2.862  14.599  0.1062 -0.0793  2.1066
17666TIP3   OH274488   4.114   6.675  11.220 -0.0763 -0.4745 -0.0174
17666TIP3    H174489   4.159   6.591  11.212 -0.1917 -0.3715 -2.3462
17666TIP3    H274490   4.149   6.728  11.149 -0.0659  1.4565  1.3642
17667TIP3   OH274491   0.908   4.708  14.783 -0.0394 -0.3400  0.1792
17667TIP3    H174492   0.878   4.720  14.873 -1.2016 -1.4711 -0.0315
17667TIP3    H274493   0.993   4.665  14.791 -0.1516 -0.4666  0.7243
17668TIP3   OH274494   5.183   4.443  12.259  0.0949 -0.5249  0.2750
17668TIP3    H174495   5.194   4.361  12.211  0.1713 -1.3130  1.5820
17668TIP3    H274496   5.227   4.427  12.343  0.8165  1.1396  0.2474
17669TIP3   OH274497   0.713   5.926  17.180  0.7680  0.6083  0.1183
17669TIP3    H174498   0.755   5.852  17.135  2.7313  1.3023  0.6732
17669TIP3    H274499   0.768   6.001  17.156  0.4968  1.3865  1.8104
17670TIP3   OH274500   5.895   6.065  12.709 -0.6143 -0.3263  0.3559
17670TIP3    H174501   5.920   6.082  12.800  0.0181 -0.0472  0.1342
17670TIP3    H274502   5.886   6.152  12.670  3.0858 -0.3318 -0.9062
17671TIP3   OH274503   4.053   5.222  13.594 -0.9883 -0.2426 -0.6289
17671TIP3    H174504   4.022   5.293  13.538 -0.6251 -0.0809 -0.6226
17671TIP3    H274505   3.972   5.177  13.621 -1.3005  0.7369  0.1292
17672TIP3   OH274506   3.753   0.296   3.699 -0.1406 -0.4508 -0.3942
17672TIP3    H174507   3.784   0.260   3.616  1.9896 -0.6265  0.4061
17672TIP3    H274508   3.669   0.251   3.715  0.5792 -2.2235 -1.2775
17673TIP3   OH274509   5.897   0.430  16.585 -0.1731  0.2142  0.1566
17673TIP3    H174510   5.865   0.413  16.496  1.2680  0.2011 -0.3765
17673TIP3    H274511   5.984   0.391  16.587 -0.4294 -0.3280  1.7855
17674TIP3   OH274512   1.758   3.572   1.416  0.0234 -0.1523 -0.1144
17674TIP3    H174513   1.760   3.479   1.440 -0.2503 -0.3533 -0.8590
17674TIP3    H274514   1.850   3.593   1.397  0.0992 -0.2411  0.1437
17675TIP3   OH274515   6.029   6.566  17.223  0.6856 -0.2491 -0.0210
17675TIP3    H174516   5.976   6.540  17.298 -0.0404  2.0230  0.3508
17675TIP3    H274517   5.976   6.544  17.147 -0.7905  1.7625  0.3422
17676TIP3   OH274518   1.976   4.426   2.174  0.4534  0.7055 -0.0136
17676TIP3    H174519   1.922   4.485   2.122  1.7079  1.4225 -0.5722
17676TIP3    H274520   1.937   4.427   2.261 -0.9235  0.4989 -0.6104
17677TIP3   OH274521   1.904   1.941  16.802 -0.1786 -0.6211 -0.2865
17677TIP3    H174522   1.979   1.935  16.862  0.3203  2.8487 -0.3778
17677TIP3    H274523   1.911   1.863  16.747  3.3385 -0.5307 -0.2081
17678TIP3   OH274524   5.943   0.696   6.081 -0.0915 -0.5662 -0.1430
17678TIP3    H174525   5.938   0.711   6.176 -0.5637 -0.5631 -0.1684
17678TIP3    H274526   5.926   0.782   6.043  0.4871 -0.4862 -0.2254
17679TIP3   OH274527   6.240   3.481  14.991 -0.2351  0.4860  0.0370
17679TIP3    H174528   6.277   3.495  15.079  0.5006 -0.5207 -0.0975
17679TIP3    H274529   6.196   3.564  14.971 -1.3493  0.3667  1.7824
17680TIP3   OH274530   5.025   3.042   3.156 -0.1557  0.3499 -0.6980
17680TIP3    H174531   5.020   3.137   3.167 -0.0828  0.2438  0.3562
17680TIP3    H274532   4.937   3.011   3.175 -0.8398  0.3877 -3.3994
17681TIP3   OH274533   4.423   5.458   5.153  0.4910 -0.5822  0.2273
17681TIP3    H174534   4.503   5.511   5.157  0.1147 -0.0183  0.3774
17681TIP3    H274535   4.450   5.372   5.187  1.0902 -0.4755  0.0417
17682TIP3   OH274536   5.517   0.789  13.854 -0.3419 -0.6795 -0.0664
17682TIP3    H174537   5.610   0.809  13.840 -0.6542  0.4730 -0.6336
17682TIP3    H274538   5.518   0.713  13.912  0.9620 -1.6778 -1.3186
17683TIP3   OH274539   0.152   5.489  16.658  0.5317  0.3929  0.5989
17683TIP3    H174540   0.238   5.448  16.663  0.7009  0.5646 -0.5631
17683TIP3    H274541   0.157   5.564  16.716  1.9532  1.7316 -1.1640
17684TIP3   OH274542   3.177   5.725  14.596 -0.1821  0.2738 -0.3639
17684TIP3    H174543   3.174   5.815  14.627 -0.1431 -0.1710  0.9691
17684TIP3    H274544   3.086   5.704  14.576 -0.0546  0.9772 -1.8650
17685TIP3   OH274545   2.268   0.006  12.748  0.2851 -0.1954 -0.2706
17685TIP3    H174546   2.334  -0.032  12.806 -0.7204 -0.4821  0.7405
17685TIP3    H274547   2.186  -0.036  12.775 -0.6950  1.8789  0.1735
17686TIP3   OH274548   0.842   0.692   1.986 -0.1734  0.6379 -0.3542
17686TIP3    H174549   0.822   0.779   1.951  0.5904  1.6504  1.5784
17686TIP3    H274550   0.932   0.700   2.019 -0.6581 -0.3840  1.2942
17687TIP3   OH274551   0.451   5.661  13.720 -0.4477 -0.0841 -0.0046
17687TIP3    H174552   0.437   5.570  13.748  1.5622 -0.1208  1.0307
17687TIP3    H274553   0.498   5.654  13.638 -0.5249  0.0294 -0.0591
17688TIP3   OH274554   3.192   6.100  17.327  0.0360 -0.1436 -0.0564
17688TIP3    H174555   3.243   6.168  17.283 -0.8348  0.9159  0.5112
17688TIP3    H274556   3.104   6.137  17.334 -1.1994 -2.3971 -2.1156
17689TIP3   OH274557   0.219   5.374  14.083  0.8785  0.2532  0.5188
17689TIP3    H174558   0.180   5.321  14.153  0.8201  1.1414  1.1712
17689TIP3    H274559   0.281   5.431  14.127  0.3681  1.2836 -0.0525
17690TIP3   OH274560   2.029   4.392   5.989 -0.0829  0.0927  0.0985
17690TIP3    H174561   1.962   4.442   5.944  0.0274 -0.1540 -0.3435
17690TIP3    H274562   2.030   4.427   6.078  0.6924  1.5738 -0.4608
17691TIP3   OH274563   3.151   3.072  14.512  0.2998  0.2342 -0.2058
17691TIP3    H174564   3.243   3.091  14.494 -0.1786  0.9175 -2.1224
17691TIP3    H274565   3.130   2.999  14.453 -0.9148  1.4580 -1.3412
17692TIP3   OH274566   6.586   1.780  16.857  0.8079  0.2379 -0.2800
17692TIP3    H174567   6.492   1.783  16.840  0.6677  1.6389  0.5457
17692TIP3    H274568   6.620   1.861  16.819  1.5724  0.0607  0.0002
17693TIP3   OH274569   2.360   2.723  11.711  0.6679 -0.4966 -0.5303
17693TIP3    H174570   2.352   2.722  11.806 -1.3336 -3.1102 -0.6083
17693TIP3    H274571   2.430   2.662  11.692 -0.2825 -1.5611 -0.7371
17694TIP3   OH274572   4.055   2.946   2.516  0.9533 -0.2278 -0.5620
17694TIP3    H174573   3.981   2.887   2.532  1.1345 -0.2479  0.2458
17694TIP3    H274574   4.132   2.890   2.524  1.0636 -0.2037 -1.3883
17695TIP3   OH274575   1.439   5.548  10.883  0.3620 -0.8468 -0.4167
17695TIP3    H174576   1.385   5.511  10.814 -1.2624 -0.1506  0.4063
17695TIP3    H274577   1.479   5.473  10.926 -0.8777 -1.5043 -0.3519
17696TIP3   OH274578   5.962   5.276   5.595  0.0921 -0.4829 -0.1125
17696TIP3    H174579   6.034   5.334   5.619 -1.1042  0.7666  0.6386
17696TIP3    H274580   5.960   5.210   5.665 -1.2680  1.1856  1.5178
17697TIP3   OH274581   2.132   1.843   3.296  0.2054  0.1728  0.1191
17697TIP3    H174582   2.200   1.788   3.336 -1.5687 -0.8849  1.8369
17697TIP3    H274583   2.130   1.816   3.205  1.0519 -0.8386  0.3821
17698TIP3   OH274584   4.863   4.042   2.653 -0.6206  0.2657 -0.0013
17698TIP3    H174585   4.927   3.972   2.670 -2.0915 -1.1058  0.1894
17698TIP3    H274586   4.880   4.106   2.722  0.0396 -0.4516  0.5318
17699TIP3   OH274587   0.272   2.493  14.211 -0.7803  0.0463 -0.4939
17699TIP3    H174588   0.352   2.540  14.189 -1.1607  0.9084 -0.0580
17699TIP3    H274589   0.203   2.559  14.209 -1.2451 -0.3715  0.6077
17700TIP3   OH274590   0.245   0.666  13.184 -0.2290  0.7697 -0.1172
17700TIP3    H174591   0.287   0.722  13.249 -0.7067  0.6290  0.3172
17700TIP3    H274592   0.260   0.577  13.216  0.0255  0.6712 -0.5031
17701TIP3   OH274593   3.004   3.987  13.691 -0.2142 -0.2847 -0.4418
17701TIP3    H174594   3.048   3.948  13.616  0.1110 -0.4903 -0.1434
17701TIP3    H274595   3.044   4.074  13.700 -0.0703 -0.3609 -0.3461
17702TIP3   OH274596   2.479   3.765   1.744  0.5795  0.4990  0.5176
17702TIP3    H174597   2.507   3.791   1.832 -0.0070  2.0382  0.2930
17702TIP3    H274598   2.561   3.749   1.696  0.8918 -0.7844  1.4402
17703TIP3   OH274599   4.728   3.585   6.210 -0.8134 -0.8454  0.2706
17703TIP3    H174600   4.710   3.637   6.289 -2.3680 -1.6135  0.4514
17703TIP3    H274601   4.652   3.600   6.153  0.1425 -0.5409 -0.9845
17704TIP3   OH274602   1.389   4.126  13.767  0.2350  0.4439  0.4830
17704TIP3    H174603   1.445   4.097  13.839 -0.2551  1.1753  1.1786
17704TIP3    H274604   1.330   4.052  13.752  0.2920  0.3117  0.8915
17705TIP3   OH274605   3.776   5.896  17.482  0.7755  0.0109  0.0641
17705TIP3    H174606   3.748   5.980  17.446 -1.0140 -1.6332 -2.6845
17705TIP3    H274607   3.868   5.889  17.457  1.1591  1.3923  0.9468
17706TIP3   OH274608   6.603   6.231   3.990 -0.2255  0.6789  0.3889
17706TIP3    H174609   6.582   6.175   3.915 -0.9823 -0.6811  1.5776
17706TIP3    H274610   6.520   6.273   4.013 -0.6536 -1.0143  2.1199
17707TIP3   OH274611   5.009   0.856   2.626 -0.0424  0.3455 -0.4632
17707TIP3    H174612   5.030   0.817   2.541  0.0395 -0.0808 -0.2515
17707TIP3    H274613   4.969   0.940   2.605  1.2607  0.8749 -0.9008
17708TIP3   OH274614   5.225   6.536   4.216 -0.2436  0.0158 -0.4210
17708TIP3    H174615   5.276   6.567   4.142 -0.8215 -0.0106 -0.8448
17708TIP3    H274616   5.288   6.490   4.272 -0.1278 -1.7370 -1.8976
17709TIP3   OH274617   4.675   0.472   4.028  0.6310  0.1002  0.6786
17709TIP3    H174618   4.721   0.408   4.084  1.0948 -0.6565 -0.5379
17709TIP3    H274619   4.745   0.522   3.987  0.3150  0.1514  0.2034
17710TIP3   OH274620   1.910   2.519  11.204  0.3594  0.5889  0.3272
17710TIP3    H174621   1.926   2.519  11.109 -1.0999 -0.8138  0.0261
17710TIP3    H274622   1.954   2.441  11.236 -1.5680 -0.5962  0.2651
17711TIP3   OH274623   4.545   2.293   3.838  0.7555 -0.5154 -0.1957
17711TIP3    H174624   4.500   2.373   3.866  2.6979  0.3304  0.6994
17711TIP3    H274625   4.533   2.232   3.912 -1.0378 -1.2623 -1.0263
17712TIP3   OH274626   5.760   5.351  13.488  0.3996  0.3450  0.1478
17712TIP3    H174627   5.816   5.385  13.418 -0.5693 -0.5112 -1.0880
17712TIP3    H274628   5.821   5.316  13.553  1.3119 -0.7713 -1.2606
17713TIP3   OH274629   4.589   3.847   5.745  0.2103 -0.1398 -0.2692
17713TIP3    H174630   4.541   3.775   5.705 -0.0086  0.4915 -1.1770
17713TIP3    H274631   4.678   3.814   5.757  0.2844 -0.3361 -1.3208
17714TIP3   OH274632   1.308   5.516  16.089  0.6070  0.7373 -0.0945
17714TIP3    H174633   1.367   5.507  16.014 -0.4663 -1.5659 -0.7462
17714TIP3    H274634   1.319   5.434  16.138 -2.5249 -0.1376 -0.6395
17715TIP3   OH274635   3.387   4.795  16.268  0.4683  0.2762 -0.2950
17715TIP3    H174636   3.470   4.812  16.313  0.2270  1.8744 -0.3838
17715TIP3    H274637   3.353   4.882  16.247 -1.9560 -0.2437  1.0750
17716TIP3   OH274638   5.688   6.085  14.793  0.0355  0.1288  0.7998
17716TIP3    H174639   5.693   6.165  14.741 -2.9734  0.6843  1.2157
17716TIP3    H274640   5.780   6.063  14.812  1.0954  1.5429 -2.1517
17717TIP3   OH274641   0.266   1.856  11.776 -0.2605 -0.3602  0.5357
17717TIP3    H174642   0.293   1.901  11.696 -0.4958  0.2287  0.7835
17717TIP3    H274643   0.249   1.926  11.839 -1.8337 -0.7340  0.5608
17718TIP3   OH274644   1.753   5.697  12.340 -0.0729  0.4826  0.8370
17718TIP3    H174645   1.839   5.671  12.307 -0.7000 -2.1230  1.0507
17718TIP3    H274646   1.692   5.637  12.298 -1.9458  2.7195  0.1287
17719TIP3   OH274647   2.871   5.561   4.090 -0.1355  0.1494 -0.1957
17719TIP3    H174648   2.903   5.500   4.157 -0.5434  0.1672  0.0163
17719TIP3    H274649   2.948   5.614   4.067  0.6776 -1.5393 -1.6158
17720TIP3   OH274650   5.076   2.343  16.681 -0.0899 -0.5200 -0.7684
17720TIP3    H174651   5.079   2.326  16.775  2.0825 -2.1189 -1.0598
17720TIP3    H274652   5.025   2.270  16.645 -2.2148  0.8791 -0.7439
17721TIP3   OH274653   2.135   1.301   4.077  0.5296 -0.0141 -0.0689
17721TIP3    H174654   2.200   1.354   4.124  0.4891  0.0373 -0.0714
17721TIP3    H274655   2.052   1.319   4.121  0.9286 -2.2248  1.7559
17722TIP3   OH274656   1.401   6.320  16.704 -0.2458 -0.0295  0.0796
17722TIP3    H174657   1.384   6.258  16.775 -0.8832  0.9251  0.7838
17722TIP3    H274658   1.444   6.268  16.636 -2.5007 -1.6839 -0.1861
17723TIP3   OH274659   3.244   0.165  15.575 -0.2849  0.0898  0.6737
17723TIP3    H174660   3.261   0.160  15.481 -0.0889 -1.5785  0.7588
17723TIP3    H274661   3.262   0.256  15.598  2.2798 -0.0625 -0.4144
17724TIP3   OH274662   5.192   0.930   1.889  0.1779  0.4782  0.5028
17724TIP3    H174663   5.227   0.844   1.913 -1.6854 -0.3958  0.2750
17724TIP3    H274664   5.230   0.948   1.803  1.2850  0.3211  0.9427
17725TIP3   OH274665   2.271   6.079   5.376 -0.1536 -0.5866  0.3964
17725TIP3    H174666   2.289   6.087   5.470 -1.9828 -0.4576  0.7738
17725TIP3    H274667   2.259   5.985   5.362 -0.8759 -0.5161  0.5084
17726TIP3   OH274668   4.229   0.062  11.031  0.0690 -0.4278 -0.4381
17726TIP3    H174669   4.324   0.067  11.037  0.1986  0.0309 -2.2894
17726TIP3    H274670   4.201   0.154  11.021 -0.5283 -0.5884 -0.2906
17727TIP3   OH274671   6.756   2.351  12.915  0.5595 -0.2154  0.4805
17727TIP3    H174672   6.748   2.293  12.991 -0.8783 -0.7588 -0.0673
17727TIP3    H274673   6.818   2.419  12.944 -0.8051  0.2374  2.5740
17728TIP3   OH274674   0.601   6.132  11.591 -0.9446  0.1180  0.2114
17728TIP3    H174675   0.528   6.178  11.550 -0.4822  0.0036 -0.7754
17728TIP3    H274676   0.671   6.135  11.526 -0.2500 -0.2573  0.9193
17729TIP3   OH274677   3.668   0.161   0.788 -0.1383  0.1052  0.3023
17729TIP3    H174678   3.597   0.169   0.852 -0.5330 -0.3344 -0.0752
17729TIP3    H274679   3.690   0.068   0.787 -0.8993 -0.0940 -0.9865
17730TIP3   OH274680   0.143   4.954   2.215  0.0871 -1.0933 -0.2394
17730TIP3    H174681   0.093   4.894   2.160 -0.1266 -0.1240 -1.1372
17730TIP3    H274682   0.085   5.029   2.228 -0.3339 -1.7937  2.3451
17731TIP3   OH274683   4.145   4.707  11.964 -0.3142  0.6688 -0.2903
17731TIP3    H174684   4.193   4.630  11.993  0.7551  0.9086 -1.3587
17731TIP3    H274685   4.134   4.760  12.044  0.7093  0.3387  0.0868
17732TIP3   OH274686   3.006   6.690  11.984 -0.0399 -0.6738  0.7685
17732TIP3    H174687   3.092   6.725  11.962 -0.6683  0.7190  0.4169
17732TIP3    H274688   2.963   6.761  12.032 -1.8749 -0.3427 -1.2113
17733TIP3   OH274689   4.201   3.923  13.568  0.0164  0.3092 -0.3095
17733TIP3    H174690   4.212   3.929  13.663 -0.0974 -0.8337 -0.2130
17733TIP3    H274691   4.171   4.011  13.542 -0.0164  0.6147  0.7097
17734TIP3   OH274692   1.052   2.173  10.905  0.1817  0.3530 -0.2606
17734TIP3    H174693   1.122   2.110  10.924  0.1064  0.8120  1.6784
17734TIP3    H274694   1.011   2.139  10.825  0.1493 -2.0919  0.7041
17735TIP3   OH274695   2.822   3.534   4.788 -0.0017 -0.2417 -0.6650
17735TIP3    H174696   2.774   3.463   4.746  0.7610 -2.0848  1.3952
17735TIP3    H274697   2.755   3.593   4.820 -0.7914 -1.3839 -0.1661
17736TIP3   OH274698   5.096   5.272  10.862 -0.2371  0.0515 -0.4681
17736TIP3    H174699   5.121   5.305  10.776 -0.2762  1.1133 -0.0960
17736TIP3    H274700   5.173   5.288  10.917  0.1697 -1.5651 -0.5208
17737TIP3   OH274701   5.842   6.343  13.143  0.0017  0.1212  0.4201
17737TIP3    H174702   5.861   6.275  13.078  3.5024  1.8131 -0.5245
17737TIP3    H274703   5.806   6.295  13.217  0.1467 -2.4606 -1.0553
17738TIP3   OH274704   5.333   3.491   1.190 -0.1651  0.1820  0.4942
17738TIP3    H174705   5.419   3.483   1.230  0.1943 -0.2057 -0.3465
17738TIP3    H274706   5.284   3.549   1.250  0.2864 -0.5291  1.5840
17739TIP3   OH274707   3.849   0.905   6.947  0.4803  0.3255  0.0110
17739TIP3    H174708   3.833   0.884   6.855  0.5197 -1.5856  0.3817
17739TIP3    H274709   3.879   0.822   6.985 -2.1089  0.3100  2.3471
17740TIP3   OH274710   2.859   1.039   4.759  0.0038  0.6322  0.0771
17740TIP3    H174711   2.933   1.071   4.812 -0.5809  0.1738  1.2176
17740TIP3    H274712   2.785   1.039   4.820 -0.7800  0.3879 -0.8514
17741TIP3   OH274713   4.055   0.630  13.521  0.2735  0.1397 -0.1523
17741TIP3    H174714   3.963   0.602  13.522 -0.0397  1.0584 -1.2928
17741TIP3    H274715   4.104   0.550  13.506 -0.3384 -0.3509  0.3785
17742TIP3   OH274716   5.981   2.668   3.612  0.4221 -0.2029  0.0731
17742TIP3    H174717   5.964   2.611   3.537  0.0043 -1.2906  0.9621
17742TIP3    H274718   6.042   2.618   3.667  1.0674  0.7598  0.2597
17743TIP3   OH274719   1.269   3.855   2.397 -0.1088  0.1333  0.0917
17743TIP3    H174720   1.183   3.838   2.434 -0.4551 -0.5915 -1.0140
17743TIP3    H274721   1.325   3.870   2.473 -1.1357  0.3298  0.8345
17744TIP3   OH274722   5.844   5.471   5.056  0.1810  0.6977  0.2549
17744TIP3    H174723   5.880   5.383   5.051  0.4104  0.7688  0.6299
17744TIP3    H274724   5.786   5.478   4.980 -1.2645 -0.4282  1.1877
17745TIP3   OH274725   2.191   2.538   2.676  0.0029 -0.0307  0.0232
17745TIP3    H174726   2.153   2.487   2.604  0.3233  0.9594 -0.8778
17745TIP3    H274727   2.279   2.503   2.686 -0.0669 -0.2184 -0.0104
17746TIP3   OH274728   0.449   0.315   3.141  0.6506 -0.3622  0.2533
17746TIP3    H174729   0.456   0.374   3.066  0.2594 -0.4709  0.1335
17746TIP3    H274730   0.533   0.325   3.186  0.5295  0.3983  0.3184
17747TIP3   OH274731   4.937   6.344   0.020 -0.4296 -0.6887  0.2828
17747TIP3    H174732   5.020   6.345  -0.027  0.0805  1.6147  1.1016
17747TIP3    H274733   4.875   6.306  -0.042  1.0381 -1.6838 -0.6419
17748TIP3   OH274734   2.333   4.377   5.558 -0.0445 -0.1610  0.2469
17748TIP3    H174735   2.400   4.381   5.490  0.4743 -1.4957  0.6504
17748TIP3    H274736   2.268   4.442   5.532  0.8345  0.3363 -0.7672
17749TIP3   OH274737   0.586   5.006   4.708 -0.2830  0.1601 -0.1030
17749TIP3    H174738   0.598   4.965   4.622  1.4876  1.2835 -0.4400
17749TIP3    H274739   0.636   4.951   4.768 -2.8201 -1.5718  0.5989
17750TIP3   OH274740   1.693   2.711   3.311  0.2666  0.0576  0.3084
17750TIP3    H174741   1.766   2.718   3.249  0.5052  0.8550  0.6608
17750TIP3    H274742   1.620   2.753   3.266  0.6921  1.5225  0.9179
17751TIP3   OH274743   1.044   6.119   5.026  0.7258  0.4010  0.0579
17751TIP3    H174744   1.130   6.149   4.996  1.1952 -0.9425 -0.0281
17751TIP3    H274745   0.981   6.162   4.968  1.4252  0.4478 -0.6803
17752TIP3   OH274746   3.513   1.431   4.484  0.2247 -0.0016 -0.2509
17752TIP3    H174747   3.517   1.516   4.529 -0.5854  1.1531 -2.2616
17752TIP3    H274748   3.589   1.431   4.426 -0.2953 -0.2218 -0.9462
17753TIP3   OH274749   4.573   0.627   2.064 -0.0267  0.7840  0.1126
17753TIP3    H174750   4.622   0.567   2.119 -0.5623 -0.0402 -0.2965
17753TIP3    H274751   4.640   0.675   2.015  0.3903 -0.2017 -0.3088
17754TIP3   OH274752   5.808   3.833   3.972 -0.1840 -0.0434 -0.0157
17754TIP3    H174753   5.834   3.743   3.954  0.6176  0.2964 -0.6076
17754TIP3    H274754   5.846   3.853   4.057 -1.6808 -0.7575  0.8646
17755TIP3   OH274755   4.931   3.150   0.689  0.0050 -0.5071 -0.4451
17755TIP3    H174756   5.023   3.132   0.668  0.3010 -0.6712  0.8934
17755TIP3    H274757   4.934   3.186   0.778 -1.1768  0.0853 -0.6245
17756TIP3   OH274758   4.518   2.154   4.077 -0.1593  0.1940  0.4813
17756TIP3    H174759   4.451   2.131   4.142 -0.2333 -0.5617  0.1491
17756TIP3    H274760   4.578   2.080   4.077  1.4745  1.4523  1.7505
17757TIP3   OH274761   4.119   5.429   3.178 -0.3291 -0.1128  0.1210
17757TIP3    H174762   4.068   5.418   3.098  0.1578 -1.1643 -0.0677
17757TIP3    H274763   4.158   5.516   3.170  0.2087 -0.4384 -1.0853
17758TIP3   OH274764   3.568   3.071  11.900 -0.4278 -0.1819 -0.2578
17758TIP3    H174765   3.650   3.111  11.871  1.0493 -1.2608  2.1200
17758TIP3    H274766   3.579   2.977  11.884 -1.6020 -0.2545 -0.7583
17759TIP3   OH274767   3.475   3.920   6.788 -0.3112 -0.5293 -0.4777
17759TIP3    H174768   3.495   3.828   6.770 -0.7966 -0.9789  1.1748
17759TIP3    H274769   3.550   3.952   6.838 -0.6759 -0.3715 -0.0184
17760TIP3   OH274770   4.126   4.180  13.517  0.4118 -0.3873 -1.0356
17760TIP3    H174771   4.199   4.216  13.565  1.1579 -2.5202 -0.4613
17760TIP3    H274772   4.072   4.256  13.494  0.7403  0.8458  1.9182
17761TIP3   OH274773   4.071   3.612  16.084  0.2217 -0.1754  0.2559
17761TIP3    H174774   3.985   3.630  16.046  0.8015  4.1881  0.5447
17761TIP3    H274775   4.055   3.606  16.178 -0.0765 -2.6249  0.1172
17762TIP3   OH274776   3.550   3.780  17.167 -0.0663  0.0228 -0.0031
17762TIP3    H174777   3.537   3.742  17.080 -0.8935  0.0227  0.1113
17762TIP3    H274778   3.645   3.787  17.176  0.0822  3.0698 -2.2518
17763TIP3   OH274779   5.889   2.455   6.181 -0.7242  0.1198  0.0118
17763TIP3    H174780   5.937   2.387   6.228 -1.3297  0.4022  1.0626
17763TIP3    H274781   5.905   2.535   6.231 -0.6085  0.6288 -0.8086
17764TIP3   OH274782   5.069   2.832  13.915 -0.6464  0.0708 -0.0199
17764TIP3    H174783   4.996   2.846  13.976 -2.1631  0.0558 -1.7245
17764TIP3    H274784   5.067   2.737  13.898  1.1485 -0.2852  1.4869
17765TIP3   OH274785   2.673   2.153   5.099 -0.2714  0.3326 -0.0616
17765TIP3    H174786   2.759   2.194   5.111 -0.1055 -0.2349  0.7322
17765TIP3    H274787   2.613   2.207   5.150 -0.0442 -0.4126  1.0267
17766TIP3   OH274788   6.044   2.709  13.257 -0.4229  0.0295  0.2182
17766TIP3    H174789   6.066   2.685  13.167 -1.7549 -1.1147  0.1536
17766TIP3    H274790   6.128   2.722  13.300  0.2612 -0.4635 -0.9338
17767TIP3   OH274791   3.039   5.851   3.786  0.3817 -0.3102  0.2623
17767TIP3    H174792   3.041   5.789   3.859 -0.0524 -0.8443 -0.1690
17767TIP3    H274793   2.953   5.892   3.791  0.2955 -0.4497 -0.0225
17768TIP3   OH274794   3.618   5.349  11.307  0.7881 -0.0686  0.2167
17768TIP3    H174795   3.679   5.313  11.372 -0.0947 -2.1056 -0.0076
17768TIP3    H274796   3.579   5.272  11.266 -0.7268  1.1785 -0.7951
17769TIP3   OH274797   1.844   0.627   2.295 -0.9739  0.3320 -0.4230
17769TIP3    H174798   1.830   0.583   2.379  0.3738 -0.5682 -0.6349
17769TIP3    H274799   1.893   0.706   2.317 -1.0000  0.3207 -0.3227
17770TIP3   OH274800   1.550   1.294   3.672 -0.4236  0.0991  0.1748
17770TIP3    H174801   1.587   1.230   3.612 -0.9061 -0.8264  0.8180
17770TIP3    H274802   1.617   1.361   3.682 -0.6644  0.7257 -2.0294
17771TIP3   OH274803   1.987   4.345  16.550  0.2191 -0.3937  0.2981
17771TIP3    H174804   1.972   4.297  16.631 -0.9830  1.1612  1.0376
17771TIP3    H274805   2.063   4.400  16.569 -1.1670  1.3484  1.0750
17772TIP3   OH274806   5.697   2.328   2.299 -0.1039  0.2920 -0.3823
17772TIP3    H174807   5.760   2.324   2.370 -0.9011  0.3973  0.3403
17772TIP3    H274808   5.750   2.314   2.220  0.9445  1.1911  0.1299
17773TIP3   OH274809   0.078   4.219  12.927  0.0410  0.2793  0.6750
17773TIP3    H174810  -0.016   4.237  12.920  0.2988  1.1929 -1.1046
17773TIP3    H274811   0.091   4.138  12.878  0.2678  0.5202  0.3309
17774TIP3   OH274812   1.366   4.015   0.795 -0.0552 -0.2940 -0.1941
17774TIP3    H174813   1.292   4.009   0.734 -0.1071 -0.1280 -0.1491
17774TIP3    H274814   1.335   4.073   0.864  0.0663 -0.3423 -0.1004
17775TIP3   OH274815   3.487   6.303  16.432  0.0486 -0.5338  0.5549
17775TIP3    H174816   3.580   6.278  16.424 -0.3638 -1.9117 -0.2684
17775TIP3    H274817   3.467   6.348  16.350  0.7306  2.5490  1.9452
17776TIP3   OH274818   5.081   4.382  14.842  0.1361  0.3283 -0.0236
17776TIP3    H174819   5.119   4.468  14.859  2.3555 -0.8296  1.2472
17776TIP3    H274820   5.074   4.377  14.746 -0.6934  2.1540 -0.0863
17777TIP3   OH274821   2.283   4.902   0.571 -0.0516 -0.3754 -0.1683
17777TIP3    H174822   2.308   4.888   0.662  1.2727  1.6123 -0.1650
17777TIP3    H274823   2.335   4.838   0.522  2.3368  1.1910  0.1835
17778TIP3   OH274824   5.069   6.001   4.051 -0.4896  0.3429  0.1709
17778TIP3    H174825   5.086   5.914   4.014 -1.0658 -0.5823  1.9904
17778TIP3    H274826   5.077   5.989   4.145 -2.7844  1.7461  0.6124
17779TIP3   OH274827   4.826   5.260  10.940 -0.6340 -0.6340  0.1963
17779TIP3    H174828   4.912   5.249  10.899 -0.6127 -1.4268  0.4376
17779TIP3    H274829   4.818   5.354  10.952  0.3071 -0.5637  0.3902
17780TIP3   OH274830   5.556   4.790  16.662 -0.0256 -0.1132 -0.3511
17780TIP3    H174831   5.504   4.807  16.741  0.5745  1.4915 -0.2565
17780TIP3    H274832   5.535   4.700  16.638 -1.2402 -0.1893  0.8745
17781TIP3   OH274833   6.287   3.312   3.744  0.7608  0.5679  0.2840
17781TIP3    H174834   6.238   3.234   3.770  0.6518  0.9385  1.2200
17781TIP3    H274835   6.252   3.334   3.657 -0.1979  0.3815  0.6049
17782TIP3   OH274836   4.574   6.614  15.423 -0.1329 -0.2381 -0.7981
17782TIP3    H174837   4.652   6.628  15.476 -1.4730  0.2252  1.1712
17782TIP3    H274838   4.576   6.520  15.402  0.6234 -0.3519 -0.2411
17783TIP3   OH274839   0.194   2.689   1.640  0.3652  0.3348  0.2281
17783TIP3    H174840   0.151   2.691   1.555 -1.4029 -1.7856  0.9716
17783TIP3    H274841   0.160   2.765   1.687 -1.1562 -0.2664  0.1323
17784TIP3   OH274842   4.264   0.461  14.630 -0.3350  0.0243 -0.0904
17784TIP3    H174843   4.178   0.443  14.669 -0.8827 -0.3974 -1.4393
17784TIP3    H274844   4.268   0.557  14.625 -0.3349  0.0784  0.7999
17785TIP3   OH274845   0.456   3.796   6.018  0.1442 -0.0623  0.0935
17785TIP3    H174846   0.447   3.820   6.111  0.1586 -0.7907  0.2927
17785TIP3    H274847   0.415   3.710   6.012 -1.8756  0.9183 -1.0473
17786TIP3   OH274848   0.766   5.424   3.971  0.0674 -0.0823 -0.0111
17786TIP3    H174849   0.675   5.416   3.941 -0.9609  1.4625  2.3627
17786TIP3    H274850   0.765   5.383   4.058  1.8847 -0.7867 -0.2878
17787TIP3   OH274851   1.702   0.157  16.596  0.0551 -0.3878 -0.0411
17787TIP3    H174852   1.747   0.159  16.511 -0.7669  2.6445 -0.5227
17787TIP3    H274853   1.747   0.089  16.645  2.2610 -0.4998 -2.0294
17788TIP3   OH274854   6.139   6.680   6.367  0.0866  0.6440  0.2206
17788TIP3    H174855   6.163   6.588   6.373  1.2501  0.9565  0.6986
17788TIP3    H274856   6.219   6.724   6.337 -0.0234  1.6686  1.3359
17789TIP3   OH274857   4.272   4.311  11.432 -0.2219 -0.0182 -0.0584
17789TIP3    H174858   4.189   4.349  11.403  0.1352  0.4113 -0.5472
17789TIP3    H274859   4.322   4.300  11.351 -0.0050 -0.7824  0.1709
17790TIP3   OH274860   4.844   6.650  15.229 -0.1259 -0.5068 -0.2916
17790TIP3    H174861   4.924   6.658  15.281 -0.3478 -2.6953  0.4741
17790TIP3    H274862   4.866   6.586  15.161 -0.8840 -0.2323 -0.8053
17791TIP3   OH274863   5.966   0.323   1.483  0.1141 -0.4451  0.5014
17791TIP3    H174864   6.013   0.388   1.431 -0.6430 -0.6550 -0.4917
17791TIP3    H274865   5.883   0.365   1.506  0.7173 -0.1078  2.1570
17792TIP3   OH274866   6.401   1.301  12.985  0.1470  0.0974  0.7192
17792TIP3    H174867   6.428   1.217  12.948 -1.3095 -0.1522  0.1490
17792TIP3    H274868   6.450   1.366  12.934  0.5778 -0.3661  0.5267
17793TIP3   OH274869   4.784   0.873  12.548  0.1128 -0.1818 -0.4709
17793TIP3    H174870   4.702   0.828  12.528  0.1582  0.2976 -1.8497
17793TIP3    H274871   4.808   0.842  12.635 -0.8946 -1.2728 -0.5570
17794TIP3   OH274872   3.578   4.947   3.364 -0.3518  0.3587 -0.0340
17794TIP3    H174873   3.522   4.876   3.397  3.2700 -3.2348 -0.8408
17794TIP3    H274874   3.569   4.942   3.269 -0.3699  1.3431 -0.0897
17795TIP3   OH274875   1.143   4.754   5.622 -0.3282 -0.4633  0.1232
17795TIP3    H174876   1.068   4.757   5.681  0.1334 -2.5799  0.9143
17795TIP3    H274877   1.204   4.692   5.663  0.3152 -1.5223 -2.2272
17796TIP3   OH274878   4.956   0.231   1.505 -0.0690 -0.0315 -0.5718
17796TIP3    H174879   4.934   0.250   1.596 -1.7960 -1.1977 -0.6964
17796TIP3    H274880   5.038   0.182   1.509  0.0052  0.1498  0.3328
17797TIP3   OH274881   0.966   6.106  14.857 -0.0597  0.9168 -0.2760
17797TIP3    H174882   1.060   6.105  14.872  0.0661  0.1066 -1.0467
17797TIP3    H274883   0.954   6.060  14.774 -1.2742 -0.4609  0.6087
17798TIP3   OH274884   4.201   0.932   1.174  0.5219 -0.0737 -0.4310
17798TIP3    H174885   4.106   0.932   1.161  0.3157 -0.5072  0.9786
17798TIP3    H274886   4.234   0.876   1.104 -0.4078 -1.1151 -0.0632
17799TIP3   OH274887   3.713   4.876   1.091  0.0232 -0.4970 -0.0472
17799TIP3    H174888   3.628   4.918   1.076  0.3771  0.1488 -0.3363
17799TIP3    H274889   3.770   4.917   1.026  0.5560 -0.9150  0.1554
17800TIP3   OH274890   5.773   1.828  14.360 -0.0315  0.2810 -0.3135
17800TIP3    H174891   5.780   1.919  14.389  3.1645  0.7806 -2.1246
17800TIP3    H274892   5.764   1.834  14.265 -0.8742 -1.3312 -0.3633
17801TIP3   OH274893   0.564   6.594  11.594 -0.4324  0.0622 -0.5641
17801TIP3    H174894   0.507   6.591  11.671 -0.3882 -0.9001 -0.5522
17801TIP3    H274895   0.652   6.586  11.630 -0.4783 -1.9546 -0.7713
17802TIP3   OH274896   3.919   2.274  14.580 -0.3373 -0.5065 -0.5634
17802TIP3    H174897   3.931   2.284  14.485  1.4820  3.1901 -0.1270
17802TIP3    H274898   3.880   2.356  14.608  1.4224 -0.4708  2.1726
17803TIP3   OH274899   2.586   2.495  14.692  0.0110 -0.5331  0.1493
17803TIP3    H174900   2.650   2.562  14.713 -0.6717 -0.2129  1.2998
17803TIP3    H274901   2.561   2.514  14.601  0.8967 -0.1432 -0.0262
17804TIP3   OH274902   3.209   6.580  16.663 -0.0776  0.0130  0.3670
17804TIP3    H174903   3.295   6.607  16.692  0.4524  0.7921 -1.6987
17804TIP3    H274904   3.223   6.496  16.618 -0.3434  0.2127 -0.1086
17805TIP3   OH274905   6.589   5.979  10.667 -0.2821  0.0114 -0.0130
17805TIP3    H174906   6.541   5.986  10.584  1.3914 -1.0358 -1.1366
17805TIP3    H274907   6.523   5.951  10.730 -1.1622 -1.4889 -1.5153
17806TIP3   OH274908   3.642   6.142  17.437  0.0724  0.4211  0.1716
17806TIP3    H174909   3.686   6.218  17.399  0.5100  1.4219  2.4687
17806TIP3    H274910   3.569   6.180  17.487 -1.7242 -0.9821 -1.2632
17807TIP3   OH274911   3.281   1.453   1.698  0.4288 -0.0036 -0.2246
17807TIP3    H174912   3.362   1.503   1.684 -0.3998  1.3767 -0.3293
17807TIP3    H274913   3.252   1.429   1.610  0.6626 -0.4153 -0.1927
17808TIP3   OH274914   5.126   1.326  15.920 -0.2835  0.5540  0.1057
17808TIP3    H174915   5.033   1.308  15.908 -0.6843 -0.7902  3.7192
17808TIP3    H274916   5.161   1.245  15.958  2.3620  1.0637 -1.0505
17809TIP3   OH274917   5.897   1.148  12.613  0.4134 -0.1297 -0.8729
17809TIP3    H174918   5.952   1.158  12.536  0.2659 -0.4104 -1.0159
17809TIP3    H274919   5.811   1.180  12.586  0.0872 -1.2147 -1.1586
17810TIP3   OH274920   2.705   6.023   5.316 -0.3253 -0.5708  0.1256
17810TIP3    H174921   2.728   5.940   5.273  0.4833  0.4767 -1.5553
17810TIP3    H274922   2.643   6.064   5.255 -0.4781  0.2040  0.7989
17811TIP3   OH274923   3.394   5.572   1.402  0.2738 -0.4060  0.7928
17811TIP3    H174924   3.447   5.548   1.326  0.2443 -0.7916  0.8907
17811TIP3    H274925   3.370   5.663   1.387  0.0293 -0.5651  0.1967
17812TIP3   OH274926   4.007   4.126  15.926  0.4573  0.1819  0.1173
17812TIP3    H174927   3.999   4.164  15.839 -0.2535 -1.9025 -0.7878
17812TIP3    H274928   4.067   4.184  15.973 -1.3836  2.9987 -0.7731
17813TIP3   OH274929   0.650   0.813  14.486 -0.2692 -0.3387 -0.6509
17813TIP3    H174930   0.613   0.897  14.458 -0.7777  0.0676  1.0964
17813TIP3    H274931   0.635   0.754  14.412 -0.1322  1.0256 -1.8095
17814TIP3   OH274932   4.831   0.935  12.201 -0.3958 -0.3616  0.1544
17814TIP3    H174933   4.848   1.021  12.239  1.6791 -1.7969  2.9366
17814TIP3    H274934   4.798   0.883  12.275  0.8680 -2.5773 -0.7498
17815TIP3   OH274935   2.098   6.573   4.909 -0.0970 -0.3105  0.3050
17815TIP3    H174936   2.062   6.565   4.997  0.2019  0.3464  0.4954
17815TIP3    H274937   2.030   6.538   4.852 -0.2982 -0.7312  0.7923
17816TIP3   OH274938   5.666   3.891  10.655 -0.1599 -0.0464 -0.1766
17816TIP3    H174939   5.726   3.821  10.630  1.2453  0.9845  0.1590
17816TIP3    H274940   5.578   3.854  10.642  0.5363 -1.8153 -0.0927
17817TIP3   OH274941   5.203   1.161  13.807  0.0753  0.1415  0.1381
17817TIP3    H174942   5.255   1.158  13.887  0.9550 -0.1125 -0.4270
17817TIP3    H274943   5.228   1.081  13.759 -1.0825 -0.1586  0.0003
17818TIP3   OH274944   4.061   2.922   2.237  0.6404 -0.2908 -0.3642
17818TIP3    H174945   3.971   2.939   2.208  0.7978 -0.3186 -0.8898
17818TIP3    H274946   4.053   2.902   2.330  0.2687  1.1324 -0.0663
17819TIP3   OH274947   2.256   6.165  17.380 -0.4315 -0.4564  0.1105
17819TIP3    H174948   2.189   6.102  17.407 -0.9084  0.5218  1.2430
17819TIP3    H274949   2.292   6.127  17.300 -1.8691 -1.3381 -0.1595
17820TIP3   OH274950   4.691   4.791  17.033 -0.2828 -0.2398  0.3922
17820TIP3    H174951   4.610   4.813  17.079 -0.6248 -2.5896  1.0632
17820TIP3    H274952   4.672   4.708  16.990  1.6090 -0.5865  0.1289
17821TIP3   OH274953   1.377   1.220   6.012 -0.5189  0.6941  0.6995
17821TIP3    H174954   1.293   1.265   6.017 -0.9647  0.2350 -1.4047
17821TIP3    H274955   1.428   1.271   5.949  1.2774  1.6194  2.7651
17822TIP3   OH274956   2.131   3.377  14.887 -0.4815 -0.6071  0.3854
17822TIP3    H174957   2.091   3.314  14.827 -1.6863 -0.5133  1.0449
17822TIP3    H274958   2.176   3.324  14.952 -0.7146 -0.7618  0.4202
17823TIP3   OH274959   3.955   6.432  11.959 -0.6718  0.2161 -0.0765
17823TIP3    H174960   3.905   6.502  11.917  0.1906  0.4708 -0.7268
17823TIP3    H274961   4.040   6.472  11.978  0.0670 -0.8131 -1.0634
17824TIP3   OH274962   0.699   5.478   1.092 -0.1357  0.6713 -0.8973
17824TIP3    H174963   0.624   5.418   1.098  0.4902 -0.1334 -0.8997
17824TIP3    H274964   0.773   5.421   1.071  0.8357  1.2019  0.9118
17825TIP3   OH274965   0.555   0.284   1.192 -0.2168  0.0225  1.1681
17825TIP3    H174966   0.627   0.229   1.162 -0.7318 -0.4029  0.6866
17825TIP3    H274967   0.588   0.326   1.271  1.4380  1.7011 -0.3173
17826TIP3   OH274968   1.105   4.252  16.437  0.3430 -0.0185  0.0532
17826TIP3    H174969   1.129   4.309  16.364  2.0152  1.6356  1.7817
17826TIP3    H274970   1.162   4.176  16.428 -2.3533 -1.9273 -2.6470
17827TIP3   OH274971   0.856   0.011  11.919 -0.2681 -0.4728  0.1106
17827TIP3    H174972   0.837  -0.064  11.976 -2.3836 -0.3663 -0.3447
17827TIP3    H274973   0.841   0.087  11.975  0.6900 -0.3790  0.2429
17828TIP3   OH274974   5.703   2.820   1.371 -0.8722  0.3552  0.3059
17828TIP3    H174975   5.736   2.826   1.281 -0.9995 -1.4760  0.0934
17828TIP3    H274976   5.779   2.841   1.425 -0.0949 -0.9685 -0.2192
17829TIP3   OH274977   0.356   0.351   0.974 -0.1811  0.3712 -0.4358
17829TIP3    H174978   0.419   0.338   1.045 -0.2691 -0.0061 -0.4303
17829TIP3    H274979   0.294   0.415   1.009 -0.0489  0.4200 -0.2871
17830TIP3   OH274980   1.728   6.169  15.775 -0.0313  0.2392  0.5835
17830TIP3    H174981   1.653   6.221  15.748  1.7114  2.5137 -0.2961
17830TIP3    H274982   1.708   6.080  15.748 -1.5475  1.1457 -1.5033
17831TIP3   OH274983   3.802   1.189   2.778  0.2385  0.1950 -0.0186
17831TIP3    H174984   3.756   1.181   2.862  0.3971  1.6478  0.2336
17831TIP3    H274985   3.734   1.175   2.712  0.0013 -0.4076  0.3434
17832TIP3   OH274986   0.923   6.391   5.835  0.6907 -0.0695  0.6351
17832TIP3    H174987   0.897   6.350   5.918 -0.0475  0.0813  0.4838
17832TIP3    H274988   1.001   6.442   5.857  1.2479 -1.0251  0.9655
17833TIP3   OH274989   2.577   3.563   3.174  0.2899 -0.2016  0.7887
17833TIP3    H174990   2.613   3.513   3.248 -0.1045  0.5568  1.4969
17833TIP3    H274991   2.486   3.578   3.197  0.3274  0.5883  0.4394
17834TIP3   OH274992   6.669   6.375   2.676  0.3866  0.3741  0.0348
17834TIP3    H174993   6.592   6.328   2.643 -0.7084  1.9873  0.1839
17834TIP3    H274994   6.739   6.351   2.614 -0.5500 -0.0780 -0.8910
17835TIP3   OH274995   6.076   2.077   0.021 -0.8867 -0.0592 -0.3845
17835TIP3    H174996   6.128   2.157   0.012 -1.8263  0.5521 -0.4971
17835TIP3    H274997   6.082   2.056   0.114 -1.8326  0.9850 -0.0707
17836TIP3   OH274998   1.765   5.135  11.303 -0.4041 -0.1897  0.1641
17836TIP3    H174999   1.700   5.140  11.232  0.2565  0.5148 -0.4057
17836TIP3    H275000   1.789   5.043  11.307 -0.5918 -0.2658 -0.4023
17837TIP3   OH275001   6.180   2.737   0.752  0.2382  0.8539  0.4900
17837TIP3    H175002   6.267   2.742   0.713  0.9348 -1.1128  1.6305
17837TIP3    H275003   6.195   2.704   0.841 -1.5532  2.0808  1.3163
17838TIP3   OH275004   5.259   5.639  17.126 -0.1068  0.2088 -0.4807
17838TIP3    H175005   5.328   5.579  17.096  0.5329  0.3395  0.6801
17838TIP3    H275006   5.184   5.582  17.144  0.4093 -0.2309  0.3464
17839TIP3   OH275007   3.981   6.371   4.167 -0.1439 -0.4039  0.0870
17839TIP3    H175008   4.013   6.435   4.103 -0.9348 -0.3891 -0.3065
17839TIP3    H275009   4.019   6.288   4.138  2.2445  0.0804  1.5341
17840TIP3   OH275010   3.597   0.153   1.093  0.2865 -0.2162  0.0286
17840TIP3    H175011   3.668   0.217   1.103  1.1963 -1.0683 -0.7710
17840TIP3    H275012   3.626   0.077   1.144  0.5992 -1.0820 -1.3982
17841TIP3   OH275013   3.712   6.410  15.385  0.2754  0.5246  0.0970
17841TIP3    H175014   3.724   6.412  15.480  1.3913  2.9161 -0.0107
17841TIP3    H275015   3.621   6.436  15.371  0.6653  2.2624  0.5170
17842TIP3   OH275016   2.229   5.485  12.091  0.4293 -0.5178 -0.5777
17842TIP3    H175017   2.254   5.563  12.041  1.1510 -0.5372 -0.2600
17842TIP3    H275018   2.293   5.419  12.066 -0.6341 -1.2613 -1.4288
17843TIP3   OH275019   2.518   0.569   5.569 -0.4594  0.1013 -0.3388
17843TIP3    H175020   2.595   0.580   5.625  0.1145 -0.8539 -0.9058
17843TIP3    H275021   2.445   0.599   5.623  0.1504 -0.2226  0.7084
17844TIP3   OH275022   5.709   1.203   0.011  0.9563 -0.0767  0.4539
17844TIP3    H175023   5.715   1.280  -0.046 -0.1396 -0.7405 -0.6074
17844TIP3    H275024   5.736   1.130  -0.044  0.5065 -0.6524  0.9851
17845TIP3   OH275025   6.424   3.536   3.662  1.0352 -0.3759  0.4132
17845TIP3    H175026   6.361   3.467   3.640  1.2790 -0.6480  0.5618
17845TIP3    H275027   6.484   3.538   3.588  0.3282  0.5081 -0.1535
17846TIP3   OH275028   6.180   1.375   4.715 -0.1171  0.1322  0.4281
17846TIP3    H175029   6.227   1.459   4.714 -1.9035  1.2273  1.8330
17846TIP3    H275030   6.182   1.348   4.807 -1.7430 -0.0388  0.4424
17847TIP3   OH275031   6.692   0.081   4.012  0.3016 -0.4890  0.2343
17847TIP3    H175032   6.765   0.036   4.054  0.1811  1.1865  2.4454
17847TIP3    H275033   6.729   0.165   3.984 -0.4535 -0.1949  0.0923
17848TIP3   OH275034   6.502   0.390  16.280  0.0077 -0.0086 -0.3722
17848TIP3    H175035   6.491   0.468  16.335  0.4954  0.1724 -0.5242
17848TIP3    H275036   6.596   0.372  16.283 -0.4051 -2.2411  1.8976
17849TIP3   OH275037   5.151   2.337   1.962 -0.3416 -0.1165  0.4645
17849TIP3    H175038   5.211   2.310   1.893 -0.0309 -0.8464  0.9981
17849TIP3    H275039   5.141   2.432   1.951  0.5040 -0.0710  0.0615
17850TIP3   OH275040   1.825   3.171   1.763 -0.7607 -0.3253 -0.1803
17850TIP3    H175041   1.855   3.082   1.745  0.2577  0.3172 -1.9090
17850TIP3    H275042   1.731   3.163   1.776 -0.5032 -1.8208  1.0087
17851TIP3   OH275043   4.449   4.432   3.958  0.0262  0.3711  0.0827
17851TIP3    H175044   4.396   4.502   3.920  0.7316  1.2955  0.7465
17851TIP3    H275045   4.533   4.438   3.913 -0.6814 -1.7247 -1.6747
17852TIP3   OH275046   6.122   5.771   3.207  0.6242  0.0768  0.5004
17852TIP3    H175047   6.075   5.692   3.179  1.9369 -0.7016  0.4265
17852TIP3    H275048   6.130   5.762   3.301  1.4203 -0.2496  0.4043
17853TIP3   OH275049   0.511   2.827   5.255 -0.6401 -0.0666 -0.3369
17853TIP3    H175050   0.485   2.873   5.336 -1.9969 -1.8783  0.3163
17853TIP3    H275051   0.444   2.852   5.191  0.5783  1.5744 -1.0413
17854TIP3   OH275052   2.570   3.725   0.315  0.2657 -0.0594  0.0476
17854TIP3    H175053   2.636   3.712   0.246 -0.6632 -0.5325 -0.7737
17854TIP3    H275054   2.621   3.727   0.396  1.6935  2.9525 -0.7777
17855TIP3   OH275055   2.304   4.428   4.014 -0.6948  0.1235 -0.3374
17855TIP3    H175056   2.365   4.371   4.061 -2.5920 -1.9891 -0.2367
17855TIP3    H275057   2.348   4.448   3.931  0.3035 -0.9789 -0.0940
17856TIP3   OH275058   0.658   4.646  12.046  0.4805  0.2721  0.2478
17856TIP3    H175059   0.717   4.691  12.108  1.5720  1.5534 -1.5933
17856TIP3    H275060   0.607   4.717  12.007 -0.1182 -0.4931 -0.3777
17857TIP3   OH275061   6.670   2.130   3.739  0.2273  0.3805  0.3315
17857TIP3    H175062   6.602   2.094   3.796 -0.7432 -0.2093 -1.1448
17857TIP3    H275063   6.736   2.061   3.733  0.3025  0.4199  0.6640
17858TIP3   OH275064   5.007   0.845   4.539  0.2258 -0.3754 -0.1138
17858TIP3    H175065   4.920   0.850   4.500  0.0134 -0.9581  0.2689
17858TIP3    H275066   5.044   0.763   4.504  1.1923  0.5634 -1.4062
17859TIP3   OH275067   3.564   5.327  15.563  0.1572 -0.2789  0.2805
17859TIP3    H175068   3.657   5.316  15.543  0.8643  0.6861  2.6685
17859TIP3    H275069   3.519   5.309  15.480  2.4775 -0.3698 -1.0365
17860TIP3   OH275070   3.513   5.088  13.425  0.1140 -0.1005  0.3153
17860TIP3    H175071   3.533   5.091  13.519  0.2388 -2.1726  0.3962
17860TIP3    H275072   3.597   5.076  13.383 -0.1525 -1.4669  0.1291
17861TIP3   OH275073   3.409   5.335   5.863 -0.5290 -0.5477 -0.0711
17861TIP3    H175074   3.362   5.292   5.935 -1.6391 -1.3216 -1.2268
17861TIP3    H275075   3.362   5.418   5.851 -0.9376 -0.8381 -0.5106
17862TIP3   OH275076   1.395   2.608   0.923  0.7589 -0.1049 -0.2774
17862TIP3    H175077   1.450   2.584   0.848 -0.0590  1.8866 -1.6081
17862TIP3    H275078   1.379   2.526   0.969  4.3981 -0.8585 -0.0748
17863TIP3   OH275079   1.256   2.865  16.698 -0.6425  0.6444 -0.2865
17863TIP3    H175080   1.272   2.928  16.768  1.0320  0.6797 -0.6598
17863TIP3    H275081   1.266   2.779  16.739  2.0993  0.6500 -0.7647
17864TIP3   OH275082   1.370   0.184   0.983 -0.0325  0.1263  0.0476
17864TIP3    H175083   1.318   0.122   1.033 -0.5322  0.2448 -0.3115
17864TIP3    H275084   1.457   0.146   0.980 -0.1427 -0.1675  0.5020
17865TIP3   OH275085   0.581   4.580  16.507  0.0868 -0.4159  0.2462
17865TIP3    H175086   0.575   4.673  16.484  1.2893 -0.9600 -2.7822
17865TIP3    H275087   0.633   4.578  16.587  3.3296  1.4570 -1.5806
17866TIP3   OH275088   6.769   4.360  15.146 -0.1316  0.2914 -0.5224
17866TIP3    H175089   6.754   4.364  15.052  0.2721  3.0323 -0.5664
17866TIP3    H275090   6.809   4.444  15.167 -0.1785 -0.2535  2.1085
17867TIP3   OH275091   0.936   0.747  15.751 -0.0796 -0.1324 -0.6827
17867TIP3    H175092   0.888   0.756  15.834 -0.9693 -0.5416 -1.1392
17867TIP3    H275093   0.963   0.655  15.749 -0.3499 -0.2070 -0.9959
17868TIP3   OH275094   1.793   1.017   1.141  0.0365  0.2089  0.1883
17868TIP3    H175095   1.742   0.945   1.177 -0.7119  0.5000 -0.2783
17868TIP3    H275096   1.805   1.077   1.215 -0.1406  0.0527  0.3449
17869TIP3   OH275097   2.243   2.511  17.384 -0.4134  0.1780  0.4609
17869TIP3    H175098   2.320   2.516  17.440 -0.1697 -1.1240  0.2838
17869TIP3    H275099   2.169   2.524  17.443 -0.1276 -0.2672  0.9224
17870TIP3   OH275100   5.096   1.648  13.447 -0.3394 -0.3357 -0.2480
17870TIP3    H175101   5.163   1.661  13.515  0.5546 -0.5152 -1.0785
17870TIP3    H275102   5.044   1.574  13.480 -0.7377  0.4085  0.8561
17871TIP3   OH275103   6.617   2.600  11.917  0.2899  0.4448 -0.4353
17871TIP3    H175104   6.558   2.645  11.978  0.5827  1.2739 -0.7381
17871TIP3    H275105   6.594   2.508  11.924  0.3707  0.5110  0.9986
17872TIP3   OH275106   6.314   4.498  14.683  0.4869 -0.1054  0.7381
17872TIP3    H175107   6.403   4.533  14.675  0.8370 -0.5875  2.2453
17872TIP3    H275108   6.316   4.417  14.632  0.3014  0.8985 -0.9310
17873TIP3   OH275109   0.969   4.732  16.774  0.3460  0.1181 -0.0696
17873TIP3    H175110   1.057   4.769  16.783 -0.1424  1.4291 -0.5636
17873TIP3    H275111   0.975   4.677  16.696  1.4076 -1.9450  1.3617
17874TIP3   OH275112   3.045   4.158   6.095  0.0503  0.1007  0.2168
17874TIP3    H175113   3.041   4.253   6.107 -0.6897 -0.1639  2.6152
17874TIP3    H275114   2.962   4.136   6.053  0.5500  0.5493 -1.0745
17875TIP3   OH275115   2.597   5.166   4.173  0.7743  0.4069  0.8785
17875TIP3    H175116   2.621   5.256   4.193 -0.4573  1.3100 -1.3849
17875TIP3    H275117   2.655   5.140   4.102 -0.7563  0.4996 -0.4754
17876TIP3   OH275118   3.857   0.022  17.110  0.1104  0.2289  0.6100
17876TIP3    H175119   3.774   0.028  17.061  1.4455  0.4350 -1.7765
17876TIP3    H275120   3.833  -0.022  17.191 -2.7336  2.1633  0.9892
17877TIP3   OH275121   4.697   1.741   1.003  0.0257  0.9324 -0.5633
17877TIP3    H175122   4.761   1.754   0.932  0.9749 -1.4062 -0.2391
17877TIP3    H275123   4.635   1.678   0.968 -0.4223  0.9677  0.1505
17878TIP3   OH275124   1.949   3.663  17.240 -0.3023  0.4806 -0.0570
17878TIP3    H175125   1.893   3.619  17.304  0.2289 -1.0899 -0.6023
17878TIP3    H275126   1.894   3.732  17.203 -1.6275 -0.5203 -0.0210
17879TIP3   OH275127   3.637   2.156   5.021  0.8198 -0.3084 -0.2795
17879TIP3    H175128   3.712   2.106   4.987  0.9087 -0.6389  0.3807
17879TIP3    H275129   3.561   2.118   4.977  0.9917 -0.3183 -0.5704
17880TIP3   OH275130   4.541   3.970   2.940 -0.0089 -0.3435  0.2434
17880TIP3    H175131   4.599   3.980   3.015  0.9054  1.6312 -0.6578
17880TIP3    H275132   4.597   3.933   2.871 -1.1454 -3.4155  0.8149
17881TIP3   OH275133   1.917   6.257   3.499 -0.1785 -0.6897  0.6437
17881TIP3    H175134   1.901   6.167   3.526 -1.3966 -0.5877  0.2885
17881TIP3    H275135   1.835   6.287   3.461  0.4875  0.2764 -0.1015
17882TIP3   OH275136   2.141   2.307   2.036 -0.3567 -0.4068 -0.6778
17882TIP3    H175137   2.062   2.259   2.059 -0.7395  0.4705 -0.1216
17882TIP3    H275138   2.115   2.364   1.964  0.6041 -2.4605 -2.7952
17883TIP3   OH275139   2.406   0.358   5.839  0.4518  0.5919  0.1041
17883TIP3    H175140   2.392   0.449   5.812  2.1995  1.8033  2.7913
17883TIP3    H275141   2.470   0.323   5.777 -1.9215  0.3074 -2.3676
17884TIP3   OH275142   3.236   4.234   0.378  0.2828 -0.2469 -0.7839
17884TIP3    H175143   3.207   4.161   0.433 -0.8480 -0.6144 -1.8513
17884TIP3    H275144   3.331   4.236   0.390  0.2363 -1.3538 -0.0939
17885TIP3   OH275145   5.677   2.820   5.214 -0.5401  0.1243  0.2805
17885TIP3    H175146   5.659   2.794   5.304  0.7702 -0.6506  0.3552
17885TIP3    H275147   5.592   2.837   5.176 -1.0823  2.3183  2.1844
17886TIP3   OH275148   5.015   0.957  11.989 -0.1583  0.1870  0.2227
17886TIP3    H175149   4.940   0.971  12.048 -1.0190  0.9407 -0.9853
17886TIP3    H275150   5.092   0.974  12.043 -0.8072 -1.1114  1.6468
17887TIP3   OH275151   2.728   1.374   2.559 -0.5609 -0.6793  0.6619
17887TIP3    H175152   2.802   1.331   2.516 -1.7177 -2.5033  0.3373
17887TIP3    H275153   2.665   1.388   2.488 -1.4009 -1.2289  1.2813
17888TIP3   OH275154   5.771   2.252   1.934 -0.4117 -0.6653 -0.4070
17888TIP3    H175155   5.805   2.172   1.893 -0.9422 -1.1112  0.0056
17888TIP3    H275156   5.731   2.301   1.862  0.0041 -0.7247 -0.6795
17889TIP3   OH275157   6.111   2.861   5.704 -0.0650 -0.0484  0.0933
17889TIP3    H175158   6.016   2.872   5.703 -0.2702 -1.3069  1.6721
17889TIP3    H275159   6.127   2.784   5.650  0.0498  0.0523 -0.0178
17890TIP3   OH275160   2.116   1.893   2.063  0.1013 -0.3968 -0.0357
17890TIP3    H175161   2.050   1.932   2.120  0.5613  1.2265 -0.5715
17890TIP3    H275162   2.086   1.914   1.974  1.7938  1.2379 -0.2753
17891TIP3   OH275163   3.515   6.224   2.304 -0.3078 -0.2644  0.4526
17891TIP3    H175164   3.573   6.210   2.379  0.1572 -0.3443  0.0816
17891TIP3    H275165   3.465   6.142   2.297  0.3730 -0.6544  0.0518
17892TIP3   OH275166   4.391   4.798   1.202  0.9636  0.2502  0.2389
17892TIP3    H175167   4.404   4.704   1.199  0.7396  0.1315  1.8117
17892TIP3    H275168   4.403   4.821   1.295 -0.2602  1.5588  0.1195
17893TIP3   OH275169   1.387   2.856  10.728  0.2774  0.3175 -0.3510
17893TIP3    H175170   1.438   2.818  10.656 -0.1088 -2.5117  0.7136
17893TIP3    H275171   1.313   2.795  10.739 -0.3993  1.4027  1.5780
17894TIP3   OH275172   5.401   6.552  14.414 -0.0692 -0.2030 -0.0041
17894TIP3    H175173   5.448   6.631  14.390  0.2912  0.2624  2.0605
17894TIP3    H275174   5.313   6.582  14.438 -0.4428 -0.6565 -0.7509
17895TIP3   OH275175   4.771   1.076  14.769 -0.2122 -0.1339 -0.1362
17895TIP3    H175176   4.704   1.008  14.771 -0.3046 -0.0421  2.3059
17895TIP3    H275177   4.853   1.029  14.779 -0.1757  0.0168  0.2716
17896TIP3   OH275178   0.904   0.289  10.993  0.7084  0.0077  0.4273
17896TIP3    H175179   0.978   0.341  10.962 -0.2797  1.2068 -0.0326
17896TIP3    H275180   0.831   0.315  10.936  0.1583 -1.9172  0.1676
17897TIP3   OH275181   1.591   0.354   2.019 -0.5000  0.4688 -0.5801
17897TIP3    H175182   1.596   0.367   1.924  1.2149  0.4355 -0.5332
17897TIP3    H275183   1.664   0.295   2.038 -1.6322 -0.5948  0.5992
17898TIP3   OH275184   1.551   4.235  16.642 -0.4801  0.0044 -0.1307
17898TIP3    H175185   1.518   4.298  16.706 -0.1964  0.1220 -0.0946
17898TIP3    H275186   1.614   4.286  16.590 -1.3761  0.1642 -1.1039
17899TIP3   OH275187   0.543   1.311  15.265  0.4580 -0.5237  0.4217
17899TIP3    H175188   0.548   1.294  15.359  1.3268 -0.9263  0.3145
17899TIP3    H275189   0.511   1.401  15.259 -0.4980 -0.8072  1.0786
17900TIP3   OH275190   5.305   4.157  17.491  0.3553 -0.2376 -0.4168
17900TIP3    H175191   5.308   4.144  17.397  1.7119 -1.6908 -0.2044
17900TIP3    H275192   5.273   4.074  17.526 -0.0376  0.2506  0.4162
17901TIP3   OH275193   5.027   4.895   5.625 -0.2649 -0.4165  0.2484
17901TIP3    H175194   4.985   4.976   5.596 -0.0992 -0.0974  0.8845
17901TIP3    H275195   5.120   4.910   5.611 -0.2334 -0.5028  0.3712
17902TIP3   OH275196   3.558   4.671   2.421  0.0700 -1.1492  0.0628
17902TIP3    H175197   3.505   4.686   2.343  0.0724  1.6071  0.5045
17902TIP3    H275198   3.495   4.672   2.494  0.3992 -0.5025  0.3503
17903TIP3   OH275199   3.974   6.523   2.064 -0.6179 -0.2782  0.4346
17903TIP3    H175200   4.011   6.581   1.998 -1.1398  1.7016  1.7862
17903TIP3    H275201   3.881   6.522   2.046 -0.5246 -1.3822 -0.0605
17904TIP3   OH275202   4.824   1.009   0.761 -0.4033  0.3433  0.5018
17904TIP3    H175203   4.838   1.097   0.795  0.9908  1.0093 -1.6419
17904TIP3    H275204   4.733   1.007   0.734 -0.2957  1.3277  0.0500
17905TIP3   OH275205   5.494   2.074  13.728  0.0768  0.4101  0.3245
17905TIP3    H175206   5.458   1.994  13.767 -1.9617  2.2175  2.4440
17905TIP3    H275207   5.559   2.105  13.791  1.7231 -0.0984 -1.0423
17906TIP3   OH275208   3.172   4.360  16.196 -0.3675  0.9097 -0.6495
17906TIP3    H175209   3.090   4.409  16.206  0.7885  3.3602 -2.1627
17906TIP3    H275210   3.235   4.409  16.249  0.5415  0.1887 -1.0447
17907TIP3   OH275211   2.197   0.706   6.148 -0.0955  0.1111  0.2991
17907TIP3    H175212   2.168   0.795   6.168  0.1806  0.1470  0.5518
17907TIP3    H275213   2.286   0.701   6.184  0.3503  0.1156 -0.7694
17908TIP3   OH275214   3.566   5.590   4.638 -0.3036 -0.6270 -0.4349
17908TIP3    H175215   3.476   5.622   4.636 -0.4008 -0.9108 -0.8263
17908TIP3    H275216   3.612   5.641   4.572 -0.4493 -1.2508 -1.0303
17909TIP3   OH275217   3.460   2.056   0.937  0.3647 -0.1032 -0.9889
17909TIP3    H175218   3.497   2.017   1.015 -2.9892 -0.5751  0.5593
17909TIP3    H275219   3.444   1.981   0.878  1.5491  0.0674 -1.5471
17910TIP3   OH275220   0.422   1.461   6.510 -0.4976  0.3593  0.3055
17910TIP3    H175221   0.367   1.416   6.446  1.3387 -1.3311 -0.1896
17910TIP3    H275222   0.485   1.510   6.458 -0.9257  1.5494  0.8624
17911TIP3   OH275223   3.903   3.389   6.480 -0.5686 -0.8422  0.3884
17911TIP3    H175224   3.812   3.362   6.470 -1.5353  0.5050  3.9265
17911TIP3    H275225   3.898   3.477   6.516  2.2234 -0.1777 -0.6063
17912TIP3   OH275226   3.385   3.312   1.301 -0.3306  0.8391 -0.2925
17912TIP3    H175227   3.317   3.356   1.352 -0.6790  0.1034 -0.1115
17912TIP3    H275228   3.337   3.269   1.230 -0.0412  0.4553 -0.2569
17913TIP3   OH275229   5.884   0.956   4.658 -0.1883 -0.1941  0.2045
17913TIP3    H175230   5.885   1.036   4.709 -0.6832  0.6494 -1.0544
17913TIP3    H275231   5.831   0.977   4.581 -0.1328 -1.6560 -0.2684
17914TIP3   OH275232   0.100   4.585  16.606 -0.0991 -0.0737 -0.3913
17914TIP3    H175233   0.047   4.664  16.607 -0.5324 -0.3588 -0.5976
17914TIP3    H275234   0.129   4.575  16.697 -0.9102 -0.2514 -0.1451
17915TIP3   OH275235   1.587   2.165   5.247 -0.3339  0.3943  0.4316
17915TIP3    H175236   1.592   2.156   5.342  0.1849 -0.2530  0.3479
17915TIP3    H275237   1.587   2.260   5.232 -1.3698  0.5263  1.1144
17916TIP3   OH275238   1.219   1.564  14.503 -0.1725  0.3570  0.2431
17916TIP3    H175239   1.160   1.598  14.436 -0.2593 -0.7674 -0.2788
17916TIP3    H275240   1.161   1.524  14.569 -0.0187 -0.7444 -0.2683
17917TIP3   OH275241   6.159   4.115  16.591  0.6920 -0.0953 -0.4279
17917TIP3    H175242   6.165   4.161  16.507  0.2114 -0.6481 -0.7765
17917TIP3    H275243   6.136   4.183  16.654 -0.3067  0.1010 -0.9845
17918TIP3   OH275244   2.160   0.043   3.242 -0.1066  0.5487 -0.0053
17918TIP3    H175245   2.121   0.052   3.329 -2.0980  0.2439 -0.8054
17918TIP3    H275246   2.180  -0.051   3.235  0.7524  0.6947  0.3829
17919TIP3   OH275247   2.086   3.148   5.608 -0.5518  0.1169  0.5282
17919TIP3    H175248   1.992   3.160   5.596 -0.6248 -0.4445  0.5369
17919TIP3    H275249   2.103   3.177   5.697 -0.4907  1.4931  0.0927
17920TIP3   OH275250   3.320   4.878  13.464 -0.3708  0.3942  0.4015
17920TIP3    H175251   3.390   4.943  13.468  1.0536 -0.8964 -1.8011
17920TIP3    H275252   3.351   4.807  13.521 -0.7906  0.6022  0.8970
17921TIP3   OH275253   1.888   0.909   2.351  0.2633  0.3625  0.0652
17921TIP3    H175254   1.825   0.981   2.339  0.1096  0.2504  0.1973
17921TIP3    H275255   1.928   0.926   2.436  0.2364  0.2992  0.0905
17922TIP3   OH275256   6.093   5.209  13.225  0.2534 -0.0574  0.4185
17922TIP3    H175257   6.167   5.219  13.165  0.1106  0.3176  0.3090
17922TIP3    H275258   6.023   5.260  13.186  0.8139  2.0569  2.0178
17923TIP3   OH275259   2.484   2.678   3.034  0.1537 -0.0774  0.4187
17923TIP3    H175260   2.506   2.732   3.110  0.2640  1.1260 -0.4344
17923TIP3    H275261   2.567   2.637   3.008  0.2356 -0.0193  0.5934
17924TIP3   OH275262   2.602   5.773  15.818  0.2723  0.3033  0.0137
17924TIP3    H175263   2.678   5.787  15.761  1.2089 -0.6902  0.9478
17924TIP3    H275264   2.640   5.764  15.906 -0.7389 -1.6847  0.3174
17925TIP3   OH275265   3.663   4.752  11.592  0.0546  0.0537  0.3621
17925TIP3    H175266   3.723   4.750  11.518  1.7344  0.9752  1.6112
17925TIP3    H275267   3.660   4.662  11.624  0.8513 -0.0011  0.3060
17926TIP3   OH275268   6.291   0.872   0.877 -0.1438  0.0753 -0.3780
17926TIP3    H175269   6.259   0.841   0.792 -0.3063 -1.2018  0.1300
17926TIP3    H275270   6.306   0.792   0.928 -2.8035  0.8138  1.8209
17927TIP3   OH275271   1.393   2.100  13.035 -0.3646  0.4755  0.1382
17927TIP3    H175272   1.433   2.070  13.117 -1.3820 -2.2715 -0.2671
17927TIP3    H275273   1.465   2.099  12.972 -0.5976 -3.2402 -0.3021
17928TIP3   OH275274   0.772   3.308   2.914  0.0016  0.2199  0.2647
17928TIP3    H175275   0.830   3.383   2.929  0.3662 -0.1571  0.7907
17928TIP3    H275276   0.707   3.314   2.984 -2.1818  2.0878 -1.7483
17929TIP3   OH275277   4.255   6.442   5.404  0.9563 -0.1745  0.3865
17929TIP3    H175278   4.316   6.515   5.396  0.5899  0.5130  2.7828
17929TIP3    H275279   4.310   6.366   5.422  1.2620 -0.2375 -0.7620
17930TIP3   OH275280   5.601   6.565  15.951  0.3618  0.9660 -0.2956
17930TIP3    H175281   5.653   6.638  15.917  0.5774  0.0106 -2.1705
17930TIP3    H275282   5.546   6.604  16.019  1.3013  2.6223 -0.4408
17931TIP3   OH275283   3.831   5.977  12.323 -0.0988  0.1491  0.4001
17931TIP3    H175284   3.856   6.009  12.237 -0.1622 -1.2068 -0.1491
17931TIP3    H275285   3.736   5.962  12.317  0.0556 -0.9147  0.3507
17932TIP3   OH275286   2.872   5.371   2.468 -0.3032  0.0522 -0.0432
17932TIP3    H175287   2.938   5.436   2.442 -1.1920  0.1566 -2.2136
17932TIP3    H275288   2.923   5.292   2.488  0.5155 -0.0352 -2.1621
17933TIP3   OH275289   2.186   3.608  16.574 -0.5386 -0.0692 -0.6549
17933TIP3    H175290   2.253   3.646  16.517 -0.8676  0.4713 -0.6909
17933TIP3    H275291   2.123   3.679  16.586  0.1107  0.2436  1.3445
17934TIP3   OH275292   0.221   6.347  17.429 -0.0124 -0.3506 -0.2945
17934TIP3    H175293   0.166   6.280  17.388 -0.3952 -0.0031 -0.3658
17934TIP3    H275294   0.164   6.385  17.496  0.5489 -0.7986  0.4437
17935TIP3   OH275295   4.169   0.161  15.556 -0.5168  0.0328 -0.1921
17935TIP3    H175296   4.106   0.145  15.485 -1.0619  0.9493  0.0620
17935TIP3    H275297   4.114   0.172  15.634  0.0429 -0.3429  0.2615
17936TIP3   OH275298   6.244   4.177   5.032 -0.3118  0.0298  0.1336
17936TIP3    H175299   6.238   4.133   5.117  0.8079 -2.6695 -1.0655
17936TIP3    H275300   6.335   4.164   5.005 -0.6893  0.6458 -1.5563
17937TIP3   OH275301   4.599   2.091  12.771  0.1040 -0.4759  0.5036
17937TIP3    H175302   4.640   2.143  12.840 -1.7405 -0.2904  1.5156
17937TIP3    H275303   4.514   2.133  12.757 -1.6586 -3.3479  1.6480
17938TIP3   OH275304   1.216   0.278  16.416 -0.0816 -0.1193 -0.3661
17938TIP3    H175305   1.295   0.224  16.411 -0.3380 -0.4094 -1.7407
17938TIP3    H275306   1.184   0.282  16.326 -0.9506  1.0251 -0.0312
17939TIP3   OH275307   5.371   0.084  17.511  0.8558  0.4405  0.2706
17939TIP3    H175308   5.374  -0.002  17.470  1.0783  0.7269 -0.3315
17939TIP3    H275309   5.278   0.107  17.510  0.8596  0.4450 -0.0821
17940TIP3   OH275310   3.671   5.914  11.225  0.3954  0.2576  0.9631
17940TIP3    H175311   3.682   5.912  11.130 -0.4754 -1.1030  0.8710
17940TIP3    H275312   3.739   5.856  11.259  0.0686 -0.0522  1.0956
17941TIP3   OH275313   3.810   6.178  16.690  0.4216  0.2300  0.2539
17941TIP3    H175314   3.851   6.096  16.663 -0.7707 -0.3150  0.0452
17941TIP3    H275315   3.794   6.225  16.609 -0.5826 -0.1636  0.2081
17942TIP3   OH275316   6.024   2.524   4.547 -0.2062  0.2968  0.5201
17942TIP3    H175317   5.970   2.593   4.509  0.8934  0.9295  0.0760
17942TIP3    H275318   6.046   2.467   4.474 -0.6143 -0.1977  0.7776
17943TIP3   OH275319   2.025   4.035  17.000 -0.6723 -0.3547  0.4241
17943TIP3    H175320   1.975   4.031  17.081 -0.8533 -0.4002  0.3094
17943TIP3    H275321   2.092   4.102  17.016 -0.3465 -0.7654  0.8157
17944TIP3   OH275322   4.997   1.265   2.240  0.3764  0.2342  0.0722
17944TIP3    H175323   5.093   1.257   2.244  0.3371 -1.1405 -0.9119
17944TIP3    H275324   4.966   1.174   2.238 -1.0125  0.6451  1.2519
17945TIP3   OH275325   6.768   2.030  13.525 -0.5515  0.1619  0.5694
17945TIP3    H175326   6.775   2.124  13.538 -1.7076  0.1027  1.7876
17945TIP3    H275327   6.695   2.019  13.464 -0.1017  0.0707  0.0421
17946TIP3   OH275328   1.034   4.764   1.337  0.2694  0.1690 -0.4250
17946TIP3    H175329   0.972   4.776   1.409  0.3632 -1.1301 -0.1044
17946TIP3    H275330   1.090   4.842   1.340 -0.3109  0.5661  0.3197
17947TIP3   OH275331   6.410   5.491   0.176  0.0776 -0.3582 -0.0298
17947TIP3    H175332   6.329   5.529   0.144 -0.1271 -2.2444 -2.0020
17947TIP3    H275333   6.474   5.507   0.106  0.8589 -0.6550  0.5917
17948TIP3   OH275334   4.740   3.934   1.439 -0.2518 -0.1083 -0.0640
17948TIP3    H175335   4.782   3.917   1.523 -0.6084 -2.0716 -0.2214
17948TIP3    H275336   4.810   3.968   1.383  0.9278 -2.2970 -0.0112
17949TIP3   OH275337   5.401   4.314  14.895  0.6175  0.0899  0.2210
17949TIP3    H175338   5.382   4.404  14.868  2.3680  0.6275  0.6715
17949TIP3    H275339   5.397   4.263  14.814  0.5694  0.7473 -0.1961
17950TIP3   OH275340   1.718   2.750  14.228  0.9751 -0.4185 -0.0067
17950TIP3    H175341   1.721   2.656  14.243 -0.1946 -0.5948 -0.8131
17950TIP3    H275342   1.629   2.768  14.198  0.8819  1.0826  1.0152
17951TIP3   OH275343   3.456   4.573  14.601  0.2822  0.3820  0.0791
17951TIP3    H175344   3.521   4.510  14.571 -0.4432  0.1667 -1.1255
17951TIP3    H275345   3.466   4.648  14.543 -0.7638  0.1991 -0.3733
17952TIP3   OH275346   3.934   2.453  10.843  0.3562 -0.0135  0.0496
17952TIP3    H175347   3.859   2.451  10.783  0.5412  0.7846 -0.2186
17952TIP3    H275348   3.948   2.361  10.866 -1.4490 -0.0662  1.0584
17953TIP3   OH275349   3.251   5.832   5.765  0.3200  0.1765  0.1715
17953TIP3    H175350   3.298   5.795   5.690 -0.2883  0.1607 -0.2083
17953TIP3    H275351   3.184   5.888   5.726  0.0676  0.2546  0.7083
17954TIP3   OH275352   6.024   6.224  17.077 -0.7782 -0.1649  0.1564
17954TIP3    H175353   6.021   6.320  17.068 -1.3345 -0.3032 -1.4365
17954TIP3    H275354   6.030   6.209  17.171 -1.6522  1.4149  0.4976
17955TIP3   OH275355   2.022   6.119   4.213 -0.0254  0.6357 -0.3898
17955TIP3    H175356   2.041   6.132   4.306  2.4560  1.7756 -0.9616
17955TIP3    H275357   1.932   6.149   4.202 -0.6387 -0.2116  1.7325
17956TIP3   OH275358   5.914   6.727  12.186 -0.4501  0.3554  0.4932
17956TIP3    H175359   5.925   6.632  12.191 -2.8369  0.0592  1.9794
17956TIP3    H275360   5.943   6.751  12.098  1.0345 -1.5778  0.3955
17957TIP3   OH275361   0.151   3.848  15.083  0.1101  0.9293  0.1963
17957TIP3    H175362   0.229   3.797  15.104  0.0060 -0.1280 -1.6933
17957TIP3    H275363   0.177   3.904  15.010 -0.4656  1.7872  0.6299
17958TIP3   OH275364   5.953   1.696  13.762  0.3874  0.1946 -0.0740
17958TIP3    H175365   6.048   1.686  13.758  0.2199 -1.0416 -1.4836
17958TIP3    H275366   5.923   1.686  13.671 -1.4315 -3.3218  0.7281
17959TIP3   OH275367   5.367   2.447   5.032  0.5404  0.0227  0.0669
17959TIP3    H175368   5.409   2.488   5.107  1.3272  0.1012 -0.4016
17959TIP3    H275369   5.322   2.518   4.986 -0.5753 -0.1456  0.8536
17960TIP3   OH275370   4.948   4.527  16.312 -0.3492  0.3273 -0.4179
17960TIP3    H175371   5.017   4.491  16.255 -1.1509 -1.2431 -0.4505
17960TIP3    H275372   4.953   4.474  16.391 -2.1956 -0.5167 -0.8357
17961TIP3   OH275373   4.988   2.844   4.675 -0.2808 -0.3679  0.2136
17961TIP3    H175374   4.930   2.874   4.745  1.4275 -2.5662  2.7369
17961TIP3    H275375   5.046   2.918   4.659 -1.1387  0.4032  0.5752
17962TIP3   OH275376   5.202   0.496   1.955 -0.0699  0.2492  0.5277
17962TIP3    H175377   5.267   0.530   2.017  0.5151  1.1165 -0.5234
17962TIP3    H275378   5.137   0.452   2.009  0.6108  0.6822  1.7229
17963TIP3   OH275379   0.780   0.158  12.429 -0.7077 -0.1036  0.2115
17963TIP3    H175380   0.858   0.202  12.397 -3.8321  3.6406 -3.2321
17963TIP3    H275381   0.737   0.222  12.486 -3.9084  0.4406 -2.5096
17964TIP3   OH275382   6.089   4.302   4.523  0.1311 -0.0552  0.1869
17964TIP3    H175383   6.030   4.316   4.597 -0.4956  0.0895 -0.3249
17964TIP3    H275384   6.173   4.337   4.552 -0.2728  0.5991  0.5963
17965TIP3   OH275385   2.257   5.386   3.559  0.7396  0.6492 -0.2128
17965TIP3    H175386   2.170   5.395   3.521  0.7192 -2.2126 -1.1174
17965TIP3    H275387   2.260   5.451   3.629 -2.0461  0.9595 -0.2687
17966TIP3   OH275388   1.046   3.009  17.467 -0.0647  0.4345 -0.4199
17966TIP3    H175389   1.052   3.080  17.530  0.1417 -0.7254  0.9196
17966TIP3    H275390   1.087   2.934  17.511  0.1757 -0.3858 -1.9712
17967TIP3   OH275391   2.400   2.521   5.251 -0.2002  0.1894 -0.3376
17967TIP3    H175392   2.369   2.544   5.338 -0.0872  0.7466 -0.4380
17967TIP3    H275393   2.387   2.600   5.199  0.6786  0.1983 -0.5697
17968TIP3   OH275394   6.617   1.109  16.883  0.3942 -0.5939  0.3519
17968TIP3    H175395   6.549   1.046  16.860 -0.0715 -0.0635  0.2631
17968TIP3    H275396   6.578   1.162  16.952  0.2491  0.5201 -0.5579
17969TIP3   OH275397   5.140   1.974  15.919 -0.1922  0.2511  0.2902
17969TIP3    H175398   5.207   1.918  15.879  0.3819  1.5461 -0.6338
17969TIP3    H275399   5.181   2.007  15.999 -0.2317  0.0028  0.4145
17970TIP3   OH275400   2.926   3.441  15.726  0.0510 -0.5809 -0.3593
17970TIP3    H175401   2.997   3.491  15.765 -1.0626 -0.0713  1.0950
17970TIP3    H275402   2.970   3.373  15.675  1.5711  0.3451 -0.3458
17971TIP3   OH275403   1.279   6.717   3.631  0.7006 -0.1599 -0.4816
17971TIP3    H175404   1.281   6.777   3.706 -0.5212  0.2285 -0.7329
17971TIP3    H275405   1.277   6.630   3.670  2.1258 -0.0506 -0.1070
17972TIP3   OH275406   6.170   0.001   1.673  0.5510  0.5186 -0.3472
17972TIP3    H175407   6.144  -0.089   1.692  1.3365  0.2511 -0.5064
17972TIP3    H275408   6.244  -0.007   1.613  0.4741  1.2756 -0.5561
17973TIP3   OH275409   0.147   1.038  14.254  0.2326  0.6234  0.3673
17973TIP3    H175410   0.132   1.130  14.231 -2.5965 -0.3205 -2.3932
17973TIP3    H275411   0.215   1.009  14.193 -0.0537  0.5172  0.0952
17974TIP3   OH275412   2.366   6.410   3.600 -0.0013 -0.5223 -0.4666
17974TIP3    H175413   2.393   6.343   3.663  0.6791 -0.0261 -0.2134
17974TIP3    H275414   2.272   6.417   3.612  0.0985 -0.5333  0.4027
17975TIP3   OH275415   6.233   0.079  14.570  0.4129  0.6379  0.0855
17975TIP3    H175416   6.168   0.030  14.519  1.4132  1.3538 -1.9907
17975TIP3    H275417   6.202   0.170  14.566  0.1455  0.6221  1.3804
17976TIP3   OH275418   3.431   0.655  12.883  0.2799  0.2913 -0.5603
17976TIP3    H175419   3.495   0.606  12.831 -0.1297 -1.8926  0.8644
17976TIP3    H275420   3.349   0.609  12.868 -0.5969  1.9154 -0.8810
17977TIP3   OH275421   5.127   3.492  12.906 -0.5248 -0.2132  0.0743
17977TIP3    H175422   5.180   3.420  12.940 -2.4668 -0.9101  1.8748
17977TIP3    H275423   5.038   3.456  12.902 -1.5543  2.0382  1.0337
17978TIP3   OH275424   2.135   6.651   5.685 -0.6256 -0.1490 -0.6946
17978TIP3    H175425   2.080   6.644   5.763  0.0202 -1.0388 -0.3016
17978TIP3    H275426   2.224   6.633   5.717 -0.2270  0.3445 -1.4845
17979TIP3   OH275427   6.157   2.757  16.406 -0.5415  0.6101  0.0297
17979TIP3    H175428   6.131   2.678  16.360  1.4107 -0.1991  0.2064
17979TIP3    H275429   6.137   2.738  16.498  1.6992 -0.5522  0.3497
17980TIP3   OH275430   3.856   6.171  13.769  0.4503 -0.3116  0.2325
17980TIP3    H175431   3.820   6.199  13.685 -0.9398  0.4568  1.0437
17980TIP3    H275432   3.855   6.250  13.823  1.7856 -0.6838  0.8445
17981TIP3   OH275433   5.490   5.577   1.228  0.8422  0.0691 -0.1539
17981TIP3    H175434   5.523   5.654   1.181  0.0145 -0.6824 -2.0963
17981TIP3    H275435   5.399   5.568   1.199  0.2681 -0.4449  1.6675
17982TIP3   OH275436   1.527   3.855  11.960 -0.3072 -0.3680  0.0394
17982TIP3    H175437   1.529   3.769  12.002 -0.2494 -0.4558 -0.1417
17982TIP3    H275438   1.563   3.914  12.026 -1.7893 -0.2118  0.7664
17983TIP3   OH275439   2.230   1.357   6.579 -0.4349  0.2925 -0.4403
17983TIP3    H175440   2.228   1.291   6.648 -1.9298  2.1613  1.4457
17983TIP3    H275441   2.139   1.365   6.550  0.0917 -0.0863 -2.3149
17984TIP3   OH275442   2.625   5.304  12.034  0.2062  0.0392 -0.2447
17984TIP3    H175443   2.641   5.289  11.941  2.3972  1.7858 -0.2491
17984TIP3    H275444   2.595   5.394  12.039  2.1471  0.6954  0.8295
17985TIP3   OH275445   2.990   4.951   2.286  0.5356  0.3313 -0.0447
17985TIP3    H175446   2.995   4.911   2.373 -0.3207 -0.1818 -0.2221
17985TIP3    H275447   3.019   4.883   2.226 -1.3253 -0.1930 -0.3863
17986TIP3   OH275448   3.123   0.685  16.413 -0.0663 -0.2760 -0.1778
17986TIP3    H175449   3.083   0.647  16.334  3.2695  0.2255 -2.3000
17986TIP3    H275450   3.127   0.612  16.475 -2.1443 -0.8720 -0.6471
17987TIP3   OH275451   2.074   4.048   3.213  0.0432 -0.4913 -0.0135
17987TIP3    H175452   1.998   4.106   3.213  0.8718  0.6731  1.2559
17987TIP3    H275453   2.101   4.042   3.121  1.3652  3.1886 -0.0228
17988TIP3   OH275454   5.435   1.003  10.971  0.5557  0.2802 -0.1789
17988TIP3    H175455   5.355   1.015  10.919  0.5967 -0.7310 -0.4895
17988TIP3    H275456   5.497   1.066  10.934  0.0579  0.7484 -0.2386
17989TIP3   OH275457   6.429   0.859   4.555  0.2413  0.2419  0.0606
17989TIP3    H175458   6.421   0.948   4.589 -2.2802 -0.6299  2.0509
17989TIP3    H275459   6.369   0.857   4.480 -0.7895 -0.1173  0.8756
17990TIP3   OH275460   4.925   2.774   6.673 -0.3343  0.1223 -0.3790
17990TIP3    H175461   4.939   2.823   6.754  1.6590  0.7455 -1.0448
17990TIP3    H275462   4.854   2.821   6.629 -1.5095 -0.2798  0.9864
17991TIP3   OH275463   1.602   5.453  17.258  0.0055  0.2551  0.0792
17991TIP3    H175464   1.552   5.511  17.201 -1.2718 -2.2367 -1.5042
17991TIP3    H275465   1.681   5.432  17.207 -0.1515 -0.3738  0.0880
17992TIP3   OH275466   1.070   3.405  13.380 -0.2210  0.5720  0.0301
17992TIP3    H175467   1.036   3.406  13.290 -1.6972 -0.9369  0.5253
17992TIP3    H275468   1.123   3.326  13.385  1.1260  1.4496  0.0820
17993TIP3   OH275469   0.476   2.682  14.171  0.0272  0.2565  0.6411
17993TIP3    H175470   0.541   2.718  14.112 -1.0557  2.0265  0.4399
17993TIP3    H275471   0.468   2.747  14.241 -1.8808  0.3857  0.3700
17994TIP3   OH275472   3.174   0.313  13.406  0.3641  0.5319 -0.0062
17994TIP3    H175473   3.205   0.312  13.315 -0.0352 -0.4261 -0.1353
17994TIP3    H275474   3.082   0.336  13.400  1.1021  4.1645  0.4313
17995TIP3   OH275475   4.116   5.342  16.997 -0.0726 -0.5112  0.0449
17995TIP3    H175476   4.092   5.334  16.905  0.4748 -0.3134 -0.1181
17995TIP3    H275477   4.125   5.436  17.012 -0.8083 -0.4956  0.4756
17996TIP3   OH275478   3.986   6.173   2.945 -0.1410 -0.1053  0.1575
17996TIP3    H175479   4.006   6.092   2.991  0.2574 -0.1132 -0.0227
17996TIP3    H275480   4.041   6.240   2.987  1.0010 -0.3088 -0.9499
17997TIP3   OH275481   2.646   2.113   0.343 -0.1457  0.3825 -0.0034
17997TIP3    H175482   2.565   2.162   0.330 -0.8729 -0.4868  0.9725
17997TIP3    H275483   2.643   2.044   0.276  1.2209  2.0207 -1.8359
17998TIP3   OH275484   2.975   2.818  14.388 -0.6955  0.0150 -0.0346
17998TIP3    H175485   2.920   2.822  14.309  0.7100 -0.7048 -1.0865
17998TIP3    H275486   3.065   2.820  14.355  0.0378 -3.9251  1.2453
17999TIP3   OH275487   1.477   1.107  13.882 -0.2677  0.3322 -0.2382
17999TIP3    H175488   1.431   1.148  13.808 -1.2815  0.3777  0.4021
17999TIP3    H275489   1.451   1.158  13.958 -0.7502 -0.8759  0.4295
18000TIP3   OH275490   2.753   4.863  14.893  0.4737  0.3157 -0.3762
18000TIP3    H175491   2.669   4.817  14.898  0.6541  0.0827  0.7536
18000TIP3    H275492   2.747   4.930  14.962  1.2532  0.2222 -0.2114
18001TIP3   OH275493   1.005   5.567   1.635 -0.4345  0.3761 -0.2245
18001TIP3    H175494   0.979   5.476   1.644 -1.4822  0.4968 -1.7634
18001TIP3    H275495   0.955   5.600   1.560  0.6518  1.9492 -0.3136
18002TIP3   OH275496   1.853   2.305   1.989 -0.4975 -0.3455  0.4690
18002TIP3    H175497   1.873   2.398   1.982 -1.7709 -0.1147 -0.3017
18002TIP3    H275498   1.759   2.298   1.973 -0.0848 -1.9893 -1.8000
18003TIP3   OH275499   5.576   4.610   1.462  0.4280 -0.2842  0.0615
18003TIP3    H175500   5.535   4.651   1.386  0.7487  0.9212  0.5285
18003TIP3    H275501   5.503   4.574   1.513  0.0163  0.9438  0.3622
18004TIP3   OH275502   1.541   6.553   3.729  0.3621  0.1662 -0.0115
18004TIP3    H175503   1.459   6.503   3.730  1.3119 -1.4672  0.6353
18004TIP3    H275504   1.577   6.543   3.817  1.2573  0.8677 -0.2769
18005TIP3   OH275505   3.584   5.542  13.693  0.0498 -0.1246  0.0126
18005TIP3    H175506   3.546   5.458  13.719  0.8169 -1.2313 -2.1704
18005TIP3    H275507   3.509   5.595  13.665 -0.2786 -0.7364 -0.2709
18006TIP3   OH275508   1.902   6.520  12.574 -0.2005 -0.4180 -0.0147
18006TIP3    H175509   1.925   6.613  12.585 -1.3917 -0.1945  0.8969
18006TIP3    H275510   1.917   6.482  12.661  1.0640 -1.2877 -0.5942
18007TIP3   OH275511   1.748   6.696  16.044  0.1479 -0.5522 -0.4202
18007TIP3    H175512   1.832   6.693  15.999  0.4530  1.0271 -0.0151
18007TIP3    H275513   1.758   6.636  16.117  1.2162  0.1816  0.0693
18008TIP3   OH275514   4.810   6.269  16.146  0.6442  0.0157 -0.1168
18008TIP3    H175515   4.767   6.205  16.089  0.5886 -0.3607  0.3447
18008TIP3    H275516   4.904   6.256  16.130  0.6044  0.6577 -0.9257
18009TIP3   OH275517   5.002   1.458   0.639 -0.4400 -0.2623 -0.0398
18009TIP3    H175518   5.023   1.472   0.547 -2.5411  0.6189 -0.4411
18009TIP3    H275519   5.062   1.516   0.686  0.3171 -0.3497 -0.8712
18010TIP3   OH275520   5.826   2.668  11.425  0.0416  0.0861 -0.1494
18010TIP3    H175521   5.787   2.608  11.362  0.0559 -0.4974  0.3884
18010TIP3    H275522   5.907   2.697  11.384 -1.5029  2.3468 -1.8655
18011TIP3   OH275523   1.920   3.374   3.508 -0.4836  0.6116  0.0799
18011TIP3    H175524   1.929   3.338   3.596  0.6318 -1.5405 -0.8272
18011TIP3    H275525   1.837   3.337   3.476  0.6029 -1.2094 -0.8092
18012TIP3   OH275526   1.562   3.482  16.868  0.0002  0.3842 -0.1148
18012TIP3    H175527   1.512   3.521  16.939  0.4649  0.7089  0.0410
18012TIP3    H275528   1.649   3.466  16.906 -0.1193 -0.6239 -0.2325
18013TIP3   OH275529   6.754   2.962  16.567  0.4187 -0.0395  0.9369
18013TIP3    H175530   6.668   2.987  16.532  0.7726  2.5589  1.6936
18013TIP3    H275531   6.816   2.989  16.499  0.7316 -0.4271  1.0665
18014TIP3   OH275532   2.995   3.220  12.442 -0.4783 -0.0205 -0.2079
18014TIP3    H175533   3.018   3.234  12.533 -1.9124  0.6492  0.0720
18014TIP3    H275534   3.069   3.257  12.393 -0.0611  0.3370  0.6670
18015TIP3   OH275535   2.826   1.696  14.353 -0.1807  0.7403  0.6095
18015TIP3    H175536   2.856   1.771  14.302  0.9143  0.5304  0.9269
18015TIP3    H275537   2.786   1.638  14.289 -2.9507  2.4539  0.5979
18016TIP3   OH275538   0.079   1.293  14.228  0.6373  0.6262  0.4046
18016TIP3    H175539   0.093   1.305  14.322  0.1751 -4.3231  1.3840
18016TIP3    H275540  -0.016   1.291  14.218  0.6846  0.6860 -0.0941
18017TIP3   OH275541   4.853   3.189  12.246 -0.5710  0.4272  0.0534
18017TIP3    H175542   4.786   3.157  12.186 -0.3630  0.8685 -0.4289
18017TIP3    H275543   4.867   3.281  12.221  1.0957  0.0113 -0.7052
18018TIP3   OH275544   1.127   1.233  10.605  0.2589  0.4043 -0.0927
18018TIP3    H175545   1.120   1.322  10.570  0.3477  0.2437 -0.5232
18018TIP3    H275546   1.219   1.224  10.629  0.4061  0.1723 -0.7409
18019TIP3   OH275547   0.124   2.392  15.750 -0.5286 -0.9903  0.3718
18019TIP3    H175548   0.114   2.306  15.790 -1.8227 -0.8768  0.3596
18019TIP3    H275549   0.093   2.454  15.816 -1.5616 -0.7126 -0.3432
18020TIP3   OH275550   6.437   5.918   2.484 -0.0981  0.7930 -0.0923
18020TIP3    H175551   6.434   6.012   2.501  0.4260  0.6538  0.8035
18020TIP3    H275552   6.527   5.892   2.502  0.4394  0.5299 -2.6904
18021TIP3   OH275553   0.322   3.976   2.362  0.4082  0.2213  0.0531
18021TIP3    H175554   0.399   3.922   2.380 -1.0897 -1.9817  0.3249
18021TIP3    H275555   0.322   3.986   2.267  1.2127  0.5505  0.0797
18022TIP3   OH275556   0.126   2.544  13.406 -0.2360 -0.1924  0.1484
18022TIP3    H175557   0.127   2.471  13.345  0.5923 -0.7615  0.8234
18022TIP3    H275558   0.218   2.564  13.422 -0.4511  0.6549  0.3831
18023TIP3   OH275559   6.147   4.032   4.549  0.5439  0.9215  0.2989
18023TIP3    H175560   6.120   4.121   4.527 -0.0317  0.3735 -1.3940
18023TIP3    H275561   6.066   3.989   4.577  0.5238  0.5322 -0.3420
18024TIP3   OH275562   2.346   0.584   1.839 -0.6757 -0.1436 -0.0095
18024TIP3    H175563   2.277   0.633   1.795  0.3802  0.8986 -0.5751
18024TIP3    H275564   2.334   0.602   1.932  0.3941  2.2742 -0.2454
18025TIP3   OH275565   5.905   5.527  16.576  0.0741  0.0351  0.3100
18025TIP3    H175566   5.972   5.570  16.629 -0.1018 -0.0134  0.5735
18025TIP3    H275567   5.889   5.587  16.503  2.1485 -1.0127 -1.1213
18026TIP3   OH275568   3.733   1.659   4.045 -0.5247 -0.3198 -0.6692
18026TIP3    H175569   3.754   1.641   4.137 -2.0351 -0.5958 -0.3509
18026TIP3    H275570   3.818   1.660   4.001  0.4402  1.7798  1.0371
18027TIP3   OH275571   5.068   0.163  12.704 -0.3751 -0.1856  0.1399
18027TIP3    H175572   5.146   0.177  12.757  1.6374 -1.7615 -2.1963
18027TIP3    H275573   5.054   0.068  12.707 -3.5184  0.1966  2.1147
18028TIP3   OH275574   2.255   1.674  16.122  0.2264  0.3432  0.2128
18028TIP3    H175575   2.306   1.634  16.193 -1.7215 -0.3532  1.3082
18028TIP3    H275576   2.204   1.601  16.086 -1.4638  1.3387  0.5061
18029TIP3   OH275577   3.989   0.813   2.826  0.4041 -0.4477  0.1874
18029TIP3    H175578   4.038   0.740   2.861  0.9790  0.0324  0.3963
18029TIP3    H275579   3.971   0.869   2.902 -1.7391 -1.3137  0.3933
18030TIP3   OH275580   2.469   1.269  15.012  0.1927 -0.4612 -0.4183
18030TIP3    H175581   2.375   1.255  15.014  0.3000 -1.0928  1.0106
18030TIP3    H275582   2.480   1.363  15.028 -0.2301  0.0398 -2.6618
18031TIP3   OH275583   0.294   5.851   0.405  0.4493  0.1299  0.2573
18031TIP3    H175584   0.266   5.931   0.361 -0.9873 -1.1847 -1.3235
18031TIP3    H275585   0.372   5.878   0.454  0.6485  2.2451 -1.0669
18032TIP3   OH275586   2.770   2.596   4.859 -0.0078 -0.1219  0.3143
18032TIP3    H175587   2.722   2.591   4.942 -0.3103  1.5393  0.2636
18032TIP3    H275588   2.776   2.505   4.830  0.5842 -0.8217  2.4200
18033TIP3   OH275589   2.674   0.640   1.232 -0.1064  0.3617 -0.3264
18033TIP3    H175590   2.623   0.560   1.215 -1.1818  1.4090 -2.4415
18033TIP3    H275591   2.621   0.689   1.295 -0.9333  0.6855 -1.2426
18034TIP3   OH275592   3.342   2.223   0.249 -0.2905 -0.7265 -0.8190
18034TIP3    H175593   3.304   2.311   0.248 -0.5430 -0.8171  0.0045
18034TIP3    H275594   3.345   2.197   0.157 -0.4692  0.0347 -1.0458
18035TIP3   OH275595   3.900   1.459  15.748 -0.5694 -0.1059 -0.3061
18035TIP3    H175596   3.859   1.534  15.706  0.1917  0.7986  0.5390
18035TIP3    H275597   3.992   1.464  15.723  0.2207  1.2855  2.5426
18036TIP3   OH275598   6.267   0.291  16.351  0.1175  0.2816  0.0105
18036TIP3    H175599   6.216   0.358  16.305 -0.5668  1.7251  2.6421
18036TIP3    H275600   6.357   0.304  16.322 -0.4177  0.4046 -1.6742
18037TIP3   OH275601   3.619   5.677  15.013 -0.0685 -0.3212  0.6568
18037TIP3    H175602   3.598   5.720  15.095 -0.8549 -2.0011  1.3851
18037TIP3    H275603   3.713   5.693  15.000 -0.2364  1.1765  1.0996
18038TIP3   OH275604   3.229   1.024   2.589  0.2390 -0.4612  0.2195
18038TIP3    H175605   3.147   1.060   2.623  0.1207  0.4408 -0.9738
18038TIP3    H275606   3.204   0.941   2.549 -0.1246 -0.1258 -0.2562
18039TIP3   OH275607   3.323   5.380   4.424 -0.4805  0.1443 -0.1868
18039TIP3    H175608   3.371   5.301   4.446 -0.9185  0.5354  2.6129
18039TIP3    H275609   3.378   5.426   4.361  1.9481 -0.3121  1.4773
18040TIP3   OH275610   5.870   3.293  13.997  0.3183 -0.1255  0.1998
18040TIP3    H175611   5.917   3.210  13.987  0.6481  0.2922 -2.8593
18040TIP3    H275612   5.778   3.270  13.983  0.4966  0.0528 -1.5838
18041TIP3   OH275613   3.490   3.165   3.451 -0.2969 -0.1413  0.0236
18041TIP3    H175614   3.464   3.255   3.471 -0.2450 -0.0284 -0.4030
18041TIP3    H275615   3.567   3.150   3.505  0.9288  0.7793 -1.3781
18042TIP3   OH275616   2.687   1.001   3.714  0.4110  0.6685 -0.6257
18042TIP3    H175617   2.614   0.974   3.769  0.4387 -0.3477 -1.0688
18042TIP3    H275618   2.764   0.963   3.756  0.3921 -0.4303 -1.5464
18043TIP3   OH275619   1.068   6.003  12.147 -0.2377 -0.0318 -0.1121
18043TIP3    H175620   1.067   5.923  12.198  0.1181 -0.9026 -1.4030
18043TIP3    H275621   1.122   6.064  12.198 -1.1136 -0.3530  1.2275
18044TIP3   OH275622   4.388   6.073   3.837 -0.0520 -0.2230  0.1174
18044TIP3    H175623   4.307   6.108   3.875 -0.3934 -2.8373  2.0715
18044TIP3    H275624   4.363   6.047   3.748 -2.0196 -2.7073  1.2718
18045TIP3   OH275625   0.814   4.389   0.806 -0.5296 -0.0787 -0.4506
18045TIP3    H175626   0.891   4.445   0.797 -0.1222 -0.1490  1.9803
18045TIP3    H275627   0.744   4.438   0.763  0.4700  0.8452 -1.0824
18046TIP3   OH275628   0.289   5.959  15.811 -0.5315  0.3080 -0.9941
18046TIP3    H175629   0.256   5.871  15.796 -0.9727  0.3512 -0.3189
18046TIP3    H275630   0.239   5.991  15.886  1.2161  0.2658  0.2460
18047TIP3   OH275631   3.979   5.656  15.580 -0.0102 -0.2368 -0.2962
18047TIP3    H175632   3.932   5.694  15.506 -1.3160 -0.9273  0.1411
18047TIP3    H275633   3.983   5.727  15.644 -0.1109 -0.0515 -0.4936
18048TIP3   OH275634   5.632   0.822  16.379  0.1433  0.1551 -0.4035
18048TIP3    H175635   5.589   0.756  16.433 -0.3015 -0.3360 -1.3403
18048TIP3    H275636   5.664   0.774  16.303  0.9508  0.7983 -0.4866
18049TIP3   OH275637   1.300   0.116  14.477  0.3676 -0.1055 -0.2545
18049TIP3    H175638   1.258   0.098  14.561  0.4482  0.1781 -0.1524
18049TIP3    H275639   1.392   0.132  14.498  1.0052 -2.7862 -0.7021
18050TIP3   OH275640   4.480   3.645   2.861  0.1107 -0.3122 -0.2631
18050TIP3    H175641   4.409   3.674   2.803  0.4569  1.7946  0.2845
18050TIP3    H275642   4.483   3.550   2.849  0.6230  0.0108 -4.2781
18051TIP3   OH275643   3.777   6.532   5.515  0.4828  0.9843  0.1778
18051TIP3    H175644   3.721   6.473   5.566  0.9813  1.3587  1.1816
18051TIP3    H275645   3.813   6.477   5.446 -1.0369  0.7062 -0.4504
18052TIP3   OH275646   4.836   2.967   0.066  0.3717  0.3769  0.4376
18052TIP3    H175647   4.769   3.015   0.017  2.6835  2.1796 -1.1889
18052TIP3    H275648   4.899   2.939  -0.000  1.3639 -1.0778  1.9152
18053TIP3   OH275649   0.222   5.580  15.133  0.2737 -0.2641 -0.3346
18053TIP3    H175650   0.260   5.520  15.197 -0.9942 -1.6222 -0.7851
18053TIP3    H275651   0.166   5.639  15.184  0.6485 -0.1956 -0.0062
18054TIP3   OH275652   3.120   5.633   3.308 -0.2161  0.5011 -0.4368
18054TIP3    H175653   3.103   5.718   3.351 -0.8919 -0.2621  0.8797
18054TIP3    H275654   3.195   5.650   3.251  1.5297  1.3386  1.9214
18055TIP3   OH275655   1.061   2.683  16.385 -0.3552  0.0277  0.0977
18055TIP3    H175656   1.154   2.662  16.376 -0.2956 -0.3844  1.4398
18055TIP3    H275657   1.035   2.715  16.299  0.8183 -0.6866 -0.5490
18056TIP3   OH275658   5.392   2.384   4.596  0.4139 -0.2297 -0.8171
18056TIP3    H175659   5.297   2.386   4.587  0.5224  0.4182 -1.9434
18056TIP3    H275660   5.411   2.441   4.670  0.0019  0.7078 -1.4153
18057TIP3   OH275661   5.624   6.424   2.628  0.4336 -0.2152  0.2501
18057TIP3    H175662   5.537   6.385   2.626  0.2982 -0.1731  2.4823
18057TIP3    H275663   5.670   6.384   2.554 -1.0015 -1.3792 -0.0621
18058TIP3   OH275664   0.155   0.357  12.590  0.4455 -0.2548 -0.2155
18058TIP3    H175665   0.214   0.363  12.515 -0.4207 -1.3562 -1.0205
18058TIP3    H275666   0.199   0.298  12.651  1.2026  0.7312  0.2125
18059TIP3   OH275667   3.988   4.981  12.385  0.0433 -0.1501  0.1349
18059TIP3    H175668   3.994   5.046  12.316  1.5201 -1.2180 -0.7925
18059TIP3    H275669   3.895   4.958  12.388 -0.2528  0.8916 -0.5401
18060TIP3   OH275670   5.842   5.098   0.072  0.1896  0.0619 -0.5655
18060TIP3    H175671   5.915   5.145   0.111  0.4290 -0.3330 -0.5252
18060TIP3    H275672   5.871   5.075  -0.016  0.0104  0.1393 -0.6454
18061TIP3   OH275673   4.321   0.558  11.296 -0.0821 -0.1478 -0.4535
18061TIP3    H175674   4.247   0.618  11.305  0.1899 -0.0332  1.2716
18061TIP3    H275675   4.388   0.594  11.354  0.8497 -0.9748 -0.9979
18062TIP3   OH275676   0.298   4.121   3.303 -0.0684 -0.1981 -0.0028
18062TIP3    H175677   0.369   4.144   3.243 -2.2369  0.0047 -2.6683
18062TIP3    H275678   0.299   4.026   3.306 -0.5748 -0.2630 -1.2572
18063TIP3   OH275679   3.682   1.837  16.167 -0.2739 -0.2104 -0.2050
18063TIP3    H175680   3.737   1.914  16.154 -0.6532  0.2635  0.8658
18063TIP3    H275681   3.707   1.803  16.252 -1.1693 -0.3733  0.0120
18064TIP3   OH275682   6.304   5.354  16.840 -0.0308  0.2100 -0.1971
18064TIP3    H175683   6.217   5.344  16.878 -0.6377  0.1363 -1.5440
18064TIP3    H275684   6.353   5.279  16.873 -0.7110 -0.1696 -0.0245
18065TIP3   OH275685   0.809   6.481   4.770 -0.1996 -0.3421  0.7317
18065TIP3    H175686   0.794   6.484   4.676  0.8710 -1.4276  0.5015
18065TIP3    H275687   0.902   6.500   4.781  0.1883 -2.3398  1.3591
18066TIP3   OH275688   4.307   6.070  13.864 -0.0269  0.2333  0.1540
18066TIP3    H175689   4.302   6.006  13.792 -1.2517  1.1376 -0.6108
18066TIP3    H275690   4.283   6.153  13.823 -0.6232  0.7940  1.6003
18067TIP3   OH275691   1.846   4.182   0.649  0.6099 -0.4925 -0.0536
18067TIP3    H175692   1.751   4.179   0.642  0.6107  0.9019 -1.0534
18067TIP3    H275693   1.874   4.228   0.570  1.8944  1.6822  1.5502
18068TIP3   OH275694   0.282   3.202   5.896  0.1821 -0.1912 -0.1143
18068TIP3    H175695   0.262   3.277   5.839 -0.5189 -0.4306 -0.2008
18068TIP3    H275696   0.292   3.240   5.983  1.6393  0.2282 -0.4382
18069TIP3   OH275697   6.365   1.997  14.171  0.1750  0.4770 -0.1157
18069TIP3    H175698   6.304   1.964  14.236  2.3027 -0.1331  1.7211
18069TIP3    H275699   6.416   2.064  14.217  0.6387  1.2483 -1.6760
18070TIP3   OH275700   3.607   6.546   4.254 -0.0447 -0.1603 -0.2472
18070TIP3    H175701   3.517   6.518   4.235 -0.3800 -0.7324  1.9556
18070TIP3    H275702   3.604   6.641   4.243 -1.1355 -0.0818  0.5728
18071TIP3   OH275703   4.744   1.015  11.425  0.0998  0.4609 -0.3328
18071TIP3    H175704   4.749   0.938  11.369 -1.5945  0.2009 -0.1565
18071TIP3    H275705   4.826   1.014  11.474  0.0446 -1.3146 -0.2135
18072TIP3   OH275706   3.062   5.381  12.685 -0.0312 -0.4358  0.2981
18072TIP3    H175707   3.140   5.427  12.718 -0.8436  1.6135 -0.4520
18072TIP3    H275708   3.067   5.389  12.590 -0.9973 -0.5395  0.2271
18073TIP3   OH275709   2.324   5.505  11.456 -0.4315  0.3669 -0.5517
18073TIP3    H175710   2.374   5.551  11.523 -0.1174  0.0360 -0.5614
18073TIP3    H275711   2.380   5.505  11.379 -1.0185  1.2480 -0.9990
18074TIP3   OH275712   1.210   4.491  11.362 -0.4817 -0.6416 -0.0409
18074TIP3    H175713   1.290   4.439  11.376  0.3680  0.9809  1.6451
18074TIP3    H275714   1.139   4.427  11.368  0.5288 -1.7044  1.7295
18075TIP3   OH275715   2.982   5.992  14.064  0.2000 -0.0370  0.1549
18075TIP3    H175716   2.968   6.079  14.099  0.1498  0.3161 -0.7087
18075TIP3    H275717   2.912   5.939  14.103  1.1686 -0.0727  1.9122
18076TIP3   OH275718   4.842   6.259  12.213  0.2237  0.4895  0.3997
18076TIP3    H175719   4.795   6.181  12.241  0.8320  0.0577  0.2309
18076TIP3    H275720   4.928   6.251  12.254  0.1941  1.2248  0.6275
18077TIP3   OH275721   1.748   5.930  13.086  0.4327  0.5716  0.3178
18077TIP3    H175722   1.687   5.910  13.015 -1.5157 -0.6080  2.1992
18077TIP3    H275723   1.825   5.877  13.068  0.4601  1.1715 -1.4909
18078TIP3   OH275724   1.277   1.810   2.667  0.1174 -0.2338  0.2751
18078TIP3    H175725   1.347   1.760   2.625  1.7818  1.4558  0.9016
18078TIP3    H275726   1.233   1.855   2.594  0.6088 -0.1939 -0.0026
18079TIP3   OH275727   4.354   5.052  15.935  0.1795  0.0313  0.6295
18079TIP3    H175728   4.308   4.983  15.887 -1.1355 -0.3486  2.3029
18079TIP3    H275729   4.441   5.056  15.896  0.0022 -2.0012 -0.0592
18080TIP3   OH275730   6.237   3.723   3.783 -0.1243  0.7303 -0.0778
18080TIP3    H175731   6.237   3.802   3.728  0.7122  0.2913 -0.7441
18080TIP3    H275732   6.300   3.665   3.740 -1.3190 -0.6342 -0.0700
18081TIP3   OH275733   5.833   3.334   5.846  0.2274  0.0946 -0.6746
18081TIP3    H175734   5.825   3.372   5.758  0.3961 -1.4395 -1.3882
18081TIP3    H275735   5.773   3.386   5.900 -0.7683  0.3280 -1.9511
18082TIP3   OH275736   5.209   2.584  11.888 -0.6143  0.2437 -0.3289
18082TIP3    H175737   5.223   2.676  11.867 -1.4941  0.5904  0.5153
18082TIP3    H275738   5.214   2.580  11.983  1.0586 -0.8866 -0.4192
18083TIP3   OH275739   3.088   3.709   2.087 -0.0706  0.4826  0.4992
18083TIP3    H175740   3.178   3.697   2.056 -0.9070 -0.3439 -1.8312
18083TIP3    H275741   3.068   3.627   2.134 -0.1953 -0.1617 -0.6410
18084TIP3   OH275742   6.447   0.179   0.756  0.3336  0.3705  0.3894
18084TIP3    H175743   6.507   0.232   0.809 -0.9983  0.1224  2.2493
18084TIP3    H275744   6.464   0.207   0.666  2.0183  1.5170  0.9957
18085TIP3   OH275745   4.176   4.098  11.905 -0.4616 -0.0730 -0.0474
18085TIP3    H175746   4.161   4.189  11.877 -0.5501 -0.0130  0.1939
18085TIP3    H275747   4.174   4.048  11.824 -1.2243  0.0322 -0.0998
18086TIP3   OH275748   3.192   3.299   0.590 -0.4552  0.3224 -0.0597
18086TIP3    H175749   3.217   3.237   0.522  1.7415  1.1690 -0.1206
18086TIP3    H275750   3.147   3.370   0.544  1.4590  1.1342 -0.7784
18087TIP3   OH275751   3.094   1.654  14.425 -0.2264  0.2197 -0.0911
18087TIP3    H175752   3.001   1.668  14.405 -0.2765  1.5068  0.9009
18087TIP3    H275753   3.141   1.709  14.362  0.0093 -1.7542 -1.7742
18088TIP3   OH275754   0.163   2.940  15.793  0.5930  0.3748  0.1410
18088TIP3    H175755   0.195   2.936  15.703 -1.2894  0.1525 -0.5560
18088TIP3    H275756   0.072   2.968  15.786  0.6405  1.2072  2.0463
18089TIP3   OH275757   2.249   2.389   6.342 -0.5036 -0.4757  0.2631
18089TIP3    H175758   2.314   2.404   6.411  0.1384  0.2110 -0.4780
18089TIP3    H275759   2.165   2.394   6.388 -0.2947  3.2031  0.5660
18090TIP3   OH275760   2.958   2.180   1.804  0.2695  0.0167  0.2719
18090TIP3    H175761   2.979   2.244   1.872  2.1646  1.5235 -1.5793
18090TIP3    H275762   2.874   2.208   1.768  0.3573  0.5658  0.4989
18091TIP3   OH275763   1.987   1.585   1.565 -0.2978 -0.2994  0.4001
18091TIP3    H175764   1.974   1.536   1.483 -2.9712  0.1382  0.4741
18091TIP3    H275765   2.022   1.669   1.537  1.4679 -1.1412 -0.0055
18092TIP3   OH275766   5.095   6.485   2.027 -0.3835 -0.6014 -0.0976
18092TIP3    H175767   5.075   6.409   1.972  0.1531  0.3658 -1.6951
18092TIP3    H275768   5.013   6.535   2.029 -0.6624 -1.0674  0.7470
18093TIP3   OH275769   3.207   5.547   5.880  0.7475 -0.1439 -0.3160
18093TIP3    H175770   3.201   5.597   5.961  1.5935  1.7596 -1.3476
18093TIP3    H275771   3.203   5.613   5.811  0.2831 -1.6783 -1.8435
18094TIP3   OH275772   4.789   0.502  13.942  0.6122  0.3412  0.1664
18094TIP3    H175773   4.807   0.513  14.035  1.2871  0.9565 -0.0321
18094TIP3    H275774   4.734   0.576  13.919  1.0322  0.5816 -0.0769
18095TIP3   OH275775   2.557   5.769  11.122  0.5017 -0.1483 -0.3949
18095TIP3    H175776   2.571   5.817  11.040 -0.1389 -1.6158 -1.3930
18095TIP3    H275777   2.470   5.731  11.113  0.3252 -0.1379  1.0804
18096TIP3   OH275778   1.193   2.412   2.866  0.4006 -0.1300 -0.0134
18096TIP3    H175779   1.240   2.329   2.879 -0.9954 -1.1164 -0.9859
18096TIP3    H275780   1.245   2.476   2.915  1.2000 -1.6667  1.2833
18097TIP3   OH275781   4.709   2.318   5.999 -0.3958  0.2968 -0.5834
18097TIP3    H175782   4.679   2.373   5.927 -0.5976  0.6888 -0.2003
18097TIP3    H275783   4.769   2.256   5.958 -1.3722 -0.2072 -1.2823
18098TIP3   OH275784   6.280   1.571   6.115  0.2293  0.4938  0.2890
18098TIP3    H175785   6.213   1.594   6.180 -0.5639 -0.8347 -0.0206
18098TIP3    H275786   6.233   1.519   6.050  0.9737  1.9440 -1.4722
18099TIP3   OH275787   2.321   2.049   3.237 -0.1465 -0.0698 -0.6078
18099TIP3    H175788   2.268   2.037   3.316  1.3676 -1.2519  0.2989
18099TIP3    H275789   2.291   2.132   3.200 -0.3309  0.9696  1.6758
18100TIP3   OH275790   0.064   0.514   0.770  0.1856  0.0390 -0.0413
18100TIP3    H175791   0.069   0.541   0.862  1.2181  0.6226 -0.2623
18100TIP3    H275792   0.140   0.553   0.729 -0.9354  0.8666 -1.4320
18101TIP3   OH275793   2.798   5.142   2.185  0.4938  0.1420  0.7867
18101TIP3    H175794   2.872   5.082   2.195  0.1325 -0.6228 -0.7533
18101TIP3    H275795   2.721   5.087   2.194  0.1498  0.1357 -1.4756
18102TIP3   OH275796   4.567   5.216   3.392 -0.3985  0.3423  0.4912
18102TIP3    H175797   4.582   5.304   3.425  2.7071  0.3466 -0.6038
18102TIP3    H275798   4.478   5.218   3.356 -1.4410  2.1477  2.9564
18103TIP3   OH275799   4.826   2.603  13.069  0.6765 -0.1711 -0.4095
18103TIP3    H175800   4.860   2.689  13.044  2.5796 -0.6410  0.4033
18103TIP3    H275801   4.841   2.598  13.163 -0.4172 -0.9868 -0.2581
18104TIP3   OH275802   0.333   2.208   4.325  0.2184 -0.1427  0.0246
18104TIP3    H175803   0.397   2.158   4.274  1.5998  2.3167 -0.8895
18104TIP3    H275804   0.381   2.234   4.404 -0.5787 -0.5568  0.6506
18105TIP3   OH275805   1.935   3.376  15.506 -0.1693 -0.2872  0.2891
18105TIP3    H175806   2.019   3.404  15.542  1.5670 -1.9642 -2.1009
18105TIP3    H275807   1.890   3.334  15.579  1.3703  0.0422  1.4680
18106TIP3   OH275808   4.848   4.382  13.309 -0.9166 -0.1604 -0.1439
18106TIP3    H175809   4.832   4.310  13.371 -0.8629 -0.1700 -0.1413
18106TIP3    H275810   4.786   4.450  13.335  0.4571  0.6391  1.2007
18107TIP3   OH275811   0.213   3.830  11.343 -0.6206  0.3877  0.2181
18107TIP3    H175812   0.134   3.804  11.296 -0.3726  0.5867 -0.3140
18107TIP3    H275813   0.268   3.873  11.277  0.6470 -1.1887  0.1647
18108TIP3   OH275814   5.351   2.659  17.365 -0.5644  0.7296  0.0854
18108TIP3    H175815   5.309   2.622  17.442  0.6797  0.3565  0.5997
18108TIP3    H275816   5.443   2.671  17.390  0.0013  0.0284 -1.5219
18109TIP3   OH275817   1.188   5.338  13.582  0.0361  0.0193 -0.4790
18109TIP3    H175818   1.169   5.347  13.675 -0.2291 -1.5808 -0.3600
18109TIP3    H275819   1.251   5.408  13.564  0.3866  0.1074  0.9728
18110TIP3   OH275820   0.447   0.357   0.220  0.5965  0.0657  0.0224
18110TIP3    H175821   0.500   0.286   0.186 -0.1815 -0.4230 -0.2081
18110TIP3    H275822   0.436   0.417   0.145  0.3456 -0.1239 -0.0933
18111TIP3   OH275823   4.143   2.599  13.901 -0.4131  0.5992 -0.1060
18111TIP3    H175824   4.230   2.585  13.939 -0.9569 -1.9156  0.3829
18111TIP3    H275825   4.153   2.572  13.810  0.0381  3.4226 -1.0113
18112TIP3   OH275826   1.996   2.153  14.035  0.1826 -0.1142  0.0032
18112TIP3    H175827   1.995   2.157  13.939 -1.2784 -2.7547 -0.1772
18112TIP3    H275828   2.085   2.180  14.059  1.2702 -1.4183 -2.2383
18113TIP3   OH275829   2.144   2.425   1.787  0.3675 -0.5457 -0.5365
18113TIP3    H175830   2.073   2.487   1.775  0.7081  0.0612  0.4833
18113TIP3    H275831   2.103   2.339   1.777 -0.5181 -0.2062  0.0680
18114TIP3   OH275832   3.485   5.953  16.354  0.3680 -0.3543  0.1738
18114TIP3    H175833   3.550   5.921  16.291  0.6733 -1.5559  1.0635
18114TIP3    H275834   3.404   5.960  16.304  0.7800 -0.5533 -0.5336
18115TIP3   OH275835   4.123   4.808   2.523 -0.6004  0.6461  0.1165
18115TIP3    H175836   4.031   4.834   2.526 -0.8530 -0.2572  0.4937
18115TIP3    H275837   4.157   4.850   2.443 -0.9777  2.0676  0.6649
18116TIP3   OH275838   3.955   6.031  12.051 -0.0780 -0.6394  0.2152
18116TIP3    H175839   3.986   6.102  12.107 -3.0691 -0.2903  1.6172
18116TIP3    H275840   3.977   6.059  11.962  0.2377  1.2653  0.8432
18117TIP3   OH275841   1.033   4.507   2.052  0.2103 -0.4224  0.0631
18117TIP3    H175842   0.956   4.497   2.108  0.8685 -0.4100  1.0010
18117TIP3    H275843   1.038   4.425   2.003 -0.4529 -0.3804 -0.0887
18118TIP3   OH275844   5.085   4.188  13.210  0.1754 -0.0034  0.2860
18118TIP3    H175845   5.104   4.151  13.124 -3.0430 -1.8965  0.2463
18118TIP3    H275846   5.010   4.247  13.196  0.6924  1.0233  1.5438
18119TIP3   OH275847   0.506   4.635   3.776  0.0654 -0.8134 -0.4447
18119TIP3    H175848   0.431   4.576   3.788 -0.2782 -0.2743  0.0991
18119TIP3    H275849   0.575   4.579   3.741 -0.8654 -1.1446 -1.8247
18120TIP3   OH275850   5.639   1.813   6.131  0.0797  0.0707  0.2218
18120TIP3    H175851   5.587   1.733   6.123  0.6038 -0.1284 -1.7014
18120TIP3    H275852   5.596   1.876   6.074  1.7434 -0.0247 -1.2202
18121TIP3   OH275853   4.062   1.787   4.421  0.0160  0.2999 -0.4204
18121TIP3    H175854   3.996   1.735   4.468 -0.6221  2.3660  1.1378
18121TIP3    H275855   4.142   1.735   4.427 -1.0239 -1.4148 -0.7312
18122TIP3   OH275856   6.074   1.504   2.893  0.1755  0.0042 -0.1988
18122TIP3    H175857   5.986   1.538   2.907  0.0683  0.7584 -2.3490
18122TIP3    H275858   6.124   1.538   2.968 -1.3821 -0.7273  1.2522
18123TIP3   OH275859   1.334   5.896   2.740 -0.0692  0.6921  0.8984
18123TIP3    H175860   1.404   5.895   2.675 -1.6858  0.1094 -0.9327
18123TIP3    H275861   1.269   5.957   2.705 -2.2202 -1.6666  0.5061
18124TIP3   OH275862   3.828   5.176   6.086 -0.0267 -0.8696 -0.1612
18124TIP3    H175863   3.874   5.192   6.003 -0.8143  1.2693 -0.2499
18124TIP3    H275864   3.758   5.242   6.087 -0.3104 -1.1599  1.9947
18125TIP3   OH275865   2.876   2.145   6.870  0.0031 -0.6224  0.3309
18125TIP3    H175866   2.851   2.236   6.856  0.4507 -0.5625 -0.1188
18125TIP3    H275867   2.796   2.096   6.854  0.0960 -0.4151 -0.8689
18126TIP3   OH275868   3.945   4.228  16.757  0.6797 -0.1431 -0.1664
18126TIP3    H175869   3.992   4.279  16.823 -1.2999  0.7005  0.6646
18126TIP3    H275870   3.910   4.294  16.697 -0.7824 -0.5791  0.1614
18127TIP3   OH275871   5.001   4.264   3.914  0.0714 -0.2067 -0.2837
18127TIP3    H175872   5.016   4.333   3.849 -1.1247  1.2416  0.8916
18127TIP3    H275873   4.953   4.196   3.867  0.1913  0.3203 -1.1785
18128TIP3   OH275874   3.996   2.442  14.091  0.6400 -0.1413 -0.0314
18128TIP3    H175875   4.028   2.363  14.048 -1.0419 -0.6717 -0.3993
18128TIP3    H275876   4.039   2.514  14.045 -1.0293 -0.6855 -2.6728
18129TIP3   OH275877   0.707   2.101   5.324 -0.3685 -0.0377  0.4943
18129TIP3    H175878   0.726   2.028   5.265  0.6609  0.8966 -0.3897
18129TIP3    H275879   0.653   2.161   5.272 -0.7692  0.0740  1.0308
18130TIP3   OH275880   5.758   0.200  17.109 -0.2961 -0.3135  0.2748
18130TIP3    H175881   5.687   0.159  17.159 -0.6110 -2.7534 -1.9582
18130TIP3    H275882   5.715   0.270  17.060 -0.5472  0.1917  1.1969
18131TIP3   OH275883   0.308   1.636  13.654  0.2085  0.2256 -0.3930
18131TIP3    H175884   0.255   1.703  13.697  0.5605  0.6356 -0.5886
18131TIP3    H275885   0.329   1.574  13.723 -0.6454 -0.0219 -0.3448
18132TIP3   OH275886   3.887   6.035  13.117  0.0637 -0.3529 -0.4471
18132TIP3    H175887   3.947   6.048  13.190 -0.7199 -1.1201  0.3415
18132TIP3    H275888   3.942   5.998  13.048  0.6630 -0.2831 -0.0161
18133TIP3   OH275889   5.022   6.492  16.604  0.6978  0.3236 -0.0890
18133TIP3    H175890   5.050   6.442  16.527  2.1318  1.7867 -0.5827
18133TIP3    H275891   5.054   6.441  16.678  0.3323 -0.5154 -0.4968
18134TIP3   OH275892   1.082   4.356   1.035  0.1192  0.4275 -0.3042
18134TIP3    H175893   1.128   4.308   1.104  0.2968 -0.3620 -0.9475
18134TIP3    H275894   0.992   4.364   1.067  0.4959  1.2022  0.5740
18135TIP3   OH275895   2.648   4.516  12.958 -0.4184 -1.1955 -0.4384
18135TIP3    H175896   2.574   4.552  13.007 -0.9866 -1.4600 -1.0916
18135TIP3    H275897   2.616   4.509  12.868  0.4353 -1.2189 -0.7463
18136TIP3   OH275898   6.321   2.384  16.487 -0.5279 -0.1802  0.3437
18136TIP3    H175899   6.333   2.303  16.536 -1.3977  0.2077  1.2315
18136TIP3    H275900   6.405   2.398  16.442  0.5854 -0.1377  2.3321
18137TIP3   OH275901   4.008   1.552   6.010 -0.1136 -0.6104 -0.0152
18137TIP3    H175902   3.947   1.595   6.070  1.2574  0.1143  0.9221
18137TIP3    H275903   3.989   1.592   5.925 -1.6349 -1.1731  0.0271
18138TIP3   OH275904   0.515   5.823   0.212  0.0550 -0.1486 -0.0441
18138TIP3    H175905   0.477   5.783   0.134 -1.0239 -1.6612  1.1908
18138TIP3    H275906   0.458   5.897   0.232 -0.1713 -0.2823 -0.1965
18139TIP3   OH275907   5.698   5.228   1.387 -0.0147  0.2040  1.3094
18139TIP3    H175908   5.612   5.185   1.390 -0.9233  1.9716  2.0942
18139TIP3    H275909   5.712   5.261   1.476  1.0694  0.7117  0.9730
18140TIP3   OH275910   0.589   4.398   4.320 -0.2474  0.1767  0.2548
18140TIP3    H175911   0.671   4.350   4.312  0.4352  1.4242 -0.6757
18140TIP3    H275912   0.570   4.427   4.231 -2.0544 -0.6141  0.3330
18141TIP3   OH275913   4.355   4.114   5.531 -0.4571  0.1370  0.1543
18141TIP3    H175914   4.388   4.128   5.620  0.0353 -0.1358  0.0141
18141TIP3    H275915   4.268   4.156   5.531 -0.7329 -0.4251  0.9472
18142TIP3   OH275916   3.983   5.432   5.489 -0.1079 -0.5027 -0.2778
18142TIP3    H175917   3.889   5.415   5.494 -0.1228 -0.0864  2.1797
18142TIP3    H275918   4.024   5.346   5.481 -0.6026 -1.0629  2.3243
18143TIP3   OH275919   2.917   0.749   6.391 -0.1891 -0.1672 -0.2603
18143TIP3    H175920   2.832   0.781   6.421 -0.3503 -0.8588  0.0372
18143TIP3    H275921   2.923   0.779   6.300  0.5110  2.3607  0.5361
18144TIP3   OH275922   4.178   4.544   0.692  0.8229 -0.0557  0.2156
18144TIP3    H175923   4.184   4.565   0.599  0.1832  0.6229  0.3191
18144TIP3    H275924   4.268   4.545   0.722  1.2632 -2.3545 -0.8220
18145TIP3   OH275925   2.521   3.294   3.912  0.5467 -0.0935  0.1257
18145TIP3    H175926   2.449   3.288   3.849  0.0576 -0.8419  0.7409
18145TIP3    H275927   2.568   3.211   3.902  0.0042 -0.5515  1.2903
18146TIP3   OH275928   6.417   5.094   4.808 -0.4636 -0.4022 -0.0132
18146TIP3    H175929   6.497   5.052   4.839 -0.3389 -1.9869 -2.2089
18146TIP3    H275930   6.433   5.111   4.715 -3.0272 -1.8765 -0.8552
18147TIP3   OH275931   6.644   1.173   4.681 -0.2340 -0.1160  0.3380
18147TIP3    H175932   6.613   1.223   4.606  0.2438 -1.4113 -0.7659
18147TIP3    H275933   6.580   1.102   4.690 -0.0065 -0.2655  0.8395
18148TIP3   OH275934   0.920   4.091  11.184 -0.2399  0.1463  0.0743
18148TIP3    H175935   0.850   4.103  11.121 -0.4547  0.7143  0.4173
18148TIP3    H275936   0.901   4.006  11.225 -0.4313  0.0561 -0.2033
18149TIP3   OH275937   3.351   4.113  14.238  0.1568  0.2483 -0.2657
18149TIP3    H175938   3.316   4.198  14.266  1.5138  0.6597  0.3146
18149TIP3    H275939   3.436   4.108  14.282  0.6516 -0.8547 -1.3111
18150TIP3   OH275940   0.172   6.009  11.783 -0.1051 -0.0123  0.1539
18150TIP3    H175941   0.115   5.957  11.839  0.0894 -5.1303 -3.6471
18150TIP3    H275942   0.125   6.016  11.700  3.0838 -1.2031 -1.9772
18151TIP3   OH275943   6.579   0.733   6.109  0.1228 -0.3135  0.0087
18151TIP3    H175944   6.570   0.706   6.200 -0.1728 -0.6358 -0.1109
18151TIP3    H275945   6.536   0.663   6.059 -2.9037  1.5027 -0.2084
18152TIP3   OH275946   2.722   6.451  14.330  0.2048 -0.6796  0.0093
18152TIP3    H175947   2.671   6.391  14.385 -0.8051 -1.5061 -1.7622
18152TIP3    H275948   2.656   6.505  14.286  0.9996  0.0382 -0.3180
18153TIP3   OH275949   5.575   4.554   0.486  0.6687  0.2466 -0.2225
18153TIP3    H175950   5.655   4.523   0.529  0.9585  0.9808 -0.2094
18153TIP3    H275951   5.536   4.476   0.447  0.4878 -0.4124  1.2179
18154TIP3   OH275952   5.317   0.591   2.204 -0.3094  0.4383 -0.1175
18154TIP3    H175953   5.311   0.635   2.289 -0.2572  0.5089 -0.1502
18154TIP3    H275954   5.375   0.517   2.220 -0.9997 -0.0650  0.1248
18155TIP3   OH275955   0.390   1.696  16.088 -0.4759 -0.6756  0.5255
18155TIP3    H175956   0.344   1.776  16.067  0.4123  0.0118  1.1292
18155TIP3    H275957   0.328   1.626  16.068 -1.6231  0.1961  0.9535
18156TIP3   OH275958   1.064   0.771   2.154  0.5440  0.2311 -0.3634
18156TIP3    H175959   1.123   0.711   2.199  0.6193  0.0772 -0.6619
18156TIP3    H275960   0.989   0.781   2.213  1.6156  1.7941  0.8275
18157TIP3   OH275961   1.162   0.014   3.373  0.1068  0.1793 -0.0474
18157TIP3    H175962   1.201  -0.005   3.458 -0.3684 -2.5550 -0.3666
18157TIP3    H275963   1.069  -0.004   3.385  0.0860 -0.5772 -1.2186
18158TIP3   OH275964   6.387   4.679   1.920  0.7573 -0.1379 -0.1277
18158TIP3    H175965   6.298   4.690   1.886  1.4862  0.8815 -1.8412
18158TIP3    H275966   6.375   4.637   2.005 -1.3583  0.0787 -0.2626
18159TIP3   OH275967   2.526   1.258   2.773 -0.4815  0.0389 -0.1226
18159TIP3    H175968   2.616   1.288   2.758 -0.3712  0.6976  1.6081
18159TIP3    H275969   2.472   1.334   2.751 -0.6398 -0.3802 -1.2313
18160TIP3   OH275970   3.401   4.267  11.696  0.7099 -0.2630  0.3348
18160TIP3    H175971   3.360   4.185  11.722 -0.1264  0.2372  0.6293
18160TIP3    H275972   3.334   4.334  11.711  0.0881  0.1063 -3.2214
18161TIP3   OH275973   6.190   0.612   5.197  0.4902  0.2160 -0.4384
18161TIP3    H175974   6.210   0.616   5.103 -2.2338  2.0782 -1.0401
18161TIP3    H275975   6.098   0.635   5.203  0.1155 -1.5710  2.6088
18162TIP3   OH275976   0.327   0.800  14.805 -0.0463 -0.4409  0.2376
18162TIP3    H175977   0.365   0.851  14.733  1.2358  1.1601  1.9474
18162TIP3    H275978   0.300   0.718  14.765  1.7092 -0.0815 -1.8445
18163TIP3   OH275979   1.947   3.491  11.368  0.1240  0.0387 -0.1373
18163TIP3    H175980   2.035   3.523  11.389  1.3477 -1.5344 -2.4216
18163TIP3    H275981   1.914   3.551  11.302  0.8052 -1.0598 -1.5301
18164TIP3   OH275982   5.399   1.954  17.023  0.5367 -0.2674 -0.4599
18164TIP3    H175983   5.445   2.037  17.038  2.2798 -1.4264  1.0936
18164TIP3    H275984   5.313   1.966  17.063  0.5834  0.9507 -0.7062
18165TIP3   OH275985   3.308   1.528  16.190 -0.0005 -0.3370 -0.2494
18165TIP3    H175986   3.353   1.503  16.271 -0.8641 -0.8930  0.0733
18165TIP3    H275987   3.215   1.522  16.212 -0.2949  2.6803 -0.3266
18166TIP3   OH275988   5.752   1.288   5.606  0.2145 -0.5214  0.5359
18166TIP3    H175989   5.676   1.309   5.552  1.1527 -4.8738 -3.0940
18166TIP3    H275990   5.823   1.340   5.569  0.2784 -1.3848 -0.5848
18167TIP3   OH275991   4.816   5.432   3.402  0.2963 -0.0028 -0.1239
18167TIP3    H175992   4.799   5.526   3.390  0.0628  0.0456  0.6004
18167TIP3    H275993   4.814   5.397   3.313 -1.5932  0.3373 -0.2457
18168TIP3   OH275994   4.110   6.089   2.515  0.3213  0.4730 -0.3572
18168TIP3    H175995   4.098   6.161   2.577  0.2040 -1.6150  2.2190
18168TIP3    H275996   4.199   6.057   2.532 -0.0726 -0.7798 -0.5152
18169TIP3   OH275997   0.609   3.970   2.112 -0.1089 -0.2067 -0.0464
18169TIP3    H175998   0.569   4.051   2.081 -1.0424 -1.0273 -1.0485
18169TIP3    H275999   0.548   3.901   2.087  0.0053 -1.1266  1.9470
18170TIP3   OH276000   6.040   0.494  12.851 -0.3933  0.4368  0.2045
18170TIP3    H176001   6.039   0.503  12.946 -0.5420  0.8450  0.1696
18170TIP3    H276002   6.078   0.408  12.835 -0.1605  0.4587  0.6262
18171TIP3   OH276003   4.474   0.129   0.187 -0.0153 -0.3207  0.3233
18171TIP3    H176004   4.496   0.200   0.127  3.2801 -0.7084  0.8940
18171TIP3    H276005   4.426   0.066   0.134 -2.1092  1.7713 -0.4474
18172TIP3   OH276006   1.631   1.048  12.183 -0.2527 -0.9096  0.7816
18172TIP3    H176007   1.620   1.142  12.171 -0.9075 -0.9035  1.3369
18172TIP3    H276008   1.574   1.027  12.257 -1.0423 -1.9292 -0.0801
18173TIP3   OH276009   5.285   0.353  15.041 -0.2603 -0.4280  0.2113
18173TIP3    H176010   5.202   0.328  15.082 -0.9653 -1.7041 -1.8451
18173TIP3    H276011   5.322   0.271  15.009  0.6922  0.3771 -0.8551
18174TIP3   OH276012   6.622   3.757   3.827 -0.1866  0.0945  0.3283
18174TIP3    H176013   6.561   3.698   3.871 -1.6933 -0.6227 -2.4472
18174TIP3    H276014   6.694   3.769   3.889 -1.5487 -1.7561  2.4039
18175TIP3   OH276015   1.367   3.374   2.897  0.3394  0.2385 -0.7664
18175TIP3    H176016   1.363   3.469   2.885  1.9265  0.5220  0.5982
18175TIP3    H276017   1.307   3.357   2.969 -0.7549  0.0421 -1.7068
18176TIP3   OH276018   4.003   2.781  15.222 -0.5095  0.9023 -0.6827
18176TIP3    H176019   4.079   2.838  15.207  0.3614  0.1430  0.5821
18176TIP3    H276020   3.979   2.797  15.314  0.6863 -1.7373  0.1994
18177TIP3   OH276021   2.092   2.836   4.986  0.1919 -0.2286 -0.4877
18177TIP3    H176022   2.079   2.898   5.058 -0.5600  0.4499 -1.1722
18177TIP3    H276023   2.173   2.865   4.944  0.7199 -0.7318  0.1887
18178TIP3   OH276024   6.402   1.736  15.493 -0.1318 -0.0061 -0.0162
18178TIP3    H176025   6.358   1.730  15.408 -0.3182 -4.4183  0.1487
18178TIP3    H276026   6.332   1.750  15.556 -0.3700  0.1037 -0.3032
18179TIP3   OH276027   0.723   1.366   3.844  0.1593  0.1967  0.4159
18179TIP3    H176028   0.708   1.423   3.768 -1.3634  2.1862  2.0894
18179TIP3    H276029   0.795   1.408   3.891 -0.7154  0.5494  1.4690
18180TIP3   OH276030   3.802   5.062  15.559  1.0149 -0.0738  0.5361
18180TIP3    H176031   3.850   4.979  15.559  0.1047 -0.6145  0.3773
18180TIP3    H276032   3.769   5.071  15.648 -0.2563 -0.7259  0.1713
18181TIP3   OH276033   4.685   2.586  11.942 -0.2704 -0.0136 -0.2966
18181TIP3    H176034   4.709   2.520  12.007  1.3639  0.6044 -0.2265
18181TIP3    H276035   4.626   2.540  11.883  0.9631 -1.6389 -0.3620
18182TIP3   OH276036   1.862   5.668   1.896  0.4786 -0.8263 -0.1088
18182TIP3    H176037   1.893   5.759   1.896 -0.9609 -0.3170 -0.4460
18182TIP3    H276038   1.929   5.621   1.846  2.0645 -0.2770  1.3725
18183TIP3   OH276039   4.833   5.478  16.300 -0.0277  0.9325 -0.3938
18183TIP3    H176040   4.843   5.573  16.309  2.3641  0.6844  0.2868
18183TIP3    H276041   4.883   5.441  16.373 -1.2244 -0.8827 -0.4054
18184TIP3   OH276042   6.673   6.426   3.505  0.2893 -0.1059 -0.1431
18184TIP3    H176043   6.617   6.349   3.501 -1.7116  1.2873 -0.1629
18184TIP3    H276044   6.756   6.393   3.540  0.0710 -2.5422 -1.6809
18185TIP3   OH276045   4.694   6.646   4.013 -0.4829 -0.0693  0.4528
18185TIP3    H176046   4.689   6.735   4.047 -0.5837  0.5610 -1.1115
18185TIP3    H276047   4.781   6.641   3.973  0.2507 -1.3019  2.0972
18186TIP3   OH276048   4.787   4.685  15.674 -0.6995 -0.3944  0.0033
18186TIP3    H176049   4.865   4.734  15.700 -0.7747 -0.0106 -0.4792
18186TIP3    H276050   4.716   4.724  15.725 -0.5748 -0.7822  0.4858
18187TIP3   OH276051   0.921   0.548   5.578  0.6440  0.2267 -0.1245
18187TIP3    H176052   1.000   0.585   5.538 -0.0047 -0.0050 -1.7137
18187TIP3    H276053   0.882   0.496   5.508  0.4615 -1.8434  1.4235
18188TIP3   OH276054   6.582   1.946  12.737  0.3382  0.1646 -0.9003
18188TIP3    H176055   6.561   2.038  12.752  0.0864  0.3303 -2.1903
18188TIP3    H276056   6.572   1.905  12.823 -0.4219  1.1733 -0.4898
18189TIP3   OH276057   5.127   1.752  12.312  0.1648  0.2952 -0.1039
18189TIP3    H176058   5.139   1.716  12.224 -3.5835 -1.4348 -0.0972
18189TIP3    H276059   5.090   1.839  12.298 -2.6393 -0.8571 -0.4055
18190TIP3   OH276060   3.992   5.520  16.101  0.2782 -0.1950 -0.0715
18190TIP3    H176061   4.049   5.444  16.085 -0.5141 -1.1456  1.3436
18190TIP3    H276062   3.940   5.528  16.021  0.7677 -0.7921 -0.4613
18191TIP3   OH276063   4.076   5.309   3.481 -0.0536 -0.3080 -0.1676
18191TIP3    H176064   4.117   5.248   3.542  1.6366 -0.3881 -1.2931
18191TIP3    H276065   3.982   5.293   3.489  0.3042 -2.7405 -0.0865
18192TIP3   OH276066   4.755   0.881   3.163 -0.2623 -0.0970  0.5232
18192TIP3    H176067   4.798   0.951   3.212  0.2301 -0.9055  1.2922
18192TIP3    H276068   4.769   0.903   3.071  2.7598 -0.8610  0.7175
18193TIP3   OH276069   2.089   0.978   1.155  0.2010  0.5795  0.1406
18193TIP3    H176070   2.036   1.057   1.146  0.5431  0.7836 -0.0911
18193TIP3    H276071   2.170   0.998   1.109 -0.5015 -0.6547 -1.7501
18194TIP3   OH276072   1.408   4.351  14.192  0.2464 -0.5700 -0.2972
18194TIP3    H176073   1.354   4.411  14.140 -0.3467  0.3301  1.2894
18194TIP3    H276074   1.460   4.408  14.248  0.7912 -1.5039  0.1743
18195TIP3   OH276075   3.615   2.347  17.468 -0.4030  0.1980  0.1362
18195TIP3    H176076   3.624   2.252  17.481  0.2572 -0.8093 -5.1290
18195TIP3    H276077   3.521   2.360  17.457 -0.3211 -0.4753 -1.7471
18196TIP3   OH276078   2.729   1.169  13.052 -0.6869  0.1428 -0.2642
18196TIP3    H176079   2.755   1.078  13.039 -0.2414  0.2106  0.1284
18196TIP3    H276080   2.714   1.177  13.146 -0.8721  0.4360 -0.3183
18197TIP3   OH276081   5.102   3.242   5.228  0.3094 -0.0720 -0.9828
18197TIP3    H176082   5.050   3.322   5.218 -1.1606 -0.6148  1.4888
18197TIP3    H276083   5.193   3.273   5.228 -0.2249  1.6456  0.0787
18198TIP3   OH276084   1.458   6.555  14.646 -0.0228 -0.2275 -0.4024
18198TIP3    H176085   1.365   6.570  14.627  0.0852  1.7977  0.3670
18198TIP3    H276086   1.459   6.475  14.698 -1.6784  0.9625  1.6877
18199TIP3   OH276087   1.972   6.677   6.819  0.2137 -0.2149  0.0345
18199TIP3    H176088   1.904   6.716   6.874  0.6782  0.0485  0.4324
18199TIP3    H276089   2.018   6.752   6.782 -0.7328 -0.3701 -1.5479
18200TIP3   OH276090   1.835   1.878   2.289 -0.0318  0.3144 -0.2064
18200TIP3    H176091   1.748   1.873   2.252  0.3333  1.1829 -1.2220
18200TIP3    H276092   1.870   1.962   2.259  1.8168 -0.7930 -1.3257
18201TIP3   OH276093   2.152   5.272  13.568 -0.6901  0.2537 -0.5278
18201TIP3    H176094   2.115   5.345  13.519  0.6807  1.2729 -0.0817
18201TIP3    H276095   2.222   5.238  13.513 -0.9512 -0.3709 -0.4821
18202TIP3   OH276096   0.331   6.567  10.873 -0.5744 -0.2965 -0.3141
18202TIP3    H176097   0.324   6.481  10.915  1.1819  0.0420  0.7587
18202TIP3    H276098   0.330   6.630  10.945  2.0010  0.3206 -0.7243
18203TIP3   OH276099   3.944   5.363   1.719  0.2457 -0.2304  0.5759
18203TIP3    H176100   3.855   5.374   1.752  0.2427  0.2068  0.4228
18203TIP3    H276101   3.980   5.291   1.772 -0.1564 -0.3343  0.7153
18204TIP3   OH276102   6.539   4.296  16.817  0.0709  0.4322  0.4963
18204TIP3    H176103   6.611   4.253  16.772  1.0925  2.2727  0.2918
18204TIP3    H276104   6.500   4.227  16.872 -0.0171 -1.3881 -1.6984
18205TIP3   OH276105   2.538   1.080   2.972  0.6005  0.3787  0.3223
18205TIP3    H176106   2.457   1.030   2.979  1.3622 -1.3444 -1.7903
18205TIP3    H276107   2.526   1.133   2.893  1.4199  0.2556  0.1060
18206TIP3   OH276108   5.374   3.862  12.136  0.2797 -0.6540  0.2853
18206TIP3    H176109   5.401   3.954  12.139 -0.1356 -0.5304  0.2932
18206TIP3    H276110   5.454   3.815  12.113  0.3145 -0.2077 -0.5680
18207TIP3   OH276111   2.630   0.710   6.043 -0.4929  0.0690 -0.1122
18207TIP3    H176112   2.641   0.615   6.050 -0.8552 -0.0350 -0.8614
18207TIP3    H276113   2.588   0.735   6.125 -0.7763 -0.4799 -0.0860
18208TIP3   OH276114   3.919   2.409   2.125  0.0841  0.9731 -0.1765
18208TIP3    H176115   3.968   2.439   2.201 -1.1488  1.4132  0.4679
18208TIP3    H276116   3.955   2.322   2.106  0.1379  0.6804  1.1584
18209TIP3   OH276117   3.101   4.156   0.796 -0.1137 -0.9952 -0.1834
18209TIP3    H176118   3.154   4.107   0.859  0.7140 -1.0408 -0.8976
18209TIP3    H276119   3.141   4.137   0.711  1.1652  2.0309 -0.3807
18210TIP3   OH276120   1.910   0.101  13.103  0.4528 -0.5470  0.3319
18210TIP3    H176121   1.990   0.150  13.124 -0.3247  0.7464  0.4435
18210TIP3    H276122   1.873   0.078  13.188  0.0177  0.0810  0.3283
18211TIP3   OH276123   2.847   3.766  14.798 -0.2550 -0.3052 -0.7462
18211TIP3    H176124   2.783   3.731  14.860  0.4457  0.4783  0.4521
18211TIP3    H276125   2.820   3.857  14.786  0.3628 -0.0966 -0.5858
18212TIP3   OH276126   4.494   6.047  15.642 -0.3367  0.0588  0.4552
18212TIP3    H176127   4.497   6.066  15.735  0.3997 -0.3279  0.5168
18212TIP3    H276128   4.583   6.018  15.620 -0.3880  0.5320 -0.4462
18213TIP3   OH276129   2.827   1.962   0.738 -0.1827 -0.2947 -0.0430
18213TIP3    H176130   2.763   1.949   0.808 -1.0800  0.0739 -0.7738
18213TIP3    H276131   2.845   1.875   0.704  0.1480 -0.4604  0.5379
18214TIP3   OH276132   5.361   6.596   4.738 -0.4221  0.0249  0.3416
18214TIP3    H176133   5.386   6.619   4.828 -1.3249  0.2427  0.5494
18214TIP3    H276134   5.438   6.553   4.702  0.9891  2.3920  0.3094
18215TIP3   OH276135   0.767   2.850   2.393 -0.0109 -0.1269 -0.5650
18215TIP3    H176136   0.710   2.927   2.394  3.3485  2.6368  1.5417
18215TIP3    H276137   0.801   2.847   2.304  1.9115  2.7118 -0.0414
18216TIP3   OH276138   4.851   6.586   1.996 -0.0750 -0.7620 -0.3089
18216TIP3    H176139   4.853   6.644   1.920  1.1284  0.9623  0.9422
18216TIP3    H276140   4.771   6.610   2.043  0.6734  0.2991  0.4676
18217TIP3   OH276141   3.617   4.682  16.442 -0.6359  0.3873 -0.4450
18217TIP3    H176142   3.673   4.754  16.413 -1.8495  0.6883 -2.2067
18217TIP3    H276143   3.633   4.613  16.378  0.1235 -0.7545  0.9287
18218TIP3   OH276144   1.165   2.676   4.884 -0.1176 -0.1569 -0.6804
18218TIP3    H176145   1.075   2.649   4.866 -0.4557  1.7439 -2.1020
18218TIP3    H276146   1.158   2.766   4.915  1.2873 -0.1001 -0.4281
18219TIP3   OH276147   2.364   2.500  16.038 -0.7639  0.0026  0.4485
18219TIP3    H176148   2.284   2.538  16.001 -0.2333 -0.5937 -1.4556
18219TIP3    H276149   2.435   2.541  15.988  0.0440 -0.4370  1.2135
18220TIP3   OH276150   0.933   5.831   3.181  0.3903  0.5123 -0.4250
18220TIP3    H176151   1.027   5.820   3.193  0.5710  0.8797 -1.4445
18220TIP3    H276152   0.922   5.843   3.087 -0.6942  0.3359 -0.3307
18221TIP3   OH276153   6.143   4.544   0.557  0.7557 -0.0643  0.0208
18221TIP3    H176154   6.087   4.502   0.493  0.7768 -1.4244  0.8587
18221TIP3    H276155   6.231   4.513   0.537  1.1333  1.4110 -0.7708
18222TIP3   OH276156   2.734   0.658  16.792 -0.0894  0.1798 -0.5047
18222TIP3    H176157   2.781   0.574  16.799  0.8052  0.7823  1.5987
18222TIP3    H276158   2.718   0.668  16.698  1.7347 -1.2940 -1.0597
18223TIP3   OH276159   4.024   3.305  14.405 -0.2499 -0.5882 -0.0738
18223TIP3    H176160   4.060   3.309  14.317 -2.1755  1.2010 -0.8674
18223TIP3    H276161   4.087   3.253  14.455  0.2857 -2.7701 -2.7590
18224TIP3   OH276162   0.705   2.517   1.055 -0.6185 -0.4275  0.0485
18224TIP3    H176163   0.784   2.472   1.085 -1.1522 -0.3335  1.7040
18224TIP3    H276164   0.633   2.470   1.098 -1.2649  1.2545  0.8720
18225TIP3   OH276165   5.549   5.916  17.186  0.3468  0.3868  0.4915
18225TIP3    H176166   5.613   5.962  17.242  2.0219 -3.4805  2.1849
18225TIP3    H276167   5.503   5.858  17.247 -0.9078 -0.8570 -1.5550
18226TIP3   OH276168   0.869   3.391  17.413 -0.1049  0.1151  0.0350
18226TIP3    H176169   0.834   3.417  17.328  1.1322  0.6139 -0.3442
18226TIP3    H276170   0.964   3.383  17.399 -0.2241 -3.7200  0.3494
18227TIP3   OH276171   2.147   5.049   5.715 -0.3750 -0.2905  0.3321
18227TIP3    H176172   2.185   4.997   5.644 -1.7719 -0.2986 -0.4315
18227TIP3    H276173   2.103   5.122   5.672  0.5869  0.9292  1.3300
18228TIP3   OH276174   0.960   3.603   3.808  0.6329  0.1085  0.1635
18228TIP3    H176175   0.934   3.620   3.717 -0.5041 -0.8636  0.2905
18228TIP3    H276176   0.981   3.690   3.843 -0.8646  0.7507 -0.4363
18229TIP3   OH276177   3.128   0.594   6.440 -0.1585  0.2846 -0.0129
18229TIP3    H176178   3.093   0.511   6.409  1.1242 -0.7457  1.1515
18229TIP3    H276179   3.064   0.660   6.413 -1.2100 -1.0832 -0.9323
18230TIP3   OH276180   4.657   6.737   5.915  0.1061 -0.0684 -0.8021
18230TIP3    H176181   4.573   6.754   5.873  0.7978  0.3243 -2.0820
18230TIP3    H276182   4.636   6.722   6.007 -1.4442 -0.7860 -1.2508
18231TIP3   OH276183   0.409   0.993  14.134  0.1493 -0.2169  0.0299
18231TIP3    H176184   0.411   1.009  14.039 -0.2488 -0.8126 -0.0828
18231TIP3    H276185   0.464   1.062  14.171  0.2584  0.0575 -0.6317
18232TIP3   OH276186   2.572   4.278   2.328  0.3476 -0.2401  0.1231
18232TIP3    H176187   2.598   4.193   2.292  3.9403  0.3275  1.0291
18232TIP3    H276188   2.622   4.342   2.276 -2.2540  1.4205 -0.5208
18233TIP3   OH276189   4.286   0.508   4.831  0.0247 -0.2892 -0.3313
18233TIP3    H176190   4.291   0.559   4.750 -0.0501  0.2249 -0.0095
18233TIP3    H276191   4.202   0.463   4.825  0.2928 -0.7463 -0.8298
18234TIP3   OH276192   4.129   2.322   6.393 -0.4821  0.6823  0.2179
18234TIP3    H176193   4.202   2.310   6.454 -1.0257  1.0918  0.9625
18234TIP3    H276194   4.077   2.392   6.431 -0.6440  1.2060 -0.9183
18235TIP3   OH276195   6.699   0.144   2.888  0.2705  0.1050 -0.1403
18235TIP3    H176196   6.769   0.171   2.829  1.4841  1.3745  1.7827
18235TIP3    H276197   6.742   0.132   2.973 -1.7605  0.4096  0.9955
18236TIP3   OH276198   4.680   0.045   5.203  0.5825  0.6103 -0.2381
18236TIP3    H176199   4.592   0.039   5.168  0.5191  0.1717 -0.0115
18236TIP3    H276200   4.729  -0.024   5.158  0.4048 -0.2123  0.7947
18237TIP3   OH276201   4.495   0.395  15.771  0.3104  0.2158 -0.0291
18237TIP3    H176202   4.529   0.308  15.791 -1.1188 -0.4681 -0.4610
18237TIP3    H276203   4.537   0.418  15.687  0.5221 -0.1456 -0.0234
18238TIP3   OH276204   4.293   1.389   2.501 -0.6144 -0.1149 -0.2505
18238TIP3    H176205   4.248   1.461   2.544  0.2059  0.6637 -0.6710
18238TIP3    H276206   4.224   1.325   2.482 -1.3211  0.4857  0.2557
18239TIP3   OH276207   1.838   0.237   2.631  0.0143  0.5304 -0.3774
18239TIP3    H176208   1.834   0.332   2.627 -0.3239  0.5580  0.4211
18239TIP3    H276209   1.761   0.208   2.583 -0.4668  0.6944  0.2738
18240TIP3   OH276210   2.119   4.096  15.987  0.0766  0.1434 -0.2456
18240TIP3    H176211   2.174   4.115  15.911 -2.1493  0.1074 -1.9772
18240TIP3    H276212   2.180   4.091  16.060  2.1273  1.9813 -1.6999
18241TIP3   OH276213   5.968   6.698   2.907 -0.2601 -0.3714 -0.3456
18241TIP3    H176214   5.939   6.648   2.831  1.7193 -2.4796  0.1793
18241TIP3    H276215   6.047   6.744   2.877 -0.5057  0.2704 -0.0405
18242TIP3   OH276216   5.192   6.074  15.854 -0.4198  0.1548 -0.1337
18242TIP3    H176217   5.147   5.992  15.836 -0.6947  0.3287 -0.2378
18242TIP3    H276218   5.144   6.140  15.804  0.7767  0.1318 -1.3945
18243TIP3   OH276219   1.775   0.230   6.285  0.2552 -0.6769 -0.8025
18243TIP3    H176220   1.690   0.224   6.328 -0.4752 -1.2408 -2.2566
18243TIP3    H276221   1.820   0.149   6.308  0.4810 -0.3066  0.0993
18244TIP3   OH276222   3.261   5.241  16.696 -0.1506  0.1895 -0.2595
18244TIP3    H176223   3.307   5.193  16.765 -0.3427 -0.5423 -0.6298
18244TIP3    H276224   3.310   5.323  16.686 -0.7880  0.8344  1.5410
18245TIP3   OH276225   2.328   2.092   4.890  0.0024 -0.4866  0.7116
18245TIP3    H176226   2.290   2.179   4.881  0.0877 -0.5063  0.1194
18245TIP3    H276227   2.392   2.086   4.819 -1.0564 -1.5825 -0.1885
18246TIP3   OH276228   2.976   0.397  15.725  0.5052  0.0111  0.0251
18246TIP3    H176229   3.063   0.366  15.701 -0.1944 -0.7474 -1.6869
18246TIP3    H276230   2.944   0.442  15.647 -0.5785  0.4048  0.6812
18247TIP3   OH276231   1.653   0.741  11.583 -0.4768 -0.5563  0.1898
18247TIP3    H176232   1.642   0.705  11.495  1.7132 -3.1510  0.8551
18247TIP3    H276233   1.633   0.834  11.573 -4.1416 -1.3960 -2.1689
18248TIP3   OH276234   6.192   5.703  11.291  0.4770 -0.2521 -0.1056
18248TIP3    H176235   6.112   5.711  11.238  1.4155  0.0667 -1.5306
18248TIP3    H276236   6.243   5.635  11.247  1.7961  0.8190 -0.3060
18249TIP3   OH276237   6.311   4.965   3.933 -0.3201 -0.6675 -0.0812
18249TIP3    H176238   6.360   4.989   3.854  0.1716 -0.2293  0.3532
18249TIP3    H276239   6.309   5.045   3.985  0.0992 -1.1734  0.7355
18250TIP3   OH276240   5.726   3.191  12.214 -0.6829 -0.3604  0.2830
18250TIP3    H176241   5.714   3.097  12.227 -0.9627 -0.6934 -1.8921
18250TIP3    H276242   5.790   3.198  12.143 -1.9255  1.0350 -0.7710
18251TIP3   OH276243   3.298   2.669  16.380  0.5284  0.7338 -0.0046
18251TIP3    H176244   3.275   2.714  16.461  0.2273 -0.4154  0.5737
18251TIP3    H276245   3.258   2.582  16.389  1.4242  0.2133 -0.9071
18252TIP3   OH276246   0.520   1.216  11.264 -0.1607 -0.5105 -0.4660
18252TIP3    H176247   0.509   1.304  11.302  0.3615 -1.2509  1.5092
18252TIP3    H276248   0.507   1.230  11.170  0.7927  1.8469 -0.3363
18253TIP3   OH276249   5.050   0.273  13.654 -0.4257 -0.4547  0.4850
18253TIP3    H176250   5.034   0.367  13.655  0.6857 -0.2444  0.7529
18253TIP3    H276251   5.103   0.257  13.733 -0.5945 -1.3011  0.4404
18254TIP3   OH276252   1.094   4.215   4.910  0.4989 -0.2436 -0.1261
18254TIP3    H176253   1.086   4.184   4.820  0.6658  0.1682 -0.2839
18254TIP3    H276254   1.005   4.238   4.935  0.7836  2.2420 -1.1288
18255TIP3   OH276255   3.607   2.794   0.903 -0.8032  0.1723  0.5361
18255TIP3    H176256   3.557   2.746   0.969  0.6385 -0.0712  1.5219
18255TIP3    H276257   3.550   2.800   0.827 -2.4599  0.2860  1.7470
18256TIP3   OH276258   3.283   5.600  14.191  0.1492  0.4897 -0.1946
18256TIP3    H176259   3.239   5.536  14.135  0.8038 -0.3105  0.1705
18256TIP3    H276260   3.243   5.683  14.170  0.5691  0.2568 -2.0570
18257TIP3   OH276261   4.291   0.622   6.475  0.2649 -0.0565  0.3085
18257TIP3    H176262   4.201   0.646   6.497 -0.0464 -0.6072 -0.3223
18257TIP3    H276263   4.343   0.696   6.505 -0.4742  0.5824  0.0706
18258TIP3   OH276264   1.063   0.972   2.761 -0.0991  0.5722 -0.0228
18258TIP3    H176265   1.133   1.027   2.797  2.1755 -0.7635 -2.0546
18258TIP3    H276266   0.992   0.979   2.824  0.5823  4.6113  0.5937
18259TIP3   OH276267   0.241   4.816   6.603  0.2397  0.2735 -0.1217
18259TIP3    H176268   0.318   4.772   6.566 -1.7236 -2.2195 -1.5849
18259TIP3    H276269   0.265   4.834   6.694  1.5766 -3.1543  0.3689
18260TIP3   OH276270   1.758   4.150  15.250  0.9934 -0.0520  0.3822
18260TIP3    H176271   1.819   4.172  15.180 -0.0820  0.7021 -0.3482
18260TIP3    H276272   1.714   4.233  15.271  0.9551 -0.3654  1.6207
18261TIP3   OH276273   4.191   6.285   0.897 -0.4356 -0.0873  0.3990
18261TIP3    H176274   4.283   6.311   0.887 -0.1617 -0.7340  1.1567
18261TIP3    H276275   4.142   6.367   0.892  0.0850  0.1683 -1.0556
18262TIP3   OH276276   0.605   0.308   5.601  0.0650 -0.1426  0.1385
18262TIP3    H176277   0.537   0.291   5.536  0.8595 -1.8936 -0.3038
18262TIP3    H276278   0.685   0.273   5.562  0.8879  0.3027  1.3578
18263TIP3   OH276279   0.748   3.900   5.759 -0.0222 -0.3341 -0.2889
18263TIP3    H176280   0.669   3.855   5.727 -0.4403 -3.2877  4.0087
18263TIP3    H276281   0.820   3.856   5.713 -0.7167 -0.2670 -1.4795
18264TIP3   OH276282   5.126   5.987  14.304  0.2929  0.2106  0.4132
18264TIP3    H176283   5.214   5.982  14.266  1.4326  1.0067  2.7067
18264TIP3    H276284   5.122   5.911  14.363 -0.7911 -0.1068 -0.0404
18265TIP3   OH276285   6.621   3.456   5.722  0.5273  0.2910 -0.0999
18265TIP3    H176286   6.654   3.523   5.662  0.0497  1.2194  0.6486
18265TIP3    H276287   6.696   3.399   5.737  0.7673  0.2773 -1.2499
18266TIP3   OH276288   0.325   3.663   0.817 -0.5161  0.1136  0.3782
18266TIP3    H176289   0.321   3.737   0.877  0.5201  0.3683  0.1606
18266TIP3    H276290   0.397   3.684   0.758  0.0535 -1.2410  0.5435
18267TIP3   OH276291   3.988   5.656  17.239  0.4793 -0.1643 -0.0325
18267TIP3    H176292   3.960   5.745  17.221  1.2973  0.0936 -0.0748
18267TIP3    H276293   3.908   5.610  17.264 -0.7104 -0.4310 -3.6998
18268TIP3   OH276294   5.688   2.056   2.398  0.1551 -0.3833 -0.2961
18268TIP3    H176295   5.608   2.100   2.369 -1.0124 -2.3069 -0.1681
18268TIP3    H276296   5.734   2.121   2.450 -0.5347  1.2835 -1.6787
18269TIP3   OH276297   5.358   5.806   3.587 -0.1019  0.0068  0.1968
18269TIP3    H176298   5.396   5.719   3.601  0.4554  0.2184  0.0628
18269TIP3    H276299   5.312   5.826   3.668 -0.4760 -0.5330  0.1215
18270TIP3   OH276300   2.269   6.492  17.056  0.4255 -0.2538  0.5196
18270TIP3    H176301   2.313   6.433  17.118  0.8227  1.0705  1.5363
18270TIP3    H276302   2.280   6.450  16.971  1.7774 -1.0304  1.0500
18271TIP3   OH276303   2.257   5.218   2.165 -0.2862 -0.2593  0.6464
18271TIP3    H176304   2.164   5.238   2.162 -0.5569 -1.5227 -2.3966
18271TIP3    H276305   2.262   5.123   2.175  0.5744 -0.4582 -1.2301
18272TIP3   OH276306   0.113   4.623   2.791 -0.0554  0.0811  0.4551
18272TIP3    H176307   0.186   4.568   2.763 -0.6362 -0.5055  0.0496
18272TIP3    H276308   0.145   4.669   2.868  0.2790 -1.2204  1.1164
18273TIP3   OH276309   5.113   5.109  14.333 -0.2032 -0.1511 -0.2140
18273TIP3    H176310   5.034   5.055  14.339 -1.7197  2.0565  1.5567
18273TIP3    H276311   5.125   5.144  14.421  2.9700 -0.5861 -0.3605
18274TIP3   OH276312   5.653   2.008   1.231  0.0916  0.4293 -0.1659
18274TIP3    H176313   5.677   1.920   1.200 -1.4541  0.5725 -1.9426
18274TIP3    H276314   5.567   1.997   1.270  0.0072  1.1110 -0.1515
18275TIP3   OH276315   4.124   5.915  17.406 -0.2577  0.8376  0.8319
18275TIP3    H176316   4.110   5.977  17.334 -1.6654 -0.7648 -0.3560
18275TIP3    H276317   4.186   5.851  17.372  0.7041  1.1945  1.8280
18276TIP3   OH276318   0.019   0.878   1.242  0.1881  0.1327 -0.1254
18276TIP3    H176319  -0.039   0.808   1.211  1.2529 -1.4446  1.2780
18276TIP3    H276320  -0.038   0.935   1.294 -0.3183 -0.8891  0.4767
18277TIP3   OH276321   5.357   4.356  14.181 -0.0927  0.0328 -0.0265
18277TIP3    H176322   5.341   4.276  14.131 -1.0149  0.3388 -0.2337
18277TIP3    H276323   5.442   4.387  14.149  0.2626 -0.8531  0.0469
18278TIP3   OH276324   0.491   2.825  16.348 -0.2355  0.3828  0.3318
18278TIP3    H176325   0.541   2.812  16.268 -0.8273 -1.5439  0.2450
18278TIP3    H276326   0.478   2.920  16.353  1.7284  0.7429 -0.6518
18279TIP3   OH276327   4.450   4.015  16.407  0.2301  0.0594  0.3272
18279TIP3    H176328   4.374   4.068  16.382  0.3581  0.9821  1.7822
18279TIP3    H276329   4.421   3.925  16.392 -0.2989  0.4630 -1.3582
18280TIP3   OH276330   5.444   1.059   2.015  0.5321 -0.3115  0.5282
18280TIP3    H176331   5.456   1.074   2.109 -1.1695  1.0168  0.5959
18280TIP3    H276332   5.373   0.995   2.010 -0.7692  1.0969  0.1886
18281TIP3   OH276333   4.562   5.847   5.832 -0.2617  0.1867 -0.0242
18281TIP3    H176334   4.616   5.901   5.775 -1.4206  0.5572 -0.8140
18281TIP3    H276335   4.541   5.903   5.907  0.5474 -0.0104  0.3612
18282TIP3   OH276336   4.614   1.371  15.503 -0.0804 -0.5607  1.1334
18282TIP3    H176337   4.672   1.445  15.484  1.3683 -1.8322  0.4738
18282TIP3    H276338   4.527   1.411  15.511  0.1453  0.8838 -2.1473
18283TIP3   OH276339   5.088   5.879   2.078  0.2540 -0.1902  0.2855
18283TIP3    H176340   5.132   5.871   1.993  0.5464  1.8901  0.1927
18283TIP3    H276341   5.157   5.866   2.142  0.1831 -1.0110  0.2008
18284TIP3   OH276342   0.036   3.456   6.008  0.3216 -0.6724  0.7464
18284TIP3    H176343   0.116   3.411   6.035  0.4338 -0.7999  0.2109
18284TIP3    H276344   0.064   3.514   5.937  0.1648  0.2013  1.3857
18285TIP3   OH276345   2.617   3.356  15.786 -0.0149 -0.1148 -0.1249
18285TIP3    H176346   2.611   3.426  15.721 -0.0652  0.8185  0.8511
18285TIP3    H276347   2.710   3.336  15.791  0.1254  0.5997  0.3080
18286TIP3   OH276348   3.786   1.685  13.385 -0.3524 -0.2635 -0.0596
18286TIP3    H176349   3.720   1.713  13.321 -0.2761 -1.9953 -0.9543
18286TIP3    H276350   3.736   1.645  13.456 -0.4084  1.2608  0.8098
18287TIP3   OH276351   2.619   6.018  14.063 -0.5912 -0.2416 -0.0900
18287TIP3    H176352   2.627   5.936  14.013 -0.3461 -1.1355  1.3459
18287TIP3    H276353   2.651   6.086  14.003  1.6134 -1.5139 -0.4826
18288TIP3   OH276354   2.474   6.492  12.027  0.0597 -0.1664  0.2195
18288TIP3    H176355   2.525   6.417  12.058  0.7160  0.0909 -0.2250
18288TIP3    H276356   2.383   6.464  12.036  0.2159 -0.1878  2.1666
18289TIP3   OH276357   4.189   4.441  14.202 -0.5410 -0.2517 -0.0548
18289TIP3    H176358   4.188   4.536  14.210  0.7302 -0.2067 -0.0898
18289TIP3    H276359   4.190   4.409  14.292 -2.0653 -0.2877 -0.0265
18290TIP3   OH276360   1.910   1.874  13.190  0.2434 -0.0593 -0.3417
18290TIP3    H176361   1.920   1.870  13.095  0.6213 -0.1079 -0.3003
18290TIP3    H276362   1.945   1.791  13.222  2.2050  0.8573  0.0116
18291TIP3   OH276363   5.286   1.350  12.383  0.3727  0.5880 -0.4908
18291TIP3    H176364   5.334   1.402  12.319  0.9478 -0.2995 -0.8017
18291TIP3    H276365   5.250   1.414  12.444  2.0511  1.2856 -0.1889
18292TIP3   OH276366   0.088   6.276   2.133 -0.1386  0.2703  0.8306
18292TIP3    H176367   0.181   6.254   2.138 -0.0869 -0.0077 -0.8793
18292TIP3    H276368   0.044   6.202   2.176  0.2772 -1.2397 -1.2158
18293TIP3   OH276369   2.455   0.003  14.429 -0.3243  0.3762  0.0471
18293TIP3    H176370   2.540   0.037  14.458  0.0948 -1.0291  0.5939
18293TIP3    H276371   2.474  -0.087  14.403 -1.3858  0.5096 -1.2798
18294TIP3   OH276372   0.661   6.489  11.915  0.1997 -0.4663 -0.0940
18294TIP3    H176373   0.582   6.523  11.957  1.1659  0.1790  1.2633
18294TIP3    H276374   0.637   6.401  11.887 -1.4502  0.2634 -1.0701
18295TIP3   OH276375   0.170   6.270  12.012  0.4095 -0.0087  0.5171
18295TIP3    H176376   0.161   6.189  11.961  2.4990 -0.4096  0.6959
18295TIP3    H276377   0.261   6.269  12.043  0.3166  2.1231  1.0234
18296TIP3   OH276378   6.420   3.596  17.036  0.0168  0.5919  0.2876
18296TIP3    H176379   6.458   3.628  16.955 -1.3985  1.5629 -0.0388
18296TIP3    H276380   6.439   3.503  17.037  0.3334  0.6267 -1.0088
18297TIP3   OH276381   2.862   5.324   4.504 -0.5160  0.1421 -0.1092
18297TIP3    H176382   2.899   5.355   4.586 -0.3652  1.3115 -0.5979
18297TIP3    H276383   2.797   5.259   4.530  0.7184 -0.7395  0.8352
18298TIP3   OH276384   2.346   5.523  16.501 -0.5473 -0.6600 -0.2541
18298TIP3    H176385   2.326   5.583  16.429 -0.7416 -0.6573 -0.1988
18298TIP3    H276386   2.434   5.548  16.529 -1.2313  0.6942  0.8348
18299TIP3   OH276387   3.767   4.007   4.973 -0.5086  0.2023  0.2997
18299TIP3    H176388   3.855   4.043   4.963 -0.3990  0.1776  1.0778
18299TIP3    H276389   3.765   3.931   4.915 -0.2480  0.5938 -0.2301
18300TIP3   OH276390   5.155   5.196  15.371  0.4610 -0.1955  0.7755
18300TIP3    H176391   5.206   5.240  15.303  0.4158  1.1943  1.6003
18300TIP3    H276392   5.072   5.173  15.328  1.3180 -1.5217 -0.2778
18301TIP3   OH276393   3.159   3.751  12.748 -0.2685  0.8251  0.7253
18301TIP3    H176394   3.086   3.715  12.698  1.5439 -0.1606 -1.3565
18301TIP3    H276395   3.174   3.838  12.710  0.9807  0.1584 -0.3582
18302TIP3   OH276396   2.005   4.831  16.370  0.6113  0.2571  0.4087
18302TIP3    H176397   2.079   4.849  16.311 -1.0126  1.7967 -1.2566
18302TIP3    H276398   1.963   4.754  16.332  0.4595  0.3140  0.4641
18303TIP3   OH276399   0.085   6.363  16.019 -0.2341  0.0267  0.6992
18303TIP3    H176400  -0.007   6.387  16.031 -0.5619 -0.5546 -0.4637
18303TIP3    H276401   0.102   6.379  15.926  0.9070  0.3211  0.9419
18304TIP3   OH276402   2.923   3.292  14.842  0.4092  0.1718 -0.0755
18304TIP3    H176403   2.896   3.364  14.899 -0.7777 -0.3269  0.0014
18304TIP3    H276404   2.868   3.300  14.764 -1.0995 -1.7264  0.7030
18305TIP3   OH276405   0.605   2.962   3.770 -0.0777 -0.0714 -0.5273
18305TIP3    H176406   0.678   3.025   3.765 -0.4410  0.5386  1.1494
18305TIP3    H276407   0.646   2.881   3.799 -0.0398  0.2656  0.3982
18306TIP3   OH276408   0.521   5.338   0.273  0.5608  0.9749 -0.0396
18306TIP3    H176409   0.548   5.374   0.189  1.4695  0.4432  0.0124
18306TIP3    H276410   0.449   5.394   0.301  0.3135  1.2197 -1.1169
18307TIP3   OH276411   2.561   5.366   4.603  0.0491  0.6230 -0.3629
18307TIP3    H176412   2.554   5.360   4.507  0.2129 -2.6302 -0.2928
18307TIP3    H276413   2.470   5.361   4.633  0.1131 -2.9536 -0.3575
18308TIP3   OH276414   3.794   3.890   1.125 -0.2124  0.1072  0.1698
18308TIP3    H176415   3.809   3.925   1.212 -0.5248  0.0433  0.2517
18308TIP3    H276416   3.763   3.800   1.140 -0.5102  0.1801  0.0045
18309TIP3   OH276417   1.576   1.911  13.401  0.6102  0.6762 -0.0863
18309TIP3    H176418   1.651   1.878  13.451  1.0315  0.9425 -0.5280
18309TIP3    H276419   1.557   1.842  13.338  0.0690  0.3337  0.4368
18310TIP3   OH276420   4.885   2.504  14.525  0.1478 -0.4499 -0.3832
18310TIP3    H176421   4.910   2.485  14.435  3.2168  4.0441 -0.8074
18310TIP3    H276422   4.811   2.564  14.517  0.3442 -0.1435  0.0419
18311TIP3   OH276423   0.147   5.593  16.386  0.4062 -0.4835 -0.0394
18311TIP3    H176424   0.193   5.552  16.459  1.3135 -0.5109 -0.6028
18311TIP3    H276425   0.169   5.686  16.393  0.9618 -0.5629 -0.5823
18312TIP3   OH276426   3.414   1.423   1.417  0.1945  0.2621  0.1208
18312TIP3    H176427   3.352   1.392   1.351  1.4117  1.8507 -1.9079
18312TIP3    H276428   3.466   1.346   1.439  0.6169 -0.0939 -1.8564
18313TIP3   OH276429   0.267   4.225   0.866 -0.2097 -0.0279 -0.2117
18313TIP3    H176430   0.191   4.197   0.918  1.2042 -1.9464  0.9678
18313TIP3    H276431   0.236   4.223   0.776 -1.7596 -0.0363  0.2939
18314TIP3   OH276432   3.234   2.025  17.296  1.0153 -0.0189  0.3921
18314TIP3    H176433   3.302   1.991  17.237  1.1054  2.4782 -1.0717
18314TIP3    H276434   3.211   2.110  17.260  0.7091  1.4789  3.7044
18315TIP3   OH276435   1.030   5.849   4.146  0.8062  0.2028 -0.4851
18315TIP3    H176436   1.084   5.863   4.224 -0.4041  0.3208  0.3475
18315TIP3    H276437   0.970   5.779   4.171  1.6547 -1.1275 -1.9831
18316TIP3   OH276438   5.446   4.438   2.716  0.1739  0.4184  0.1492
18316TIP3    H176439   5.466   4.530   2.733  0.2587  0.3515  0.4212
18316TIP3    H276440   5.467   4.425   2.624 -1.8926  1.2121 -0.4785
18317TIP3   OH276441   5.121   5.529  11.967 -0.5294 -0.1865  0.2682
18317TIP3    H176442   5.142   5.605  12.021  0.4992 -0.0608 -0.2894
18317TIP3    H276443   5.081   5.466  12.028  0.0800  0.1694  1.0501
18318TIP3   OH276444   6.449   3.218   5.846  0.4972 -0.3583 -0.1899
18318TIP3    H176445   6.540   3.195   5.865  0.3384 -0.2431  0.8163
18318TIP3    H276446   6.448   3.314   5.847 -0.1311 -0.2684  2.8100
18319TIP3   OH276447   3.906   4.713  12.177  0.1075  0.1638  0.3951
18319TIP3    H176448   3.950   4.695  12.094 -0.2743  2.4294 -0.3710
18319TIP3    H276449   3.856   4.794  12.161 -1.6610 -0.4824  2.2112
18320TIP3   OH276450   2.186   4.974   1.360 -0.0389 -0.7859 -0.0841
18320TIP3    H176451   2.229   5.039   1.416 -0.7468 -0.1809 -0.2087
18320TIP3    H276452   2.097   5.010   1.347 -0.2218 -1.4454 -0.7155
18321TIP3   OH276453   6.721   4.829  16.642  0.2011  0.5279 -0.0559
18321TIP3    H176454   6.787   4.854  16.708 -1.1192  2.3101  0.6952
18321TIP3    H276455   6.673   4.910  16.626 -1.0294 -0.4435 -1.4988
18322TIP3   OH276456   2.763   4.512   4.360 -0.5310 -0.6582 -0.1124
18322TIP3    H176457   2.760   4.564   4.441  0.4428  0.1591 -0.5828
18322TIP3    H276458   2.746   4.423   4.389  2.0001 -0.7611  1.3737
18323TIP3   OH276459   0.576   3.232   0.136 -0.7219  0.0435  0.5018
18323TIP3    H176460   0.615   3.148   0.115  0.3486  0.6539 -0.0243
18323TIP3    H276461   0.574   3.234   0.232 -1.7689 -1.0085  0.5309
18324TIP3   OH276462   4.339   3.964  17.417 -0.4379  0.0338 -0.0290
18324TIP3    H176463   4.271   3.898  17.403 -1.9241  1.5970 -0.5785
18324TIP3    H276464   4.332   4.021  17.341  1.0152  0.6715  0.2879
18325TIP3   OH276465   0.461   2.275   3.143 -0.5713 -0.2363  0.8204
18325TIP3    H176466   0.492   2.222   3.216 -0.5335 -1.1233  0.1758
18325TIP3    H276467   0.541   2.295   3.093 -0.5813  0.4558  1.0665
18326TIP3   OH276468   1.607   5.775  14.794  0.0833 -0.3401  0.5185
18326TIP3    H176469   1.649   5.715  14.732  0.6230  2.0189 -1.6274
18326TIP3    H276470   1.518   5.784  14.761 -0.1735 -0.4225  1.1858
18327TIP3   OH276471   4.230   3.021  17.335 -0.5938  0.2945  0.5326
18327TIP3    H176472   4.205   3.102  17.290  0.1054 -0.4365 -1.2537
18327TIP3    H276473   4.318   3.038  17.369  1.1106 -0.7599 -2.9022
18328TIP3   OH276474   3.804   0.743  15.574 -0.3412 -0.2661  0.2355
18328TIP3    H176475   3.712   0.720  15.589 -0.2809 -0.2571  0.6251
18328TIP3    H276476   3.850   0.710  15.652 -0.1212  0.3654  0.3770
18329TIP3   OH276477   1.983   1.511   0.075 -0.2447 -0.4718  0.4307
18329TIP3    H176478   1.983   1.437   0.015  2.1791 -1.3215  1.3293
18329TIP3    H276479   2.075   1.519   0.102 -0.8291  1.4593  2.0783
18330TIP3   OH276480   6.173   5.545   0.422  0.1543  0.1163  0.4079
18330TIP3    H176481   6.203   5.628   0.458  2.0908 -0.2107 -0.3346
18330TIP3    H276482   6.199   5.480   0.487 -0.8639  0.0039  0.7274
18331TIP3   OH276483   2.328   5.161  13.352  0.1968  0.0868  0.2334
18331TIP3    H176484   2.386   5.238  13.344  0.9879 -0.2531  2.1320
18331TIP3    H276485   2.243   5.193  13.322  0.1407  2.1942  2.3250
18332TIP3   OH276486   1.157   1.971  11.738  0.2954  0.1743 -0.5454
18332TIP3    H176487   1.077   2.010  11.772  1.0775  2.5047 -1.1693
18332TIP3    H276488   1.194   1.922  11.811 -0.5207  1.0054  0.4389
18333TIP3   OH276489   2.925   3.833  12.602  0.2341 -0.2345 -0.2415
18333TIP3    H176490   2.882   3.762  12.553 -1.0740  1.6622 -2.0040
18333TIP3    H276491   2.857   3.865  12.662 -0.2511  1.4694 -1.6275
18334TIP3   OH276492   0.952   4.930  12.109 -0.1199 -0.2330 -0.1885
18334TIP3    H176493   0.900   4.979  12.046 -2.0693 -1.4495  0.4124
18334TIP3    H276494   1.003   4.998  12.155 -1.6286  1.0833 -0.3751
18335TIP3   OH276495   6.272   5.181   0.018  0.1744 -0.9220  0.2043
18335TIP3    H176496   6.359   5.194  -0.017 -0.1580  1.2982  0.0469
18335TIP3    H276497   6.219   5.156  -0.057  0.1882  0.2596 -0.2162
18336TIP3   OH276498   1.293   0.682  14.436 -0.0313 -0.5807 -0.3708
18336TIP3    H176499   1.335   0.596  14.442 -2.8932 -2.0377  0.2936
18336TIP3    H276500   1.222   0.678  14.500  0.2947  2.6737  0.3397
18337TIP3   OH276501   2.478   3.366   4.187 -0.0369 -0.1666  0.2216
18337TIP3    H176502   2.427   3.447   4.182 -1.1522 -0.8959 -1.0616
18337TIP3    H276503   2.486   3.337   4.096  1.3416 -0.9101  0.5499
18338TIP3   OH276504   3.505   4.094   1.318 -0.3015 -0.0374 -0.4372
18338TIP3    H176505   3.422   4.139   1.329 -0.1817  0.1377 -0.2405
18338TIP3    H276506   3.518   4.046   1.400  1.0317  1.9947  0.6344
18339TIP3   OH276507   3.865   4.250   5.975  0.3949  0.0329 -0.0086
18339TIP3    H176508   3.856   4.155   5.968  1.4203 -0.2510  1.8010
18339TIP3    H276509   3.777   4.280   6.000 -0.5620 -0.0933 -2.9046
18340TIP3   OH276510   2.725   2.573   2.912  0.0366  0.1396 -0.2600
18340TIP3    H176511   2.751   2.600   2.824 -2.1531  0.2468 -0.9400
18340TIP3    H276512   2.782   2.499   2.932 -1.0511 -1.5818 -2.8727
18341TIP3   OH276513   4.480   0.403  14.382 -0.4841 -0.1411  0.4471
18341TIP3    H176514   4.477   0.457  14.461  4.9639  0.9955  0.2933
18341TIP3    H276515   4.511   0.317  14.413  0.3937 -0.0997 -0.2789
18342TIP3   OH276516   5.153   6.291   5.723  0.2933  0.1614  0.1537
18342TIP3    H176517   5.072   6.248   5.750  0.3795 -0.2552 -0.2441
18342TIP3    H276518   5.192   6.323   5.805  0.0349 -0.1729  0.4093
18343TIP3   OH276519   4.064   6.326  14.378 -0.5468  0.7809  0.2999
18343TIP3    H176520   3.970   6.328  14.360 -0.5175  0.9517  0.1636
18343TIP3    H276521   4.080   6.238  14.411 -0.1177 -0.6465 -3.2553
18344TIP3   OH276522   3.751   2.741   0.578  0.7356 -0.7116  0.7919
18344TIP3    H176523   3.746   2.830   0.612  0.5523  0.1764 -1.3853
18344TIP3    H276524   3.686   2.692   0.629  0.6905  0.4367  1.8792
18345TIP3   OH276525   1.518   1.101   3.260 -0.5567  0.1820  0.1536
18345TIP3    H176526   1.525   1.096   3.164 -0.3760 -0.0924  0.1793
18345TIP3    H276527   1.484   1.189   3.277  2.1280  1.3553 -0.0187
18346TIP3   OH276528   6.525   2.568   2.915 -0.6468 -0.2775 -0.6303
18346TIP3    H176529   6.514   2.501   2.983 -1.8828  0.9096  0.4104
18346TIP3    H276530   6.613   2.553   2.880  0.4407 -0.3769  1.9129
18347TIP3   OH276531   6.128   3.105   0.363 -0.1135  0.4283 -0.1631
18347TIP3    H176532   6.183   3.061   0.298  0.7077 -0.5123  1.1065
18347TIP3    H276533   6.039   3.077   0.341  0.0429  0.8379 -1.3991
18348TIP3   OH276534   2.180   0.140   0.994  0.0893  0.2632 -0.0011
18348TIP3    H176535   2.124   0.154   1.070  0.5888 -1.0276  0.6376
18348TIP3    H276536   2.167   0.049   0.970 -0.2063  0.6896 -1.6202
18349TIP3   OH276537   2.540   2.229  15.854  0.2682  0.2755  0.4391
18349TIP3    H176538   2.541   2.312  15.902  0.1334  0.5833 -0.0798
18349TIP3    H276539   2.591   2.169  15.908  1.2083  0.9686  0.3450
18350TIP3   OH276540   5.700   1.448   4.421 -0.7425  0.4647  0.1657
18350TIP3    H176541   5.709   1.377   4.358 -2.5475  0.2512  0.1062
18350TIP3    H276542   5.726   1.409   4.505  1.2977  0.6471 -0.3361
18351TIP3   OH276543   0.025   0.793   0.282 -0.4456  0.3868  0.7394
18351TIP3    H176544  -0.024   0.861   0.328 -1.8553 -0.5732  0.7064
18351TIP3    H276545  -0.041   0.745   0.232  0.8731  0.5642 -1.2575
18352TIP3   OH276546   5.630   0.278  14.340 -0.2854  0.1174 -0.5156
18352TIP3    H176547   5.637   0.335  14.417  0.6481  1.5752 -1.6293
18352TIP3    H276548   5.587   0.199  14.373 -0.3538  0.8900  1.3915
18353TIP3   OH276549   4.198   1.657   6.187  0.0738 -0.1314 -0.8737
18353TIP3    H176550   4.142   1.598   6.137  1.6730 -1.5914 -1.0158
18353TIP3    H276551   4.287   1.630   6.165  0.8591 -0.1428  1.9406
18354TIP3   OH276552   3.682   4.566   3.452 -0.0249 -0.2461 -0.2593
18354TIP3    H176553   3.629   4.642   3.475 -0.0821  0.2854 -2.0036
18354TIP3    H276554   3.644   4.493   3.501  0.1614  0.8544  1.6123
18355TIP3   OH276555   5.948   1.658  10.672  0.5249 -0.2203  0.0685
18355TIP3    H176556   5.867   1.696  10.638  0.4444 -0.7795 -0.3745
18355TIP3    H276557   5.948   1.680  10.765  1.0862  1.9255 -0.3890
18356TIP3   OH276558   4.035   0.767   3.705 -0.4925  0.2759  0.2651
18356TIP3    H176559   4.027   0.677   3.674  0.0876  0.3983 -0.2545
18356TIP3    H276560   4.128   0.776   3.728 -0.9845  0.0100  2.6134
18357TIP3   OH276561   0.366   4.071   1.298 -0.1250 -0.0243  0.1789
18357TIP3    H176562   0.424   4.118   1.238 -2.4653  0.3635 -1.9802
18357TIP3    H276563   0.337   3.995   1.248 -1.9426  0.1670  0.8797
18358TIP3   OH276564   3.265   4.809  13.200 -0.0352  0.3376  0.0322
18358TIP3    H176565   3.195   4.766  13.249 -1.0060  1.2246 -0.5307
18358TIP3    H276566   3.310   4.864  13.265 -0.3103  0.3005  0.2566
18359TIP3   OH276567   1.863   4.248   6.288 -0.4171 -0.3822 -0.3236
18359TIP3    H176568   1.872   4.263   6.381 -0.2705 -1.6587 -0.1050
18359TIP3    H276569   1.864   4.335   6.248 -0.1889  0.1524  0.8291
18360TIP3   OH276570   4.569   2.129   5.196  0.3432  0.2938  0.3754
18360TIP3    H176571   4.575   2.133   5.101  1.2552  0.5859  0.4389
18360TIP3    H276572   4.522   2.048   5.214 -0.3169  0.5070 -0.3359
18361TIP3   OH276573   2.264   0.641  11.131 -0.1840  0.5344 -0.2517
18361TIP3    H176574   2.182   0.690  11.133 -0.2163  0.5000 -0.7451
18361TIP3    H276575   2.309   0.673  11.053 -0.1175 -0.0719 -0.4641
18362TIP3   OH276576   2.673   4.980  14.369 -0.3761 -0.0155  0.2647
18362TIP3    H176577   2.728   4.956  14.295  0.3436  0.3965  0.6478
18362TIP3    H276578   2.665   4.900  14.420 -1.2143 -0.4051 -0.4588
18363TIP3   OH276579   1.162   5.532   2.155 -0.3914  0.1041  0.3594
18363TIP3    H176580   1.111   5.614   2.153  1.1333  1.0822 -0.1228
18363TIP3    H276581   1.199   5.530   2.243 -0.1111  0.1305  0.2404
18364TIP3   OH276582   5.835   6.526  16.732 -0.2093 -0.0491  0.3392
18364TIP3    H176583   5.795   6.613  16.729  0.2079  0.2331  1.8588
18364TIP3    H276584   5.761   6.465  16.721 -0.8730  0.4834  1.5935
18365TIP3   OH276585   0.769   2.820   5.703 -0.2987 -0.2776 -0.3269
18365TIP3    H176586   0.728   2.755   5.760 -1.5912  0.0757 -0.8255
18365TIP3    H276587   0.703   2.839   5.636 -0.9401  3.2472  1.0615
18366TIP3   OH276588   6.028   4.298  14.780  0.1441  0.0128 -0.2523
18366TIP3    H176589   6.113   4.273  14.817  0.1981  1.3150  0.5716
18366TIP3    H276590   6.047   4.326  14.691  0.4227 -0.6092 -0.3938
18367TIP3   OH276591   0.119   0.058   2.658  0.2243 -0.1651  0.1047
18367TIP3    H176592   0.150  -0.005   2.722  2.4223  0.1045 -0.6035
18367TIP3    H276593   0.058   0.009   2.603  0.8218 -1.2891  0.4118
18368TIP3   OH276594   0.517   3.550  16.291  0.6069  0.3046  0.2813
18368TIP3    H176595   0.585   3.536  16.356  1.5896  1.1059 -0.5311
18368TIP3    H276596   0.513   3.468  16.242  0.3075 -0.0775  0.9371
18369TIP3   OH276597   1.176   0.454   2.545 -0.7258 -0.1880 -0.5436
18369TIP3    H176598   1.108   0.388   2.530  0.0971 -0.8156 -1.6483
18369TIP3    H276599   1.225   0.421   2.620 -0.3984 -0.7782 -1.0117
18370TIP3   OH276600   0.112   3.931  16.893 -0.0333  0.1522 -0.6614
18370TIP3    H176601   0.093   3.840  16.870  0.4202 -0.3539  0.8796
18370TIP3    H276602   0.203   3.944  16.866 -0.6698  0.8177 -2.7352
18371TIP3   OH276603   3.512   5.818  11.799  0.3796 -0.3485 -0.0323
18371TIP3    H176604   3.504   5.883  11.869 -1.1877 -1.4516  0.8638
18371TIP3    H276605   3.576   5.857  11.738  1.3305  0.9093  1.6716
18372TIP3   OH276606   1.243   5.982  13.657 -0.5775  0.2097 -1.0449
18372TIP3    H176607   1.196   5.901  13.637  0.1235 -0.5593  0.2781
18372TIP3    H276608   1.174   6.049  13.660 -1.3060 -0.5124 -1.1701
18373TIP3   OH276609   5.243   4.113   3.729 -0.7829  0.1425 -0.5780
18373TIP3    H176610   5.235   4.208   3.718  0.2135  0.2177 -0.7500
18373TIP3    H276611   5.318   4.089   3.673  0.2865 -0.4429  1.0434
18374TIP3   OH276612   6.119   1.264  16.299 -0.3784  0.1478  0.9597
18374TIP3    H176613   6.181   1.268  16.371  1.8087  1.6066 -0.8470
18374TIP3    H276614   6.162   1.209  16.233 -0.4888  1.9773 -0.7390
18375TIP3   OH276615   2.258   4.423  11.558  0.2464 -0.2086 -0.7139
18375TIP3    H176616   2.261   4.518  11.552 -0.7801 -0.1653 -0.6556
18375TIP3    H276617   2.254   4.393  11.467  0.4698 -0.1989 -0.7288
18376TIP3   OH276618   1.659   3.475   2.114 -0.7763  0.0864  0.0448
18376TIP3    H176619   1.588   3.474   2.179 -0.5903 -1.4800  0.2681
18376TIP3    H276620   1.620   3.434   2.037 -1.2009  2.5265 -1.1233
18377TIP3   OH276621   2.237   6.244  15.923 -0.0302 -0.3732  0.6467
18377TIP3    H176622   2.308   6.181  15.912  0.2917  0.0053  0.5355
18377TIP3    H276623   2.248   6.305  15.851  1.0746  1.1376  2.0160
18378TIP3   OH276624   3.125   5.002   0.080  0.5450 -0.2934 -0.3272
18378TIP3    H176625   3.055   5.042   0.029  0.7158 -1.0166 -1.1383
18378TIP3    H276626   3.082   4.972   0.160 -0.1132 -0.8852 -0.8938
18379TIP3   OH276627   6.258   5.478  15.484 -0.1240  0.5174 -0.1629
18379TIP3    H176628   6.307   5.556  15.511 -0.4379  0.6924 -0.0907
18379TIP3    H276629   6.309   5.405  15.516  0.1631  0.6965 -0.2107
18380TIP3   OH276630   6.106   6.599  13.142  0.1347 -0.3370 -0.2763
18380TIP3    H176631   6.130   6.684  13.177 -2.1744 -0.2679  1.3220
18380TIP3    H276632   6.099   6.613  13.047  0.0278  1.1831 -0.0621
18381TIP3   OH276633   4.223   6.093   4.901  0.5748 -0.8842  0.1476
18381TIP3    H176634   4.279   6.170   4.915  0.3325 -0.9106  1.3671
18381TIP3    H276635   4.242   6.066   4.811  0.1880  0.9888 -0.5394
18382TIP3   OH276636   6.650   4.003   4.690  0.5847  0.0607  0.3882
18382TIP3    H176637   6.616   3.925   4.734  2.0361  0.3432  2.1581
18382TIP3    H276638   6.573   4.049   4.659 -0.3177 -2.0476 -0.6990
18383TIP3   OH276639   3.980   4.218   1.628 -0.5106 -0.0601 -0.6575
18383TIP3    H176640   3.966   4.282   1.558  0.3019  1.3590  0.4358
18383TIP3    H276641   4.073   4.225   1.648 -0.9180  0.3694  1.2955
18384TIP3   OH276642   6.024   2.861  10.624  0.1441  0.0031  0.1370
18384TIP3    H176643   6.074   2.904  10.555 -0.8898  0.3544 -0.4139
18384TIP3    H276644   6.040   2.767  10.611  0.4757  0.1011 -0.1669
18385TIP3   OH276645   1.184   4.212   1.262  0.5002 -0.3315  0.0240
18385TIP3    H176646   1.211   4.289   1.313 -0.6385  0.3539 -0.3656
18385TIP3    H276647   1.196   4.138   1.321 -1.6859  0.5229  1.6812
18386TIP3   OH276648   6.440   4.943   5.820  0.0193  0.1382  0.2223
18386TIP3    H176649   6.466   4.912   5.907  0.4286  0.1111  0.0941
18386TIP3    H276650   6.516   4.926   5.765 -0.3569 -0.1516 -0.2184
18387TIP3   OH276651   6.202   6.390  10.816 -0.1932 -0.2213 -0.4612
18387TIP3    H176652   6.167   6.449  10.749  0.6808  1.0391  0.1516
18387TIP3    H276653   6.227   6.311  10.767  0.2994  0.6079 -1.6211
18388TIP3   OH276654   5.380   4.576   3.865  0.5355 -0.5219 -0.6864
18388TIP3    H176655   5.446   4.642   3.847 -0.8902  0.6695 -1.8487
18388TIP3    H276656   5.405   4.538   3.949  2.7119 -0.2024 -1.1303
18389TIP3   OH276657   6.070   0.745  13.544  0.5201 -0.2657 -0.2182
18389TIP3    H176658   6.017   0.668  13.561  0.0165  0.3059  0.9122
18389TIP3    H276659   6.023   0.816  13.587  2.9599  0.0211  2.2146
18390TIP3   OH276660   6.200   0.967   4.376  0.6695 -0.1917 -0.0728
18390TIP3    H176661   6.188   1.049   4.424 -0.0343  0.8314 -1.8849
18390TIP3    H276662   6.267   0.988   4.311  0.8983 -1.2366 -0.1823
18391TIP3   OH276663   2.781   2.134  17.111  0.0923  0.0210  0.0466
18391TIP3    H176664   2.800   2.062  17.052  1.2651  0.3172  0.0315
18391TIP3    H276665   2.801   2.099  17.198 -0.5898 -0.0763  0.1670
18392TIP3   OH276666   3.924   1.764   1.700  0.4932 -0.4967 -0.5386
18392TIP3    H176667   3.959   1.839   1.651  0.3252 -0.2923 -0.3520
18392TIP3    H276668   4.001   1.717   1.731  0.6320 -1.3554 -2.0683
18393TIP3   OH276669   4.741   1.702  16.788  0.2801 -0.2740  0.2230
18393TIP3    H176670   4.709   1.736  16.871  0.8321  2.7067 -0.6516
18393TIP3    H276671   4.836   1.712  16.794  0.4187 -1.1550 -0.3441
18394TIP3   OH276672   3.100   2.758  16.105 -0.6383 -0.6559  0.0447
18394TIP3    H176673   3.111   2.663  16.100 -0.8824 -0.6762 -0.1052
18394TIP3    H276674   3.189   2.793  16.094 -0.4704 -0.8851  0.6635
18395TIP3   OH276675   4.849   4.253  17.215 -0.2813  0.3269  0.4540
18395TIP3    H176676   4.846   4.205  17.298 -1.0586 -1.0598 -0.3351
18395TIP3    H276677   4.850   4.185  17.148  0.3781  1.4199 -0.6913
18396TIP3   OH276678   3.280   3.838   3.055  0.3327 -0.6583 -0.2938
18396TIP3    H176679   3.270   3.929   3.025  2.1225 -1.1904 -2.8836
18396TIP3    H276680   3.370   3.833   3.087 -0.5111 -0.9955  2.2860
18397TIP3   OH276681   4.920   3.716  15.843  0.0831  0.0176  0.1728
18397TIP3    H176682   5.012   3.721  15.869  0.1717 -0.3971 -0.0489
18397TIP3    H276683   4.884   3.645  15.896 -0.2284  0.4818  0.5956
18398TIP3   OH276684   2.960   0.737  15.093 -0.2931  0.9740  0.3494
18398TIP3    H176685   2.909   0.661  15.121 -0.4315  0.3185 -1.5353
18398TIP3    H276686   3.015   0.757  15.168 -0.9586 -0.3663  1.2492
18399TIP3   OH276687   5.881   2.746  11.151  0.0324  0.4203 -0.4369
18399TIP3    H176688   5.904   2.683  11.083 -0.8872  0.3063 -0.6515
18399TIP3    H276689   5.787   2.737  11.161  0.3262 -0.8587  2.1158
18400TIP3   OH276690   0.273   1.850   0.157 -0.4637  0.1421 -0.4284
18400TIP3    H176691   0.274   1.761   0.120 -3.1833 -0.2309  0.2397
18400TIP3    H276692   0.225   1.902   0.093 -0.3028  0.7844 -0.0393
18401TIP3   OH276693   6.036   0.486   0.515  0.4084 -0.0139 -0.0184
18401TIP3    H176694   6.001   0.397   0.507  2.6353 -1.1078  1.5783
18401TIP3    H276695   5.990   0.523   0.590  0.5215 -0.3267  0.2040
18402TIP3   OH276696   5.678   6.097   1.184 -0.1044  0.1129 -0.1535
18402TIP3    H176697   5.769   6.110   1.155 -0.3315  0.0316 -0.9267
18402TIP3    H276698   5.674   6.141   1.269  0.3779  1.0714 -0.6095
18403TIP3   OH276699   2.261   2.675   3.285 -0.4893  0.3463 -0.0389
18403TIP3    H176700   2.292   2.593   3.324  0.6837  0.5078 -0.6018
18403TIP3    H276701   2.255   2.656   3.191 -0.0830  0.9399 -0.1894
18404TIP3   OH276702   1.175   6.759   6.192  0.2509  0.2065  0.1400
18404TIP3    H176703   1.225   6.742   6.111  0.9881 -2.9193  1.1069
18404TIP3    H276704   1.092   6.714   6.178 -0.6379  1.7557  0.2308
18405TIP3   OH276705   1.308   3.626   2.867 -0.1854  0.1193  0.2443
18405TIP3    H176706   1.373   3.682   2.909 -0.4041  0.8094 -0.3163
18405TIP3    H276707   1.225   3.671   2.879 -0.1020  0.9578 -1.9142
18406TIP3   OH276708   2.898   0.605  16.265 -0.2653  0.0533  0.4603
18406TIP3    H176709   2.941   0.597  16.179  0.5640 -1.8058  0.9997
18406TIP3    H276710   2.818   0.655  16.247  1.5759  2.8658 -0.7626
18407TIP3   OH276711   4.139   1.139   2.488  0.4424  0.0406  1.0302
18407TIP3    H176712   4.137   1.104   2.400  0.2267 -0.4318  1.2220
18407TIP3    H276713   4.058   1.107   2.529  0.6523  0.0675  1.4710
18408TIP3   OH276714   4.080   2.419   4.111 -0.0361 -0.3966  0.1953
18408TIP3    H176715   4.036   2.355   4.056  0.4182  0.4397 -1.1891
18408TIP3    H276716   4.012   2.453   4.168 -1.3278  1.1529 -2.1511
18409TIP3   OH276717   6.653   3.755  17.154  0.1041 -0.0662  0.1305
18409TIP3    H176718   6.678   3.832  17.102  1.4085 -1.0581 -0.7870
18409TIP3    H276719   6.580   3.717  17.106 -0.2829  0.3649  0.3680
18410TIP3   OH276720   5.631   1.922   4.175  0.0181  0.8209 -0.1945
18410TIP3    H176721   5.556   1.968   4.140  0.3714  1.9930  0.5284
18410TIP3    H276722   5.662   1.977   4.247  0.4060 -0.5944  0.7650
18411TIP3   OH276723   0.405   4.307   3.505  0.3791 -0.1574  0.1909
18411TIP3    H176724   0.452   4.227   3.528  0.9208 -0.5159 -1.9477
18411TIP3    H276725   0.334   4.277   3.448  0.1521  0.8131 -0.0625
18412TIP3   OH276726   6.135   3.959  15.935 -0.2981  0.1490  0.2129
18412TIP3    H176727   6.140   4.025  15.866 -0.2020 -1.3170 -1.2347
18412TIP3    H276728   6.205   3.897  15.914  1.2339  0.7958  2.9266
18413TIP3   OH276729   2.663   1.846   5.187 -0.7434  0.5804  0.0722
18413TIP3    H176730   2.609   1.790   5.131 -0.3444  1.4031 -1.2019
18413TIP3    H276731   2.625   1.933   5.178 -0.2244  0.8610  0.5037
18414TIP3   OH276732   5.125   4.353  16.154  0.6742  0.1513  0.3677
18414TIP3    H176733   5.194   4.333  16.217  1.7039 -0.3765 -0.8897
18414TIP3    H276734   5.061   4.283  16.166  0.5092  0.4421  1.2890
18415TIP3   OH276735   2.535   2.807   0.478 -0.0130 -0.7259  0.0744
18415TIP3    H176736   2.542   2.750   0.554  0.3051 -0.0631  0.5474
18415TIP3    H276737   2.464   2.867   0.499 -0.8082 -1.3706 -0.7097
18416TIP3   OH276738   5.383   5.368   6.059  1.0722  0.5451 -0.5969
18416TIP3    H176739   5.373   5.462   6.068 -1.8431  0.3434 -0.6955
18416TIP3    H276740   5.429   5.356   5.976  1.0797  1.8697 -0.8011
18417TIP3   OH276741   6.121   1.347  10.845  0.2754  0.1512  0.2495
18417TIP3    H176742   6.147   1.438  10.828 -0.5104  0.2354 -0.5743
18417TIP3    H276743   6.027   1.345  10.830  0.5858 -1.2685 -2.0238
18418TIP3   OH276744   6.080   1.122  12.813 -0.0750  0.2789  0.6587
18418TIP3    H176745   6.022   1.136  12.739  0.7065  1.1387  0.1873
18418TIP3    H276746   6.097   1.209  12.848 -0.4089 -0.1109  1.8416
18419TIP3   OH276747   3.902   5.704   2.967  0.2714 -0.1327  0.3229
18419TIP3    H176748   3.811   5.694   2.940 -0.3158 -0.6112  2.3102
18419TIP3    H276749   3.938   5.771   2.909 -1.8117  1.2510  0.5579
18420TIP3   OH276750   6.023   3.808  17.345  0.3250 -0.0165  0.7896
18420TIP3    H176751   6.106   3.780  17.308  0.2659  0.0189  0.6308
18420TIP3    H276752   5.977   3.727  17.366 -1.7289 -0.3258 -3.6956
18421TIP3   OH276753   5.267   2.328   4.104  0.3922  0.3259 -0.3059
18421TIP3    H176754   5.203   2.257   4.106  0.4266  0.3037  0.1726
18421TIP3    H276755   5.219   2.403   4.068  0.1569  0.2485 -0.1576
18422TIP3   OH276756   6.652   6.628   3.815  0.1875 -0.1939  0.1748
18422TIP3    H176757   6.724   6.671   3.769 -0.5824  0.4175 -0.4782
18422TIP3    H276758   6.669   6.534   3.802  0.3126 -0.0450 -0.8758
18423TIP3   OH276759   0.615   0.794  13.933  0.1798 -0.2865 -0.2785
18423TIP3    H176760   0.531   0.748  13.931  0.7156 -1.3150  0.3217
18423TIP3    H276761   0.652   0.780  13.846 -0.2504  0.1345 -0.5315
18424TIP3   OH276762   1.645   1.656  14.994  0.3302  0.3623 -0.4291
18424TIP3    H176763   1.581   1.600  14.951  0.6422 -0.8862  0.6604
18424TIP3    H276764   1.609   1.669  15.082  1.0264  0.5923 -0.1760
18425TIP3   OH276765   0.323   4.725  13.589 -0.3606 -0.2940  0.2003
18425TIP3    H176766   0.324   4.821  13.587 -1.9069 -0.1816  2.0001
18425TIP3    H276767   0.414   4.701  13.608  0.4541  0.6669 -2.0719
18426TIP3   OH276768   2.763   1.672   6.187  0.3832  0.2286  0.0308
18426TIP3    H176769   2.797   1.586   6.211  0.3112  0.0695 -0.4236
18426TIP3    H276770   2.827   1.734   6.223  1.4008 -0.0792 -1.1652
18427TIP3   OH276771   0.554   0.306  14.486  0.0664 -0.4196 -0.0442
18427TIP3    H176772   0.573   0.299  14.393 -0.2485 -0.1871 -0.1259
18427TIP3    H276773   0.463   0.336  14.490 -0.4107 -1.8230  0.3369
18428TIP3   OH276774   3.786   2.948   2.692 -0.3990  0.4438  0.0536
18428TIP3    H176775   3.802   2.863   2.653  1.6689  0.4501  0.7838
18428TIP3    H276776   3.696   2.942   2.726  0.1748 -1.9741  1.3787
18429TIP3   OH276777   3.102   2.342  12.545 -0.0958 -0.6301 -0.2427
18429TIP3    H176778   3.160   2.365  12.473  2.8171 -1.6519  1.6007
18429TIP3    H276779   3.019   2.384  12.524  1.2246  0.7654 -3.1471
18430TIP3   OH276780   5.787   4.686  14.364  0.6408  0.2017  0.1747
18430TIP3    H176781   5.825   4.758  14.415  1.1113 -2.5663  4.2004
18430TIP3    H276782   5.863   4.635  14.336  0.3270 -1.8056  2.6017
18431TIP3   OH276783   5.370   3.834  14.983  0.4109 -0.3215  0.0438
18431TIP3    H176784   5.295   3.786  14.946 -1.4587 -0.0320  3.0958
18431TIP3    H276785   5.412   3.771  15.042  0.5998  0.4698  0.7676
18432TIP3   OH276786   4.972   4.039   1.293  0.5222  0.4099  0.3563
18432TIP3    H176787   5.057   4.014   1.328  0.8435 -0.9914 -1.2886
18432TIP3    H276788   4.988   4.119   1.243  0.9238  0.0407 -0.1091
18433TIP3   OH276789   2.370   2.961   2.498  0.0382  0.5520  0.9576
18433TIP3    H176790   2.306   2.895   2.525 -1.7262  2.5421  1.9627
18433TIP3    H276791   2.422   2.918   2.430 -3.3655 -0.7610 -1.0962
18434TIP3   OH276792   5.053   6.131  12.598  0.5016  0.4454 -0.2533
18434TIP3    H176793   5.113   6.146  12.525  1.9480  0.1732  0.8449
18434TIP3    H276794   5.075   6.043  12.630 -0.5101  0.3267  0.1614
18435TIP3   OH276795   2.889   6.528  13.588 -0.4580 -0.8154 -0.0537
18435TIP3    H176796   2.958   6.545  13.652 -0.9752  1.6516 -0.0785
18435TIP3    H276797   2.936   6.519  13.505 -0.1351  1.5777 -0.1953
18436TIP3   OH276798   2.461   1.764  16.799 -0.5613 -0.1370  0.1285
18436TIP3    H176799   2.485   1.849  16.834 -0.0409 -0.8048  1.4438
18436TIP3    H276800   2.533   1.706  16.824 -1.3026 -1.1425 -0.0117
18437TIP3   OH276801   0.998   0.637  13.408 -0.4791  0.1982 -0.1568
18437TIP3    H176802   1.048   0.708  13.368  0.4176  1.0832  2.3273
18437TIP3    H276803   1.063   0.568  13.425 -0.5110  0.4194  0.9807
18438TIP3   OH276804   3.345   5.511  17.120 -0.0619 -0.3876  0.1231
18438TIP3    H176805   3.332   5.420  17.092  0.1603 -0.7775  1.2023
18438TIP3    H276806   3.381   5.555  17.043  0.2890 -1.3368 -0.2795
18439TIP3   OH276807   2.615   0.026  13.558 -0.2150 -0.3119  0.8929
18439TIP3    H176808   2.547   0.093  13.566 -1.3115 -1.2625 -0.0640
18439TIP3    H276809   2.642   0.030  13.466 -0.5536 -1.3841  0.7290
18440TIP3   OH276810   3.302   1.732  14.985 -0.0075  0.8313 -0.3968
18440TIP3    H176811   3.288   1.752  15.078 -0.4846  1.3115 -0.5597
18440TIP3    H276812   3.217   1.752  14.944  0.4667  1.5216 -1.0735
18441TIP3   OH276813   4.551   2.167   0.695  0.3555 -0.0511  0.4418
18441TIP3    H176814   4.594   2.088   0.727 -0.4272 -0.3294  0.8297
18441TIP3    H276815   4.620   2.215   0.650  0.5047 -1.6732 -1.1520
18442TIP3   OH276816   4.762   2.785   2.539 -0.1939 -0.1702  0.1549
18442TIP3    H176817   4.852   2.815   2.530 -0.7728  2.0350  0.9930
18442TIP3    H276818   4.718   2.855   2.587 -2.6414 -0.6158 -1.2688
18443TIP3   OH276819   2.558   1.381  13.027  0.4593  0.1671 -0.0238
18443TIP3    H176820   2.612   1.304  13.013 -0.8388 -0.6243 -0.9030
18443TIP3    H276821   2.549   1.420  12.940  1.1258  1.3444  0.4151
18444TIP3   OH276822   3.936   5.085  15.214  0.1189 -0.5406 -0.5016
18444TIP3    H176823   4.005   5.042  15.264 -0.6066  0.8580  1.8761
18444TIP3    H276824   3.867   5.103  15.279 -1.4121  0.3264 -2.2673
18445TIP3   OH276825   0.574   5.859   2.246  0.4942 -0.1182 -0.5345
18445TIP3    H176826   0.562   5.816   2.330 -1.3460  1.1540 -0.0684
18445TIP3    H276827   0.535   5.798   2.182 -0.7611  0.1543 -0.0660
18446TIP3   OH276828   0.499   3.845  13.868  0.2816  0.5200  0.3387
18446TIP3    H176829   0.486   3.899  13.946  2.0479 -0.7059  1.5603
18446TIP3    H276830   0.551   3.771  13.898  0.9985 -0.0333 -2.0105
18447TIP3   OH276831   0.476   5.623   3.259  0.3670  0.3138  0.0026
18447TIP3    H176832   0.457   5.573   3.179 -0.0127 -1.1091  0.9429
18447TIP3    H276833   0.571   5.619   3.268  0.2641 -1.7743  0.9438
18448TIP3   OH276834   2.771   2.443  15.364  0.2455  0.0874 -0.2979
18448TIP3    H176835   2.724   2.376  15.313  1.0229 -0.7163  0.0139
18448TIP3    H276836   2.762   2.414  15.455 -1.1062  1.4939  0.0486
18449TIP3   OH276837   4.351   3.001   6.229 -0.3551  0.2862 -0.4518
18449TIP3    H176838   4.387   2.927   6.276 -1.1291  0.5195  0.5520
18449TIP3    H276839   4.427   3.046   6.193  0.5349  1.3431  2.4484
18450TIP3   OH276840   0.802   0.962   1.995 -0.3555 -0.4197 -0.5181
18450TIP3    H176841   0.845   1.016   2.062 -1.0697 -1.1296  0.5492
18450TIP3    H276842   0.708   0.971   2.015 -0.5449 -1.0393 -1.1198
18451TIP3   OH276843   5.549   2.675   5.884  0.4736 -0.6824 -0.1650
18451TIP3    H176844   5.593   2.593   5.862  2.4435 -0.2007  1.6016
18451TIP3    H276845   5.463   2.649   5.915 -0.1680 -1.7743 -2.6338
18452TIP3   OH276846   4.837   5.107  15.399 -0.4400 -0.1126 -0.7487
18452TIP3    H176847   4.811   5.101  15.307  2.8785 -1.4019 -1.7442
18452TIP3    H276848   4.874   5.195  15.407  0.2907 -0.3900 -0.9874
18453TIP3   OH276849   0.586   2.035  12.095 -0.5642  0.2095 -0.5909
18453TIP3    H176850   0.577   2.125  12.124 -0.3343 -0.2740  1.0921
18453TIP3    H276851   0.681   2.021  12.086 -0.6420  0.4259 -1.8720
18454TIP3   OH276852   3.716   2.210  14.218 -0.2767 -0.7883  0.1699
18454TIP3    H176853   3.675   2.251  14.141 -0.8344  1.1495  1.4094
18454TIP3    H276854   3.789   2.160  14.183 -0.4738  0.0931 -1.6171
18455TIP3   OH276855   3.069   6.211   2.451  0.1882  0.2099  0.0146
18455TIP3    H176856   3.033   6.277   2.510 -1.1954  0.7657 -1.3817
18455TIP3    H276857   3.087   6.258   2.370 -2.2321 -1.3227 -1.5311
18456TIP3   OH276858   2.925   0.532  17.470  0.1207 -0.4684 -0.5147
18456TIP3    H176859   2.888   0.480  17.398  2.4971 -2.1451 -0.6255
18456TIP3    H276860   2.929   0.472  17.544 -1.2418  0.9282  0.7808
18457TIP3   OH276861   4.543   3.655  16.213  0.1344  0.5922  0.2581
18457TIP3    H176862   4.577   3.740  16.187  0.9986  1.0679  2.6820
18457TIP3    H276863   4.458   3.674  16.254  0.3707  0.3321  0.8904
18458TIP3   OH276864   2.631   5.006   4.769 -0.6142 -0.4977  0.2820
18458TIP3    H176865   2.646   4.912   4.779  1.9027 -0.1863  0.0720
18458TIP3    H276866   2.682   5.046   4.840 -0.7830  0.7404 -0.2681
18459TIP3   OH276867   1.801   2.940  12.865  0.3203  0.0399  0.4774
18459TIP3    H176868   1.722   2.977  12.825  1.5613  1.0775 -1.1342
18459TIP3    H276869   1.811   2.854  12.824  1.3368  0.9171 -1.2513
18460TIP3   OH276870   2.603   3.318  13.199 -0.0131 -0.1628  0.2892
18460TIP3    H176871   2.612   3.409  13.228 -0.3498  0.1149 -0.4395
18460TIP3    H276872   2.693   3.288  13.188  0.1008  0.2186  0.1420
18461TIP3   OH276873   1.696   6.077  14.260 -0.4887  0.6962  0.3960
18461TIP3    H176874   1.659   6.118  14.181 -0.7673  1.4513  0.9060
18461TIP3    H276875   1.741   6.149  14.305  1.6457 -0.1883 -0.1993
18462TIP3   OH276876   4.623   4.940   4.093 -0.3309 -0.0574  0.3672
18462TIP3    H176877   4.655   5.012   4.149  0.0233 -1.2322  1.7314
18462TIP3    H276878   4.533   4.965   4.072  0.3681  1.6951 -0.7933
18463TIP3   OH276879   3.404   0.983  13.123  0.8984  0.2993 -0.1812
18463TIP3    H176880   3.437   1.037  13.195  0.0748  0.6945 -0.0781
18463TIP3    H276881   3.428   1.031  13.044  1.0066  0.3327 -0.1281
18464TIP3   OH276882   3.376   2.011  16.576 -0.0413  0.5832  0.5970
18464TIP3    H176883   3.332   2.009  16.491  1.0400  0.3386  0.0289
18464TIP3    H276884   3.324   2.072  16.628 -1.7346 -0.5512  0.3348
18465TIP3   OH276885   0.047   3.661   3.668  0.3047  0.4505 -0.2453
18465TIP3    H176886   0.031   3.737   3.612 -1.0489 -0.6804 -1.4495
18465TIP3    H276887  -0.030   3.655   3.724  0.7378  0.3793  0.3527
18466TIP3   OH276888   3.407   6.707   3.088  0.1215 -0.2908  0.1685
18466TIP3    H176889   3.378   6.654   3.162 -1.8157  0.1994 -0.1793
18466TIP3    H276890   3.437   6.789   3.127  1.0987 -0.8070  0.5389
18467TIP3   OH276891   1.284   5.141  16.003 -0.3961 -0.2699 -0.4088
18467TIP3    H176892   1.263   5.201  15.931 -1.5123 -0.6159 -0.3946
18467TIP3    H276893   1.205   5.087  16.012  0.4131 -1.4434 -0.1268
18468TIP3   OH276894   3.184   2.824   0.872 -0.0767 -0.5596 -0.4704
18468TIP3    H176895   3.139   2.826   0.956 -1.5480 -3.1183 -1.1040
18468TIP3    H276896   3.116   2.798   0.809  0.5116  2.9169 -2.8574
18469TIP3   OH276897   0.204   2.083  11.921  0.0371  0.3485  0.0031
18469TIP3    H176898   0.120   2.128  11.922  0.8962  2.0387  1.2848
18469TIP3    H276899   0.228   2.073  12.014  1.8925  1.2546 -0.3187
18470TIP3   OH276900   4.360   0.371  12.894  0.3963 -0.3775 -0.2613
18470TIP3    H176901   4.279   0.370  12.944  0.6642  2.0903  0.3145
18470TIP3    H276902   4.416   0.306  12.938  0.9498  2.2414  3.3372
18471TIP3   OH276903   3.338   5.521   5.608  0.0297  0.0318  0.5226
18471TIP3    H176904   3.384   5.438   5.595  1.9670  1.1261 -0.1213
18471TIP3    H276905   3.245   5.499   5.599  0.5626 -1.6852 -1.9077
18472TIP3   OH276906   3.992   0.898  13.511 -1.0510 -0.5362 -0.2954
18472TIP3    H176907   4.028   0.951  13.582 -0.5800  0.0434 -0.9598
18472TIP3    H276908   4.027   0.810  13.527 -0.5256 -0.2985 -0.1078
18473TIP3   OH276909   6.005   3.892   0.655 -0.0317  0.2849 -0.0313
18473TIP3    H176910   6.010   3.853   0.742  0.0591 -1.6084 -0.8450
18473TIP3    H276911   5.961   3.976   0.669  1.8026  0.9996  2.1128
18474TIP3   OH276912   4.417   5.337   0.132 -0.1922 -0.0398  0.1244
18474TIP3    H176913   4.385   5.364   0.218 -1.8776  2.1206 -1.0803
18474TIP3    H276914   4.454   5.416   0.094  0.1839 -0.8595 -1.2918
18475TIP3   OH276915   2.389   2.284   0.716 -0.0424  0.4422 -0.1532
18475TIP3    H176916   2.480   2.314   0.724 -0.2791  0.7457  2.4104
18475TIP3    H276917   2.383   2.248   0.628  3.0367 -1.1319  0.1437
18476TIP3   OH276918   0.121   1.183   4.433 -0.1256  0.3730  0.3660
18476TIP3    H176919   0.074   1.226   4.505  1.0979 -0.2470  1.5878
18476TIP3    H276920   0.110   1.243   4.359 -1.8513  0.7885  0.8954
18477TIP3   OH276921   1.705   0.951  13.982  0.3161 -0.1306  0.4536
18477TIP3    H176922   1.727   1.022  13.921  1.1828  0.4248  1.3671
18477TIP3    H276923   1.643   0.991  14.043 -2.1041 -1.2400 -1.1619
18478TIP3   OH276924   3.944   1.421   2.863 -0.2164  0.2706 -0.1896
18478TIP3    H176925   3.874   1.481   2.892 -0.3712  0.4101 -0.8374
18478TIP3    H276926   3.897   1.345   2.828 -0.0253 -0.9534  2.0232
18479TIP3   OH276927   0.246   6.267   5.511  0.1832  0.0905 -0.0182
18479TIP3    H176928   0.199   6.336   5.558 -3.5793 -2.4914  0.5165
18479TIP3    H276929   0.285   6.212   5.579  0.6607  0.0917 -0.2829
18480TIP3   OH276930   2.290   2.102  11.898  0.0715  0.0886  0.2550
18480TIP3    H176931   2.204   2.060  11.894  1.1160 -2.2501  0.5919
18480TIP3    H276932   2.342   2.058  11.831  1.4193  0.3773  1.0584
18481TIP3   OH276933   4.542   5.391  10.726  0.0292  0.2023  0.2742
18481TIP3    H176934   4.555   5.476  10.684 -2.1120  0.3150 -0.3240
18481TIP3    H276935   4.603   5.390  10.799  0.7793  1.8444 -0.2841
18482TIP3   OH276936   0.678   6.729   4.970 -0.5231  0.4768  0.1269
18482TIP3    H176937   0.741   6.737   4.898  0.7840 -0.6142  1.1138
18482TIP3    H276938   0.620   6.657   4.943  0.1513 -0.1333  0.3032
18483TIP3   OH276939   6.639   1.587   4.127 -0.6951  0.3134  0.7261
18483TIP3    H176940   6.691   1.649   4.075 -1.0925 -0.5875 -0.7995
18483TIP3    H276941   6.591   1.642   4.188 -0.7716  1.5008 -0.3584
18484TIP3   OH276942   1.421   1.603  12.043 -0.8050  0.3836  0.0926
18484TIP3    H176943   1.431   1.593  11.948 -1.6817 -0.4254  0.0805
18484TIP3    H276944   1.354   1.670  12.053 -1.5808 -0.3920  0.1304
18485TIP3   OH276945   6.323   4.779  11.711 -0.0268  0.7824  0.1064
18485TIP3    H176946   6.282   4.696  11.685  1.6550 -0.4688  1.2360
18485TIP3    H276947   6.304   4.839  11.639 -3.5257  0.2635  0.4037
18486TIP3   OH276948   4.348   3.412   1.192 -0.7605  0.0090  0.0166
18486TIP3    H176949   4.359   3.507   1.186  1.3419 -0.0131  2.0374
18486TIP3    H276950   4.259   3.400   1.226 -1.0929  1.2349 -0.3690
18487TIP3   OH276951   2.541   0.415   0.871 -0.5666 -0.3654  0.8709
18487TIP3    H176952   2.446   0.405   0.863 -0.5768 -1.8814  2.3119
18487TIP3    H276953   2.563   0.484   0.809 -2.6055  0.0057  0.4816
18488TIP3   OH276954   5.334   0.988   1.016 -0.0822 -0.6905 -0.1632
18488TIP3    H176955   5.257   1.043   1.005 -0.8157 -1.4212  1.0371
18488TIP3    H276956   5.302   0.899   1.006  0.9290 -0.9621 -1.2271
18489TIP3   OH276957   5.212   3.584  12.241  0.8790 -0.1341  0.0277
18489TIP3    H176958   5.187   3.499  12.206  2.1221 -0.2962 -0.5151
18489TIP3    H276959   5.148   3.645  12.204  0.8006 -0.6385 -0.6887
18490TIP3   OH276960   2.966   2.927   3.876  0.0276  0.0076  0.0186
18490TIP3    H176961   3.012   2.978   3.809  1.3870  0.2206  1.0489
18490TIP3    H276962   2.948   2.843   3.835 -0.8040  0.7597 -1.1888
18491TIP3   OH276963   5.646   6.603  14.543 -0.1566 -0.2637 -0.0391
18491TIP3    H176964   5.626   6.606  14.450  0.5888  1.0661 -0.1885
18491TIP3    H276965   5.737   6.634  14.549  0.3667 -1.8666  0.9859
18492TIP3   OH276966   4.711   4.182   4.510  0.2572 -0.1110 -0.3292
18492TIP3    H176967   4.720   4.115   4.578  0.8180 -0.2487 -0.5353
18492TIP3    H276968   4.626   4.222   4.527  0.6184  0.2172  0.7823
18493TIP3   OH276969   0.266   0.179  12.747  0.1110 -0.1847 -0.0757
18493TIP3    H176970   0.213   0.110  12.788  0.5824  0.6093  2.0290
18493TIP3    H276971   0.354   0.141  12.743  0.7281  0.7188  2.5564
18494TIP3   OH276972   2.533   5.785  13.546 -0.4155 -0.2893  0.2451
18494TIP3    H176973   2.513   5.879  13.550  0.6134 -0.0856  1.0191
18494TIP3    H276974   2.478   5.752  13.475 -0.9716  0.8530  0.1197
18495TIP3   OH276975   3.964   3.476   3.736  0.1149 -0.6265  0.2294
18495TIP3    H176976   4.020   3.554   3.738 -0.6318 -0.0797  2.0983
18495TIP3    H276977   4.019   3.407   3.775  0.3744 -0.7523 -0.3513
18496TIP3   OH276978   0.709   1.271   5.917  0.1024 -0.1565 -0.3812
18496TIP3    H176979   0.688   1.358   5.952  0.4691  0.0266 -0.6167
18496TIP3    H276980   0.723   1.285   5.824 -0.5228 -0.5891 -0.5498
18497TIP3   OH276981   3.441   6.654   4.575 -0.2858  0.1533  0.7079
18497TIP3    H176982   3.506   6.601   4.529 -2.0454 -1.0743 -0.5414
18497TIP3    H276983   3.389   6.693   4.504  0.2814  2.7457  1.6188
18498TIP3   OH276984   5.354   0.422  11.503 -0.1028  0.6455 -0.0219
18498TIP3    H176985   5.414   0.464  11.441  1.4001 -1.2903  0.0238
18498TIP3    H276986   5.309   0.355  11.452  0.7749 -0.6244  0.7946
18499TIP3   OH276987   5.691   0.532   4.604  0.2125  0.1417  0.0924
18499TIP3    H176988   5.623   0.491   4.657  0.0103  1.0444  0.5432
18499TIP3    H276989   5.755   0.462   4.588  0.5954 -0.0037  2.0499
18500TIP3   OH276990   1.246   1.183   0.758  0.1059 -0.1315  0.2590
18500TIP3    H176991   1.263   1.214   0.670  0.6240 -0.6322  0.1787
18500TIP3    H276992   1.329   1.146   0.788  0.0450  0.3681  1.0986
18501TIP3   OH276993   3.340   2.368  17.465  0.3696 -0.4655 -0.4418
18501TIP3    H176994   3.343   2.458  17.497  0.5750 -0.1930 -1.2122
18501TIP3    H276995   3.261   2.331  17.505 -0.7047  0.5979 -1.4901
18502TIP3   OH276996   1.857   6.371   3.733  0.5400 -0.0893  0.5187
18502TIP3    H176997   1.819   6.311   3.797 -1.2988 -0.4856 -0.8449
18502TIP3    H276998   1.864   6.319   3.653  1.8620  0.6572  0.1230
18503TIP3   OH276999   1.557   1.838   2.516 -0.5844  0.0143 -0.5660
18503TIP3    H177000   1.508   1.919   2.528  0.7658  1.2076 -2.4907
18503TIP3    H277001   1.641   1.853   2.559 -0.9735 -1.1215  0.6767
18504TIP3   OH277002   3.615   1.440  14.844 -0.3332 -0.1024  0.3223
18504TIP3    H177003   3.690   1.436  14.783 -1.0176 -0.4204 -0.5217
18504TIP3    H277004   3.554   1.374  14.810  0.1580 -1.8536  2.5907
18505TIP3   OH277005   6.495   0.686  14.192  0.0634 -0.1198  0.0711
18505TIP3    H177006   6.565   0.696  14.126  1.0593  1.4751  1.2959
18505TIP3    H277007   6.428   0.633  14.148  1.1199  0.0637 -1.8736
18506TIP3   OH277008   2.810   0.698   0.201  0.6852 -0.0882  0.2536
18506TIP3    H177009   2.904   0.704   0.217  0.6897 -0.6885  0.4728
18506TIP3    H277010   2.784   0.786   0.174  1.0873  0.3982  1.3905
18507TIP3   OH277011   0.185   4.974   4.017 -0.0158 -0.2776  0.0398
18507TIP3    H177012   0.149   4.890   3.987  0.0722 -1.0410  1.9582
18507TIP3    H277013   0.279   4.960   4.020  0.1127  0.3292 -0.8604
18508TIP3   OH277014   2.906   3.415   2.024  0.1744  0.5417 -0.3518
18508TIP3    H177015   2.825   3.460   2.048 -0.5625 -1.1790  0.5433
18508TIP3    H277016   2.952   3.401   2.106  0.0860 -0.8662 -0.5176
18509TIP3   OH277017   2.216   2.435  14.034 -0.4386  0.0167 -0.2990
18509TIP3    H177018   2.310   2.441  14.055  0.0847 -2.4582 -1.5056
18509TIP3    H277019   2.176   2.403  14.115 -0.2633  1.0373  0.2092
18510TIP3   OH277020   5.426   3.120   1.444 -0.6739 -0.1339  0.1112
18510TIP3    H177021   5.428   3.174   1.523 -0.6877  1.1913 -0.7486
18510TIP3    H277022   5.347   3.149   1.398 -0.5690 -0.7542 -0.4695
18511TIP3   OH277023   0.200   0.221  14.141  0.3541  0.0091  0.2559
18511TIP3    H177024   0.140   0.204  14.214 -0.6119  2.0978  0.0441
18511TIP3    H277025   0.257   0.145  14.138 -1.4358 -1.4573  1.3401
18512TIP3   OH277026   1.138   5.849   5.843  0.6259  0.1397 -0.3293
18512TIP3    H177027   1.164   5.766   5.883 -0.8593 -0.9749 -1.5963
18512TIP3    H277028   1.088   5.894   5.912 -0.8628 -1.2256 -0.4721
18513TIP3   OH277029   5.030   5.025  16.958  0.1473 -0.1264 -0.4014
18513TIP3    H177030   5.022   4.939  16.999  1.5753 -1.0801 -1.9723
18513TIP3    H277031   5.055   5.084  17.029 -0.6320 -1.0399  0.6625
18514TIP3   OH277032   2.747   4.951  15.931  0.1086  0.5405  0.9370
18514TIP3    H177033   2.662   4.920  15.898 -0.3130 -0.2229  2.6217
18514TIP3    H277034   2.787   4.994  15.856 -2.1214  1.6610  0.2985
18515TIP3   OH277035   2.061   3.644  12.146  0.0721 -0.5536 -0.5696
18515TIP3    H177036   2.123   3.572  12.158 -0.3770 -0.8551  0.0053
18515TIP3    H277037   1.987   3.604  12.100 -0.2095 -0.4783 -0.1855
18516TIP3   OH277038   2.468   1.554   0.896 -0.3826 -0.1540  0.2057
18516TIP3    H177039   2.526   1.573   0.822 -2.2387  3.2144 -0.6177
18516TIP3    H277040   2.406   1.490   0.862 -0.4000  0.3320 -0.7169
18517TIP3   OH277041   6.383   3.368  17.493  0.3242  0.4785  0.5744
18517TIP3    H177042   6.467   3.371  17.447 -0.9476 -0.0110 -1.9566
18517TIP3    H277043   6.357   3.276  17.489  0.0742  0.4403  2.2326
18518TIP3   OH277044   6.430   1.980   4.431 -0.1858 -0.0093  0.4236
18518TIP3    H177045   6.492   2.052   4.442  0.6980 -0.9864  2.4953
18518TIP3    H277046   6.361   2.015   4.376  0.6810  2.1164  0.6093
18519TIP3   OH277047   0.718   4.077  10.989  0.3794  0.0280  0.3982
18519TIP3    H177048   0.689   4.165  10.964  0.8426  0.4311  1.2213
18519TIP3    H277049   0.734   4.032  10.906  0.9394  0.9931 -0.0261
18520TIP3   OH277050   6.035   1.833  16.303 -0.1037 -0.3191 -0.0450
18520TIP3    H177051   6.060   1.743  16.284  1.3681  0.6625 -3.4743
18520TIP3    H277052   5.947   1.842  16.268 -0.9212 -0.7588  1.7660
18521TIP3   OH277053   5.579   2.635   2.949  0.2645  0.1308 -0.0840
18521TIP3    H177054   5.649   2.576   2.974  0.2592  0.0993 -0.1441
18521TIP3    H277055   5.614   2.723   2.966  0.0809  0.0915  0.4980
18522TIP3   OH277056   5.428   1.450   4.339 -0.1267  0.7250  0.1103
18522TIP3    H177057   5.458   1.425   4.252  0.1408  0.1683  0.3570
18522TIP3    H277058   5.506   1.487   4.382 -0.1547  0.6134  0.2581
18523TIP3   OH277059   4.640   1.774  11.076  0.2531 -0.1690  0.0316
18523TIP3    H177060   4.716   1.752  11.022  0.1572  1.3605 -0.7814
18523TIP3    H277061   4.594   1.842  11.027  0.3845  1.6177  2.2396
18524TIP3   OH277062   3.536   3.302  12.450 -0.3059  0.0614 -0.2022
18524TIP3    H177063   3.512   3.278  12.360 -0.7903 -1.8716  0.4025
18524TIP3    H277064   3.630   3.283  12.456  0.2147  2.0979 -0.8317
18525TIP3   OH277065   0.201   4.612  14.342  0.5939  0.4918 -0.0352
18525TIP3    H177066   0.260   4.611  14.418  1.5178  2.7576 -0.6363
18525TIP3    H277067   0.259   4.626  14.267 -0.4482 -0.2689 -1.0211
18526TIP3   OH277068   4.895   4.473   6.514 -0.7106  0.2177  0.1924
18526TIP3    H177069   4.852   4.387   6.515 -1.4385  0.5780  1.0070
18526TIP3    H277070   4.853   4.522   6.584  1.1446  0.5622  1.1274
18527TIP3   OH277071   5.525   0.750   5.357 -0.0253 -0.4171 -0.1419
18527TIP3    H177072   5.568   0.747   5.271  2.9024 -1.0656  1.2112
18527TIP3    H277073   5.468   0.674   5.358  0.8126 -1.0938 -1.0940
18528TIP3   OH277074   5.191   0.678   0.091 -0.1993 -0.3462 -0.1347
18528TIP3    H177075   5.134   0.626   0.148  0.8949 -0.1538  1.1776
18528TIP3    H277076   5.133   0.747   0.056 -0.7728 -0.1104  1.2106
18529TIP3   OH277077   1.338   4.142   1.647  0.4748 -0.3026 -0.2191
18529TIP3    H177078   1.394   4.209   1.685 -0.5171  0.9214 -0.8165
18529TIP3    H277079   1.249   4.178   1.655 -0.2409 -2.1471  0.6593
18530TIP3   OH277080   1.836   2.934   3.445 -0.8593 -0.5413  0.1273
18530TIP3    H177081   1.905   2.869   3.455 -0.3911  0.1512  1.7025
18530TIP3    H277082   1.780   2.899   3.376 -0.3589 -2.3764  0.5938
18531TIP3   OH277083   3.360   6.570  17.143 -0.0354  0.7986  0.5921
18531TIP3    H177084   3.423   6.513  17.100  0.9263  1.4835  1.0435
18531TIP3    H277085   3.317   6.514  17.207 -1.5543 -0.2529 -1.2501
18532TIP3   OH277086   3.857   4.344  17.161 -0.5698  0.3199 -0.1149
18532TIP3    H177087   3.793   4.350  17.232 -0.7423 -1.3262 -0.0816
18532TIP3    H277088   3.872   4.250  17.150  3.3763  0.5845  1.2441
18533TIP3   OH277089   5.396   1.401  14.593 -0.5035  0.0632 -0.2535
18533TIP3    H177090   5.449   1.395  14.514  0.7580  0.5840  0.5220
18533TIP3    H277091   5.443   1.347  14.657 -1.3632 -0.1363  0.2255
18534TIP3   OH277092   3.563   6.524   6.659  0.4942 -0.1859 -0.3640
18534TIP3    H177093   3.579   6.615   6.683  0.1212 -0.4188  0.8151
18534TIP3    H277094   3.527   6.484   6.738 -1.8265 -0.7424 -1.6109
18535TIP3   OH277095   5.587   3.051   0.090  0.3123  0.3388  0.1372
18535TIP3    H177096   5.570   3.085   0.178  0.6292 -1.8215  1.1075
18535TIP3    H277097   5.544   2.965   0.089  1.4206 -0.2441 -1.3688
18536TIP3   OH277098   3.002   6.741  17.244 -0.0731  0.1686 -0.8126
18536TIP3    H177099   2.995   6.655  17.201  3.0541  0.8777 -3.0537
18536TIP3    H277100   2.956   6.801  17.186 -1.3552  0.2106  0.2159
18537TIP3   OH277101   2.596   0.928  12.493  0.6553 -0.2254 -0.5254
18537TIP3    H177102   2.607   1.011  12.540  0.9859 -1.0847  0.9926
18537TIP3    H277103   2.680   0.916  12.448  0.8425 -0.0367 -0.2362
18538TIP3   OH277104   4.868   5.443   4.248  0.3029  0.2891 -0.1012
18538TIP3    H177105   4.801   5.489   4.299 -1.9080 -1.4956 -1.2023
18538TIP3    H277106   4.912   5.386   4.310  0.7655  1.3830  0.6091
18539TIP3   OH277107   2.515   4.559   3.926  0.2731 -0.0200 -0.0185
18539TIP3    H177108   2.453   4.628   3.949  0.8662  0.6732 -0.4615
18539TIP3    H277109   2.583   4.564   3.994  1.0220  0.7514 -0.7927
18540TIP3   OH277110   2.720   4.615   4.100  0.0854  0.9443 -0.4358
18540TIP3    H177111   2.719   4.584   4.190 -1.7481  1.4820 -0.2256
18540TIP3    H277112   2.805   4.587   4.066 -0.9942 -3.5601 -0.0341
18541TIP3   OH277113   1.750   1.696  15.487  0.2371  0.3533  0.0200
18541TIP3    H177114   1.762   1.791  15.481 -3.1830  0.8879 -0.3370
18541TIP3    H277115   1.691   1.684  15.562  1.7289 -1.6603  0.9538
18542TIP3   OH277116   0.360   2.189  15.009 -0.0250  0.4544  0.4423
18542TIP3    H177117   0.381   2.173  14.917 -0.3140  0.8862  0.2980
18542TIP3    H277118   0.428   2.141  15.058 -0.8438 -1.1733  0.0460
18543TIP3   OH277119   2.038   0.575  11.668  0.4496 -0.7057  0.1882
18543TIP3    H177120   1.982   0.642  11.707  0.7666 -0.0846 -0.4036
18543TIP3    H277121   1.982   0.498  11.662 -0.0503 -0.3730  0.4866
18544TIP3   OH277122   5.009   1.051   1.347  0.6796 -0.1706 -0.3588
18544TIP3    H177123   5.027   1.144   1.334  0.8177 -0.4941 -2.8857
18544TIP3    H277124   4.914   1.047   1.364  0.8792  0.4938  1.0940
18545TIP3   OH277125   0.436   1.777  17.211 -0.3519  0.1266  0.4670
18545TIP3    H177126   0.441   1.863  17.168  1.1736  0.3460  1.0310
18545TIP3    H277127   0.506   1.726  17.171 -0.3689 -0.4107  1.1109
18546TIP3   OH277128   2.961   2.813   1.293 -0.3001  0.1689  0.2421
18546TIP3    H177129   2.954   2.844   1.384 -1.9591  0.2717  0.1201
18546TIP3    H277130   2.983   2.720   1.301  0.5964  0.4132  0.7183
18547TIP3   OH277131   3.657   6.022  12.980  0.5459  0.7680 -0.1899
18547TIP3    H177132   3.741   6.044  13.019  1.4947  0.2477 -1.8230
18547TIP3    H277133   3.678   5.958  12.911 -1.4047 -0.7545  0.5223
18548TIP3   OH277134   1.733   5.704  11.942 -0.6866 -0.3729 -0.1235
18548TIP3    H177135   1.687   5.778  11.902 -1.3692  0.1716  1.6117
18548TIP3    H277136   1.716   5.712  12.035 -0.3150 -2.4238  0.1656
18549TIP3   OH277137   3.969   6.313  13.075  0.4266  0.3528 -0.2013
18549TIP3    H177138   3.911   6.311  12.999  1.4087 -1.4892 -0.9738
18549TIP3    H277139   3.936   6.243  13.132  0.7418  0.5737  0.2617
18550TIP3   OH277140   3.161   1.809  15.929 -0.0127 -0.0736 -0.3941
18550TIP3    H177141   3.118   1.869  15.990  0.1441 -0.6370  0.2914
18550TIP3    H277142   3.243   1.786  15.973 -0.7684 -2.0038  0.1030
18551TIP3   OH277143   1.246   1.687  15.462  0.2211 -0.0371 -0.6368
18551TIP3    H177144   1.181   1.742  15.505  1.9039  0.1952  1.8614
18551TIP3    H277145   1.261   1.615  15.524  2.2944 -0.0626 -1.0859
18552TIP3   OH277146   3.987   4.918   5.769 -0.3180 -0.1814 -0.2793
18552TIP3    H177147   3.892   4.923   5.779 -0.2746 -0.5609  0.4144
18552TIP3    H277148   4.021   4.961   5.848  0.0772 -1.6224  0.3603
18553TIP3   OH277149   6.641   5.975  15.379  0.2380  0.7822 -0.5265
18553TIP3    H177150   6.703   6.013  15.441 -0.3410  1.2156 -0.1951
18553TIP3    H277151   6.555   6.001  15.412 -0.0855  1.0203 -1.5000
18554TIP3   OH277152   1.177   6.145  11.530 -0.5913  0.7470  0.1004
18554TIP3    H177153   1.177   6.097  11.613 -0.3896  2.5147  1.1947
18554TIP3    H277154   1.191   6.236  11.556  0.2461  1.2567 -1.9591
18555TIP3   OH277155   5.447   3.563  16.057  0.2003 -0.1535 -0.2545
18555TIP3    H177156   5.453   3.625  16.129 -1.7579  0.0340 -0.2219
18555TIP3    H277157   5.415   3.614  15.983 -2.1161 -1.1672 -0.0544
18556TIP3   OH277158   1.632   5.488   6.388  0.1042  0.1474  0.2456
18556TIP3    H177159   1.595   5.520   6.306  1.1853  2.8192  0.6960
18556TIP3    H277160   1.580   5.529   6.456 -0.8209 -2.0885  0.9965
18557TIP3   OH277161   0.850   5.563  11.645 -0.0575 -0.1350 -0.5952
18557TIP3    H177162   0.762   5.578  11.680 -0.0481 -2.3228  0.4902
18557TIP3    H277163   0.837   5.503  11.572  0.5202 -0.2125 -0.6382
18558TIP3   OH277164   4.386   0.139  15.860  0.1438  0.6655 -0.1251
18558TIP3    H177165   4.409   0.132  15.768 -2.7860 -3.3465 -0.8538
18558TIP3    H277166   4.399   0.050  15.895 -1.2386  1.4149  2.6503
18559TIP3   OH277167   4.992   4.124   0.509 -0.4619 -0.0451 -0.3531
18559TIP3    H177168   4.912   4.177   0.503 -0.1185  0.6101  0.6043
18559TIP3    H277169   5.017   4.129   0.601 -1.5241 -3.5814  0.2487
18560TIP3   OH277170   6.587   4.057  13.702  0.0983 -0.4014 -0.7449
18560TIP3    H177171   6.588   4.153  13.710 -2.2630 -0.4735  2.1165
18560TIP3    H277172   6.626   4.026  13.784  1.0624 -1.9459 -1.7363
18561TIP3   OH277173   4.170   1.435   5.731  0.2695 -0.1003 -0.0700
18561TIP3    H177174   4.185   1.359   5.787 -1.3836  1.1021  2.1443
18561TIP3    H277175   4.206   1.509   5.780 -0.4924  0.8922 -0.9507
18562TIP3   OH277176   2.212   2.878  13.116  0.3696  0.1829  0.1014
18562TIP3    H177177   2.209   2.789  13.082  0.0316 -0.0875  0.8217
18562TIP3    H277178   2.123   2.897  13.143  0.7558  0.1008  1.5240
18563TIP3   OH277179   0.149   6.093   2.790  0.3777  0.1408  0.8334
18563TIP3    H177180   0.144   6.189   2.797 -1.3187  0.0412  1.5002
18563TIP3    H277181   0.058   6.065   2.777  1.0457 -1.2711 -1.4917
18564TIP3   OH277182   5.435   5.242   2.888  0.0147  0.4865 -0.3625
18564TIP3    H177183   5.520   5.208   2.917 -0.3793  0.6300  1.0211
18564TIP3    H277184   5.385   5.164   2.865 -0.6171  0.1189  2.0535
18565TIP3   OH277185   4.319   5.295   1.906 -0.1020  0.4609 -0.0847
18565TIP3    H177186   4.381   5.228   1.935 -0.3587  0.5168  0.6078
18565TIP3    H277187   4.235   5.249   1.903 -0.0938  0.4765 -0.6727
18566TIP3   OH277188   4.237   1.390   0.880  0.0791 -0.2356 -0.1544
18566TIP3    H177189   4.269   1.305   0.850  0.0386  0.0251 -0.9414
18566TIP3    H277190   4.160   1.369   0.933  0.9177 -0.7950  0.9014
18567TIP3   OH277191   2.598   2.291   3.112 -0.4771  0.2455 -0.0912
18567TIP3    H177192   2.653   2.294   3.190 -0.4275 -1.0741 -0.0611
18567TIP3    H277193   2.526   2.351   3.131 -1.2662 -1.1479  1.6101
18568TIP3   OH277194   4.129   0.313   6.507 -0.2498  0.0130  0.4502
18568TIP3    H177195   4.081   0.306   6.589  1.0727  1.6945  1.4276
18568TIP3    H277196   4.156   0.223   6.487 -2.7162 -0.8093  0.4576
18569TIP3   OH277197   5.577   4.863   3.386  0.3833 -0.0807 -0.1863
18569TIP3    H177198   5.661   4.882   3.429 -0.0162  1.6914 -0.1156
18569TIP3    H277199   5.595   4.785   3.334  1.8018 -0.3230  0.5905
18570TIP3   OH277200   6.208   3.700  12.189  0.5036 -0.1281 -0.0321
18570TIP3    H177201   6.223   3.623  12.133  0.0386 -0.3910  0.2006
18570TIP3    H277202   6.288   3.751  12.180  1.8798 -1.8191  1.6968
18571TIP3   OH277203   3.681   6.402   0.082  0.8169  0.4234  0.2431
18571TIP3    H177204   3.720   6.458   0.150 -1.2272  0.9305  1.0856
18571TIP3    H277205   3.746   6.334   0.067  1.7196  0.8065  2.0806
18572TIP3   OH277206   6.164   1.388   3.711  0.4443 -0.4009 -0.7968
18572TIP3    H177207   6.086   1.427   3.672  0.7790  2.0132  0.7065
18572TIP3    H277208   6.134   1.353   3.795  0.5419 -1.6520 -1.2689
18573TIP3   OH277209   4.436   5.469  15.283  0.8287  0.1841 -0.0228
18573TIP3    H177210   4.389   5.523  15.346  0.4448 -1.0759  0.8029
18573TIP3    H277211   4.367   5.418  15.240  1.2997 -0.6221  0.1691
18574TIP3   OH277212   3.485   3.389  16.166 -0.5939 -0.1325  0.2174
18574TIP3    H177213   3.432   3.392  16.087 -2.3666 -0.9016  1.3201
18574TIP3    H277214   3.427   3.418  16.236  0.5265 -0.7159  1.4449
18575TIP3   OH277215   1.947   1.662  15.307 -0.0818 -0.6303 -0.2734
18575TIP3    H177216   1.895   1.664  15.387  0.7536  1.0426  0.2767
18575TIP3    H277217   2.035   1.684  15.335 -0.0721  1.6388 -1.8372
18576TIP3   OH277218   4.381   5.447   4.709 -0.0911  0.2028  0.3887
18576TIP3    H177219   4.350   5.363   4.676  0.2313 -0.3012  1.3324
18576TIP3    H277220   4.469   5.456   4.674  0.2155 -0.2894  0.9957
18577TIP3   OH277221   3.614   6.573  16.048 -0.2821  1.1516  0.0286
18577TIP3    H177222   3.632   6.666  16.064 -0.5385  1.0584  0.9265
18577TIP3    H277223   3.699   6.531  16.051 -0.3380  1.0883  1.6269
18578TIP3   OH277224   5.497   2.032  17.268  0.0158  0.6181  0.2598
18578TIP3    H177225   5.511   2.093  17.341 -0.1603  1.8203 -0.6854
18578TIP3    H277226   5.502   2.087  17.190 -1.6528 -0.3039 -0.5483
18579TIP3   OH277227   6.567   5.340   1.604  0.2010 -0.0846 -0.1966
18579TIP3    H177228   6.533   5.266   1.555  1.9406 -0.5938 -0.7193
18579TIP3    H277229   6.507   5.412   1.585 -1.0057 -1.1121 -0.4001
18580TIP3   OH277230   5.975   3.216  12.986 -0.2635  0.1365 -0.1381
18580TIP3    H177231   5.957   3.265  12.906  1.5603  0.6894 -0.2395
18580TIP3    H277232   6.068   3.195  12.981 -0.6743 -2.1312  0.5892
18581TIP3   OH277233   1.651   3.521   3.101  0.0208  0.1414  0.0386
18581TIP3    H177234   1.697   3.461   3.043  0.8839  1.6589 -0.9066
18581TIP3    H277235   1.612   3.587   3.043  1.1261  1.8530  1.1471
18582TIP3   OH277236   2.010   0.203   1.228  0.2947 -0.0825  0.3805
18582TIP3    H177237   2.024   0.135   1.295 -2.0353  1.9336  3.2005
18582TIP3    H277238   1.915   0.207   1.218  0.4843  1.4163 -1.2053
18583TIP3   OH277239   2.070   1.978  12.269  0.0460  0.8254  0.2572
18583TIP3    H177240   2.021   2.037  12.211  0.2064 -1.2605 -2.1643
18583TIP3    H277241   2.023   1.895  12.263  2.6993 -0.7340 -0.6351
18584TIP3   OH277242   2.622   4.804   0.635  0.0639  0.1147 -0.2980
18584TIP3    H177243   2.556   4.742   0.605 -0.1588 -0.7499  1.7997
18584TIP3    H277244   2.706   4.759   0.618 -0.0941 -0.7750  1.1646
18585TIP3   OH277245   1.387   3.838  15.001 -0.0540 -0.4038  0.2365
18585TIP3    H177246   1.429   3.867  15.082  1.1127  1.1334 -0.8598
18585TIP3    H277247   1.425   3.752  14.983  1.8439  0.4612 -0.1166
18586TIP3   OH277248   5.876   1.232  13.097  0.1909  0.0800 -0.0020
18586TIP3    H177249   5.871   1.137  13.096  0.1062 -0.0959  3.7730
18586TIP3    H277250   5.900   1.256  13.008 -1.3841 -3.3202 -1.4949
18587TIP3   OH277251   0.523   0.255   6.042  0.2782 -0.2929 -0.3607
18587TIP3    H177252   0.499   0.210   6.123 -1.8471  0.1574 -0.6576
18587TIP3    H277253   0.490   0.198   5.973  0.1433  0.3342 -0.8206
18588TIP3   OH277254   2.564   2.515  13.630 -0.3587 -0.8173  0.2124
18588TIP3    H177255   2.585   2.542  13.541  2.0700 -1.5977  0.4866
18588TIP3    H277256   2.471   2.538  13.641 -0.2389  0.9647 -1.8698
18589TIP3   OH277257   4.218   3.898   5.294 -0.0071  0.3339 -0.5993
18589TIP3    H177258   4.313   3.909   5.297  0.2966 -0.9223 -3.0841
18589TIP3    H277259   4.204   3.805   5.315 -0.7489  0.6728  0.4309
18590TIP3   OH277260   5.299   3.516  14.304  0.4787  0.1877 -0.1419
18590TIP3    H177261   5.254   3.433  14.315 -1.3514  1.0779 -0.5572
18590TIP3    H277262   5.368   3.515  14.372 -0.3355 -1.1084  0.7044
18591TIP3   OH277263   2.364   5.721  14.243 -0.3904  0.6012  0.1807
18591TIP3    H177264   2.434   5.687  14.298 -0.1301 -0.1261 -0.5909
18591TIP3    H277265   2.388   5.813  14.228  1.5421 -0.1519 -1.8054
18592TIP3   OH277266   3.029   0.110  13.903 -0.3486  0.1944  0.1468
18592TIP3    H177267   2.984   0.067  13.831 -1.3109 -1.1637  1.4882
18592TIP3    H277268   2.989   0.197  13.908 -2.3080 -0.6867  0.7736
18593TIP3   OH277269   0.403   6.531   4.402  0.5392 -0.4566 -1.0199
18593TIP3    H177270   0.444   6.531   4.316 -1.8383 -1.5979 -2.2740
18593TIP3    H277271   0.415   6.441   4.434  1.0690 -0.1441 -0.3178
18594TIP3   OH277272   4.745   2.343  14.187  0.7285 -0.1251  0.3074
18594TIP3    H177273   4.785   2.258  14.204 -0.5921 -0.4785  1.8030
18594TIP3    H277274   4.808   2.406  14.221  0.5962 -0.6294  1.5420
18595TIP3   OH277275   6.699   3.604   5.479  0.0625 -0.0057 -0.2044
18595TIP3    H177276   6.770   3.565   5.428 -0.1836 -1.6068  0.6010
18595TIP3    H277277   6.620   3.587   5.428 -0.1213 -1.1600  0.4328
18596TIP3   OH277278   2.391   6.453   0.769  0.1350  0.6582 -0.1933
18596TIP3    H177279   2.398   6.402   0.849 -1.5471 -0.6800 -0.8355
18596TIP3    H277280   2.339   6.398   0.710  2.4101  0.9908 -2.6978
18597TIP3   OH277281   1.886   6.410   4.068 -0.0384  0.1173 -0.6558
18597TIP3    H177282   1.817   6.344   4.057 -0.4425  0.5731 -0.8674
18597TIP3    H277283   1.895   6.419   4.163  1.1545 -1.4125 -0.5778
18598TIP3   OH277284   3.371   2.977   3.278 -0.3423  0.2161 -0.3280
18598TIP3    H177285   3.403   2.890   3.305  0.2846  0.1723 -1.1705
18598TIP3    H277286   3.403   3.036   3.346 -1.2240 -0.2717  0.5399
18599TIP3   OH277287   2.441   0.451  12.510  0.4296  0.1110  0.1337
18599TIP3    H177288   2.453   0.485  12.421 -1.1216  0.8822  0.1989
18599TIP3    H277289   2.526   0.411  12.531  0.7792 -0.2299 -1.7324
18600TIP3   OH277290   1.702   0.210   0.783  0.5216  0.0865 -0.1227
18600TIP3    H177291   1.683   0.122   0.817 -2.1096  0.8430  0.5607
18600TIP3    H277292   1.738   0.257   0.858 -1.4363  0.5668  0.5732
18601TIP3   OH277293   5.185   5.149  17.480 -0.3381 -0.5637 -0.9022
18601TIP3    H177294   5.250   5.088  17.446  0.4810 -2.0854  2.8465
18601TIP3    H277295   5.107   5.095  17.494 -1.3572  0.4911 -2.2886
18602TIP3   OH277296   1.101   0.229  10.630 -0.3217 -0.3250 -0.0325
18602TIP3    H177297   1.081   0.195  10.543 -0.2771 -0.6985  0.1041
18602TIP3    H277298   1.016   0.257  10.664 -0.4769 -1.0349  0.1694
18603TIP3   OH277299   5.613   0.590  17.099  0.0810 -0.6310  0.1626
18603TIP3    H177300   5.545   0.538  17.057 -0.0954 -2.5640  2.6068
18603TIP3    H277301   5.695   0.557  17.063 -0.0923 -1.8271  0.8327
18604TIP3   OH277302   6.767   4.465  12.160  0.8678  0.1545 -0.1238
18604TIP3    H177303   6.744   4.373  12.152  0.8043  0.1672 -0.0856
18604TIP3    H277304   6.862   4.465  12.171  0.7301  0.0144  1.2394
18605TIP3   OH277305   5.060   0.328  17.275  0.8622 -0.0425 -0.3208
18605TIP3    H177306   4.985   0.386  17.286  1.9792  1.1973  1.3646
18605TIP3    H277307   5.047   0.287  17.190  0.2536  3.0723 -1.8644
18606TIP3   OH277308   5.302   5.771   1.825 -0.4114 -0.8576 -0.3867
18606TIP3    H177309   5.367   5.739   1.888 -0.8050 -0.4573  0.2359
18606TIP3    H277310   5.276   5.694   1.775 -0.7129 -1.3374  0.5033
18607TIP3   OH277311   4.465   6.260   5.472 -0.0474  0.0368  0.0094
18607TIP3    H177312   4.445   6.179   5.425 -0.6952  0.1089  0.1493
18607TIP3    H277313   4.519   6.232   5.546 -1.8053 -0.5275  1.1175
18608TIP3   OH277314   2.396   0.855   4.739 -0.0627 -0.3693  0.6832
18608TIP3    H177315   2.372   0.932   4.791 -0.9914 -0.0712 -0.1612
18608TIP3    H277316   2.380   0.781   4.797 -2.3462 -0.1288  0.4456
18609TIP3   OH277317   2.279   3.211   3.806 -0.3988  0.1533 -0.3149
18609TIP3    H177318   2.277   3.142   3.740  0.5622 -1.1118  0.9380
18609TIP3    H277319   2.196   3.204   3.852 -0.6775  0.4316 -0.7669
18610TIP3   OH277320   0.366   1.231   3.213  0.4540  0.2256 -0.3219
18610TIP3    H177321   0.322   1.227   3.128 -0.4125  0.4119  0.1074
18610TIP3    H277322   0.301   1.199   3.276  1.0207  0.2598  0.2973
18611TIP3   OH277323   0.209   1.445  15.898  0.8498  0.7193  0.0448
18611TIP3    H177324   0.144   1.485  15.840  1.0357  0.6479 -0.2103
18611TIP3    H277325   0.178   1.467  15.986 -1.0567 -1.6127  0.0542
18612TIP3   OH277326   1.775   0.310  14.395  0.1672  0.5783 -0.0449
18612TIP3    H177327   1.708   0.375  14.415 -0.6394  0.4997 -2.2187
18612TIP3    H277328   1.857   0.353  14.417 -0.4193  1.8984 -0.3141
18613TIP3   OH277329   3.395   1.990  11.118 -0.3559  0.3805  0.1490
18613TIP3    H177330   3.314   2.023  11.079 -0.4949 -0.0575  0.0666
18613TIP3    H277331   3.393   1.896  11.104 -0.0064  0.3180  0.4743
18614TIP3   OH277332   5.059   6.357   4.428 -0.2277  0.3766  0.3888
18614TIP3    H177333   5.132   6.370   4.367 -0.3213 -1.3628 -0.1776
18614TIP3    H277334   4.984   6.340   4.371 -0.3793 -0.9903  0.9428
18615TIP3   OH277335   5.978   4.166   1.206 -0.8614 -0.0699 -0.5273
18615TIP3    H177336   5.979   4.077   1.243  1.3013 -0.2451 -0.8588
18615TIP3    H277337   5.985   4.152   1.112 -1.1682  0.4501 -0.6253
18616TIP3   OH277338   4.367   1.803  15.846  0.5879  0.0494  0.1845
18616TIP3    H177339   4.387   1.719  15.888  1.4285  0.0984 -0.0926
18616TIP3    H277340   4.272   1.809  15.849  0.5000 -0.9948  0.0792
18617TIP3   OH277341   1.795   3.159   5.675  0.2012  0.3732  0.2523
18617TIP3    H177342   1.738   3.194   5.607 -0.0811 -0.0794  0.2506
18617TIP3    H277343   1.753   3.077   5.702  1.1918 -0.3147 -0.2291
18618TIP3   OH277344   2.812   0.289  16.530  0.2557  0.0252 -0.4256
18618TIP3    H177345   2.898   0.251  16.511  1.0283  2.8967 -3.7491
18618TIP3    H277346   2.750   0.217  16.518  2.0387 -1.7011  0.3055
18619TIP3   OH277347   0.896   2.194  12.948  0.0719  0.0666  0.3181
18619TIP3    H177348   0.938   2.190  12.862 -0.6372 -0.7071 -0.0089
18619TIP3    H277349   0.955   2.145  13.006  0.9896  1.3215  0.4817
18620TIP3   OH277350   3.895   5.905   5.704  0.4928 -0.4264  0.0618
18620TIP3    H177351   3.813   5.954   5.709  1.6735  1.6123  1.2891
18620TIP3    H277352   3.887   5.837   5.771 -0.4166 -0.6544 -0.2686
18621TIP3   OH277353   6.073   1.896   3.001  0.8939  0.0598 -0.8796
18621TIP3    H177354   6.056   1.805   2.980 -0.8192  0.3774 -1.0513
18621TIP3    H277355   6.128   1.893   3.079 -0.1092 -1.1278 -0.1833
18622TIP3   OH277356   5.422   2.972   3.932  0.2795 -0.3197 -0.1087
18622TIP3    H177357   5.505   2.977   3.885  0.1913  1.4446 -0.1276
18622TIP3    H277358   5.427   3.041   3.998 -0.4243 -1.4357  1.1708
18623TIP3   OH277359   4.529   2.100  15.329  0.2971  0.4334 -0.6466
18623TIP3    H177360   4.434   2.085  15.330  0.4444 -0.5437  0.3244
18623TIP3    H277361   4.542   2.173  15.390  0.2451  0.0093 -0.1206
18624TIP3   OH277362   1.481   1.965  15.658 -0.2488 -0.2411  0.0398
18624TIP3    H177363   1.563   2.014  15.652 -0.3999 -0.0578 -0.6737
18624TIP3    H277364   1.461   1.941  15.567 -2.0539  1.4869 -0.0720
18625TIP3   OH277365   1.482   1.039   0.509  0.0382  0.2890 -0.5085
18625TIP3    H177366   1.563   0.990   0.523  0.3495  1.0179  0.2919
18625TIP3    H277367   1.432   1.026   0.590  0.4644  1.9028  0.0584
18626TIP3   OH277368   5.466   6.386   4.016  0.2683 -0.2689 -0.1003
18626TIP3    H177369   5.524   6.430   4.078  0.7264 -1.8537  0.6546
18626TIP3    H277370   5.400   6.452   3.993  0.6887  0.6644  1.2762
18627TIP3   OH277371   3.099   6.352   4.141 -0.4456 -0.5463 -0.5533
18627TIP3    H177372   3.119   6.288   4.210  0.0568 -0.4317 -0.5849
18627TIP3    H277373   3.020   6.319   4.100  1.3635 -2.8125 -2.5114
18628TIP3   OH277374   0.921   4.308  15.547  0.1767 -0.8893  0.2709
18628TIP3    H177375   0.909   4.392  15.592  1.6977 -0.4562 -0.0811
18628TIP3    H277376   0.953   4.249  15.614 -0.2764 -1.0203  0.3744
18629TIP3   OH277377   1.966   3.996   4.432  0.5844  0.4495  0.4388
18629TIP3    H177378   1.999   3.907   4.415  0.1011  0.3437  0.0021
18629TIP3    H277379   1.910   4.015   4.356  0.1610  0.8705  0.8481
18630TIP3   OH277380   1.241   3.012  16.082 -0.0036  0.1134  0.0193
18630TIP3    H177381   1.227   3.093  16.033  0.2105  0.3077  0.2711
18630TIP3    H277382   1.289   2.956  16.022  1.6503  0.9271  0.5127
18631TIP3   OH277383   4.765   6.048   2.827  0.4418 -0.0831  0.7016
18631TIP3    H177384   4.858   6.030   2.817  0.8657  2.5953 -1.3453
18631TIP3    H277385   4.761   6.126   2.883 -0.5920 -0.3968  1.0877
18632TIP3   OH277386   3.571   1.913  13.103 -0.3172  0.3172  0.1990
18632TIP3    H177387   3.559   1.985  13.040  0.9029  0.0797 -0.3401
18632TIP3    H277388   3.655   1.932  13.145 -0.6448 -0.0713  1.0402
18633TIP3   OH277389   5.872   5.556  14.009 -0.2641  1.3495  0.3862
18633TIP3    H177390   5.797   5.589  14.058 -0.0981  3.3551 -0.6326
18633TIP3    H277391   5.872   5.606  13.927  0.9527 -0.1109 -0.5749
18634TIP3   OH277392   5.399   1.400   3.457  0.0682 -0.2493 -0.2895
18634TIP3    H177393   5.333   1.410   3.525 -0.3807  1.2895 -0.9219
18634TIP3    H277394   5.467   1.462   3.480  0.6742 -0.8653 -0.3869
18635TIP3   OH277395   6.204   1.890   3.766  0.2726  0.4488  0.0370
18635TIP3    H177396   6.129   1.946   3.785  1.4498  2.1118 -0.0222
18635TIP3    H277397   6.184   1.808   3.811 -0.4908  1.6849  2.0799
18636TIP3   OH277398   3.563   2.430   4.744 -0.0674  0.3499  0.4285
18636TIP3    H177399   3.577   2.346   4.701  0.4323  0.4009  0.4852
18636TIP3    H277400   3.512   2.408   4.822  2.0983 -0.2641  1.7523
18637TIP3   OH277401   5.288   0.512   4.272  0.0797  0.1973 -0.1593
18637TIP3    H177402   5.308   0.558   4.191  0.7745  1.3772  0.6441
18637TIP3    H277403   5.236   0.437   4.245  1.2721 -0.0917 -1.8132
18638TIP3   OH277404   0.517   0.702  12.709  0.0378 -0.0259  0.1778
18638TIP3    H177405   0.505   0.797  12.715  0.3723 -0.0430  1.1407
18638TIP3    H277406   0.428   0.667  12.709 -0.0624  0.1737  1.9033
18639TIP3   OH277407   5.585   3.749  15.259  0.1525  0.3364 -0.9304
18639TIP3    H177408   5.503   3.771  15.302  0.0515 -0.0331 -0.9349
18639TIP3    H277409   5.574   3.659  15.229  1.1201 -0.2662  0.4120
18640TIP3   OH277410   3.554   3.142  12.171 -0.2488  0.3942 -0.6617
18640TIP3    H177411   3.560   3.046  12.172  0.0857  0.4175  0.3309
18640TIP3    H277412   3.537   3.164  12.079  0.2612 -0.5792 -1.0032
18641TIP3   OH277413   1.585   5.515  14.265 -0.5944  0.5361 -0.3805
18641TIP3    H177414   1.580   5.466  14.183  0.5723  2.4442 -1.6650
18641TIP3    H277415   1.523   5.587  14.254  2.6016  3.3396 -1.5056
18642TIP3   OH277416   0.537   2.046  14.444 -0.4552  0.3271  0.6199
18642TIP3    H177417   0.547   2.128  14.491  2.6740 -0.6814  2.0030
18642TIP3    H277418   0.518   1.981  14.511  0.1245 -0.5390 -0.0254
18643TIP3   OH277419   4.923   4.484  12.055 -0.6783 -0.0793  0.1202
18643TIP3    H177420   5.008   4.463  12.094 -0.5087  0.6207  0.1368
18643TIP3    H277421   4.867   4.409  12.078 -0.5781  0.2879  1.6895
18644TIP3   OH277422   0.364   1.331   4.546 -0.0625 -0.1560 -0.0055
18644TIP3    H177423   0.444   1.360   4.501  0.0575 -1.2818 -0.5541
18644TIP3    H277424   0.309   1.295   4.477  0.3530 -2.4367  0.7494
18645TIP3   OH277425   6.410   5.173   2.324 -0.0133  0.3314  0.1595
18645TIP3    H177426   6.384   5.092   2.367 -1.0144  1.2879  1.4734
18645TIP3    H277427   6.354   5.178   2.246 -0.1878 -0.0636  0.2600
18646TIP3   OH277428   3.368   5.834  16.996 -0.2709 -0.2216  0.4660
18646TIP3    H177429   3.448   5.785  17.013 -1.2458 -0.8635  4.0257
18646TIP3    H277430   3.299   5.768  16.995 -1.0014  0.5385 -0.2729
18647TIP3   OH277431   0.148   5.733   1.356 -0.0883 -0.0403 -0.0761
18647TIP3    H177432   0.215   5.681   1.312 -0.0849  1.0521 -1.4167
18647TIP3    H277433   0.101   5.778   1.286 -1.7042 -0.1359  0.8900
18648TIP3   OH277434   3.867   0.568   1.433 -0.1380  0.0638 -0.5395
18648TIP3    H177435   3.944   0.524   1.398 -1.4086 -1.2852 -1.7586
18648TIP3    H277436   3.872   0.553   1.528  1.1819  0.2099 -0.5621
18649TIP3   OH277437   5.797   5.138   3.601  0.2891 -0.4670  0.1319
18649TIP3    H177438   5.711   5.170   3.574  0.1569  0.3172  1.3899
18649TIP3    H277439   5.798   5.046   3.574 -1.1141 -0.5995  0.4461
18650TIP3   OH277440   6.005   5.327   4.271 -0.0265 -0.3284  0.5619
18650TIP3    H177441   5.993   5.420   4.290  3.0700  0.1469  0.6356
18650TIP3    H277442   5.959   5.314   4.188  0.5095  1.6043 -0.0954
18651TIP3   OH277443   1.649   5.158   4.237 -0.0434 -0.2833  0.0669
18651TIP3    H177444   1.694   5.086   4.282 -1.1143 -0.9847  0.0410
18651TIP3    H277445   1.717   5.224   4.225  0.8686 -1.1226  0.4453
18652TIP3   OH277446   2.076   5.576   5.427 -0.5884 -0.2640 -0.1161
18652TIP3    H177447   2.126   5.547   5.351 -2.4596  1.7383 -2.2612
18652TIP3    H277448   2.118   5.657   5.455 -0.9206 -0.0860 -0.1234
18653TIP3   OH277449   4.453   1.609   6.094  0.3844  0.5346  0.2712
18653TIP3    H177450   4.474   1.667   6.020  0.7192  1.1891  0.8571
18653TIP3    H277451   4.523   1.544   6.093  0.4475  0.6024  0.0794
18654TIP3   OH277452   3.844   0.581   1.007  0.2981  0.3268  0.3184
18654TIP3    H177453   3.825   0.639   1.081  0.2552 -0.5841  1.0346
18654TIP3    H277454   3.933   0.604   0.980  0.0153  1.2267  0.1136
18655TIP3   OH277455   1.276   0.312  15.229  0.2219 -0.8005 -0.0524
18655TIP3    H177456   1.325   0.393  15.227 -0.9786 -0.0446 -0.1395
18655TIP3    H277457   1.320   0.258  15.295  0.3906  0.3582  0.8140
18656TIP3   OH277458   3.291   5.288  13.046 -0.2508 -0.2981 -1.1403
18656TIP3    H177459   3.382   5.258  13.037 -0.3812 -0.9049 -0.4779
18656TIP3    H277460   3.296   5.382  13.028  0.5022 -0.3295 -1.1518
18657TIP3   OH277461   2.257   4.754   4.349 -0.5274 -0.1161  0.1756
18657TIP3    H177462   2.269   4.842   4.384  0.5061 -0.0283 -0.3473
18657TIP3    H277463   2.170   4.728   4.378 -0.9855  1.2022  0.0587
18658TIP3   OH277464   4.386   3.510  13.210 -0.0478 -0.2084  0.1385
18658TIP3    H177465   4.340   3.588  13.241 -2.2817 -2.0953  2.0119
18658TIP3    H277466   4.474   3.517  13.247 -0.4257  1.0639  0.8406
18659TIP3   OH277467   1.783   6.484  15.154 -0.0679  0.4771  0.7580
18659TIP3    H177468   1.739   6.497  15.238 -2.2687 -0.5009 -0.1561
18659TIP3    H277469   1.781   6.389  15.141  2.5918  0.3451  0.7288
18660TIP3   OH277470   6.438   0.053   0.243 -0.4422 -0.4341  0.5202
18660TIP3    H177471   6.343   0.050   0.234 -0.3507 -0.6860 -0.5537
18660TIP3    H277472   6.461   0.144   0.223 -0.3379 -0.7417 -0.9075
18661TIP3   OH277473   5.797   5.746   3.588  0.1911  0.1747  0.3978
18661TIP3    H177474   5.765   5.755   3.498 -1.3174 -1.1422  0.7525
18661TIP3    H277475   5.779   5.830   3.629 -2.4202 -0.3207  0.4148
18662TIP3   OH277476   2.000   0.428   3.360  0.1854  0.0413  0.1330
18662TIP3    H177477   2.027   0.362   3.424 -1.3650  0.3568  1.1700
18662TIP3    H277478   2.079   0.481   3.345  0.9147 -0.8410  0.7919
18663TIP3   OH277479   1.001   2.144   1.601 -0.8503  0.5856  0.4034
18663TIP3    H177480   1.042   2.075   1.548 -0.3795  0.9198  0.3209
18663TIP3    H277481   0.988   2.216   1.539 -1.9492  0.3485  0.3324
18664TIP3   OH277482   1.295   1.448   5.140 -0.3226 -0.1881  0.0615
18664TIP3    H177483   1.214   1.410   5.174 -1.4162  0.6273 -1.5281
18664TIP3    H277484   1.268   1.529   5.097  1.4865  0.6236  0.3512
18665TIP3   OH277485   3.775   6.694   3.357 -0.4062 -0.1215 -0.3680
18665TIP3    H177486   3.825   6.640   3.419  1.2633  0.8155 -0.8384
18665TIP3    H277487   3.684   6.667   3.370  0.0714 -1.0697  1.3623
18666TIP3   OH277488   3.846   4.050  11.912 -0.2072  0.0877  0.1232
18666TIP3    H177489   3.754   4.059  11.889  0.7289  1.1081 -4.0955
18666TIP3    H277490   3.875   4.139  11.931  0.2505  0.0139 -0.2137
18667TIP3   OH277491   3.969   4.990   4.409  0.1136  0.2203  0.1604
18667TIP3    H177492   4.025   5.058   4.373  1.2751 -1.0186 -0.4663
18667TIP3    H277493   4.030   4.925   4.445 -0.9814  0.2772  2.2428
18668TIP3   OH277494   1.636   6.432   1.364  0.6760 -0.0192  0.3528
18668TIP3    H177495   1.653   6.463   1.453 -2.4259  0.8354  0.7567
18668TIP3    H277496   1.665   6.341   1.365  1.8130  0.3179  1.8613
18669TIP3   OH277497   1.862   0.095  16.393  0.2007  0.1577  0.4082
18669TIP3    H177498   1.871   0.179  16.348 -0.1858 -0.9351 -1.8546
18669TIP3    H277499   1.949   0.054  16.385 -0.3516 -0.8242 -1.1290
18670TIP3   OH277500   4.997   1.025  11.510 -0.0546 -0.1876 -0.2921
18670TIP3    H177501   4.975   1.036  11.602 -1.3146 -1.5179 -0.3909
18670TIP3    H277502   5.018   0.932  11.502  2.5987  0.3961 -0.8666
18671TIP3   OH277503   5.223   5.337  10.620  0.1149 -0.3004 -0.4152
18671TIP3    H177504   5.261   5.418  10.586  1.8632 -0.3186  1.2612
18671TIP3    H277505   5.291   5.271  10.607 -0.0719 -0.7961  0.9013
18672TIP3   OH277506   1.389   1.466   1.944 -0.1640 -0.2626  0.0388
18672TIP3    H177507   1.309   1.422   1.972  0.3529 -0.0059  2.0793
18672TIP3    H277508   1.408   1.429   1.858 -1.4544 -1.6858  0.3186
18673TIP3   OH277509   0.555   6.304  10.705  0.1430  0.6270 -0.0694
18673TIP3    H177510   0.648   6.301  10.685 -0.3506 -0.8503 -2.5349
18673TIP3    H277511   0.521   6.376  10.651 -0.4075 -0.0116 -0.5878
18674TIP3   OH277512   5.719   0.734   3.838 -0.4152  0.0600 -0.2101
18674TIP3    H177513   5.688   0.644   3.829 -0.2146 -0.0975  0.5836
18674TIP3    H277514   5.814   0.727   3.844 -0.4828  0.1301  1.6956
18675TIP3   OH277515   0.386   0.543   3.751 -0.3919 -0.4860  0.3991
18675TIP3    H177516   0.401   0.630   3.788  0.7850 -0.5562  0.1248
18675TIP3    H277517   0.353   0.491   3.825 -0.1837 -0.0529  0.8030
18676TIP3   OH277518   3.545   2.761   2.917  0.1610  0.2631  0.2554
18676TIP3    H177519   3.488   2.828   2.955 -0.5258  0.0341 -0.3511
18676TIP3    H277520   3.491   2.683   2.915  0.5504  0.0050 -0.1961
18677TIP3   OH277521   4.230   3.205   2.247 -0.3878 -0.3270  0.2318
18677TIP3    H177522   4.174   3.154   2.306  0.3457 -1.3691  0.0671
18677TIP3    H277523   4.254   3.143   2.178 -1.4489  0.9530 -1.3364
18678TIP3   OH277524   2.785   0.637   0.923  0.1406 -0.1360 -0.3052
18678TIP3    H177525   2.715   0.580   0.956 -0.4672  0.5099 -0.4433
18678TIP3    H277526   2.835   0.661   1.001 -0.1886 -0.0811 -0.1094
18679TIP3   OH277527   5.378   2.479   1.246  0.1499  0.2816  0.2868
18679TIP3    H177528   5.393   2.546   1.179 -1.6615 -0.0323 -0.4804
18679TIP3    H277529   5.458   2.427   1.246  0.1879  0.2779 -1.6539
18680TIP3   OH277530   1.850   3.998   2.346 -0.0887  0.4670 -0.1461
18680TIP3    H177531   1.929   3.947   2.324  0.7820  1.7069 -0.0150
18680TIP3    H277532   1.809   3.948   2.416  1.4207  0.5475  0.8496
18681TIP3   OH277533   0.509   0.091  17.265  0.7839 -0.1225  0.0428
18681TIP3    H177534   0.595   0.076  17.227  0.0540 -2.9597 -0.6719
18681TIP3    H277535   0.448   0.084  17.191 -0.1648  0.7312  0.7133
18682TIP3   OH277536   4.414   0.213  11.998 -0.2136 -0.5241  0.3744
18682TIP3    H177537   4.360   0.134  12.004 -0.3674 -0.3652  1.1368
18682TIP3    H277538   4.392   0.250  11.912 -1.0205 -0.6794  0.5068
18683TIP3   OH277539   0.423   2.429   1.119 -0.4367  0.1430 -0.6786
18683TIP3    H177540   0.451   2.403   1.207  1.6069  0.1181 -1.2941
18683TIP3    H277541   0.376   2.512   1.133  1.5056  1.1581  0.2937
18684TIP3   OH277542   4.402   6.692  17.250  0.3393 -0.2119  0.4657
18684TIP3    H177543   4.479   6.638  17.268 -0.2901 -1.6521 -0.9226
18684TIP3    H277544   4.358   6.649  17.177 -1.4013  0.9815  0.7248
18685TIP3   OH277545   1.108   2.977   3.738 -0.1040  0.3422 -0.0809
18685TIP3    H177546   1.196   2.950   3.766  1.3187 -0.1243 -4.2231
18685TIP3    H277547   1.110   3.073   3.743  0.4657  0.3166  0.3133
18686TIP3   OH277548   0.842   5.748   0.682  0.0362  0.0183 -0.5516
18686TIP3    H177549   0.798   5.675   0.640 -1.6179  0.7094 -0.1035
18686TIP3    H277550   0.921   5.763   0.629 -0.3871 -1.0927 -1.5285
18687TIP3   OH277551   0.974   6.300  12.117 -0.1190 -0.0439 -0.6954
18687TIP3    H177552   0.918   6.224  12.135  2.9020 -2.1548  0.6272
18687TIP3    H277553   1.006   6.286  12.029  1.2670 -0.9360 -0.0730
18688TIP3   OH277554   3.530   3.185   5.030 -0.4514 -0.1864  0.3773
18688TIP3    H177555   3.568   3.273   5.023 -2.2982  0.6317 -0.0151
18688TIP3    H277556   3.485   3.172   4.947  0.5829 -1.9287  0.0586
18689TIP3   OH277557   1.443   3.814   3.667  0.0567 -0.0504  0.7296
18689TIP3    H177558   1.381   3.863   3.721 -0.2898 -1.2645  1.4954
18689TIP3    H277559   1.503   3.880   3.632 -3.1100  1.6046 -2.1762
18690TIP3   OH277560   4.622   5.668   0.248 -0.4753 -0.4121 -0.1493
18690TIP3    H177561   4.569   5.659   0.327  0.4993  0.1859  0.5970
18690TIP3    H277562   4.663   5.582   0.237  1.4951  0.2049  1.5914
18691TIP3   OH277563   0.227   1.682  16.611 -0.1802  0.4889  0.3275
18691TIP3    H177564   0.300   1.623  16.630  0.1879  0.7608 -0.2305
18691TIP3    H277565   0.166   1.668  16.683  0.1381 -0.1964  0.4718
18692TIP3   OH277566   6.305   4.433  16.252 -0.3765 -0.2331 -0.1231
18692TIP3    H177567   6.326   4.497  16.184  1.1784 -1.9696 -1.3735
18692TIP3    H277568   6.390   4.405  16.286 -1.0785 -0.3505  1.6865
18693TIP3   OH277569   2.185   4.563  15.616 -0.0014 -0.4279  0.2349
18693TIP3    H177570   2.157   4.473  15.633  2.0094 -0.9113  1.2908
18693TIP3    H277571   2.112   4.601  15.567 -1.2508 -2.3761  0.4350
18694TIP3   OH277572   6.030   3.455  17.067 -0.4699 -0.0260 -0.1858
18694TIP3    H177573   5.979   3.399  17.126 -2.0513  2.0431  0.5561
18694TIP3    H277574   5.968   3.480  16.998 -0.0178  1.2277 -0.1713
18695TIP3   OH277575   0.363   4.152   6.489 -0.0082 -0.2155  0.2032
18695TIP3    H177576   0.451   4.176   6.459  1.0010 -0.2377  2.9200
18695TIP3    H277577   0.305   4.208   6.437  1.6070  0.2543 -1.2156
18696TIP3   OH277578   1.250   1.964   2.063  0.2261 -0.4282 -0.2183
18696TIP3    H177579   1.310   1.892   2.046 -0.5179 -1.7127  2.1631
18696TIP3    H277580   1.306   2.036   2.091  0.9360 -0.1196 -2.2346
18697TIP3   OH277581   1.259   2.203   3.901  0.0086  0.6704  0.5474
18697TIP3    H177582   1.276   2.292   3.931  0.9144  0.6793  0.0293
18697TIP3    H277583   1.233   2.212   3.810 -0.7773  0.4725  0.7445
18698TIP3   OH277584   2.198   5.779  13.968  0.4148  0.2895  0.3051
18698TIP3    H177585   2.125   5.839  13.951  0.6720  0.3785 -0.5479
18698TIP3    H277586   2.164   5.717  14.033 -0.4161  0.3297 -0.0736
18699TIP3   OH277587   3.188   3.219   6.009  0.4091  0.0945 -0.1399
18699TIP3    H177588   3.204   3.312   5.994 -0.4082  0.3595  0.5284
18699TIP3    H277589   3.132   3.217   6.087  2.1733 -1.0526  1.1685
18700TIP3   OH277590   5.066   1.436   0.355 -0.2257  0.2984 -0.2741
18700TIP3    H177591   5.091   1.443   0.263  0.5616 -1.5351 -0.2441
18700TIP3    H277592   5.033   1.346   0.364 -1.0285  0.6967  1.0769
18701TIP3   OH277593   4.837   4.915  11.801  0.6786  0.2095 -0.5642
18701TIP3    H177594   4.890   4.950  11.873  0.7320  0.2555 -0.6262
18701TIP3    H277595   4.753   4.893  11.842  1.0463 -0.7156 -0.2622
18702TIP3   OH277596   6.377   2.104  16.515 -0.7274  0.1410 -0.2338
18702TIP3    H177597   6.338   2.017  16.518 -1.1850  0.3793  1.9473
18702TIP3    H277598   6.375   2.127  16.422  1.4046 -3.0052 -1.2361
18703TIP3   OH277599   3.176   4.118  16.107 -0.1134 -0.2142 -0.1918
18703TIP3    H177600   3.164   4.213  16.116 -2.0923 -0.3302 -1.0254
18703TIP3    H277601   3.246   4.097  16.169  0.8203  1.8614 -0.4334
18704TIP3   OH277602   0.974   1.141   5.286 -0.3806 -0.1373 -0.5005
18704TIP3    H177603   1.068   1.149   5.304 -0.2552  0.3649 -1.3500
18704TIP3    H277604   0.941   1.084   5.356  0.1415  1.4755  1.1229
18705TIP3   OH277605   1.059   5.766  14.878  0.0459  0.0184  0.1540
18705TIP3    H177606   0.965   5.777  14.864 -0.1701 -1.0661  0.6340
18705TIP3    H277607   1.081   5.828  14.947 -0.5835 -0.5945  0.9291
18706TIP3   OH277608   5.488   5.958  12.188 -0.5633  0.1079  0.1214
18706TIP3    H177609   5.495   6.001  12.273  0.9881  1.4184 -0.6115
18706TIP3    H277610   5.429   6.014  12.137 -0.7561 -0.1742  0.0282
18707TIP3   OH277611   1.065   5.185   6.394 -0.0553 -0.2138 -0.3035
18707TIP3    H177612   1.110   5.111   6.355  1.1065 -0.1521  0.8727
18707TIP3    H277613   1.134   5.249   6.412 -0.9611  0.9493 -0.8054
18708TIP3   OH277614   5.954   4.400  11.796 -0.2571  0.6403  0.2366
18708TIP3    H177615   5.975   4.486  11.758 -1.0162  0.8743  0.3271
18708TIP3    H277616   6.012   4.339  11.750 -0.6428  1.0217 -0.7961
18709TIP3   OH277617   2.236   1.060  11.862 -0.1922  0.4337  0.5343
18709TIP3    H177618   2.200   1.147  11.848 -1.3772 -0.3016 -1.4168
18709TIP3    H277619   2.302   1.049  11.793 -0.7199 -0.5316  0.1583
18710TIP3   OH277620   2.652   4.134   6.432  0.2848 -0.3142 -0.2740
18710TIP3    H177621   2.669   4.059   6.489  0.4972 -0.5310 -0.6240
18710TIP3    H277622   2.574   4.109   6.382  0.0068 -0.0616  0.0248
18711TIP3   OH277623   6.309   0.055  16.668  0.0519  0.3163  0.2376
18711TIP3    H177624   6.377   0.122  16.658 -0.7518  1.0526 -0.4448
18711TIP3    H277625   6.353  -0.027  16.644  0.8911  0.6797  0.5101
18712TIP3   OH277626   4.426   0.632   2.686  0.0898  0.1417  0.7657
18712TIP3    H177627   4.463   0.720   2.686 -2.2824  1.1929  1.1001
18712TIP3    H277628   4.395   0.619   2.776 -0.4404 -0.6566  0.4745
18713TIP3   OH277629   1.371   6.136   0.134 -0.4245  0.3299 -0.3706
18713TIP3    H177630   1.395   6.220   0.095  0.6360  0.3271  0.2202
18713TIP3    H277631   1.436   6.075   0.098  0.2009  0.2123  0.8968
18714TIP3   OH277632   4.370   2.042  15.996 -0.3839  0.2033 -0.2447
18714TIP3    H177633   4.384   1.977  15.927 -0.0777 -0.8222  0.7635
18714TIP3    H277634   4.449   2.039  16.049  0.0106  2.0320 -0.6489
18715TIP3   OH277635   5.015   2.639  12.562 -0.0926  0.1366  0.0179
18715TIP3    H177636   4.980   2.639  12.473 -1.7430  1.3977  0.5964
18715TIP3    H277637   4.946   2.598  12.614  1.0840 -1.0902  0.6708
18716TIP3   OH277638   3.164   5.306   5.488  0.5060  0.2914  1.0389
18716TIP3    H177639   3.106   5.375   5.520 -0.7287 -0.1611 -0.1272
18716TIP3    H277640   3.192   5.336   5.402  0.3541 -0.4290  0.7332
18717TIP3   OH277641   4.788   2.409   0.083  0.3981 -0.3226  0.5913
18717TIP3    H177642   4.850   2.444   0.019  0.5864 -2.3566 -0.4147
18717TIP3    H277643   4.702   2.436   0.051  0.5519 -0.4713  0.0466
18718TIP3   OH277644   4.964   3.564   2.410 -0.0399  0.2455 -0.0381
18718TIP3    H177645   4.969   3.535   2.319  0.5693 -1.2832  0.4657
18718TIP3    H277646   4.886   3.620   2.413 -0.6083 -0.4521 -1.2787
18719TIP3   OH277647   1.954   1.526   5.660  0.0647 -0.3517  0.8027
18719TIP3    H177648   1.869   1.515   5.618  0.2920  1.1217 -0.0865
18719TIP3    H277649   1.934   1.567   5.744 -0.0563  0.6494  0.2935
18720TIP3   OH277650   5.718   3.349  11.703 -0.1116  0.2093 -0.1623
18720TIP3    H177651   5.727   3.256  11.684 -1.7832  0.2332 -1.3719
18720TIP3    H277652   5.796   3.372  11.753  0.6395 -1.6892 -0.3937
18721TIP3   OH277653   0.618   1.810  16.201  0.2142  0.3798 -0.1809
18721TIP3    H177654   0.552   1.774  16.142 -0.5590  3.5674 -1.4706
18721TIP3    H277655   0.682   1.740  16.211 -1.0772 -1.2770 -2.5209
18722TIP3   OH277656   2.520   3.397   5.853 -0.4179  0.5098 -0.4726
18722TIP3    H177657   2.479   3.470   5.806  0.8374  1.2974 -0.3934
18722TIP3    H277658   2.531   3.429   5.942 -1.1229 -0.3076 -0.0846
18723TIP3   OH277659   1.650   3.683   1.675  0.7924 -0.4174  0.0486
18723TIP3    H177660   1.614   3.631   1.604 -0.1352  0.1071  0.1239
18723TIP3    H277661   1.586   3.677   1.745  0.4730  1.0897 -0.0639
18724TIP3   OH277662   1.426   6.145  12.788 -0.0792 -0.3900  0.4331
18724TIP3    H177663   1.387   6.060  12.811 -1.6716  0.1897  0.0425
18724TIP3    H277664   1.405   6.156  12.695  0.5645  0.1968  0.3553
18725TIP3   OH277665   1.062   0.093   0.074 -0.5170 -0.8208 -0.0604
18725TIP3    H177666   1.091   0.088  -0.017  1.6751 -0.2485  0.5640
18725TIP3    H277667   1.142   0.090   0.126 -1.5692  0.6190  1.7968
18726TIP3   OH277668   0.016   0.771  15.405 -0.3958  0.0504  0.3419
18726TIP3    H177669   0.038   0.861  15.380 -2.3061  0.3021 -0.6649
18726TIP3    H277670  -0.080   0.769  15.401 -0.3984 -1.9769  0.5942
18727TIP3   OH277671   4.507   1.199  15.234  0.3190 -0.3815 -0.2995
18727TIP3    H177672   4.459   1.223  15.155 -1.2547 -0.7242  0.5073
18727TIP3    H277673   4.496   1.273  15.293  1.1332 -0.2966 -0.2416
18728TIP3   OH277674   0.807   3.074  14.151  0.0796  0.7166  0.4913
18728TIP3    H177675   0.773   2.987  14.172  0.0159  0.6422  0.0987
18728TIP3    H277676   0.741   3.112  14.094  0.7344  0.4939 -0.4397
18729TIP3   OH277677   1.090   2.205  13.236  0.1944  0.2744  0.0020
18729TIP3    H177678   1.130   2.224  13.321  1.7694  0.4880 -0.7520
18729TIP3    H277679   1.164   2.194  13.176 -0.8681 -0.4740 -1.2297
18730TIP3   OH277680   2.346   3.313   2.004  0.0929 -0.2491  0.3232
18730TIP3    H177681   2.402   3.295   2.079 -0.3488 -0.5342  0.5863
18730TIP3    H277682   2.258   3.321   2.040 -0.0589  0.0590 -0.1065
18731TIP3   OH277683   3.849   5.249  17.280  0.4747  0.1076  0.2876
18731TIP3    H177684   3.818   5.313  17.217 -2.5346 -1.9884 -0.6107
18731TIP3    H277685   3.903   5.188  17.229 -1.5599 -1.3096 -0.3168
18732TIP3   OH277686   5.039   4.526   5.404 -0.0124 -0.0361 -0.5410
18732TIP3    H177687   4.972   4.594   5.409 -0.8493 -0.9328  2.4634
18732TIP3    H277688   4.992   4.445   5.422  1.1898 -1.3304 -2.7634
18733TIP3   OH277689   6.676   5.011   4.789 -0.0925  0.5171  0.0415
18733TIP3    H177690   6.698   4.987   4.699  0.2186 -1.8666  0.6961
18733TIP3    H277691   6.734   4.959   4.843 -1.0411  1.0626  1.6654
18734TIP3   OH277692   6.443   4.268   2.201  0.2150  0.0543 -0.3002
18734TIP3    H177693   6.432   4.186   2.249 -0.4860 -0.6206 -1.5871
18734TIP3    H277694   6.536   4.290   2.213 -0.0881  0.3208  1.9845
18735TIP3   OH277695   6.041   2.618  16.624  0.0132  0.5659 -0.4175
18735TIP3    H177696   6.017   2.528  16.603 -0.7157  0.9635 -1.3492
18735TIP3    H277697   5.998   2.634  16.708  0.2329  0.0086 -0.1938
18736TIP3   OH277698   3.677   4.120  14.019  0.4331 -0.1769  0.4401
18736TIP3    H177699   3.670   4.158  14.107  2.1139 -0.8409  0.8791
18736TIP3    H277700   3.624   4.041  14.023 -2.0839  1.3493 -0.1206
18737TIP3   OH277701   4.981   6.641   0.864 -0.7339  0.2462  0.1756
18737TIP3    H177702   5.024   6.555   0.869 -2.8105 -0.8794 -0.4051
18737TIP3    H277703   5.006   6.684   0.945 -0.0958 -1.1327  0.7516
18738TIP3   OH277704   5.315   0.946  10.547  0.1415 -0.5148  0.4477
18738TIP3    H177705   5.300   0.928  10.454 -0.4622  0.6533  0.2900
18738TIP3    H277706   5.394   1.000  10.548 -0.9384  1.1787  0.3718
18739TIP3   OH277707   4.741   5.381  14.970  0.4001 -0.3269 -0.5478
18739TIP3    H177708   4.810   5.445  14.987 -0.3033  0.4945 -0.6976
18739TIP3    H277709   4.665   5.434  14.945  0.2008 -1.2706 -2.0833
18740TIP3   OH277710   5.943   4.351   4.741 -0.4183 -0.4747  0.3882
18740TIP3    H177711   5.945   4.422   4.805  0.1256  0.1191 -0.2882
18740TIP3    H277712   5.862   4.303   4.762 -1.0246  0.5974  0.5653
18741TIP3   OH277713   5.820   4.990  13.108  0.0369 -1.1447 -0.2579
18741TIP3    H177714   5.775   5.058  13.058  2.1325  0.2792 -0.3477
18741TIP3    H277715   5.823   5.024  13.197  0.9866 -1.1666 -0.2752
18742TIP3   OH277716   6.357   6.198  11.453 -0.0717 -0.0113 -0.2210
18742TIP3    H177717   6.361   6.289  11.421  0.3911  1.0609  2.5733
18742TIP3    H277718   6.266   6.188  11.483  0.1032 -0.1506  0.2728
18743TIP3   OH277719   3.296   5.122  10.922 -0.0663  0.1778 -0.1409
18743TIP3    H177720   3.335   5.187  10.863  0.6048 -0.6256 -0.6059
18743TIP3    H277721   3.233   5.172  10.974  0.6850  1.2733 -0.2374
18744TIP3   OH277722   4.529   3.062   4.010 -0.3703 -0.6912 -0.4951
18744TIP3    H177723   4.617   3.054   4.045 -0.8537 -0.0782  0.9370
18744TIP3    H277724   4.536   3.032   3.920  1.4298 -0.0300 -0.6064
18745TIP3   OH277725   3.114   5.438  12.421 -0.0183  0.2926  0.2072
18745TIP3    H177726   3.188   5.495  12.401 -0.7640  0.8464 -1.0969
18745TIP3    H277727   3.038   5.496  12.417 -0.5904 -0.4066  0.8357
18746TIP3   OH277728   0.058   6.006  12.111 -0.1417 -0.2732  0.3027
18746TIP3    H177729   0.052   5.927  12.164 -2.8631  0.8722  1.8690
18746TIP3    H277730  -0.019   6.003  12.054 -0.6890  1.5119  0.8752
18747TIP3   OH277731   2.548   0.126  10.660  0.3758 -0.2255 -0.3855
18747TIP3    H177732   2.527   0.044  10.616 -0.7394 -0.5324  0.6592
18747TIP3    H277733   2.463   0.165  10.681  0.8604  0.0886  1.1204
18748TIP3   OH277734   6.441   0.493  17.444 -0.5921  0.5563 -0.0623
18748TIP3    H177735   6.475   0.437  17.374  0.3060  0.2564  0.6019
18748TIP3    H277736   6.357   0.453  17.466 -0.1531 -0.2999  0.1204
18749TIP3   OH277737   2.037   5.649   1.174 -0.0760 -0.1111  0.4735
18749TIP3    H177738   2.080   5.670   1.091  1.4798  0.6745  1.4446
18749TIP3    H277739   1.944   5.648   1.152  0.2318  0.9580 -1.1085
18750TIP3   OH277740   4.306   1.662   5.776 -0.2377  0.0491 -0.3390
18750TIP3    H177741   4.392   1.697   5.754 -1.1568  1.4569 -2.0071
18750TIP3    H277742   4.246   1.734   5.757 -1.6888 -0.3778  2.2171
18751TIP3   OH277743   1.282   4.596   0.957 -0.3078 -0.7672  0.0854
18751TIP3    H177744   1.309   4.657   1.025 -1.5735 -1.6024  1.3987
18751TIP3    H277745   1.309   4.510   0.989  0.3497 -1.0379 -1.1479
18752TIP3   OH277746   2.086   3.242  11.935 -0.3821 -0.2394 -0.0694
18752TIP3    H177747   2.176   3.274  11.929  0.3305 -2.2608 -0.8960
18752TIP3    H277748   2.035   3.305  11.884  0.6342  0.6668  0.0011
18753TIP3   OH277749   4.621   4.139  11.075  0.1466  0.2910 -0.1980
18753TIP3    H177750   4.669   4.200  11.018 -1.0192  1.0877 -0.3570
18753TIP3    H277751   4.690   4.090  11.121  1.1113  0.4097 -1.4578
18754TIP3   OH277752   2.246   4.305  11.309  0.2237  0.6654 -0.0566
18754TIP3    H177753   2.282   4.217  11.311 -1.4402 -0.0513 -0.2562
18754TIP3    H277754   2.187   4.306  11.234 -1.9239  1.0167  1.5347
18755TIP3   OH277755   5.245   5.726  12.151 -0.5980  0.4136  0.8842
18755TIP3    H177756   5.278   5.812  12.177 -0.6411  0.3678  1.0909
18755TIP3    H277757   5.182   5.702  12.220 -1.4723  0.7377  0.2105
18756TIP3   OH277758   6.051   0.114  14.344 -0.2453  0.4439  0.4032
18756TIP3    H177759   6.118   0.114  14.275 -1.6457  0.5031 -1.0197
18756TIP3    H277760   6.067   0.196  14.392  0.1076  0.9527 -0.5393
18757TIP3   OH277761   2.835   5.681   1.225 -0.1733 -0.3276 -0.4281
18757TIP3    H177762   2.744   5.710   1.219  0.2998  1.1327 -0.8050
18757TIP3    H277763   2.867   5.717   1.307 -0.2376 -1.8406  0.3092
18758TIP3   OH277764   6.362   2.848  10.680  0.0764 -0.1746 -0.0249
18758TIP3    H177765   6.288   2.823  10.626  1.3074 -1.7609 -1.0706
18758TIP3    H277766   6.344   2.938  10.706 -2.4140 -0.6701  0.1582
18759TIP3   OH277767   5.016   0.090  15.476  0.5200  0.2619 -0.1215
18759TIP3    H177768   5.087   0.026  15.485  0.7067  0.5370  0.4158
18759TIP3    H277769   5.061   0.172  15.457  0.3321  0.3860 -0.0321
18760TIP3   OH277770   0.808   6.578  16.903  0.9246 -0.2083  0.2997
18760TIP3    H177771   0.840   6.602  16.816  0.6961 -2.3838 -0.4500
18760TIP3    H277772   0.805   6.660  16.951 -1.4396  1.5626 -2.5104
18761TIP3   OH277773   3.429   3.888  12.942  0.0410 -0.4145  0.2262
18761TIP3    H177774   3.469   3.804  12.962  1.5264  0.4902  1.2365
18761TIP3    H277775   3.499   3.941  12.905 -0.0616  1.2684  2.2155
18762TIP3   OH277776   5.492   5.192  16.971 -0.2223 -0.0162  0.5738
18762TIP3    H177777   5.460   5.127  16.909 -0.1076 -0.1688  0.6727
18762TIP3    H277778   5.547   5.142  17.031 -0.7775  0.0296  1.1344
18763TIP3   OH277779   6.735   1.763   5.868  0.4674 -0.3109 -0.2845
18763TIP3    H177780   6.656   1.713   5.847 -1.4793  2.0171  0.9829
18763TIP3    H277781   6.782   1.769   5.785 -0.4637 -2.0782 -0.9931
18764TIP3   OH277782   6.239   3.377  13.194  1.1052  0.7728  0.6981
18764TIP3    H177783   6.217   3.428  13.117  0.9383  0.6463  0.6623
18764TIP3    H277784   6.199   3.291  13.179  0.8998  0.8124  1.0159
18765TIP3   OH277785   5.267   1.399  15.681 -0.2269  0.5448 -0.2615
18765TIP3    H177786   5.232   1.365  15.763  0.6528 -0.9766 -0.4779
18765TIP3    H277787   5.214   1.358  15.613  0.0587  0.5704 -0.5030
18766TIP3   OH277788   4.515   1.857   5.947 -0.2685  0.3754 -0.2411
18766TIP3    H177789   4.421   1.854   5.967 -0.4231 -0.0069 -1.0027
18766TIP3    H277790   4.543   1.943   5.978 -0.9158  0.5784 -0.2042
18767TIP3   OH277791   3.452   3.933   5.508  0.2728 -0.1925 -0.5458
18767TIP3    H177792   3.421   4.023   5.501  1.3924  0.3060  0.4855
18767TIP3    H277793   3.471   3.907   5.418  3.1102  1.8120 -0.6570
18768TIP3   OH277794   0.222   2.303   1.933 -0.2486 -0.0508 -0.0242
18768TIP3    H177795   0.163   2.377   1.918 -1.2634 -0.6897  0.7108
18768TIP3    H277796   0.197   2.269   2.018  0.0623 -1.3776 -0.4450
18769TIP3   OH277797   1.318   4.528   2.052 -0.3829 -0.1064  0.3864
18769TIP3    H177798   1.341   4.483   2.133 -0.4122  0.8550  0.9380
18769TIP3    H277799   1.223   4.520   2.045 -0.1679 -2.4310 -0.9151
18770TIP3   OH277800   3.670   3.084  14.385  0.5479 -0.1416  0.1532
18770TIP3    H177801   3.724   3.154  14.421 -0.1025  1.2180 -1.3940
18770TIP3    H277802   3.675   3.096  14.290 -1.5283 -0.7024 -0.0812
18771TIP3   OH277803   4.976   2.008   0.134 -0.1895  0.3067 -0.2395
18771TIP3    H177804   4.984   2.092   0.180 -0.7220  1.6772 -2.5102
18771TIP3    H277805   4.946   2.031   0.046  1.7586 -2.0658 -1.6613
18772TIP3   OH277806   0.642   4.442   0.578 -0.4946 -0.4211  0.5822
18772TIP3    H177807   0.686   4.494   0.510  0.1306 -0.9525  0.5745
18772TIP3    H277808   0.552   4.475   0.578 -0.5411 -0.4975 -0.5921
18773TIP3   OH277809   2.230   0.122  15.714 -0.3909  0.0114 -0.6538
18773TIP3    H177810   2.317   0.162  15.712 -0.8206  0.9639 -0.4717
18773TIP3    H277811   2.210   0.105  15.622 -0.3937  0.6230 -0.7666
18774TIP3   OH277812   4.473   4.921  12.443 -0.0302  0.2724 -0.4142
18774TIP3    H177813   4.502   4.951  12.529 -1.6972 -0.4384  0.4483
18774TIP3    H277814   4.427   4.997  12.406 -0.3246  0.2182 -0.1672
18775TIP3   OH277815   0.479   4.942  13.144  0.0448 -0.1391  0.3289
18775TIP3    H177816   0.488   4.996  13.223 -1.2691 -1.1750  1.2464
18775TIP3    H277817   0.569   4.922  13.118  0.5685  2.1325  0.1594
18776TIP3   OH277818   4.318   3.436   6.116  0.6662  0.5247  0.0147
18776TIP3    H177819   4.403   3.470   6.090  0.3110  1.5584  0.1708
18776TIP3    H277820   4.274   3.509   6.160 -0.4966  0.1694 -0.5015
18777TIP3   OH277821   2.474   0.605  16.665 -0.3923  0.8107 -0.1687
18777TIP3    H177822   2.561   0.615  16.627 -1.6279  2.9895 -2.8081
18777TIP3    H277823   2.428   0.546  16.605 -0.6523 -0.7341  1.4723
18778TIP3   OH277824   1.041   0.441  13.990  0.1795 -0.6757  0.1332
18778TIP3    H177825   1.064   0.509  14.054 -0.9054  0.2549 -0.4373
18778TIP3    H277826   1.104   0.453  13.919  0.6274 -0.9322  0.4824
18779TIP3   OH277827   6.461   4.317  14.323  0.0674  0.3455 -0.3703
18779TIP3    H177828   6.418   4.403  14.316  0.4666  0.4738 -1.4782
18779TIP3    H277829   6.480   4.293  14.232 -2.6206 -2.2447 -0.3889
18780TIP3   OH277830   0.876   5.900   1.162  0.2603 -0.5220  0.1050
18780TIP3    H177831   0.882   5.847   1.241 -1.0411 -1.3942 -0.3436
18780TIP3    H277832   0.876   5.837   1.091  1.6931  0.2692 -0.6312
18781TIP3   OH277833   0.057   0.207  13.570 -0.1731 -0.4190 -0.3116
18781TIP3    H177834   0.039   0.290  13.613  0.3702 -0.5864  0.2461
18781TIP3    H277835   0.049   0.226  13.476  0.7897  0.4732 -0.2262
18782TIP3   OH277836   4.630   6.028   3.110 -0.0107 -0.4280 -0.6584
18782TIP3    H177837   4.610   5.978   3.030  0.0198 -0.7413 -0.4723
18782TIP3    H277838   4.679   6.104   3.079 -1.2674  0.2397 -1.1035
18783TIP3   OH277839   5.610   1.373  15.404 -0.4351 -0.3402 -0.1759
18783TIP3    H177840   5.525   1.407  15.378 -0.6951  0.7260  1.7985
18783TIP3    H277841   5.633   1.310  15.337 -2.6575 -0.4625 -0.9025
18784TIP3   OH277842   3.904   5.712   1.463  0.5388 -0.0825 -0.5188
18784TIP3    H177843   3.971   5.659   1.507  0.6690  2.8871  3.4054
18784TIP3    H277844   3.822   5.666   1.480  0.8147  0.0462  1.4080
18785TIP3   OH277845   4.897   5.599  14.987 -0.0095 -0.2183 -0.3996
18785TIP3    H177846   4.973   5.575  15.040 -0.8783 -2.9469 -0.2387
18785TIP3    H277847   4.935   5.633  14.905  1.4007 -1.6002 -0.3622
18786TIP3   OH277848   1.279   3.844  14.188  0.0877  0.0284 -0.5165
18786TIP3    H177849   1.312   3.808  14.270  2.5282  1.8532 -0.5704
18786TIP3    H277850   1.186   3.822  14.187 -0.0602  0.0566  2.7822
18787TIP3   OH277851   5.711   5.263  17.387 -0.0678  0.0729  0.8202
18787TIP3    H177852   5.740   5.195  17.327  1.2739  1.5695 -0.2975
18787TIP3    H277853   5.730   5.228  17.474 -0.8828 -1.6093  0.3740
18788TIP3   OH277854   5.665   2.928   6.011  0.8115 -0.2737 -0.3728
18788TIP3    H177855   5.736   2.936   6.074  1.7306  1.0045 -1.5278
18788TIP3    H277856   5.647   2.834   6.007  1.2822 -0.4501  1.1689
18789TIP3   OH277857   5.870   1.584   0.241 -0.0197  0.1319  0.1071
18789TIP3    H177858   5.865   1.625   0.327  1.7672  2.6139 -0.8647
18789TIP3    H277859   5.962   1.563   0.230 -0.4779 -1.7124 -0.5770
18790TIP3   OH277860   5.393   6.575  13.975 -0.3556  0.0721  0.0741
18790TIP3    H177861   5.317   6.615  13.933 -0.2335  0.6972  0.4372
18790TIP3    H277862   5.419   6.504  13.916  0.1241  1.2305 -1.1580
18791TIP3   OH277863   0.522   6.398  11.232 -0.0603 -0.3467  0.1875
18791TIP3    H177864   0.435   6.376  11.198  0.2085  1.0544 -1.5083
18791TIP3    H277865   0.581   6.388  11.157  1.3732 -1.7080  1.4029
18792TIP3   OH277866   0.852   2.706  11.196  0.2536 -0.7173 -0.2515
18792TIP3    H177867   0.774   2.673  11.151  1.2070 -1.3701 -1.5012
18792TIP3    H277868   0.819   2.768  11.261 -1.1705  0.9051 -2.4050
18793TIP3   OH277869   6.421   2.411  12.677 -0.0064 -0.3620 -1.0721
18793TIP3    H177870   6.333   2.374  12.688  0.0937 -0.7318 -1.4656
18793TIP3    H277871   6.419   2.450  12.590 -0.3787  1.3500 -0.3285
18794TIP3   OH277872   6.061   5.993  15.876  0.4904  0.1793  0.2610
18794TIP3    H177873   6.087   6.020  15.788  1.3514 -0.0083  0.4489
18794TIP3    H277874   6.009   6.067  15.909 -1.2692 -0.4181 -0.9850
18795TIP3   OH277875   4.535   2.434   1.978 -0.1967  0.0280 -0.1240
18795TIP3    H177876   4.554   2.479   2.061 -0.1635 -0.1234 -0.0479
18795TIP3    H277877   4.440   2.429   1.974 -0.2167 -2.0443  1.0627
18796TIP3   OH277878   1.403   6.482  13.953  0.2647 -0.1613 -0.4170
18796TIP3    H177879   1.478   6.485  14.012  0.3836 -0.3994 -0.5559
18796TIP3    H277880   1.361   6.568  13.964 -0.3104 -0.5720  0.7822
18797TIP3   OH277881   3.228   6.352   6.217  0.3243 -0.4559  0.1116
18797TIP3    H177882   3.221   6.363   6.122 -0.1428 -0.9690  0.0863
18797TIP3    H277883   3.143   6.382   6.250  0.0631 -1.3650  0.2710
18798TIP3   OH277884   4.474   1.528   0.193  0.1005  0.4361 -0.1354
18798TIP3    H177885   4.493   1.617   0.162  1.4031  0.2202 -0.0187
18798TIP3    H277886   4.558   1.495   0.224 -0.6582 -0.2962  1.2356
18799TIP3   OH277887   2.982   4.425   4.562 -0.3050 -0.1713 -0.2161
18799TIP3    H177888   2.963   4.404   4.654 -1.7120  0.1535 -0.4210
18799TIP3    H277889   2.981   4.520   4.558  2.7038 -0.0208 -0.0055
18800TIP3   OH277890   0.237   0.179  15.011 -0.4760  0.3126 -0.2179
18800TIP3    H177891   0.146   0.210  15.017  0.2515  2.5851 -0.2324
18800TIP3    H277892   0.284   0.227  15.079  0.9715  0.1280 -1.0448
18801TIP3   OH277893   1.394   5.762  12.305  0.6487  0.0145  0.1920
18801TIP3    H177894   1.444   5.692  12.264  1.9400 -0.2146  2.0406
18801TIP3    H277895   1.418   5.841  12.256  1.4195 -0.3827 -0.0812
18802TIP3   OH277896   1.358   0.502  13.206 -0.4444  0.0955  0.5065
18802TIP3    H177897   1.333   0.416  13.174 -1.0779  0.9751 -1.5311
18802TIP3    H277898   1.452   0.496  13.222 -0.3393 -0.7571 -0.3820
18803TIP3   OH277899   1.259   6.047  13.192  0.1077 -0.5195  0.1108
18803TIP3    H177900   1.344   6.075  13.157  0.6658 -0.0838  1.7546
18803TIP3    H277901   1.262   6.070  13.284 -1.4478 -1.3679  0.4031
18804TIP3   OH277902   5.991   2.113   3.889  0.5833  0.6127  0.2073
18804TIP3    H177903   5.963   2.023   3.903 -0.3348  0.8055 -0.2712
18804TIP3    H277904   5.957   2.161   3.965  1.2122  0.5338  0.5441
18805TIP3   OH277905   3.703   4.173   2.981 -0.1837 -0.0658  0.0536
18805TIP3    H177906   3.711   4.085   2.944 -0.1585  0.7439 -2.0089
18805TIP3    H277907   3.758   4.228   2.925  0.1412  1.2125  1.5582
18806TIP3   OH277908   6.223   1.725   5.017  0.4278  0.4182 -0.4316
18806TIP3    H177909   6.278   1.791   5.059  0.2236 -0.1433  0.7610
18806TIP3    H277910   6.261   1.642   5.044 -1.1333  0.0163  0.6140
18807TIP3   OH277911   3.970   2.703  16.714 -0.9910 -0.1271  0.5058
18807TIP3    H177912   3.910   2.698  16.640 -0.4910 -2.1222  0.1764
18807TIP3    H277913   3.925   2.761  16.777 -0.7947  2.7881 -1.8152
18808TIP3   OH277914   5.011   1.552   4.739  0.2169 -0.0099 -0.5046
18808TIP3    H177915   4.929   1.585   4.703  0.5549  1.4197 -0.0223
18808TIP3    H277916   5.079   1.609   4.703  0.7567  0.2463  0.8343
18809TIP3   OH277917   5.695   6.200   5.041 -0.1787 -0.1824 -0.3124
18809TIP3    H177918   5.667   6.250   4.964  1.1418 -0.4492 -1.0032
18809TIP3    H277919   5.789   6.187   5.028  0.4001  0.9761  2.0505
18810TIP3   OH277920   5.187   4.457   2.273  0.0240 -0.0226 -0.1917
18810TIP3    H177921   5.168   4.366   2.250  0.2311 -0.2827  0.6341
18810TIP3    H277922   5.228   4.494   2.195  1.9154 -1.2401  0.1670
18811TIP3   OH277923   1.463   6.161  13.618  0.3081 -0.1293  0.4734
18811TIP3    H177924   1.497   6.191  13.702  1.2536  0.4468 -0.0993
18811TIP3    H277925   1.395   6.098  13.641  0.3418  0.2479  1.6683
18812TIP3   OH277926   0.675   5.897  11.926  0.3877  0.7754 -0.3372
18812TIP3    H177927   0.590   5.918  11.964  1.0238  0.6769  1.2172
18812TIP3    H277928   0.657   5.880  11.834 -1.4341 -0.2724  0.1690
18813TIP3   OH277929   2.809   2.887  14.962  0.1273 -0.3486  0.0202
18813TIP3    H177930   2.824   2.794  14.943  0.5922 -0.3951  0.6207
18813TIP3    H277931   2.890   2.930  14.937  0.3484 -0.2646  0.8702
18814TIP3   OH277932   2.665   5.878   2.853 -0.0573 -0.1993  0.4081
18814TIP3    H177933   2.625   5.965   2.854  0.3482  0.0165  2.8764
18814TIP3    H277934   2.756   5.892   2.879 -0.1468 -1.4035  1.4980
18815TIP3   OH277935   1.117   4.405   2.904 -0.5657  0.2030 -0.0392
18815TIP3    H177936   1.085   4.377   2.989  0.4616 -1.4570 -0.1533
18815TIP3    H277937   1.212   4.415   2.916 -0.6458  1.9142 -0.4988
18816TIP3   OH277938   5.806   2.914  10.956 -0.1782 -0.0064 -1.0004
18816TIP3    H177939   5.760   2.892  10.875 -1.5836  0.4324 -0.3532
18816TIP3    H277940   5.785   2.842  11.016  0.9843 -0.4084 -1.0608
18817TIP3   OH277941   4.005   5.221  13.891 -0.2329 -0.9967  0.0910
18817TIP3    H177942   3.997   5.149  13.828  1.8710 -2.1084  1.0010
18817TIP3    H277943   4.018   5.177  13.975  0.8000  0.4648  0.7210
18818TIP3   OH277944   0.878   1.022   0.788  0.1992 -0.1117  0.0816
18818TIP3    H177945   0.951   1.001   0.730  0.9493 -0.4188  1.0920
18818TIP3    H277946   0.895   0.970   0.867 -1.2477 -0.3599  0.2483
18819TIP3   OH277947   1.605   0.521  12.695  0.2946 -0.8160 -0.1952
18819TIP3    H177948   1.565   0.607  12.708 -0.9813 -1.3002 -0.7916
18819TIP3    H277949   1.682   0.539  12.640 -1.2985 -0.3020 -2.3958
18820TIP3   OH277950   0.716   4.265  14.073 -0.0146  0.4233  0.2476
18820TIP3    H177951   0.717   4.241  13.980 -0.2555 -0.0244  0.3603
18820TIP3    H277952   0.655   4.339  14.077  1.6119  1.8502 -0.2812
18821TIP3   OH277953   3.580   0.180  15.190  0.1553 -0.3787  0.0375
18821TIP3    H177954   3.613   0.118  15.255  0.9097 -1.2058 -1.1014
18821TIP3    H277955   3.625   0.262  15.209  0.7972 -0.7664  0.2250
18822TIP3   OH277956   0.978   1.851   5.610  0.3598  0.5545 -0.0584
18822TIP3    H177957   0.983   1.925   5.549  0.5023  1.6634  1.2495
18822TIP3    H277958   0.902   1.801   5.580  0.4631  1.0201 -1.1786
18823TIP3   OH277959   2.868   6.656  10.982  1.0138  0.7825 -0.5441
18823TIP3    H177960   2.816   6.581  11.012  2.1589  1.0788  2.5444
18823TIP3    H277961   2.812   6.732  11.000  2.1429  1.0540  2.2140
18824TIP3   OH277962   5.214   4.845  11.659 -0.1401 -0.5378 -0.1940
18824TIP3    H177963   5.277   4.907  11.696 -2.2622  0.8624  1.3201
18824TIP3    H277964   5.245   4.759  11.687  0.2759  0.2351  1.8910
18825TIP3   OH277965   5.019   3.041   5.058 -0.2323 -0.1132  0.3065
18825TIP3    H177966   4.952   3.060   4.992  1.4208  2.2974 -0.8055
18825TIP3    H277967   5.036   3.125   5.101  0.0657 -1.2603  2.5954
18826TIP3   OH277968   2.520   1.893   3.220  0.3432 -0.7123 -0.2204
18826TIP3    H177969   2.562   1.885   3.306  0.5585  1.1903 -0.1066
18826TIP3    H277970   2.454   1.961   3.232 -0.0125 -0.8140 -1.4425
18827TIP3   OH277971   1.201   0.821  15.663  0.0717  0.4635  0.0491
18827TIP3    H177972   1.115   0.792  15.692  0.3643  0.7060  1.2150
18827TIP3    H277973   1.200   0.916  15.676  1.0790  0.2944  1.7591
18828TIP3   OH277974   0.133   2.072   2.744  0.6830 -0.3854  0.2686
18828TIP3    H177975   0.127   2.157   2.786 -0.6913  0.4691 -1.5331
18828TIP3    H277976   0.205   2.080   2.682  0.8296 -0.6923  0.3925
18829TIP3   OH277977   0.728   0.531  11.158 -0.0774 -0.2339 -0.1799
18829TIP3    H177978   0.709   0.450  11.111 -0.0769 -0.2922 -0.0804
18829TIP3    H277979   0.769   0.502  11.240 -2.0209 -0.2550  0.8395
18830TIP3   OH277980   5.778   3.257   0.872 -0.1405 -0.8326 -0.2112
18830TIP3    H177981   5.812   3.184   0.923 -0.2256 -1.4250 -0.9681
18830TIP3    H277982   5.683   3.250   0.881 -0.1840 -1.2923 -0.8875
18831TIP3   OH277983   5.202   5.034   4.049 -0.3916  0.2210 -0.8532
18831TIP3    H177984   5.163   5.101   3.994 -1.5885  1.1078  0.9828
18831TIP3    H277985   5.255   4.981   3.989  0.2876  2.5403 -2.4319
18832TIP3   OH277986   2.721   6.510   4.261  0.3228 -0.3743 -0.0770
18832TIP3    H177987   2.750   6.487   4.173 -0.1224 -1.6968  0.1066
18832TIP3    H277988   2.801   6.516   4.312  0.6074  0.6578 -0.6089
18833TIP3   OH277989   1.869   5.386   2.982  0.0264 -0.2851 -0.6335
18833TIP3    H177990   1.911   5.397   3.067 -2.2203  0.7605  0.4335
18833TIP3    H277991   1.844   5.475   2.956 -1.5544 -0.8506 -1.1646
18834TIP3   OH277992   1.388   2.493   6.181 -0.3866  0.1940  0.5217
18834TIP3    H177993   1.307   2.448   6.207 -0.4477  1.6236  3.1594
18834TIP3    H277994   1.358   2.570   6.132 -0.4664 -0.5585 -0.6408
18835TIP3   OH277995   6.006   5.227  14.419  0.1328 -0.1426  0.3744
18835TIP3    H177996   6.000   5.244  14.513  1.4950  0.0610  0.4341
18835TIP3    H277997   6.078   5.282  14.388 -0.8366  0.4281 -0.9560
18836TIP3   OH277998   0.075   2.991   3.682 -0.1781 -0.1454  0.2560
18836TIP3    H177999   0.008   3.037   3.733 -0.1614 -0.7609  0.8649
18836TIP3    H278000   0.152   2.990   3.739 -0.6104 -2.1764  0.9091
18837TIP3   OH278001   1.075   1.864  15.566  0.1409  0.4531  0.3419
18837TIP3    H178002   1.071   1.841  15.659 -0.1296  1.5856  0.6172
18837TIP3    H278003   0.984   1.875  15.539  0.2131  0.0727 -0.0868
18838TIP3   OH278004   4.750   4.360  14.939  0.0654  0.2093  0.2688
18838TIP3    H178005   4.832   4.384  14.982  1.2693 -0.3860 -1.5512
18838TIP3    H278006   4.742   4.423  14.867  0.1662 -1.1082 -0.9433
18839TIP3   OH278007   1.981   3.984  14.020  0.7211 -0.2360  0.5587
18839TIP3    H178008   1.933   4.048  13.968  1.3553 -0.4028 -0.2639
18839TIP3    H278009   1.922   3.910  14.028 -0.1251  0.5365  1.7539
18840TIP3   OH278010   0.903   0.814   6.152 -0.1571  0.1735 -0.1877
18840TIP3    H178011   0.870   0.898   6.120  0.9141 -0.0680 -2.1117
18840TIP3    H278012   0.849   0.794   6.228 -1.5421  1.8011 -0.6811
18841TIP3   OH278013   1.174   6.256  12.945  0.1020 -0.1271  0.2014
18841TIP3    H178014   1.129   6.212  12.874  0.2338 -1.6038  0.9815
18841TIP3    H278015   1.156   6.201  13.022  1.5401  0.3483  0.9158
18842TIP3   OH278016   4.842   4.333  14.279 -0.2498  0.0364  0.2121
18842TIP3    H178017   4.816   4.282  14.357  0.3805  0.3169  0.6126
18842TIP3    H278018   4.931   4.303  14.260 -0.1898  0.3913 -0.0572
18843TIP3   OH278019   6.139   5.937   1.308  0.4220  0.1957  0.4529
18843TIP3    H178020   6.232   5.922   1.290  0.9538  1.4714  1.9564
18843TIP3    H278021   6.137   5.966   1.399 -1.5072 -0.1901  0.5592
18844TIP3   OH278022   5.519   4.740   2.724 -0.4188 -0.7138  0.5007
18844TIP3    H178023   5.451   4.786   2.774 -0.3226  0.4688 -0.4066
18844TIP3    H278024   5.598   4.748   2.778 -0.1637  1.1095 -0.0617
18845TIP3   OH278025   4.508   3.879  12.243  0.5664 -0.7657  1.3187
18845TIP3    H178026   4.484   3.936  12.170  3.0103 -2.5011 -1.0300
18845TIP3    H278027   4.430   3.827  12.259  0.5757 -1.8725 -1.6647
18846TIP3   OH278028   1.228   3.134  11.964 -0.4922 -0.3712  0.2049
18846TIP3    H178029   1.145   3.175  11.942 -1.0206 -1.2585  0.4652
18846TIP3    H278030   1.290   3.167  11.899 -0.9985  0.4425  0.1228
18847TIP3   OH278031   5.812   4.158   6.476  0.0151 -0.0105 -0.4984
18847TIP3    H178032   5.851   4.207   6.404 -0.2425  2.1531  0.7482
18847TIP3    H278033   5.722   4.189   6.480  0.4547  1.1413  1.7121
18848TIP3   OH278034   0.540   1.730   1.209 -0.2970 -0.0189  0.1013
18848TIP3    H178035   0.460   1.762   1.251 -0.3224  0.1014 -0.0351
18848TIP3    H278036   0.530   1.753   1.117  0.9395  2.2193  0.4370
18849TIP3   OH278037   2.327   3.923   0.496 -0.9795  0.3136 -0.0708
18849TIP3    H178038   2.377   3.843   0.508 -1.6574  0.0415  1.0573
18849TIP3    H278039   2.320   3.933   0.401  0.2769 -0.2095 -0.2411
18850TIP3   OH278040   4.331   4.542  11.052  0.0939 -0.2215  0.1775
18850TIP3    H178041   4.255   4.548  11.109  0.1175  0.3961  0.1526
18850TIP3    H278042   4.366   4.454  11.068  0.8612  0.3713  2.1034
18851TIP3   OH278043   2.045   5.696   3.802  0.2812  0.2956 -0.7287
18851TIP3    H178044   1.969   5.702   3.744  0.7511 -0.9466 -1.4934
18851TIP3    H278045   2.052   5.783   3.841 -2.2412  0.1475  0.2679
18852TIP3   OH278046   4.240   5.541   1.197  0.0044 -0.2882  0.5963
18852TIP3    H178047   4.223   5.471   1.134 -1.5914 -0.5462  1.2786
18852TIP3    H278048   4.168   5.603   1.183  1.3532  1.2160  0.0459
18853TIP3   OH278049   4.777   6.241   3.018  0.0277  0.3419 -0.2771
18853TIP3    H178050   4.830   6.307   3.063  1.4625 -1.7493  1.2869
18853TIP3    H278051   4.722   6.292   2.958  2.3499  2.8067 -0.5328
18854TIP3   OH278052   0.928   0.113   3.091 -0.3774  0.5702 -0.6058
18854TIP3    H178053   0.943   0.086   3.000 -0.9828 -1.2240 -0.2052
18854TIP3    H278054   1.016   0.130   3.125  0.7347 -4.9711  0.2653
18855TIP3   OH278055   0.510   4.626   5.434  0.4191  0.1210 -0.0752
18855TIP3    H178056   0.534   4.592   5.520 -0.6320  0.0563  0.1985
18855TIP3    H278057   0.420   4.655   5.444 -0.7475 -2.4519 -1.8571
18856TIP3   OH278058   2.430   2.470   5.691  0.0787 -0.2434  0.3788
18856TIP3    H178059   2.335   2.470   5.699  0.0939 -1.5748  0.8159
18856TIP3    H278060   2.462   2.475   5.781  0.4829  2.2058  0.1621
18857TIP3   OH278061   5.803   5.452  15.428  0.2817 -0.0412  0.5929
18857TIP3    H178062   5.735   5.428  15.365  0.1052 -1.4953  1.3033
18857TIP3    H278063   5.779   5.407  15.508  0.8663  1.2589  1.5313
18858TIP3   OH278064   5.533   5.953   4.747  0.1103 -0.1005 -0.4062
18858TIP3    H178065   5.472   5.926   4.678 -0.8678  0.9541  0.0218
18858TIP3    H278066   5.514   5.893   4.820  0.1357 -0.2814 -0.5469
18859TIP3   OH278067   6.129   2.742  12.057  0.4946  0.0964 -0.6681
18859TIP3    H178068   6.203   2.780  12.011 -0.0389  1.1019 -0.7251
18859TIP3    H278069   6.141   2.648  12.049  1.6703  0.2482 -0.8223
18860TIP3   OH278070   2.036   1.893  15.650 -0.2870 -0.1114 -0.1959
18860TIP3    H178071   1.951   1.895  15.607 -0.8618  0.1274  0.9151
18860TIP3    H278072   2.022   1.839  15.728  0.6069 -0.1405 -0.0402
18861TIP3   OH278073   4.386   2.085   4.579 -0.1926 -0.0266 -0.2524
18861TIP3    H178074   4.378   1.993   4.553 -1.6686  0.0385 -0.1300
18861TIP3    H278075   4.358   2.135   4.503  0.0113  0.3084 -0.1132
18862TIP3   OH278076   0.368   1.847   5.526  0.3059  0.2030 -0.3618
18862TIP3    H178077   0.388   1.850   5.432 -0.3793  1.5482 -0.4825
18862TIP3    H278078   0.442   1.800   5.565  1.2837  0.8534 -1.3919
18863TIP3   OH278079   3.656   0.518   6.340 -0.0174 -0.0252  0.6845
18863TIP3    H178080   3.672   0.545   6.431 -0.9403  2.3086  0.2221
18863TIP3    H278081   3.565   0.488   6.340  0.5364 -1.8246  0.8628
18864TIP3   OH278082   6.708   4.083  10.881 -0.0248 -0.0980 -0.5691
18864TIP3    H178083   6.745   4.140  10.813  0.0167  0.5097 -0.0427
18864TIP3    H278084   6.618   4.114  10.892 -1.0226 -2.0981 -2.4278
18865TIP3   OH278085   0.090   0.997   2.786  0.4276  0.1759  0.0757
18865TIP3    H178086   0.006   1.038   2.766  0.8177  0.8354 -0.2389
18865TIP3    H278087   0.147   1.069   2.810  0.9694 -0.2469  0.0820
18866TIP3   OH278088   1.865   2.192  16.165 -0.3202 -0.2696  0.0170
18866TIP3    H178089   1.853   2.225  16.076 -0.3424 -0.1511  0.0637
18866TIP3    H278090   1.777   2.168  16.194 -0.4299  0.3943  0.2744
18867TIP3   OH278091   4.393   4.631   5.482 -0.4080  0.0778 -0.2526
18867TIP3    H178092   4.366   4.625   5.391  0.6186 -1.0000 -0.5169
18867TIP3    H278093   4.317   4.599   5.532 -1.4785  1.9461 -0.5998
18868TIP3   OH278094   5.347   5.755   6.584  0.3196  0.4247  0.4107
18868TIP3    H178095   5.274   5.697   6.607 -0.4838  0.1852 -2.3976
18868TIP3    H278096   5.306   5.828   6.537  1.6823  1.4946  0.8252
18869TIP3   OH278097   1.768   4.350  16.922 -0.1752  0.2297 -0.2249
18869TIP3    H178098   1.753   4.296  16.844  0.0664  0.7173 -0.6125
18869TIP3    H278099   1.804   4.432  16.888  1.2970 -0.0776  0.4781
18870TIP3   OH278100   1.330   1.107  11.506  0.4283 -0.0872 -0.6159
18870TIP3    H178101   1.338   1.030  11.563  0.7245 -0.2306 -0.8503
18870TIP3    H278102   1.250   1.151  11.536 -0.0153 -0.7527 -0.7929
18871TIP3   OH278103   6.023   6.532  11.811 -0.3110  0.5268  0.3608
18871TIP3    H178104   5.956   6.469  11.838 -0.1792  0.9041  1.6286
18871TIP3    H278105   6.101   6.480  11.796 -0.1784  0.3742  1.4891
18872TIP3   OH278106   5.478   0.985   0.312  0.0463 -0.1959 -0.7399
18872TIP3    H178107   5.430   0.907   0.340 -1.7631  1.6462  1.7380
18872TIP3    H278108   5.534   1.007   0.386 -0.7055  1.7232 -0.6840
18873TIP3   OH278109   4.323   0.259   3.487  0.0036  0.7300 -0.6957
18873TIP3    H178110   4.278   0.340   3.464 -0.7278  1.0340  1.5291
18873TIP3    H278111   4.277   0.191   3.438 -0.3945  1.4789 -1.3867
18874TIP3   OH278112   2.893   2.450   4.176 -0.0849 -0.2834 -0.8400
18874TIP3    H178113   2.866   2.371   4.129  0.2475 -0.9528  0.0616
18874TIP3    H278114   2.979   2.471   4.141  0.4520 -1.1681 -0.0725
18875TIP3   OH278115   1.812   4.402  15.723  0.3548  0.1060 -0.1882
18875TIP3    H178116   1.797   4.318  15.679  4.4320 -0.5789 -0.6996
18875TIP3    H278117   1.776   4.467  15.663  0.1236 -1.1342 -1.4481
18876TIP3   OH278118   6.297   4.796  14.511  0.5625  0.4964 -0.3367
18876TIP3    H178119   6.388   4.779  14.487  0.2810  0.3414 -1.3236
18876TIP3    H278120   6.299   4.882  14.554  1.0818  0.8120 -0.9733
18877TIP3   OH278121   3.687   0.947   0.857 -0.6733 -0.7983 -0.9469
18877TIP3    H178122   3.646   1.028   0.824 -2.4082 -2.0239 -1.9397
18877TIP3    H278123   3.774   0.975   0.885 -1.6518  1.6846 -0.0319
18878TIP3   OH278124   1.185   4.123  15.425  0.2745 -0.3176  0.2246
18878TIP3    H178125   1.131   4.103  15.348 -0.7996  2.9188 -0.0128
18878TIP3    H278126   1.158   4.059  15.490 -2.5574 -0.0074 -0.5040
18879TIP3   OH278127   6.073   1.971  16.714 -0.1109  0.2338 -0.3262
18879TIP3    H178128   6.034   1.980  16.801 -1.1030 -0.5649 -0.6646
18879TIP3    H278129   6.009   2.010  16.655  0.9273  1.5113 -0.6448
18880TIP3   OH278130   5.106   6.395  13.711  0.0776 -0.1568 -0.3726
18880TIP3    H178131   5.081   6.372  13.800 -1.2977  1.0553 -0.3956
18880TIP3    H278132   5.058   6.334  13.655 -0.0829 -0.0911 -0.3075
18881TIP3   OH278133   4.572   6.261   4.160  0.0262 -0.2054  0.2581
18881TIP3    H178134   4.543   6.302   4.078 -1.5460  0.5903  1.1797
18881TIP3    H278135   4.643   6.203   4.133 -1.0301 -0.6328 -1.8001
18882TIP3   OH278136   2.052   1.855   6.288 -0.2065  0.7889 -0.1693
18882TIP3    H178137   1.962   1.857   6.321 -0.6024  0.1544 -1.1749
18882TIP3    H278138   2.097   1.793   6.345 -0.4749  0.8777  0.1448
18883TIP3   OH278139   4.032   5.688  13.152  0.4139 -0.8825 -0.2427
18883TIP3    H178140   4.044   5.596  13.173 -0.0000 -0.5453  1.6396
18883TIP3    H278141   3.945   5.693  13.113 -0.6826 -0.9912  2.0262
18884TIP3   OH278142   4.737   4.304   2.855 -0.4976  0.4353 -0.1064
18884TIP3    H178143   4.680   4.239   2.815 -1.3503 -0.7340  2.7523
18884TIP3    H278144   4.679   4.377   2.876 -0.2377  0.6827 -0.2397
18885TIP3   OH278145   6.588   5.703  10.914 -0.2754  0.4290 -0.0796
18885TIP3    H178146   6.645   5.720  10.988 -0.2366  0.3416 -0.0890
18885TIP3    H278147   6.550   5.788  10.892  0.7664  0.7223 -0.8310
18886TIP3   OH278148   5.624   0.384  14.605 -0.2215 -0.0791 -0.5704
18886TIP3    H178149   5.603   0.327  14.679  4.4297 -1.3896  0.0840
18886TIP3    H278150   5.616   0.473  14.641 -2.8825 -0.4398 -0.1186
18887TIP3   OH278151   1.121   6.329  15.224  0.4395  0.0914  0.2162
18887TIP3    H178152   1.064   6.384  15.171 -0.4968 -0.2538  0.8418
18887TIP3    H278153   1.082   6.242  15.219  0.4370  0.0151  1.3090
18888TIP3   OH278154   5.858   3.362  15.924  0.3084 -0.0002 -0.1749
18888TIP3    H178155   5.781   3.417  15.939  1.1467  0.5944  2.4638
18888TIP3    H278156   5.929   3.408  15.968  1.7060 -1.6473 -0.6009
18889TIP3   OH278157   0.676   3.918   6.239  0.0440  0.0907  0.2503
18889TIP3    H178158   0.581   3.908   6.244 -0.4489  0.8736 -3.7883
18889TIP3    H278159   0.710   3.832   6.264 -1.7178 -0.3498  1.3321
18890TIP3   OH278160   2.208   0.739  17.462  0.0367  0.3217 -0.2383
18890TIP3    H178161   2.117   0.710  17.457 -0.3591  1.6074 -0.7587
18890TIP3    H278162   2.208   0.827  17.424  1.4860  0.3711 -0.1889
18891TIP3   OH278163   3.479   0.030   5.054 -0.2141  0.0625 -0.1752
18891TIP3    H178164   3.464   0.046   4.960  1.0338 -1.2389 -0.6152
18891TIP3    H278165   3.392   0.043   5.094 -0.5318  1.7788 -1.3181
18892TIP3   OH278166   0.910   1.808  17.054  0.7412  0.2538 -0.0345
18892TIP3    H178167   0.972   1.740  17.081  1.2389  0.6308 -0.2040
18892TIP3    H278168   0.951   1.850  16.978 -0.6306 -0.7838 -1.4089
18893TIP3   OH278169   6.160   6.325  13.144 -0.2270  0.1397 -0.4419
18893TIP3    H178170   6.185   6.320  13.052 -0.1907  3.4124 -0.7207
18893TIP3    H278171   6.148   6.418  13.161 -1.9773 -0.4805  2.4423
18894TIP3   OH278172   4.270   1.516  14.898 -0.2479  0.1311 -0.0836
18894TIP3    H178173   4.316   1.599  14.902  2.2028 -1.1167 -0.7987
18894TIP3    H278174   4.257   1.492  14.990  0.4648  0.5532  0.1359
18895TIP3   OH278175   4.489   3.232   3.705  0.3929  0.0984 -0.2822
18895TIP3    H178176   4.440   3.151   3.710 -1.9602  1.1176 -3.7103
18895TIP3    H278177   4.575   3.207   3.672  0.0785 -1.0998 -0.2090
18896TIP3   OH278178   4.417   1.985  14.266  0.0025 -0.0808 -0.5848
18896TIP3    H178179   4.351   1.968  14.333  0.1352 -1.4574 -0.7855
18896TIP3    H278180   4.477   1.910  14.271  1.7465  1.2742 -0.1923
18897TIP3   OH278181   3.770   0.694  14.746 -0.0403 -0.3609  0.3558
18897TIP3    H178182   3.712   0.756  14.702  1.6619  1.4315  0.4796
18897TIP3    H278183   3.809   0.745  14.817  1.0134 -1.7527  0.8023
18898TIP3   OH278184   0.161   2.555   3.218  0.4842 -0.0367  0.4808
18898TIP3    H178185   0.252   2.586   3.215  0.2885  0.4635 -1.7062
18898TIP3    H278186   0.109   2.629   3.187 -0.6628 -0.4356  1.3845
18899TIP3   OH278187   5.622   0.942   1.839  0.2538  0.8538 -0.0313
18899TIP3    H178188   5.667   0.880   1.896  1.4160  0.9478 -0.8118
18899TIP3    H278189   5.558   0.984   1.896 -0.0408 -0.5107  0.6921
18900TIP3   OH278190   0.581   5.520  15.867 -0.1186 -0.8239 -0.4769
18900TIP3    H178191   0.610   5.494  15.954  0.3519  0.2500 -0.2898
18900TIP3    H278192   0.532   5.445  15.834 -2.7389 -0.2703  1.7886
18901TIP3   OH278193   3.739   4.341  13.171 -0.0311 -0.3612  0.6092
18901TIP3    H178194   3.750   4.434  13.186 -0.8968 -0.1236 -0.1270
18901TIP3    H278195   3.822   4.312  13.135 -0.8380  0.8592 -2.5060
18902TIP3   OH278196   0.754   4.688   3.362 -0.5585  0.2352  0.3428
18902TIP3    H178197   0.737   4.602   3.400  0.6102 -0.0168  0.3255
18902TIP3    H278198   0.797   4.738   3.431 -2.7081  1.4058  0.9281
18903TIP3   OH278199   6.703   2.912  16.258 -0.3011 -0.4116 -0.2272
18903TIP3    H178200   6.785   2.938  16.300 -0.4413  1.3688 -0.9789
18903TIP3    H278201   6.636   2.966  16.300 -0.5454  0.8556 -2.1445
18904TIP3   OH278202   4.576   2.509   2.238  0.3074  0.0050  0.2722
18904TIP3    H178203   4.517   2.549   2.302 -1.9479  0.0479 -1.6934
18904TIP3    H278204   4.580   2.417   2.263 -0.1593  0.1120  0.7549
18905TIP3   OH278205   5.329   6.154   4.060  0.2285  0.4480  0.2585
18905TIP3    H178206   5.373   6.238   4.051  1.1587  0.0204  0.5926
18905TIP3    H278207   5.239   6.170   4.032  0.2953  1.6267  0.6700
18906TIP3   OH278208   6.044   2.491   2.573  0.2375 -0.0932 -0.0281
18906TIP3    H178209   6.057   2.529   2.486  2.3110 -2.3101 -0.8080
18906TIP3    H278210   6.122   2.516   2.622  0.8664 -1.8612 -0.0543
18907TIP3   OH278211   3.982   0.151   0.952  0.1189  0.2730 -0.2615
18907TIP3    H178212   3.948   0.233   0.917 -0.6369  0.0343 -0.1067
18907TIP3    H278213   3.951   0.084   0.891  1.9901  0.2302 -1.2382
18908TIP3   OH278214   3.972   0.929  15.109 -0.4647  0.5669 -0.4925
18908TIP3    H178215   3.949   0.914  15.201 -0.3542 -4.1246 -0.9616
18908TIP3    H278216   4.043   0.993  15.113  0.2389 -0.1919  2.8312
18909TIP3   OH278217   6.301   1.478  13.737  0.6435  0.0539  0.7326
18909TIP3    H178218   6.289   1.569  13.710 -1.5692 -0.2546  0.4981
18909TIP3    H278219   6.228   1.431  13.697  0.1825 -1.3418  3.0094
18910TIP3   OH278220   5.015   1.324  14.375  0.3815  1.0525  0.1019
18910TIP3    H178221   4.947   1.261  14.398  1.5036 -0.5652 -0.8637
18910TIP3    H278222   5.093   1.294  14.422  0.8300  2.0061 -0.0014
18911TIP3   OH278223   6.090   2.225   1.898 -0.6363  0.1826 -0.6599
18911TIP3    H178224   6.025   2.159   1.873  1.6684 -2.3414 -0.4412
18911TIP3    H278225   6.146   2.234   1.821  1.4055 -1.2072  0.5488
18912TIP3   OH278226   4.990   0.057   1.107 -0.9435 -0.0326  0.0153
18912TIP3    H178227   5.013   0.145   1.136 -1.0767 -0.2124  0.6969
18912TIP3    H278228   5.066   0.004   1.129 -0.7718 -0.0523 -0.6030
18913TIP3   OH278229   4.752   2.771  16.509  0.3104 -0.3269  0.1379
18913TIP3    H178230   4.828   2.769  16.567  0.8994 -0.8740 -0.6412
18913TIP3    H278231   4.783   2.815  16.430 -0.8570  1.6762  0.7139
18914TIP3   OH278232   0.194   1.466   4.012 -0.4324 -0.4100  0.6902
18914TIP3    H178233   0.271   1.411   3.999 -0.0826  0.2236 -0.0239
18914TIP3    H278234   0.135   1.441   3.941 -0.4831 -0.2235  0.6660
18915TIP3   OH278235   2.317   0.941   1.667 -0.0363 -0.0291 -0.0694
18915TIP3    H178236   2.244   1.004   1.668 -0.1592 -0.1724  0.3006
18915TIP3    H278237   2.283   0.866   1.619  0.1349  0.2145 -0.5727
18916TIP3   OH278238   3.065   1.668   1.235  0.0273 -0.1164 -0.2239
18916TIP3    H178239   3.159   1.660   1.246 -0.2390 -2.0525  1.3083
18916TIP3    H278240   3.034   1.578   1.224 -1.9515  0.0340  2.7630
18917TIP3   OH278241   3.331   2.459  16.729  0.3619  0.3904 -0.1186
18917TIP3    H178242   3.385   2.415  16.663 -0.9517 -0.1403 -0.8961
18917TIP3    H278243   3.293   2.533  16.683 -0.0783  0.3778  0.2183
18918TIP3   OH278244   0.371   3.216  12.067  0.5443  0.2175 -0.0516
18918TIP3    H178245   0.340   3.183  12.151 -1.6442  0.6164 -0.6461
18918TIP3    H278246   0.362   3.142  12.007 -2.6119  1.1873 -0.9660
18919TIP3   OH278247   0.827   0.434   2.636  0.1217 -0.1572 -0.5141
18919TIP3    H178248   0.907   0.386   2.612  0.6148 -0.2390  1.1467
18919TIP3    H278249   0.857   0.523   2.654  0.0436 -0.4406  1.1365
18920TIP3   OH278250   5.359   3.414   5.270 -0.2766  0.0572 -0.4895
18920TIP3    H178251   5.437   3.362   5.286 -0.4993 -0.0533  0.2708
18920TIP3    H278252   5.354   3.474   5.345  0.4158  1.7312 -1.7349
18921TIP3   OH278253   2.687   4.948   3.735 -0.3379  0.1606 -0.6419
18921TIP3    H178254   2.670   4.862   3.698 -2.3991 -0.6890  1.9627
18921TIP3    H278255   2.682   4.935   3.830  1.3360  2.7868 -0.0735
18922TIP3   OH278256   2.163   4.095  12.302 -0.0884 -0.2617 -0.4253
18922TIP3    H178257   2.107   4.050  12.366  1.6326 -1.1385  0.5565
18922TIP3    H278258   2.193   4.025  12.243  1.9020 -0.3231  0.5712
18923TIP3   OH278259   4.977   4.023  12.095 -0.6377  0.0012  0.0728
18923TIP3    H178260   5.022   3.974  12.163  1.8917  1.6093 -0.3148
18923TIP3    H278261   4.887   4.031  12.126 -0.7283 -3.2243  0.9697
18924TIP3   OH278262   0.578   4.244   0.309 -0.2002 -0.1348 -0.2706
18924TIP3    H178263   0.653   4.242   0.369 -0.7840 -1.2780  0.4680
18924TIP3    H278264   0.504   4.219   0.364 -1.0075  0.2902 -1.1496
18925TIP3   OH278265   6.622   3.565  15.982  0.3580 -0.3046 -0.5398
18925TIP3    H178266   6.583   3.602  16.061  2.4077 -0.8958  0.8325
18925TIP3    H278267   6.628   3.472  16.000  0.7500 -0.4664 -1.4595
18926TIP3   OH278268   5.375   6.739  16.803 -0.3850 -0.3394  0.1543
18926TIP3    H178269   5.454   6.736  16.750 -0.3775  0.4269  0.1081
18926TIP3    H278270   5.308   6.775  16.744 -0.9900 -1.7629 -0.0716
18927TIP3   OH278271   1.059   2.296  13.712 -0.3357  0.4403 -0.0752
18927TIP3    H178272   1.110   2.375  13.723 -1.0086  0.7994  0.5125
18927TIP3    H278273   1.088   2.238  13.783 -0.8070  0.6804  0.3159
18928TIP3   OH278274   0.906   1.322  13.466  0.2159  0.2971 -0.1426
18928TIP3    H178275   0.942   1.381  13.401  1.0679 -1.6461 -1.5411
18928TIP3    H278276   0.977   1.259  13.483 -0.8089 -0.6427  0.8686
18929TIP3   OH278277   6.757   3.201   5.801 -0.4174 -0.1377 -0.2308
18929TIP3    H178278   6.758   3.132   5.734 -0.1817 -1.0123  0.6539
18929TIP3    H278279   6.841   3.193   5.845 -0.7496  0.1240  0.4655
18930TIP3   OH278280   4.601   6.362  11.888  0.0779 -0.8625  0.3307
18930TIP3    H178281   4.600   6.339  11.981  0.8512  0.9330  0.8221
18930TIP3    H278282   4.531   6.309  11.850 -2.6875  0.8931  2.5903
18931TIP3   OH278283   6.029   5.609  15.361  0.0299 -0.5126  0.3391
18931TIP3    H178284   5.937   5.584  15.369  0.0160 -0.1577  1.4361
18931TIP3    H278285   6.077   5.540  15.407  0.0805  0.7590  2.2861
18932TIP3   OH278286   0.937   6.172  13.119  0.0618 -0.4549  0.9516
18932TIP3    H178287   0.948   6.249  13.174  1.6378  0.1762 -0.1737
18932TIP3    H278288   0.930   6.099  13.180  0.8248  0.3369  2.0152
18933TIP3   OH278289   1.396   6.303   3.477 -0.5803 -0.3243  0.1330
18933TIP3    H178290   1.454   6.247   3.529 -2.3003 -2.1970  0.1793
18933TIP3    H278291   1.355   6.361   3.541  0.0305 -0.1099  0.3300
18934TIP3   OH278292   3.712   3.589  14.618  0.2083 -0.2906 -0.1955
18934TIP3    H178293   3.729   3.638  14.537 -0.1302 -0.4705 -0.3782
18934TIP3    H278294   3.627   3.621  14.647  1.0553  0.9920  1.0035
18935TIP3   OH278295   2.018   2.161  13.745 -0.4782  0.0877 -0.1773
18935TIP3    H178296   1.983   2.079  13.709 -4.3928  1.6320 -0.3720
18935TIP3    H278297   2.105   2.169  13.705 -1.3373 -2.2677 -2.8731
18936TIP3   OH278298   1.093   0.737   5.454 -0.2585 -0.2357 -0.0012
18936TIP3    H178299   1.012   0.771   5.417 -0.5144  1.7934  2.1661
18936TIP3    H278300   1.162   0.789   5.413 -0.4349  1.0132  1.2064
18937TIP3   OH278301   2.467   0.584  13.583  0.3574  0.1421 -0.1815
18937TIP3    H178302   2.512   0.499  13.580  0.6266  0.2360  0.8218
18937TIP3    H278303   2.494   0.628  13.502  1.1207 -0.2865 -0.1726
18938TIP3   OH278304   0.994   6.717  15.741  0.4209 -0.5113  0.5270
18938TIP3    H178305   1.083   6.683  15.745  0.0116 -1.6517  0.3606
18938TIP3    H278306   0.955   6.692  15.825  0.2889  0.0947  0.6512
18939TIP3   OH278307   4.154   4.725  14.237  0.0451 -0.2167  1.4554
18939TIP3    H178308   4.103   4.798  14.273  0.6870 -0.1087  2.1667
18939TIP3    H278309   4.227   4.768  14.192 -0.3362 -0.3819  0.6563
18940TIP3   OH278310   4.879   2.431  13.587  0.6419 -0.0103  0.7182
18940TIP3    H178311   4.963   2.402  13.622  0.7519 -0.2271  0.2787
18940TIP3    H278312   4.819   2.358  13.605  1.3796 -1.4877 -2.2428
18941TIP3   OH278313   0.708   0.119  10.613  0.3748  0.2574  0.2121
18941TIP3    H178314   0.760   0.190  10.650 -0.5305  0.0494  1.9949
18941TIP3    H278315   0.617   0.148  10.621 -0.0433 -1.2355  1.3624
18942TIP3   OH278316   5.983   1.763   1.716 -0.4887  0.0029 -0.3812
18942TIP3    H178317   6.065   1.712   1.719 -0.8567 -0.5643  1.5215
18942TIP3    H278318   5.923   1.707   1.667  0.0434  0.1192 -1.1962
18943TIP3   OH278319   3.587   2.149   1.894  0.0588  0.8707 -0.1438
18943TIP3    H178320   3.610   2.242   1.900  2.9279  0.4401 -2.2512
18943TIP3    H278321   3.653   2.112   1.836 -2.0364 -2.1837 -0.8152
18944TIP3   OH278322   2.823   1.034  10.713 -0.0180 -0.4643  0.4701
18944TIP3    H178323   2.850   1.046  10.622 -0.0721  0.3154  0.5488
18944TIP3    H278324   2.876   0.961  10.745 -0.2744 -0.9972 -0.2960
18945TIP3   OH278325   3.278   6.772   2.615  0.1424  0.0855  0.1011
18945TIP3    H178326   3.357   6.788   2.562  0.7798  0.9528  1.2672
18945TIP3    H278327   3.279   6.678   2.630  1.0085  0.0928  0.1609
18946TIP3   OH278328   0.333   1.614   4.192  0.3613  0.8909  0.0895
18946TIP3    H178329   0.327   1.695   4.143 -1.7584  0.4138 -0.5285
18946TIP3    H278330   0.268   1.556   4.152 -0.8580  0.1766  2.8495
18947TIP3   OH278331   2.469   6.668  13.749  0.5621  0.1314 -0.1020
18947TIP3    H178332   2.511   6.714  13.676  0.5864 -0.9176 -0.7729
18947TIP3    H278333   2.405   6.610  13.707  2.8656 -3.0192  0.3580
18948TIP3   OH278334   5.458   2.764  16.225 -0.0339  0.2554 -0.3720
18948TIP3    H178335   5.511   2.840  16.251 -0.8368  1.7844 -2.8595
18948TIP3    H278336   5.394   2.755  16.295 -0.3839  2.4098 -0.3369
18949TIP3   OH278337   4.922   4.777  13.446 -0.0881  0.0965 -0.3926
18949TIP3    H178338   4.951   4.864  13.474  0.5572 -0.5102  0.8971
18949TIP3    H278339   4.985   4.751  13.379  0.8707 -0.1536  0.5870
18950TIP3   OH278340   5.560   2.846  12.764  0.6432 -0.0686  0.6353
18950TIP3    H178341   5.639   2.847  12.817  0.2343  0.7964  1.2513
18950TIP3    H278342   5.568   2.767  12.710  1.5176 -0.4409  1.2942
18951TIP3   OH278343   4.200   4.318  14.889  0.4235  0.3730 -0.1023
18951TIP3    H178344   4.259   4.362  14.949  0.2297  1.0183 -0.3795
18951TIP3    H278345   4.142   4.387  14.857  0.2946 -0.0278 -0.7551
18952TIP3   OH278346   0.628   4.859  16.485 -0.8541  0.3533  0.2358
18952TIP3    H178347   0.639   4.936  16.430  2.3886  0.6795  1.1427
18952TIP3    H278348   0.674   4.881  16.566 -0.7545 -2.1430  0.9304
18953TIP3   OH278349   4.216   6.126  12.256 -0.0388  0.1203 -0.0045
18953TIP3    H178350   4.192   6.163  12.171 -2.2444  0.2239  0.6181
18953TIP3    H278351   4.170   6.181  12.320  0.1629 -1.0291  1.1664
18954TIP3   OH278352   1.175   2.225  12.782  0.0482  0.4005 -0.4730
18954TIP3    H178353   1.120   2.223  12.703  1.2143  0.3116 -1.2990
18954TIP3    H278354   1.260   2.255  12.752 -0.6459  5.2305  1.5014
18955TIP3   OH278355   1.429   0.112   4.225 -0.2508  0.1350  0.0625
18955TIP3    H178356   1.435   0.200   4.188  0.8370 -0.0511 -0.2378
18955TIP3    H278357   1.441   0.054   4.150  1.7267 -0.2535  0.6303
18956TIP3   OH278358   1.053   1.425  11.695 -0.0098 -0.2924  0.3801
18956TIP3    H178359   0.966   1.432  11.655 -0.0462 -1.2709  0.2621
18956TIP3    H278360   1.079   1.515  11.711 -0.8867  0.0312  0.0634
18957TIP3   OH278361   1.612   5.287  12.671 -0.0840 -0.0490 -0.0392
18957TIP3    H178362   1.537   5.227  12.661 -0.0451  0.0471 -0.9992
18957TIP3    H278363   1.574   5.374  12.658 -0.1864  0.1860  1.5979
18958TIP3   OH278364   6.386   6.527   0.987 -0.3670  0.5295 -0.0442
18958TIP3    H178365   6.435   6.600   0.947 -0.5408  0.0876 -1.1014
18958TIP3    H278366   6.372   6.465   0.915 -0.8325 -0.2301  0.6811
18959TIP3   OH278367   2.224   5.390   1.828  0.5064  0.0170 -0.2336
18959TIP3    H178368   2.220   5.477   1.867  1.3998 -0.3811  0.7770
18959TIP3    H278369   2.302   5.349   1.866 -0.0179 -1.3103 -0.5213
18960TIP3   OH278370   0.670   2.078  16.130  0.5603  0.1512  0.2074
18960TIP3    H178371   0.676   1.983  16.119  0.2598  0.0275  1.0539
18960TIP3    H278372   0.586   2.101  16.091  0.5513  0.0478  0.1650
18961TIP3   OH278373   0.603   4.697  15.549 -0.0301  0.0369  0.2209
18961TIP3    H178374   0.672   4.666  15.491 -0.9993  0.0844 -0.9904
18961TIP3    H278375   0.567   4.774  15.505 -1.1821 -0.2787  0.5619
18962TIP3   OH278376   0.016   5.820  13.541  0.2560 -0.1354  0.0383
18962TIP3    H178377   0.015   5.889  13.475  0.3283 -0.6338 -0.4913
18962TIP3    H278378   0.103   5.827  13.581  0.1102  0.3495  0.2870
18963TIP3   OH278379   5.125   1.965  17.065  0.1976  0.3028  0.9264
18963TIP3    H178380   5.064   1.917  17.119 -1.5607  0.7367 -0.5520
18963TIP3    H278381   5.087   1.962  16.977  1.6681  1.6516  0.1803
18964TIP3   OH278382   3.343   0.665   0.945  0.3733 -0.4967  0.3474
18964TIP3    H178383   3.369   0.752   0.974 -1.5929  0.7658 -1.3830
18964TIP3    H278384   3.260   0.649   0.990 -0.0573 -0.7726 -0.5226
18965TIP3   OH278385   0.023   1.423   0.498 -0.0234  0.5334  0.0182
18965TIP3    H178386  -0.061   1.459   0.468  0.2600  1.7061  0.5790
18965TIP3    H278387   0.087   1.491   0.477  0.4303  0.6716  1.7355
18966TIP3   OH278388   6.681   4.449   5.635 -0.2472 -0.3303  0.1683
18966TIP3    H178389   6.743   4.440   5.563 -0.3300 -4.0941  0.3733
18966TIP3    H278390   6.595   4.443   5.594 -0.3230 -1.0032  0.4116
18967TIP3   OH278391   6.040   3.447  15.196  0.4844  0.0081  0.7889
18967TIP3    H178392   6.091   3.466  15.117  0.3012  0.0748  0.6839
18967TIP3    H278393   6.099   3.397  15.252  1.4161  1.9218  1.5940
18968TIP3   OH278394   2.710   4.624  15.782  0.5377 -0.4305 -0.0446
18968TIP3    H178395   2.619   4.608  15.755 -0.3998  2.4244  0.9496
18968TIP3    H278396   2.709   4.609  15.877  1.5929 -2.0169 -0.2518
18969TIP3   OH278397   5.625   3.778  10.977 -0.0520 -0.2227 -0.8458
18969TIP3    H178398   5.719   3.760  10.973 -0.2437 -1.2828 -0.8911
18969TIP3    H278399   5.588   3.701  11.019 -0.9679 -0.0781 -1.3625
18970TIP3   OH278400   1.968   3.178  14.756 -0.1679 -0.2783 -0.3208
18970TIP3    H178401   2.023   3.137  14.689  0.7740  0.3173  0.0582
18970TIP3    H278402   1.972   3.117  14.830 -0.1793 -0.3408 -0.3726
18971TIP3   OH278403   4.122   6.710  14.074 -0.5415  0.4486 -0.3254
18971TIP3    H178404   4.056   6.673  14.015 -1.1227  1.1686 -0.1518
18971TIP3    H278405   4.137   6.642  14.139 -2.9797  1.1117  1.0812
18972TIP3   OH278406   1.403   4.840   4.644 -0.0761  0.4344  0.0820
18972TIP3    H178407   1.386   4.931   4.619 -3.8423 -0.0601  0.3505
18972TIP3    H278408   1.389   4.838   4.739  1.4312 -0.2255  0.3288
18973TIP3   OH278409   6.525   5.992  11.397  0.2324 -0.6745  0.3232
18973TIP3    H178410   6.618   6.017  11.393 -0.1349  0.6314 -0.6980
18973TIP3    H278411   6.482   6.069  11.433 -0.5310 -1.0827  0.2851
18974TIP3   OH278412   6.670   3.712  13.737  0.1550 -0.3034  0.5371
18974TIP3    H178413   6.660   3.759  13.654  0.5745 -0.7938  0.2059
18974TIP3    H278414   6.712   3.776  13.795 -1.2119  0.4392  0.7482
18975TIP3   OH278415   4.540   3.027   4.920  0.1926  0.0461  0.2488
18975TIP3    H178416   4.460   3.037   4.868  0.1304  0.9566  0.5035
18975TIP3    H278417   4.515   2.971   4.993 -0.2824  0.5518  0.4736
18976TIP3   OH278418   2.428   4.052  14.184 -0.1338  0.1337  0.1516
18976TIP3    H178419   2.415   4.075  14.092  0.6971 -0.6451 -0.1737
18976TIP3    H278420   2.384   4.122  14.232 -0.8889  0.3695 -0.8337
18977TIP3   OH278421   2.247   5.011   6.129  0.0330 -0.2940  0.0831
18977TIP3    H178422   2.255   4.967   6.045  2.3479  0.2020 -0.0237
18977TIP3    H278423   2.189   5.085   6.112  2.6650  1.5015 -1.8995
18978TIP3   OH278424   6.254   4.159   2.832  0.5370  0.6269  0.6643
18978TIP3    H178425   6.165   4.157   2.868  0.3918  0.0564  0.2766
18978TIP3    H278426   6.308   4.189   2.905  0.2515 -0.6012  1.4171
18979TIP3   OH278427   2.889   4.052  12.368  0.2478  0.1084  0.6229
18979TIP3    H178428   2.940   4.026  12.445  2.6732 -0.0723 -0.9328
18979TIP3    H278429   2.815   3.991  12.366  0.1889  0.0457  2.7009
18980TIP3   OH278430   3.971   0.732   0.792 -0.4518  0.7072  0.3047
18980TIP3    H178431   3.932   0.819   0.801 -1.7050  0.4444 -1.8444
18980TIP3    H278432   4.041   0.744   0.728 -1.5151 -0.0504 -1.0679
18981TIP3   OH278433   2.314   2.625  13.708 -0.0698 -0.3914 -0.8031
18981TIP3    H178434   2.253   2.695  13.730 -0.6025 -0.6138 -1.5206
18981TIP3    H278435   2.339   2.587  13.793  0.3029  0.7110 -0.4015
18982TIP3   OH278436   6.340   1.294   6.869 -0.3518 -0.2916 -0.5411
18982TIP3    H178437   6.280   1.368   6.861  1.6123  1.2928 -1.8260
18982TIP3    H278438   6.425   1.330   6.844  2.1426 -1.2696  5.0264
18983TIP3   OH278439   0.149   0.813   4.972  0.3586 -0.1320 -0.2847
18983TIP3    H178440   0.203   0.847   5.043 -0.3745  0.7476 -0.1305
18983TIP3    H278441   0.074   0.773   5.016 -0.3644  0.8863 -0.5668
18984TIP3   OH278442   3.486   2.025  13.564 -0.0742 -0.2988  0.1966
18984TIP3    H178443   3.495   1.961  13.493 -1.3840 -0.9392  0.5779
18984TIP3    H278444   3.511   2.108  13.524 -1.0430 -0.5998 -1.0998
18985TIP3   OH278445   4.534   3.695  17.132 -0.1223 -0.0881  0.1141
18985TIP3    H178446   4.608   3.735  17.178  0.3346 -0.9872  0.1829
18985TIP3    H278447   4.467   3.686  17.200  0.2168 -0.5555  0.3984
18986TIP3   OH278448   2.851   0.788  13.554  0.0514 -0.2553  0.3602
18986TIP3    H178449   2.944   0.765  13.562 -0.2191 -1.8596 -0.6892
18986TIP3    H278450   2.850   0.883  13.550  2.0594 -0.1937 -3.2098
18987TIP3   OH278451   5.498   1.652  16.648  0.0905  0.4480 -0.5410
18987TIP3    H178452   5.550   1.685  16.722  1.5269 -1.8595 -0.4064
18987TIP3    H278453   5.407   1.664  16.676  0.5510 -1.3310  2.1866
18988TIP3   OH278454   5.039   1.161   2.717 -0.2385  0.1268  0.2899
18988TIP3    H178455   5.117   1.108   2.705 -0.2182  0.3525 -0.6528
18988TIP3    H278456   5.069   1.238   2.765 -0.0556 -0.1913  0.6920
18989TIP3   OH278457   2.807   1.915  13.189 -0.2972  0.1236  0.5854
18989TIP3    H178458   2.890   1.873  13.212 -0.9783 -0.7557  1.5138
18989TIP3    H278459   2.832   1.990  13.134  1.0133 -0.9205 -0.3073
18990TIP3   OH278460   1.833   1.961  16.024 -0.0731 -0.3023 -0.1971
18990TIP3    H178461   1.898   2.028  16.046  0.1809 -0.4055 -0.6171
18990TIP3    H278462   1.833   1.902  16.099 -0.9879  0.6811  0.6089
18991TIP3   OH278463   1.346   1.241   1.541  0.1481  0.2731  0.2325
18991TIP3    H178464   1.390   1.276   1.619  0.5023 -0.7152  0.4975
18991TIP3    H278465   1.318   1.153   1.567 -0.1801  0.1182 -0.6024
18992TIP3   OH278466   4.410   0.879   1.571 -0.1853 -0.4706 -0.2631
18992TIP3    H178467   4.419   0.915   1.483  1.6765  0.3547  0.2140
18992TIP3    H278468   4.434   0.787   1.562  0.0521 -0.3759 -0.6031
18993TIP3   OH278469   5.122   4.451  17.477  0.4094  0.1641  0.1606
18993TIP3    H178470   5.197   4.425  17.529  1.0995  0.5279 -0.6289
18993TIP3    H278471   5.133   4.405  17.394  0.1816  0.8163 -0.2411
18994TIP3   OH278472   3.748   3.847   0.766 -0.0988  0.8102 -0.6389
18994TIP3    H178473   3.741   3.921   0.826 -0.0558  0.4484 -0.1806
18994TIP3    H278474   3.841   3.823   0.769 -0.3870 -0.2313  0.4027
18995TIP3   OH278475   6.321   3.116   4.014  0.2489 -0.3994 -0.2123
18995TIP3    H178476   6.285   3.077   3.934  1.3114  0.8223 -1.3183
18995TIP3    H278477   6.347   3.041   4.067  1.1895 -1.2400 -1.7882
18996TIP3   OH278478   2.205   4.187  15.000  0.7790  0.0156  0.4518
18996TIP3    H178479   2.177   4.096  15.006 -0.7808  0.4763  0.6717
18996TIP3    H278480   2.175   4.227  15.082 -0.8680  1.2834 -0.6915
18997TIP3   OH278481   4.458   6.334  14.102  0.6437  0.4393  0.2783
18997TIP3    H178482   4.390   6.390  14.140 -1.1829 -0.9947 -0.7685
18997TIP3    H278483   4.508   6.393  14.045 -1.1589  1.1106 -0.6990
18998TIP3   OH278484   5.000   1.701   6.068 -0.5706  0.0844 -0.8801
18998TIP3    H178485   4.978   1.748   6.149  0.9565 -0.3258 -0.2043
18998TIP3    H278486   5.031   1.769   6.009  1.5767  0.0141  0.0754
18999TIP3   OH278487   1.851   2.273   3.299  0.0577  0.4671  0.0035
18999TIP3    H178488   1.904   2.195   3.317  1.2888  1.6803  1.9605
18999TIP3    H278489   1.762   2.239   3.285  0.9529 -1.4590 -1.5877
19000TIP3   OH278490   1.390   3.702  15.528  0.1983 -0.0309 -0.4432
19000TIP3    H178491   1.399   3.653  15.609 -0.0585  0.4878 -0.0981
19000TIP3    H278492   1.472   3.751  15.520  0.5428 -0.6595 -0.8950
19001TIP3   OH278493   6.728   5.444   0.896  0.6100  0.2104  0.1358
19001TIP3    H178494   6.633   5.451   0.886  0.6579  0.0854 -0.4465
19001TIP3    H278495   6.761   5.436   0.807  1.0012 -1.7031  0.4110
19002TIP3   OH278496   3.683   0.828  12.313 -0.0634  0.1333 -0.4009
19002TIP3    H178497   3.662   0.882  12.237 -1.1724 -1.8189 -1.5541
19002TIP3    H278498   3.676   0.738  12.282  2.8211 -0.7698  1.1306
19003TIP3   OH278499   3.201   3.191   3.165  0.1082 -0.0701 -0.6659
19003TIP3    H178500   3.187   3.256   3.235  0.3317 -0.8865  0.1603
19003TIP3    H278501   3.272   3.136   3.197 -0.2873 -0.9190 -1.2055
19004TIP3   OH278502   6.411   4.862  15.778  0.3316 -0.3351  0.0931
19004TIP3    H178503   6.347   4.791  15.782 -0.1992  0.1555  0.6428
19004TIP3    H278504   6.363   4.935  15.738  0.3292  0.2363  1.0924
19005TIP3   OH278505   3.723   4.773  13.716  0.1174  0.1015  0.1162
19005TIP3    H178506   3.767   4.697  13.754  0.1092  0.1812  0.2887
19005TIP3    H278507   3.708   4.749  13.625  2.0050  0.6835 -0.4047
19006TIP3   OH278508   5.929   0.641  11.494 -0.4027  0.2489  0.1005
19006TIP3    H178509   6.022   0.654  11.472 -0.0987 -0.7496  0.7112
19006TIP3    H278510   5.899   0.575  11.431 -0.5298  0.1060  0.3119
19007TIP3   OH278511   2.614   5.457   2.953  0.2970  1.2087 -0.0360
19007TIP3    H178512   2.607   5.475   2.859 -0.1556 -2.4299 -0.8748
19007TIP3    H278513   2.685   5.394   2.959 -0.5785  0.3295  1.8630
19008TIP3   OH278514   6.537   2.354  12.231 -0.0941 -0.1579 -0.4933
19008TIP3    H178515   6.507   2.390  12.315  2.4861  0.4475  0.2559
19008TIP3    H278516   6.631   2.340  12.243  0.4823  0.5309 -3.4955
19009TIP3   OH278517   3.958   2.012  12.197 -0.0790  0.1170 -0.2652
19009TIP3    H178518   3.868   1.980  12.209 -0.6105  1.8645  0.6552
19009TIP3    H278519   3.956   2.057  12.112 -1.0170  2.9807  1.1501
19010TIP3   OH278520   1.771   3.070  10.948 -0.0530  0.1743 -0.5975
19010TIP3    H178521   1.865   3.072  10.932 -0.0102 -1.4019 -0.7527
19010TIP3    H278522   1.735   3.137  10.891  0.9057  0.2919 -1.0853
19011TIP3   OH278523   4.205   1.028   3.095  0.4634  0.1055 -0.3514
19011TIP3    H178524   4.237   1.016   3.005  3.0116  0.2049  0.4446
19011TIP3    H278525   4.283   1.016   3.149 -0.7404  1.3413  1.7787
19012TIP3   OH278526   2.962   4.751  15.422 -0.2588  0.6002  0.0635
19012TIP3    H178527   2.988   4.839  15.393 -2.1980  1.4718  0.8053
19012TIP3    H278528   2.922   4.765  15.508 -0.7961 -0.9992  0.0981
19013TIP3   OH278529   3.522   3.496   4.769 -0.1832  0.1168  0.1527
19013TIP3    H178530   3.522   3.436   4.694  0.2312 -1.0800  1.0798
19013TIP3    H278531   3.594   3.464   4.824 -1.2193  0.2481  1.6257
19014TIP3   OH278532   1.178   1.072  12.906  0.1303  0.1749  0.5349
19014TIP3    H178533   1.085   1.087  12.889  0.6638  2.1046 -0.9796
19014TIP3    H278534   1.202   1.139  12.970  0.6317  0.1646  0.3616
19015TIP3   OH278535   0.054   2.095   4.312  0.7807  0.0290 -0.2494
19015TIP3    H178536   0.134   2.139   4.340 -0.7666  1.1095  2.9993
19015TIP3    H278537   0.073   2.002   4.320  2.6808  0.1052 -2.8194
19016TIP3   OH278538   0.155   4.104  15.772  0.3057 -0.2756 -0.7463
19016TIP3    H178539   0.232   4.057  15.740 -0.9167 -0.4950 -3.6996
19016TIP3    H278540   0.188   4.158  15.844  2.4589 -2.9848  0.5227
19017TIP3   OH278541   0.257   5.292   3.922 -0.0470  0.0052  0.7643
19017TIP3    H178542   0.281   5.203   3.946  0.1105 -0.7353 -1.7766
19017TIP3    H278543   0.162   5.294   3.925 -0.0386 -0.1716  1.0943
19018TIP3   OH278544   2.381   2.959   5.649  0.2310  0.0108 -0.2719
19018TIP3    H178545   2.474   2.957   5.675  0.0154  2.1357  0.8331
19018TIP3    H278546   2.338   3.011   5.717 -1.8751 -1.2483 -0.5545
19019TIP3   OH278547   0.733   5.695  12.386  0.1836  0.2896 -0.3345
19019TIP3    H178548   0.781   5.655  12.313  0.5862 -0.2183  0.1956
19019TIP3    H278549   0.793   5.761  12.420  0.1682  0.2345 -0.1999
19020TIP3   OH278550   0.183   0.869   3.076 -0.0833 -0.0215  0.4754
19020TIP3    H178551   0.272   0.901   3.060 -0.0371 -0.3493  0.0580
19020TIP3    H278552   0.133   0.900   3.000 -0.3828  0.3737  0.8297
19021TIP3   OH278553   4.426   3.670   3.963  0.0686 -0.1931 -0.1834
19021TIP3    H178554   4.367   3.712   4.025  0.1731 -1.0257  0.4984
19021TIP3    H278555   4.489   3.623   4.018  0.6229 -0.3223 -0.9122
19022TIP3   OH278556   5.597   3.555   0.927 -0.2681  0.2001  0.0987
19022TIP3    H178557   5.648   3.620   0.879  0.5321  0.2998  1.0222
19022TIP3    H278558   5.523   3.603   0.963 -0.2379  0.3752 -0.0743
19023TIP3   OH278559   1.587   0.334  12.949  0.4777 -0.2501  0.9636
19023TIP3    H178560   1.612   0.352  12.859  2.8236 -2.7210  0.9814
19023TIP3    H278561   1.585   0.419  12.992 -1.4444  1.0849 -1.4916
19024TIP3   OH278562   2.657   3.651   1.563  0.0228 -0.3471 -0.4023
19024TIP3    H178563   2.676   3.600   1.485  2.0767  1.9427 -1.5444
19024TIP3    H278564   2.742   3.682   1.594 -1.0016  1.5212  0.7954
19025TIP3   OH278565   2.298   0.653   2.091  0.3060 -0.0631  0.2878
19025TIP3    H178566   2.240   0.665   2.166  0.9157 -0.6871  0.8727
19025TIP3    H278567   2.369   0.598   2.124  1.1043  0.4768 -0.4778
19026TIP3   OH278568   2.129   3.611  15.221  0.9733  0.4349 -0.4568
19026TIP3    H178569   2.077   3.691  15.220  0.4576  0.1329  0.6091
19026TIP3    H278570   2.073   3.545  15.181  0.9300  0.3396 -0.2404
19027TIP3   OH278571   0.417   3.995  11.988  0.5367  0.1166 -0.1962
19027TIP3    H178572   0.471   3.983  12.066 -0.1444 -1.5147  0.0640
19027TIP3    H278573   0.427   3.914  11.939  0.0569  0.6729 -1.2609
19028TIP3   OH278574   4.175   2.114  13.650 -0.1847  0.3977 -0.3763
19028TIP3    H178575   4.229   2.193  13.652 -0.6348  0.7061  0.2333
19028TIP3    H278576   4.110   2.131  13.583  0.9695 -0.3305 -1.7269
19029TIP3   OH278577   3.673   2.776  16.165  0.1076  0.3885 -0.0106
19029TIP3    H178578   3.716   2.729  16.093  0.1362 -0.5769  0.6186
19029TIP3    H278579   3.647   2.860  16.126  0.8424  0.2140 -0.9200
19030TIP3   OH278580   3.093   2.875  16.960  0.1768 -0.5187  0.1765
19030TIP3    H178581   3.160   2.893  17.026  0.8463 -0.6973 -0.4361
19030TIP3    H278582   3.123   2.922  16.882 -0.1325 -1.0220 -0.2546
19031TIP3   OH278583   2.360   0.549  15.967  0.5143 -0.0644 -0.1278
19031TIP3    H178584   2.298   0.515  16.032  0.6397  0.3144  0.1908
19031TIP3    H278585   2.340   0.642  15.961  1.1298  0.0783  0.0528
19032TIP3   OH278586   6.439   4.082  14.469 -0.6363  0.0232 -0.1677
19032TIP3    H178587   6.480   4.006  14.428  0.9252  0.0727  1.1888
19032TIP3    H278588   6.454   4.154  14.407 -0.7988 -0.4644 -0.7796
19033TIP3   OH278589   5.433   5.292   6.542 -0.1615  0.3828  0.5921
19033TIP3    H178590   5.470   5.219   6.492  1.8791  0.9693  1.1179
19033TIP3    H278591   5.351   5.313   6.498 -0.5607 -1.8633  0.1157
19034TIP3   OH278592   3.009   4.516   2.526 -0.2652 -0.0714  0.4752
19034TIP3    H178593   3.082   4.512   2.465 -0.3662  0.2990  0.3277
19034TIP3    H278594   3.040   4.471   2.605  0.6120  1.2668  0.9253
19035TIP3   OH278595   4.693   4.083   2.456 -0.0045  0.4711 -0.6700
19035TIP3    H178596   4.764   4.068   2.519  0.2310  0.0416 -1.0251
19035TIP3    H278597   4.735   4.129   2.384 -0.1969  0.6515 -0.6658
19036TIP3   OH278598   1.581   5.828  15.822 -0.0525  0.0545  0.0858
19036TIP3    H178599   1.554   5.753  15.768 -1.1049  0.5523 -0.1090
19036TIP3    H278600   1.622   5.888  15.760 -0.6479  0.3288 -0.0485
19037TIP3   OH278601   2.462   1.779   3.614  0.3541 -0.1321  0.0381
19037TIP3    H178602   2.485   1.855   3.668 -1.0566  0.9181 -0.7769
19037TIP3    H278603   2.423   1.717   3.675  2.1264 -0.5246  0.8330
19038TIP3   OH278604   2.645   2.733  11.881 -0.2939  0.2564  0.3616
19038TIP3    H178605   2.706   2.710  11.950 -0.6918  2.1894  1.4370
19038TIP3    H278606   2.686   2.703  11.800  1.6424  0.6810  1.1487
19039TIP3   OH278607   1.149   6.410  13.594 -0.0253 -0.8013 -0.6587
19039TIP3    H178608   1.241   6.435  13.580 -0.2255 -1.2662 -3.4216
19039TIP3    H278609   1.099   6.478  13.550 -0.8969 -1.7662 -1.1917
19040TIP3   OH278610   1.367   2.890  12.909  0.0727 -0.2566 -0.2278
19040TIP3    H178611   1.386   2.809  12.958 -0.3520  0.7417  1.6637
19040TIP3    H278612   1.272   2.893  12.902  0.1388 -1.1675 -2.6062
19041TIP3   OH278613   2.545   3.566   5.426  0.7265  0.5085  0.1120
19041TIP3    H178614   2.452   3.591   5.423  0.1831 -1.1677  1.3594
19041TIP3    H278615   2.558   3.513   5.348  0.0568 -0.9322  0.9344
19042TIP3   OH278616   5.803   0.286  12.511 -0.1544  0.1247 -0.0499
19042TIP3    H178617   5.758   0.239  12.581 -2.0685  0.7068 -0.8235
19042TIP3    H278618   5.896   0.267  12.526 -0.7331 -3.2643  0.1168
19043TIP3   OH278619   2.805   0.959   0.132 -0.5171 -0.4276 -0.1129
19043TIP3    H178620   2.775   1.042   0.095  1.5888  0.6625  0.4932
19043TIP3    H278621   2.879   0.983   0.187 -1.1306 -2.4816  1.7336
19044TIP3   OH278622   3.003   6.469   0.352 -0.1844 -0.2689  0.3254
19044TIP3    H178623   2.963   6.388   0.381  1.0317 -0.8764  0.3692
19044TIP3    H278624   3.091   6.444   0.324 -0.3601  0.7369 -1.2988
19045TIP3   OH278625   5.039   2.808  13.152  0.1468  0.2683 -0.0344
19045TIP3    H178626   5.102   2.743  13.121 -0.4415 -0.1238 -0.4130
19045TIP3    H278627   5.066   2.826  13.242  0.5933 -0.1570 -0.0814
19046TIP3   OH278628   1.347   3.181   1.289 -0.5207  0.6282  0.6991
19046TIP3    H178629   1.287   3.148   1.221 -1.4844  2.7515  0.4295
19046TIP3    H278630   1.428   3.200   1.242 -0.7730  0.9309  0.3835
19047TIP3   OH278631   2.679   6.537   2.031  0.8656 -0.5933  0.1030
19047TIP3    H178632   2.720   6.570   1.952  0.2193 -0.3837 -0.1576
19047TIP3    H278633   2.609   6.479   2.000 -0.1221  0.3552  0.4722
19048TIP3   OH278634   6.491   2.169   4.768 -0.3366  0.2906  1.2700
19048TIP3    H178635   6.564   2.226   4.742 -1.4710  0.8257 -1.0036
19048TIP3    H278636   6.440   2.222   4.829 -1.6597  2.0388 -1.2094
19049TIP3   OH278637   2.170   3.151   0.181 -0.2889 -0.0230  0.5248
19049TIP3    H178638   2.079   3.169   0.157  0.1145  0.2305 -0.9195
19049TIP3    H278639   2.181   3.194   0.266 -0.8905  1.9972 -0.3431
19050TIP3   OH278640   6.466   0.379   6.789  0.5361 -0.3918  0.2306
19050TIP3    H178641   6.559   0.372   6.812  1.5274  0.1519 -3.1162
19050TIP3    H278642   6.440   0.291   6.762  1.2483  0.1220 -2.4124
19051TIP3   OH278643   3.560   1.782   3.523  0.5268 -0.0381 -0.6182
19051TIP3    H178644   3.644   1.751   3.489  0.2467 -0.2123 -1.1528
19051TIP3    H278645   3.536   1.853   3.464  0.7888  0.6929  0.1405
19052TIP3   OH278646   6.358   1.657   0.903 -0.2945  0.3027  0.0664
19052TIP3    H178647   6.442   1.653   0.857  0.4597  0.1911  1.4138
19052TIP3    H278648   6.293   1.657   0.833  0.7648 -1.0506 -0.9809
19053TIP3   OH278649   1.449   3.061  10.962 -0.5526 -0.1211  0.2072
19053TIP3    H178650   1.474   3.134  11.019 -3.1012  0.0844  1.1843
19053TIP3    H278651   1.402   3.001  11.020  0.0534 -1.7694 -0.9405
19054TIP3   OH278652   5.369   1.527   0.505  0.2038 -0.3219  0.4138
19054TIP3    H178653   5.348   1.458   0.442 -1.2089  0.3176  0.1308
19054TIP3    H278654   5.450   1.566   0.473  0.3046 -1.0008 -0.1694
19055TIP3   OH278655   2.886   3.893  13.191  0.4329  0.3134 -0.1332
19055TIP3    H178656   2.883   3.958  13.262 -1.0451 -1.0276  1.1003
19055TIP3    H278657   2.821   3.924  13.128  2.4218  2.0383 -1.4990
19056TIP3   OH278658   0.060   3.374   2.192 -0.2772 -0.1568  0.2809
19056TIP3    H178659   0.049   3.431   2.116 -1.5215  0.4310  0.8775
19056TIP3    H278660   0.143   3.401   2.230  0.1400 -0.1541 -0.6056
19057TIP3   OH278661   5.069   0.746   2.387 -0.4053 -0.0606 -0.0912
19057TIP3    H178662   5.048   0.664   2.341 -0.5575  0.1895 -0.4787
19057TIP3    H278663   5.131   0.790   2.329  0.3839 -0.3115  0.5498
19058TIP3   OH278664   0.331   2.136   1.246 -0.0220 -0.0638  0.3224
19058TIP3    H178665   0.281   2.156   1.167 -1.8037  0.2883  1.4828
19058TIP3    H278666   0.422   2.154   1.221 -0.5403  0.1901 -1.5849
19059TIP3   OH278667   5.414   5.855  14.007  0.8435  0.1142  0.2877
19059TIP3    H178668   5.382   5.767  14.028 -0.3593  0.8321  1.6947
19059TIP3    H278669   5.423   5.898  14.092 -0.3840  1.9339 -0.4301
19060TIP3   OH278670   6.652   3.989  14.617  0.1357 -0.7272 -0.3379
19060TIP3    H178671   6.603   3.909  14.635  0.2225 -1.9211 -4.3889
19060TIP3    H278672   6.587   4.049  14.580  0.5232  0.2442  0.5037
19061TIP3   OH278673   5.504   0.246   3.061  0.3861  0.6373 -1.2552
19061TIP3    H178674   5.476   0.183   2.995 -1.6118  1.5070 -1.3006
19061TIP3    H278675   5.509   0.196   3.142 -0.8195  0.3324 -1.3614
19062TIP3   OH278676   2.649   4.106   0.763  0.2059  0.2148  0.0419
19062TIP3    H178677   2.565   4.139   0.731  0.2304 -0.4147 -0.7006
19062TIP3    H278678   2.632   4.013   0.782  0.2959  0.4855  1.5063
19063TIP3   OH278679   6.431   6.270  17.096  0.6189 -0.2845  0.3165
19063TIP3    H178680   6.478   6.320  17.029 -0.3792  0.5317  0.2084
19063TIP3    H278681   6.371   6.334  17.136  0.6857 -0.9266  1.5004
19064TIP3   OH278682   0.278   6.741   3.441 -0.3659  0.0853  1.1805
19064TIP3    H178683   0.264   6.833   3.419  4.7101  0.9647  0.3883
19064TIP3    H278684   0.252   6.693   3.362  0.0526  1.2445  0.3084
19065TIP3   OH278685   2.329   1.877  10.675 -0.5192  0.4609 -1.0870
19065TIP3    H178686   2.357   1.965  10.702 -1.0227 -0.2709  2.1327
19065TIP3    H278687   2.254   1.893  10.617 -0.9720  2.1782 -0.1021
19066TIP3   OH278688   0.277   4.581  12.126  0.2717  0.3621 -0.9526
19066TIP3    H178689   0.281   4.613  12.035  0.7025  1.2812 -0.6182
19066TIP3    H278690   0.288   4.660  12.179  0.1695 -0.1972 -0.0966
19067TIP3   OH278691   5.504   6.202   4.475 -0.3102 -0.0833  0.0946
19067TIP3    H178692   5.413   6.204   4.506 -0.2870 -1.2614  0.2705
19067TIP3    H278693   5.504   6.137   4.405  0.0806  1.0477 -0.9763
19068TIP3   OH278694   6.549   0.024  14.295 -0.7053 -0.2765  0.2878
19068TIP3    H178695   6.476  -0.035  14.279 -1.6911  0.6619  1.1677
19068TIP3    H278696   6.595   0.029  14.211 -0.5093 -2.3538  0.2180
19069TIP3   OH278697   0.915   5.998  10.899 -0.2606  0.5462  0.1145
19069TIP3    H178698   0.965   5.968  10.823  2.5377 -0.7939  2.2518
19069TIP3    H278699   0.936   6.091  10.908 -1.6695  1.0450 -1.4213
19070TIP3   OH278700   3.448   4.022  12.372  0.4370 -0.1357  0.2982
19070TIP3    H178701   3.366   4.044  12.416  0.0673 -1.2381  0.2012
19070TIP3    H278702   3.497   4.104  12.370 -1.5534  1.1220 -1.5746
19071TIP3   OH278703   1.093   4.921   4.418  0.0572  0.0626 -0.3176
19071TIP3    H178704   1.127   5.005   4.450 -2.6240  1.4533 -0.8583
19071TIP3    H278705   1.047   4.884   4.493 -0.6345  0.1631 -0.6827
19072TIP3   OH278706   5.427   4.527   0.957  0.8509 -0.4192  0.1190
19072TIP3    H178707   5.422   4.614   0.916  0.1765 -0.5770 -0.1493
19072TIP3    H278708   5.452   4.468   0.885 -1.0665 -0.8146 -0.2662
19073TIP3   OH278709   0.491   3.865  17.333  1.4466  0.1176 -0.3789
19073TIP3    H178710   0.556   3.805  17.368 -0.0911 -1.2771  0.1814
19073TIP3    H278711   0.407   3.825  17.353  0.3772  1.9513 -0.9211
19074TIP3   OH278712   0.954   5.813  16.151 -0.1336 -0.5391  0.4639
19074TIP3    H178713   1.048   5.826  16.141 -0.2090 -0.3293 -0.0213
19074TIP3    H278714   0.922   5.799  16.062 -0.7529  0.7579  0.4547
19075TIP3   OH278715   4.102   4.767   4.822 -0.2873 -0.0119  0.2163
19075TIP3    H178716   4.119   4.802   4.910 -3.5417  1.9286  0.2480
19075TIP3    H278717   4.033   4.702   4.835  0.4482 -1.0195 -0.7489
19076TIP3   OH278718   6.680   2.078   0.785 -0.6330 -0.6352 -0.2221
19076TIP3    H178719   6.694   2.011   0.718  1.1230 -0.6694  0.1285
19076TIP3    H278720   6.740   2.054   0.856 -0.6643  0.7745  0.3194
19077TIP3   OH278721   3.309   0.931  11.723 -0.0285 -0.0392  0.1114
19077TIP3    H178722   3.335   1.022  11.732 -1.3062  0.2771  0.8284
19077TIP3    H278723   3.313   0.913  11.629 -0.8034  1.0800 -0.1481
19078TIP3   OH278724   5.219   0.711   3.321  0.3119  0.3451 -0.8424
19078TIP3    H178725   5.263   0.795   3.337  0.4792  0.1597 -0.2873
19078TIP3    H278726   5.280   0.645   3.354 -0.6300  0.1183  0.5421
19079TIP3   OH278727   2.341   0.274  17.247  0.1706 -0.3235  0.2877
19079TIP3    H178728   2.267   0.222  17.280 -2.9019  2.7250 -1.1925
19079TIP3    H278729   2.351   0.345  17.311 -1.1152  1.6370 -1.5553
19080TIP3   OH278730   4.990   2.848  17.396 -0.3399 -0.2490  0.3286
19080TIP3    H178731   5.072   2.888  17.366 -0.5170  2.7220  3.1717
19080TIP3    H278732   4.925   2.874  17.330  0.3350  0.6964  0.0090
19081TIP3   OH278733   4.779   4.229   6.517  0.0031  0.2948  0.1670
19081TIP3    H178734   4.780   4.150   6.464  2.4357  0.3347  0.0804
19081TIP3    H278735   4.744   4.201   6.602 -1.9399 -0.1894 -0.7210
19082TIP3   OH278736   5.605   5.123   0.653  0.1071  0.7040 -0.0516
19082TIP3    H178737   5.677   5.156   0.598 -0.2096  1.6666  0.1112
19082TIP3    H278738   5.529   5.173   0.625 -0.1092  1.0289  1.0971
19083TIP3   OH278739   0.622   4.143  11.263  0.2108 -0.2772 -0.6967
19083TIP3    H178740   0.574   4.225  11.265  1.0120  0.2027 -0.5587
19083TIP3    H278741   0.657   4.137  11.174  1.1036  0.1115 -0.3889
19084TIP3   OH278742   4.074   2.571  16.998 -0.1716  0.4516 -0.1812
19084TIP3    H178743   4.008   2.639  17.010 -0.0923  0.1237  3.1561
19084TIP3    H278744   4.034   2.491  17.034  1.0687 -0.3792 -0.5568
19085TIP3   OH278745   5.870   4.084   0.299 -0.6004 -0.4433  0.0335
19085TIP3    H178746   5.959   4.074   0.266 -0.6167 -2.5210  0.5056
19085TIP3    H278747   5.813   4.053   0.229 -0.9458  0.3207 -0.0416
19086TIP3   OH278748   1.177   6.582  11.880  0.4154  0.3994  0.6556
19086TIP3    H178749   1.258   6.561  11.926 -0.2351 -1.8761  0.9184
19086TIP3    H278750   1.153   6.669  11.912  3.7223  2.0633 -0.9489
19087TIP3   OH278751   5.009   3.554  13.887 -0.1690 -0.4021  0.3200
19087TIP3    H178752   5.088   3.504  13.864 -0.7128 -1.5660  0.9090
19087TIP3    H278753   5.010   3.628  13.827  0.1991 -1.5919 -1.2290
19088TIP3   OH278754   5.646   5.317  14.508 -0.0224 -0.5292  0.1969
19088TIP3    H178755   5.681   5.340  14.422 -0.8869 -0.8511 -0.2551
19088TIP3    H278756   5.711   5.350  14.570  0.7455 -0.5338 -0.5827
19089TIP3   OH278757   3.572   1.363   0.346  0.5363 -0.1873 -0.2845
19089TIP3    H178758   3.639   1.298   0.327  0.5237  0.4397 -2.9366
19089TIP3    H278759   3.526   1.375   0.262 -1.8036  0.6234  1.0190
19090TIP3   OH278760   5.413   0.471   1.576  0.3124  0.1381  0.1749
19090TIP3    H178761   5.388   0.563   1.577 -0.0895  0.0346 -0.0557
19090TIP3    H278762   5.507   0.471   1.594  0.8098  0.7571 -2.1847
19091TIP3   OH278763   5.063   0.145  14.574  0.1374  0.3791  0.0224
19091TIP3    H178764   5.137   0.198  14.605 -0.0314  1.1959 -0.9070
19091TIP3    H278765   4.986   0.199  14.593 -0.0147  0.6274 -1.1969
19092TIP3   OH278766   1.969   0.929  17.065  0.5591  0.5921  0.1168
19092TIP3    H178767   2.042   0.990  17.069 -0.7899  2.2470  0.6565
19092TIP3    H278768   1.932   0.943  16.978  2.3556 -2.1430 -1.2364
19093TIP3   OH278769   3.951   6.085  13.373 -0.0643  0.9720  0.4993
19093TIP3    H178770   4.037   6.120  13.396  0.2394 -0.4749  1.6888
19093TIP3    H278771   3.924   6.035  13.449 -0.4592 -1.3457 -1.0590
19094TIP3   OH278772   2.291   4.547   2.415 -0.0938  0.6424  0.0921
19094TIP3    H178773   2.323   4.498   2.491 -1.9489  0.0882  0.5719
19094TIP3    H278774   2.245   4.622   2.453  0.6447  1.4530 -0.5708
19095TIP3   OH278775   6.352   5.903  12.095  0.0196 -0.1833 -0.1187
19095TIP3    H178776   6.258   5.907  12.078 -0.2099  0.5287  1.2294
19095TIP3    H278777   6.393   5.938  12.016 -0.8298 -0.7717 -0.8285
19096TIP3   OH278778   6.465   6.285   4.372  0.3791 -0.1312 -0.0940
19096TIP3    H178779   6.532   6.337   4.328 -0.4560  0.5458 -0.6084
19096TIP3    H278780   6.399   6.268   4.304  0.1820 -1.0622  0.3102
19097TIP3   OH278781   5.838   3.892  16.397 -0.2008 -0.4308 -0.6619
19097TIP3    H178782   5.785   3.823  16.439 -0.0846  0.0064  0.2323
19097TIP3    H278783   5.878   3.849  16.322 -0.7965 -1.1176 -0.6020
19098TIP3   OH278784   2.626   3.358  16.507  0.2593 -0.0377  0.2166
19098TIP3    H178785   2.665   3.318  16.584 -1.0262 -1.0059  0.4031
19098TIP3    H278786   2.693   3.419  16.474  1.0730 -0.1026  1.6915
19099TIP3   OH278787   5.427   3.310   2.111  0.2632 -0.3279 -0.4691
19099TIP3    H178788   5.442   3.216   2.108  1.2514 -0.2459  0.7935
19099TIP3    H278789   5.362   3.322   2.180  0.1466 -0.0791 -0.6202
19100TIP3   OH278790   5.319   1.427   4.602  0.6666 -0.0205 -0.2871
19100TIP3    H178791   5.350   1.411   4.513  1.1509 -0.6448 -0.0138
19100TIP3    H278792   5.398   1.447   4.652  0.4507 -0.0885  0.0922
19101TIP3   OH278793   2.928   5.142  11.813  0.0248  0.2984  0.0653
19101TIP3    H178794   2.974   5.183  11.740  1.4304 -1.7518 -0.2905
19101TIP3    H278795   2.840   5.126  11.780  0.3870  0.1983 -0.8858
19102TIP3   OH278796   5.174   3.922  14.540 -0.2738 -0.0655 -0.6213
19102TIP3    H178797   5.269   3.910  14.543 -0.3614 -0.5839  0.6135
19102TIP3    H278798   5.145   3.871  14.465  0.4465  0.3110 -1.1652
19103TIP3   OH278799   2.254   6.658  11.859 -0.0413 -0.1703  0.1792
19103TIP3    H178800   2.253   6.753  11.873 -2.4137  0.0266 -0.8984
19103TIP3    H278801   2.258   6.621  11.947  3.6117  0.8303  0.5748
19104TIP3   OH278802   6.733   0.752  14.961 -0.1751 -0.0566 -0.1379
19104TIP3    H178803   6.793   0.727  15.031 -2.0104  0.4083  1.6896
19104TIP3    H278804   6.746   0.687  14.893  1.3966 -0.7483  0.7946
19105TIP3   OH278805   1.029   6.123  12.435  0.7803 -0.4656 -0.3520
19105TIP3    H178806   1.022   6.107  12.530  0.9652 -0.8283 -0.3967
19105TIP3    H278807   1.048   6.216  12.428 -2.0082  0.2203 -0.1404
19106TIP3   OH278808   2.301   0.944  16.206 -0.0871 -0.0459  0.3216
19106TIP3    H178809   2.363   0.956  16.278 -1.3246  0.7562  1.2703
19106TIP3    H278810   2.241   0.876  16.236 -1.3530  1.1493  0.5970
19107TIP3   OH278811   2.453   5.065  15.605  0.4035 -0.1596 -0.5574
19107TIP3    H178812   2.444   5.112  15.688 -0.3058 -0.7849 -0.2716
19107TIP3    H278813   2.547   5.045  15.599  0.6588  0.9809 -0.5236
19108TIP3   OH278814   1.454   4.019  12.604 -0.0688  0.2763 -0.1879
19108TIP3    H178815   1.388   4.084  12.579 -1.4707 -0.9378  0.1497
19108TIP3    H278816   1.429   3.993  12.693  1.4150  0.4244  0.2954
19109TIP3   OH278817   1.765   5.403   2.247  0.1746 -0.2083 -0.2621
19109TIP3    H178818   1.694   5.363   2.297  0.0993  0.1000 -0.1205
19109TIP3    H278819   1.817   5.449   2.313  1.1660 -1.3763 -0.1796
19110TIP3   OH278820   2.061   0.635  12.402  0.3824  0.2043 -0.3389
19110TIP3    H178821   2.045   0.725  12.427 -0.8963  0.0167 -0.4221
19110TIP3    H278822   2.110   0.597  12.475 -0.8502  0.4235  0.6329
19111TIP3   OH278823   3.308   6.653  16.283  0.1011 -0.1886  0.3211
19111TIP3    H178824   3.226   6.689  16.317 -1.3054 -1.6760 -1.3227
19111TIP3    H278825   3.281   6.584  16.223  2.5880 -0.8475 -0.1464
19112TIP3   OH278826   0.495   0.353  16.016  0.0746  0.1062  0.0741
19112TIP3    H178827   0.435   0.376  16.087  0.3504  1.5800 -0.1301
19112TIP3    H278828   0.442   0.357  15.937  0.1877  0.3598  0.0086
19113TIP3   OH278829   4.729   6.153  17.401  0.0569 -0.3580  0.4409
19113TIP3    H178830   4.670   6.199  17.341 -0.3513  0.2551  1.2914
19113TIP3    H278831   4.672   6.094  17.450  0.3932 -0.8712  0.2316
19114TIP3   OH278832   3.844   2.827   4.095  0.1006  0.0290  0.7656
19114TIP3    H178833   3.756   2.863   4.096  0.4166  0.8476  0.2559
19114TIP3    H278834   3.900   2.899   4.123  0.7112 -0.1712  0.1013
19115TIP3   OH278835   4.396   1.768  12.211 -0.1692  0.0500 -0.7511
19115TIP3    H178836   4.396   1.724  12.296 -1.3142  1.1516 -0.1396
19115TIP3    H278837   4.404   1.698  12.147  0.6183 -0.8160  0.2465
19116TIP3   OH278838   5.432   3.450  13.278 -0.0433  0.4334  0.0273
19116TIP3    H178839   5.505   3.407  13.321 -1.7747 -2.0793  0.6972
19116TIP3    H278840   5.419   3.531  13.327  1.4064  0.2640  0.7333
19117TIP3   OH278841   3.591   5.743  12.900  0.2934  0.0951  0.2880
19117TIP3    H178842   3.558   5.788  12.823  0.1837  0.9821  0.8496
19117TIP3    H278843   3.624   5.660  12.866 -2.2410 -0.7559 -0.3525
19118TIP3   OH278844   1.237   5.840  12.521 -0.6842 -0.1069  0.0427
19118TIP3    H178845   1.279   5.806  12.442 -0.3003  1.2001 -0.3440
19118TIP3    H278846   1.273   5.928  12.531 -1.4048  0.0760  1.1758
19119TIP3   OH278847   0.086   5.707  12.204  0.2220  0.2987 -0.1234
19119TIP3    H178848   0.018   5.692  12.138  0.3176 -0.2563 -0.1054
19119TIP3    H278849   0.086   5.626  12.256 -0.0160  0.8213  0.7093
19120TIP3   OH278850   3.690   0.471   6.595 -0.2279  0.1809 -0.3035
19120TIP3    H178851   3.771   0.518   6.613  1.1439 -2.1366  0.0613
19120TIP3    H278852   3.637   0.482   6.674 -0.7217  2.4341 -0.8723
19121TIP3   OH278853   0.425   2.347   2.382  0.2343  0.1360  0.7206
19121TIP3    H178854   0.407   2.438   2.360  0.1591  0.3649  1.6925
19121TIP3    H278855   0.453   2.307   2.299 -0.1586  0.9276  0.1971
19122TIP3   OH278856   2.020   0.009   5.475 -0.5642 -0.0387  0.2121
19122TIP3    H178857   2.090  -0.041   5.516 -0.2844  0.1517 -0.0293
19122TIP3    H278858   1.940  -0.026   5.514 -0.3019  0.1985  0.9947
19123TIP3   OH278859   6.139   3.694   1.431  0.3165 -0.2292 -0.6153
19123TIP3    H178860   6.113   3.624   1.492  0.3988 -0.4809 -0.8653
19123TIP3    H278861   6.171   3.764   1.488 -1.4166  0.3171 -0.2668
19124TIP3   OH278862   5.455   1.392   1.467 -0.2119  0.8122 -0.5219
19124TIP3    H178863   5.437   1.470   1.414 -1.2627  0.7512 -0.2889
19124TIP3    H278864   5.368   1.354   1.483  0.1689  0.3147  0.4526
19125TIP3   OH278865   2.957   0.319  12.619 -0.1126  0.2566 -0.5644
19125TIP3    H178866   3.022   0.387  12.633 -0.4460  0.3265  0.8806
19125TIP3    H278867   2.873   0.365  12.623 -0.2857  0.0600 -1.6679
19126TIP3   OH278868   1.533   3.169   5.549 -0.3133 -0.4967 -0.5224
19126TIP3    H178869   1.503   3.176   5.640  0.1128  1.2818 -0.4765
19126TIP3    H278870   1.454   3.150   5.499 -0.9736  0.7551 -0.0148
19127TIP3   OH278871   3.550   5.212  13.087  0.2450  0.0282  0.3504
19127TIP3    H178872   3.624   5.250  13.041  0.5653 -0.1255  0.7377
19127TIP3    H278873   3.579   5.125  13.112  0.0603  0.0952  0.8117
19128TIP3   OH278874   6.069   0.934   1.734 -0.1430  0.4937  0.1808
19128TIP3    H178875   6.141   0.940   1.672  0.1998  0.4358  0.5748
19128TIP3    H278876   6.110   0.920   1.819 -0.6010  0.8407  0.4669
19129TIP3   OH278877   0.655   0.603  15.308  0.6852 -0.0105  0.0733
19129TIP3    H178878   0.647   0.691  15.271  0.9518  0.1130  0.3085
19129TIP3    H278879   0.600   0.606  15.386  0.5009 -0.1263 -0.0526
19130TIP3   OH278880   5.128   3.300   3.181 -0.0398  0.3748 -0.3274
19130TIP3    H178881   5.125   3.390   3.211 -0.5310  0.6246 -1.0829
19130TIP3    H278882   5.215   3.269   3.206 -0.1020  0.8480  0.5058
19131TIP3   OH278883   2.396   0.795   5.829 -0.0245 -0.5489 -0.1761
19131TIP3    H178884   2.476   0.842   5.805 -1.2585  0.9577 -1.5879
19131TIP3    H278885   2.394   0.797   5.924  0.4132  1.6181 -0.1597
19132TIP3   OH278886   4.876   3.837   0.142 -0.1076  0.4186  0.6743
19132TIP3    H178887   4.868   3.932   0.156 -2.8831  0.2792  0.6773
19132TIP3    H278888   4.785   3.806   0.138  0.6532 -1.8625 -1.9969
19133TIP3   OH278889   2.679   5.691   1.494  0.3137 -0.4432  0.3239
19133TIP3    H178890   2.642   5.703   1.406 -0.2794  0.4553  0.6781
19133TIP3    H278891   2.603   5.681   1.551  0.6918 -0.8798  0.7633
19134TIP3   OH278892   6.287   2.643   2.407 -0.2905  0.3627  0.5006
19134TIP3    H178893   6.324   2.638   2.496  1.1765  0.5029 -0.0802
19134TIP3    H278894   6.287   2.553   2.376 -1.8657  0.1472  1.0257
19135TIP3   OH278895   1.175   1.470   2.845  0.3957 -0.4989 -0.2271
19135TIP3    H178896   1.136   1.398   2.795  1.0008 -0.0126 -1.4457
19135TIP3    H278897   1.262   1.438   2.869 -0.2040 -1.0666  1.3236
19136TIP3   OH278898   0.393   1.478  16.690 -0.0029 -0.4196  0.0944
19136TIP3    H178899   0.385   1.436  16.776 -1.2927  1.2502  0.8365
19136TIP3    H278900   0.484   1.505  16.685 -0.3050  1.0484  1.7432
19137TIP3   OH278901   3.950   2.092   3.229 -0.3210 -0.4269 -0.4292
19137TIP3    H178902   4.010   2.167   3.235 -0.5683 -0.3435  3.4659
19137TIP3    H278903   3.974   2.049   3.147  2.9429  1.3547 -0.5800
19138TIP3   OH278904   2.629   2.737  12.219 -0.3797  0.6142  0.9698
19138TIP3    H178905   2.560   2.778  12.168 -0.8924 -0.4083  0.8137
19138TIP3    H278906   2.603   2.645  12.225  0.6099  0.3541  1.5065
19139TIP3   OH278907   6.201   6.219  13.506 -0.4437 -0.4345 -0.0122
19139TIP3    H178908   6.261   6.161  13.552 -0.8934  0.3808  1.6696
19139TIP3    H278909   6.248   6.302  13.497 -0.4734 -0.4903 -0.7821
19140TIP3   OH278910   4.197   1.415  16.749  0.2767 -0.1884 -0.4472
19140TIP3    H178911   4.126   1.375  16.698 -0.6353 -0.5817  1.0727
19140TIP3    H278912   4.273   1.411  16.691  0.2570 -4.1485 -0.4470
19141TIP3   OH278913   3.184   3.923  14.543 -0.2494  0.4533  0.1620
19141TIP3    H178914   3.263   3.959  14.583 -0.1085 -0.3941  0.6657
19141TIP3    H278915   3.213   3.841  14.503 -0.3807  1.2562 -1.6925
19142TIP3   OH278916   2.015   1.848  11.196  0.0816 -0.0299  0.5020
19142TIP3    H178917   2.102   1.879  11.217  0.4776 -0.2808 -0.6881
19142TIP3    H278918   2.007   1.861  11.101 -1.1854  0.0327  0.6013
19143TIP3   OH278919   0.989   1.495   3.583 -0.3600 -0.0297 -0.2942
19143TIP3    H178920   0.903   1.519   3.618 -1.2341 -0.2736 -2.1775
19143TIP3    H278921   0.982   1.509   3.489  1.0274 -1.9116 -0.7448
19144TIP3   OH278922   4.099   4.342   3.889 -0.0197 -0.1133  0.4660
19144TIP3    H178923   4.080   4.263   3.939 -0.8954  0.5952  1.2768
19144TIP3    H278924   4.077   4.414   3.947  0.5238  0.7443 -0.3517
19145TIP3   OH278925   4.847   5.543  15.923 -0.7035  0.2667 -0.0752
19145TIP3    H178926   4.860   5.470  15.984 -1.3198 -0.2635 -0.5467
19145TIP3    H278927   4.808   5.501  15.845 -1.1995  1.1216 -0.2998
19146TIP3   OH278928   3.258   3.312  12.458  0.6493 -0.0729 -0.3130
19146TIP3    H178929   3.229   3.403  12.453  0.9887  0.0222 -0.5579
19146TIP3    H278930   3.350   3.317  12.482  0.8634 -0.3286 -1.0527
19147TIP3   OH278931   0.475   3.481  17.323  0.4964 -0.6105 -0.4624
19147TIP3    H178932   0.543   3.509  17.383  0.0084 -0.0282 -0.1679
19147TIP3    H278933   0.417   3.557  17.316 -0.2047 -1.1501 -0.5822
19148TIP3   OH278934   5.130   0.958   3.142  0.2090 -0.1044 -0.0971
19148TIP3    H178935   5.210   1.007   3.121  0.0547 -0.2126 -0.9818
19148TIP3    H278936   5.120   0.896   3.069 -0.7364 -0.0231 -0.0489
19149TIP3   OH278937   3.632   4.763   0.496  0.3406  0.1863 -0.1806
19149TIP3    H178938   3.713   4.770   0.445 -0.1517  2.5410 -0.7215
19149TIP3    H278939   3.584   4.691   0.455  1.4060 -0.1210 -0.9351
19150TIP3   OH278940   4.971   3.579  16.226 -0.5011  0.7086 -0.3520
19150TIP3    H178941   5.063   3.555  16.213  0.0650  2.5866 -0.1038
19150TIP3    H278942   4.970   3.620  16.313 -1.4986  1.0945 -0.5438
19151TIP3   OH278943   6.386   4.097   4.675  0.4487  0.3823  0.4163
19151TIP3    H178944   6.305   4.058   4.643  0.4999  0.5893  0.0313
19151TIP3    H278945   6.368   4.191   4.679  0.8511  0.4934 -0.2216
19152TIP3   OH278946   5.982   4.233   2.529  0.0818  0.4284 -0.0576
19152TIP3    H178947   5.900   4.271   2.560  0.0394  0.0835  0.2548
19152TIP3    H278948   6.035   4.308   2.502 -1.5083  0.5626 -3.2983
19153TIP3   OH278949   6.291   4.993  11.427 -0.2577  0.5095 -0.3323
19153TIP3    H178950   6.360   4.951  11.375 -0.8769  0.9454 -1.5312
19153TIP3    H278951   6.266   5.070  11.376 -0.0085  1.6678  1.2420
19154TIP3   OH278952   2.027   2.036   4.941 -0.6971 -0.0270 -0.5511
19154TIP3    H178953   2.094   2.042   5.009 -1.3761  1.2010  0.0349
19154TIP3    H278954   2.062   2.088   4.868 -0.6419 -0.0940 -0.5727
19155TIP3   OH278955   2.367   1.382   3.514  0.7832  0.3693 -0.1365
19155TIP3    H178956   2.415   1.307   3.551  0.7527  0.6776  0.5554
19155TIP3    H278957   2.384   1.378   3.420  0.7878 -0.5048 -0.1042
19156TIP3   OH278958   4.545   0.543   5.531  0.2655  0.0336  0.2189
19156TIP3    H178959   4.562   0.631   5.497 -1.5556  0.8235  1.2129
19156TIP3    H278960   4.590   0.541   5.615 -0.7103  0.5214  0.7829
19157TIP3   OH278961   4.811   3.663  12.621 -0.5714 -0.3333 -0.2590
19157TIP3    H178962   4.898   3.648  12.585 -1.2488 -1.5961 -1.4747
19157TIP3    H278963   4.827   3.708  12.704  1.1747  0.2951 -0.8883
19158TIP3   OH278964   6.004   3.750   0.896 -0.2477 -0.3146  0.0163
19158TIP3    H178965   6.050   3.668   0.882  0.4693  0.1392 -0.3627
19158TIP3    H278966   6.051   3.792   0.969 -1.2504 -0.6945  0.9093
19159TIP3   OH278967   1.786   3.299  12.862 -0.4517  0.1211 -0.2488
19159TIP3    H178968   1.836   3.223  12.892 -0.3799  0.2540 -0.0333
19159TIP3    H278969   1.732   3.323  12.938 -1.0753 -0.2173 -0.5798
19160TIP3   OH278970   6.560   3.504  14.862 -0.2884  0.0161  0.2778
19160TIP3    H178971   6.581   3.537  14.949 -0.6959  1.4401 -0.1402
19160TIP3    H278972   6.465   3.502  14.859 -0.2874 -2.0151  0.5625
19161TIP3   OH278973   3.238   3.585   4.229  0.7786  0.4612  0.6134
19161TIP3    H178974   3.197   3.500   4.219 -1.8527  1.6899  0.0391
19161TIP3    H278975   3.271   3.607   4.142  2.2881 -0.3131  0.9640
19162TIP3   OH278976   3.089   3.366  12.211  0.1870 -0.1402  0.4453
19162TIP3    H178977   3.169   3.314  12.218  0.0488 -0.4450 -0.1293
19162TIP3    H278978   3.118   3.452  12.181  0.1419 -0.8598 -1.8950
19163TIP3   OH278979   6.043   0.712  14.590  0.1613  0.2748 -0.6334
19163TIP3    H178980   6.086   0.655  14.654  0.7153  1.4134  0.0343
19163TIP3    H278981   6.045   0.799  14.630  0.4344  0.9971 -2.1691
19164TIP3   OH278982   0.207   2.239  11.079 -0.6860  0.2127  0.0744
19164TIP3    H178983   0.185   2.193  11.160 -1.5119  0.1503 -0.1795
19164TIP3    H278984   0.273   2.303  11.105  1.9684 -2.3304  0.1188
19165TIP3   OH278985   1.589   2.386   0.780 -0.3242  0.8991  0.0381
19165TIP3    H178986   1.647   2.436   0.837 -0.2700  1.0383 -0.1384
19165TIP3    H278987   1.644   2.316   0.745 -0.6587  0.0923  1.0876
19166TIP3   OH278988   5.770   4.954   1.752 -0.2824  0.2723  0.1355
19166TIP3    H178989   5.686   4.967   1.709  0.8048  0.5139 -2.0482
19166TIP3    H278990   5.815   4.890   1.698  0.5548 -0.6904  1.8833
19167TIP3   OH278991   0.713   6.158   0.073 -0.3328  0.2959 -0.0945
19167TIP3    H178992   0.662   6.113   0.005  0.1822  1.4361 -1.2806
19167TIP3    H278993   0.715   6.249   0.045  3.1661  0.1892 -0.6731
19168TIP3   OH278994   2.817   2.273   3.978 -0.3673  0.5144 -0.0552
19168TIP3    H178995   2.874   2.230   3.914  0.1760 -1.1323  1.4701
19168TIP3    H278996   2.782   2.349   3.931  1.6650  0.5696 -1.6202
19169TIP3   OH278997   0.986   0.886   5.768  0.4581 -0.0974 -0.0853
19169TIP3    H178998   1.043   0.886   5.690  0.5834  0.8699 -0.0123
19169TIP3    H278999   1.047   0.890   5.842  0.3221  1.2090 -0.0136
19170TIP3   OH279000   2.722   6.253   5.485 -0.1409  0.2229  1.0109
19170TIP3    H179001   2.718   6.188   5.415 -1.9763 -0.1521  1.4107
19170TIP3    H279002   2.814   6.256   5.509  0.2485 -0.9754 -0.1789
19171TIP3   OH279003   2.618   3.481  10.879 -0.4838  0.2386  0.2816
19171TIP3    H179004   2.612   3.538  10.801  1.7353  0.5776  0.2991
19171TIP3    H279005   2.575   3.532  10.948 -1.4498  0.4364 -0.4297
19172TIP3   OH279006   4.734   5.934  13.721  0.1649 -0.0943  0.4671
19172TIP3    H179007   4.674   5.941  13.795 -0.8934 -0.2004 -0.3599
19172TIP3    H279008   4.784   6.016  13.723 -0.1811  0.1087  1.0134
19173TIP3   OH279009   2.234   3.724  16.188 -0.0914  0.0609 -0.6704
19173TIP3    H179010   2.277   3.639  16.179  2.0162  1.1812 -1.7438
19173TIP3    H279011   2.182   3.734  16.109  1.8677  0.9042 -1.9185
19174TIP3   OH279012   3.397   1.188  12.762 -0.4509 -0.1062  0.0654
19174TIP3    H179013   3.473   1.206  12.817 -0.1878 -0.7225 -0.0917
19174TIP3    H279014   3.365   1.103  12.793  0.0578 -0.7414 -1.1301
19175TIP3   OH279015   5.323   0.740   6.221 -0.4366 -0.1152 -0.0555
19175TIP3    H179016   5.325   0.822   6.270 -0.3590 -0.0377 -0.1890
19175TIP3    H279017   5.407   0.698   6.241  0.2767  0.6346 -1.3549
19176TIP3   OH279018   3.108   1.912   3.585 -0.4176  0.1135 -0.0898
19176TIP3    H179019   3.102   1.879   3.496  0.4820  0.9427 -0.4714
19176TIP3    H279020   3.182   1.865   3.624 -0.5874  0.0080  0.1089
19177TIP3   OH279021   5.898   4.188   1.684  0.5609  0.1440 -0.0065
19177TIP3    H179022   5.915   4.250   1.754  1.4449  0.9303 -0.8923
19177TIP3    H279023   5.904   4.240   1.604  2.1169 -1.2079 -0.8310
19178TIP3   OH279024   0.121   4.261   3.051  0.2779 -0.2659 -0.9201
19178TIP3    H179025   0.131   4.295   2.963  0.3223 -1.4524 -1.4011
19178TIP3    H279026   0.118   4.166   3.039  0.7465 -0.4662  0.3986
19179TIP3   OH279027   5.693   2.862  16.494  0.7994 -0.4708 -0.6576
19179TIP3    H179028   5.743   2.812  16.430  0.0755  0.1038 -1.7004
19179TIP3    H279029   5.681   2.802  16.568  0.9308 -1.4428 -1.4062
19180TIP3   OH279030   5.891   5.616   5.322  0.3420  0.2537  0.1133
19180TIP3    H179031   5.822   5.682   5.309 -2.0346 -2.1071 -0.2103
19180TIP3    H279032   5.887   5.562   5.243  1.5723 -0.8369  0.7597
19181TIP3   OH279033   1.071   4.067  16.074 -0.3485 -0.0344  0.0811
19181TIP3    H179034   0.994   4.121  16.091  0.5556  1.6559 -0.9635
19181TIP3    H279035   1.114   4.108  15.999  1.0788 -1.4767  0.0411
19182TIP3   OH279036   4.803   1.237  16.375 -0.4224 -0.0129 -0.5191
19182TIP3    H179037   4.852   1.183  16.313 -0.1143  0.3146 -0.5651
19182TIP3    H279038   4.869   1.294  16.415 -0.5100 -0.6629  0.5986
19183TIP3   OH279039   3.753   2.608  14.218  0.2191 -0.3978  0.5179
19183TIP3    H179040   3.776   2.678  14.279  1.2248  0.6254 -0.9394
19183TIP3    H279041   3.827   2.606  14.156  1.1796 -4.0235  1.5300
19184TIP3   OH279042   5.455   6.432   4.334 -0.2498 -0.5992 -0.3277
19184TIP3    H179043   5.501   6.355   4.368 -0.3861 -0.8798 -0.7688
19184TIP3    H279044   5.525   6.493   4.310 -0.1121 -0.9162 -0.7438
19185TIP3   OH279045   3.460   0.793  17.257  0.4679  0.2623  0.2482
19185TIP3    H179046   3.384   0.831  17.213  1.5181  0.9242 -1.0672
19185TIP3    H279047   3.443   0.698  17.255 -2.1409  0.4762  3.4917
19186TIP3   OH279048   2.766   4.782  10.907  0.2421  0.2907 -0.2406
19186TIP3    H179049   2.833   4.759  10.972 -0.0895 -0.2417 -0.0775
19186TIP3    H279050   2.729   4.864  10.939 -0.1787 -0.1624  0.4554
19187TIP3   OH279051   0.163   3.853   2.738  1.1869  0.1059  0.3967
19187TIP3    H179052   0.212   3.810   2.808  0.3787 -2.2530 -0.3816
19187TIP3    H279053   0.145   3.783   2.675  0.8191  1.8740 -1.5844
19188TIP3   OH279054   1.661   5.870   1.951  0.1867  0.2918 -0.1635
19188TIP3    H179055   1.590   5.834   2.004  0.7409  1.2477  1.3005
19188TIP3    H279056   1.722   5.797   1.941  0.3312  0.2268  1.0215
19189TIP3   OH279057   3.051   3.645  16.299 -0.1494  0.3099 -0.3950
19189TIP3    H179058   3.004   3.720  16.263 -1.3682 -0.9605 -1.5765
19189TIP3    H279059   2.983   3.591  16.339  0.3324 -1.2940 -1.6337
19190TIP3   OH279060   6.660   5.119  14.491 -0.6593  0.0177 -0.1624
19190TIP3    H179061   6.602   5.090  14.420 -2.0277 -0.0330  0.9529
19190TIP3    H279062   6.632   5.069  14.567 -2.0807  3.0867  1.4885
19191TIP3   OH279063   2.674   0.683  13.768  0.6351  0.0093 -0.5346
19191TIP3    H179064   2.608   0.650  13.707 -0.7823  1.2192  0.2713
19191TIP3    H279065   2.735   0.732  13.713  0.4599 -0.5326 -1.2164
19192TIP3   OH279066   4.117   2.627  14.719 -0.1023 -0.0624  0.0612
19192TIP3    H179067   4.131   2.540  14.755 -1.3179 -0.0447  0.6328
19192TIP3    H279068   4.148   2.687  14.788  0.0621 -0.0362 -0.0346
19193TIP3   OH279069   4.242   6.481  11.923 -0.1277  0.3294  0.0618
19193TIP3    H179070   4.278   6.425  11.991 -1.6750 -3.3787 -1.8971
19193TIP3    H279071   4.306   6.551  11.913  2.3438 -1.4470  2.1939
19194TIP3   OH279072   5.661   6.653   0.153 -0.0118 -0.3280 -0.1016
19194TIP3    H179073   5.650   6.560   0.131 -0.4917 -0.8323  2.0524
19194TIP3    H279074   5.652   6.698   0.069 -1.4476 -2.1002 -0.9788
19195TIP3   OH279075   1.683   5.459   5.247  0.5299  0.5316 -0.2840
19195TIP3    H179076   1.641   5.373   5.246 -0.2110  0.8589  0.6106
19195TIP3    H279077   1.626   5.514   5.194 -0.4061  1.0559  1.2001
19196TIP3   OH279078   2.567   4.923   4.363 -0.6328 -0.3684 -0.0125
19196TIP3    H179079   2.575   4.977   4.285  3.6515 -2.5482 -1.4010
19196TIP3    H279080   2.474   4.904   4.370 -1.3638  1.0217 -3.7936
19197TIP3   OH279081   0.164   1.431  15.147  0.3255 -0.3703  0.9248
19197TIP3    H179082   0.086   1.470  15.185  0.2362 -0.3840  0.7561
19197TIP3    H279083   0.132   1.375  15.076  0.5163 -0.0272  0.5600
19198TIP3   OH279084   0.486   6.624   2.451 -0.2206 -0.5687 -0.1905
19198TIP3    H179085   0.562   6.569   2.470  0.2364 -0.3982 -1.3993
19198TIP3    H279086   0.468   6.607   2.358 -1.0477  0.1326 -0.1676
19199TIP3   OH279087   2.783   2.917   4.415 -0.1887 -0.3848  0.0761
19199TIP3    H179088   2.798   2.913   4.320 -0.9944  1.3228 -0.1691
19199TIP3    H279089   2.871   2.913   4.453  0.3464  1.0490 -0.8832
19200TIP3   OH279090   3.041   0.749   4.100  0.9807 -0.4347 -0.4849
19200TIP3    H179091   3.124   0.787   4.130  1.0881  1.3770 -2.8131
19200TIP3    H279092   2.974   0.806   4.138  0.7772 -1.4864  0.8171
19201TIP3   OH279093   0.307   6.013  16.159 -0.1960  0.0443 -0.2539
19201TIP3    H179094   0.266   5.992  16.243 -1.5960 -0.4407 -1.0460
19201TIP3    H279095   0.394   5.974  16.165  1.1648  2.9999  2.3527
19202TIP3   OH279096   0.708   2.248  13.257 -0.3109  0.0115 -0.0409
19202TIP3    H179097   0.769   2.179  13.283 -0.2444 -0.2453 -0.8394
19202TIP3    H279098   0.746   2.284  13.177 -0.9056  0.2462 -0.2208
19203TIP3   OH279099   6.660   3.786  15.761  0.3286  0.2669 -0.4713
19203TIP3    H179100   6.701   3.849  15.821  0.0342 -0.0887  0.1212
19203TIP3    H279101   6.635   3.713  15.818 -0.0613 -0.0308 -1.0189
19204TIP3   OH279102   6.431   1.458   3.962 -0.5497 -0.3340 -0.1678
19204TIP3    H179103   6.460   1.425   3.878  0.3875  0.0893 -0.0286
19204TIP3    H279104   6.505   1.511   3.994 -1.2058  0.1898  0.5346
19205TIP3   OH279105   3.709   0.043  12.484 -0.0911  1.0247  0.0818
19205TIP3    H179106   3.684   0.091  12.564  0.8600  0.2149  0.9009
19205TIP3    H279107   3.803   0.030  12.493  0.0465  0.9824 -1.2337
19206TIP3   OH279108   4.111   4.074  12.218  0.2413  0.0469  0.0857
19206TIP3    H179109   4.058   3.999  12.245  1.1285 -0.3456  0.7779
19206TIP3    H279110   4.131   4.056  12.126 -0.1146 -0.2179  0.0556
19207TIP3   OH279111   0.976   3.128   0.730 -0.2558  0.0724  0.5646
19207TIP3    H179112   0.963   3.048   0.780  1.3359 -0.6919 -0.1714
19207TIP3    H279113   0.908   3.126   0.663 -0.6453 -0.3168  0.9680
19208TIP3   OH279114   5.972   2.339  16.616 -0.1191 -0.2056 -0.4822
19208TIP3    H179115   5.990   2.265  16.559  1.0874  0.1566 -0.5976
19208TIP3    H279116   5.878   2.334  16.633 -0.3533 -0.7932 -1.8319
19209TIP3   OH279117   2.365   1.470   2.726  0.2332 -0.1136 -0.3039
19209TIP3    H179118   2.289   1.432   2.683 -0.3353 -1.6474  1.8660
19209TIP3    H279119   2.401   1.532   2.662 -1.7011 -0.7393 -2.1068
19210TIP3   OH279120   4.787   0.460  17.274 -0.0884  0.2507  0.0013
19210TIP3    H179121   4.751   0.394  17.215  0.6777 -1.0058  0.9040
19210TIP3    H279122   4.710   0.506  17.308 -0.5362  1.3729 -2.3138
19211TIP3   OH279123   5.493   2.022  13.447  0.0402  0.1326  0.6940
19211TIP3    H179124   5.585   2.042  13.429 -0.1790  0.2563 -0.3656
19211TIP3    H279125   5.486   2.024  13.542  1.3580 -0.8824  0.8429
19212TIP3   OH279126   5.049   5.426   5.860  0.1427  0.4348  0.2031
19212TIP3    H179127   5.003   5.360   5.807  0.3914  0.7380 -0.4001
19212TIP3    H279128   5.136   5.390   5.874  0.3571  0.7356 -0.3312
19213TIP3   OH279129   4.935   2.157  14.233  0.2789 -0.0060  0.1192
19213TIP3    H179130   4.989   2.143  14.155  1.5355  0.3446  0.9165
19213TIP3    H279131   4.996   2.154  14.306 -0.6116  1.4564  0.9702
19214TIP3   OH279132   2.253   5.619  14.538 -0.3181 -0.1786  0.3312
19214TIP3    H179133   2.195   5.695  14.539 -1.0077 -0.6843  0.1014
19214TIP3    H279134   2.263   5.598  14.445  0.3195 -0.0400  0.3641
19215TIP3   OH279135   2.420   0.641   4.922 -0.7839  0.6551 -0.3929
19215TIP3    H179136   2.505   0.624   4.963  0.5935  1.0401 -2.9143
19215TIP3    H279137   2.368   0.563   4.942  1.5767 -1.5484 -2.1888
19216TIP3   OH279138   5.663   1.431   6.007  0.3716 -0.3182  0.3225
19216TIP3    H179139   5.660   1.455   5.914  2.9323  0.6015  0.3866
19216TIP3    H279140   5.588   1.476   6.046  0.2219  0.6831 -1.0429
19217TIP3   OH279141   2.483   3.015  16.130  0.2813  0.2463 -0.2449
19217TIP3    H179142   2.573   2.990  16.106  1.4766  1.2838  2.7235
19217TIP3    H279143   2.454   2.946  16.190  0.0219  1.0955  0.6346
19218TIP3   OH279144   6.384   6.623  14.609 -0.1451 -0.4505  0.0147
19218TIP3    H179145   6.416   6.603  14.521 -1.0421  0.8687 -0.6291
19218TIP3    H279146   6.334   6.704  14.599  0.7362  0.3874  1.9621
19219TIP3   OH279147   0.175   3.576  12.708  0.0197  0.3280 -0.2062
19219TIP3    H179148   0.215   3.626  12.637  1.1334  0.2780  0.3525
19219TIP3    H279149   0.197   3.625  12.787  2.0170 -1.4955  0.4712
19220TIP3   OH279150   1.177   6.543   5.911 -0.7063 -0.6316 -0.5257
19220TIP3    H179151   1.262   6.526   5.871  0.0428 -0.3959  0.8979
19220TIP3    H279152   1.176   6.638   5.925 -0.9301 -0.7183  0.0556
19221TIP3   OH279153   1.377   0.197   2.231 -0.2114 -0.3776 -0.1004
19221TIP3    H179154   1.428   0.123   2.263 -1.2315 -1.0555 -0.0180
19221TIP3    H279155   1.404   0.207   2.140  1.3949  0.4390  0.4134
19222TIP3   OH279156   4.094   3.387  13.739 -0.3183 -0.0768 -0.5967
19222TIP3    H179157   4.002   3.370  13.761 -0.3170 -0.9291 -1.2171
19222TIP3    H279158   4.141   3.375  13.821 -0.9178  1.9052  0.1125
19223TIP3   OH279159   0.618   3.942  14.642 -0.0977 -0.4441 -0.4588
19223TIP3    H179160   0.685   3.892  14.596 -0.4918  0.6544 -2.3449
19223TIP3    H279161   0.663   4.022  14.669 -0.6547  0.4522 -2.0338
19224TIP3   OH279162   2.088   1.738  14.221 -0.1882  0.6341 -0.6961
19224TIP3    H179163   2.066   1.740  14.127  0.5310  0.1435 -0.8850
19224TIP3    H279164   2.038   1.665  14.256  0.3747  0.1156 -0.9355
19225TIP3   OH279165   4.703   4.837   0.797 -0.1652 -0.6301 -0.2680
19225TIP3    H179166   4.755   4.915   0.776 -0.9346  0.3224  1.2092
19225TIP3    H279167   4.715   4.825   0.891 -2.3702 -0.5551  0.0688
19226TIP3   OH279168   3.357   2.064  13.944 -0.4300  0.5142  0.2949
19226TIP3    H179169   3.328   2.152  13.921 -2.1714  0.1111  0.8141
19226TIP3    H279170   3.431   2.047  13.886 -0.6160  1.9813 -0.4080
19227TIP3   OH279171   2.129   6.236  11.530 -0.1170  0.0510 -0.6840
19227TIP3    H179172   2.123   6.158  11.584  0.6412  0.5117  0.0832
19227TIP3    H279173   2.219   6.237  11.499 -0.3096  0.2560 -1.2610
19228TIP3   OH279174   3.053   6.070  15.637  0.4924 -0.6253 -0.0806
19228TIP3    H179175   3.089   6.076  15.726  1.6646 -0.2424 -0.5572
19228TIP3    H279176   2.959   6.079  15.648  0.7219  0.6546  1.0055
19229TIP3   OH279177   1.174   2.545  13.747 -0.0550 -0.4302  0.1839
19229TIP3    H179178   1.237   2.599  13.796 -1.6810  2.5146 -0.7027
19229TIP3    H279179   1.184   2.575  13.656 -1.4625 -1.2245 -0.2578
19230TIP3   OH279180   3.500   1.914  14.884 -0.2481  0.6244 -0.0190
19230TIP3    H179181   3.555   1.854  14.833  1.2139  0.0053  2.1654
19230TIP3    H279182   3.419   1.865  14.898  0.6968 -0.6881  1.2242
19231TIP3   OH279183   0.924   0.642  17.271  0.7367 -0.4994 -0.6353
19231TIP3    H179184   0.974   0.610  17.195  1.5712 -1.6524  0.3625
19231TIP3    H279185   0.950   0.734  17.279 -0.5495  0.0947 -2.6449
19232TIP3   OH279186   0.033   6.465   0.505  0.3510  0.4725  0.3880
19232TIP3    H179187   0.006   6.420   0.425  0.4145 -0.8624  1.0986
19232TIP3    H279188  -0.043   6.458   0.564  0.7613  0.3297  0.9060
19233TIP3   OH279189   0.764   4.767   6.118 -0.6633  0.0011  0.0609
19233TIP3    H179190   0.680   4.734   6.149 -0.2745 -1.1245 -0.0687
19233TIP3    H279191   0.766   4.858   6.148 -1.8607  0.0019  0.1816
19234TIP3   OH279192   1.851   5.511  17.095  0.0024  0.0030  0.6083
19234TIP3    H179193   1.927   5.455  17.111  1.1278  1.3316  0.0904
19234TIP3    H279194   1.834   5.502  17.001 -2.1991 -2.3331  1.1176
19235TIP3   OH279195   5.590   2.058   3.735  0.0134  0.1537  0.2136
19235TIP3    H179196   5.525   2.067   3.805  0.2514  1.1003  0.3293
19235TIP3    H279197   5.562   1.981   3.685 -1.0766  0.4262  0.3885
19236TIP3   OH279198   5.901   5.902  15.586  0.1709  0.3255 -0.4701
19236TIP3    H179199   5.828   5.962  15.605  0.5210  0.3462  0.8715
19236TIP3    H279200   5.972   5.960  15.558 -0.1249  0.3513 -1.2046
19237TIP3   OH279201   6.491   1.056  14.914 -0.3712 -0.0576 -0.0019
19237TIP3    H179202   6.547   1.029  14.842 -2.4065 -0.5374 -1.5025
19237TIP3    H279203   6.539   1.030  14.993  0.5898 -2.3335 -1.2411
19238TIP3   OH279204   5.803   5.223   2.512 -0.6222  0.2233  0.5185
19238TIP3    H179205   5.799   5.268   2.596 -0.8402  1.3998 -0.0989
19238TIP3    H279206   5.883   5.256   2.471 -1.5697  1.2860 -0.5868
19239TIP3   OH279207   3.669   2.376  16.332  0.3414  0.0770  0.7456
19239TIP3    H179208   3.585   2.331  16.319 -0.3265  0.7816  2.3710
19239TIP3    H279209   3.696   2.403  16.244 -0.3710 -1.4506  0.0073
19240TIP3   OH279210   4.378   3.021   1.258 -0.1875 -0.0519  0.0976
19240TIP3    H179211   4.452   2.993   1.204  1.6924 -0.4348  2.6708
19240TIP3    H279212   4.318   2.947   1.257 -0.4860  0.1655 -1.8364
19241TIP3   OH279213   0.665   5.238   1.430 -0.2083  0.3600 -0.2095
19241TIP3    H179214   0.698   5.300   1.495 -0.5320  0.7628 -0.4257
19241TIP3    H279215   0.611   5.177   1.481  0.5228 -0.0557  0.0815
19242TIP3   OH279216   4.515   6.515  13.116  0.2150 -0.8263 -0.1289
19242TIP3    H179217   4.479   6.481  13.034  0.6969 -0.8228 -0.3473
19242TIP3    H279218   4.476   6.602  13.125  2.4429  0.4703 -1.9317
19243TIP3   OH279219   2.155   1.954   5.195  0.3738 -0.2069 -0.0044
19243TIP3    H179220   2.191   1.876   5.238 -0.2487 -1.7185 -2.0664
19243TIP3    H279221   2.143   2.017   5.266  2.0264 -1.5440  1.5517
19244TIP3   OH279222   6.035   4.239  12.591  0.0831  0.0671  0.2378
19244TIP3    H179223   6.104   4.238  12.525  0.3989  1.1082  0.5209
19244TIP3    H279224   6.076   4.200  12.669  0.2441  0.3509  0.2981
19245TIP3   OH279225   2.520   4.256   3.371  0.1366  0.5940 -0.5912
19245TIP3    H179226   2.507   4.282   3.280 -0.4043  0.8600 -0.4398
19245TIP3    H279227   2.496   4.163   3.372  0.8620  0.3983 -0.8698
19246TIP3   OH279228   0.790   6.353  15.175  0.5128  0.3685 -0.5189
19246TIP3    H179229   0.849   6.278  15.182  2.6426  1.9942 -0.1501
19246TIP3    H279230   0.784   6.370  15.082 -1.1124 -1.0489 -0.7217
19247TIP3   OH279231   6.094   3.092   2.739 -0.6141  0.4624 -0.1408
19247TIP3    H179232   6.045   3.015   2.711  0.0964  0.0564 -0.3065
19247TIP3    H279233   6.140   3.122   2.661  0.2846  0.1538  0.2507
19248TIP3   OH279234   3.827   3.713   4.903  0.8809 -0.3362 -0.3485
19248TIP3    H179235   3.880   3.662   4.841  0.4420 -1.3126  0.0501
19248TIP3    H279236   3.876   3.708   4.986  1.9141  1.6971 -0.7755
19249TIP3   OH279237   3.172   6.717   6.278  0.0360  0.3370 -0.4007
19249TIP3    H179238   3.096   6.762   6.316  0.6828  1.0680  0.0583
19249TIP3    H279239   3.198   6.653   6.344 -0.4693 -0.2692 -0.7695
19250TIP3   OH279240   6.380   2.835  16.249  0.2510  0.1033 -0.0474
19250TIP3    H179241   6.439   2.880  16.309  1.1598 -0.6341 -0.3845
19250TIP3    H279242   6.297   2.830  16.297  0.1432  1.9991  0.0649
19251TIP3   OH279243   2.561   5.053  13.592  0.5333  0.0509  0.8083
19251TIP3    H179244   2.547   5.132  13.644  0.2852  0.0520  0.7414
19251TIP3    H279245   2.579   5.085  13.504 -0.8774  0.0188  0.4710
19252TIP3   OH279246   5.637   3.879  17.052 -0.5249  0.2828 -0.3976
19252TIP3    H179247   5.661   3.967  17.022  0.3913 -0.2639 -1.3667
19252TIP3    H279248   5.577   3.846  16.985 -0.6632  0.0749 -0.1730
19253TIP3   OH279249   1.547   0.602  16.408 -0.2951 -0.4703 -0.2684
19253TIP3    H179250   1.605   0.675  16.428 -0.8508 -0.3917  1.1547
19253TIP3    H279251   1.601   0.524  16.417 -0.4196 -0.4062  1.1941
19254TIP3   OH279252   4.175   4.938  13.333 -0.1254  0.2764 -0.1363
19254TIP3    H179253   4.236   4.963  13.402  1.6933 -1.2347 -1.1000
19254TIP3    H279254   4.150   5.021  13.292  0.5735  1.0023  0.8486
19255TIP3   OH279255   1.409   1.206  14.113 -0.1031  0.8079  0.0747
19255TIP3    H179256   1.500   1.204  14.143  0.4329  2.5545 -1.2589
19255TIP3    H279257   1.368   1.274  14.166 -0.6732 -0.0021  0.6963
19256TIP3   OH279258   1.015   2.448  14.859  0.2602  0.2958 -0.8128
19256TIP3    H179259   1.111   2.451  14.854  0.3845 -0.5270  0.6740
19256TIP3    H279260   0.986   2.499  14.782  1.8677  1.0849 -0.9484
19257TIP3   OH279261   5.989   6.555   3.618 -0.3355  0.1345 -0.3520
19257TIP3    H179262   5.976   6.643   3.654  1.0594  1.3843 -2.6648
19257TIP3    H279263   6.037   6.569   3.537  1.1461 -2.8990 -0.1381
19258TIP3   OH279264   0.649   3.458  13.155  0.0858  0.4351  0.4313
19258TIP3    H179265   0.718   3.474  13.091 -0.4186  0.1457 -0.2035
19258TIP3    H279266   0.583   3.526  13.136  0.1543  0.6598  0.9746
19259TIP3   OH279267   2.831   2.658  10.637  0.0272 -0.0097  0.0445
19259TIP3    H179268   2.838   2.660  10.733  0.5062 -0.5403  0.0199
19259TIP3    H279269   2.762   2.595  10.620 -0.3945  0.4424  0.0524
19260TIP3   OH279270   2.780   3.139   4.673  0.1359 -0.2519  0.1241
19260TIP3    H179271   2.816   3.112   4.589 -0.7617 -1.9855  0.2428
19260TIP3    H279272   2.853   3.131   4.734  1.2922  2.7051 -0.6964
19261TIP3   OH279273   3.857   3.383  15.316 -0.2504  0.2435 -0.1577
19261TIP3    H179274   3.905   3.406  15.237 -1.5158  2.8295 -0.2900
19261TIP3    H279275   3.777   3.341  15.285  0.7986 -1.9834 -0.0275
19262TIP3   OH279276   0.781   5.743   0.021  0.1159  0.0602 -0.4906
19262TIP3    H179277   0.761   5.782   0.106 -1.8728 -1.3884 -0.2181
19262TIP3    H279278   0.720   5.785  -0.039  1.3491  0.8980 -1.1913
19263TIP3   OH279279   5.650   3.305   5.433 -0.8283 -1.1633 -0.0921
19263TIP3    H179280   5.681   3.354   5.356  0.0964 -0.5340  0.6576
19263TIP3    H279281   5.705   3.227   5.436  0.4505 -0.2575  0.9919
19264TIP3   OH279282   0.542   0.808  11.758 -0.1881  0.5378  0.0952
19264TIP3    H179283   0.485   0.735  11.783 -0.8589  1.0436  0.0970
19264TIP3    H279284   0.490   0.886  11.778  0.4456  1.0109 -0.0758
19265TIP3   OH279285   4.917   4.789  12.132  0.4439  0.7289 -0.3188
19265TIP3    H179286   4.885   4.731  12.062  1.9455  2.4789 -2.6090
19265TIP3    H279287   5.008   4.762  12.144  0.6218  1.4305 -0.1121
19266TIP3   OH279288   2.125   2.163  14.431  0.6418  0.0925  0.4006
19266TIP3    H179289   2.118   2.068  14.439  0.2298  0.0952  0.1031
19266TIP3    H279290   2.043   2.197  14.466  0.9890  0.3662  0.9573
19267TIP3   OH279291   0.208   2.528  15.400  0.2451 -0.2257  0.0116
19267TIP3    H179292   0.189   2.562  15.313  1.9576 -0.1770 -0.3591
19267TIP3    H279293   0.150   2.577  15.458 -0.9727 -0.3195 -1.0868
19268TIP3   OH279294   1.018   3.787  14.213 -0.5467  0.2132 -0.1773
19268TIP3    H179295   0.961   3.854  14.173 -0.6933 -1.1107 -2.3602
19268TIP3    H279296   0.957   3.726  14.255 -0.5302  0.4612  0.2094
19269TIP3   OH279297   1.279   3.771   5.162  0.3997  0.2802 -0.1657
19269TIP3    H179298   1.256   3.858   5.132  2.7340  2.4260  3.4237
19269TIP3    H279299   1.201   3.741   5.209  0.4109  1.6537  0.7941
19270TIP3   OH279300   5.238   6.171   4.551 -0.4524  0.0149 -0.5855
19270TIP3    H179301   5.176   6.241   4.530  0.5749  1.5551  1.1453
19270TIP3    H279302   5.183   6.096   4.573 -1.7414  1.1424  0.2741
19271TIP3   OH279303   3.840   3.668  13.870  0.1428 -0.2464  0.1722
19271TIP3    H179304   3.858   3.699  13.781  0.9484 -0.0575  0.4015
19271TIP3    H279305   3.919   3.688  13.920  0.1153 -1.3272  0.6798
19272TIP3   OH279306   5.385   0.100  15.615  0.5912  0.2921  0.4173
19272TIP3    H179307   5.466   0.054  15.592  0.2066 -0.2306  0.0901
19272TIP3    H279308   5.369   0.075  15.706  1.0352  0.7578  0.6274
19273TIP3   OH279309   0.972   5.985   6.375  0.0712 -0.0775 -0.3932
19273TIP3    H179310   1.046   5.994   6.315  0.0429  0.1235 -0.3992
19273TIP3    H279311   0.937   6.074   6.383  0.6456  0.0756  0.6416
19274TIP3   OH279312   2.369   5.498  13.795  0.1983  0.1071  0.8862
19274TIP3    H179313   2.274   5.493  13.802  0.2758 -0.6633  1.6657
19274TIP3    H279314   2.387   5.494  13.702 -0.5087 -0.3971  0.7616
19275TIP3   OH279315   0.597   0.992  11.388  0.0461  0.6180  0.2378
19275TIP3    H179316   0.517   0.994  11.441  0.6182  1.5696  1.0765
19275TIP3    H279317   0.583   1.059  11.321 -1.3207 -1.5696 -1.8695
19276TIP3   OH279318   6.731   1.794  11.408  0.1088 -0.0661 -0.1156
19276TIP3    H179319   6.645   1.779  11.368 -0.1831 -1.7263  1.0671
19276TIP3    H279320   6.712   1.850  11.483  0.3147  0.9120 -0.7672
19277TIP3   OH279321   4.180   1.095  16.057  0.1174 -0.0424 -0.9343
19277TIP3    H179322   4.161   1.045  15.977  2.3447 -0.6492 -1.1372
19277TIP3    H279323   4.275   1.089  16.067 -0.0270  0.7058  1.3366
19278TIP3   OH279324   0.379   2.514  13.831  0.4269  0.4811 -0.4369
19278TIP3    H179325   0.296   2.512  13.783  0.0422  0.4330  0.2303
19278TIP3    H279326   0.390   2.605  13.857  1.0380  0.6649 -1.3032
19279TIP3   OH279327   1.109   4.423   4.514  0.3119 -0.4770  0.7063
19279TIP3    H179328   1.152   4.338   4.510  0.1867 -0.7216  3.0418
19279TIP3    H279329   1.074   4.428   4.603  1.7543  2.6834  1.2478
19280TIP3   OH279330   1.513   4.769  15.693  0.2730  0.0932 -0.2693
19280TIP3    H179331   1.437   4.774  15.750  0.4161 -0.6194 -0.0014
19280TIP3    H279332   1.587   4.792  15.749  0.2770  0.6476 -0.4942
19281TIP3   OH279333   2.933   2.139  13.706  0.1453 -0.3056 -0.2017
19281TIP3    H179334   2.971   2.051  13.698  0.4428 -0.1325 -0.7329
19281TIP3    H279335   2.871   2.144  13.633 -0.9407 -0.5962  0.6690
19282TIP3   OH279336   6.597   5.038  11.314  0.4021  0.2093 -0.1739
19282TIP3    H179337   6.582   4.944  11.311  1.7718 -0.0265 -0.4095
19282TIP3    H279338   6.622   5.061  11.224  1.8992  0.4509  0.2826
19283TIP3   OH279339   4.593   0.309   3.550  0.2866  0.3735  0.5900
19283TIP3    H179340   4.502   0.300   3.523  0.0511 -1.2066  1.7442
19283TIP3    H279341   4.589   0.352   3.636  0.6544  0.5741  0.5120
19284TIP3   OH279342   0.041   0.261  12.145 -0.6092 -0.0944 -0.3359
19284TIP3    H179343   0.112   0.323  12.161  0.5709 -1.0047 -1.8082
19284TIP3    H279344  -0.038   0.314  12.148  0.3559  1.5089 -1.5871
19285TIP3   OH279345   1.432   5.059   1.536 -0.0285 -0.2358 -0.2754
19285TIP3    H179346   1.499   5.071   1.468  0.4783 -0.1439  0.2321
19285TIP3    H279347   1.448   5.131   1.597 -1.0615  0.2225 -0.5202
19286TIP3   OH279348   3.369   2.037   2.036  0.2788  0.0164 -0.4135
19286TIP3    H179349   3.349   1.953   1.995 -0.1935 -0.4360  0.7057
19286TIP3    H279350   3.459   2.028   2.067 -0.9017 -1.5246  3.0087
19287TIP3   OH279351   3.143   1.507  13.870 -0.1790 -0.0406 -0.1837
19287TIP3    H179352   3.153   1.571  13.940  1.1120  0.7174 -1.0091
19287TIP3    H279353   3.085   1.551  13.807 -0.2403 -0.1615 -0.2104
19288TIP3   OH279354   6.337   1.486   1.381  0.1353 -0.1054  0.1123
19288TIP3    H179355   6.317   1.576   1.356  2.8081  0.8775  1.1954
19288TIP3    H279356   6.318   1.435   1.302  0.0432  1.6110 -1.0366
19289TIP3   OH279357   3.580   2.854  15.847  0.0376  0.4920  0.2541
19289TIP3    H179358   3.593   2.762  15.825  0.7245  0.5589  0.3583
19289TIP3    H279359   3.636   2.901  15.784  1.4787  0.7203  1.6389
19290TIP3   OH279360   2.679   4.154  13.650 -0.3846  0.2564 -1.1322
19290TIP3    H179361   2.612   4.088  13.668  0.3677 -0.5793 -1.3397
19290TIP3    H279362   2.708   4.183  13.736  1.3589 -1.8457 -0.9168
19291TIP3   OH279363   4.208   5.813   1.449 -0.6848  0.0461 -0.0334
19291TIP3    H179364   4.116   5.801   1.472 -1.2385  1.9998 -1.0226
19291TIP3    H279365   4.207   5.839   1.357  0.9620 -1.0185 -0.3934
19292TIP3   OH279366   0.828   4.648   4.519  0.5595 -0.2100  0.2396
19292TIP3    H179367   0.749   4.689   4.553  0.0783 -0.1766 -0.8844
19292TIP3    H279368   0.859   4.592   4.590 -1.0432 -1.0206  0.3366
19293TIP3   OH279369   0.882   4.443  17.399 -0.3151 -0.0578  0.0031
19293TIP3    H179370   0.861   4.522  17.449 -0.2015 -0.2697  0.3878
19293TIP3    H279371   0.833   4.373  17.441  1.0660 -0.5501  0.8745
19294TIP3   OH279372   2.749   3.675   0.539  0.3598 -0.0455 -0.1391
19294TIP3    H179373   2.772   3.584   0.559  2.5721  0.6934  1.0462
19294TIP3    H279374   2.728   3.713   0.625 -0.0813  0.6933 -0.5634
19295TIP3   OH279375   6.350   0.858   2.963  0.0316 -0.3695 -0.3584
19295TIP3    H179376   6.270   0.805   2.961 -0.3423  0.0326  1.9833
19295TIP3    H279377   6.332   0.931   2.903 -1.0745 -0.6498 -0.3902
19296TIP3   OH279378   4.204   3.085   5.666 -0.1579  0.0126  0.4067
19296TIP3    H179379   4.109   3.084   5.658 -0.1598 -1.5725  0.3469
19296TIP3    H279380   4.223   3.025   5.738  0.7019  1.9888  1.9070
19297TIP3   OH279381   3.359   1.700   0.503  0.3925 -0.1485  0.3542
19297TIP3    H179382   3.342   1.788   0.539  0.9688 -0.5680  1.7272
19297TIP3    H279383   3.364   1.714   0.409 -1.7676  0.9142  0.3359
19298TIP3   OH279384   0.195   4.492  17.366 -0.3963 -0.3519  0.2654
19298TIP3    H179385   0.253   4.426  17.405  0.1040  0.0859  0.2803
19298TIP3    H279386   0.107   4.456  17.375 -0.1718 -0.7979  0.7129
19299TIP3   OH279387   6.632   5.605  16.342 -0.0249 -0.3818 -0.0550
19299TIP3    H179388   6.568   5.556  16.393  0.2970  1.9357  2.8169
19299TIP3    H279389   6.714   5.596  16.390  0.7066  0.5424 -1.0597
19300TIP3   OH279390   4.401   3.874  14.801  0.5974 -0.0304  0.1722
19300TIP3    H179391   4.343   3.800  14.781  1.1129 -0.5166  0.4396
19300TIP3    H279392   4.461   3.840  14.868 -0.6796  1.3644  2.1187
19301TIP3   OH279393   5.758   1.345   4.664  0.3088  0.2112  0.1245
19301TIP3    H179394   5.814   1.305   4.730  0.2801 -0.4126 -0.2234
19301TIP3    H279395   5.669   1.332   4.696  0.3192  0.4256  0.2451
19302TIP3   OH279396   1.738   4.416   2.735  0.0585  0.3287 -0.0713
19302TIP3    H179397   1.683   4.438   2.810  0.1990  0.5539 -0.0297
19302TIP3    H279398   1.804   4.356   2.771  0.7752  1.2742  0.2391
19303TIP3   OH279399   0.790   5.056   2.629  1.0363  0.3076 -0.1405
19303TIP3    H179400   0.819   4.969   2.658 -0.2703  0.0794  0.5679
19303TIP3    H279401   0.806   5.057   2.535 -0.6129 -1.4422 -0.5116
19304TIP3   OH279402   3.487   4.592  11.392 -0.4208  0.8676  0.4702
19304TIP3    H179403   3.469   4.640  11.473  0.0621 -1.1464  1.8662
19304TIP3    H279404   3.581   4.603  11.378 -0.7143  2.2667 -0.5814
19305TIP3   OH279405   0.687   2.169   2.497  0.2247 -0.3406 -0.3206
19305TIP3    H179406   0.643   2.089   2.526  1.9731 -1.8410 -1.5495
19305TIP3    H279407   0.660   2.236   2.560 -0.8658 -2.0143  1.0759
19306TIP3   OH279408   5.852   2.721   2.393 -0.6300 -0.4109 -0.2416
19306TIP3    H179409   5.835   2.771   2.313 -0.7757 -2.1348 -1.3429
19306TIP3    H279410   5.926   2.664   2.371 -1.7212 -2.0989  0.2407
19307TIP3   OH279411   2.754   6.184   3.491 -0.3453 -0.0139 -0.0906
19307TIP3    H179412   2.727   6.117   3.428  0.2860 -1.4213  1.0999
19307TIP3    H279413   2.797   6.251   3.437  1.6269 -1.9294 -1.0402
19308TIP3   OH279414   4.622   5.682   2.508 -0.2105 -0.3480  0.5091
19308TIP3    H179415   4.649   5.754   2.451 -1.1141 -0.2857  0.1508
19308TIP3    H279416   4.604   5.724   2.593  0.6526 -0.3725  0.7231
19309TIP3   OH279417   6.257   5.866  11.781  0.2009  0.1541 -0.0464
19309TIP3    H179418   6.251   5.773  11.802 -0.0562  0.5561  1.8269
19309TIP3    H279419   6.234   5.872  11.688 -0.0937 -1.6010 -0.1101
19310TIP3   OH279420   6.398   3.050   2.295  0.0653 -0.1732 -0.6269
19310TIP3    H179421   6.444   2.974   2.330  1.1694  0.6480 -0.2778
19310TIP3    H279422   6.465   3.118   2.286 -0.3343 -0.0217 -3.4208
19311TIP3   OH279423   6.189   3.360   5.310  0.1209 -0.2628 -0.3036
19311TIP3    H179424   6.141   3.441   5.297  2.4343  1.2128 -0.1399
19311TIP3    H279425   6.160   3.303   5.238 -0.8621  1.0268 -0.9626
19312TIP3   OH279426   2.848   0.153   4.398  0.3578 -0.4295 -0.1591
19312TIP3    H179427   2.903   0.232   4.399 -1.5023  0.9294  0.4106
19312TIP3    H279428   2.886   0.098   4.330  3.4624 -0.3541  1.3545
19313TIP3   OH279429   1.372   2.609  11.974 -0.3880 -0.1107  0.3012
19313TIP3    H179430   1.321   2.651  12.043 -1.0147  0.2853 -0.3845
19313TIP3    H279431   1.462   2.610  12.006 -0.8638 -1.3771  1.8043
19314TIP3   OH279432   2.768   1.675   0.781  0.1055 -0.2206  0.0998
19314TIP3    H179433   2.746   1.689   0.873  0.5219  1.4998 -0.0293
19314TIP3    H279434   2.797   1.584   0.777  0.8363 -0.0983  1.8189
19315TIP3   OH279435   2.661   5.850   3.584 -0.1682  0.1889  0.1426
19315TIP3    H179436   2.736   5.841   3.525 -2.2861 -1.2057 -2.5611
19315TIP3    H279437   2.615   5.928   3.552 -1.3422 -0.5848 -0.1141
19316TIP3   OH279438   5.518   1.449   4.064 -0.0741 -0.1776  0.1065
19316TIP3    H179439   5.602   1.405   4.079  0.4822  1.9671  5.5985
19316TIP3    H279440   5.542   1.538   4.039 -0.3183  1.0409  3.6098
19317TIP3   OH279441   0.872   5.448   5.516 -0.5708 -0.7897  0.1041
19317TIP3    H179442   0.794   5.407   5.554 -1.3953  0.9097  0.3439
19317TIP3    H279443   0.918   5.485   5.591  0.1091 -1.1592 -0.1237
19318TIP3   OH279444   5.733   2.146   4.337  0.3668 -0.3342 -0.2333
19318TIP3    H179445   5.793   2.170   4.407  1.0075 -0.4893 -0.7243
19318TIP3    H279446   5.667   2.215   4.337  0.1518 -0.5205  0.7573
19319TIP3   OH279447   4.126   0.430  17.135  0.2594  0.0779  0.1789
19319TIP3    H179448   4.050   0.389  17.175  0.9290 -1.4460 -0.0591
19319TIP3    H279449   4.089   0.494  17.074 -0.9894 -2.6295 -2.1149
19320TIP3   OH279450   5.130   1.098  11.288  0.1902 -0.5275 -0.0240
19320TIP3    H179451   5.078   1.101  11.369  1.2924  0.7433  0.6761
19320TIP3    H279452   5.189   1.024  11.301 -0.8764 -1.5045 -0.5029
19321TIP3   OH279453   6.027   0.869  14.083  0.2867 -0.0688 -0.3329
19321TIP3    H179454   6.078   0.899  14.007  1.3335 -0.6951  0.0918
19321TIP3    H279455   6.028   0.774  14.076 -0.0874 -0.1142  0.1671
19322TIP3   OH279456   3.887   4.134   0.597  0.1926  0.0514 -0.2106
19322TIP3    H179457   3.838   4.185   0.661 -0.0116 -0.4128  0.0089
19322TIP3    H279458   3.972   4.177   0.593  0.0006  0.4510 -0.0830
19323TIP3   OH279459   0.786   2.820   6.495  0.4539  0.1453 -0.1365
19323TIP3    H179460   0.846   2.747   6.483  0.4115 -0.0179  0.6165
19323TIP3    H279461   0.786   2.864   6.410  0.6842 -0.5671 -0.5184
19324TIP3   OH279462   3.955   2.547   3.249  0.2233  0.6296 -0.2026
19324TIP3    H179463   3.982   2.591   3.168  2.7697  1.0848  0.7908
19324TIP3    H279464   3.976   2.610   3.318  0.5630 -0.7453  0.9988
19325TIP3   OH279465   0.187   6.721  12.480 -0.2854  0.2326 -0.1219
19325TIP3    H179466   0.151   6.707  12.392 -0.8959 -1.1919  0.3341
19325TIP3    H279467   0.268   6.770  12.464  0.3255 -1.1488 -1.6281
19326TIP3   OH279468   5.326   5.294  14.260 -0.1122 -0.1914  0.2658
19326TIP3    H179469   5.375   5.326  14.335 -1.0505  0.7070  0.5287
19326TIP3    H279470   5.278   5.218  14.293 -0.0998 -0.1302  0.4275
19327TIP3   OH279471   5.211   5.477   1.179  0.2624  0.0158 -0.4859
19327TIP3    H179472   5.180   5.553   1.228  1.7631  0.6465 -0.4609
19327TIP3    H279473   5.155   5.473   1.102  0.6294  1.6024 -0.8544
19328TIP3   OH279474   3.630   5.505  11.716 -0.6018 -0.4299 -0.3396
19328TIP3    H179475   3.625   5.426  11.770  1.7217 -0.5409 -0.1490
19328TIP3    H279476   3.631   5.577  11.779 -3.9298 -0.0538 -0.5488
19329TIP3   OH279477   6.034   4.133  10.815  0.1799  0.1499 -0.4078
19329TIP3    H179478   6.044   4.227  10.824  0.1847  0.0474  0.8334
19329TIP3    H279479   5.940   4.118  10.828  0.2316 -0.0407 -0.2437
19330TIP3   OH279480   2.245   1.518   3.004  0.0548  0.0594  0.0495
19330TIP3    H179481   2.234   1.425   2.981  0.3891  0.0612 -0.1263
19330TIP3    H279482   2.316   1.548   2.947 -1.3382  0.9387 -1.2961
19331TIP3   OH279483   2.018   3.007   5.204 -0.6937  0.3379 -0.0383
19331TIP3    H179484   2.093   3.049   5.245 -1.5185  0.7258  1.1409
19331TIP3    H279485   1.942   3.051   5.243 -1.5353  1.0917 -2.3739
19332TIP3   OH279486   1.879   3.878  16.272 -0.3320 -0.1885  0.4793
19332TIP3    H179487   1.852   3.955  16.323 -0.9141 -1.2392  1.8067
19332TIP3    H279488   1.844   3.895  16.184 -0.0732  1.2468  0.6160
19333TIP3   OH279489   6.711   4.474  13.208  0.3604 -0.9950 -0.1438
19333TIP3    H179490   6.795   4.492  13.164  0.4616 -0.9371  0.0730
19333TIP3    H279491   6.711   4.533  13.284 -0.3496 -0.2093 -0.7338
19334TIP3   OH279492   3.748   5.580  17.368 -0.6028 -0.1936  0.4886
19334TIP3    H179493   3.693   5.536  17.433 -0.8272 -1.4394 -0.5196
19334TIP3    H279494   3.687   5.633  17.317 -0.8871 -1.4647 -0.5372
19335TIP3   OH279495   6.494   6.682  15.810 -0.3104  0.2987 -0.1729
19335TIP3    H179496   6.487   6.775  15.833  1.1892  0.3965 -0.0224
19335TIP3    H279497   6.477   6.679  15.716  0.2820  0.8263 -0.3031
19336TIP3   OH279498   1.000   0.711   3.476  0.1487  0.3253 -0.2433
19336TIP3    H179499   1.065   0.721   3.406  0.1437  1.6537 -0.0885
19336TIP3    H279500   1.032   0.768   3.547 -1.5965  1.7337 -0.4919
19337TIP3   OH279501   4.762   4.790  14.067  0.3082 -0.2719  0.4025
19337TIP3    H179502   4.688   4.845  14.093 -0.6103 -0.1912 -2.0452
19337TIP3    H279503   4.729   4.700  14.072 -0.2608 -0.2067 -1.2884
19338TIP3   OH279504   4.617   0.690  13.872 -0.4760  0.0906  0.3697
19338TIP3    H179505   4.565   0.684  13.792 -2.3771  0.8651  1.4791
19338TIP3    H279506   4.599   0.778  13.905 -0.3548 -0.4906  2.0572
19339TIP3   OH279507   5.143   3.827   5.143  0.7879  0.3155 -0.2903
19339TIP3    H179508   5.073   3.883   5.175 -0.1320 -0.4520 -0.9108
19339TIP3    H279509   5.169   3.775   5.220  1.0185  0.9367  0.0571
19340TIP3   OH279510   2.486   0.228   1.555 -0.5083 -0.9914  0.1563
19340TIP3    H179511   2.513   0.242   1.464 -0.7145 -1.2460  0.0547
19340TIP3    H279512   2.410   0.171   1.549  0.0508 -1.7873  0.5426
19341TIP3   OH279513   6.674   2.003  11.815  0.1222 -0.1819  0.0700
19341TIP3    H179514   6.702   1.947  11.888  0.1050  0.4916  0.6035
19341TIP3    H279515   6.580   1.986  11.807 -0.3494  1.4311  1.7265
19342TIP3   OH279516   0.770   0.712   0.330 -0.4949  0.7789 -0.5512
19342TIP3    H179517   0.740   0.751   0.248 -0.3950  0.9075 -0.5263
19342TIP3    H279518   0.707   0.642   0.347 -0.2763  0.4835 -0.9475
19343TIP3   OH279519   0.292   6.501   1.009  0.4783  0.3215  0.4361
19343TIP3    H179520   0.302   6.417   0.965  1.4958  0.8052 -0.3138
19343TIP3    H279521   0.206   6.497   1.049  0.6127 -1.1666  0.6259
19344TIP3   OH279522   2.848   1.385   4.172  0.0853 -0.0052 -0.3077
19344TIP3    H179523   2.815   1.369   4.261 -0.3354  1.6443 -0.1416
19344TIP3    H279524   2.810   1.314   4.120 -1.5870  0.3241  0.3935
19345TIP3   OH279525   3.234   6.319  16.556  0.2296 -0.5051  0.5581
19345TIP3    H179526   3.318   6.310  16.511  0.1670 -1.5110  0.6284
19345TIP3    H279527   3.227   6.240  16.609 -0.7012 -0.3534  0.6640
19346TIP3   OH279528   4.193   5.159   4.169 -1.1750  0.4242  0.5851
19346TIP3    H179529   4.112   5.193   4.206 -0.9210  2.1444 -0.3282
19346TIP3    H279530   4.259   5.225   4.190 -0.1160 -0.6659  0.8128
19347TIP3   OH279531   5.490   6.492   5.564  0.3965  0.1970  0.1293
19347TIP3    H179532   5.531   6.570   5.601 -0.9927  0.1137  2.0021
19347TIP3    H279533   5.497   6.503   5.469  6.1606 -0.5959  0.0932
19348TIP3   OH279534   3.577   3.064   0.433 -0.9713  0.3385  0.3078
19348TIP3    H179535   3.628   3.036   0.509 -0.4605  0.1974 -0.0834
19348TIP3    H279536   3.582   3.159   0.435 -0.8211  0.3297  0.3577
19349TIP3   OH279537   4.665   6.172   1.209  0.2052  0.4021 -0.4158
19349TIP3    H179538   4.725   6.136   1.144  1.2778 -0.7416  1.1376
19349TIP3    H279539   4.688   6.264   1.216  1.0277  0.2160 -0.6441
19350TIP3   OH279540   4.302   2.812  13.344  0.3064  0.1431  0.3208
19350TIP3    H179541   4.263   2.816  13.431  1.2417  0.5438  0.7367
19350TIP3    H279542   4.370   2.879  13.345  0.3591  0.1204 -0.7073
19351TIP3   OH279543   2.780   0.464   6.164 -0.2542 -0.3442  0.4988
19351TIP3    H179544   2.804   0.433   6.251 -1.3213  2.6357  1.9891
19351TIP3    H279545   2.695   0.426   6.147 -0.2310 -0.6042  0.9567
19352TIP3   OH279546   1.068   2.087   0.330 -0.1659 -0.0375  0.3775
19352TIP3    H179547   1.148   2.083   0.383  0.3015  1.7291 -0.1155
19352TIP3    H279548   1.001   2.118   0.391  0.0178  0.4708  0.3328
19353TIP3   OH279549   1.240   1.177  13.733  0.3128 -0.0542  0.4671
19353TIP3    H179550   1.216   1.124  13.657  2.0125  0.0320 -0.1739
19353TIP3    H279551   1.187   1.257  13.724 -1.5836 -1.2050  0.9408
19354TIP3   OH279552   5.038   2.057  13.981 -0.5210 -0.5787  0.1942
19354TIP3    H179553   5.070   1.982  14.031  2.0136  0.6180  0.5352
19354TIP3    H279554   5.086   2.054  13.898  0.9718  1.5172  0.8896
19355TIP3   OH279555   4.783   4.399  12.727  0.5972  0.1542 -0.1704
19355TIP3    H179556   4.703   4.368  12.769 -0.2067 -0.1280 -1.7961
19355TIP3    H279557   4.813   4.324  12.676 -0.1138  1.2733 -2.3683
19356TIP3   OH279558   1.044   1.586  17.198 -0.3536  0.0916  0.3737
19356TIP3    H179559   1.042   1.490  17.207  0.3664 -0.0691 -0.9487
19356TIP3    H279560   1.137   1.608  17.208 -0.3560  0.5146 -0.4994
19357TIP3   OH279561   6.662   5.139   1.076 -0.1686  0.3759 -0.0846
19357TIP3    H179562   6.589   5.088   1.110  0.9909 -1.6698 -0.4698
19357TIP3    H279563   6.694   5.188   1.152  0.5204 -1.8096  1.1302
19358TIP3   OH279564   6.431   1.893  11.775  0.0103 -0.7131  0.0420
19358TIP3    H179565   6.357   1.886  11.835  0.2329 -4.0811  0.1082
19358TIP3    H279566   6.391   1.921  11.692 -0.8258  0.5105  0.8271
19359TIP3   OH279567   4.942   1.803  12.844  0.6557  0.5588 -0.3378
19359TIP3    H179568   4.848   1.800  12.863  0.1758  1.5321 -2.3391
19359TIP3    H279569   4.947   1.824  12.751  2.8751  0.5760 -0.2593
19360TIP3   OH279570   6.488   3.370   0.222 -0.5007 -0.2958  0.2444
19360TIP3    H179571   6.463   3.341   0.135 -0.3912  1.2710 -0.3474
19360TIP3    H279572   6.445   3.455   0.232  1.3520  0.6453  0.7584
19361TIP3   OH279573   4.697   3.710  16.784 -0.6158  0.0728  0.2122
19361TIP3    H179574   4.615   3.673  16.818 -0.1692 -1.0220  0.1309
19361TIP3    H279575   4.669   3.786  16.732 -1.4456  0.6692  1.4972
19362TIP3   OH279576   4.849   5.255   6.224  0.0244 -0.2139  0.5363
19362TIP3    H179577   4.860   5.164   6.251  1.0969  0.2935  1.9402
19362TIP3    H279578   4.877   5.306   6.300 -1.0589  1.2985 -0.0316
19363TIP3   OH279579   6.040   6.292   6.661  0.0235  0.2526 -0.4604
19363TIP3    H179580   6.112   6.248   6.615 -0.6552 -0.0871 -1.2384
19363TIP3    H279581   5.974   6.306   6.593 -0.6322  0.5940  0.2320
19364TIP3   OH279582   0.510   6.537   2.185 -0.1852  0.3511 -0.1527
19364TIP3    H179583   0.598   6.574   2.191  0.8932 -1.6468 -2.0535
19364TIP3    H279584   0.524   6.447   2.157 -2.7667 -0.8307  1.9649
19365TIP3   OH279585   3.674   1.945   2.126  0.0574 -0.4089  0.2718
19365TIP3    H179586   3.692   1.935   2.032  0.3131 -1.3253  0.4081
19365TIP3    H279587   3.639   1.860   2.152  0.4110 -0.3044  1.1026
19366TIP3   OH279588   1.202   1.901  17.212  0.0481 -0.2353 -0.1190
19366TIP3    H179589   1.114   1.889  17.247  0.2350 -0.6151  0.2223
19366TIP3    H279590   1.203   1.992  17.182  0.1293  0.3511  1.5735
19367TIP3   OH279591   3.476   3.335  16.705 -0.2984 -0.0830 -0.6102
19367TIP3    H179592   3.456   3.429  16.708 -1.2950 -0.2070 -2.1402
19367TIP3    H279593   3.529   3.325  16.625 -0.5846 -0.8819 -0.7042
19368TIP3   OH279594   2.141   3.321  16.425 -0.1710 -0.4008 -0.5648
19368TIP3    H179595   2.072   3.367  16.473 -1.3208 -1.8270 -0.7759
19368TIP3    H279596   2.214   3.382  16.423 -1.8516  1.7070 -1.4389
19369TIP3   OH279597   0.802   1.097  11.531  0.0801 -0.6932  0.1780
19369TIP3    H179598   0.748   1.153  11.588 -0.5939 -2.4726  1.3675
19369TIP3    H279599   0.739   1.046  11.481  0.6692  0.6196 -2.0615
19370TIP3   OH279600   3.527   2.236  15.640  0.5446 -0.2378 -0.2328
19370TIP3    H179601   3.467   2.182  15.691 -0.8498  1.2033 -0.2729
19370TIP3    H279602   3.590   2.269  15.704  0.5305 -0.7278  0.0380
19371TIP3   OH279603   2.132   2.539   4.339 -0.1174 -0.5360  0.0334
19371TIP3    H179604   2.203   2.476   4.326 -0.2693 -0.8015  0.4449
19371TIP3    H279605   2.148   2.576   4.425  1.0333  1.4025 -0.9499
19372TIP3   OH279606   0.938   1.432   1.610 -0.2856 -0.3833  0.1170
19372TIP3    H179607   1.008   1.428   1.546 -1.4730 -1.7619 -1.1668
19372TIP3    H279608   0.877   1.496   1.575 -0.3611 -0.2429  0.4984
19373TIP3   OH279609   5.451   3.117   5.063  0.5501 -0.1375 -0.0944
19373TIP3    H179610   5.498   3.126   5.146  1.0113  0.1182 -0.3785
19373TIP3    H279611   5.381   3.055   5.082  0.1334  0.5488  0.7073
19374TIP3   OH279612   5.228   4.950   1.387  0.3502 -0.0185 -0.1154
19374TIP3    H179613   5.205   4.920   1.475 -1.4661  0.8235 -0.2488
19374TIP3    H279614   5.211   5.044   1.389  2.4711  0.4257 -0.7389
19375TIP3   OH279615   1.082   4.427   5.318 -0.0460  0.1852 -0.3899
19375TIP3    H179616   1.026   4.424   5.241 -0.6759 -0.2612  0.0706
19375TIP3    H279617   1.071   4.515   5.353 -0.6188  0.0467 -0.2003
19376TIP3   OH279618   3.544   3.114   2.788  0.7390 -0.7608  0.1074
19376TIP3    H179619   3.522   3.068   2.870  0.4060 -1.0699 -0.1513
19376TIP3    H279620   3.503   3.061   2.720  0.3314 -0.0684 -0.1951
19377TIP3   OH279621   3.887   2.814   0.988 -0.6519  0.0569  0.4577
19377TIP3    H179622   3.896   2.908   0.972  1.1763 -0.3000 -0.9118
19377TIP3    H279623   3.802   2.792   0.950 -1.6218  1.2875  1.7600
19378TIP3   OH279624   5.463   0.849  12.340  0.1288  0.0179  0.4436
19378TIP3    H179625   5.493   0.935  12.369  2.3873 -0.5950  0.1025
19378TIP3    H279626   5.543   0.802  12.318 -1.1366 -1.6693 -0.8313
19379TIP3   OH279627   5.821   2.511   1.165 -0.0907  0.3577  0.1682
19379TIP3    H179628   5.887   2.452   1.130 -0.1317  0.1181  0.4893
19379TIP3    H279629   5.847   2.598   1.134 -0.2296  0.1262 -0.5968
19380TIP3   OH279630   4.623   5.023   5.584 -0.0472  0.0182  0.4843
19380TIP3    H179631   4.692   4.995   5.524  1.0920  1.2786  1.1510
19380TIP3    H279632   4.567   5.080   5.531 -0.3235 -0.6331  0.0642
19381TIP3   OH279633   6.603   2.840  15.667  0.0803 -0.0893 -0.9014
19381TIP3    H179634   6.633   2.926  15.695  0.7198 -0.3907 -0.6333
19381TIP3    H279635   6.552   2.807  15.741 -0.4456  0.1855 -1.1326
19382TIP3   OH279636   3.271   4.828  17.431 -0.2643  0.1001 -0.1257
19382TIP3    H179637   3.220   4.892  17.481 -1.3376 -2.2374  2.0402
19382TIP3    H279638   3.208   4.758  17.411  1.4676 -1.6664  0.2933
19383TIP3   OH279639   0.629   0.355  13.069 -0.0604 -0.6713 -0.3274
19383TIP3    H179640   0.678   0.406  13.005 -0.6277  1.5390  0.9079
19383TIP3    H279641   0.670   0.375  13.153 -1.5096 -0.6882  0.4263
19384TIP3   OH279642   6.118   3.500   1.653 -0.2834 -0.3596 -0.1205
19384TIP3    H179643   6.085   3.421   1.695 -0.2728 -0.2534  0.0900
19384TIP3    H279644   6.086   3.571   1.708 -0.9809 -0.1632 -0.7601
19385TIP3   OH279645   6.543   3.250  16.734 -0.4808  0.1804  0.5134
19385TIP3    H179646   6.540   3.157  16.754  0.5272 -0.1040 -0.5352
19385TIP3    H279647   6.452   3.274  16.715 -0.5560 -0.9464 -0.6784
19386TIP3   OH279648   0.782   0.034  15.956 -0.3103 -0.5545  0.2946
19386TIP3    H179649   0.736   0.103  15.908 -0.4437  0.1265  1.3582
19386TIP3    H279650   0.725  -0.042  15.949 -0.1143 -0.5992 -0.9826
19387TIP3   OH279651   2.608   3.469  17.318 -0.2740 -0.3284 -0.0921
19387TIP3    H179652   2.558   3.516  17.252  0.7037 -2.0389 -2.1473
19387TIP3    H279653   2.595   3.376  17.297  0.4798 -0.9220  1.8202
19388TIP3   OH279654   0.034   2.276   0.345 -0.1863  0.3156  0.0656
19388TIP3    H179655   0.005   2.277   0.436  0.7131 -1.0403  0.3827
19388TIP3    H279656  -0.033   2.327   0.299 -2.0851 -1.1218  1.0707
19389TIP3   OH279657   5.491   5.062   1.474  0.2201  0.4380 -0.2057
19389TIP3    H179658   5.447   4.995   1.423  1.1332  0.4744 -1.0672
19389TIP3    H279659   5.570   5.020   1.507 -0.1428  0.5430  0.8328
19390TIP3   OH279660   3.539   5.916   2.515 -0.0310 -0.0596 -0.0909
19390TIP3    H179661   3.583   5.999   2.496 -0.6035 -0.0228 -1.3802
19390TIP3    H279662   3.551   5.903   2.609 -0.6879  1.9326  0.3138
19391TIP3   OH279663   6.426   2.911  16.898 -0.4911  0.4613  0.5693
19391TIP3    H179664   6.380   2.929  16.980 -0.8851  0.4353  0.3570
19391TIP3    H279665   6.356   2.907  16.832 -0.0904  1.4602  0.0728
19392TIP3   OH279666   1.594   4.347  17.249  0.5592 -0.6325  0.5049
19392TIP3    H179667   1.529   4.407  17.213 -0.3474 -1.5014  0.6343
19392TIP3    H279668   1.581   4.351  17.343 -0.2191 -1.7542  0.4750
19393TIP3   OH279669   0.535   4.770  14.715  0.2027  0.0212  0.5836
19393TIP3    H179670   0.518   4.708  14.785 -0.5399 -0.1112  0.2894
19393TIP3    H279671   0.564   4.850  14.760  0.6215 -0.3530  0.9839
19394TIP3   OH279672   6.497   3.250   4.421 -0.1940  0.1711 -0.4822
19394TIP3    H179673   6.406   3.225   4.405  0.0957  0.3308 -2.6361
19394TIP3    H279674   6.496   3.291   4.508 -2.3400  0.9401 -0.8134
19395TIP3   OH279675   4.177   3.781  15.079  0.1331 -0.1893 -0.4508
19395TIP3    H179676   4.218   3.695  15.089  0.2994 -0.0095  0.5436
19395TIP3    H279677   4.084   3.766  15.098 -0.1486 -0.4467 -1.9211
19396TIP3   OH279678   0.274   5.703  14.433 -0.2761 -0.4171 -0.2857
19396TIP3    H179679   0.283   5.608  14.440  0.7495 -0.3182 -0.0667
19396TIP3    H279680   0.262   5.719  14.340 -1.3139 -0.8151 -0.2343
19397TIP3   OH279681   3.347   5.251  17.051 -0.1472  0.3294  0.2184
19397TIP3    H179682   3.256   5.233  17.074 -0.4668  3.1208  1.5604
19397TIP3    H279683   3.398   5.190  17.104 -1.1921 -0.2143  0.6238
19398TIP3   OH279684   0.916   1.119  10.713  0.2006  0.3474  0.1134
19398TIP3    H179685   0.848   1.182  10.693 -0.2646 -0.0151  0.5316
19398TIP3    H279686   0.997   1.161  10.684 -0.1715  0.8744 -0.1726
19399TIP3   OH279687   1.341   0.724   1.870 -0.5476 -0.9807 -0.8133
19399TIP3    H179688   1.386   0.726   1.786  1.6664 -1.9302  0.2614
19399TIP3    H279689   1.298   0.809   1.876  2.2520  0.6061 -1.4079
19400TIP3   OH279690   1.644   5.713   1.398  0.4341  0.7604  0.0204
19400TIP3    H179691   1.601   5.709   1.483 -0.5755 -0.2260 -0.5063
19400TIP3    H279692   1.573   5.701   1.335  1.4973 -1.3329 -0.8828
19401TIP3   OH279693   1.646   4.885   1.354  0.3652  0.2023  0.2902
19401TIP3    H179694   1.639   4.861   1.262  0.7427  1.3151 -0.0390
19401TIP3    H279695   1.644   4.801   1.401  0.1597 -0.3692 -0.7216
19402TIP3   OH279696   3.598   5.579   2.100 -0.2646 -0.1195  0.1690
19402TIP3    H179697   3.685   5.597   2.063 -1.4119  1.1319 -2.1307
19402TIP3    H279698   3.598   5.623   2.185  1.2616  0.0540  0.1062
19403TIP3   OH279699   5.952   1.452  14.148  0.1362  0.2804 -0.2006
19403TIP3    H179700   5.906   1.431  14.067 -1.3074 -1.6419  1.0422
19403TIP3    H279701   6.032   1.400  14.144  0.7895  1.3029 -0.9969
19404TIP3   OH279702   1.178   2.299  11.507  0.4297 -0.1621 -0.0039
19404TIP3    H179703   1.201   2.384  11.547 -1.5994  0.4573 -0.0359
19404TIP3    H279704   1.236   2.292  11.431 -0.1775  1.8087 -0.7155
19405TIP3   OH279705   1.969   1.252  14.836  0.9864  0.1771  0.1691
19405TIP3    H179706   1.970   1.347  14.831  2.5349  0.1942  0.1067
19405TIP3    H279707   1.877   1.227  14.826  0.2654  1.7598  2.2445
19406TIP3   OH279708   0.883   0.137   4.720 -0.0931  0.4065 -0.3765
19406TIP3    H179709   0.969   0.165   4.687  0.4346 -1.0923 -0.3262
19406TIP3    H279710   0.822   0.160   4.649  0.5464  0.2823 -0.9790
19407TIP3   OH279711   2.827   5.149   6.798 -0.5000 -0.4493 -0.6299
19407TIP3    H179712   2.784   5.216   6.851  0.9260 -0.1151  0.1569
19407TIP3    H279713   2.759   5.084   6.783 -1.3771  0.2147  0.2937
19408TIP3   OH279714   5.269   0.996  11.663 -0.0051 -0.0381  0.3180
19408TIP3    H179715   5.297   0.926  11.604  0.0574  1.2234 -1.2287
19408TIP3    H279716   5.222   1.057  11.606 -0.2243  1.0778  1.6491
19409TIP3   OH279717   6.277   4.102   2.557 -0.3399 -0.1016 -0.4482
19409TIP3    H179718   6.190   4.142   2.554  1.2433  3.8000 -0.5819
19409TIP3    H279719   6.291   4.082   2.649 -0.9294  0.4242 -0.2374
19410TIP3   OH279720   3.845   0.899  15.820  0.1244 -0.0388  0.3446
19410TIP3    H179721   3.871   0.819  15.867  0.7697  0.8012  1.4997
19410TIP3    H279722   3.779   0.870  15.758 -2.2900 -0.9545  3.1209
19411TIP3   OH279723   5.296   4.295   4.490 -0.4259  0.3899  0.1330
19411TIP3    H179724   5.306   4.223   4.553  0.3233  2.7188  2.9060
19411TIP3    H279725   5.380   4.301   4.446 -0.5003 -0.3997 -0.1344
19412TIP3   OH279726   3.230   6.537   2.185  0.1996  0.3853 -0.0273
19412TIP3    H179727   3.281   6.584   2.120 -0.4386  0.7029 -0.3075
19412TIP3    H279728   3.253   6.578   2.269 -0.7207  1.5692 -0.3176
19413TIP3   OH279729   1.599   4.474  13.700  0.2930 -0.3816 -0.3425
19413TIP3    H179730   1.532   4.451  13.636 -0.6559 -1.4909  0.9896
19413TIP3    H279731   1.629   4.390  13.735  2.0798  0.1053 -0.5709
19414TIP3   OH279732   4.298   5.839  13.677 -0.1005 -0.6929 -0.5028
19414TIP3    H179733   4.354   5.788  13.736  0.8736 -0.3835 -1.1356
19414TIP3    H279734   4.278   5.779  13.605 -4.3291 -2.3583  1.7540
19415TIP3   OH279735   3.885   5.276  16.474  0.1512  0.2723  0.0320
19415TIP3    H179736   3.877   5.365  16.439  0.2423  1.1018  2.0168
19415TIP3    H279737   3.795   5.243  16.475 -0.4045  1.6198  2.3259
19416TIP3   OH279738   5.417   2.962  12.095 -0.1581  0.4681  0.5562
19416TIP3    H179739   5.378   3.025  12.155  0.4761  1.4539 -0.0560
19416TIP3    H279740   5.511   2.967  12.111 -0.0539  0.0985  0.0955
19417TIP3   OH279741   2.573   4.651   5.488  0.2970 -0.4886 -0.1548
19417TIP3    H179742   2.626   4.729   5.504 -0.5414  0.0255  0.1988
19417TIP3    H279743   2.541   4.660   5.399 -0.5191  0.0345  0.1747
19418TIP3   OH279744   3.629   6.180  15.936  0.3375  0.7568 -0.1299
19418TIP3    H179745   3.595   6.213  15.852  1.7341  1.3561 -0.4920
19418TIP3    H279746   3.557   6.130  15.973  0.2933 -1.2152 -2.6118
19419TIP3   OH279747   5.006   4.556   0.379  0.3051 -0.8719 -0.7282
19419TIP3    H179748   4.935   4.583   0.437 -1.3728 -1.7413 -2.2985
19419TIP3    H279749   4.964   4.542   0.294  2.7964  1.1905 -2.4643
19420TIP3   OH279750   1.356   5.043  14.623  0.1847 -0.3953  0.5005
19420TIP3    H179751   1.312   4.958  14.613 -0.6160  0.0035  0.5180
19420TIP3    H279752   1.436   5.035  14.572 -0.7043 -0.5940 -0.9242
19421TIP3   OH279753   1.782   4.134  12.695 -0.1192  0.3408 -0.4994
19421TIP3    H179754   1.732   4.191  12.636  0.8971  1.4630 -0.3019
19421TIP3    H279755   1.739   4.144  12.780  0.0397  0.7807 -0.4717
19422TIP3   OH279756   2.766   1.821   2.479  0.3528 -0.8327 -0.1577
19422TIP3    H179757   2.848   1.869   2.482  1.1469 -2.0567 -1.3418
19422TIP3    H279758   2.763   1.772   2.561 -0.7777  1.6056  1.3801
19423TIP3   OH279759   3.362   5.624  16.420 -0.3970 -0.7190 -0.1397
19423TIP3    H179760   3.293   5.562  16.443  0.3094 -0.8206  1.9295
19423TIP3    H279761   3.372   5.679  16.498  0.1417  0.9471 -1.3129
19424TIP3   OH279762   5.557   2.398   0.028 -0.1178 -0.3270 -0.5014
19424TIP3    H179763   5.572   2.444   0.111  1.6985 -4.4032  1.7254
19424TIP3    H279764   5.493   2.331   0.050 -0.8103 -0.5342 -2.9196
19425TIP3   OH279765   3.401   0.801  16.558 -0.4071  0.2394  0.0994
19425TIP3    H179766   3.398   0.750  16.477 -1.4459  1.4939 -0.6860
19425TIP3    H279767   3.491   0.790  16.589 -0.1190 -0.6325 -0.9670
19426TIP3   OH279768   0.810   1.738   1.984 -0.1169  0.0515  0.0368
19426TIP3    H179769   0.857   1.802   1.929 -0.9241  3.9722  3.3758
19426TIP3    H279770   0.879   1.683   2.021  0.8355  0.0068 -1.7059
19427TIP3   OH279771   0.335   6.239   0.913  0.1893 -0.2871  0.5085
19427TIP3    H179772   0.327   6.171   0.980  2.1666 -0.8179  0.2793
19427TIP3    H279773   0.427   6.234   0.885  0.4577  2.5792  0.5953
19428TIP3   OH279774   0.886   2.380  14.002  0.2569  0.8622 -0.6521
19428TIP3    H179775   0.914   2.292  13.978  0.5891  0.5484  0.7656
19428TIP3    H279776   0.795   2.385  13.974  0.5848  0.5134 -1.8321
19429TIP3   OH279777   1.025   1.286  15.161 -0.5592 -0.0970  0.4439
19429TIP3    H179778   0.964   1.343  15.115 -0.6873 -1.8902 -1.7488
19429TIP3    H279779   1.089   1.346  15.199  1.3009  1.6141 -4.5593
19430TIP3   OH279780   5.436   3.110  15.099  0.2046 -1.0609 -0.2851
19430TIP3    H179781   5.500   3.041  15.080  0.4941 -1.1889  1.0475
19430TIP3    H279782   5.367   3.066  15.149 -0.1384 -0.5923 -0.3370
19431TIP3   OH279783   1.762   4.214   5.622  0.9260 -0.1199  0.5958
19431TIP3    H179784   1.716   4.202   5.705 -1.5705 -0.3926 -0.7194
19431TIP3    H279785   1.812   4.133   5.611 -0.3494 -0.9857  0.9083
19432TIP3   OH279786   1.786   4.950   4.358 -0.2405 -0.0898  0.6038
19432TIP3    H179787   1.730   4.876   4.336 -0.8203  0.0035  1.7171
19432TIP3    H279788   1.852   4.950   4.289 -1.0106 -0.8171 -0.1685
19433TIP3   OH279789   6.700   6.765  17.179 -0.4641 -0.1480  0.2711
19433TIP3    H179790   6.760   6.695  17.153 -1.1283 -0.9670  0.9013
19433TIP3    H279791   6.717   6.777  17.273 -0.6078  0.2894  0.2442
19434TIP3   OH279792   1.089   4.475   5.742  0.3841 -0.4193 -0.2153
19434TIP3    H179793   1.183   4.494   5.750  0.5971 -1.6476  0.3458
19434TIP3    H279794   1.051   4.511   5.822  0.6248 -1.3567  0.3287
19435TIP3   OH279795   4.162   0.973   1.647 -0.2747 -0.0660 -0.4698
19435TIP3    H179796   4.244   0.925   1.638 -0.2955 -0.1058 -0.4450
19435TIP3    H279797   4.187   1.056   1.686  0.1335  1.0297 -2.8858
19436TIP3   OH279798   3.200   3.582   1.408  0.0946 -0.8124  0.0343
19436TIP3    H179799   3.198   3.645   1.335  0.4606 -0.1552  0.5803
19436TIP3    H279800   3.284   3.599   1.451 -0.6580 -0.3072  1.3652
19437TIP3   OH279801   4.834   1.722  14.414 -0.1528 -0.2652  0.3341
19437TIP3    H179802   4.913   1.672  14.393  0.6671  0.1696  2.1759
19437TIP3    H279803   4.856   1.767  14.496 -1.7652  1.1078  0.0497
19438TIP3   OH279804   0.053   1.897   6.102  0.0202 -0.2353  0.0678
19438TIP3    H179805   0.011   1.853   6.028  1.3126 -0.9745 -0.2636
19438TIP3    H279806   0.127   1.943   6.062 -0.8982  1.7291  0.5069
19439TIP3   OH279807   5.098   3.919   3.616 -0.0908  0.3809 -0.2688
19439TIP3    H179808   5.037   3.882   3.680 -0.3307  0.6283 -0.3510
19439TIP3    H279809   5.136   3.995   3.661  1.2407 -0.5944  0.3206
19440TIP3   OH279810   5.904   1.732   2.623 -0.1592 -0.0484 -0.2193
19440TIP3    H179811   5.886   1.768   2.710  0.8708 -1.0205  0.4239
19440TIP3    H279812   5.825   1.752   2.572 -0.9655  0.1617  1.0586
19441TIP3   OH279813   6.507   4.167  14.998  0.0329  1.0121 -0.1967
19441TIP3    H179814   6.589   4.207  14.971  1.2124 -0.9577  0.2342
19441TIP3    H279815   6.520   4.073  14.982 -2.3929  0.7154 -0.7449
19442TIP3   OH279816   1.002   5.952   0.795  0.1923  1.0133  0.2837
19442TIP3    H179817   0.934   5.904   0.748  1.1114 -0.4368  0.3709
19442TIP3    H279818   1.031   6.020   0.734  1.2530 -0.7206 -1.2515
19443TIP3   OH279819   4.132   6.198  16.522  0.0379 -0.6623  0.0213
19443TIP3    H179820   4.207   6.142  16.499 -0.1603 -0.5783 -0.8885
19443TIP3    H279821   4.084   6.208  16.439 -0.3651  0.2068  0.3486
19444TIP3   OH279822   4.114   3.702  12.979  0.1647  0.5843 -0.1814
19444TIP3    H179823   4.078   3.782  13.018  0.7506  0.3746  0.8281
19444TIP3    H279824   4.208   3.717  12.976  0.1751  0.3729 -1.0416
19445TIP3   OH279825   5.379   6.593  17.451  0.6006 -0.1767 -0.4063
19445TIP3    H179826   5.377   6.560  17.361  0.1772 -2.3474  0.3500
19445TIP3    H279827   5.366   6.515  17.505 -1.3863  1.3590  1.4836
19446TIP3   OH279828   0.616   0.692   0.041 -0.2377  0.0791 -0.2878
19446TIP3    H179829   0.547   0.758   0.041  0.5246  0.8905 -0.7091
19446TIP3    H279830   0.616   0.657  -0.048 -0.6009 -0.4579 -0.0806
19447TIP3   OH279831   0.425   4.190  15.238  0.0485  0.7743  0.1866
19447TIP3    H179832   0.508   4.160  15.201  0.4482  2.3107 -0.2584
19447TIP3    H279833   0.375   4.219  15.161  0.2946  2.6005  0.6604
19448TIP3   OH279834   2.328   3.411   4.610  0.2154 -0.2353 -0.6163
19448TIP3    H179835   2.310   3.504   4.621 -0.7329 -0.5252  0.4603
19448TIP3    H279836   2.273   3.368   4.674  1.9343 -1.4461  0.1401
19449TIP3   OH279837   5.980   2.104  16.443 -0.1213 -0.3235 -0.0384
19449TIP3    H179838   5.981   2.022  16.394  1.0221 -0.0275 -0.5612
19449TIP3    H279839   6.004   2.171  16.378  0.4582  0.2070  0.6973
19450TIP3   OH279840   4.036   2.082   0.066  0.4444 -0.1122  0.6619
19450TIP3    H179841   4.117   2.122   0.034  0.0121  0.1219 -0.1883
19450TIP3    H279842   3.983   2.069  -0.013 -0.1789 -0.6504  1.1520
19451TIP3   OH279843   5.812   6.708   4.946 -0.0171 -0.1150  0.1709
19451TIP3    H179844   5.751   6.770   4.905 -0.8145 -0.5313  0.6807
19451TIP3    H279845   5.830   6.747   5.032  1.3051  0.5409 -0.3808
19452TIP3   OH279846   6.354   0.342   2.493  0.4722 -0.1429 -0.1594
19452TIP3    H179847   6.397   0.315   2.574 -0.0755 -0.6474 -0.0251
19452TIP3    H279848   6.262   0.352   2.517  0.5760  1.3808 -0.3271
19453TIP3   OH279849   3.654   1.061  16.614  0.1059 -0.0524 -0.1786
19453TIP3    H179850   3.623   1.085  16.527 -1.5813 -1.4532 -0.0163
19453TIP3    H279851   3.676   0.968  16.607 -1.5973 -0.6192  1.2360
19454TIP3   OH279852   2.396   2.883  11.494  0.4123 -0.4521  0.3571
19454TIP3    H179853   2.384   2.815  11.560  0.2460 -0.1884  0.5972
19454TIP3    H279854   2.400   2.835  11.411  1.9524 -0.9128  0.6654
19455TIP3   OH279855   5.870   5.986   4.020  0.3879  0.5961 -0.2074
19455TIP3    H179856   5.940   6.010   3.959  0.1402 -0.4086 -0.9117
19455TIP3    H279857   5.828   5.911   3.980 -1.1295  1.1921  0.2057
19456TIP3   OH279858   4.307   5.693  12.175  0.2280  0.3507  0.4097
19456TIP3    H179859   4.227   5.739  12.147 -1.1174 -1.9989  0.1841
19456TIP3    H279860   4.325   5.631  12.104  0.7949 -0.9102  1.6152
19457TIP3   OH279861   0.569   1.713   5.636  0.2428 -0.3592  0.3861
19457TIP3    H179862   0.662   1.693   5.628  1.2927  3.2601  1.7447
19457TIP3    H279863   0.548   1.694   5.728 -0.6324 -1.8084 -0.0680
19458TIP3   OH279864   3.291   3.757   5.770  0.6805 -0.5497  0.7170
19458TIP3    H179865   3.383   3.769   5.746 -0.1277 -1.7171 -3.8938
19458TIP3    H279866   3.248   3.838   5.741 -0.1343 -1.1958  0.0783
19459TIP3   OH279867   0.455   3.186  14.802  0.3732  0.2357  0.1383
19459TIP3    H179868   0.463   3.279  14.826 -0.4528  0.4556 -0.3969
19459TIP3    H279869   0.421   3.188  14.712  1.8511 -0.5779 -0.4630
19460TIP3   OH279870   4.779   1.409  15.025  0.0776  0.0841  0.2730
19460TIP3    H179871   4.810   1.492  14.987  0.6510  0.2283  1.0156
19460TIP3    H279872   4.703   1.434  15.078  1.6276  0.5767  2.4107
19461TIP3   OH279873   6.452   1.377   2.781 -0.0266 -0.1063  0.0928
19461TIP3    H179874   6.428   1.470   2.774 -1.4351 -0.5650 -2.2313
19461TIP3    H279875   6.534   1.369   2.732  1.2834  0.2144  2.1052
19462TIP3   OH279876   4.331   6.758   5.605 -0.4844 -0.4079  0.6795
19462TIP3    H179877   4.237   6.775   5.608 -0.3039  1.4246 -1.4313
19462TIP3    H279878   4.356   6.778   5.514  2.0408 -0.2253  1.3402
19463TIP3   OH279879   0.675   0.535  15.852 -0.0776 -0.4629 -0.5832
19463TIP3    H179880   0.625   0.487  15.919 -0.4031 -1.9478 -1.8377
19463TIP3    H279881   0.706   0.614  15.897 -0.1331 -1.4949  1.3647
19464TIP3   OH279882   1.068   2.370   6.488 -0.1270  0.0372  0.1374
19464TIP3    H179883   1.101   2.360   6.399 -2.4300 -0.2238 -0.7584
19464TIP3    H279884   1.144   2.355   6.544  1.5408  0.9648 -1.7789
19465TIP3   OH279885   5.655   2.291   1.148 -0.1486  0.0112  0.3715
19465TIP3    H179886   5.709   2.358   1.191  0.0740  0.4600 -0.5802
19465TIP3    H279887   5.697   2.208   1.172  0.1910  0.2738  0.7071
19466TIP3   OH279888   2.711   5.848   1.947 -0.4237 -0.4184  0.0061
19466TIP3    H179889   2.804   5.854   1.970 -0.5564  0.1107  0.4384
19466TIP3    H279890   2.709   5.850   1.852  0.0765 -1.5497 -0.0531
19467TIP3   OH279891   2.994   0.783  17.496 -0.6723 -0.0633 -0.4832
19467TIP3    H179892   2.957   0.697  17.477 -1.3089 -0.2293  1.3195
19467TIP3    H279893   2.920   0.843  17.489 -0.2393  0.3550 -1.6867
19468TIP3   OH279894   6.587   4.426  15.615  0.2686  0.7223 -0.3143
19468TIP3    H179895   6.565   4.387  15.530  1.8551 -0.5965 -0.1653
19468TIP3    H279896   6.622   4.512  15.594 -0.6703  0.9807 -0.8709
19469TIP3   OH279897   4.166   0.569  14.050 -0.1937  0.0050 -0.2447
19469TIP3    H179898   4.261   0.575  14.063  0.2070 -2.0507 -1.7392
19469TIP3    H279899   4.129   0.620  14.122  1.9838 -1.6144  2.2219
19470TIP3   OH279900   3.237   2.135  13.119  0.4266  0.3539  0.2032
19470TIP3    H179901   3.194   2.085  13.188  0.7186 -0.0774  0.0838
19470TIP3    H279902   3.194   2.220  13.119  1.8916  1.1744  2.3963
19471TIP3   OH279903   6.570   1.654  17.266 -0.2538  0.0408  0.0620
19471TIP3    H179904   6.530   1.668  17.180 -0.0892 -0.4690 -0.0971
19471TIP3    H279905   6.519   1.710  17.325 -0.9011 -0.2402 -0.2195
19472TIP3   OH279906   1.638   1.067  16.039 -0.2543 -0.5197  0.1417
19472TIP3    H179907   1.609   1.022  15.960 -0.5129  0.6409 -0.4626
19472TIP3    H279908   1.557   1.082  16.089 -0.2167 -0.4127  0.1703
19473TIP3   OH279909   0.037   3.685  11.595  0.6607  0.1136  0.3558
19473TIP3    H179910   0.125   3.687  11.633  0.8305 -0.1727 -0.0174
19473TIP3    H279911  -0.020   3.664  11.668  1.0307 -0.8704  0.3816
19474TIP3   OH279912   4.525   6.680   4.871 -0.1480  0.4295  0.2591
19474TIP3    H179913   4.551   6.603   4.821  0.1615 -0.7996  2.1930
19474TIP3    H279914   4.467   6.646   4.939 -0.8553  2.0807  0.5257
19475TIP3   OH279915   2.307   0.715  16.937  0.0322 -0.2060 -0.0673
19475TIP3    H179916   2.354   0.696  16.856 -1.8346 -0.6909 -1.1081
19475TIP3    H279917   2.293   0.629  16.978  0.1048 -0.0649  0.2570
19476TIP3   OH279918   1.903   3.947  11.950 -0.3615  0.6447 -0.2152
19476TIP3    H179919   1.821   3.922  11.908 -0.5564  0.6613  0.1469
19476TIP3    H279920   1.915   4.040  11.927  0.0705  0.3811 -1.0882
19477TIP3   OH279921   1.648   6.630  13.346  0.0631 -0.4930 -0.4882
19477TIP3    H179922   1.555   6.641  13.323 -0.1118  0.6272  0.6617
19477TIP3    H279923   1.647   6.574  13.423  0.1774  1.1170  0.7258
19478TIP3   OH279924   1.721   4.477   5.913 -0.5502 -0.3723 -0.1462
19478TIP3    H179925   1.649   4.414   5.922 -1.5856  0.5150 -1.7733
19478TIP3    H279926   1.706   4.518   5.828  0.8469  1.1538  0.3059
19479TIP3   OH279927   4.458   4.447   0.128  0.1379 -0.1815 -0.0062
19479TIP3    H179928   4.431   4.366   0.171 -4.2395 -0.5019 -2.7394
19479TIP3    H279929   4.490   4.419   0.043 -0.2467  0.8427 -0.4996
19480TIP3   OH279930   0.363   0.770   6.583  0.0399  0.1669  0.0747
19480TIP3    H179931   0.378   0.753   6.676  2.6814  1.0591 -0.0847
19480TIP3    H279932   0.352   0.684   6.544 -0.5273 -0.2530  1.1225
19481TIP3   OH279933   2.974   5.260   1.664 -0.0561 -0.0742 -0.0260
19481TIP3    H179934   2.966   5.314   1.585  0.0012 -0.0178  0.0066
19481TIP3    H279935   2.935   5.313   1.734  3.7711  1.8227  0.9193
19482TIP3   OH279936   2.296   4.289  14.243 -0.2257  0.2998 -0.3106
19482TIP3    H179937   2.335   4.375  14.231 -1.2569  0.9908  0.9764
19482TIP3    H279938   2.244   4.275  14.164  1.5511 -0.0864 -1.4682
19483TIP3   OH279939   6.724   2.976  13.289  0.3747 -0.1843  0.0767
19483TIP3    H179940   6.707   2.888  13.323  0.8586 -0.1565  0.4123
19483TIP3    H279941   6.738   3.029  13.368 -2.1444  0.7099  0.0163
19484TIP3   OH279942   6.040   2.550   2.281 -0.5398  0.1974  0.4324
19484TIP3    H179943   6.106   2.596   2.229  2.0479  1.6116  4.4201
19484TIP3    H279944   6.028   2.466   2.237  2.8835  0.4594 -1.3450
19485TIP3   OH279945   2.186   1.416   4.567 -0.4842 -0.6041  0.2599
19485TIP3    H179946   2.279   1.401   4.552 -0.6205 -1.0887 -0.1365
19485TIP3    H279947   2.158   1.471   4.493 -0.4677 -0.2705  0.4987
19486TIP3   OH279948   5.243   4.875  16.125 -0.1414  0.6855  0.5075
19486TIP3    H179949   5.223   4.965  16.100  1.8384  1.1020  0.2053
19486TIP3    H279950   5.266   4.881  16.218  1.2550  0.7587  0.1794
19487TIP3   OH279951   2.753   5.323   0.804 -0.0156 -0.0803 -0.1713
19487TIP3    H179952   2.674   5.289   0.845 -0.2302  0.6094 -0.0008
19487TIP3    H279953   2.785   5.389   0.865 -0.0969  0.6520 -0.9029
19488TIP3   OH279954   2.103   4.613   4.672 -0.3265  0.7691  0.3502
19488TIP3    H179955   2.156   4.549   4.719  1.5096  0.8714 -1.4666
19488TIP3    H279956   2.143   4.698   4.691 -0.7470  1.0172  0.1608
19489TIP3   OH279957   5.818   5.166   4.805 -0.3447  0.2797  0.3652
19489TIP3    H179958   5.759   5.207   4.869  0.7360  1.2025  0.8087
19489TIP3    H279959   5.760   5.120   4.745 -1.4003 -0.7796  2.0985
19490TIP3   OH279960   2.899   3.315   4.346  0.0870 -0.0287 -0.1242
19490TIP3    H179961   2.989   3.318   4.378  0.2726  2.3887 -0.7209
19490TIP3    H279962   2.848   3.357   4.415 -0.5277 -0.9137 -0.0272
19491TIP3   OH279963   5.398   3.126   5.979  0.5391 -0.3396 -0.3962
19491TIP3    H179964   5.441   3.152   5.897  0.2177 -1.6974 -1.0312
19491TIP3    H279965   5.381   3.033   5.968  0.6970 -0.5958  1.3351
19492TIP3   OH279966   2.102   0.647  15.458  0.6084  0.1729  0.1186
19492TIP3    H179967   2.014   0.653  15.495  0.9306  0.6135  0.8227
19492TIP3    H279968   2.088   0.645  15.363 -0.2379 -1.0991  0.2446
19493TIP3   OH279969   4.005   0.548   0.384  0.1990  0.1038 -0.3287
19493TIP3    H179970   3.936   0.570   0.447 -0.1299  2.2844 -1.3315
19493TIP3    H279971   3.964   0.560   0.299  0.9650 -1.6425 -0.9860
19494TIP3   OH279972   6.632   2.486  15.068  0.2273 -0.2857  0.2557
19494TIP3    H179973   6.692   2.558  15.051  0.6165 -0.3921  1.1320
19494TIP3    H279974   6.667   2.443  15.146 -0.4336 -0.9507  0.1984
19495TIP3   OH279975   3.131   0.975  15.254 -0.0323 -0.3172 -0.6805
19495TIP3    H179976   3.105   0.909  15.318 -0.6721  1.0744  0.5684
19495TIP3    H279977   3.214   1.009  15.287  1.7968 -2.4033 -2.8481
19496TIP3   OH279978   0.258   0.916   1.067 -0.0697  0.0070  0.4135
19496TIP3    H179979   0.200   0.860   1.117  0.5383  1.4019  2.8237
19496TIP3    H279980   0.200   0.973   1.017 -0.6977 -0.9102  0.0797
19497TIP3   OH279981   6.510   6.081   0.094  0.2362 -0.1183  0.1977
19497TIP3    H179982   6.467   6.020   0.034 -0.2967  0.3749  0.0633
19497TIP3    H279983   6.445   6.095   0.163 -0.2345  1.4202 -0.5262
19498TIP3   OH279984   4.283   5.774   1.730 -0.2091  0.9545 -0.6630
19498TIP3    H179985   4.261   5.788   1.638  1.2236 -2.6166 -1.7292
19498TIP3    H279986   4.217   5.711   1.760  0.5196  0.5528  0.1224
19499TIP3   OH279987   0.317   3.397   3.430 -0.0806 -0.4859  0.2988
19499TIP3    H179988   0.266   3.356   3.500 -1.9137  1.5911  0.2764
19499TIP3    H279989   0.253   3.446   3.379  1.7565  1.2605 -0.4766
19500TIP3   OH279990   3.587   0.924   0.283 -0.3069  0.5161  0.1987
19500TIP3    H179991   3.666   0.876   0.307 -0.1868 -0.8119 -2.4301
19500TIP3    H279992   3.540   0.936   0.365  1.4822 -0.7825  1.5001
19501TIP3   OH279993   5.666   4.757  11.176  0.6504 -0.1192  0.1805
19501TIP3    H179994   5.753   4.766  11.214  0.5199  0.3331  0.3862
19501TIP3    H279995   5.621   4.697  11.235  1.6936 -2.6727 -1.4933
19502TIP3   OH279996   6.302   3.112  12.439  0.0631 -0.3079 -0.1744
19502TIP3    H179997   6.250   3.134  12.361 -0.8768 -0.0884  0.4929
19502TIP3    H279998   6.325   3.020  12.426  0.5871 -0.0689 -1.0740
19503TIP3   OH279999   4.973   2.371  12.083 -0.3367  0.0568  0.0458
19503TIP3    H180000   4.899   2.369  12.022  0.2021 -1.3340 -0.6141
19503TIP3    H280001   5.051   2.378  12.027  0.0474  1.8243  0.7433
19504TIP3   OH280002   2.271   4.892  13.407 -0.0243  0.1915  0.4423
19504TIP3    H180003   2.320   4.972  13.388  2.1486 -1.0411  0.5140
19504TIP3    H280004   2.261   4.892  13.502  2.8504 -1.0620  0.8708
19505TIP3   OH280005   3.002   0.701   4.826  0.2154 -0.4605  0.1230
19505TIP3    H180006   2.929   0.761   4.807 -1.3882 -2.3481 -0.0359
19505TIP3    H280007   3.057   0.749   4.888  0.2808  2.0355 -1.7048
19506TIP3   OH280008   4.672   5.929   5.509 -0.2081  0.2179 -0.1812
19506TIP3    H180009   4.706   5.993   5.572 -1.0276  0.7198 -0.2365
19506TIP3    H280010   4.704   5.959   5.425 -0.8244  0.7302 -0.2410
19507TIP3   OH280011   3.847   1.168  12.412 -0.5257 -0.3997 -0.2503
19507TIP3    H180012   3.869   1.075  12.404  2.0907  0.1576 -0.4933
19507TIP3    H280013   3.882   1.194  12.497 -0.3259  0.5687 -0.6169
19508TIP3   OH280014   6.269   5.699   2.542 -0.1236  1.1412 -0.3443
19508TIP3    H180015   6.349   5.751   2.532  1.3778 -0.8777  0.4231
19508TIP3    H280016   6.284   5.622   2.488 -2.5317  1.6599 -1.9050
19509TIP3   OH280017   5.553   6.278   0.346 -0.1493  0.0513  0.0627
19509TIP3    H180018   5.609   6.315   0.414 -1.4198  0.4509  0.9261
19509TIP3    H280019   5.569   6.184   0.351 -0.9844 -0.0459  1.6639
19510TIP3   OH280020   6.511   3.551   5.265  0.6367  0.4715  0.1939
19510TIP3    H180021   6.442   3.613   5.285 -1.1555 -1.3329 -0.0206
19510TIP3    H280022   6.504   3.535   5.171  0.7139 -0.4199  0.3243
19511TIP3   OH280023   3.551   5.109  12.110 -0.1273  0.2266 -0.0276
19511TIP3    H180024   3.539   5.018  12.083  2.5410 -0.2726  0.1535
19511TIP3    H280025   3.511   5.114  12.197  0.4219 -1.0317  0.3202
19512TIP3   OH280026   2.660   2.631  16.324 -0.4061  0.1816 -0.1293
19512TIP3    H180027   2.686   2.582  16.402  0.2265  2.5824  1.2804
19512TIP3    H280028   2.737   2.681  16.300 -1.8501  3.0016  0.5971
19513TIP3   OH280029   5.443   5.808   3.979 -0.6880 -0.0682  0.0667
19513TIP3    H180030   5.523   5.795   4.032 -1.0361 -0.9362  0.4093
19513TIP3    H280031   5.456   5.752   3.903 -1.1456 -0.5596  0.3381
19514TIP3   OH280032   1.910   1.739  15.015 -0.6783  0.4217 -0.4129
19514TIP3    H180033   1.930   1.731  15.109 -0.2015  0.9610 -0.4599
19514TIP3    H280034   1.816   1.759  15.012 -0.6022  0.8727 -0.0161
19515TIP3   OH280035   3.441   4.716  10.988 -0.1605 -0.6449 -0.5938
19515TIP3    H180036   3.503   4.676  10.927 -0.1446  0.5719 -1.4145
19515TIP3    H280037   3.393   4.781  10.935  1.6488  2.3997  1.1840
19516TIP3   OH280038   5.130   1.295  17.175 -0.4133 -0.2574  0.1111
19516TIP3    H180039   5.135   1.199  17.181  2.0367 -0.3032 -1.3102
19516TIP3    H280040   5.211   1.320  17.130 -1.0824  2.4884  0.2878
19517TIP3   OH280041   3.704   1.305  11.691 -0.1724  0.3541 -0.4903
19517TIP3    H180042   3.788   1.290  11.648 -0.1091  2.1529 -1.0534
19517TIP3    H280043   3.713   1.391  11.731 -1.7926  0.6248 -0.6574
19518TIP3   OH280044   6.205   0.449  15.043 -0.4176 -0.2057  0.0020
19518TIP3    H180045   6.192   0.489  15.129  0.2289  0.9796 -0.4245
19518TIP3    H280046   6.284   0.491  15.009 -0.4754 -0.9024 -1.0319
19519TIP3   OH280047   5.646   4.214  15.181  0.1816 -0.1610  0.0309
19519TIP3    H180048   5.716   4.151  15.197  0.4401 -0.4296 -1.9818
19519TIP3    H280049   5.587   4.169  15.120 -1.4865  0.2619  1.2510
19520TIP3   OH280050   5.296   6.716   1.789  0.2528  0.3373  0.4650
19520TIP3    H180051   5.329   6.798   1.824  2.2905 -0.5370  0.7061
19520TIP3    H280052   5.204   6.734   1.769  0.1588  2.1264  2.2153
19521TIP3   OH280053   4.080   3.317   6.837 -0.1869 -0.0562  0.2717
19521TIP3    H180054   4.089   3.404   6.876  1.2059 -0.7106  1.5109
19521TIP3    H280055   4.113   3.327   6.748  1.0593  0.4403  0.7757
19522TIP3   OH280056   1.052   1.526   5.852  0.6852  0.0867 -0.0443
19522TIP3    H180057   1.057   1.470   5.929  0.5934  2.0459  1.4793
19522TIP3    H280058   1.140   1.563   5.842  0.0380  2.0763  0.9776
19523TIP3   OH280059   5.388   5.628   5.992 -0.8971 -0.5968 -0.0432
19523TIP3    H180060   5.321   5.679   5.947 -0.0688  0.4741 -0.0973
19523TIP3    H280061   5.395   5.669   6.079  0.0303 -0.3631 -0.2126
19524TIP3   OH280062   4.946   5.028  17.393 -0.5853  0.3321 -0.2294
19524TIP3    H180063   4.962   4.983  17.310 -0.1506 -0.5611  0.3211
19524TIP3    H280064   4.865   4.988  17.426 -0.7734  0.7065 -0.2389
19525TIP3   OH280065   4.270   6.345  13.857 -0.1602  0.2499  0.0012
19525TIP3    H180066   4.295   6.386  13.774  0.0576  0.6014  0.2327
19525TIP3    H280067   4.354   6.316  13.894 -0.4422 -1.9393 -0.9220
19526TIP3   OH280068   5.114   0.314   4.240 -0.5027  0.2250 -0.2892
19526TIP3    H180069   5.028   0.329   4.279 -0.0813  1.6765  0.1469
19526TIP3    H280070   5.100   0.243   4.178 -1.6449 -0.7328  0.9982
19527TIP3   OH280071   1.721   3.103  14.298  0.1487 -0.2270 -0.9382
19527TIP3    H180072   1.711   3.009  14.284 -0.5478 -0.4287  0.6369
19527TIP3    H280073   1.816   3.117  14.299  0.3054 -1.1946  0.2919
19528TIP3   OH280074   6.039   4.003  11.607  0.1889  0.5457  0.2311
19528TIP3    H180075   6.022   4.009  11.513 -1.8667 -1.4478  0.3753
19528TIP3    H280076   5.953   4.015  11.648  0.7055 -0.5306  1.7176
19529TIP3   OH280077   1.170   1.714   5.495  0.3126  0.1155 -0.1022
19529TIP3    H180078   1.108   1.775   5.536  0.4394  0.5399 -0.5345
19529TIP3    H280079   1.158   1.727   5.401  1.1320  0.2860 -0.1916
19530TIP3   OH280080   1.311   5.094   0.175  0.0940 -0.0265  0.0825
19530TIP3    H180081   1.314   5.093   0.270  1.4860 -0.7170  0.0641
19530TIP3    H280082   1.246   5.028   0.151  1.4996 -1.6581  0.5571
19531TIP3   OH280083   6.722   0.319   1.275  0.3431  0.0487 -0.3540
19531TIP3    H180084   6.786   0.331   1.345  0.1857  0.3384 -0.2561
19531TIP3    H280085   6.775   0.310   1.196  0.6155 -2.0787  0.0013
19532TIP3   OH280086   5.741   4.010   0.731  0.3452  0.3082  0.2548
19532TIP3    H180087   5.719   4.070   0.803 -0.6764  0.7187 -0.3674
19532TIP3    H280088   5.724   4.061   0.652 -1.7449 -1.1330 -0.3316
19533TIP3   OH280089   2.575   2.105   4.575 -0.1132 -0.2670 -0.1107
19533TIP3    H180090   2.494   2.139   4.536 -1.0987 -1.0836  1.1343
19533TIP3    H280091   2.581   2.149   4.659  1.5021  0.7898 -0.7289
19534TIP3   OH280092   2.406   3.744   2.301  0.5170 -0.0107  0.0620
19534TIP3    H180093   2.422   3.762   2.208  1.3752  1.7919  0.5053
19534TIP3    H280094   2.491   3.718   2.336  0.1306 -1.0002  0.3041
19535TIP3   OH280095   1.135   6.052  14.365  0.5074  0.4917 -0.2758
19535TIP3    H180096   1.101   6.137  14.394  1.8667  1.3631 -1.0836
19535TIP3    H280097   1.228   6.055  14.387  0.8347 -0.2777 -1.4451
19536TIP3   OH280098   2.183   1.304  11.321  0.1073 -0.2819  0.0161
19536TIP3    H180099   2.190   1.387  11.275  1.2020 -0.3831 -0.0314
19536TIP3    H280100   2.247   1.309  11.391  2.1199 -2.0398 -1.5454
19537TIP3   OH280101   2.284   1.887   4.531 -0.3422  0.0025 -0.4679
19537TIP3    H180102   2.358   1.829   4.549 -0.1312  0.7085  1.1607
19537TIP3    H280103   2.243   1.900   4.617 -1.1902  1.1632 -1.0230
19538TIP3   OH280104   2.479   4.648   1.972 -0.6568 -0.1924  0.9561
19538TIP3    H180105   2.390   4.616   1.958 -0.2171 -0.6286 -1.2259
19538TIP3    H280106   2.475   4.741   1.951 -0.3882 -0.4633 -0.4198
19539TIP3   OH280107   1.573   5.087  15.017  0.0719  0.0745  0.2671
19539TIP3    H180108   1.597   5.000  15.048  1.1672  0.7322  1.3449
19539TIP3    H280109   1.582   5.143  15.094 -0.1407  1.2207 -0.5237
19540TIP3   OH280110   2.551   6.372   4.627  0.4235 -0.2339 -0.4009
19540TIP3    H180111   2.457   6.367   4.609  0.2535 -1.8558  0.7240
19540TIP3    H280112   2.560   6.449   4.684 -0.3345 -0.4736  0.0617
19541TIP3   OH280113   4.068   6.536   5.614 -0.4950  0.3601  0.0937
19541TIP3    H180114   3.989   6.523   5.562 -0.4892  0.9626 -0.0668
19541TIP3    H280115   4.121   6.457   5.598 -0.5748  0.4580 -0.6539
19542TIP3   OH280116   5.862   2.291   2.539 -0.5242 -0.0888  0.0070
19542TIP3    H180117   5.921   2.367   2.545  1.3845 -1.4063 -0.9997
19542TIP3    H280118   5.905   2.224   2.592 -2.1036 -0.5561  0.7614
19543TIP3   OH280119   6.288   5.601  11.847  0.6046  0.0434 -0.4144
19543TIP3    H180120   6.337   5.559  11.776  0.2411 -0.6613 -0.2583
19543TIP3    H280121   6.230   5.532  11.880 -1.2593  1.1264 -1.2764
19544TIP3   OH280122   6.197   6.136  12.452  0.3224 -0.2876  0.2847
19544TIP3    H180123   6.250   6.125  12.373  0.9186  0.5807  0.5534
19544TIP3    H280124   6.107   6.122  12.422  0.4662  0.7453 -0.7200
19545TIP3   OH280125   0.370   3.243  17.221 -0.3388 -0.1494  1.0200
19545TIP3    H180126   0.397   3.329  17.253 -1.5684  0.5724  0.2200
19545TIP3    H280127   0.280   3.256  17.191 -0.1048 -1.3913 -0.3556
19546TIP3   OH280128   6.166   0.965   5.003 -0.1537 -0.3084 -0.3046
19546TIP3    H180129   6.247   0.923   5.033 -0.1160  0.1174  0.2340
19546TIP3    H280130   6.172   1.054   5.039 -0.2475  0.1448 -1.3703
19547TIP3   OH280131   5.987   1.747   2.010  0.0728  0.5614  0.1317
19547TIP3    H180132   5.903   1.773   2.047  0.3222 -0.2536  1.3419
19547TIP3    H280133   5.969   1.730   1.918 -1.1980 -0.0798  0.4792
19548TIP3   OH280134   4.350   1.507  11.794  0.0766 -0.0360 -0.1539
19548TIP3    H180135   4.369   1.478  11.705  0.7749 -1.3016  0.3868
19548TIP3    H280136   4.331   1.601  11.785 -0.2816 -0.2265 -1.6788
19549TIP3   OH280137   1.927   1.092   2.648  0.0448 -0.5487  0.1380
19549TIP3    H180138   1.966   1.007   2.669  1.7720 -0.0659 -0.8728
19549TIP3    H280139   1.847   1.070   2.601  1.2527 -1.7055 -1.5158
19550TIP3   OH280140   1.201   5.737   3.943  0.2398 -0.0132 -0.2639
19550TIP3    H180141   1.268   5.804   3.955  0.1457  0.1158 -0.4529
19550TIP3    H280142   1.130   5.763   4.002  1.1013 -1.1644  1.3465
19551TIP3   OH280143   1.343   5.042  12.987 -0.0717  0.4583 -0.3439
19551TIP3    H180144   1.414   5.067  13.046 -1.1736 -0.5428  1.5139
19551TIP3    H280145   1.381   4.978  12.928  1.7403  3.3250 -2.5555
19552TIP3   OH280146   5.051   0.141   5.223 -0.2608 -0.5378 -0.6703
19552TIP3    H180147   4.989   0.213   5.232  1.6293  0.8943  2.8317
19552TIP3    H280148   5.015   0.072   5.280  0.4153 -0.3698 -0.0243
19553TIP3   OH280149   6.576   1.267   4.438  0.6060 -0.0722 -0.1749
19553TIP3    H180150   6.481   1.278   4.443  0.1690 -2.7234 -0.9874
19553TIP3    H280151   6.594   1.255   4.345  2.1126  2.4956 -0.3158
19554TIP3   OH280152   5.842   5.613  11.391  0.3917  0.2651  0.2467
19554TIP3    H180153   5.779   5.556  11.346 -0.5845  0.0046  1.8641
19554TIP3    H280154   5.792   5.653  11.462  1.6107  1.5085  0.4470
19555TIP3   OH280155   1.022   6.641   0.977  0.1588  0.0557  0.2834
19555TIP3    H180156   1.057   6.648   0.888  2.5071  0.0496  1.1338
19555TIP3    H280157   0.951   6.577   0.970  1.3519 -1.1769 -1.3075
19556TIP3   OH280158   6.423   2.435   0.671  0.3717  0.0300 -0.6531
19556TIP3    H180159   6.484   2.503   0.699 -1.3228  1.7159 -0.8254
19556TIP3    H280160   6.443   2.360   0.727  2.3628  0.6077 -0.5133
19557TIP3   OH280161   6.702   0.211   4.443 -0.2189  0.1297  0.8432
19557TIP3    H180162   6.736   0.283   4.390 -0.2570  0.3889  1.1688
19557TIP3    H280163   6.704   0.245   4.533  1.9690 -1.0747  1.3320
19558TIP3   OH280164   5.676   2.219   4.674 -0.2833 -0.6794 -0.4301
19558TIP3    H180165   5.650   2.310   4.658  1.2816 -0.0012  0.7051
19558TIP3    H280166   5.632   2.196   4.756  0.2649 -0.5283 -0.0872
19559TIP3   OH280167   1.125   4.388   4.161 -0.0924  0.5611 -0.8021
19559TIP3    H180168   1.122   4.294   4.178  0.4235  0.4279 -1.4118
19559TIP3    H280169   1.064   4.426   4.224 -1.0553 -0.2815 -1.2084
19560TIP3   OH280170   6.008   2.270  17.319  0.2034  0.3180 -0.4733
19560TIP3    H180171   5.996   2.246  17.411 -0.6835  0.6121 -0.4985
19560TIP3    H280172   5.923   2.254  17.279  0.2740  1.2033 -1.0100
19561TIP3   OH280173   0.703   6.616  13.426  0.5913 -0.0351 -0.1218
19561TIP3    H180174   0.672   6.526  13.416 -1.3072  0.4979  0.5630
19561TIP3    H280175   0.772   6.611  13.492  0.2039 -0.9351  0.2269
19562TIP3   OH280176   4.919   6.327   2.692 -0.7793  0.4526  0.3378
19562TIP3    H180177   4.998   6.276   2.677 -1.2123 -0.1487  0.0531
19562TIP3    H280178   4.881   6.341   2.605 -1.3732  0.0923  0.5295
19563TIP3   OH280179   1.283   3.377   5.544  0.1714  0.6779  0.1509
19563TIP3    H180180   1.209   3.318   5.540  0.8673 -0.2227  0.2629
19563TIP3    H280181   1.284   3.409   5.634 -0.4716  1.2256 -0.0271
19564TIP3   OH280182   4.802   1.268   5.939  0.0684  0.2196 -0.3443
19564TIP3    H180183   4.866   1.228   5.880 -0.3042 -1.6049  0.3852
19564TIP3    H280184   4.801   1.360   5.916 -0.1299 -0.4053 -3.2343
19565TIP3   OH280185   5.928   6.628  15.394  0.3421  0.1474  0.4345
19565TIP3    H180186   5.911   6.712  15.352  2.2387  0.1960 -0.3434
19565TIP3    H280187   5.842   6.588  15.405 -0.3492  0.5174 -2.7217
19566TIP3   OH280188   0.654   5.684  11.204  0.5366 -0.1696  0.1661
19566TIP3    H180189   0.648   5.589  11.196 -1.0876 -0.1675  0.8987
19566TIP3    H280190   0.612   5.718  11.125 -1.4158 -0.1110  1.1677
19567TIP3   OH280191   6.438   5.626  11.580 -0.1371  0.4619  0.6572
19567TIP3    H180192   6.474   5.642  11.493  0.4670  0.5043  0.9125
19567TIP3    H280193   6.379   5.699  11.595 -0.8215  0.0639 -0.0191
19568TIP3   OH280194   5.546   6.488   1.532 -0.2644  0.1086  0.7521
19568TIP3    H180195   5.537   6.582   1.519 -0.1826 -0.0095 -0.2483
19568TIP3    H280196   5.465   6.462   1.576  0.2654  0.8356  2.1815
19569TIP3   OH280197   2.236   0.453   4.187 -0.0361  0.2911 -0.0174
19569TIP3    H180198   2.280   0.528   4.226 -2.1718  1.3563  0.5229
19569TIP3    H280199   2.209   0.399   4.261  1.5233 -1.1021 -0.4048
19570TIP3   OH280200   4.390   4.773  14.789  0.0123  0.1695 -0.6373
19570TIP3    H180201   4.449   4.848  14.780 -0.7177  1.0867  1.5516
19570TIP3    H280202   4.362   4.775  14.880 -0.6777 -2.3242 -0.7185
19571TIP3   OH280203   1.380   2.972  15.157  0.1947 -0.7817  0.0987
19571TIP3    H180204   1.447   3.041  15.160 -3.4694  3.1767  1.9489
19571TIP3    H280205   1.389   2.927  15.241  1.3662 -1.2404 -0.2608
19572TIP3   OH280206   4.979   0.868  16.377  0.3589  0.1619  0.1273
19572TIP3    H180207   5.057   0.877  16.432 -0.4874  1.7967  1.1305
19572TIP3    H280208   4.989   0.935  16.310 -0.0720  0.2219  0.1169
19573TIP3   OH280209   4.202   6.303  17.045 -0.0418  0.0672  0.1163
19573TIP3    H180210   4.152   6.275  16.969 -1.3419  1.0517  0.5806
19573TIP3    H280211   4.209   6.224  17.099  1.2874 -0.7610 -1.1824
19574TIP3   OH280212   6.396   5.006   1.136 -0.8097 -0.0700  0.2045
19574TIP3    H180213   6.390   4.917   1.101  0.9536 -0.4641  0.7911
19574TIP3    H280214   6.331   5.008   1.207  1.8519 -2.3829  3.0444
19575TIP3   OH280215   2.037   2.220   4.527 -0.0818  0.3346  0.1445
19575TIP3    H180216   2.008   2.307   4.557  0.4903  0.1349  1.3451
19575TIP3    H280217   1.967   2.161   4.552  0.4062  0.1642  1.1426
19576TIP3   OH280218   4.257   1.163   1.828  0.0142  0.5833 -0.1041
19576TIP3    H180219   4.196   1.196   1.894  0.7104  0.6538  0.5285
19576TIP3    H280220   4.300   1.089   1.871  1.0962  1.1603 -0.1435
19577TIP3   OH280221   5.775   4.901   0.913 -0.0570 -0.1755  0.5022
19577TIP3    H180222   5.768   4.872   0.822  2.0280 -1.0136  0.5553
19577TIP3    H280223   5.868   4.900   0.931 -0.4487 -0.3798  2.7704
19578TIP3   OH280224   4.796   3.485   3.133  0.4055 -0.1923 -0.0039
19578TIP3    H180225   4.846   3.483   3.052  0.6437 -0.0016  0.1388
19578TIP3    H280226   4.770   3.394   3.148 -0.6497 -0.0701 -0.9196
19579TIP3   OH280227   5.606   6.759  15.064 -0.0085 -0.0769  0.3238
19579TIP3    H180228   5.643   6.684  15.017  1.0628  0.9004 -0.4265
19579TIP3    H280229   5.679   6.794  15.115 -0.2353  1.0719 -0.1274
19580TIP3   OH280230   3.122   4.248  12.010 -0.0394 -0.2886 -0.3321
19580TIP3    H180231   3.072   4.233  12.091 -2.1693 -1.1600 -1.7409
19580TIP3    H280232   3.096   4.335  11.981  1.5147  0.4703  0.3750
19581TIP3   OH280233   0.029   0.885   5.947  0.4563  0.5132  0.1834
19581TIP3    H180234   0.036   0.794   5.979 -0.1908  0.2021 -0.5357
19581TIP3    H280235   0.084   0.935   6.007 -1.2671  0.0640  2.2796
19582TIP3   OH280236   3.976   2.174   6.749 -0.1290 -0.1959 -0.4374
19582TIP3    H180237   3.936   2.134   6.672  0.6360  1.4238 -1.7541
19582TIP3    H280238   3.979   2.268   6.729  2.9323 -0.0455  0.1814
19583TIP3   OH280239   3.456   0.332   0.929 -0.0676 -0.0186  0.6612
19583TIP3    H180240   3.447   0.281   1.010 -1.3735 -1.8133 -0.5309
19583TIP3    H280241   3.374   0.317   0.882 -0.5073  3.1840  0.1564
19584TIP3   OH280242   6.138   1.418   0.863  0.2366  0.1602 -0.8065
19584TIP3    H180243   6.207   1.352   0.856 -0.0677 -0.3337  0.6584
19584TIP3    H280244   6.100   1.422   0.775  1.1899 -0.5905 -1.2657
19585TIP3   OH280245   0.126   3.859   1.434  0.6033  0.4064  0.3368
19585TIP3    H180246   0.133   3.953   1.418  0.4892  0.0765 -1.9654
19585TIP3    H280247   0.197   3.820   1.383  0.0096 -0.8391  0.4094
19586TIP3   OH280248   2.386   0.376   2.994 -0.0807  0.2535 -0.4024
19586TIP3    H180249   2.386   0.291   2.951  1.7169 -0.6455  1.2323
19586TIP3    H280250   2.366   0.357   3.086 -0.2403  1.6753 -0.1148
19587TIP3   OH280251   6.370   4.806  15.132  0.6677 -0.2519 -0.1213
19587TIP3    H180252   6.461   4.776  15.124  0.0668 -2.5835  0.9007
19587TIP3    H280253   6.320   4.726  15.145 -1.4494  1.0618  0.2029
19588TIP3   OH280254   4.088   4.964  13.962 -0.8180  0.7684 -0.2742
19588TIP3    H180255   3.997   4.948  13.985 -0.5420 -1.9572 -0.7798
19588TIP3    H280256   4.097   4.930  13.873  1.3589 -2.0677  0.8883
19589TIP3   OH280257   2.913   3.061   5.840  0.2138 -0.2083  0.0544
19589TIP3    H180258   2.864   3.010   5.776 -1.4967  2.0429 -0.5694
19589TIP3    H280259   3.003   3.061   5.807 -0.0037 -1.6418 -0.6294
19590TIP3   OH280260   2.360   6.412  17.344  0.0621  0.2213  0.1581
19590TIP3    H180261   2.325   6.480  17.401  3.3391  2.0053  0.2913
19590TIP3    H280262   2.322   6.330  17.377 -1.6077  1.6569  1.9868
19591TIP3   OH280263   5.820   4.492  15.768  0.0983 -0.0082 -1.5751
19591TIP3    H180264   5.812   4.447  15.852  0.6053  1.3321 -0.7774
19591TIP3    H280265   5.792   4.428  15.704 -0.5699 -0.9774 -0.3587
19592TIP3   OH280266   1.939   3.002   0.245  0.0642 -0.0789 -0.2599
19592TIP3    H180267   1.913   3.052   0.167 -3.1849 -1.5358 -0.2715
19592TIP3    H280268   2.000   2.936   0.212  1.4731  1.4602 -0.8790
19593TIP3   OH280269   5.600   5.795   5.669 -0.3939 -0.4003 -0.0632
19593TIP3    H180270   5.569   5.808   5.758  0.3332 -1.7936  0.4114
19593TIP3    H280271   5.538   5.732   5.631 -0.1725 -0.5018 -0.2590
19594TIP3   OH280272   4.795   0.087   4.410 -0.3005  0.0719 -0.6170
19594TIP3    H180273   4.719   0.056   4.459  0.4173  0.3100  0.7030
19594TIP3    H280274   4.857   0.014   4.414  1.3290  1.4140  2.3495
19595TIP3   OH280275   0.765   6.016  14.289  0.3866 -0.2078 -0.4918
19595TIP3    H180276   0.734   6.071  14.217  2.6837  0.4540 -1.0565
19595TIP3    H280277   0.781   6.076  14.361 -0.8201 -0.7166  0.2228
19596TIP3   OH280278   5.385   0.442   4.001  0.4327  0.0863  0.2606
19596TIP3    H180279   5.451   0.412   4.063  0.7500 -0.2036 -0.2043
19596TIP3    H280280   5.306   0.394   4.025  0.8258 -0.8241 -0.2091
19597TIP3   OH280281   4.453   0.396   5.837  0.3480 -0.3544  0.7049
19597TIP3    H180282   4.437   0.489   5.848 -1.0132 -0.5273  0.3137
19597TIP3    H280283   4.402   0.371   5.759  1.0565 -1.3288  0.5319
19598TIP3   OH280284   2.745   6.477   5.173  0.0865  0.0081  0.0029
19598TIP3    H180285   2.668   6.481   5.230 -0.2424 -0.4241 -0.4060
19598TIP3    H280286   2.772   6.385   5.175 -0.3610 -0.1626 -1.0948
19599TIP3   OH280287   3.640   0.629   0.804 -0.7332  0.3593  0.1318
19599TIP3    H180288   3.679   0.716   0.810  1.2085 -0.3727 -1.0106
19599TIP3    H280289   3.675   0.582   0.880  0.3088 -0.1678 -0.6536
19600TIP3   OH280290   4.183   0.296  14.284 -0.2827  0.2089  0.1550
19600TIP3    H180291   4.275   0.321  14.287  0.3408 -1.8192 -0.3517
19600TIP3    H280292   4.166   0.258  14.370 -0.3123 -0.4269 -0.1249
19601TIP3   OH280293   4.766   0.105  13.162  0.1450  0.3134 -0.1725
19601TIP3    H180294   4.759   0.029  13.220 -0.5461  0.7867  0.3981
19601TIP3    H280295   4.798   0.175  13.219 -2.2236  1.2466  0.1267
19602TIP3   OH280296   5.641   6.357  16.372  0.0585 -0.2609  0.2020
19602TIP3    H180297   5.692   6.431  16.405 -0.7606 -0.8168  3.0038
19602TIP3    H280298   5.550   6.379  16.394 -0.5620 -0.8152 -1.6064
19603TIP3   OH280299   5.153   1.717   5.245  0.4314  0.3973  0.3998
19603TIP3    H180300   5.098   1.698   5.169  0.6008 -0.2768  0.4384
19603TIP3    H280301   5.236   1.673   5.226  0.2365 -0.3818  1.2865
19604TIP3   OH280302   5.137   1.685  13.762 -0.6400 -0.2546  0.4921
19604TIP3    H180303   5.197   1.760  13.769  0.6195 -1.2805  1.2768
19604TIP3    H280304   5.069   1.702  13.827 -0.9925  0.7351 -0.1168
19605TIP3   OH280305   5.642   2.598   2.248  0.2963 -0.2901  0.8231
19605TIP3    H180306   5.644   2.505   2.267 -0.1778 -0.7478 -1.1455
19605TIP3    H280307   5.706   2.637   2.308  0.6256 -1.8953  1.5428
19606TIP3   OH280308   4.581   1.589  16.208  0.4417  0.6113 -0.3678
19606TIP3    H180309   4.643   1.573  16.137  0.5502  0.3947 -0.2254
19606TIP3    H280310   4.626   1.651  16.266  0.7198  0.0791 -0.0144
19607TIP3   OH280311   0.639   5.222   0.496 -0.0720 -0.8345 -0.0924
19607TIP3    H180312   0.631   5.305   0.544  3.0445 -0.0758 -0.6504
19607TIP3    H280313   0.611   5.244   0.407 -2.4569 -1.3232  0.4840
19608TIP3   OH280314   2.180   1.070   1.381  0.3836 -0.4059 -0.4818
19608TIP3    H180315   2.136   1.152   1.360 -0.3700 -0.4481  0.8435
19608TIP3    H280316   2.138   1.004   1.325 -0.8797 -0.3397  0.3390
19609TIP3   OH280317   4.058   0.733  17.273 -0.6437  0.2890  0.2277
19609TIP3    H180318   3.988   0.672  17.293 -0.0123 -0.1359  1.2262
19609TIP3    H280319   4.081   0.773  17.357 -0.1899  0.9686 -0.2027
19610TIP3   OH280320   1.384   2.751  12.539 -0.2322 -0.1003  0.8249
19610TIP3    H180321   1.450   2.812  12.508  0.3499 -0.9422  0.4109
19610TIP3    H280322   1.362   2.697  12.464 -1.8432  0.5330  0.7771
19611TIP3   OH280323   0.584   0.140   4.247 -0.3868  0.5323  0.1593
19611TIP3    H180324   0.649   0.207   4.229  3.0282 -2.7125 -0.9733
19611TIP3    H280325   0.544   0.122   4.162  0.1914 -0.1913  0.0298
19612TIP3   OH280326   6.544   3.915  15.559  0.3289 -0.1101  0.3033
19612TIP3    H180327   6.569   3.885  15.646  0.0246 -0.1312  0.3873
19612TIP3    H280328   6.622   3.958  15.524 -0.0073  1.3408  1.2233
19613TIP3   OH280329   3.695   4.527   6.408 -0.6557  0.2330  0.4759
19613TIP3    H180330   3.708   4.472   6.485 -1.8317  0.6296  0.9912
19613TIP3    H280331   3.619   4.488   6.364  0.4954 -0.4893 -0.9696
19614TIP3   OH280332   2.654   3.691   0.793 -0.3007 -0.6411  0.5408
19614TIP3    H180333   2.603   3.739   0.857 -0.3376  0.5215 -0.3230
19614TIP3    H280334   2.648   3.600   0.820 -0.3470 -0.1890  2.1470
19615TIP3   OH280335   1.269   0.491   5.431  0.7120 -0.3369  0.1247
19615TIP3    H180336   1.239   0.500   5.341  0.8811  1.7217  0.2247
19615TIP3    H280337   1.240   0.572   5.474  2.5963 -0.2300  1.3152
19616TIP3   OH280338   0.071   1.636   5.318 -0.2633  0.6024 -0.2456
19616TIP3    H180339   0.053   1.708   5.259  1.2207  0.5739 -0.7741
19616TIP3    H280340   0.123   1.575   5.266  1.3872  0.7451  1.1729
19617TIP3   OH280341   3.210   1.325  13.690 -0.2043 -0.0243 -0.3667
19617TIP3    H180342   3.262   1.382  13.634 -0.3336  1.2389  0.7612
19617TIP3    H280343   3.183   1.380  13.763 -2.2339 -0.9267 -0.3674
19618TIP3   OH280344   1.341   1.773  11.522 -0.0680  0.1686 -0.6792
19618TIP3    H180345   1.316   1.742  11.434 -0.3962  0.9256 -0.8609
19618TIP3    H280346   1.345   1.868  11.513  1.3838  0.1639 -0.2452
19619TIP3   OH280347   2.299   4.074   4.863 -0.0163 -0.0608 -0.5655
19619TIP3    H180348   2.208   4.084   4.892 -0.8669 -2.0754 -2.2815
19619TIP3    H280349   2.340   4.019   4.929 -1.4016 -3.0105 -1.9875
19620TIP3   OH280350   1.933   4.373  12.705  0.0579 -0.0491  0.1501
19620TIP3    H180351   1.967   4.431  12.773 -1.6133  2.8410 -1.3066
19620TIP3    H280352   1.844   4.354  12.733 -0.3663  0.4923 -0.7954
19621TIP3   OH280353   0.637   4.557   2.713  1.4842  0.1231  0.3893
19621TIP3    H180354   0.542   4.552   2.725  1.5782  2.6559  3.9123
19621TIP3    H280355   0.649   4.606   2.632 -0.2362 -0.1197 -0.0481
19622TIP3   OH280356   4.096   5.852   5.885  0.3357 -0.6577 -0.3244
19622TIP3    H180357   4.041   5.912   5.834 -2.8322 -1.9437  1.2452
19622TIP3    H280358   4.089   5.769   5.839 -2.6619 -1.8682  1.9415
19623TIP3   OH280359   0.049   5.132  13.684 -0.3351  0.5350 -0.5213
19623TIP3    H180360   0.035   5.168  13.771 -0.6506 -0.2764 -0.2246
19623TIP3    H280361  -0.035   5.093  13.661 -0.0014 -0.0149 -0.8263
19624TIP3   OH280362   6.428   0.363  14.155 -0.7067 -0.1682  0.4710
19624TIP3    H180363   6.515   0.345  14.118 -1.3175 -0.0864 -1.0868
19624TIP3    H280364   6.443   0.370  14.249  0.9492 -0.3180  0.2507
19625TIP3   OH280365   3.934   0.174   5.190  0.1925  0.1378 -0.9140
19625TIP3    H180366   3.900   0.185   5.102 -1.0789 -0.3967 -0.5141
19625TIP3    H280367   3.919   0.081   5.210  0.4558  0.2510 -0.1441
19626TIP3   OH280368   5.442   2.767  13.069  0.1386  0.5644  0.2096
19626TIP3    H180369   5.410   2.821  12.997 -0.0497 -0.3368 -0.4018
19626TIP3    H280370   5.368   2.759  13.129 -0.1277  0.2140 -0.1642
19627TIP3   OH280371   4.311   5.033  15.071  0.2079  0.1827  0.3308
19627TIP3    H180372   4.256   5.080  15.134 -0.9008 -0.5445 -0.0499
19627TIP3    H280373   4.285   5.068  14.986  1.7452  1.2052  0.2502
19628TIP3   OH280374   2.617   0.441  12.081 -0.2124 -0.0117 -0.4452
19628TIP3    H180375   2.617   0.473  12.172  0.0307 -1.7864  0.2281
19628TIP3    H280376   2.534   0.471  12.045 -0.5514  0.2924  0.5376
19629TIP3   OH280377   5.547   5.591  14.727 -0.5050  0.2405  0.2926
19629TIP3    H180378   5.632   5.548  14.715 -0.1332  0.2195  2.5106
19629TIP3    H280379   5.567   5.667  14.782 -1.7261  1.0634 -0.3642
19630TIP3   OH280380   4.044   3.710   6.659  0.2694 -0.0042 -0.4974
19630TIP3    H180381   3.967   3.656   6.642  0.3071  0.2748 -1.6296
19630TIP3    H280382   4.012   3.779   6.717 -0.0714 -0.4938 -0.0890
19631TIP3   OH280383   3.793   0.357  11.639 -0.2007 -0.3948  0.7025
19631TIP3    H180384   3.726   0.396  11.584  0.3150 -1.1753 -0.5219
19631TIP3    H280385   3.843   0.301  11.580 -0.2937 -2.1296  2.1800
19632TIP3   OH280386   0.466   5.690   3.815 -0.1156 -0.2405  0.6483
19632TIP3    H180387   0.518   5.610   3.813 -0.9008 -0.8049 -2.8399
19632TIP3    H280388   0.529   5.760   3.799  0.2263 -0.3624  1.3987
19633TIP3   OH280389   1.243   1.072  16.380  0.4856  0.0727  0.4807
19633TIP3    H180390   1.281   1.148  16.424 -1.7185  0.7162  1.3824
19633TIP3    H280391   1.216   1.014  16.450 -3.4545  1.2890  0.2259
19634TIP3   OH280392   4.867   5.530   2.467  0.5547 -0.0498  0.4303
19634TIP3    H180393   4.951   5.560   2.431  1.1908 -0.5201  1.4731
19634TIP3    H280394   4.809   5.606   2.457  1.5062  0.7835  0.9740
19635TIP3   OH280395   0.341   5.361   5.382  0.2005 -0.0529  0.5086
19635TIP3    H180396   0.366   5.439   5.432  0.6669 -0.6603  1.2249
19635TIP3    H280397   0.297   5.397   5.305 -0.9709  0.9019  1.5601
19636TIP3   OH280398   1.010   2.864  14.780 -0.2306  0.3843  0.1762
19636TIP3    H180399   1.080   2.897  14.837 -0.2177  0.7885 -0.0678
19636TIP3    H280400   0.977   2.787  14.825 -0.3202  0.7792  0.8025
19637TIP3   OH280401   2.731   6.429   5.815 -0.6546 -0.3026  0.5452
19637TIP3    H180402   2.674   6.439   5.892 -1.2297 -0.7528  0.1815
19637TIP3    H280403   2.679   6.379   5.753  0.0250 -0.4390  0.0777
19638TIP3   OH280404   1.445   1.827   1.364  0.6535  0.4980 -0.6513
19638TIP3    H180405   1.370   1.882   1.389  0.5647  0.8214 -1.5623
19638TIP3    H280406   1.499   1.885   1.310 -0.2588 -0.7147 -3.0408
19639TIP3   OH280407   0.499   5.729  12.256 -0.4692 -0.5091  0.2814
19639TIP3    H180408   0.443   5.796  12.296  0.6602  0.0228  1.0246
19639TIP3    H280409   0.579   5.732  12.308  1.9227  1.5962 -3.1363
19640TIP3   OH280410   5.289   2.035  16.754 -0.2843  0.0597 -0.0061
19640TIP3    H180411   5.205   2.017  16.797  0.0213 -1.2638  0.0788
19640TIP3    H280412   5.336   1.952  16.757  0.1972  0.2064 -1.9402
19641TIP3   OH280413   2.203   1.341  13.625 -0.5962 -0.2227 -0.1011
19641TIP3    H180414   2.200   1.256  13.669 -1.2344 -0.1528 -0.0060
19641TIP3    H280415   2.152   1.399  13.682 -1.1276 -0.0428 -0.7520
19642TIP3   OH280416   0.685   3.043  15.091 -0.3873 -0.5425  0.2869
19642TIP3    H180417   0.745   3.117  15.084  1.4334 -1.6186  2.8306
19642TIP3    H280418   0.644   3.053  15.177 -1.3809 -1.6195 -0.0312
19643TIP3   OH280419   1.432   4.749   5.312 -0.2347 -0.5063 -0.2511
19643TIP3    H180420   1.473   4.773   5.395 -1.7470 -0.4023  0.4952
19643TIP3    H280421   1.476   4.668   5.286  0.3876 -0.4368  0.5472
19644TIP3   OH280422   1.448   4.455   1.258  0.7639  0.1081  0.4827
19644TIP3    H180423   1.535   4.433   1.291  1.2301  0.9581 -0.1450
19644TIP3    H280424   1.449   4.550   1.249  0.0696  0.0505 -0.3345
19645TIP3   OH280425   6.020   3.494  14.548 -0.1857  0.0550 -0.0166
19645TIP3    H180426   6.076   3.510  14.624 -0.6572  0.8537  0.1646
19645TIP3    H280427   5.934   3.475  14.585 -0.4297  0.5040 -0.3474
19646TIP3   OH280428   5.988   1.604   2.373  0.0235  0.1607  0.5462
19646TIP3    H180429   5.916   1.579   2.315 -0.6845 -0.5373  1.6972
19646TIP3    H280430   5.948   1.659   2.440  0.8396  1.0068  0.3619
19647TIP3   OH280431   4.435   3.314  14.724 -0.2137  0.2168  0.4618
19647TIP3    H180432   4.453   3.350  14.637  0.5117 -0.8544  0.1541
19647TIP3    H280433   4.415   3.391  14.777 -3.0728  0.7290 -1.1773
19648TIP3   OH280434   5.774   4.342   5.306  0.0744  0.6534 -0.1193
19648TIP3    H180435   5.795   4.364   5.397  1.4619  2.3990 -0.8006
19648TIP3    H280436   5.678   4.338   5.304  0.0207 -1.6328  1.8399
19649TIP3   OH280437   3.747   2.581   4.537 -0.0798  0.3008 -0.0422
19649TIP3    H180438   3.810   2.635   4.586 -0.5378  1.5979 -0.8183
19649TIP3    H280439   3.662   2.609   4.570 -0.3242  0.1050 -0.5062
19650TIP3   OH280440   4.872   4.993  14.445  0.4014  0.0475 -0.3232
19650TIP3    H180441   4.892   4.935  14.520  2.3689  1.2375  0.1476
19650TIP3    H280442   4.779   4.978  14.427 -0.5521  0.7323  3.2775
19651TIP3   OH280443   4.997   1.729   4.988  0.7482  0.0955 -0.2638
19651TIP3    H180444   4.971   1.671   4.916 -0.6083 -0.6563  0.7889
19651TIP3    H280445   4.953   1.811   4.969 -1.3603 -0.7380  0.7495
19652TIP3   OH280446   4.091   0.164   3.739 -0.0654 -0.1576 -0.1076
19652TIP3    H180447   4.169   0.172   3.794  0.6623  0.4254 -1.1814
19652TIP3    H280448   4.064   0.073   3.747  0.2848 -0.1786  0.8701
19653TIP3   OH280449   3.312   0.182  15.976 -0.2242  0.3917  0.0619
19653TIP3    H180450   3.322   0.267  15.933 -0.3694  1.0076  1.2039
19653TIP3    H280451   3.218   0.165  15.974 -0.1308 -0.0670 -0.7505
19654TIP3   OH280452   6.180   4.522  11.639  0.1655 -0.5301 -0.6834
19654TIP3    H180453   6.162   4.433  11.608 -0.6398 -1.0060  1.0082
19654TIP3    H280454   6.161   4.578  11.564 -3.1364 -1.4864 -0.7159
19655TIP3   OH280455   2.920   0.616   1.319  0.2856  0.3106  0.3114
19655TIP3    H180456   2.932   0.527   1.352 -1.7703  0.8714  2.9265
19655TIP3    H280457   2.838   0.612   1.269  0.3379  0.6808  0.1934
19656TIP3   OH280458   5.603   0.952  13.349  0.0272  0.1281 -0.5597
19656TIP3    H180459   5.541   1.002  13.404  1.5179  0.9884  0.4138
19656TIP3    H280460   5.609   1.003  13.269 -0.7233 -0.1085 -0.7751
19657TIP3   OH280461   0.472   1.712  13.231  0.0391  0.4259  0.7099
19657TIP3    H180462   0.555   1.759  13.237 -0.3119  0.9098  2.2247
19657TIP3    H280463   0.412   1.762  13.286 -0.7982 -0.8399  1.0010
19658TIP3   OH280464   1.255   3.203   4.670  0.3800 -0.3826 -0.2458
19658TIP3    H180465   1.323   3.136   4.681  1.4646  0.8271  0.7961
19658TIP3    H280466   1.231   3.228   4.759  1.5676  2.1068 -0.5442
19659TIP3   OH280467   4.683   0.967  16.749 -0.3038 -0.2476 -0.1060
19659TIP3    H180468   4.762   1.000  16.705  0.1630 -0.7383  0.3557
19659TIP3    H280469   4.611   1.000  16.695  0.1651  1.0117 -0.0150
19660TIP3   OH280470   5.560   3.498   1.379 -0.0285  0.1491  0.5247
19660TIP3    H180471   5.597   3.585   1.397  1.6378 -0.3838 -0.1697
19660TIP3    H280472   5.532   3.466   1.464 -0.1960  1.1656  0.8628
19661TIP3   OH280473   6.029   1.391   4.149 -0.0084 -0.0634 -0.2799
19661TIP3    H180474   6.107   1.337   4.134 -0.3893 -0.4064 -1.0214
19661TIP3    H280475   6.059   1.459   4.210  0.6109 -0.7845  0.2427
19662TIP3   OH280476   0.351   6.047   1.102  0.0447  0.1328 -0.9142
19662TIP3    H180477   0.425   5.986   1.095  0.1825  0.4772 -2.8459
19662TIP3    H280478   0.274   5.992   1.092  0.0695 -0.0083 -0.4032
19663TIP3   OH280479   2.752   5.798   5.170 -0.1034 -1.0153 -0.0012
19663TIP3    H180480   2.787   5.849   5.097  0.4851 -1.6531 -0.1766
19663TIP3    H280481   2.822   5.797   5.235 -0.1965 -1.3835  0.0994
19664TIP3   OH280482   6.645   1.493  15.506 -0.4298  0.0326 -0.2826
19664TIP3    H180483   6.564   1.470  15.461 -0.8362 -0.0351  0.4738
19664TIP3    H280484   6.698   1.413  15.502 -0.1253  0.2707 -1.3402
19665TIP3   OH280485   2.258   0.533   3.355  0.4962  0.1824  0.2038
19665TIP3    H180486   2.332   0.472   3.363  0.4313  0.1252  0.3691
19665TIP3    H280487   2.262   0.585   3.435 -1.6218 -2.0073  1.8891
19666TIP3   OH280488   4.440   1.462   4.651  0.1964 -0.4721 -0.0520
19666TIP3    H180489   4.352   1.497   4.638  0.3571  0.3904  1.0506
19666TIP3    H280490   4.439   1.427   4.740  0.9228 -0.5927 -0.0811
19667TIP3   OH280491   3.874   0.556  13.273  0.2419 -0.2817  0.1482
19667TIP3    H180492   3.780   0.570  13.286  0.3121  0.3624 -0.0000
19667TIP3    H280493   3.897   0.489  13.338 -0.4540 -0.9578 -0.2898
19668TIP3   OH280494   2.851   2.998  11.694 -0.3491 -0.5747 -0.1134
19668TIP3    H180495   2.861   3.094  11.696  0.4299 -0.6469  2.4405
19668TIP3    H280496   2.789   2.983  11.623 -0.4560  1.8185 -0.6396
19669TIP3   OH280497   5.418   2.967  11.642  0.0378  0.0466 -0.2648
19669TIP3    H180498   5.437   3.057  11.618 -0.1056  0.5062  1.1992
19669TIP3    H280499   5.502   2.922  11.634  0.1797  0.3855 -0.7039
19670TIP3   OH280500   4.295   3.637   5.003  0.4330 -0.1178  0.0268
19670TIP3    H180501   4.380   3.679   5.015  0.1336  0.1617  1.2818
19670TIP3    H280502   4.293   3.568   5.069  0.2037 -0.9884 -0.8667
19671TIP3   OH280503   4.079   2.310   3.690 -0.2945 -0.4776 -0.3790
19671TIP3    H180504   4.030   2.246   3.638 -0.3820 -2.1990  1.6813
19671TIP3    H280505   4.028   2.390   3.684 -0.1782 -0.5116 -3.0662
19672TIP3   OH280506   4.097   2.062   4.466  0.5882 -0.5945  0.9261
19672TIP3    H180507   4.003   2.079   4.466  0.6828  0.3206 -1.7022
19672TIP3    H280508   4.105   1.968   4.452 -0.0064 -0.2858 -1.9789
19673TIP3   OH280509   2.166   3.268   4.845  0.1030 -0.8003 -0.2620
19673TIP3    H180510   2.171   3.286   4.939  0.9989  0.1278 -0.4650
19673TIP3    H280511   2.108   3.335   4.810 -1.3112 -1.9392 -0.2159
19674TIP3   OH280512   0.607   1.834   3.839 -0.9244  0.1718  0.2044
19674TIP3    H180513   0.698   1.865   3.849 -0.8867 -0.1913  1.1349
19674TIP3    H280514   0.585   1.799   3.925 -2.0176  0.4118  0.0336
19675TIP3   OH280515   2.467   4.682   0.025  0.7013 -0.6454  0.3834
19675TIP3    H180516   2.416   4.602   0.031 -0.8609  0.3839  1.6972
19675TIP3    H280517   2.407   4.746  -0.014  1.4073  0.2558  0.7246
19676TIP3   OH280518   1.764   3.462  14.295 -0.1762 -0.3276  0.8130
19676TIP3    H180519   1.727   3.410  14.224  0.5264  0.0960  0.1270
19676TIP3    H280520   1.840   3.412  14.324 -1.4315 -1.3711  2.4518
19677TIP3   OH280521   2.820   5.804  16.317 -0.2923  0.7499 -0.9521
19677TIP3    H180522   2.885   5.872  16.335 -0.8928  1.3930 -1.1857
19677TIP3    H280523   2.859   5.724  16.352  0.2592  1.2772 -0.3295
19678TIP3   OH280524   2.837   0.431  12.995 -0.4525  0.1242  0.4205
19678TIP3    H180525   2.864   0.453  12.906  3.8114  0.6623  1.5912
19678TIP3    H280526   2.804   0.514  13.031  0.0533  0.5268 -0.0113
19679TIP3   OH280527   0.032   0.645   5.296 -0.0746 -0.0490  0.1940
19679TIP3    H180528  -0.023   0.582   5.343 -0.7894 -0.1703 -0.7897
19679TIP3    H280529  -0.002   0.645   5.207  2.1542 -0.8720 -0.7163
19680TIP3   OH280530   2.115   3.821   6.073 -0.2090  0.0495  0.2723
19680TIP3    H180531   2.175   3.895   6.078  0.9074 -0.5061 -2.6604
19680TIP3    H280532   2.053   3.845   6.004 -0.3591 -1.3769 -0.1270
19681TIP3   OH280533   6.412   1.079   6.075  0.0977 -0.6295 -0.6200
19681TIP3    H180534   6.319   1.097   6.058  0.3673  0.4979 -0.9613
19681TIP3    H280535   6.454   1.165   6.074  1.1112 -1.1048 -0.2022
19682TIP3   OH280536   5.078   4.704  15.358  0.5336 -0.8258 -0.1150
19682TIP3    H180537   5.113   4.773  15.416  0.7176 -1.1370  0.1486
19682TIP3    H280538   4.983   4.714  15.364  0.5070  1.3507 -2.4064
19683TIP3   OH280539   6.704   4.832  14.631 -0.2151  0.2577  0.2207
19683TIP3    H180540   6.669   4.914  14.666  0.8459  1.8154 -2.1670
19683TIP3    H280541   6.783   4.816  14.683 -0.3788  0.7789  0.6454
19684TIP3   OH280542   2.059   1.908  14.521  0.0849  0.1897 -0.3643
19684TIP3    H180543   2.051   1.847  14.447 -1.6160 -3.0889  2.2269
19684TIP3    H280544   1.970   1.940  14.535  0.7546  2.5114 -0.9230
19685TIP3   OH280545   0.885   0.918  13.341  0.0887  0.3386 -0.2378
19685TIP3    H180546   0.938   0.897  13.418  0.4078 -0.2820 -0.6158
19685TIP3    H280547   0.949   0.942  13.273 -0.1002 -0.4542 -0.7092
19686TIP3   OH280548   1.604   0.084  12.074  0.1255 -0.7406 -0.1990
19686TIP3    H180549   1.652   0.141  12.134 -1.0000 -0.7853  0.7748
19686TIP3    H280550   1.669   0.059  12.008  0.6224  1.8046 -0.7862
19687TIP3   OH280551   5.317   4.387   3.437 -0.3016 -0.1566 -0.2359
19687TIP3    H180552   5.250   4.408   3.372  0.8367  1.8290 -0.8514
19687TIP3    H280553   5.271   4.395   3.521 -1.3447 -0.9677 -0.6982
19688TIP3   OH280554   0.802   2.454  14.268  0.3887 -0.5814  0.2910
19688TIP3    H180555   0.731   2.391  14.253 -0.4409  0.5112 -0.5661
19688TIP3    H280556   0.835   2.474  14.180  0.3932  0.4498  0.5198
19689TIP3   OH280557   5.128   2.648  13.627  0.4305  0.4321 -0.4018
19689TIP3    H180558   5.093   2.561  13.646 -2.9515  1.8842  0.6936
19689TIP3    H280559   5.188   2.667  13.699  0.7373 -0.7352 -0.3371
19690TIP3   OH280560   2.708   2.286   6.030 -0.4055 -0.1428 -0.2023
19690TIP3    H180561   2.723   2.239   5.948  2.3224  1.4434 -0.7373
19690TIP3    H280562   2.646   2.356   6.006 -1.1126 -0.8367 -0.4306
19691TIP3   OH280563   2.601   6.005   3.856  0.8582 -0.2315  0.4857
19691TIP3    H180564   2.547   5.927   3.846 -0.9043  1.0443 -0.3938
19691TIP3    H280565   2.688   5.978   3.826  0.2856 -1.8370  0.1923
19692TIP3   OH280566   2.499   0.488  12.871 -0.2186 -0.4352  0.0461
19692TIP3    H180567   2.476   0.396  12.859 -0.6732 -0.4656  1.0286
19692TIP3    H280568   2.551   0.511  12.794 -2.1936 -0.8108 -1.4690
19693TIP3   OH280569   4.158   6.259  14.802  0.1747 -0.3701 -0.5734
19693TIP3    H180570   4.105   6.287  14.877  0.5901  0.5465 -0.6181
19693TIP3    H280571   4.096   6.212  14.746 -0.8099  1.4066 -1.0312
19694TIP3   OH280572   3.688   5.250   2.323  0.1842 -0.0864  0.3119
19694TIP3    H180573   3.764   5.303   2.298  0.5956  0.0490  1.7079
19694TIP3    H280574   3.628   5.257   2.249  0.0607  2.6238  0.5433
19695TIP3   OH280575   2.851   1.357   4.429  0.3683  0.5603 -0.3333
19695TIP3    H180576   2.930   1.303   4.429  2.9422  3.8960  1.6972
19695TIP3    H280577   2.825   1.362   4.521 -0.7890  1.3898 -0.6803
19696TIP3   OH280578   5.824   6.001   0.554  0.2671  0.1283  0.1529
19696TIP3    H180579   5.823   5.978   0.647  1.3823  1.9033  0.6490
19696TIP3    H280580   5.813   5.917   0.509  1.5717 -1.0365  1.8531
19697TIP3   OH280581   4.688   1.227   6.552 -0.2351  0.4545  0.1688
19697TIP3    H180582   4.635   1.246   6.630 -2.2371  2.5292 -1.5502
19697TIP3    H280583   4.656   1.142   6.522  0.4116 -0.2707  1.4396
19698TIP3   OH280584   2.957   2.280   0.724 -0.3292 -0.0997 -0.1697
19698TIP3    H180585   3.008   2.210   0.766  0.1910  0.6330  0.4618
19698TIP3    H280586   2.938   2.247   0.636 -0.3129 -1.1332  0.1975
19699TIP3   OH280587   0.376   3.736  14.790 -0.0086 -0.1392  0.5099
19699TIP3    H180588   0.435   3.663  14.773  0.8143  0.5428  0.3712
19699TIP3    H280589   0.293   3.710  14.749  1.0445  0.1502 -1.9713
19700TIP3   OH280590   3.432   4.999  17.297  0.1560 -0.1644 -0.4241
19700TIP3    H180591   3.388   5.074  17.338 -3.4095 -1.1574 -2.1400
19700TIP3    H280592   3.408   4.924  17.350  1.6987 -0.5091 -0.1430
19701TIP3   OH280593   6.652   4.331  14.523 -0.0400 -0.3869  0.1258
19701TIP3    H180594   6.617   4.398  14.581 -1.2272 -1.8959  1.2332
19701TIP3    H280595   6.584   4.318  14.457  0.3988 -0.1731 -0.3787
19702TIP3   OH280596   4.557   2.529   6.125 -0.0496  0.6627  0.0777
19702TIP3    H180597   4.603   2.484   6.055  1.1077  0.4295  0.9503
19702TIP3    H280598   4.465   2.530   6.097  0.4790  1.2928 -1.7884
19703TIP3   OH280599   2.395   5.095   5.298 -0.6519  0.0043  0.3343
19703TIP3    H180600   2.327   5.116   5.234  0.4958 -0.1545 -0.9920
19703TIP3    H280601   2.471   5.146   5.269  0.4545 -1.5109  0.4620
19704TIP3   OH280602   3.988   1.661  15.394 -0.3139  0.3208 -0.5287
19704TIP3    H180603   4.066   1.607  15.404 -0.8785 -0.4490 -0.1970
19704TIP3    H280604   3.944   1.626  15.316 -0.6353  0.3578 -0.3678
19705TIP3   OH280605   3.152   6.076   1.461 -0.4423  0.0392  0.1247
19705TIP3    H180606   3.150   6.170   1.477 -2.6007  0.0434  0.0743
19705TIP3    H280607   3.130   6.037   1.545 -1.2318 -0.3445 -0.2505
19706TIP3   OH280608   1.424   1.889  12.704  0.7803  0.3773  0.5155
19706TIP3    H180609   1.396   1.855  12.790 -1.0522 -0.0767 -0.2184
19706TIP3    H280610   1.454   1.811  12.657  2.1499  0.6808  0.8420
19707TIP3   OH280611   2.839   0.951  17.311 -0.2053  0.4237  0.3242
19707TIP3    H180612   2.827   1.039  17.276 -0.2237  0.4387  0.3683
19707TIP3    H280613   2.750   0.920  17.328 -0.2709 -0.0851 -0.8844
19708TIP3   OH280614   4.917   5.266  14.147 -0.2156  0.3511 -0.0071
19708TIP3    H180615   4.902   5.336  14.083 -1.3260 -0.8602 -1.1493
19708TIP3    H280616   4.882   5.187  14.104  1.4250 -1.0055  1.0349
19709TIP3   OH280617   6.391   4.595  14.264 -0.5775  0.2065 -0.7237
19709TIP3    H180618   6.303   4.631  14.256 -0.8437 -0.2997 -0.1220
19709TIP3    H280619   6.439   4.660  14.316 -1.0498 -0.2814  0.3403
19710TIP3   OH280620   2.166   0.157  16.161 -0.3727 -0.1979  0.0460
19710TIP3    H180621   2.161   0.252  16.154 -0.6703 -0.2953 -1.2942
19710TIP3    H280622   2.260   0.138  16.166 -0.2796  0.1170 -0.4830
19711TIP3   OH280623   3.854   4.503  13.786 -0.3064  0.2165  0.5885
19711TIP3    H180624   3.922   4.483  13.722 -0.0547 -0.0412  0.9311
19711TIP3    H280625   3.898   4.498  13.870 -0.5632  0.8534  0.7697
19712TIP3   OH280626   6.325   2.982  14.380 -0.3348 -0.0466 -0.0618
19712TIP3    H180627   6.343   3.048  14.447 -2.5995  1.6181 -0.9240
19712TIP3    H280628   6.233   2.960  14.393 -0.1178 -1.6372 -1.0023
19713TIP3   OH280629   3.621   5.843  16.147  0.3844  0.1506 -0.5285
19713TIP3    H180630   3.588   5.757  16.175 -0.6953  0.7120 -0.0324
19713TIP3    H280631   3.629   5.834  16.052 -0.0854 -0.3868 -0.5290
19714TIP3   OH280632   3.995   3.800   6.346 -0.3610  0.0712  0.3069
19714TIP3    H180633   4.013   3.870   6.407 -1.6409 -0.2825  1.1279
19714TIP3    H280634   3.941   3.738   6.395 -0.9363 -0.5065 -0.9928
19715TIP3   OH280635   0.191   6.510   1.298 -0.7301 -0.2619 -0.2449
19715TIP3    H180636   0.198   6.426   1.342  0.1888  0.8737  1.9597
19715TIP3    H280637   0.278   6.549   1.307 -1.2411  1.0845 -0.8246
19716TIP3   OH280638   4.961   3.015   0.319  0.0953  0.0167 -0.0057
19716TIP3    H180639   5.010   2.939   0.350 -1.0688 -0.1387  1.5764
19716TIP3    H280640   4.922   2.986   0.236 -2.4461 -2.1171  1.7641
19717TIP3   OH280641   2.405   5.596   4.855  0.1070  0.2314 -0.1457
19717TIP3    H180642   2.375   5.679   4.819  1.4852 -0.2098 -2.5637
19717TIP3    H280643   2.365   5.530   4.799 -3.6098 -1.1193  3.6472
19718TIP3   OH280644   5.850   3.646   1.972 -0.1813 -0.2324  0.6551
19718TIP3    H180645   5.849   3.703   2.049  3.2018 -1.1823  1.6184
19718TIP3    H280646   5.839   3.558   2.008 -2.7101 -0.4594 -0.5135
19719TIP3   OH280647   1.227   4.805  17.079  0.1222 -0.2297 -0.1884
19719TIP3    H180648   1.229   4.848  16.994 -1.0514  0.5260  0.1333
19719TIP3    H280649   1.255   4.715  17.062  0.0021 -0.0532 -1.3504
19720TIP3   OH280650   6.593   0.900   5.474  0.4857 -1.0177 -0.1768
19720TIP3    H180651   6.527   0.861   5.417 -0.4725  0.6684 -0.3162
19720TIP3    H280652   6.658   0.937   5.414 -0.6685  1.0065 -0.2760
19721TIP3   OH280653   1.978   0.545   4.658 -0.3013  0.0525  0.1557
19721TIP3    H180654   1.980   0.581   4.570 -1.2978 -0.4340 -0.0775
19721TIP3    H280655   1.917   0.601   4.706  1.6733  1.5016  1.1030
19722TIP3   OH280656   3.256   1.086   1.026 -0.4403  0.3561 -0.7187
19722TIP3    H180657   3.194   1.023   0.990 -1.8597  0.3890  1.4394
19722TIP3    H280658   3.216   1.172   1.007 -1.7013  0.3599  1.4887
19723TIP3   OH280659   4.477   4.577   3.587 -0.0889 -0.9226  0.4537
19723TIP3    H180660   4.392   4.540   3.612 -0.6513  0.1292  0.1512
19723TIP3    H280661   4.476   4.666   3.622  0.0422 -0.1961 -1.2612
19724TIP3   OH280662   2.791   1.618  12.169  0.6208  0.0331 -0.1981
19724TIP3    H180663   2.885   1.631  12.181  0.5560  1.9747 -1.3841
19724TIP3    H280664   2.772   1.658  12.085 -1.2107 -0.7236 -0.1873
19725TIP3   OH280665   3.769   3.198   0.028 -0.0020 -0.2388 -0.7312
19725TIP3    H180666   3.845   3.236   0.072 -1.3469  3.3566 -1.2058
19725TIP3    H280667   3.792   3.202  -0.065 -0.3884 -0.0380 -0.8168
19726TIP3   OH280668   2.680   0.863  16.991 -0.3495  0.1251  0.5406
19726TIP3    H180669   2.668   0.801  16.919 -0.5619 -1.2005  1.6711
19726TIP3    H280670   2.764   0.837  17.030 -0.7977  0.0652  1.4779
19727TIP3   OH280671   3.081   6.005   0.123 -0.3232  0.5251 -0.6622
19727TIP3    H180672   3.023   5.944   0.077 -0.6266  0.6725 -0.4797
19727TIP3    H280673   3.164   5.959   0.131 -0.7736 -0.1709  0.1561
19728TIP3   OH280674   6.255   0.293  13.523  0.0912  0.4936  0.2910
19728TIP3    H180675   6.206   0.322  13.446  0.2093  3.0231  1.0649
19728TIP3    H280676   6.301   0.215  13.495  0.3937  1.5177 -2.3165
19729TIP3   OH280677   0.218   6.105   1.911 -0.0297 -0.1311 -0.2474
19729TIP3    H180678   0.175   6.078   1.992 -1.1208 -0.1143 -0.8174
19729TIP3    H280679   0.260   6.025   1.879 -1.3365 -0.6367 -0.7371
19730TIP3   OH280680   0.858   3.089   6.338  0.0193 -0.3831  0.3163
19730TIP3    H180681   0.870   3.140   6.257 -2.0607 -1.1410 -0.5438
19730TIP3    H280682   0.922   3.019   6.331  0.0901 -0.2550 -0.5341
19731TIP3   OH280683   5.703   5.602   2.658  0.3389  0.1851 -0.1508
19731TIP3    H180684   5.671   5.511   2.657  1.6617 -0.3065 -1.8349
19731TIP3    H280685   5.740   5.613   2.746  0.1436 -0.8919  0.0900
19732TIP3   OH280686   0.095   2.541   1.861 -0.3318 -0.0045  0.4797
19732TIP3    H180687   0.007   2.576   1.877 -0.3476  0.2490 -0.1535
19732TIP3    H280688   0.129   2.592   1.789 -0.0475 -0.7609  0.0635
19733TIP3   OH280689   1.008   6.657   4.223  0.1908  0.4514 -0.0270
19733TIP3    H180690   0.916   6.672   4.247  0.0253  1.1636 -1.0375
19733TIP3    H280691   1.056   6.726   4.269 -0.2306  2.4107 -2.3121
19734TIP3   OH280692   1.968   0.505   6.463 -0.1974  0.4278  0.0285
19734TIP3    H180693   1.923   0.500   6.547  0.2850  0.0862  0.2671
19734TIP3    H280694   1.900   0.486   6.398 -0.6492  1.0290  0.3102
19735TIP3   OH280695   4.070   6.507  12.791 -0.2734  0.6233  0.2639
19735TIP3    H180696   4.114   6.482  12.872 -0.0806 -2.7544 -0.7468
19735TIP3    H280697   4.124   6.578  12.756  1.3480  0.1300  1.6235
19736TIP3   OH280698   1.472   6.196  16.479 -0.1797 -0.7361 -0.1830
19736TIP3    H180699   1.484   6.261  16.410 -0.7869 -0.3944  0.0266
19736TIP3    H280700   1.433   6.120  16.435  0.4263 -0.9289 -0.4060
19737TIP3   OH280701   4.440   0.103  11.197 -0.1996  0.0639  0.0534
19737TIP3    H180702   4.377   0.168  11.228 -0.0712 -0.3761  1.2778
19737TIP3    H280703   4.513   0.155  11.163 -0.4446  0.5692  0.2795
19738TIP3   OH280704   1.577   0.486  14.464 -0.1442  0.2032  0.2644
19738TIP3    H180705   1.570   0.570  14.510 -0.1053 -0.1583  0.9428
19738TIP3    H280706   1.526   0.425  14.518 -0.3999 -0.1529 -0.3696
19739TIP3   OH280707   1.224   5.679   6.022  0.2282 -0.6616 -0.7394
19739TIP3    H180708   1.190   5.590   6.027  1.8564 -1.2238  3.3368
19739TIP3    H280709   1.306   5.671   5.974 -0.0195 -1.1916 -1.0854
19740TIP3   OH280710   4.836   6.532  12.455  0.7320  0.0438 -0.4503
19740TIP3    H180711   4.848   6.576  12.371  0.8654  1.0709  0.0754
19740TIP3    H280712   4.782   6.593  12.506 -2.6102 -2.2252 -1.0255
19741TIP3   OH280713   2.776   2.396   6.797 -0.1496  0.1940 -0.3129
19741TIP3    H180714   2.779   2.419   6.704 -1.2074  0.4577 -0.2880
19741TIP3    H280715   2.752   2.477   6.842  1.0109  0.2349  0.2726
19742TIP3   OH280716   5.303   5.405  10.999 -0.6220 -0.6043  0.2799
19742TIP3    H180717   5.328   5.498  10.995 -2.1398 -0.1900 -0.5185
19742TIP3    H280718   5.375   5.363  11.046  0.1505  0.9597  0.5839
19743TIP3   OH280719   1.281   0.542   3.667  0.1423 -0.7514  0.6074
19743TIP3    H180720   1.360   0.550   3.720 -0.5949 -0.2951  1.6900
19743TIP3    H280721   1.283   0.617   3.608 -0.7288  0.7995  2.4179
19744TIP3   OH280722   1.859   2.385  16.837  0.0505 -0.1620  0.1849
19744TIP3    H180723   1.866   2.310  16.778  1.0893  1.0282 -1.2745
19744TIP3    H280724   1.912   2.453  16.796 -2.8837  2.2579  0.0904
19745TIP3   OH280725   3.196   4.264   3.772  0.8669  0.5660 -0.1611
19745TIP3    H180726   3.120   4.297   3.725  0.0013  0.0932  0.8763
19745TIP3    H280727   3.168   4.180   3.809  2.4511 -0.5186 -1.2541
19746TIP3   OH280728   2.426   5.387  13.212 -0.2825  0.1331 -0.7326
19746TIP3    H180729   2.482   5.450  13.167 -0.4024  0.4103 -0.4977
19746TIP3    H280730   2.350   5.439  13.240  0.2668  0.1958  0.7011
19747TIP3   OH280731   3.044   3.660   6.082  0.1655 -0.1268 -0.0942
19747TIP3    H180732   3.011   3.709   6.006 -1.1616 -0.4591  0.2376
19747TIP3    H280733   3.005   3.705   6.157  1.0409 -0.1222  0.3606
19748TIP3   OH280734   5.858   6.222   0.175  0.0018  0.0079  0.1426
19748TIP3    H180735   5.769   6.197   0.197  0.0370 -0.9155 -0.6751
19748TIP3    H280736   5.901   6.140   0.150  0.2420  0.7806 -2.2856
19749TIP3   OH280737   2.316   3.550   3.256 -0.1229  0.6780  0.0378
19749TIP3    H180738   2.242   3.549   3.196 -0.1657  0.9458  0.0869
19749TIP3    H280739   2.277   3.541   3.343  0.0324 -1.3498 -0.0578
19750TIP3   OH280740   2.376   4.653   4.784  0.7206  0.6867 -0.1863
19750TIP3    H180741   2.403   4.562   4.798  0.2411  0.5835  0.1022
19750TIP3    H280742   2.384   4.667   4.690  1.0459  0.4281 -0.1984
19751TIP3   OH280743   2.568   3.051   1.213 -0.1491  0.2826  0.3426
19751TIP3    H180744   2.488   3.042   1.161 -1.1918 -0.0092  1.9041
19751TIP3    H280745   2.609   2.965   1.207  0.3456  0.5911 -0.8971
19752TIP3   OH280746   1.624   1.472   1.489 -0.2201  0.0440  0.4843
19752TIP3    H180747   1.598   1.456   1.580 -0.8063  1.2515  0.5431
19752TIP3    H280748   1.548   1.515   1.450 -0.2906 -1.1753 -0.8198
19753TIP3   OH280749   6.448   0.921   1.831 -0.3473  0.1322 -0.1839
19753TIP3    H180750   6.471   0.847   1.888 -1.3299 -0.5949 -0.6948
19753TIP3    H280751   6.394   0.978   1.886  0.5946  0.6069  0.2778
19754TIP3   OH280752   5.250   0.939   2.253 -0.1730  0.6363  0.1122
19754TIP3    H180753   5.341   0.910   2.252 -0.3745 -0.0204  0.2953
19754TIP3    H280754   5.246   1.004   2.323  0.3658  1.4112 -0.5555
19755TIP3   OH280755   6.018   0.775   2.031 -0.7448 -0.2141  0.7515
19755TIP3    H180756   6.058   0.689   2.016 -0.3203  0.4143 -2.3662
19755TIP3    H280757   6.076   0.818   2.094  0.6206 -1.2084  0.2077
19756TIP3   OH280758   6.517   4.784  12.645 -0.1976  0.0155 -0.0153
19756TIP3    H180759   6.555   4.859  12.692 -1.6752  1.7291 -1.4130
19756TIP3    H280760   6.555   4.790  12.557 -2.7004  1.0989 -1.1034
19757TIP3   OH280761   2.786   1.863  12.053 -0.4733 -0.4119 -0.0232
19757TIP3    H180762   2.827   1.866  12.140  0.5925  0.3853 -0.5218
19757TIP3    H280763   2.694   1.884  12.069 -0.0460  1.0131  0.7896
19758TIP3   OH280764   4.928   0.366  16.293  0.4374 -0.3598  0.0787
19758TIP3    H180765   4.912   0.279  16.329  0.8810 -0.8597 -0.8934
19758TIP3    H280766   4.841   0.406  16.286  0.2891 -0.4744  1.1084
19759TIP3   OH280767   0.494   2.521   4.185  0.3224 -0.3642 -0.3445
19759TIP3    H180768   0.466   2.454   4.122 -0.3322  0.0958 -0.5552
19759TIP3    H280769   0.420   2.528   4.246  0.8950 -0.7086  0.4015
19760TIP3   OH280770   0.506   2.528   4.769 -0.1803  0.5275  0.4384
19760TIP3    H180771   0.420   2.564   4.745  0.4685  3.5778  2.1687
19760TIP3    H280772   0.485   2.451   4.822 -1.7801  0.4149 -0.2730
19761TIP3   OH280773   5.355   5.770   6.220 -0.0390 -0.9120  0.6275
19761TIP3    H180774   5.316   5.834   6.281 -1.3033 -1.2414  0.1958
19761TIP3    H280775   5.328   5.685   6.255 -0.7364 -1.1035 -0.3520
19762TIP3   OH280776   5.735   4.362   2.587  0.2271 -0.1113  0.3101
19762TIP3    H180777   5.725   4.419   2.664 -0.7475  1.0596 -0.6394
19762TIP3    H280778   5.659   4.382   2.533 -2.5744 -5.2795  1.6862
19763TIP3   OH280779   4.604   5.257   1.641  0.1480  0.6958 -0.3092
19763TIP3    H180780   4.585   5.349   1.659  2.5339  1.1230  0.4159
19763TIP3    H280781   4.674   5.235   1.703 -0.3134 -1.6093 -0.5148
19764TIP3   OH280782   6.239   4.094   2.014 -0.1035  0.4421  0.7857
19764TIP3    H180783   6.329   4.126   2.017  0.9563 -2.2890  0.3820
19764TIP3    H280784   6.206   4.108   2.103  0.5019  1.9191  0.8124
19765TIP3   OH280785   4.421   0.909  10.970 -0.4767 -0.1487 -0.1584
19765TIP3    H180786   4.495   0.962  11.000 -3.2457  3.2509  1.2641
19765TIP3    H280787   4.433   0.825  11.015  1.5662  0.8894  1.4322
19766TIP3   OH280788   3.675   5.993   0.776 -0.7535  0.0302  0.5653
19766TIP3    H180789   3.587   6.028   0.762 -0.7290  0.6936  1.8568
19766TIP3    H280790   3.733   6.068   0.763 -0.3534 -0.4436 -0.4444
19767TIP3   OH280791   0.812   2.078  16.368 -0.0991 -0.2078  0.0647
19767TIP3    H180792   0.830   2.169  16.393  2.9958 -1.2639  2.2950
19767TIP3    H280793   0.782   2.084  16.277 -0.4471  3.0503  0.2638
19768TIP3   OH280794   5.483   3.683  17.493 -0.8269 -0.3198  0.2669
19768TIP3    H180795   5.456   3.730  17.572 -2.3186 -0.2615 -0.2433
19768TIP3    H280796   5.400   3.657  17.451 -0.0577 -1.7263 -0.4623
19769TIP3   OH280797   1.264   2.664  16.869  0.3437 -0.2650 -0.0981
19769TIP3    H180798   1.209   2.586  16.860 -2.5683  1.8496 -2.9901
19769TIP3    H280799   1.245   2.696  16.957 -1.4361 -0.8210 -0.2222
19770TIP3   OH280800   6.529   0.135  17.476  0.3152 -0.7395  0.2604
19770TIP3    H180801   6.527   0.180  17.560 -1.4677  0.6431 -0.4586
19770TIP3    H280802   6.446   0.087  17.472  0.9532 -1.8731 -0.1814
19771TIP3   OH280803   1.343   3.333  17.345  0.1767  0.1853 -0.4700
19771TIP3    H180804   1.309   3.245  17.364  1.3645 -1.0142 -3.3432
19771TIP3    H280805   1.422   3.340  17.399 -0.9058  0.3285  1.1969
19772TIP3   OH280806   6.300   4.877  11.951  0.1376  0.2119 -0.3231
19772TIP3    H180807   6.208   4.884  11.927  0.0894 -1.1513 -0.6007
19772TIP3    H280808   6.345   4.855  11.870  0.4778 -0.7444  0.1080
19773TIP3   OH280809   2.986   3.113   2.814 -0.3759  0.3657  0.4537
19773TIP3    H180810   3.018   3.066   2.737 -1.9007  0.4698 -0.2833
19773TIP3    H280811   3.007   3.056   2.887 -0.3493 -0.5170 -0.2190
19774TIP3   OH280812   2.833   3.859   2.145 -0.1991 -0.0180 -0.4673
19774TIP3    H180813   2.884   3.912   2.206 -1.9879  2.9193 -1.3445
19774TIP3    H280814   2.899   3.811   2.095  1.4278 -0.1066  1.6466
19775TIP3   OH280815   0.258   2.891   5.137  0.1407 -0.6287  0.1724
19775TIP3    H180816   0.223   2.833   5.205 -0.6989 -0.3314  0.0104
19775TIP3    H280817   0.222   2.857   5.055 -2.6324  1.6425  0.2903
19776TIP3   OH280818   6.313   5.215   4.228  0.0883 -0.1897  0.6161
19776TIP3    H180819   6.250   5.155   4.268  1.9068 -0.9582  2.5001
19776TIP3    H280820   6.320   5.287   4.290  1.4750 -0.4075  0.7396
19777TIP3   OH280821   2.957   5.489   6.324  0.6741 -0.1816 -0.1674
19777TIP3    H180822   2.994   5.427   6.387  2.1864  0.4732 -0.3780
19777TIP3    H280823   2.883   5.529   6.370  1.8668  0.4334  1.2911
19778TIP3   OH280824   5.417   1.869  12.929  0.0182 -0.0697  0.4270
19778TIP3    H180825   5.498   1.827  12.959  0.6730 -0.2461 -1.4919
19778TIP3    H280826   5.349   1.804  12.947  0.5410 -0.5956  0.5365
19779TIP3   OH280827   2.668   3.016   1.901 -0.0140  0.3377  0.4517
19779TIP3    H180828   2.749   3.064   1.918 -1.0921  2.6104 -0.4077
19779TIP3    H280829   2.612   3.079   1.854 -1.7856 -1.5787 -0.1546
19780TIP3   OH280830   4.220   6.579   1.488 -0.3817  0.1595 -0.0199
19780TIP3    H180831   4.273   6.659   1.477  0.1303 -0.2686 -0.7483
19780TIP3    H280832   4.242   6.525   1.412  0.4460 -1.3386  1.2211
19781TIP3   OH280833   6.442   6.149  13.656 -0.2379  0.0244  0.3711
19781TIP3    H180834   6.490   6.074  13.622 -1.5490 -0.5787 -0.1780
19781TIP3    H280835   6.386   6.114  13.724 -0.1128  0.6894  0.8334
19782TIP3   OH280836   5.605   2.161  12.798  0.2542  0.0954 -0.9718
19782TIP3    H180837   5.665   2.230  12.770  0.2900  0.6642  0.4112
19782TIP3    H280838   5.528   2.171  12.741  1.3507 -0.5056 -2.6145
19783TIP3   OH280839   2.709   1.197  13.323 -0.0062  0.3927 -0.5953
19783TIP3    H180840   2.737   1.173  13.411 -1.6313  1.2614  0.2048
19783TIP3    H280841   2.763   1.272  13.300  0.1762  0.3889 -0.1866
19784TIP3   OH280842   5.165   4.446  12.938 -0.1992 -0.7071  0.1792
19784TIP3    H180843   5.090   4.480  12.986  0.1586 -0.2244  0.4008
19784TIP3    H280844   5.143   4.460  12.846 -0.9095 -1.6871  0.1880
19785TIP3   OH280845   3.676   6.276   6.161  0.8663  0.1850 -0.5667
19785TIP3    H180846   3.607   6.291   6.096  0.0166 -1.6283 -0.1486
19785TIP3    H280847   3.737   6.216   6.118  1.0316  0.0832 -0.1949
19786TIP3   OH280848   4.110   5.026  15.412 -0.0790 -0.0382 -0.4921
19786TIP3    H180849   4.204   5.007  15.405 -0.4587 -1.9142 -1.0853
19786TIP3    H280850   4.098   5.052  15.503  1.3418  2.4300 -0.9262
19787TIP3   OH280851   0.645   0.407   5.842  0.3565 -0.3559 -0.4270
19787TIP3    H180852   0.650   0.370   5.753 -0.4191  0.3922 -0.8017
19787TIP3    H280853   0.599   0.340   5.893  3.3017 -2.0936  0.1836
19788TIP3   OH280854   6.485   4.360  13.094  0.0398 -0.6289  0.3508
19788TIP3    H180855   6.428   4.351  13.169  0.4459  0.3383  0.7896
19788TIP3    H280856   6.560   4.411  13.126 -1.1488  2.4615 -1.3881
19789TIP3   OH280857   3.586   4.759   4.330  0.0404  0.1836 -0.2418
19789TIP3    H180858   3.620   4.731   4.245  1.6491  3.0090 -0.6675
19789TIP3    H280859   3.662   4.758   4.388 -0.3762  1.1407  0.3481
19790TIP3   OH280860   4.526   5.786  14.786  0.1904 -0.1125 -0.7653
19790TIP3    H180861   4.551   5.758  14.698 -0.6907  2.1790 -1.8378
19790TIP3    H280862   4.479   5.869  14.772 -1.0655 -0.3031  1.7633
19791TIP3   OH280863   4.055   3.825  14.175 -0.1252  0.4195 -0.2464
19791TIP3    H180864   4.045   3.829  14.270  1.6022  0.9016 -0.0547
19791TIP3    H280865   4.141   3.863  14.158 -0.4856  0.5276 -2.0280
19792TIP3   OH280866   2.277   0.506  13.900 -0.4882 -0.2855 -0.2108
19792TIP3    H180867   2.316   0.426  13.865  0.3187 -0.6851  1.5101
19792TIP3    H280868   2.218   0.536  13.831  0.3289 -1.5295 -1.5009
19793TIP3   OH280869   0.674   2.927  16.157  0.4221 -0.0444  0.3575
19793TIP3    H180870   0.619   2.941  16.079  0.2108  1.1192  0.6909
19793TIP3    H280871   0.761   2.955  16.130  0.5697 -0.6068  0.2396
19794TIP3   OH280872   5.051   0.844   1.062 -0.1289 -0.1833 -0.0126
19794TIP3    H180873   5.081   0.935   1.055  1.0202 -0.5660 -0.2742
19794TIP3    H280874   5.100   0.808   1.135  3.1410 -1.9169 -2.7787
19795TIP3   OH280875   1.161   4.761   0.311 -0.0786 -0.2134 -0.6047
19795TIP3    H180876   1.121   4.675   0.303 -0.1183 -0.2450 -0.1111
19795TIP3    H280877   1.243   4.745   0.358 -0.8714  0.2242  0.9834
19796TIP3   OH280878   4.788   5.019   5.853 -0.1121  1.0463  0.2610
19796TIP3    H180879   4.740   5.043   5.773  0.7783 -1.0457 -0.9996
19796TIP3    H280880   4.878   5.005   5.823  0.4165  0.9519  1.8057
19797TIP3   OH280881   6.705   2.439   2.422  0.2302  0.2629  0.0898
19797TIP3    H180882   6.724   2.347   2.439 -2.2416 -0.0975  1.2799
19797TIP3    H280883   6.736   2.485   2.500  1.3256  0.4482 -0.4393
19798TIP3   OH280884   3.217   4.461   0.044 -0.6491  0.1156  0.2365
19798TIP3    H180885   3.226   4.420  -0.042  0.1253  0.7020  0.0278
19798TIP3    H280886   3.192   4.551   0.024 -1.8333 -0.0965  0.6773
19799TIP3   OH280887   0.395   5.688  17.509 -0.9869 -0.4289 -0.5016
19799TIP3    H180888   0.344   5.662  17.432 -0.5340  1.6177 -1.5507
19799TIP3    H280889   0.450   5.759  17.478 -0.4027  0.0875  1.6098
19800TIP3   OH280890   1.292   5.283   1.671 -0.4262 -0.3438 -0.6074
19800TIP3    H180891   1.372   5.329   1.699 -0.4907 -1.1395  0.9649
19800TIP3    H280892   1.274   5.319   1.584 -0.1260  2.1767  0.2784
19801TIP3   OH280893   5.199   5.756   4.124  0.2758  0.2656  0.6367
19801TIP3    H180894   5.284   5.764   4.080 -0.0733  0.2089 -0.0624
19801TIP3    H280895   5.195   5.664   4.152  0.4325  0.2625  0.6532
19802TIP3   OH280896   0.057   6.298  16.978 -0.5024 -0.1866  0.0468
19802TIP3    H180897   0.026   6.221  16.931  0.3645 -0.4055 -0.1772
19802TIP3    H280898   0.144   6.316  16.942 -0.4402  0.5332  0.5202
19803TIP3   OH280899   6.684   6.611  14.493 -0.0875  0.3063  0.6448
19803TIP3    H180900   6.683   6.682  14.429 -1.5861  0.7534  1.1261
19803TIP3    H280901   6.639   6.538  14.449  1.2356 -0.2865  0.2385
19804TIP3   OH280902   0.624   0.330  12.656 -0.0015 -0.3104  0.3985
19804TIP3    H180903   0.685   0.256  12.664  1.1277  0.5654  0.2244
19804TIP3    H280904   0.661   0.397  12.714 -0.1122  0.6813 -0.6461
19805TIP3   OH280905   2.873   5.502   1.529 -0.1542  0.1078 -0.2621
19805TIP3    H180906   2.927   5.512   1.451 -1.0755  0.3500 -0.8742
19805TIP3    H280907   2.815   5.578   1.528  1.1524  1.2327  1.7529
19806TIP3   OH280908   3.531   5.288   2.105  0.2788 -0.5782  0.0148
19806TIP3    H180909   3.529   5.216   2.041  3.5950 -1.0999  0.3132
19806TIP3    H280910   3.494   5.362   2.057 -2.5316 -2.2179 -0.5601
19807TIP3   OH280911   1.732   4.138   1.405 -0.0079 -0.1200 -0.1115
19807TIP3    H180912   1.670   4.175   1.468  0.3892 -0.2512  0.3516
19807TIP3    H280913   1.727   4.044   1.419  0.4109 -0.1206  0.0240
19808TIP3   OH280914   1.027   0.381   2.031  0.5898  0.4907  0.2193
19808TIP3    H180915   1.074   0.425   1.961 -0.2438  2.9804  1.1097
19808TIP3    H280916   0.940   0.365   1.996  0.0874  1.9861  0.7257
19809TIP3   OH280917   2.481   2.312   3.557 -0.6535 -0.0653 -0.1135
19809TIP3    H180918   2.400   2.270   3.526 -0.3573  0.0574 -1.1102
19809TIP3    H280919   2.543   2.239   3.566 -0.3521  0.0429 -1.1400
19810TIP3   OH280920   3.660   6.691   2.980 -0.7514  0.5285 -0.0906
19810TIP3    H180921   3.676   6.599   3.001  0.8542  0.8770  0.3337
19810TIP3    H280922   3.566   6.702   2.994 -1.2056 -1.3109 -1.2472
19811TIP3   OH280923   1.483   1.132   4.302 -0.3991  0.1070 -0.5131
19811TIP3    H180924   1.502   1.043   4.272 -0.0411  0.4013 -1.1895
19811TIP3    H280925   1.433   1.121   4.382 -0.8680 -0.7080 -0.9120
19812TIP3   OH280926   3.658   6.238   3.778 -0.0175  0.3592 -0.1678
19812TIP3    H180927   3.637   6.307   3.716 -1.0370 -0.1447 -0.4089
19812TIP3    H280928   3.665   6.283   3.862  1.8697  1.1260 -0.6779
19813TIP3   OH280929   3.641   4.946   3.741  0.1279  0.3927  0.4325
19813TIP3    H180930   3.599   4.987   3.817  0.5146  1.3013  0.1659
19813TIP3    H280931   3.568   4.908   3.692 -0.4597  2.1488 -0.1382
19814TIP3   OH280932   4.030   2.333   2.389 -0.2552 -0.1022  0.1118
19814TIP3    H180933   4.112   2.321   2.341 -1.1740 -0.5124 -1.4077
19814TIP3    H280934   4.006   2.244   2.417 -1.7827 -0.5013 -2.2318
19815TIP3   OH280935   0.250   5.753  14.747 -0.0912 -0.0957  0.1248
19815TIP3    H180936   0.202   5.725  14.669  1.3608  0.8276 -1.1464
19815TIP3    H280937   0.256   5.848  14.738  0.4023 -0.0161  1.1918
19816TIP3   OH280938   2.819   1.870   1.986 -0.3216 -0.3034  0.2012
19816TIP3    H180939   2.739   1.881   1.935 -0.1179 -0.3593 -0.1365
19816TIP3    H280940   2.834   1.956   2.025 -0.4827 -0.2609  0.1712
19817TIP3   OH280941   1.946   4.130   1.719  0.4152 -0.1994 -0.1753
19817TIP3    H180942   1.854   4.106   1.729  1.0398 -2.0941  1.8114
19817TIP3    H280943   1.982   4.063   1.661  0.8135 -0.3124  0.1952
19818TIP3   OH280944   2.782   6.502  17.468  0.4953  0.5023  0.1821
19818TIP3    H180945   2.845   6.505  17.396  2.3016 -1.0907  1.5908
19818TIP3    H280946   2.749   6.412  17.467 -0.4326  0.8326  0.5524
19819TIP3   OH280947   5.519   4.313  14.442  0.4505 -0.3522  0.1705
19819TIP3    H180948   5.485   4.302  14.353 -0.7709  0.5131  0.5198
19819TIP3    H280949   5.523   4.407  14.456  0.6215 -0.4782  1.0478
19820TIP3   OH280950   0.505   3.106  15.720 -0.0747  0.5904 -0.1449
19820TIP3    H180951   0.546   3.143  15.642 -0.8807 -1.8487 -1.8467
19820TIP3    H280952   0.450   3.176  15.755  0.4703  1.8016 -1.6552
19821TIP3   OH280953   3.371   6.415   4.244  0.3721 -0.0638 -0.0440
19821TIP3    H180954   3.300   6.397   4.181  1.4199 -1.0068 -1.0010
19821TIP3    H280955   3.341   6.376   4.326 -1.6888  2.4611  0.5576
19822TIP3   OH280956   2.822   0.814   3.868 -0.1819  0.3871 -0.1761
19822TIP3    H180957   2.912   0.826   3.898  0.9733 -2.0327 -2.2626
19822TIP3    H280958   2.788   0.742   3.921 -0.9542  1.2660  0.5783
19823TIP3   OH280959   3.061   4.659  17.484  0.6173 -0.1261 -0.3611
19823TIP3    H180960   3.038   4.582  17.431 -0.7568  1.1566 -1.6983
19823TIP3    H280961   2.982   4.678  17.534  0.0995  1.8081 -1.8230
19824TIP3   OH280962   4.326   0.625  11.701  0.6882  0.5584 -0.3250
19824TIP3    H180963   4.351   0.705  11.655 -0.8245  0.9376 -0.5326
19824TIP3    H280964   4.241   0.602  11.665 -0.7316  1.0630  2.4709
19825TIP3   OH280965   5.469   3.505   4.145 -0.7669  0.3092 -0.0958
19825TIP3    H180966   5.448   3.416   4.119 -0.0616  0.4243 -1.1084
19825TIP3    H280967   5.493   3.549   4.064  1.6481  0.6375  0.7067
19826TIP3   OH280968   1.365   3.181   5.127  0.5076  0.0285 -0.3422
19826TIP3    H180969   1.352   3.188   5.222 -2.2520  0.0830 -0.6388
19826TIP3    H280970   1.458   3.198   5.114  0.9246  0.1781  2.3405
19827TIP3   OH280971   1.810   5.649   3.672 -0.0505 -0.4078  0.2549
19827TIP3    H180972   1.832   5.570   3.622  1.5210  0.3381 -0.2694
19827TIP3    H280973   1.746   5.694   3.616  1.2984  0.1596 -0.8799
19828TIP3   OH280974   4.146   6.544  12.464  0.3042  0.2963 -0.3051
19828TIP3    H180975   4.152   6.449  12.475  0.0627  0.3866  0.6368
19828TIP3    H280976   4.207   6.580  12.529  0.8735  0.7801 -1.0825
19829TIP3   OH280977   0.258   5.567  11.264  0.3238  0.4313  0.6245
19829TIP3    H180978   0.229   5.476  11.254 -1.2213  0.9690 -0.0030
19829TIP3    H280979   0.352   5.560  11.279  0.0490 -1.3306  1.7822
19830TIP3   OH280980   0.519   6.418  13.392 -0.0294 -0.0001  0.2335
19830TIP3    H180981   0.495   6.326  13.383 -0.4150 -0.1702  2.4907
19830TIP3    H280982   0.492   6.458  13.309 -1.7335 -1.5351 -0.0110
19831TIP3   OH280983   0.055   0.722   3.817  0.4300 -0.0513  0.4985
19831TIP3    H180984   0.111   0.723   3.739  1.5593 -0.3086  1.2777
19831TIP3    H280985  -0.012   0.787   3.800  0.3437 -0.4863 -0.9155
19832TIP3   OH280986   2.848   6.647   2.450  0.2098 -0.3608  0.1980
19832TIP3    H180987   2.835   6.691   2.366  0.7701 -0.0369  0.2746
19832TIP3    H280988   2.943   6.644   2.461  0.1834 -1.5632  0.2102
19833TIP3   OH280989   4.649   4.135   4.238  0.1307  0.1024  0.2922
19833TIP3    H180990   4.680   4.056   4.282  1.1090 -0.2199 -0.9024
19833TIP3    H280991   4.696   4.206   4.281 -1.2056  0.1360  1.7804
19834TIP3   OH280992   6.327   5.326   4.902  0.3109 -0.2115 -0.1337
19834TIP3    H180993   6.237   5.351   4.884 -0.0418 -0.8678  0.6815
19834TIP3    H280994   6.338   5.240   4.862  0.5344 -0.1945 -0.1147
19835TIP3   OH280995   5.055   5.187   3.260  0.2503 -0.1047  0.0896
19835TIP3    H180996   5.029   5.154   3.345  0.9142  0.0795  0.3679
19835TIP3    H280997   4.973   5.214   3.218  0.0903  1.8242  1.5174
19836TIP3   OH280998   1.558   0.097   5.133  0.3104 -0.2823 -0.0865
19836TIP3    H180999   1.588   0.179   5.095 -0.4366 -0.6798 -1.6242
19836TIP3    H281000   1.496   0.062   5.069  0.2511 -1.8131  0.7495
19837TIP3   OH281001   1.717   6.000   6.841  0.5614  0.4605  0.0854
19837TIP3    H181002   1.623   5.999   6.825  0.4120  0.6767  0.8782
19837TIP3    H281003   1.726   5.973   6.933  1.4124 -1.5652 -0.5337
19838TIP3   OH281004   6.529   2.054  13.377 -0.9174 -0.3991  1.0598
19838TIP3    H181005   6.530   2.149  13.365  0.5116 -0.3225  1.5911
19838TIP3    H281006   6.444   2.026  13.341 -0.0181  0.6735 -2.2294
19839TIP3   OH281007   2.131   5.398   5.126 -0.5812 -0.9659 -0.0457
19839TIP3    H181008   2.191   5.463   5.090  0.1113  0.6877  3.6296
19839TIP3    H281009   2.044   5.437   5.114 -0.2905 -0.0280  0.7330
19840TIP3   OH281010   4.363   4.253   0.292 -0.0233  0.0820  1.1185
19840TIP3    H181011   4.398   4.232   0.379  0.7949  1.8557  1.2510
19840TIP3    H281012   4.289   4.192   0.281  1.0691 -1.5362  2.1980
19841TIP3   OH281013   3.566   6.056  13.267  0.1792  0.1100 -0.0455
19841TIP3    H181014   3.633   6.067  13.200 -0.2739  0.0518 -0.5206
19841TIP3    H281015   3.542   6.146  13.291 -0.1660  0.1385 -0.4861
19842TIP3   OH281016   3.976   6.634  11.588  0.0677  0.1500  0.0562
19842TIP3    H181017   4.047   6.691  11.558 -0.5574  0.4214 -0.9338
19842TIP3    H281018   4.009   6.546  11.574  0.0049  0.2720 -0.9583
19843TIP3   OH281019   2.835   2.227  15.906 -0.4228 -0.2085 -0.0968
19843TIP3    H181020   2.795   2.285  15.841  0.3828  1.9689  1.2294
19843TIP3    H281021   2.842   2.281  15.984  2.0338 -1.5509  0.7029
19844TIP3   OH281022   0.001   2.388  17.137  0.0494  0.3305 -0.1917
19844TIP3    H181023   0.026   2.356  17.050 -1.7873  0.9550 -1.0143
19844TIP3    H281024  -0.083   2.344  17.155  0.4523  0.1327  1.3348
19845TIP3   OH281025   0.204   0.139   2.042 -0.0656  0.4748 -0.3018
19845TIP3    H181026   0.175   0.058   2.001 -0.2755 -0.0994  0.9408
19845TIP3    H281027   0.299   0.138   2.034  0.0458 -0.5804  0.9173
19846TIP3   OH281028   6.758   5.792   1.782 -0.6614  0.5412 -0.2702
19846TIP3    H181029   6.785   5.784   1.873  2.0593  1.0767 -0.9610
19846TIP3    H281030   6.733   5.883   1.772 -2.0332  0.2395  0.1558
19847TIP3   OH281031   2.361   5.252  12.016 -0.5477 -0.0097  0.1732
19847TIP3    H181032   2.344   5.162  11.988 -0.4246  0.2684 -0.8286
19847TIP3    H281033   2.456   5.259  12.018 -0.4719  0.8331 -2.3588
19848TIP3   OH281034   6.176   6.401   6.396  0.3573  0.0626 -0.3751
19848TIP3    H181035   6.221   6.337   6.450 -0.7225 -0.7092 -0.3622
19848TIP3    H281036   6.083   6.377   6.401 -0.0732  1.5971 -0.4063
19849TIP3   OH281037   3.383   0.324  11.879 -0.1217  0.2473  0.0295
19849TIP3    H181038   3.373   0.249  11.821 -1.0545  1.5039 -1.4947
19849TIP3    H281039   3.471   0.315  11.916 -0.1072 -1.4102 -0.3421
19850TIP3   OH281040   4.504   2.323  17.167  0.5424  0.1727 -0.1332
19850TIP3    H181041   4.470   2.318  17.256  2.4473 -0.2615  0.6255
19850TIP3    H281042   4.506   2.233  17.137  2.3908 -0.0088  0.4263
19851TIP3   OH281043   0.371   0.536  15.130 -0.1608  0.3521  0.4622
19851TIP3    H181044   0.345   0.451  15.164  1.0996  0.2016  1.1256
19851TIP3    H281045   0.464   0.526  15.110 -0.2006  1.3138 -0.2972
19852TIP3   OH281046   5.737   6.224   5.523 -0.3828 -0.1535  0.3574
19852TIP3    H181047   5.811   6.257   5.473 -1.3373  3.2907  0.9811
19852TIP3    H281048   5.660   6.262   5.480 -1.5769 -1.0466  1.6084
19853TIP3   OH281049   0.740   3.439  17.155 -0.1182 -0.5727  0.1942
19853TIP3    H181050   0.700   3.511  17.106  1.5060  0.5299  0.4069
19853TIP3    H281051   0.683   3.364  17.138 -0.0000 -0.0937 -2.8611
19854TIP3   OH281052   2.646   6.637  12.489 -0.7019  0.1947 -0.0114
19854TIP3    H181053   2.569   6.663  12.438  0.0132  1.1900 -0.6164
19854TIP3    H281054   2.706   6.599  12.424 -1.4535 -2.4619  0.7545
19855TIP3   OH281055   3.319   5.742   4.663  0.4771  0.5925  0.0436
19855TIP3    H181056   3.330   5.805   4.734 -1.5271  0.1053  0.8748
19855TIP3    H281057   3.280   5.793   4.591  1.1572  0.7917 -0.1867
19856TIP3   OH281058   5.338   0.136  17.028 -0.3550 -0.0410 -0.2816
19856TIP3    H181059   5.362   0.070  16.964  0.7923  0.2126 -0.1375
19856TIP3    H281060   5.397   0.119  17.103 -0.7903  0.4597  0.1825
19857TIP3   OH281061   2.373   6.382   1.736  0.0071  0.1834 -0.3731
19857TIP3    H181062   2.433   6.312   1.760  0.9640  0.8870 -0.6291
19857TIP3    H281063   2.360   6.432   1.817  2.3665  1.9126 -0.9482
19858TIP3   OH281064   0.271   0.673  14.495 -0.1825 -0.1994 -0.0078
19858TIP3    H181065   0.280   0.578  14.502 -2.5821 -0.5295 -0.3245
19858TIP3    H281066   0.305   0.694  14.408 -0.1740 -0.8674 -0.1752
19859TIP3   OH281067   4.379   1.155   2.628 -0.1372 -0.1684 -0.2847
19859TIP3    H181068   4.358   1.248   2.631  0.1789 -0.1120  1.0676
19859TIP3    H281069   4.304   1.114   2.584 -1.3387  0.4764  1.0666
19860TIP3   OH281070   1.275   2.553  14.371 -0.1375  0.0000  0.0755
19860TIP3    H181071   1.349   2.598  14.412  0.2252 -1.8384  1.6001
19860TIP3    H281072   1.199   2.609  14.390  0.1677 -0.2807  2.5316
19861TIP3   OH281073   4.259   1.485   1.172 -0.6498 -0.1738  0.2097
19861TIP3    H181074   4.279   1.574   1.199 -1.4176 -0.1956  0.8854
19861TIP3    H281075   4.164   1.478   1.182 -0.7286 -0.7486 -0.8001
19862TIP3   OH281076   4.367   5.294  13.254 -0.5991 -0.0767 -0.3064
19862TIP3    H181077   4.408   5.232  13.314  3.5917  2.5810 -0.0332
19862TIP3    H281078   4.406   5.274  13.168  1.4875  2.4253 -0.0684
19863TIP3   OH281079   4.954   1.601  11.269  0.0074 -0.1018  0.5832
19863TIP3    H181080   4.960   1.637  11.180  0.6612 -1.7515 -0.0629
19863TIP3    H281081   4.860   1.599  11.287 -0.1345  0.1643 -0.0937
19864TIP3   OH281082   0.656   6.034  13.157  0.0755  0.1373 -0.2181
19864TIP3    H181083   0.655   5.963  13.093 -0.2728 -0.2380  0.1995
19864TIP3    H281084   0.742   6.027  13.198  1.0754  1.5591 -1.9269
19865TIP3   OH281085   6.035   1.087  15.420  0.7716 -0.1757 -0.4119
19865TIP3    H181086   6.022   1.087  15.515  0.2204 -0.3581 -0.4820
19865TIP3    H281087   5.999   1.171  15.391 -0.9096 -0.9547 -0.6846
19866TIP3   OH281088   5.504   5.862  10.844  0.6027 -0.1313  0.5968
19866TIP3    H181089   5.531   5.827  10.929  1.5781  0.6616  0.6347
19866TIP3    H281090   5.409   5.851  10.842  0.3013  1.4806  2.5628
19867TIP3   OH281091   2.693   5.908   0.748  0.2897 -0.0918  0.4619
19867TIP3    H181092   2.769   5.850   0.750  0.7448  0.4938  0.4889
19867TIP3    H281093   2.699   5.953   0.664 -0.4264 -0.5525  0.1519
19868TIP3   OH281094   2.547   1.707   0.355  0.2693 -0.2549  0.3941
19868TIP3    H181095   2.453   1.719   0.343  0.2566 -0.1867  0.5637
19868TIP3    H281096   2.586   1.743   0.275  0.1491 -0.3414  0.2955
19869TIP3   OH281097   4.115   1.865  14.128  0.3046  0.2826  0.0655
19869TIP3    H181098   4.149   1.791  14.177 -1.2189  0.1443  0.9760
19869TIP3    H281099   4.077   1.827  14.049  0.2466  0.1886  0.1393
19870TIP3   OH281100   0.840   3.399   3.965 -0.0246 -0.5376 -0.5156
19870TIP3    H181101   0.859   3.468   3.901 -0.0927 -0.0429 -0.0086
19870TIP3    H281102   0.745   3.391   3.964 -0.0558 -0.2353 -0.1770
19871TIP3   OH281103   1.633   4.221   0.420 -0.7804 -0.1527 -0.1518
19871TIP3    H181104   1.602   4.227   0.330  2.0871 -2.7672 -1.5196
19871TIP3    H281105   1.582   4.149   0.458 -1.0118  0.0093 -0.1539
19872TIP3   OH281106   3.920   6.407   0.955 -0.0049 -0.2917  0.3937
19872TIP3    H181107   3.980   6.390   1.027 -0.0656 -1.2002  0.2399
19872TIP3    H281108   3.870   6.484   0.983  0.6696 -0.0144  0.8688
19873TIP3   OH281109   3.025   3.354  10.441  0.1571 -0.9730  0.4671
19873TIP3    H181110   3.015   3.264  10.411  1.1278 -0.9504  0.0355
19873TIP3    H281111   2.978   3.358  10.524 -0.7351 -1.6121  0.0011
19874TIP3   OH281112   1.045   4.198   0.625  0.4382 -0.8385 -0.2043
19874TIP3    H181113   1.091   4.114   0.628  0.2003 -0.9523  2.3514
19874TIP3    H281114   1.109   4.261   0.659  0.4899 -0.0004 -1.7559
19875TIP3   OH281115   3.951   1.283   1.436 -0.0869 -0.0105 -0.1816
19875TIP3    H181116   3.956   1.298   1.530 -0.3786 -1.6245  0.1361
19875TIP3    H281117   4.001   1.202   1.422 -0.8927 -0.3554 -1.2406
19876TIP3   OH281118   1.451   4.198   2.203 -0.0116  0.0763 -0.0286
19876TIP3    H181119   1.381   4.252   2.240 -0.5251  1.3303 -2.5881
19876TIP3    H281120   1.531   4.245   2.224 -0.0486 -0.3897  1.2939
19877TIP3   OH281121   0.109   6.489   4.450 -0.1473 -0.3786  0.5182
19877TIP3    H181122   0.026   6.525   4.419 -1.0673 -0.0366  3.1245
19877TIP3    H281123   0.174   6.552   4.421 -1.0883  0.5487  0.3446
19878TIP3   OH281124   4.051   6.063  11.798 -0.1929  0.1630  0.5396
19878TIP3    H181125   4.006   6.112  11.730  0.9016 -0.1587 -0.4596
19878TIP3    H281126   4.032   5.971  11.778  0.4133  0.0531  0.4481
19879TIP3   OH281127   1.179   1.357   2.244 -0.3035  0.3703  0.5793
19879TIP3    H181128   1.124   1.368   2.322  1.0813  2.4438  1.3591
19879TIP3    H281129   1.121   1.319   2.178 -2.2717  1.1542  1.7714
19880TIP3   OH281130   4.663   3.451  17.080 -0.5549  0.5656 -0.3424
19880TIP3    H181131   4.614   3.533  17.080 -0.1783  0.8819 -3.2537
19880TIP3    H281132   4.754   3.477  17.076 -0.3918 -0.0075 -0.4200
19881TIP3   OH281133   3.753   5.079  13.294 -0.0038  0.1936 -0.4864
19881TIP3    H181134   3.794   5.164  13.308 -1.5449  0.7167  1.4126
19881TIP3    H281135   3.801   5.019  13.352 -1.3367  0.6618  1.2019
19882TIP3   OH281136   2.595   5.207   5.103 -0.2902  0.2000 -0.4168
19882TIP3    H181137   2.629   5.248   5.182 -1.7346 -1.5944  1.2543
19882TIP3    H281138   2.605   5.273   5.034  2.6525  1.1884  0.8184
19883TIP3   OH281139   6.126   1.593  16.010 -0.1435  0.5113 -0.2929
19883TIP3    H181140   6.154   1.639  15.931 -3.2590  0.8558 -1.3073
19883TIP3    H281141   6.050   1.542  15.983 -0.4085 -0.5414  2.1871
19884TIP3   OH281142   4.641   1.418   5.589 -0.3893  0.4312 -0.0514
19884TIP3    H181143   4.656   1.511   5.607 -0.0572  0.4918 -0.6041
19884TIP3    H281144   4.550   1.415   5.558 -0.5295  0.5115  0.3423
19885TIP3   OH281145   0.460   3.502  14.415  0.6632  0.4615  0.2067
19885TIP3    H181146   0.464   3.595  14.436  1.3757  0.0888  1.8831
19885TIP3    H281147   0.462   3.458  14.500 -0.5351 -1.0782 -0.4983
19886TIP3   OH281148   3.355   3.991  15.123 -0.2781 -0.2976  0.0259
19886TIP3    H181149   3.283   4.031  15.170  0.0577  0.4041 -0.0452
19886TIP3    H281150   3.418   3.967  15.191  1.3003  2.8743 -0.1335
19887TIP3   OH281151   3.144   1.575   0.612 -0.0450 -0.3068  0.0225
19887TIP3    H181152   3.237   1.582   0.591 -0.2678  2.8591 -0.3603
19887TIP3    H281153   3.113   1.665   0.614 -2.9549 -1.2211  0.9809
19888TIP3   OH281154   2.845   2.010   4.529  0.4075  0.2355  0.4237
19888TIP3    H181155   2.766   2.053   4.496 -1.6678 -2.0087  2.1263
19888TIP3    H281156   2.876   1.957   4.455  0.5795  1.4012 -0.3648
19889TIP3   OH281157   4.593   1.281  12.959  0.5959  0.3377 -0.5332
19889TIP3    H181158   4.623   1.198  12.924  3.4231  0.6550  0.8641
19889TIP3    H281159   4.514   1.301  12.909  1.2648 -1.8985 -2.6701
19890TIP3   OH281160   1.760   0.357  11.934 -0.7565 -0.1670  0.1667
19890TIP3    H181161   1.677   0.311  11.920 -1.3747  1.0986 -0.5166
19890TIP3    H281162   1.784   0.388  11.846  0.3081 -0.2938  0.4077
19891TIP3   OH281163   6.716   1.270  16.707 -0.6492 -0.2187  0.4283
19891TIP3    H181164   6.675   1.223  16.779  0.3449 -0.3425  0.9421
19891TIP3    H281165   6.655   1.340  16.685 -2.1947 -1.7441 -0.3944
19892TIP3   OH281166   1.267   6.446  11.131  0.0417  0.3116 -0.1553
19892TIP3    H181167   1.259   6.495  11.049  0.1146  0.3008 -0.1685
19892TIP3    H281168   1.352   6.402  11.125  0.5335  1.1551  0.3773
19893TIP3   OH281169   2.185   4.852  15.062  0.0813 -0.8998  0.3020
19893TIP3    H181170   2.216   4.765  15.089  0.6245 -0.9392 -0.4188
19893TIP3    H281171   2.265   4.904  15.057  0.4006 -1.4477 -3.3357
19894TIP3   OH281172   2.059   2.425   3.086 -0.5634 -0.5495 -0.3187
19894TIP3    H181173   2.125   2.490   3.062 -1.7691  0.4819 -0.9556
19894TIP3    H281174   2.084   2.398   3.174  1.3262 -1.0199 -0.9525
19895TIP3   OH281175   3.708   5.277  13.885 -0.1168  0.0360 -0.0763
19895TIP3    H181176   3.640   5.225  13.926  0.0573 -0.3734 -0.3071
19895TIP3    H281177   3.788   5.227  13.898  0.1247  0.4549  0.0846
19896TIP3   OH281178   6.300   0.786   6.047 -0.0466 -0.5082 -0.0414
19896TIP3    H181179   6.392   0.772   6.028  0.1858 -0.5369  1.0301
19896TIP3    H281180   6.268   0.701   6.075 -0.4297 -0.5218 -0.5045
19897TIP3   OH281181   2.142   1.767   1.238 -0.1346  0.0438 -0.1302
19897TIP3    H181182   2.198   1.791   1.165  1.5886 -1.4334  0.6256
19897TIP3    H281183   2.168   1.825   1.310  1.5780 -1.6138  0.6652
19898TIP3   OH281184   2.340   4.963  12.713  0.0436 -0.1175 -0.2281
19898TIP3    H181185   2.365   4.936  12.624  1.3619  1.9870 -0.5736
19898TIP3    H281186   2.248   4.986  12.705  0.1995  0.2499 -1.1190
19899TIP3   OH281187   1.060   0.125   0.863  0.2315 -0.1402 -0.1792
19899TIP3    H181188   1.081   0.073   0.940 -0.8123  0.2633  0.4000
19899TIP3    H281189   1.064   0.064   0.790  1.6503 -0.4396  0.1195
19900TIP3   OH281190   5.810   6.047  11.512  0.6141 -0.4404 -0.0485
19900TIP3    H181191   5.718   6.021  11.511  0.3869  0.3183  0.2675
19900TIP3    H281192   5.855   5.978  11.464 -0.2770 -0.2455 -1.2111
19901TIP3   OH281193   1.898   3.466  10.924 -0.0958 -0.3375 -0.2968
19901TIP3    H181194   1.907   3.381  10.882 -0.0162 -1.0746  1.1644
19901TIP3    H281195   1.875   3.526  10.852  1.0643 -1.3326 -1.5391
19902TIP3   OH281196   5.525   1.459   2.406  0.2203 -0.3851 -0.2015
19902TIP3    H181197   5.439   1.500   2.419  0.9761  0.6057  2.1391
19902TIP3    H281198   5.508   1.365   2.415 -0.7194 -0.2667 -0.5776
19903TIP3   OH281199   3.701   3.803   5.382  0.5200 -0.3608  0.0786
19903TIP3    H181200   3.645   3.772   5.311  0.0024  0.5128  0.0765
19903TIP3    H281201   3.653   3.779   5.462 -1.4121  2.8442  0.0857
19904TIP3   OH281202   3.643   3.772   6.171 -0.6547 -0.3894  0.6937
19904TIP3    H181203   3.733   3.800   6.152 -0.8158 -0.0416  0.4455
19904TIP3    H281204   3.644   3.751   6.265  0.0612 -1.8074  0.4044
19905TIP3   OH281205   1.195   3.745  17.523 -0.3909  0.7254  0.8522
19905TIP3    H181206   1.289   3.755  17.510 -0.3343  0.3846  0.9782
19905TIP3    H281207   1.187   3.673  17.586 -0.6875  1.7931  2.0646
19906TIP3   OH281208   0.352   1.248  11.988  0.2151  0.7817  0.1727
19906TIP3    H181209   0.303   1.309  11.933  0.2472 -0.0664 -0.8184
19906TIP3    H281210   0.390   1.303  12.057 -2.2796  1.4360  1.1180
19907TIP3   OH281211   5.366   0.499   2.967  0.0556 -0.0449 -0.0296
19907TIP3    H181212   5.417   0.423   2.942 -0.5988  0.0858 -1.8621
19907TIP3    H281213   5.362   0.495   3.063 -0.2989 -2.5196 -0.0953
19908TIP3   OH281214   1.849   1.383  12.889 -0.4813  0.5174 -0.3955
19908TIP3    H181215   1.930   1.352  12.930 -1.7002 -2.3828  0.1009
19908TIP3    H281216   1.876   1.458  12.836  1.5240  3.4162  4.0918
19909TIP3   OH281217   1.753   2.101  13.178 -0.0089  0.9112  0.1853
19909TIP3    H181218   1.746   2.106  13.273 -1.9530  0.3515  0.1297
19909TIP3    H281219   1.792   2.016  13.160  0.2619  0.9746  0.4802
19910TIP3   OH281220   0.445   6.301  12.165  0.2862  1.0218  0.9264
19910TIP3    H181221   0.425   6.211  12.189  0.5327  1.1659  1.6982
19910TIP3    H281222   0.396   6.354  12.228 -0.7222  1.4597 -0.1846
19911TIP3   OH281223   2.404   0.936   3.668  0.1931 -0.0577  0.5586
19911TIP3    H181224   2.438   0.945   3.579 -2.8828 -1.5087 -0.9538
19911TIP3    H281225   2.380   0.843   3.674 -0.7443  0.2676  2.4545
19912TIP3   OH281226   3.851   0.954  15.366  0.0297 -0.0510 -0.3541
19912TIP3    H181227   3.852   0.876  15.421  2.1125 -1.7162 -2.5313
19912TIP3    H281228   3.771   1.000  15.391 -0.3826 -1.9517  2.2390
19913TIP3   OH281229   4.921   5.878  14.723  0.2451 -0.2103  0.3098
19913TIP3    H181230   4.872   5.849  14.646 -2.4376  1.7361  1.1046
19913TIP3    H281231   4.940   5.970  14.706  0.3151  0.0437  1.6093
19914TIP3   OH281232   2.010   2.688   1.765 -0.3853  0.2557 -0.4554
19914TIP3    H181233   2.027   2.778   1.793 -0.8506  0.0284  0.5852
19914TIP3    H281234   1.915   2.677   1.776 -0.4128 -0.1977 -1.0760
19915TIP3   OH281235   0.304   0.504   2.341 -0.3047  0.2336  0.3664
19915TIP3    H181236   0.262   0.424   2.373 -0.5910 -0.0881 -0.7817
19915TIP3    H281237   0.244   0.538   2.275  1.1979 -0.2231 -1.2996
19916TIP3   OH281238   4.465   3.035  11.422  0.1088 -0.1784 -0.5103
19916TIP3    H181239   4.391   2.987  11.385 -0.1097  1.0215 -1.6968
19916TIP3    H281240   4.426   3.113  11.462  0.7210  0.5693 -1.3302
19917TIP3   OH281241   2.395   5.195  16.703 -0.1614  0.1354 -0.1910
19917TIP3    H181242   2.310   5.160  16.678 -0.1966  1.1120 -1.5392
19917TIP3    H281243   2.392   5.198  16.799 -1.7428  0.3861 -0.2146
19918TIP3   OH281244   6.551   0.383  13.640  0.0715  0.6053 -0.5385
19918TIP3    H181245   6.549   0.351  13.550 -0.5810  0.1718 -0.3780
19918TIP3    H281246   6.459   0.387  13.666  0.2006  1.5586 -0.1774
19919TIP3   OH281247   0.910   4.226   0.082 -0.2466  0.0655  0.5263
19919TIP3    H181248   0.981   4.212   0.144  1.1801 -1.7805 -1.3538
19919TIP3    H281249   0.844   4.161   0.107  1.5860 -2.8146 -1.4625
19920TIP3   OH281250   1.003   1.778   4.941  0.1420 -0.1741 -0.1240
19920TIP3    H181251   0.944   1.719   4.894  0.9931 -0.8136 -0.3908
19920TIP3    H281252   0.989   1.863   4.899 -0.1439 -0.4492 -0.5945
19921TIP3   OH281253   1.026   2.542   6.112  0.0430 -0.3216 -0.6414
19921TIP3    H181254   0.933   2.533   6.134  0.2223  1.2775  0.9593
19921TIP3    H281255   1.070   2.480   6.170  0.3725  2.7935  2.7820
19922TIP3   OH281256   0.570   4.206   0.697 -0.0303 -0.1628 -0.3551
19922TIP3    H181257   0.611   4.280   0.652 -0.6438  0.8213  0.6657
19922TIP3    H281258   0.503   4.174   0.635  0.7666 -0.3871 -1.1193
19923TIP3   OH281259   0.272   5.467  11.567 -0.1728  0.2934  0.1121
19923TIP3    H181260   0.205   5.400  11.581 -3.1278  2.7346 -0.9386
19923TIP3    H281261   0.306   5.449  11.479 -0.9379  0.1251 -0.1633
19924TIP3   OH281262   5.355   4.281   5.114 -0.1977 -0.1026  0.0840
19924TIP3    H181263   5.275   4.330   5.093 -0.3708  0.4871  1.9352
19924TIP3    H281264   5.362   4.287   5.209  1.0240 -1.7911  0.1366
19925TIP3   OH281265   6.561   0.907  14.349  0.0498  0.2460 -0.6069
19925TIP3    H181266   6.624   0.909  14.421  1.0518 -3.5869 -1.1594
19925TIP3    H281267   6.573   0.820  14.309 -1.5696  1.5718 -4.4165
19926TIP3   OH281268   3.367   0.434   2.025 -0.2428 -0.2492 -0.3523
19926TIP3    H181269   3.407   0.407   2.107  0.1488  1.7776  0.1885
19926TIP3    H281270   3.273   0.435   2.043 -0.3244 -1.7356 -0.5797
19927TIP3   OH281271   6.655   4.762   2.682 -0.6938 -0.5989  0.5120
19927TIP3    H181272   6.674   4.840   2.733 -2.6042 -0.9017  1.8066
19927TIP3    H281273   6.721   4.698   2.710 -1.8914 -0.8756  2.9916
19928TIP3   OH281274   1.915   5.142   0.296 -0.2408  0.0696  0.2264
19928TIP3    H181275   1.958   5.103   0.371 -0.7789 -2.4088 -0.6546
19928TIP3    H281276   1.941   5.087   0.222 -2.3804  0.3690 -0.8280
19929TIP3   OH281277   3.213   3.686  16.508 -0.3194  0.4711  0.3436
19929TIP3    H181278   3.158   3.707  16.432  0.7339  0.6498 -0.3837
19929TIP3    H281279   3.152   3.649  16.571 -1.0910 -0.4693 -0.9056
19930TIP3   OH281280   3.480   0.420   4.801  0.1951 -0.1155 -0.1794
19930TIP3    H181281   3.489   0.469   4.883  0.9479  0.8067 -0.7907
19930TIP3    H281282   3.386   0.424   4.781 -0.3205 -1.9215  1.5424
19931TIP3   OH281283   1.740   1.938  12.628 -0.0375 -0.2605 -0.6805
19931TIP3    H181284   1.765   1.867  12.570 -0.1937 -0.4469 -0.5204
19931TIP3    H281285   1.653   1.964  12.597  0.9864  1.5388 -2.3587
19932TIP3   OH281286   4.185   4.464  16.422  0.1915 -0.5934  0.2507
19932TIP3    H181287   4.146   4.455  16.509 -3.4583 -1.3720 -1.2961
19932TIP3    H281288   4.193   4.374  16.390 -0.5199 -0.2346 -0.9821
19933TIP3   OH281289   3.909   3.947   6.780 -0.5148  0.2225 -0.4138
19933TIP3    H181290   3.829   3.950   6.833 -0.3516  0.3588 -0.1779
19933TIP3    H281291   3.882   3.982   6.695 -0.5549  0.8650 -0.1429
19934TIP3   OH281292   3.748   0.479  17.150 -0.0467  0.7708  0.1075
19934TIP3    H181293   3.709   0.514  17.230  3.8456 -0.4330  2.8161
19934TIP3    H281294   3.771   0.557  17.099 -0.4022  1.7146  1.3194
19935TIP3   OH281295   5.630   2.282   0.412  0.0098 -0.0098  0.1620
19935TIP3    H181296   5.549   2.233   0.398 -0.0486  0.4777 -1.4355
19935TIP3    H281297   5.685   2.224   0.464  0.6575 -2.6567 -3.1578
19936TIP3   OH281298   3.435   1.437   0.124 -0.1453  0.2735  0.2772
19936TIP3    H181299   3.417   1.515   0.072 -1.0063  0.5792  0.9954
19936TIP3    H281300   3.358   1.381   0.111  0.6625 -0.6630 -0.5840
19937TIP3   OH281301   3.090   1.054  17.523  0.2049  0.0882  0.6464
19937TIP3    H181302   3.006   1.088  17.554 -0.4340  0.3559 -1.2573
19937TIP3    H281303   3.085   0.960  17.538 -2.0344 -0.5005 -2.6983
19938TIP3   OH281304   3.376   6.457   6.847 -0.1137  0.2429  0.5982
19938TIP3    H181305   3.297   6.509   6.842 -0.6740 -0.6085  0.4175
19938TIP3    H281306   3.346   6.369   6.869  0.9227  0.2855  2.4609
19939TIP3   OH281307   0.915   3.221   1.364  0.3143  0.2844  0.0006
19939TIP3    H181308   0.930   3.156   1.433  2.2774 -0.4515 -1.0229
19939TIP3    H281309   0.969   3.296   1.390 -2.6311  2.0180  1.6479
19940TIP3   OH281310   1.823   1.948  15.448 -0.4497 -0.1680  0.2092
19940TIP3    H181311   1.892   2.000  15.406  0.2856  0.2889  1.8971
19940TIP3    H281312   1.773   2.012  15.499 -1.8256 -0.5814 -0.5623
19941TIP3   OH281313   6.467   6.551   0.224 -0.2042 -0.2238 -0.2142
19941TIP3    H181314   6.538   6.550   0.289  0.3903 -0.0016 -0.8476
19941TIP3    H281315   6.448   6.644   0.210 -1.0693 -0.2886  0.4125
19942TIP3   OH281316   1.075   4.787   2.008 -0.2028  0.0246  0.3500
19942TIP3    H181317   1.077   4.694   1.984  2.0673 -0.4689  2.0682
19942TIP3    H281318   1.116   4.832   1.934  3.0884 -0.9870  1.4028
19943TIP3   OH281319   5.189   1.503   0.073 -0.5004 -0.4154  0.0145
19943TIP3    H181320   5.202   1.597   0.086 -0.5595 -0.5212  0.9620
19943TIP3    H281321   5.278   1.468   0.065 -0.4393 -0.3811  0.5080
19944TIP3   OH281322   3.947   1.360  17.185 -0.2802 -0.1703  0.0850
19944TIP3    H181323   3.988   1.290  17.235  0.3423 -0.3402 -0.6469
19944TIP3    H281324   3.964   1.338  17.093 -3.2935 -1.0389 -0.3729
19945TIP3   OH281325   0.041   4.072   3.936 -0.2547  0.0480  0.2958
19945TIP3    H181326   0.046   3.977   3.932  1.2250  0.1259  0.0844
19945TIP3    H281327   0.038   4.092   4.030 -2.4831 -0.2506  0.3552
19946TIP3   OH281328   0.589   4.364   4.709  0.1345 -0.1438  0.0484
19946TIP3    H181329   0.585   4.443   4.654 -0.7842 -1.3352 -1.6683
19946TIP3    H281330   0.588   4.398   4.798  0.7358  1.8285 -0.6246
19947TIP3   OH281331   1.923   4.764   6.325  0.5784 -1.4499  0.2235
19947TIP3    H181332   2.015   4.786   6.341  0.9077 -1.5928 -1.3237
19947TIP3    H281333   1.890   4.836   6.273  0.4787 -2.4664 -1.1979
19948TIP3   OH281334   5.240   4.109   1.949 -0.6121 -0.4189  0.3836
19948TIP3    H181335   5.210   4.176   1.888  1.1019  1.3200  1.3887
19948TIP3    H281336   5.237   4.151   2.035 -0.5737 -2.0147  1.2077
19949TIP3   OH281337   6.583   5.320   5.881 -0.8051  0.2868  0.3271
19949TIP3    H181338   6.590   5.365   5.797  0.7172  0.9860  0.8001
19949TIP3    H281339   6.608   5.229   5.863 -3.3102 -0.3272 -0.5078
19950TIP3   OH281340   4.213   0.012   3.383 -0.0362  0.7013 -0.3274
19950TIP3    H181341   4.249   0.036   3.298 -0.4650  0.8596 -0.4688
19950TIP3    H281342   4.247  -0.076   3.400  1.0018  1.1317 -0.1095
19951TIP3   OH281343   3.770   4.017  16.780 -0.9830 -0.4869 -0.6132
19951TIP3    H181344   3.696   4.033  16.721  0.1301 -0.0886 -1.9514
19951TIP3    H281345   3.824   4.096  16.773  0.5251 -1.5213 -1.1506
19952TIP3   OH281346   1.173   5.055  13.467  0.3827  0.0098  0.2951
19952TIP3    H181347   1.173   5.018  13.555  0.6483  0.5262  0.5155
19952TIP3    H281348   1.207   5.144  13.478 -2.1900  1.1087  0.1282
19953TIP3   OH281349   4.928   0.588  13.187 -0.1572  0.1258  0.5987
19953TIP3    H181350   4.841   0.572  13.149 -0.1405  1.1267  0.0895
19953TIP3    H281351   4.914   0.660  13.249  0.5194  1.1669 -0.4204
19954TIP3   OH281352   0.396   2.456  11.935  0.0772  0.5003  0.0721
19954TIP3    H181353   0.427   2.433  11.847  2.1872  1.0939  0.5904
19954TIP3    H281354   0.302   2.466  11.925  0.2176  0.3129 -2.0717
19955TIP3   OH281355   5.741   5.621   4.663  0.2214  0.3529  0.2012
19955TIP3    H181356   5.678   5.567   4.614 -0.1589  2.5345 -1.9069
19955TIP3    H281357   5.803   5.651   4.597  0.6531  2.1151  1.3383
19956TIP3   OH281358   2.219   3.841  12.219 -0.0880 -0.3696  0.3343
19956TIP3    H181359   2.305   3.801  12.206  0.3382  0.6498 -0.1090
19956TIP3    H281360   2.157   3.771  12.199  0.6177 -1.4700  1.7743
19957TIP3   OH281361   3.702   6.216  12.693 -0.1967 -0.5634 -0.2064
19957TIP3    H181362   3.620   6.261  12.674  0.3915  1.3102  1.3176
19957TIP3    H281363   3.677   6.125  12.709 -2.0705  0.0554  0.6555
19958TIP3   OH281364   5.491   1.833  15.089  0.0327 -0.0348  0.5197
19958TIP3    H181365   5.409   1.785  15.076  0.2230  0.2179 -2.2857
19958TIP3    H281366   5.477   1.885  15.168 -1.8316 -1.3302  1.1012
19959TIP3   OH281367   3.639   6.642  13.397  0.1222  0.3272  0.4567
19959TIP3    H181368   3.669   6.707  13.333  2.3384 -0.8414  0.2314
19959TIP3    H281369   3.691   6.564  13.379 -1.9725 -1.3558  1.1640
19960TIP3   OH281370   5.421   2.840   1.348 -0.2185  0.2725 -0.0550
19960TIP3    H181371   5.502   2.792   1.364 -0.9941 -0.3288  2.3910
19960TIP3    H281372   5.430   2.920   1.400 -1.7401 -0.4475  1.3798
19961TIP3   OH281373   4.490   0.704  12.538  0.4119  0.0319 -0.3219
19961TIP3    H181374   4.433   0.645  12.588  0.1296  0.4355 -0.1645
19961TIP3    H281375   4.547   0.645  12.488  1.4818 -0.3837  1.3321
19962TIP3   OH281376   1.322   6.342   6.102 -0.3623 -0.1352 -0.0411
19962TIP3    H181377   1.393   6.291   6.063  0.2956 -0.2492  1.2476
19962TIP3    H281378   1.297   6.404   6.034  2.2035  1.1351  0.0461
19963TIP3   OH281379   5.913   2.845   2.134 -0.1449  0.2070  0.0429
19963TIP3    H181380   5.908   2.928   2.086  0.2181 -0.6012 -1.4175
19963TIP3    H281381   6.006   2.834   2.153  0.3377 -1.5094 -2.8143
19964TIP3   OH281382   6.104   6.361   1.260 -0.2530  0.5059 -0.4710
19964TIP3    H181383   6.072   6.441   1.218 -0.0463 -0.4683 -2.6162
19964TIP3    H281384   6.199   6.367   1.255 -0.2328 -0.7300 -2.4974
19965TIP3   OH281385   2.664   0.929   1.938 -0.0590  0.9296 -0.0649
19965TIP3    H181386   2.716   1.001   1.900 -2.4663  1.9974 -1.6038
19965TIP3    H281387   2.617   0.970   2.011  2.5439 -0.4973  2.6227
19966TIP3   OH281388   3.693   1.691   1.002 -0.0324  0.4215  0.3264
19966TIP3    H181389   3.609   1.675   0.959 -0.1817 -1.7157  1.2785
19966TIP3    H281390   3.753   1.708   0.930 -0.8831 -0.0499 -0.5235
19967TIP3   OH281391   0.736   5.064  11.628 -0.3830  0.0748  0.2113
19967TIP3    H181392   0.690   5.075  11.545  0.3204 -2.5409 -0.6490
19967TIP3    H281393   0.735   5.150  11.668 -3.3637  0.7943 -1.1161
19968TIP3   OH281394   4.238   6.691  13.689  0.3659  0.2712 -0.5292
19968TIP3    H181395   4.282   6.619  13.644  0.6870 -1.2367  2.0050
19968TIP3    H281396   4.146   6.685  13.660  0.4749 -0.8946 -0.6898
19969TIP3   OH281397   6.702   4.046  17.091 -0.5010  0.1095  0.0722
19969TIP3    H181398   6.626   4.086  17.048 -0.9361  0.8699  1.4873
19969TIP3    H281399   6.758   4.018  17.019  0.0040  3.5938 -1.0774
19970TIP3   OH281400   5.166   6.677  13.874 -0.1526  0.7274 -0.9122
19970TIP3    H181401   5.179   6.772  13.869 -0.2714  0.8083  0.1399
19970TIP3    H281402   5.093   6.666  13.935  2.2757 -0.1614  2.1283
19971TIP3   OH281403   1.654   3.982  12.183  0.3650  0.3826  0.4987
19971TIP3    H181404   1.662   4.073  12.210 -0.8250  0.0940  1.8960
19971TIP3    H281405   1.733   3.940  12.216  1.1255  0.9535 -0.5132
19972TIP3   OH281406   3.646   0.826  17.441 -0.1903  0.4065 -0.3485
19972TIP3    H181407   3.599   0.795  17.363 -0.6478  0.6096 -0.1596
19972TIP3    H281408   3.633   0.921  17.440  0.9130  0.5724 -0.7388
19973TIP3   OH281409   5.970   3.143   2.335  0.0052 -0.1436 -0.0938
19973TIP3    H181410   5.898   3.206   2.328 -0.6443 -0.9431 -0.7819
19973TIP3    H281411   6.010   3.143   2.247  1.2401  0.7312  0.4356
19974TIP3   OH281412   1.446   1.253  13.181 -0.0721  0.3799  0.2463
19974TIP3    H181413   1.526   1.285  13.139 -0.6969  2.2298  0.3909
19974TIP3    H281414   1.476   1.181  13.237  1.4389  0.8183  0.0582
19975TIP3   OH281415   3.414   2.251  16.278  0.9202 -0.0308  0.3137
19975TIP3    H181416   3.456   2.200  16.209 -2.1851 -0.6900 -1.2929
19975TIP3    H281417   3.348   2.191  16.314 -0.7703  1.8487  0.4912
19976TIP3   OH281418   0.530   2.000   1.643 -0.1594 -0.1506 -0.2235
19976TIP3    H181419   0.463   2.045   1.695  0.5877  1.3271 -0.4872
19976TIP3    H281420   0.605   2.059   1.645  0.7125 -1.2016 -0.9771
19977TIP3   OH281421   3.406   3.698  16.187  0.0744 -0.8200  0.5182
19977TIP3    H181422   3.351   3.650  16.249 -0.9461 -0.0518  0.2310
19977TIP3    H281423   3.417   3.785  16.227 -0.7453 -0.2524 -0.4387
19978TIP3   OH281424   1.546   5.223   5.154  0.3448  0.0007 -0.1464
19978TIP3    H181425   1.530   5.130   5.137 -1.6295  0.2453  0.1480
19978TIP3    H281426   1.602   5.251   5.081 -0.3777 -1.0530 -1.1487
19979TIP3   OH281427   5.163   5.606   3.806  0.4711 -0.2026  0.1490
19979TIP3    H181428   5.086   5.557   3.776  0.1254  1.1345 -1.2826
19979TIP3    H281429   5.126   5.678   3.857  0.9120 -0.6618  1.1488
19980TIP3   OH281430   1.165   5.963   0.439  0.0003  0.3475 -0.0910
19980TIP3    H181431   1.105   5.889   0.444 -0.6935  0.8822 -0.2721
19980TIP3    H281432   1.244   5.928   0.399  0.1149 -0.5576  0.8892
19981TIP3   OH281433   6.011   1.782  12.744  0.4060  0.0769 -0.4680
19981TIP3    H181434   6.085   1.762  12.801 -0.2433  0.2777  0.4672
19981TIP3    H281435   5.983   1.869  12.772 -0.7398 -0.3685 -0.1976
19982TIP3   OH281436   0.169   3.986  14.636  0.4043 -0.2516  0.0954
19982TIP3    H181437   0.195   3.903  14.596 -1.0265  0.0456 -1.5259
19982TIP3    H281438   0.076   3.995  14.617  0.5570  1.8219  0.0665
19983TIP3   OH281439   3.112   1.418   4.900 -0.4117 -0.5058 -0.6020
19983TIP3    H181440   3.104   1.339   4.846 -0.8748 -1.1933  0.4319
19983TIP3    H281441   3.037   1.472   4.875 -0.3922 -0.6286 -0.9337
19984TIP3   OH281442   4.974   3.089   2.182  0.4820 -0.5018 -0.1512
19984TIP3    H181443   5.015   3.039   2.253 -0.9621 -1.5851 -0.0386
19984TIP3    H281444   5.030   3.072   2.106 -0.5567 -3.3685 -0.4236
19985TIP3   OH281445   1.298   0.237   5.208 -0.3839  0.1248 -0.1127
19985TIP3    H181446   1.258   0.207   5.290 -0.3737  1.4251  0.3908
19985TIP3    H281447   1.391   0.220   5.220 -0.5383 -1.1014 -0.4965
19986TIP3   OH281448   5.667   5.032  12.347 -0.4583  0.0971 -0.0472
19986TIP3    H181449   5.616   5.111  12.365 -0.0956  0.4957 -0.7446
19986TIP3    H281450   5.723   5.055  12.274  1.1635 -0.1453  1.0627
19987TIP3   OH281451   0.842   5.301   6.254 -0.4280 -0.0570  0.4489
19987TIP3    H181452   0.808   5.385   6.286  1.0640  0.6612  0.2568
19987TIP3    H281453   0.918   5.284   6.309 -0.7052 -1.2919  0.4656
19988TIP3   OH281454   0.466   0.268   2.095  0.2157  0.1138  0.3507
19988TIP3    H181455   0.417   0.349   2.083  1.9294  0.9625 -1.3888
19988TIP3    H281456   0.531   0.289   2.162  0.5321  0.1244  0.0427
19989TIP3   OH281457   2.585   6.687   3.088 -0.0445  0.0827  0.5360
19989TIP3    H181458   2.589   6.662   2.996  1.2952 -0.7067  0.7772
19989TIP3    H281459   2.652   6.755   3.096  0.4824 -0.4936  1.1021
19990TIP3   OH281460   3.432   1.484   3.189  0.0141  0.5695 -0.0302
19990TIP3    H181461   3.387   1.433   3.122  0.1730 -0.0941  0.3647
19990TIP3    H281462   3.468   1.559   3.141  1.5327 -0.7230 -1.0496
19991TIP3   OH281463   2.896   4.855  12.205  0.2164 -0.2993  0.0383
19991TIP3    H181464   2.882   4.926  12.143  0.9500  1.2564  1.5815
19991TIP3    H281465   2.898   4.776  12.151 -0.0574  0.8885 -1.7871
19992TIP3   OH281466   4.455   0.960   4.970  0.8380  0.2884 -0.2779
19992TIP3    H181467   4.421   0.992   5.054 -0.7691  1.3399 -1.2808
19992TIP3    H281468   4.387   0.900   4.939  1.2082  0.2520 -1.0354
19993TIP3   OH281469   5.809   5.350  14.974 -0.8752  0.0832 -0.2706
19993TIP3    H181470   5.879   5.291  14.946 -2.5811 -2.2907  0.1217
19993TIP3    H281471   5.729   5.297  14.966 -2.4697  2.2390  0.5484
19994TIP3   OH281472   3.532   5.091   1.894 -0.6515  0.4858  0.1808
19994TIP3    H181473   3.583   5.011   1.878 -0.5090  0.2681  1.5803
19994TIP3    H281474   3.557   5.150   1.823  0.4253 -0.1718 -0.0111
19995TIP3   OH281475   4.742   3.915  16.404 -0.1913 -0.0752 -0.1176
19995TIP3    H181476   4.659   3.963  16.408  0.3070  0.9074 -0.9687
19995TIP3    H281477   4.808   3.983  16.391  0.6572 -0.9166 -0.3010
19996TIP3   OH281478   3.669   0.772  12.972 -0.2086 -0.0892  0.1802
19996TIP3    H181479   3.694   0.713  13.043 -0.2151 -1.9758 -1.3086
19996TIP3    H281480   3.578   0.748  12.952 -0.8493  1.7032  0.7106
19997TIP3   OH281481   4.900   3.382   2.911 -0.1682 -0.1594  0.5578
19997TIP3    H181482   4.908   3.394   2.816  0.5479  1.5582  0.8067
19997TIP3    H281483   4.991   3.376   2.942 -0.4033 -1.7166  1.0616
19998TIP3   OH281484   5.787   1.138   2.165  0.6238 -0.2616  0.0281
19998TIP3    H181485   5.787   1.064   2.105 -0.5256 -0.8074  0.6691
19998TIP3    H281486   5.788   1.215   2.108  0.2915 -0.7699 -0.6703
19999TIP3   OH281487   6.376   1.206  13.409  0.0984 -0.5537  0.4448
19999TIP3    H181488   6.320   1.145  13.458 -0.4589  0.0681  0.5903
19999TIP3    H281489   6.465   1.187  13.440 -0.2895  0.2556  2.1817
20000TIP3   OH281490   5.082   3.278  10.716  0.3404 -0.0217  0.1000
20000TIP3    H181491   5.059   3.363  10.752  0.7732  0.4067 -0.6219
20000TIP3    H281492   5.080   3.219  10.792 -1.2124  0.3579  0.3896
20001TIP3   OH281493   6.323   4.376   4.643 -0.5873  0.1502 -0.0090
20001TIP3    H181494   6.263   4.402   4.713 -1.8897  0.6729 -1.2761
20001TIP3    H281495   6.386   4.448   4.639  0.1171 -0.3551  1.2664
20002TIP3   OH281496   3.386   0.868   5.412 -0.0360 -0.1586  0.6619
20002TIP3    H181497   3.391   0.957   5.445 -2.1086 -0.1840  1.1788
20002TIP3    H281498   3.473   0.831   5.428  0.6953  1.5909  0.8934
20003TIP3   OH281499   4.044   1.956  10.886  0.7380  0.2630  0.8755
20003TIP3    H181500   4.116   1.907  10.847 -0.7926 -0.7901 -0.8362
20003TIP3    H281501   4.024   1.909  10.967  2.3068  0.9344  1.6950
20004TIP3   OH281502   2.653   0.197  12.499 -0.4877 -0.3028  0.0319
20004TIP3    H181503   2.687   0.144  12.571 -1.6937  0.0697  0.8999
20004TIP3    H281504   2.569   0.156  12.477 -0.2164 -0.3037 -1.0600
20005TIP3   OH281505   6.164   4.061  13.414  0.1897  0.1886 -0.3939
20005TIP3    H181506   6.108   4.109  13.353 -1.1362  0.4221  0.9646
20005TIP3    H281507   6.236   4.121  13.432 -0.4588  0.9182 -0.1814
20006TIP3   OH281508   2.581   4.501  14.789  0.1417 -0.1996  0.2630
20006TIP3    H181509   2.496   4.459  14.802  0.0059 -0.0315 -0.0773
20006TIP3    H281510   2.645   4.430  14.794 -0.0061 -0.3067  0.6602
20007TIP3   OH281511   6.014   1.090   1.164 -0.4052  0.2805  0.2440
20007TIP3    H181512   5.923   1.117   1.179 -0.0553  0.9145  1.3049
20007TIP3    H281513   6.014   1.056   1.074 -2.9785 -5.3176  1.9438
20008TIP3   OH281514   4.542   4.164   2.717  0.4073 -0.1839 -0.0136
20008TIP3    H181515   4.562   4.098   2.649 -0.8878  0.2457 -0.8606
20008TIP3    H281516   4.499   4.114   2.786  0.3929 -0.3962 -0.1742
20009TIP3   OH281517   5.640   2.178  10.877  0.6828 -0.3770  0.2753
20009TIP3    H181518   5.593   2.112  10.928  0.5713 -0.2958  0.2800
20009TIP3    H281519   5.636   2.258  10.930  1.0082 -0.4223  0.3679
20010TIP3   OH281520   1.976   6.411  15.501  0.3903 -0.4428 -0.1106
20010TIP3    H181521   1.958   6.467  15.425 -1.0902 -0.5808  0.1056
20010TIP3    H281522   1.965   6.322  15.469  2.6702 -0.6780 -0.4331
20011TIP3   OH281523   1.028   1.273  12.235 -0.3015 -0.2437 -0.5922
20011TIP3    H181524   0.993   1.184  12.240  0.0276 -0.3593 -0.2780
20011TIP3    H281525   1.027   1.294  12.142 -1.4793 -0.1299 -0.5681
20012TIP3   OH281526   3.037   3.346  12.725 -1.3963 -0.9817 -0.4885
20012TIP3    H181527   3.098   3.405  12.770 -2.4530 -0.7077  0.6621
20012TIP3    H281528   3.087   3.267  12.709 -0.1999 -0.0906 -1.2826
20013TIP3   OH281529   1.135   1.041   1.621  0.3805  0.0964 -0.0263
20013TIP3    H181530   1.043   1.036   1.595 -0.0020  1.4118  0.9742
20013TIP3    H281531   1.168   0.952   1.609 -1.5724 -0.9286  1.5748
20014TIP3   OH281532   0.082   5.320  15.404  0.4954 -0.9162 -0.6483
20014TIP3    H181533   0.016   5.389  15.406  0.6422 -0.7810 -0.4220
20014TIP3    H281534   0.108   5.309  15.496  1.8181  0.0312 -0.8788
20015TIP3   OH281535   3.170   1.929  12.923 -0.1030  0.6502  0.0089
20015TIP3    H181536   3.148   1.857  12.982 -0.8275 -0.0243 -1.0528
20015TIP3    H281537   3.189   2.003  12.981 -0.1406 -0.1768  1.0944
20016TIP3   OH281538   2.252   5.362   4.766  0.3575  0.0925 -0.1139
20016TIP3    H181539   2.171   5.317   4.745 -0.3336  0.5536  1.4018
20016TIP3    H281540   2.318   5.293   4.771 -0.1492 -0.4115 -0.3289
20017TIP3   OH281541   0.692   5.296  11.764 -0.6264 -0.0879  0.2144
20017TIP3    H181542   0.773   5.295  11.815 -0.6644  2.9210  0.4766
20017TIP3    H281543   0.624   5.317  11.828 -1.0447  1.1544 -0.6013
20018TIP3   OH281544   3.110   0.157   0.845 -0.0876 -0.3129 -0.6887
20018TIP3    H181545   3.132   0.083   0.788 -2.9056 -1.2118 -0.7915
20018TIP3    H281546   3.150   0.233   0.803  2.0255 -1.5993 -1.1344
20019TIP3   OH281547   4.086   2.232   1.926 -0.0116 -0.0138  0.0686
20019TIP3    H181548   4.138   2.215   1.847 -2.2562 -0.9148 -1.3075
20019TIP3    H281549   4.144   2.206   1.998  1.9014  0.2826 -1.2641
20020TIP3   OH281550   1.044   1.801   4.163 -0.1390  0.3355 -0.2650
20020TIP3    H181551   1.100   1.843   4.097  1.2797  1.3905  1.5309
20020TIP3    H281552   0.970   1.767   4.113  0.5803  1.6158 -2.3221
20021TIP3   OH281553   2.484   3.142   3.378 -0.0884  0.7159 -0.4769
20021TIP3    H181554   2.548   3.132   3.449 -1.7466  0.6874  1.0913
20021TIP3    H281555   2.413   3.081   3.401 -0.8502  0.9861 -1.9746
20022TIP3   OH281556   5.536   4.883  14.611  0.4874  0.3094 -0.0770
20022TIP3    H181557   5.525   4.798  14.568  1.9009 -1.2416  2.3716
20022TIP3    H281558   5.451   4.901  14.651  0.5044 -0.6236  0.4186
20023TIP3   OH281559   3.371   4.515  16.340  0.4190  0.4116  0.5318
20023TIP3    H181560   3.414   4.454  16.281 -0.7364  0.1747 -0.0732
20023TIP3    H281561   3.397   4.602  16.307 -1.0983  0.3152 -1.0448
20024TIP3   OH281562   0.692   4.205  12.638  0.0348 -0.5429  0.8218
20024TIP3    H181563   0.753   4.145  12.594 -0.5715 -0.1913 -0.5654
20024TIP3    H281564   0.643   4.245  12.566 -1.8930 -0.8773  1.8857
20025TIP3   OH281565   3.030   1.313  14.073  0.4235 -0.5536 -0.0367
20025TIP3    H181566   3.057   1.398  14.038  1.2742 -0.9328 -0.3247
20025TIP3    H281567   3.085   1.301  14.151  1.2161 -1.3981 -0.7118
20026TIP3   OH281568   1.220   2.105  14.720  0.2156  0.1326 -0.1691
20026TIP3    H181569   1.249   2.034  14.663 -0.1879 -0.2142  0.0634
20026TIP3    H281570   1.188   2.172  14.659 -2.7541 -1.2948 -0.3334
20027TIP3   OH281571   5.996   6.712  10.893 -0.2290  0.0333  0.1578
20027TIP3    H181572   5.904   6.694  10.913  0.0113 -1.4023  0.1404
20027TIP3    H281573   6.005   6.807  10.899 -1.8572  0.2491 -0.4914
20028TIP3   OH281574   6.004   4.203  13.249 -0.1372 -0.1914 -0.4261
20028TIP3    H181575   6.004   4.283  13.197 -1.3941 -0.4692 -0.9031
20028TIP3    H281576   5.937   4.217  13.315 -1.7245 -1.5210 -1.6736
20029TIP3   OH281577   3.420   2.919  14.015  0.2813  0.0771  0.5810
20029TIP3    H181578   3.457   2.874  14.091 -0.1196 -1.4770 -0.1031
20029TIP3    H281579   3.411   2.851  13.949  2.2948  1.6724 -1.5297
20030TIP3   OH281580   6.420   4.126   6.132  0.1624  0.2515 -0.3358
20030TIP3    H181581   6.505   4.170   6.126 -0.4651  1.5712  0.1325
20030TIP3    H281582   6.397   4.130   6.225 -0.8201  0.7224 -0.5906
20031TIP3   OH281583   4.131   1.854  14.874 -0.7921 -0.3337  0.2632
20031TIP3    H181584   4.077   1.853  14.953  1.1364 -2.1217  1.6781
20031TIP3    H281585   4.219   1.875  14.905 -0.3104  0.9750 -1.7434
20032TIP3   OH281586   4.455   3.915   3.829  0.8616  0.2367  0.1349
20032TIP3    H181587   4.473   3.988   3.889  0.9800 -1.5935  2.4990
20032TIP3    H281588   4.436   3.841   3.887 -4.8862 -0.4368 -1.9969
20033TIP3   OH281589   6.368   4.373   5.382  0.0762 -0.3479  0.1688
20033TIP3    H181590   6.330   4.288   5.359 -1.2296  0.4131 -0.5840
20033TIP3    H281591   6.299   4.418   5.429  1.1638 -0.1167  1.5979
20034TIP3   OH281592   4.797   0.273   3.807  0.0723  0.1402 -0.3498
20034TIP3    H181593   4.884   0.313   3.807 -0.1709  0.7365  0.9172
20034TIP3    H281594   4.737   0.347   3.813 -0.4400 -0.3498  0.8462
20035TIP3   OH281595   3.728   2.669   4.814  0.2007 -0.1434 -0.0207
20035TIP3    H181596   3.699   2.719   4.890  0.0587 -0.4627  0.1376
20035TIP3    H281597   3.650   2.620   4.787  0.0916  0.3983 -0.7192
20036TIP3   OH281598   3.677   0.551  16.741 -0.1158  0.5362 -0.4610
20036TIP3    H181599   3.761   0.509  16.760 -0.9182 -0.2370  1.7339
20036TIP3    H281600   3.700   0.629  16.690  1.6761 -0.9198 -2.0024
20037TIP3   OH281601   0.147   1.590  14.249 -0.2220  0.2183 -0.4397
20037TIP3    H181602   0.188   1.602  14.336 -1.2307 -0.7572  0.1865
20037TIP3    H281603   0.053   1.594  14.267 -0.4542 -0.9633 -1.3467
20038TIP3   OH281604   6.576   1.227  15.599 -0.3283  0.5102 -0.1055
20038TIP3    H181605   6.507   1.282  15.563  0.1647  0.7895 -0.6439
20038TIP3    H281606   6.641   1.221  15.529  0.0718  0.0437  0.2998
20039TIP3   OH281607   5.755   1.332   4.176 -0.4718  0.1485 -0.2666
20039TIP3    H181608   5.828   1.394   4.175 -0.1911 -0.1832 -0.2859
20039TIP3    H281609   5.795   1.247   4.158 -1.0285  0.1380 -1.6286
20040TIP3   OH281610   3.284   5.406  11.895  0.3282  0.3099  0.1563
20040TIP3    H181611   3.192   5.428  11.881  0.7001  2.0472  0.2358
20040TIP3    H281612   3.319   5.396  11.806  0.1624  0.0211  0.1201
20041TIP3   OH281613   5.958   1.045   3.363 -0.2626 -0.3574 -0.9329
20041TIP3    H181614   5.937   0.953   3.379 -0.2428  0.1391  2.8227
20041TIP3    H281615   5.989   1.077   3.447 -0.2964  3.1417 -2.1067
20042TIP3   OH281616   4.165   1.901   5.792 -0.0140  0.4969 -0.0537
20042TIP3    H181617   4.072   1.876   5.784  0.4667 -1.1644 -0.9109
20042TIP3    H281618   4.179   1.908   5.887 -1.1266  1.2611  0.0711
20043TIP3   OH281619   2.193   4.817  17.486  0.1306 -0.2992  0.5149
20043TIP3    H181620   2.146   4.738  17.461 -0.4325 -0.3744  1.7424
20043TIP3    H281621   2.191   4.872  17.408 -0.2816 -1.1099 -0.0587
20044TIP3   OH281622   0.074   1.640  17.287 -0.7645  0.0040  0.5470
20044TIP3    H181623  -0.021   1.641  17.300 -0.7294  4.7231  2.3118
20044TIP3    H281624   0.088   1.691  17.207  0.3007  0.5331  1.0465
20045TIP3   OH281625   5.223   2.449  14.975  0.1840 -0.0456  0.2996
20045TIP3    H181626   5.140   2.407  14.950  0.0519 -0.5605  1.4953
20045TIP3    H281627   5.271   2.381  15.022  2.4996 -0.5997 -2.6471
20046TIP3   OH281628   4.523   5.374  16.475  0.4006  0.5227 -0.3019
20046TIP3    H181629   4.467   5.447  16.449  1.8110  1.5952 -0.5261
20046TIP3    H281630   4.477   5.296  16.447 -1.1173  1.3216 -0.1643
20047TIP3   OH281631   0.598   2.781   5.929 -0.1952 -0.2259  0.0950
20047TIP3    H181632   0.556   2.847   5.874  0.0242 -1.4263 -1.5779
20047TIP3    H281633   0.598   2.819   6.017 -2.0549  1.0504 -0.4188
20048TIP3   OH281634   3.846   6.222  17.179  0.1129 -0.1121 -0.1299
20048TIP3    H181635   3.815   6.299  17.227 -0.4723 -0.3159 -0.1739
20048TIP3    H281636   3.767   6.171  17.162  0.6263 -1.3315  0.9540
20049TIP3   OH281637   0.152   3.407   4.559  0.0879 -0.1505 -0.5105
20049TIP3    H181638   0.061   3.377   4.554 -0.2762  1.0042 -1.3066
20049TIP3    H281639   0.146   3.495   4.595  1.1340 -0.9859  1.9071
20050TIP3   OH281640   1.721   2.058   1.662 -0.3589  0.1721 -0.0226
20050TIP3    H181641   1.719   1.982   1.604  0.4314 -0.7467  1.0916
20050TIP3    H281642   1.711   2.021   1.750  1.7759  1.1260  0.7112
20051TIP3   OH281643   6.233   6.053   5.340  0.2535  0.3392  0.2705
20051TIP3    H181644   6.276   5.969   5.355  0.8026 -0.0238 -2.6364
20051TIP3    H281645   6.155   6.030   5.288 -0.1751  1.5329  0.3727
20052TIP3   OH281646   1.101   4.906  15.026 -0.2924 -0.4346 -0.1156
20052TIP3    H181647   1.017   4.884  15.066  0.2757 -2.1664  0.2154
20052TIP3    H281648   1.167   4.878  15.091  0.5592  1.6026 -0.0240
20053TIP3   OH281649   0.756   4.119   4.789  0.1198  0.8810 -0.3585
20053TIP3    H181650   0.667   4.086   4.778  0.8111 -1.2159 -0.0521
20053TIP3    H281651   0.744   4.208   4.822 -1.8591  0.4084  0.3581
20054TIP3   OH281652   4.397   4.193   4.710 -0.4151 -0.5477  0.2922
20054TIP3    H181653   4.432   4.119   4.660  2.0521 -0.6977  2.0477
20054TIP3    H281654   4.431   4.270   4.664 -1.0507 -0.5549 -0.2049
20055TIP3   OH281655   3.392   2.316   3.994  0.6506 -0.0438 -0.0614
20055TIP3    H181656   3.421   2.239   4.044 -0.5806  0.1901  1.0712
20055TIP3    H281657   3.420   2.391   4.047 -0.9974  0.1989  0.5477
20056TIP3   OH281658   2.302   0.863   2.573 -0.4594 -0.8298  0.0757
20056TIP3    H181659   2.376   0.893   2.626 -0.6283  0.0029 -0.1507
20056TIP3    H281660   2.342   0.807   2.506 -0.0269 -0.3532 -0.0697
20057TIP3   OH281661   2.477   6.320   6.929 -0.3909  0.3703  0.1779
20057TIP3    H181662   2.555   6.289   6.883  0.0286  0.3026  0.9048
20057TIP3    H281663   2.450   6.399   6.882 -1.0973 -0.7287 -1.3144
20058TIP3   OH281664   0.676   6.580   5.268  0.0137 -0.0773 -0.1973
20058TIP3    H181665   0.588   6.603   5.239 -1.0616 -1.0775  2.0022
20058TIP3    H281666   0.717   6.664   5.289 -0.1685  0.4372 -1.7728
20059TIP3   OH281667   2.942   0.829   1.064  0.0544 -0.5063 -0.1717
20059TIP3    H181668   2.855   0.866   1.083  0.1444 -0.0337 -0.6595
20059TIP3    H281669   2.994   0.904   1.037  0.1433 -1.0415 -1.5433
20060TIP3   OH281670   2.730   3.297   1.393  0.1017 -0.7514 -0.4633
20060TIP3    H181671   2.735   3.217   1.445  2.2260 -0.0149  0.5613
20060TIP3    H281672   2.799   3.353   1.428 -2.1439  2.1236 -0.2281
20061TIP3   OH281673   4.444   5.385  12.467  0.6875 -0.3028  0.0925
20061TIP3    H181674   4.465   5.386  12.374  1.3762 -1.4980  0.2163
20061TIP3    H281675   4.508   5.326  12.506 -0.7505 -1.3249  1.0295
20062TIP3   OH281676   1.700   3.905  14.215  0.0398 -0.6145  0.0858
20062TIP3    H181677   1.743   3.975  14.266  2.2618 -1.0131 -1.1213
20062TIP3    H281678   1.647   3.858  14.279  0.8892  0.3401  1.5478
20063TIP3   OH281679   3.456   2.205  13.326  0.0587 -0.0081  0.2489
20063TIP3    H181680   3.383   2.148  13.303 -0.1800  0.1549  0.5999
20063TIP3    H281681   3.430   2.292  13.295 -0.4717  0.3118  1.5133
20064TIP3   OH281682   4.578   2.382  11.799  0.7661  0.1320  0.4566
20064TIP3    H181683   4.658   2.330  11.807  0.2374 -1.2470 -2.1472
20064TIP3    H281684   4.508   2.322  11.828  0.4946  0.6873  0.9642
20065TIP3   OH281685   5.647   1.833   1.525 -0.2840  0.2500  0.6535
20065TIP3    H181686   5.595   1.764   1.567 -0.0375 -0.1647  0.2862
20065TIP3    H281687   5.617   1.914   1.566 -2.6503  0.2543 -0.8950
20066TIP3   OH281688   4.764   2.287  17.326 -0.0528 -0.0149 -0.1932
20066TIP3    H181689   4.777   2.368  17.374 -0.9191 -0.1789  0.3336
20066TIP3    H281690   4.677   2.295  17.288 -0.6832 -1.2116  0.9278
20067TIP3   OH281691   0.015   6.724  15.814  0.2323  0.1332 -0.4463
20067TIP3    H181692   0.012   6.802  15.758 -0.3609  0.8211  0.5109
20067TIP3    H281693  -0.071   6.684  15.804  0.7859 -0.8335 -1.5077
20068TIP3   OH281694   3.154   6.066   5.409 -0.2371  0.1224  0.0487
20068TIP3    H181695   3.154   6.152   5.450 -1.2075 -0.7737  2.0488
20068TIP3    H281696   3.246   6.039   5.408 -0.1622  0.2833  1.4456
20069TIP3   OH281697   5.314   5.743  11.540 -0.0451 -0.7265 -0.2199
20069TIP3    H181698   5.273   5.733  11.626 -0.7347 -0.9108 -0.5656
20069TIP3    H281699   5.371   5.820  11.550 -0.6305 -0.3396  0.2066
20070TIP3   OH281700   5.763   0.155  12.007 -0.4984  0.1662 -0.1983
20070TIP3    H181701   5.782   0.220  11.939  1.4962  0.5965  0.6907
20070TIP3    H281702   5.826   0.084  11.991  0.8596  0.8113  1.8149
20071TIP3   OH281703   5.991   2.404   3.434  0.0198 -0.5717  0.0415
20071TIP3    H181704   5.978   2.339   3.503  1.0219 -0.6028  0.2225
20071TIP3    H281705   6.049   2.361   3.371  1.4846  0.4546  0.6442
20072TIP3   OH281706   2.546   2.792   1.960 -0.1225  0.0861 -0.2646
20072TIP3    H181707   2.588   2.873   1.932 -0.9294 -0.2072 -2.5182
20072TIP3    H281708   2.465   2.821   2.003  0.2113  0.4945  0.1045
20073TIP3   OH281709   1.135   3.763  15.822  0.0807 -0.0366 -0.2270
20073TIP3    H181710   1.084   3.783  15.900  0.7341 -2.1605  0.8351
20073TIP3    H281711   1.226   3.781  15.848  0.4060 -1.6747 -0.1047
20074TIP3   OH281712   3.734   4.045  14.634 -0.2867 -0.0858  0.1837
20074TIP3    H181713   3.674   4.066  14.706  0.5373  1.0937  0.5421
20074TIP3    H281714   3.716   4.111  14.567  0.4859  0.1618  0.2169
20075TIP3   OH281715   5.116   1.821  14.596  0.1673  0.4161  0.1221
20075TIP3    H181716   5.121   1.788  14.685 -0.6893 -1.1366 -0.3735
20075TIP3    H281717   5.124   1.743  14.541 -1.4991  1.0508 -1.0985
20076TIP3   OH281718   0.583   4.871  12.602 -0.0046  0.3647  0.0194
20076TIP3    H181719   0.567   4.822  12.521  0.8930 -0.1958  0.1594
20076TIP3    H281720   0.502   4.862  12.652  0.3135 -1.4827  0.2763
20077TIP3   OH281721   6.714   5.616   4.634 -0.4674  0.3992  0.0246
20077TIP3    H181722   6.685   5.542   4.686  0.1272 -0.0707 -0.3014
20077TIP3    H281723   6.717   5.689   4.695 -2.5224  0.5253  0.0304
20078TIP3   OH281724   1.993   0.103  17.442 -0.1824  0.3216 -0.0891
20078TIP3    H181725   2.037   0.066  17.519 -0.6562  0.7611  0.3975
20078TIP3    H281726   2.040   0.184  17.425 -0.8340  0.8196  0.4655
20079TIP3   OH281727   6.562   6.012   4.677 -0.6148 -0.2101  0.5446
20079TIP3    H181728   6.525   5.975   4.757 -1.6569 -0.4615 -0.0391
20079TIP3    H281729   6.495   6.072   4.645  0.4991  1.1850  0.7483
20080TIP3   OH281730   2.700   2.650   0.687 -0.0944 -0.0146 -0.0617
20080TIP3    H181731   2.779   2.633   0.636  0.4718 -0.0515  0.7961
20080TIP3    H281732   2.695   2.746   0.692  0.6352 -0.0171  0.9700
20081TIP3   OH281733   3.183   4.343  16.909 -0.1493  0.4025 -0.3791
20081TIP3    H181734   3.241   4.372  16.839 -0.4750  0.1804 -0.7471
20081TIP3    H281735   3.236   4.285  16.963  0.1286  0.6443 -0.3897
20082TIP3   OH281736   3.652   4.700  12.801 -1.0636  0.0199 -0.3150
20082TIP3    H181737   3.747   4.712  12.810 -1.1085 -0.0038  0.2096
20082TIP3    H281738   3.643   4.628  12.739 -0.7544  0.8381 -1.3470
20083TIP3   OH281739   5.374   6.114  16.752 -0.9638  0.1612  0.3777
20083TIP3    H181740   5.423   6.194  16.771 -1.5695  0.3945  1.0146
20083TIP3    H281741   5.348   6.080  16.838  1.3036 -2.0429  0.2989
20084TIP3   OH281742   0.949   1.089   5.004  0.3868 -0.3780  0.4150
20084TIP3    H181743   0.881   1.024   4.986  0.3987  0.0466 -1.2929
20084TIP3    H281744   0.945   1.101   5.099 -0.6305 -1.7543  0.5840
20085TIP3   OH281745   1.245   5.931  15.454  0.5686  0.0481  0.2379
20085TIP3    H181746   1.151   5.946  15.447  0.2907 -1.7851 -0.5353
20085TIP3    H281747   1.278   6.007  15.503 -1.1781  1.0990 -0.1312
20086TIP3   OH281748   4.864   5.757   2.169  0.3845 -0.6241 -0.4959
20086TIP3    H181749   4.823   5.722   2.090  0.5933 -1.3381 -0.2993
20086TIP3    H281750   4.957   5.763   2.148  0.4678 -0.9983 -0.2440
20087TIP3   OH281751   2.956   1.219  12.879  0.0772 -1.0125  1.2283
20087TIP3    H181752   2.937   1.308  12.850  2.3185 -0.9333 -0.3174
20087TIP3    H281753   2.876   1.189  12.921 -2.8088 -0.2406 -3.0544
20088TIP3   OH281754   3.791   4.682   4.521  0.4402  0.0968  0.6743
20088TIP3    H181755   3.870   4.735   4.512  1.9755 -1.8636  1.7223
20088TIP3    H281756   3.765   4.694   4.613  0.2087 -0.1743  0.6452
20089TIP3   OH281757   5.371   2.020  16.086  0.4075 -0.4306  0.2393
20089TIP3    H181758   5.372   2.029  16.181  1.2486  2.5664  0.0300
20089TIP3    H281759   5.449   1.969  16.065  0.8578 -0.0990  1.0940
20090TIP3   OH281760   4.369   5.408   3.788 -0.4018  0.3079 -0.2798
20090TIP3    H181761   4.404   5.446   3.869 -1.5577  0.7155  0.0618
20090TIP3    H281762   4.392   5.471   3.720 -0.6808  0.7062 -0.0161
20091TIP3   OH281763   2.917   6.406  10.705 -0.0531  0.4007 -0.7852
20091TIP3    H181764   2.912   6.315  10.676  0.8858  0.6881 -1.8918
20091TIP3    H281765   2.864   6.408  10.785  0.3953 -1.2454 -0.4064
20092TIP3   OH281766   5.560   6.345  15.526  0.2784  0.8823  0.3909
20092TIP3    H181767   5.510   6.267  15.500 -0.3832  1.1137  0.9500
20092TIP3    H281768   5.504   6.388  15.591  1.2332  1.1103  1.0733
20093TIP3   OH281769   2.151   4.702   2.193 -0.2181 -0.5822  0.1498
20093TIP3    H181770   2.150   4.678   2.100 -0.7273  1.1663 -0.3339
20093TIP3    H281771   2.110   4.627   2.237  0.2947 -1.5707 -0.9894
20094TIP3   OH281772   4.509   4.607  14.159  0.8945  0.5726  0.5652
20094TIP3    H181773   4.497   4.512  14.154  0.7410  0.6354 -0.5787
20094TIP3    H281774   4.505   4.627  14.252  1.0528 -0.5620  0.8317
20095TIP3   OH281775   6.232   4.343   1.868 -0.5915 -0.0620 -0.4511
20095TIP3    H181776   6.324   4.371   1.872 -1.1551  2.0327 -1.2426
20095TIP3    H281777   6.231   4.260   1.916  1.5864  0.1970  0.1580
20096TIP3   OH281778   1.086   6.546   4.829  0.6311  0.4770 -0.0100
20096TIP3    H181779   1.117   6.547   4.919  2.1403  0.1526 -0.4885
20096TIP3    H281780   1.156   6.590   4.780  0.0425  0.2564 -1.0754
20097TIP3   OH281781   2.920   3.621   0.163 -0.9907  0.1864  0.0954
20097TIP3    H181782   2.953   3.532   0.164  2.3508  1.2568 -0.6821
20097TIP3    H281783   2.833   3.615   0.125 -0.3538 -2.5874 -1.1164
20098TIP3   OH281784   1.497   6.140   1.043 -0.0821  0.5926  0.4231
20098TIP3    H181785   1.519   6.233   1.048 -1.4493  0.8526  2.2980
20098TIP3    H281786   1.436   6.134   0.969  0.3190  1.0948  0.0404
20099TIP3   OH281787   2.451   5.483   2.341 -0.5670 -0.1151 -0.1823
20099TIP3    H181788   2.454   5.567   2.385 -1.0345  0.2939 -0.9066
20099TIP3    H281789   2.496   5.498   2.257 -1.0796 -0.4549 -0.5231
20100TIP3   OH281790   6.213   2.159  11.354  0.4156  0.4674  0.6126
20100TIP3    H181791   6.121   2.133  11.356  0.8429 -1.2997 -0.6573
20100TIP3    H281792   6.215   2.236  11.297 -0.2660  0.5241  0.6536
20101TIP3   OH281793   2.222   0.919   3.931 -0.1054  0.7443  0.0751
20101TIP3    H181794   2.294   0.972   3.896 -0.0876  1.4992  1.2097
20101TIP3    H281795   2.253   0.888   4.015 -1.3479  1.6715  0.9199
20102TIP3   OH281796   5.352   5.347   0.925  0.1617  0.1716  0.0364
20102TIP3    H181797   5.325   5.264   0.967 -2.2046  0.0358 -1.5466
20102TIP3    H281798   5.359   5.325   0.832  1.4683  1.3310 -0.1561
20103TIP3   OH281799   6.179   0.712  16.982  0.2328 -0.6784 -0.6960
20103TIP3    H181800   6.119   0.774  17.024  1.6837  1.2985 -1.4145
20103TIP3    H281801   6.121   0.655  16.930 -1.0529  1.4541 -1.7456
20104TIP3   OH281802   0.934   5.657   5.189 -0.3315  0.0693 -0.0053
20104TIP3    H181803   0.883   5.715   5.246  1.0957  0.9854  0.4003
20104TIP3    H281804   0.945   5.708   5.108 -1.0949 -0.6338 -0.5681
20105TIP3   OH281805   3.871   0.866  13.928  0.0565 -0.2003 -0.8951
20105TIP3    H181806   3.906   0.808  13.861 -3.0446  0.6624 -3.5272
20105TIP3    H281807   3.805   0.814  13.974  1.4245 -0.4603  0.8948
20106TIP3   OH281808   3.753   1.478  14.355  0.1118  0.1365  0.6315
20106TIP3    H181809   3.798   1.394  14.353  0.0795  0.1003 -1.5417
20106TIP3    H281810   3.802   1.532  14.293 -1.4817  0.8115 -0.0883
20107TIP3   OH281811   4.152   5.020  16.903  0.1971 -0.5025 -0.6948
20107TIP3    H181812   4.204   4.940  16.909 -1.1129 -1.4089 -1.2229
20107TIP3    H281813   4.212   5.084  16.864  1.4985 -0.9741  0.4378
20108TIP3   OH281814   1.359   1.457  16.196 -0.5399  0.0018  0.4042
20108TIP3    H181815   1.280   1.403  16.186 -0.9850 -0.5037  4.7433
20108TIP3    H281816   1.337   1.540  16.154 -2.1680 -1.1183 -1.1042
20109TIP3   OH281817   6.757   6.032   5.667 -0.3949  0.7104  0.4507
20109TIP3    H181818   6.748   6.109   5.612  0.5514 -0.5101 -1.4965
20109TIP3    H281819   6.702   5.966   5.626  0.8251 -0.4282  0.5709
20110TIP3   OH281820   2.231   2.530   4.036 -0.0997  0.1882  0.2163
20110TIP3    H181821   2.288   2.534   4.112  0.5374 -1.2906 -0.1481
20110TIP3    H281822   2.274   2.468   3.977 -2.7231 -2.0960  0.5069
20111TIP3   OH281823   3.544   2.661  14.752 -0.4974  0.0637 -0.2908
20111TIP3    H181824   3.590   2.695  14.829 -0.9537 -1.1000  0.5452
20111TIP3    H281825   3.569   2.568  14.749 -0.0422  0.2114 -1.8992
20112TIP3   OH281826   0.008   3.622  11.318 -0.1327  0.1439  0.1314
20112TIP3    H181827  -0.083   3.652  11.313 -0.0070  0.3665 -1.2718
20112TIP3    H281828   0.040   3.656  11.402 -0.9644  1.1633  0.0590
20113TIP3   OH281829   2.679   6.501  11.401  0.2855  0.4580 -0.1738
20113TIP3    H181830   2.665   6.515  11.494  1.1431  0.8425 -0.0883
20113TIP3    H281831   2.636   6.576  11.358 -0.7788 -0.1307 -0.1419
20114TIP3   OH281832   4.801   1.577  15.625 -0.1064 -0.5073  0.3272
20114TIP3    H181833   4.745   1.653  15.639 -0.1808 -0.7697  1.5735
20114TIP3    H281834   4.886   1.613  15.600 -0.4827 -0.0689 -0.3517
20115TIP3   OH281835   6.703   0.975   4.089 -0.7003  0.4803  0.3501
20115TIP3    H181836   6.649   0.899   4.108  0.8824 -0.7121  0.3244
20115TIP3    H281837   6.750   0.952   4.009 -0.1940  1.4915  0.3294
20116TIP3   OH281838   5.454   1.780   5.432 -0.1962  0.0160  0.1221
20116TIP3    H181839   5.440   1.774   5.338 -1.5291  0.0725  0.3053
20116TIP3    H281840   5.459   1.688   5.461  0.2842 -0.0009 -0.0062
20117TIP3   OH281841   1.619   1.966   0.548  0.3014  0.0799 -0.7586
20117TIP3    H181842   1.538   1.916   0.535 -0.2012  0.3630  1.0078
20117TIP3    H281843   1.679   1.933   0.481 -0.0959 -2.7516  0.1500
20118TIP3   OH281844   1.046   6.208   0.457  0.5359 -0.3284  0.0506
20118TIP3    H181845   1.091   6.124   0.460 -1.3955 -1.3812  0.9338
20118TIP3    H281846   1.004   6.211   0.371  1.1506  0.0654 -0.2473
20119TIP3   OH281847   1.715   1.885  11.640 -0.0942  0.4243 -0.1651
20119TIP3    H181848   1.768   1.928  11.573  1.6960  1.2827  1.6914
20119TIP3    H281849   1.720   1.792  11.619 -1.7493  0.7875 -2.6494
20120TIP3   OH281850   4.490   4.423   2.304 -0.1527  0.4456 -0.4668
20120TIP3    H181851   4.548   4.490   2.340 -2.0700  1.0586  1.7365
20120TIP3    H281852   4.404   4.445   2.339 -0.8591 -3.2733  0.5973
20121TIP3   OH281853   4.257   5.687   3.139 -0.0960  0.0665  0.4270
20121TIP3    H181854   4.317   5.747   3.184 -0.7548 -0.3991  2.0161
20121TIP3    H281855   4.299   5.669   3.055  2.0656 -0.3625  1.5404
20122TIP3   OH281856   6.504   1.838  17.463 -0.6062 -0.1953  0.9789
20122TIP3    H181857   6.542   1.917  17.424 -1.4060  0.1201  0.8278
20122TIP3    H281858   6.432   1.869  17.517  0.1478 -0.6844  2.3124
20123TIP3   OH281859   5.669   4.481  14.709 -0.1123  0.7588  0.1783
20123TIP3    H181860   5.594   4.524  14.750 -0.9940 -1.4478  1.0492
20123TIP3    H281861   5.704   4.424  14.778 -0.0631 -1.1375 -1.3273
20124TIP3   OH281862   5.671   0.559   3.556  0.4993 -0.0786  0.6484
20124TIP3    H181863   5.659   0.515   3.640  2.0700 -1.8095  0.0316
20124TIP3    H281864   5.763   0.548   3.536  0.0863 -0.0544 -1.4799
20125TIP3   OH281865   1.349   5.863   6.189 -0.2886 -0.1413  0.3010
20125TIP3    H181866   1.365   5.804   6.263  0.2887 -0.9358 -0.4356
20125TIP3    H281867   1.320   5.805   6.119  0.2008  0.4653 -0.4120
20126TIP3   OH281868   3.044   2.050   0.865 -0.2847 -0.5529 -0.5481
20126TIP3    H181869   2.973   2.015   0.813 -1.7985  1.0408  0.3476
20126TIP3    H281870   3.021   2.027   0.955  1.2038 -1.4394 -0.3614
20127TIP3   OH281871   5.567   2.355   4.364  0.3530  0.4068  0.9652
20127TIP3    H181872   5.522   2.383   4.444  0.2027  2.3537  0.2556
20127TIP3    H281873   5.542   2.420   4.298  0.9139 -0.8332 -0.5408
20128TIP3   OH281874   6.208   0.330   1.711 -0.2382  0.0498  0.0878
20128TIP3    H181875   6.150   0.339   1.634  0.4049 -1.7682 -0.6577
20128TIP3    H281876   6.286   0.287   1.677  0.2557 -0.3820  1.7017
20129TIP3   OH281877   3.473   0.078  14.052 -0.1215 -0.1268  0.1277
20129TIP3    H181878   3.429   0.026  14.119 -1.7732 -0.1327 -0.9278
20129TIP3    H281879   3.404   0.106  13.992  0.6990  3.0854  0.4727
20130TIP3   OH281880   0.391   3.580   1.122 -0.2081  0.2057 -0.0170
20130TIP3    H181881   0.438   3.568   1.040 -2.7606 -2.6808 -1.2470
20130TIP3    H281882   0.428   3.514   1.181  1.2858  1.9479  1.0752
20131TIP3   OH281883   1.268   4.985   2.874 -0.0299  0.0594 -0.1099
20131TIP3    H181884   1.203   5.044   2.912 -0.4930  0.1278 -0.9939
20131TIP3    H281885   1.273   4.912   2.936 -0.6983  0.2079  0.1308
20132TIP3   OH281886   6.565   6.425   1.525  0.0080 -0.5765 -0.3971
20132TIP3    H181887   6.519   6.347   1.494 -1.5652  0.0447  0.2645
20132TIP3    H281888   6.610   6.458   1.447 -1.8656 -0.4200 -1.4709
20133TIP3   OH281889   2.221   2.904  15.862  0.0698  0.4293  0.5410
20133TIP3    H181890   2.172   2.986  15.857 -1.0459 -0.2285  0.3148
20133TIP3    H281891   2.219   2.881  15.955  1.6847  1.3986  0.8495
20134TIP3   OH281892   4.051   0.217   4.865  0.2581 -0.6739  0.7135
20134TIP3    H181893   4.074   0.202   4.773 -1.8094  1.5324 -0.2673
20134TIP3    H281894   4.100   0.150   4.913  1.4315 -1.8890 -1.9648
20135TIP3   OH281895   5.493   0.056  11.983 -0.4309 -0.3367 -0.0233
20135TIP3    H181896   5.494  -0.006  11.909  1.4503 -0.9918  0.4914
20135TIP3    H281897   5.585   0.063  12.009 -0.7279  1.9173  0.6034
20136TIP3   OH281898   5.434   0.279   5.194  0.2104  0.1939 -0.1075
20136TIP3    H181899   5.520   0.239   5.210 -0.4736 -0.1162  3.6968
20136TIP3    H281900   5.371   0.212   5.220 -1.0230  1.9360  1.7437
20137TIP3   OH281901   6.597   6.126  15.653  0.1810  0.4483 -0.5540
20137TIP3    H181902   6.520   6.176  15.623 -0.4089 -0.5368 -0.7151
20137TIP3    H281903   6.564   6.074  15.726  1.4444  2.3367  1.4903
20138TIP3   OH281904   2.618   4.564  12.586 -0.0207  0.3706 -0.2993
20138TIP3    H181905   2.541   4.605  12.624  1.0418  1.7869  0.4227
20138TIP3    H281906   2.689   4.627  12.602  1.5486 -1.4370  0.2182
20139TIP3   OH281907   5.217   2.725  14.877 -0.2415 -0.8660 -0.3217
20139TIP3    H181908   5.261   2.752  14.958 -1.1043 -2.0295  0.5702
20139TIP3    H281909   5.221   2.629  14.879 -1.8546 -0.9704 -0.7472
20140TIP3   OH281910   6.183   5.834  15.349  0.0458 -0.3124 -0.2907
20140TIP3    H181911   6.125   5.757  15.358  0.0718 -0.1290  2.5962
20140TIP3    H281912   6.151   5.880  15.272 -0.9177 -2.4485 -1.2391
20141TIP3   OH281913   2.205   2.465   0.836 -0.6623  0.4807 -0.5670
20141TIP3    H181914   2.167   2.491   0.752 -0.4042 -0.8084 -1.1178
20141TIP3    H281915   2.283   2.415   0.812  0.9864  2.4066  0.5233
20142TIP3   OH281916   2.776   2.738   2.449  0.0269 -0.3511  0.5733
20142TIP3    H181917   2.746   2.797   2.518 -1.6926  0.1713 -0.5391
20142TIP3    H281918   2.747   2.781   2.368 -0.1526 -2.1235 -0.3401
20143TIP3   OH281919   6.216   4.811  17.024 -0.2181  0.5126  0.9309
20143TIP3    H181920   6.176   4.869  17.089 -1.4013 -1.5807  2.1516
20143TIP3    H281921   6.155   4.738  17.015  1.1299 -0.4993 -0.6877
20144TIP3   OH281922   0.231   3.730  15.888  0.1015 -0.3150  0.9789
20144TIP3    H181923   0.299   3.663  15.889 -0.7741 -1.2875 -0.4744
20144TIP3    H281924   0.252   3.787  15.962  2.9024 -0.1314  0.1462
20145TIP3   OH281925   5.849   1.987  12.110  0.0451  0.0489 -0.1080
20145TIP3    H181926   5.813   2.059  12.161  0.4592 -0.0735  0.3680
20145TIP3    H281927   5.812   1.908  12.150  1.7336 -0.1564  1.1736
20146TIP3   OH281928   3.318   6.056   2.254 -0.2483  0.5861 -0.2702
20146TIP3    H181929   3.326   5.990   2.323 -1.9039  0.1257 -0.4716
20146TIP3    H281930   3.311   6.006   2.173  1.8933  1.1324 -0.8551
20147TIP3   OH281931   2.080   5.702   0.342 -0.0891  0.0833 -0.2128
20147TIP3    H181932   2.159   5.649   0.342  0.4474  0.8541 -1.4636
20147TIP3    H281933   2.009   5.639   0.356  0.4976 -1.0304 -1.9693
20148TIP3   OH281934   5.699   2.751   2.629 -0.2712  0.2896  0.6636
20148TIP3    H181935   5.728   2.717   2.545 -0.2556  1.2480  0.2717
20148TIP3    H281936   5.701   2.675   2.688 -1.3819 -0.6563 -0.4620
20149TIP3   OH281937   5.586   3.037   4.455  0.1495  0.1684 -0.0851
20149TIP3    H181938   5.584   3.088   4.374 -0.1205  0.2233 -0.0450
20149TIP3    H281939   5.586   2.945   4.426  1.0645  0.1929 -0.1646
20150TIP3   OH281940   2.047   2.711   4.138  0.0162  0.1008 -0.7320
20150TIP3    H181941   2.064   2.693   4.231 -1.1043 -2.4921 -0.9450
20150TIP3    H281942   2.084   2.636   4.092 -0.7260  0.6401 -2.2608
20151TIP3   OH281943   6.625   2.327  13.278  0.3268  0.5127  0.1224
20151TIP3    H181944   6.717   2.308  13.258  0.4013 -1.0517  1.7180
20151TIP3    H281945   6.579   2.311  13.195  1.3378  0.0163 -0.3660
20152TIP3   OH281946   1.868   0.231  12.873 -0.7460 -0.3718  0.3499
20152TIP3    H181947   1.887   0.161  12.935  0.8555 -1.0137 -0.8061
20152TIP3    H281948   1.777   0.256  12.892 -0.4141 -0.7383  2.7216
20153TIP3   OH281949   2.629   3.302  12.343  0.1756 -0.2783 -0.1924
20153TIP3    H181950   2.671   3.316  12.428  0.2924 -1.3319 -0.0702
20153TIP3    H281951   2.555   3.362  12.343  1.7547  1.7787 -0.4846
20154TIP3   OH281952   0.242   4.047   4.486 -0.1607  0.4763 -0.4461
20154TIP3    H181953   0.308   4.114   4.472 -0.2379  0.3952 -1.2111
20154TIP3    H281954   0.161   4.095   4.501  0.1666  0.6029  1.2220
20155TIP3   OH281955   0.695   4.808   1.775  0.3544 -0.6624 -0.3156
20155TIP3    H181956   0.752   4.884   1.787  0.7175 -1.0041  0.1751
20155TIP3    H281957   0.620   4.824   1.832 -0.1661 -0.1013 -1.1384
20156TIP3   OH281958   4.687   1.444  16.000 -0.1100  0.2213 -0.3503
20156TIP3    H181959   4.624   1.481  15.938  0.2873  1.1431 -0.2154
20156TIP3    H281960   4.747   1.392  15.946 -0.0799  0.5881 -0.6750
20157TIP3   OH281961   2.065   1.272  14.334  0.7451  0.6199 -0.1918
20157TIP3    H181962   2.027   1.357  14.313 -0.2274 -0.2981 -2.5036
20157TIP3    H281963   2.003   1.232  14.396 -1.8069 -0.4724 -3.1934
20158TIP3   OH281964   5.916   1.310  14.838 -0.2401  0.2404 -0.3689
20158TIP3    H181965   5.889   1.247  14.905  1.3580  2.1495  2.2599
20158TIP3    H281966   5.846   1.308  14.774 -1.8079 -1.8332  1.2659
20159TIP3   OH281967   4.341   2.322   5.286  0.2958  0.3847  0.0295
20159TIP3    H181968   4.397   2.251   5.257 -1.9093 -1.2765 -0.4638
20159TIP3    H281969   4.332   2.378   5.209  1.4866  0.8484  0.2117
20160TIP3   OH281970   6.079   3.180   3.331 -0.0782 -0.6664 -0.4623
20160TIP3    H181971   6.047   3.263   3.298 -0.0054 -0.3027  0.3537
20160TIP3    H281972   6.086   3.124   3.254 -0.4190 -0.0139 -0.9722
20161TIP3   OH281973   0.609   0.951   5.308  0.4399  0.1768  0.1033
20161TIP3    H181974   0.656   1.033   5.327  0.6333  0.3058 -0.8465
20161TIP3    H281975   0.586   0.916   5.393  2.1008  0.2183  0.6097
20162TIP3   OH281976   3.594   5.581   5.559  0.3750 -0.2065 -0.2696
20162TIP3    H181977   3.504   5.590   5.592 -0.7004  0.6374 -3.1674
20162TIP3    H281978   3.646   5.563   5.638 -1.8792  1.9789  1.9226
20163TIP3   OH281979   4.958   2.001   1.065 -0.1946 -0.3132  0.5708
20163TIP3    H181980   5.003   2.062   1.124  1.2721 -2.5069  1.8324
20163TIP3    H281981   4.939   1.924   1.119 -2.1806 -0.9578 -0.9113
20164TIP3   OH281982   0.136   0.661  15.159  0.0692  0.2502  0.0145
20164TIP3    H181983   0.137   0.660  15.255  1.9575  0.7480  0.0229
20164TIP3    H281984   0.225   0.639  15.133 -0.1008  1.3075 -1.6111
20165TIP3   OH281985   3.548   6.276   4.565 -0.1843 -0.3467  0.2339
20165TIP3    H181986   3.492   6.276   4.643 -0.6385 -1.9609 -0.0437
20165TIP3    H281987   3.602   6.198   4.574  0.6219  0.1124 -0.4874
20166TIP3   OH281988   3.278   4.513   4.117 -0.2578 -0.1631 -0.3919
20166TIP3    H181989   3.267   4.565   4.197 -0.7175  0.6071 -0.9427
20166TIP3    H281990   3.345   4.449   4.139 -1.1269 -0.6596  0.9544
20167TIP3   OH281991   1.096   4.632   0.746  0.1513  0.3923 -0.2621
20167TIP3    H181992   1.129   4.573   0.678  2.0731 -0.5785  1.3933
20167TIP3    H281993   1.157   4.621   0.819 -0.4048  3.2196  0.7562
20168TIP3   OH281994   6.671   6.430   4.243 -0.1388 -0.1451  0.2066
20168TIP3    H181995   6.743   6.400   4.189 -0.8458  0.1733 -0.9353
20168TIP3    H281996   6.666   6.524   4.228 -1.4267 -0.3015 -0.5467
20169TIP3   OH281997   1.916   5.089  14.070  0.0516 -0.3226 -0.2197
20169TIP3    H181998   2.002   5.055  14.098  0.5517  0.6617 -0.5213
20169TIP3    H281999   1.883   5.021  14.011  1.4872  0.1215 -1.6136
20170TIP3   OH282000   0.819   5.756   1.878  0.3290 -0.6276  0.2302
20170TIP3    H182001   0.745   5.816   1.893  1.1621  0.5618 -0.3037
20170TIP3    H282002   0.813   5.734   1.785 -1.0967 -2.9660  0.7804
20171TIP3   OH282003   0.200   0.462   0.013 -0.4023 -0.5738 -0.2011
20171TIP3    H182004   0.268   0.433  -0.048  0.2648 -0.2040  0.3537
20171TIP3    H282005   0.159   0.381   0.044 -1.4231 -0.7496 -1.8555
20172TIP3   OH282006   0.254   2.017   5.958 -0.9638 -0.5617 -0.0454
20172TIP3    H182007   0.335   1.999   5.910 -0.5881 -2.7834  1.2567
20172TIP3    H282008   0.275   2.093   6.012  0.8611 -1.9879  1.3950
20173TIP3   OH282009   5.733   2.060  11.655  0.0890  0.3142 -0.2149
20173TIP3    H182010   5.799   2.067  11.724  0.3240  1.5242 -0.5342
20173TIP3    H282011   5.651   2.083  11.698 -0.1498 -1.1908  0.1825
20174TIP3   OH282012   2.442   6.418  16.371  0.8992 -0.6707 -0.3716
20174TIP3    H182013   2.357   6.398  16.330 -0.8133  0.8676  2.1741
20174TIP3    H282014   2.460   6.509  16.344 -0.7175  0.7167  2.7031
20175TIP3   OH282015   6.227   4.497   1.210  0.1446 -0.4815 -0.2163
20175TIP3    H182016   6.136   4.470   1.197 -0.4259  0.3197  1.7094
20175TIP3    H282017   6.267   4.426   1.260 -0.1878  0.2603  1.1760
20176TIP3   OH282018   6.153   4.486   5.488  0.2557 -0.0221  0.2071
20176TIP3    H182019   6.105   4.569   5.480 -1.9665 -1.1040  1.2281
20176TIP3    H282020   6.105   4.438   5.556  2.3075 -1.6031  0.6302
20177TIP3   OH282021   0.062   3.378   0.617 -0.1760 -0.3529  0.1243
20177TIP3    H182022  -0.022   3.401   0.576 -0.5467  0.1007  1.0928
20177TIP3    H282023   0.106   3.323   0.552 -0.9662 -0.1084 -0.6468
20178TIP3   OH282024   5.502   1.150  10.621 -0.4176  0.0689 -0.3208
20178TIP3    H182025   5.529   1.138  10.712  0.3093  0.5019 -0.4736
20178TIP3    H282026   5.435   1.218  10.625 -0.1321  0.3417 -0.1480
20179TIP3   OH282027   0.719   4.806   0.908  0.5769 -0.1422  0.1241
20179TIP3    H182028   0.731   4.897   0.935 -1.7791 -0.0069  0.9687
20179TIP3    H282029   0.786   4.757   0.955  0.3474  0.8721  1.5516
20180TIP3   OH282030   4.476   3.268  17.238  0.1541  0.4254  0.1703
20180TIP3    H182031   4.462   3.192  17.182  1.5667  0.2017  0.1023
20180TIP3    H282032   4.472   3.343  17.178 -1.4276  0.4564  0.2651
20181TIP3   OH282033   3.886   3.914  13.278 -0.5409  0.4160 -0.6417
20181TIP3    H182034   3.794   3.938  13.269 -0.5661  0.3695 -0.5143
20181TIP3    H282035   3.888   3.852  13.351 -0.0101  2.8282  1.5380
20182TIP3   OH282036   2.688   3.765   6.021  0.4662 -0.7849  0.2779
20182TIP3    H182037   2.650   3.682   6.051 -0.8620 -0.8431 -1.4152
20182TIP3    H282038   2.648   3.831   6.078  0.3420 -1.1511  0.6220
20183TIP3   OH282039   3.266   6.449  13.571 -0.1703 -0.3575 -0.0978
20183TIP3    H182040   3.214   6.529  13.572 -0.7760 -0.7256  1.6113
20183TIP3    H282041   3.202   6.378  13.578  0.4532 -0.9047  0.2229
20184TIP3   OH282042   1.832   3.385  12.586  0.2889 -0.9984  0.6482
20184TIP3    H182043   1.835   3.371  12.680  1.1208 -0.2365  0.7530
20184TIP3    H282044   1.845   3.479  12.576  1.2887 -1.2165 -0.2654
20185TIP3   OH282045   4.667   4.356  11.315  0.0822 -0.2857 -0.2300
20185TIP3    H182046   4.670   4.378  11.222  1.9806 -0.0868 -0.1596
20185TIP3    H282047   4.740   4.295  11.327  0.6902  0.7124  1.3712
20186TIP3   OH282048   4.140   6.572   4.044 -0.0869 -0.6998  0.8283
20186TIP3    H182049   4.120   6.641   4.107  0.4514  0.0721  0.1706
20186TIP3    H282050   4.232   6.549   4.062 -0.0190 -0.6754  0.5229
20187TIP3   OH282051   0.729   3.808   5.411 -0.2753 -0.3226 -0.2881
20187TIP3    H182052   0.660   3.797   5.477 -0.4858  2.3808  0.0782
20187TIP3    H282053   0.682   3.822   5.329 -0.0842 -1.1241 -0.5359
20188TIP3   OH282054   2.230   5.762   2.258 -0.5521 -0.0410 -0.2879
20188TIP3    H182055   2.153   5.786   2.310 -0.0516 -0.3035  0.6002
20188TIP3    H282056   2.227   5.667   2.255 -0.5794 -0.0264 -0.7557
20189TIP3   OH282057   0.428   0.797  13.337  0.8178  0.1059  0.6825
20189TIP3    H182058   0.377   0.809  13.417 -0.6504 -1.5632  0.0620
20189TIP3    H282059   0.519   0.814  13.363  0.1995  1.0953  2.3141
20190TIP3   OH282060   5.047   1.574  15.353 -0.4321 -0.7012  1.0796
20190TIP3    H182061   4.959   1.608  15.335 -0.0181  0.4082  1.0454
20190TIP3    H282062   5.047   1.486  15.315 -1.8613 -1.1434  2.0040
20191TIP3   OH282063   1.199   4.597  15.008 -0.0122  0.0559 -0.5156
20191TIP3    H182064   1.186   4.522  14.950 -0.6922  0.6054 -1.0942
20191TIP3    H282065   1.229   4.667  14.950 -0.9572  0.6891 -0.2641
20192TIP3   OH282066   5.997   0.882   4.232 -0.0104 -0.0300 -0.4606
20192TIP3    H182067   5.976   0.798   4.273 -2.0939  0.4460 -0.4343
20192TIP3    H282068   6.070   0.916   4.284  0.5378 -1.5604 -0.1499
20193TIP3   OH282069   4.836   5.530  13.213 -0.0465  0.5559  0.2680
20193TIP3    H182070   4.837   5.575  13.297  1.0562  1.7068 -0.3252
20193TIP3    H282071   4.817   5.438  13.235  0.6472  0.7496  1.8136
20194TIP3   OH282072   3.122   4.613   3.252 -0.7083 -0.2065 -0.3746
20194TIP3    H182073   3.156   4.529   3.222 -3.3507 -1.5735  0.1279
20194TIP3    H282074   3.059   4.638   3.185 -0.1981  1.2407 -0.3420
20195TIP3   OH282075   6.365   0.429   3.430 -0.2202 -0.3952  0.3281
20195TIP3    H182076   6.405   0.490   3.492 -0.4004 -0.9223  0.9794
20195TIP3    H282077   6.360   0.478   3.348  0.9128 -0.0183  0.4662
20196TIP3   OH282078   5.899   4.407   2.195 -0.4526  0.7236 -0.2232
20196TIP3    H182079   5.825   4.467   2.187 -0.9592  0.0644 -0.6017
20196TIP3    H282080   5.975   4.459   2.168 -0.5476  1.8268  1.4734
20197TIP3   OH282081   2.276   3.593   6.069 -0.1777  0.6438  0.0984
20197TIP3    H182082   2.220   3.526   6.109 -1.2406  0.0511 -2.1716
20197TIP3    H282083   2.218   3.669   6.059 -0.6187  0.1100 -2.0359
20198TIP3   OH282084   4.935   5.901   0.755  0.1541 -0.3044 -0.6583
20198TIP3    H182085   5.006   5.843   0.785  0.5083 -0.7838 -2.3232
20198TIP3    H282086   4.859   5.843   0.748 -0.4146  0.1875  1.0178
20199TIP3   OH282087   1.346   0.289  10.777  0.2243  0.2922  0.2893
20199TIP3    H182088   1.412   0.239  10.729 -1.0629 -0.2012 -1.0353
20199TIP3    H282089   1.269   0.286  10.721 -0.4730  2.1450  1.0900
20200TIP3   OH282090   0.448   2.423   0.129  0.1458 -0.3230  0.2245
20200TIP3    H182091   0.481   2.429   0.219  2.5972 -2.4147 -0.4236
20200TIP3    H282092   0.526   2.411   0.075 -1.3477 -0.4084 -2.0717
20201TIP3   OH282093   0.054   5.637   4.937  1.0190  0.2296 -0.1963
20201TIP3    H182094  -0.001   5.585   4.996  2.7076 -0.8540  0.4779
20201TIP3    H282095   0.008   5.721   4.931 -0.5577 -0.5229  0.5508
20202TIP3   OH282096   4.178   6.334  16.069  0.2080 -0.6386 -0.5562
20202TIP3    H182097   4.267   6.364  16.082  0.0664  0.3417 -1.7091
20202TIP3    H282098   4.168   6.326  15.974 -1.0101 -0.4728 -0.4614
20203TIP3   OH282099   6.619   6.023   0.973 -0.1101 -0.3217  0.8761
20203TIP3    H182100   6.698   5.998   1.020 -0.4908 -0.6084  1.3719
20203TIP3    H282101   6.569   5.942   0.966  0.8931 -0.7924 -1.9617
20204TIP3   OH282102   0.680   5.850   4.115  0.1312  0.1196  0.3649
20204TIP3    H182103   0.684   5.893   4.029  1.3859 -0.5229  0.0784
20204TIP3    H282104   0.719   5.913   4.175 -0.8480  0.6148  0.4914
20205TIP3   OH282105   3.326   5.543  14.773 -0.1141 -0.1484  0.3210
20205TIP3    H182106   3.301   5.616  14.716 -2.2609 -2.0945 -1.4304
20205TIP3    H282107   3.281   5.561  14.855 -1.7389 -0.0897 -0.5291
20206TIP3   OH282108   6.711   5.578  13.775 -0.0309 -0.6252 -0.4589
20206TIP3    H182109   6.746   5.488  13.771  0.9603 -0.1973 -2.2783
20206TIP3    H282110   6.654   5.585  13.699 -0.9940 -0.0351  0.2996
20207TIP3   OH282111   1.448   5.691  17.514 -0.2353 -0.0683  0.4273
20207TIP3    H182112   1.496   5.680  17.432 -0.5209 -0.0207  0.2517
20207TIP3    H282113   1.374   5.747  17.491  0.7826  1.6579  1.1412
20208TIP3   OH282114   0.330   6.101   3.099 -1.2631  0.4809 -0.1739
20208TIP3    H182115   0.305   6.032   3.038  0.4502  0.0788 -0.4709
20208TIP3    H282116   0.249   6.120   3.147 -2.4692  0.2947 -2.0226
20209TIP3   OH282117   6.222   5.611  13.511  0.0049  0.5087  0.1001
20209TIP3    H182118   6.197   5.666  13.438  0.7619 -0.1212 -0.6506
20209TIP3    H282119   6.227   5.671  13.586  1.4007  1.5947 -0.8084
20210TIP3   OH282120   0.494   1.036   1.431 -0.0205 -0.1602  0.1027
20210TIP3    H182121   0.460   1.105   1.374  0.0071  0.0124  0.2936
20210TIP3    H282122   0.589   1.045   1.426 -0.0214  0.0309  0.3862
20211TIP3   OH282123   0.893   0.465   1.327  0.0584 -0.3911  0.2106
20211TIP3    H182124   0.849   0.380   1.329 -0.0179 -0.3430  1.4438
20211TIP3    H282125   0.851   0.515   1.398 -0.6848  1.0736 -1.1977
20212TIP3   OH282126   0.056   4.853  13.470 -0.3619  0.5276  0.0041
20212TIP3    H182127   0.034   4.938  13.432  0.1852  0.2481 -0.9953
20212TIP3    H282128   0.116   4.873  13.541 -0.4428  0.9919 -0.0542
20213TIP3   OH282129   5.989   0.705   1.113 -0.3339 -0.5124 -0.4199
20213TIP3    H182130   5.973   0.786   1.162 -0.6604  0.0417 -1.4042
20213TIP3    H282131   5.997   0.638   1.180 -1.9201  0.0223  0.3578
20214TIP3   OH282132   0.863   2.630  15.471 -0.3951 -0.0768  0.5342
20214TIP3    H182133   0.937   2.688  15.455 -0.0592  0.1130  2.5031
20214TIP3    H282134   0.904   2.548  15.501 -0.9486  0.0091  1.5633
20215TIP3   OH282135   2.134   2.738  17.236  0.4908  0.6211 -0.2841
20215TIP3    H182136   2.181   2.660  17.266 -2.1653 -1.0980 -0.2444
20215TIP3    H282137   2.105   2.716  17.147  0.7992  2.1292 -0.7905
20216TIP3   OH282138   6.126   0.123   7.020 -0.8074  0.4836 -0.2164
20216TIP3    H182139   6.036   0.113   6.991 -0.8830 -0.2340  0.2298
20216TIP3    H282140   6.163   0.192   6.964 -1.8420  1.3153  0.1072
20217TIP3   OH282141   3.509   4.696   3.610 -0.0467  0.1014 -0.2689
20217TIP3    H182142   3.505   4.615   3.661  1.5502  0.5877  0.7200
20217TIP3    H282143   3.420   4.711   3.580 -0.6405 -1.2718  0.7232
20218TIP3   OH282144   5.232   5.124  16.672 -0.0420 -0.1791  0.2293
20218TIP3    H182145   5.292   5.110  16.599 -1.4218  0.8052 -1.1620
20218TIP3    H282146   5.260   5.207  16.710 -0.8526  0.6157 -0.8283
20219TIP3   OH282147   0.790   1.655   1.278 -0.0091 -0.4984 -0.3107
20219TIP3    H182148   0.698   1.669   1.258  0.2166 -1.5484 -2.3730
20219TIP3    H282149   0.801   1.560   1.277  1.1330 -0.3830 -0.3919
20220TIP3   OH282150   2.041   6.610   4.277  0.2636  0.1930 -0.3404
20220TIP3    H182151   2.118   6.663   4.260  0.4780  0.5655  1.6098
20220TIP3    H282152   1.992   6.658   4.343 -1.6036 -0.1017 -1.4369
20221TIP3   OH282153   5.735   5.040   2.304  0.4068  0.2043 -0.1480
20221TIP3    H182154   5.689   5.099   2.245  1.5658  0.9259 -0.3513
20221TIP3    H282155   5.796   5.096   2.352  1.3459 -0.7745 -0.1552
20222TIP3   OH282156   0.958   3.671   1.871 -0.2953 -0.9181  0.2070
20222TIP3    H182157   1.024   3.719   1.921 -2.9564  1.6432  1.6073
20222TIP3    H282158   0.909   3.621   1.937 -0.3536 -2.0458 -0.6617
20223TIP3   OH282159   0.922   1.939  12.386 -0.3979 -0.2485 -0.3698
20223TIP3    H182160   0.931   1.970  12.296 -1.7323  2.4545  0.3208
20223TIP3    H282161   0.830   1.913  12.393 -0.4543  0.1206  0.3538
20224TIP3   OH282162   0.268   5.834  17.205 -0.1677  0.3890  0.0189
20224TIP3    H182163   0.181   5.859  17.173 -0.8787  1.1856  2.3734
20224TIP3    H282164   0.326   5.901  17.169 -0.3856 -0.4367 -2.0025
20225TIP3   OH282165   4.153   1.592  16.351 -0.3466  0.2696  0.6236
20225TIP3    H182166   4.134   1.659  16.286 -1.0977  0.0043  0.5588
20225TIP3    H282167   4.168   1.512  16.300 -1.7084 -0.1162  0.7917
20226TIP3   OH282168   0.381   3.851  10.855 -0.3507 -0.3937  0.0832
20226TIP3    H182169   0.402   3.942  10.878 -0.6080 -0.3239  0.0410
20226TIP3    H282170   0.467   3.808  10.849 -0.2656 -0.3772  1.0118
20227TIP3   OH282171   4.316   0.305  16.061 -0.2392  0.3554  0.2763
20227TIP3    H182172   4.326   0.243  15.989 -0.4352  0.9859 -0.2957
20227TIP3    H282173   4.384   0.371  16.046  0.1188  0.1717  1.0114
20228TIP3   OH282174   0.659   1.652  15.363 -0.2114 -0.1783  0.0573
20228TIP3    H182175   0.723   1.614  15.303  1.3461 -0.9365  2.1015
20228TIP3    H282176   0.574   1.625  15.327  0.5978 -0.1936 -2.0272
20229TIP3   OH282177   0.597   6.218  11.853 -0.1960  0.1826  0.0434
20229TIP3    H182178   0.598   6.183  11.764  0.6546  1.5185 -0.5035
20229TIP3    H282179   0.553   6.151  11.904 -1.1452 -0.4134 -1.4687
20230TIP3   OH282180   0.808   2.777  16.891  0.3289  0.4976  0.0362
20230TIP3    H182181   0.813   2.829  16.971 -1.5727  0.2574  0.3581
20230TIP3    H282182   0.717   2.785  16.863  0.3169 -1.5776 -0.6494
20231TIP3   OH282183   1.321   3.480   1.055  0.1868  0.2311  0.6522
20231TIP3    H182184   1.338   3.499   1.147  0.6422  0.5084  0.5168
20231TIP3    H282185   1.354   3.392   1.042 -0.6722 -0.1438  0.9572
20232TIP3   OH282186   4.542   2.221  14.342 -0.0657  0.3721  0.2182
20232TIP3    H182187   4.479   2.158  14.306  0.3439 -0.1525  0.4082
20232TIP3    H282188   4.610   2.167  14.381 -0.3149  0.9242  1.4736
20233TIP3   OH282189   1.635   1.022  14.588 -0.0940 -0.6205 -0.1035
20233TIP3    H182190   1.587   0.947  14.622 -2.6864  1.3570  0.9371
20233TIP3    H282191   1.571   1.093  14.588  1.4211  0.9765 -3.6901
20234TIP3   OH282192   0.349   6.516   7.101 -0.1675 -0.0900 -0.3205
20234TIP3    H182193   0.404   6.569   7.043  0.9238 -2.9255 -2.1229
20234TIP3    H282194   0.260   6.544   7.082  0.3780  1.5195 -0.6772
20235TIP3   OH282195   5.874   3.954   3.596 -0.3152  0.3993 -0.8845
20235TIP3    H182196   5.877   3.921   3.686  1.2529 -0.7485 -1.3248
20235TIP3    H282197   5.796   4.010   3.594 -1.8029 -1.5058  0.4972
20236TIP3   OH282198   3.195   5.180   2.779 -0.0886 -0.2151 -0.1659
20236TIP3    H182199   3.273   5.236   2.775 -0.5340  0.4693  0.4531
20236TIP3    H282200   3.195   5.146   2.869  0.7825 -2.1219 -0.8382
20237TIP3   OH282201   0.190   3.318  13.877 -0.0642  0.8305  0.0426
20237TIP3    H182202   0.118   3.361  13.830 -0.4387  0.1994  0.0313
20237TIP3    H282203   0.149   3.243  13.919  0.8063 -0.1826 -0.8747
20238TIP3   OH282204   3.932   3.728  14.421  0.0689 -0.3171 -0.2361
20238TIP3    H182205   3.876   3.680  14.359  0.3391  0.4909 -1.1491
20238TIP3    H282206   3.873   3.751  14.493 -0.4234 -0.7042 -0.5074
20239TIP3   OH282207   2.985   5.880   2.029 -0.0471  0.3296 -0.1365
20239TIP3    H182208   3.001   5.911   2.118  0.8093 -1.2137  0.2793
20239TIP3    H282209   3.040   5.935   1.974  0.4981  0.3803  0.4471
20240TIP3   OH282210   6.643   1.513  15.073 -0.5462 -0.1600 -0.0248
20240TIP3    H182211   6.560   1.545  15.036 -1.5046 -1.4784  0.8858
20240TIP3    H282212   6.695   1.488  14.996  0.6575  4.2221 -0.8793
20241TIP3   OH282213   3.892   3.345   2.618 -0.5074  0.3343  0.4489
20241TIP3    H182214   3.942   3.406   2.564 -0.5089  0.6335  0.7868
20241TIP3    H282215   3.945   3.333   2.697 -0.2475 -0.5159  0.1547
20242TIP3   OH282216   0.760   0.105  15.440  0.2117  0.0979 -0.2233
20242TIP3    H182217   0.682   0.074  15.392  0.9312 -1.1908 -0.6194
20242TIP3    H282218   0.779   0.035  15.502  2.7024 -1.0112 -2.0699
20243TIP3   OH282219   1.528   2.218  15.233 -0.3556 -0.5258 -0.7374
20243TIP3    H182220   1.566   2.259  15.156 -0.4352  2.7299  0.7938
20243TIP3    H282221   1.433   2.227  15.221 -0.3627  0.4916 -0.0920
20244TIP3   OH282222   4.133   5.272   1.308 -0.0645 -0.2559  0.8065
20244TIP3    H182223   4.127   5.292   1.215 -2.0531 -1.5621  0.5914
20244TIP3    H282224   4.046   5.290   1.342  0.0235 -1.8235  1.9680
20245TIP3   OH282225   1.847   3.074   2.561 -0.1773  0.2188 -0.1643
20245TIP3    H182226   1.861   2.998   2.618 -0.5874 -0.4493 -0.9281
20245TIP3    H282227   1.929   3.122   2.564  0.2433 -0.4900 -0.0030
20246TIP3   OH282228   1.526   2.111  13.605  0.2832  0.4171 -0.2618
20246TIP3    H182229   1.553   2.130  13.516 -2.6599  0.8537 -1.1482
20246TIP3    H282230   1.493   2.021  13.601  1.3314 -0.0335  0.7203
20247TIP3   OH282231   6.367   0.592  16.058 -0.5512  0.3564  0.7658
20247TIP3    H182232   6.323   0.601  16.143 -0.0202  0.4524  1.0340
20247TIP3    H282233   6.347   0.502  16.031  0.0816 -0.0093  1.4620
20248TIP3   OH282234   3.015   4.705   6.196  0.2620  0.0775  0.3302
20248TIP3    H182235   3.073   4.653   6.251  0.6280 -0.3448 -0.4327
20248TIP3    H282236   2.933   4.655   6.194  0.2027  0.1663  0.6119
20249TIP3   OH282237   5.182   3.332   2.880  0.2514  0.1881 -0.8732
20249TIP3    H182238   5.262   3.313   2.930  0.6554  0.7854 -1.2757
20249TIP3    H282239   5.167   3.254   2.827  0.6707  0.1426 -0.9254
20250TIP3   OH282240   3.213   6.534   6.483 -0.4037  0.2393 -0.2194
20250TIP3    H182241   3.124   6.522   6.517  0.1985  1.1958  1.8238
20250TIP3    H282242   3.255   6.448   6.494 -0.7207  0.0944 -0.1260
20251TIP3   OH282243   6.728   2.581   3.477 -0.3850 -0.1260 -0.5191
20251TIP3    H182244   6.745   2.526   3.401 -0.7736  1.1999 -1.6131
20251TIP3    H282245   6.806   2.635   3.486 -0.0222 -0.8002  0.5153
20252TIP3   OH282246   0.638   3.021  14.672  0.9136  0.1425  0.0511
20252TIP3    H182247   0.590   3.063  14.744  0.1707 -0.5702 -0.0089
20252TIP3    H282248   0.724   3.062  14.673  0.1510  1.8371 -0.1438
20253TIP3   OH282249   3.936   1.818   5.082 -0.2278 -0.4267 -0.3525
20253TIP3    H182250   3.852   1.802   5.125 -0.0476  1.3550  0.8045
20253TIP3    H282251   3.995   1.752   5.118 -0.5735 -0.1871  0.6876
20254TIP3   OH282252   2.945   1.785  12.778  0.5975  0.0470  0.6931
20254TIP3    H182253   3.014   1.842  12.812  0.6713 -0.4164  1.3200
20254TIP3    H282254   2.883   1.846  12.737  0.2014  0.6881  2.1570
20255TIP3   OH282255   2.365   0.582   4.372  0.7291 -0.2583 -0.5148
20255TIP3    H182256   2.402   0.528   4.442  1.8058 -0.3580 -1.1310
20255TIP3    H282257   2.344   0.665   4.414 -0.4730 -0.9698  0.3356
20256TIP3   OH282258   6.621   2.346  14.782 -0.2530 -0.3646 -0.3934
20256TIP3    H182259   6.635   2.406  14.856 -1.5712 -0.2094 -0.2537
20256TIP3    H282260   6.575   2.271  14.821  1.5400 -1.6118 -0.5212
20257TIP3   OH282261   2.416   5.891  11.522 -0.0773 -0.8706  0.7031
20257TIP3    H182262   2.354   5.857  11.458  1.6374 -2.5200 -0.1631
20257TIP3    H282263   2.431   5.982  11.495 -1.3965 -0.7058  0.4214
20258TIP3   OH282264   2.052   0.714   1.919  0.0393 -0.5067  0.7110
20258TIP3    H182265   1.966   0.740   1.951 -1.1991 -1.3242 -1.7064
20258TIP3    H282266   2.071   0.632   1.966 -0.2586 -0.0854  1.5910
20259TIP3   OH282267   4.899   2.634  12.268 -0.0863  0.6427  0.0794
20259TIP3    H182268   4.910   2.553  12.219  0.5697 -0.0715  1.3580
20259TIP3    H282269   4.880   2.700  12.201  3.3201  0.2419 -1.4987
20260TIP3   OH282270   5.376   3.871  16.675 -0.6557  0.4439  0.3468
20260TIP3    H182271   5.379   3.961  16.707  0.3055  0.5420  0.0308
20260TIP3    H282272   5.458   3.832  16.705 -2.1510 -1.1284  2.6584
20261TIP3   OH282273   1.541   4.042   0.598 -0.1097 -0.2459  0.2366
20261TIP3    H182274   1.528   3.954   0.562 -0.7840  0.3796 -1.1569
20261TIP3    H282275   1.506   4.038   0.686 -1.0306 -1.1345 -0.1490
20262TIP3   OH282276   1.719   4.904  13.243  0.0928 -0.2363 -0.0009
20262TIP3    H182277   1.710   4.809  13.237  1.1430 -0.4039  0.8318
20262TIP3    H282278   1.734   4.921  13.336  2.9566  0.4265 -0.4947
20263TIP3   OH282279   6.232   2.417  14.308 -0.1303 -0.4201  0.2825
20263TIP3    H182280   6.247   2.512  14.309  0.7981 -0.5523 -0.0521
20263TIP3    H282281   6.290   2.384  14.239 -0.0115 -1.2922  0.7833
20264TIP3   OH282282   4.873   3.231   5.645 -0.4435 -0.2572 -0.4887
20264TIP3    H182283   4.799   3.286   5.670 -0.1904 -0.3739  0.5608
20264TIP3    H282284   4.937   3.292   5.609 -0.6909 -0.0410 -0.5629
20265TIP3   OH282285   1.626   4.413  11.192 -0.0107  0.0878  0.5305
20265TIP3    H182286   1.656   4.427  11.102 -0.0605 -0.5655  0.4077
20265TIP3    H282287   1.544   4.365  11.182  0.8958 -1.6347  0.9524
20266TIP3   OH282288   0.371   2.201  11.587  0.2451 -0.4216 -0.2191
20266TIP3    H182289   0.391   2.173  11.676  1.3227 -2.6093 -1.0829
20266TIP3    H282290   0.434   2.271  11.569  0.3746 -0.3371  0.5368
20267TIP3   OH282291   4.925   4.122   5.730 -0.0519  0.1372 -0.0663
20267TIP3    H182292   4.996   4.099   5.791 -0.3335 -0.3089  0.0993
20267TIP3    H282293   4.846   4.119   5.783 -0.0546  2.0569  0.0890
20268TIP3   OH282294   3.325   5.132   4.876  0.1453 -0.2437 -0.6004
20268TIP3    H182295   3.257   5.092   4.822 -1.2268  0.8086  0.2715
20268TIP3    H282296   3.313   5.226   4.863  1.0451 -0.0185  0.0659
20269TIP3   OH282297   6.515   0.097  11.223  0.4791  0.2678 -0.2905
20269TIP3    H182298   6.501   0.173  11.279 -1.6449  0.7756 -1.4142
20269TIP3    H282299   6.554   0.133  11.143  1.1597 -0.1087 -0.1402
20270TIP3   OH282300   1.442   0.688  17.186 -0.5984  0.0751 -0.2228
20270TIP3    H182301   1.475   0.672  17.275 -1.4563  0.7244  0.2350
20270TIP3    H282302   1.512   0.737  17.143 -0.0665 -0.4692  0.0010
20271TIP3   OH282303   2.142   2.065   1.073  0.3601  0.2725 -0.3742
20271TIP3    H182304   2.125   2.150   1.034  0.1160  0.6574  0.5375
20271TIP3    H282305   2.104   2.002   1.012 -0.8131  0.9042 -0.3338
20272TIP3   OH282306   0.578   6.200   6.723 -0.1750 -0.1907  0.4508
20272TIP3    H182307   0.500   6.199   6.778  0.6096  0.1764  1.6099
20272TIP3    H282308   0.614   6.288   6.734  0.5678 -0.4544  0.1995
20273TIP3   OH282309   3.489   4.546   5.064  0.4401  0.2106 -0.7364
20273TIP3    H182310   3.466   4.588   4.981  0.7247  3.1236  0.5459
20273TIP3    H282311   3.408   4.550   5.115  1.2541  2.1770  0.5116
20274TIP3   OH282312   5.143   6.402  14.974 -0.2033  0.1187  0.3606
20274TIP3    H182313   5.082   6.406  15.047 -1.7156 -1.2466 -0.7614
20274TIP3    H282314   5.087   6.402  14.896  1.2648 -0.2178 -0.7321
20275TIP3   OH282315   3.800   5.232  16.171  0.1820 -0.5830 -0.1596
20275TIP3    H182316   3.831   5.233  16.080  0.0327 -2.1629 -0.2517
20275TIP3    H282317   3.875   5.202  16.222  1.1431  2.8142  0.6701
20276LIG     O182318   2.577   2.441   1.097 -0.0910  0.1197  0.1380
20276LIG     O282319   2.770   2.041   1.224  0.3052 -0.2183  0.4384
20276LIG     N182320   2.573   2.091   1.319  0.2182 -0.6572 -0.4197
20276LIG     N282321   2.358   2.370   1.309  0.7693  0.2549 -0.7082
20276LIG     N382322   2.682   2.247   1.160  0.0811  0.1891 -0.1347
20276LIG     N482323   2.359   2.173   1.405 -0.2676 -0.2141  0.1711
20276LIG     C182324   2.472   2.306   1.260  0.1261  0.0146  0.4275
20276LIG     C282325   2.470   2.184   1.327  0.3638  0.5108 -1.0528
20276LIG     C382326   2.577   2.343   1.171 -0.0050 -0.4566  0.6245
20276LIG     C482327   2.683   2.125   1.236  0.1116  0.5421  0.0891
20276LIG     C582328   2.291   2.283   1.390  0.4785 -0.0751 -1.0837
20276LIG     C682329   2.581   1.967   1.400 -0.5082  0.3299  0.1829
20276LIG     C782330   2.316   2.505   1.278 -0.2044 -0.4638 -0.1779
20276LIG     C882331   2.785   2.265   1.054  0.1916 -0.0779 -0.2621
20276LIG     H182332   2.191   2.297   1.432  0.2685 -1.5017 -1.0652
20276LIG     H282333   2.496   1.962   1.471 -1.6017  0.5077 -1.0843
20276LIG     H382334   2.680   1.971   1.451 -0.5542 -0.4221  0.3345
20276LIG     H482335   2.589   1.877   1.336 -1.9311 -0.7594  1.4605
20276LIG     H582336   2.229   2.527   1.343 -1.1239 -0.3621 -1.4181
20276LIG     H682337   2.294   2.520   1.170  0.4624  1.8246 -0.0396
20276LIG     H782338   2.394   2.580   1.303 -0.5665  0.4803 -1.7685
20276LIG     H882339   2.879   2.210   1.072  0.5822  0.4887 -0.5486
20276LIG     H982340   2.814   2.370   1.032 -1.4938  0.1915 -1.4611
20276LIG    H1082341   2.760   2.223   0.954  1.1094 -1.3467  0.0312
   6.77294   6.77294  17.52555
