Title
42775
    1SAPS     N    1   4.057   5.312   7.680 -0.0818 -0.2483  0.3051
    1SAPS   HN1    2   4.046   5.402   7.731  1.6596 -1.0665  2.3507
    1SAPS   HN2    3   4.081   5.331   7.581 -4.0313  0.5741 -0.6312
    1SAPS   HN3    4   3.971   5.254   7.687 -0.8432  0.8412  0.1876
    1SAPS   C12    5   4.178   5.258   7.742  0.2736  0.3671  0.2234
    1SAPS  H12A    6   4.259   5.329   7.739  1.0115 -0.4470  0.6408
    1SAPS   C13    7   4.167   5.237   7.889  0.1568 -1.2168 -0.4752
    1SAPS  O13A    8   4.065   5.266   7.956 -0.5287  0.2674  0.4082
    1SAPS  O13B    9   4.274   5.198   7.941 -0.4482 -0.2002 -0.0116
    1SAPS   C11   10   4.220   5.120   7.671 -0.7102  0.3049  0.5552
    1SAPS  H11A   11   4.141   5.043   7.683 -1.1165  0.0790 -2.6754
    1SAPS  H11B   12   4.310   5.082   7.725 -0.5458  1.3259  1.0258
    1SAPS     P   13   4.376   5.185   7.486  0.2749  0.5359 -0.1458
    1SAPS   O13   14   4.395   5.325   7.526  0.1170  0.0137  0.4155
    1SAPS   O14   15   4.478   5.092   7.542  0.1192 -0.4089  0.5297
    1SAPS   O12   16   4.236   5.127   7.529  1.0189  0.8775 -0.0573
    1SAPS   O11   17   4.371   5.180   7.326  0.5221 -0.6269 -0.2393
    1SAPS    C1   18   4.266   5.108   7.254 -0.3735 -0.5901  0.2670
    1SAPS    HA   19   4.277   4.999   7.273 -1.0676 -0.3822  2.0673
    1SAPS    HB   20   4.165   5.136   7.290 -0.8574 -1.8761 -0.0431
    1SAPS    C2   21   4.292   5.109   7.098 -0.1774  0.4163 -1.4481
    1SAPS    HS   22   4.231   5.028   7.055  2.4592 -2.1370 -0.7201
    1SAPS   O21   23   4.436   5.093   7.070 -0.4917  0.2822 -0.3029
    1SAPS   C21   24   4.482   4.967   7.089  0.6297 -0.5545  0.0768
    1SAPS   O22   25   4.415   4.870   7.121 -0.2987  0.1561 -0.1470
    1SAPS   C22   26   4.635   4.965   7.078 -0.4322  0.2466  0.2314
    1SAPS   H2R   27   4.659   5.073   7.072 -0.5172  0.2435 -0.1940
    1SAPS   H2S   28   4.683   4.916   7.165 -0.0437 -0.3323 -0.3011
    1SAPS    C3   29   4.225   5.232   7.030 -0.5091 -0.4381  0.0099
    1SAPS    HX   30   4.285   5.318   7.066 -0.3496 -1.2164  1.6937
    1SAPS    HY   31   4.126   5.257   7.074 -0.2040 -0.3700  0.6759
    1SAPS   O31   32   4.205   5.227   6.882 -0.5072  0.2674  0.1904
    1SAPS   C31   33   4.296   5.293   6.817 -0.1289  0.2020 -0.5692
    1SAPS   O32   34   4.407   5.320   6.863 -0.0570  0.5539  0.1299
    1SAPS   C32   35   4.251   5.331   6.680  0.3917 -0.6410 -0.4119
    1SAPS   H2X   36   4.239   5.442   6.678 -1.6218 -0.7044  2.3348
    1SAPS   H2Y   37   4.152   5.289   6.654 -0.5858  3.1327 -3.8404
    1SAPS   C23   38   4.686   4.907   6.941  0.1478  0.1799 -0.2445
    1SAPS   H3R   39   4.633   4.814   6.912 -1.3194  1.4525 -1.8442
    1SAPS   H3S   40   4.794   4.885   6.952  0.3893  0.7204 -1.4406
    1SAPS   C24   41   4.679   5.010   6.830 -0.2749  0.1907 -0.2667
    1SAPS   H4R   42   4.764   4.977   6.768  0.4546 -1.0012  1.2887
    1SAPS   H4S   43   4.708   5.105   6.881 -0.8339 -0.2204  0.8376
    1SAPS   C25   44   4.549   5.018   6.757 -0.2540  0.0471 -0.0575
    1SAPS   H5R   45   4.478   5.085   6.807 -0.4898  0.2681 -0.6878
    1SAPS   C26   46   4.520   4.961   6.636  0.0924  0.2114 -0.0164
    1SAPS   H6R   47   4.414   4.976   6.612  0.3026 -0.5960 -1.5765
    1SAPS   C27   48   4.614   4.884   6.551 -0.1472  0.8866  0.2816
    1SAPS   H7R   49   4.682   4.829   6.619 -0.6999 -0.8961 -0.5484
    1SAPS   H7S   50   4.682   4.956   6.501  1.2817  0.6653  1.8356
    1SAPS   C28   51   4.541   4.787   6.465 -0.0947  0.2347 -0.1664
    1SAPS   H8R   52   4.552   4.680   6.485  1.5926  0.2157 -1.0359
    1SAPS   C29   53   4.487   4.823   6.350 -0.5364 -0.7027 -0.6727
    1SAPS   H9R   54   4.447   4.745   6.283 -0.3225 -0.5685 -0.9607
    1SAPS  C210   55   4.496   4.947   6.267  0.8858 -0.2061 -0.0750
    1SAPS  H10R   56   4.461   5.028   6.335 -1.1633 -1.2605  0.2172
    1SAPS  H10S   57   4.416   4.942   6.190  0.4274  2.3575  0.1574
    1SAPS  C211   58   4.630   4.975   6.201 -0.6023  0.0638  1.1002
    1SAPS  H11R   59   4.719   4.949   6.260  0.3533 -5.3391 -2.1416
    1SAPS  C212   60   4.666   5.046   6.086  0.1252  0.1042  0.3638
    1SAPS  H12R   61   4.770   5.077   6.069 -0.0429 -0.4261 -2.0085
    1SAPS  C213   62   4.559   5.108   5.990 -0.0850 -0.3426 -0.4314
    1SAPS  H13R   63   4.535   5.205   6.040 -1.0719 -0.7549 -0.0834
    1SAPS  H13S   64   4.470   5.042   5.982  1.1542 -2.2326  0.6891
    1SAPS  C214   65   4.599   5.142   5.845 -0.0524  0.5653 -0.6582
    1SAPS  H14R   66   4.614   5.248   5.821 -1.0015  0.9031  0.1638
    1SAPS  C215   67   4.602   5.056   5.743  0.1130  0.6163  0.1455
    1SAPS  H15R   68   4.624   5.092   5.642  3.3010 -0.1595  0.4721
    1SAPS  C216   69   4.550   4.910   5.746 -0.0028 -0.1830  0.0539
    1SAPS  H16R   70   4.484   4.883   5.832 -0.7252 -0.4941 -0.5807
    1SAPS  H16S   71   4.636   4.840   5.747 -1.0212 -1.5162 -0.7254
    1SAPS  C217   72   4.469   4.872   5.616 -0.0629  0.5749  0.8847
    1SAPS  H17R   73   4.370   4.921   5.619  1.5908  4.2551  0.1679
    1SAPS  H17S   74   4.451   4.763   5.606  0.6640  0.5284 -0.0825
    1SAPS  C218   75   4.534   4.918   5.480  0.0342  0.2327  0.1003
    1SAPS  H18R   76   4.641   4.890   5.475  0.6356  2.3941 -0.4877
    1SAPS  H18S   77   4.514   5.026   5.462 -1.3246  0.0240  0.2365
    1SAPS  C219   78   4.456   4.846   5.363 -0.1959 -0.1323  0.7066
    1SAPS  H19R   79   4.346   4.860   5.371  0.1179  2.1106  2.1137
    1SAPS  H19S   80   4.486   4.740   5.373 -0.7898 -0.3990 -0.1583
    1SAPS  C220   81   4.496   4.884   5.220  0.0524 -0.2433 -0.6144
    1SAPS  H20R   82   4.591   4.827   5.207 -1.7721 -3.3477 -1.4697
    1SAPS  H20S   83   4.505   4.994   5.208  1.0045 -0.2832 -0.3908
    1SAPS  H20T   84   4.419   4.842   5.152 -0.6564 -1.6781  1.0038
    1SAPS   C33   85   4.363   5.310   6.574 -0.5168  0.3434 -0.4148
    1SAPS   H3X   86   4.405   5.207   6.571 -0.5385  0.3158  0.0568
    1SAPS   H3Y   87   4.449   5.378   6.591  0.8697 -1.1663 -1.1008
    1SAPS   C34   88   4.334   5.340   6.422 -0.4264  0.1821 -0.1195
    1SAPS   H4X   89   4.435   5.336   6.376 -0.1493 -2.2487  0.5421
    1SAPS   H4Y   90   4.296   5.444   6.416 -0.0871  0.3275  0.2520
    1SAPS   C35   91   4.229   5.238   6.368 -0.9321 -0.6695  0.0647
    1SAPS   H5X   92   4.134   5.244   6.425 -0.2581 -1.1658  1.2833
    1SAPS   H5Y   93   4.285   5.144   6.388  4.4425  1.8199 -1.5564
    1SAPS   C36   94   4.210   5.242   6.216 -0.6163 -0.2727 -0.8553
    1SAPS   H6X   95   4.309   5.252   6.167  0.0125 -0.5273  0.3245
    1SAPS   H6Y   96   4.137   5.321   6.189 -0.5892  0.4665  1.0915
    1SAPS   C37   97   4.139   5.119   6.165 -0.7534  0.0301  0.3323
    1SAPS   H7X   98   4.044   5.087   6.213 -0.5318 -0.5758  0.3807
    1SAPS   H7Y   99   4.215   5.039   6.179  0.7009  1.3901  0.6312
    1SAPS   C38  100   4.114   5.137   6.016  0.5993 -0.9665  0.4786
    1SAPS   H8X  101   4.205   5.179   5.966  0.4654 -1.5390 -0.2539
    1SAPS   H8Y  102   4.034   5.212   5.999  0.4895 -1.4839 -1.5276
    1SAPS   C39  103   4.086   5.017   5.939  0.6404  0.1978  0.7167
    1SAPS   H9X  104   4.053   5.043   5.836  1.5086 -0.1696  0.3314
    1SAPS   H9Y  105   4.012   4.950   5.988 -1.0226  1.9283  0.7042
    1SAPS  C310  106   4.211   4.921   5.915 -0.6535  0.6064 -0.1828
    1SAPS  H10X  107   4.256   4.927   6.016 -1.2740  1.3818  0.0584
    1SAPS  H10Y  108   4.279   4.950   5.833 -1.3985 -0.6043 -1.2727
    1SAPS  C311  109   4.172   4.773   5.886 -0.9377 -0.5128  0.4855
    1SAPS  H11X  110   4.099   4.761   5.803 -0.3110 -1.7957  0.0852
    1SAPS  H11Y  111   4.110   4.739   5.972  0.6387 -1.0843  1.4298
    1SAPS  C312  112   4.274   4.666   5.852 -0.4755 -0.7333  0.6296
    1SAPS  H12X  113   4.377   4.709   5.856 -0.8486  0.1049  1.9354
    1SAPS  H12Y  114   4.268   4.638   5.744  0.7565 -2.4307  0.9489
    1SAPS  C313  115   4.269   4.538   5.945 -0.4912 -0.1152  0.4693
    1SAPS  H13X  116   4.302   4.580   6.042  0.2524 -0.8045  0.5295
    1SAPS  H13Y  117   4.341   4.465   5.902 -0.8926  0.7472 -1.8185
    1SAPS  C314  118   4.136   4.464   5.942  0.5927  1.0842  0.2130
    1SAPS  H14X  119   4.121   4.452   5.833  2.0979  1.7689 -0.0954
    1SAPS  H14Y  120   4.052   4.529   5.974 -1.2917 -0.3228 -1.6400
    1SAPS  C315  121   4.129   4.325   6.010  0.1134 -0.3140  0.7335
    1SAPS  H15X  122   4.213   4.258   5.983  0.3313  0.1837  0.1610
    1SAPS  H15Y  123   4.045   4.262   5.971  0.1993 -1.1555  1.8700
    1SAPS  C316  124   4.107   4.330   6.164 -0.3637 -0.1459  0.0773
    1SAPS  H16X  125   4.180   4.395   6.217 -0.5990 -0.5190  0.8812
    1SAPS  H16Y  126   4.133   4.225   6.191 -0.8743 -0.7478 -1.6635
    1SAPS  C317  127   3.968   4.351   6.221  0.7481  0.0624 -0.1047
    1SAPS  H17X  128   3.900   4.281   6.168 -0.7495 -0.7509  2.6854
    1SAPS  H17Y  129   3.941   4.456   6.195  1.3730 -0.0495 -1.2497
    1SAPS  C318  130   3.950   4.354   6.372 -0.3105 -0.7408  0.1357
    1SAPS  H18X  131   4.027   4.428   6.406 -0.4128 -0.8672  0.6422
    1SAPS  H18Y  132   3.981   4.265   6.430  0.3637  0.6186  1.9626
    1SAPS  H18Z  133   3.846   4.379   6.401 -1.7779 -3.1661 -2.5691
    2SAPS     N  134   4.870   0.650   7.842  0.5842 -0.3215  0.0882
    2SAPS   HN1  135   4.859   0.588   7.925  0.7565 -1.2336 -0.5627
    2SAPS   HN2  136   4.942   0.617   7.775 -0.4159 -1.0156 -0.6590
    2SAPS   HN3  137   4.905   0.745   7.865 -0.1783  0.8567 -3.1878
    2SAPS   C12  138   4.736   0.654   7.770 -0.1735 -0.1307 -0.2203
    2SAPS  H12A  139   4.697   0.554   7.764 -1.8924  0.4948 -0.1671
    2SAPS   C13  140   4.621   0.732   7.855 -0.4789 -0.1446 -0.1040
    2SAPS  O13A  141   4.641   0.778   7.972 -0.0206  0.0220 -0.0080
    2SAPS  O13B  142   4.511   0.761   7.804  0.3582  0.2600  0.3405
    2SAPS   C11  143   4.751   0.716   7.624  0.9957  0.3329 -0.5043
    2SAPS  H11A  144   4.754   0.827   7.624 -1.9941  0.5115  0.2011
    2SAPS  H11B  145   4.655   0.693   7.574  1.0803  2.0972 -1.5553
    2SAPS     P  146   4.852   0.505   7.498 -0.0522  0.3186  0.1998
    2SAPS   O13  147   4.969   0.498   7.415 -0.4463 -0.8536  0.6075
    2SAPS   O14  148   4.844   0.409   7.610 -0.3028  0.7929  0.3399
    2SAPS   O12  149   4.851   0.650   7.566 -0.4957 -0.0089 -0.2509
    2SAPS   O11  150   4.711   0.501   7.412  0.3594  0.2786  0.2480
    2SAPS    C1  151   4.635   0.380   7.408 -0.5033  1.4114  0.4436
    2SAPS    HA  152   4.652   0.302   7.486 -1.3682  0.9409  0.1715
    2SAPS    HB  153   4.528   0.399   7.427 -0.7198 -0.1232  0.8883
    2SAPS    C2  154   4.647   0.308   7.265 -0.2775  0.5875  0.4847
    2SAPS    HS  155   4.730   0.234   7.272 -0.2429  0.4306 -1.2244
    2SAPS   O21  156   4.688   0.397   7.158 -0.0745  0.1848  0.9290
    2SAPS   C21  157   4.605   0.487   7.118 -0.2257  0.0555 -0.0169
    2SAPS   O22  158   4.495   0.513   7.164 -0.3595 -0.2756  0.1726
    2SAPS   C22  159   4.653   0.534   6.985 -0.1855  0.0878 -0.1907
    2SAPS   H2R  160   4.740   0.603   6.993  0.7850 -0.6900 -2.9981
    2SAPS   H2S  161   4.682   0.440   6.935  1.0219  0.4031 -0.1034
    2SAPS    C3  162   4.516   0.212   7.237 -0.2247  0.8055 -0.9007
    2SAPS    HX  163   4.430   0.262   7.287  0.9762  0.9290  1.1385
    2SAPS    HY  164   4.531   0.119   7.295 -1.3827 -0.6038 -2.7758
    2SAPS   O31  165   4.498   0.187   7.098 -0.2315 -0.4354  0.4779
    2SAPS   C31  166   4.378   0.178   7.045 -0.2894  0.3535 -0.3195
    2SAPS   O32  167   4.272   0.184   7.108 -0.1898 -0.9538 -0.0086
    2SAPS   C32  168   4.402   0.136   6.893  0.0992  0.2385 -0.3886
    2SAPS   H2X  169   4.340   0.048   6.868  0.7180  0.0038 -1.1168
    2SAPS   H2Y  170   4.506   0.099   6.892 -1.1184 -3.6449  0.7945
    2SAPS   C23  171   4.554   0.617   6.906 -0.1202  0.0199 -0.2307
    2SAPS   H3R  172   4.547   0.705   6.974 -0.7715 -0.3275  0.1721
    2SAPS   H3S  173   4.467   0.551   6.886  0.2162  0.0090 -1.7644
    2SAPS   C24  174   4.609   0.664   6.774 -0.4510  0.5725 -0.3253
    2SAPS   H4R  175   4.705   0.714   6.795 -0.7311  0.7441  0.5953
    2SAPS   H4S  176   4.545   0.748   6.738 -2.5597 -0.9257 -0.2510
    2SAPS   C25  177   4.620   0.557   6.668  0.1171 -0.1475 -0.3477
    2SAPS   H5R  178   4.641   0.456   6.706 -2.1458 -0.2030  0.9277
    2SAPS   C26  179   4.586   0.565   6.539  0.1440  0.4834  0.3063
    2SAPS   H6R  180   4.600   0.480   6.471  0.8134  1.0805 -0.3270
    2SAPS   C27  181   4.532   0.683   6.462  0.3963 -0.6273  0.4139
    2SAPS   H7R  182   4.518   0.767   6.533  2.4976  2.1415 -2.2071
    2SAPS   H7S  183   4.428   0.656   6.436 -0.8367  1.7046  2.6031
    2SAPS   C28  184   4.619   0.722   6.341  0.0981  0.5415 -0.4592
    2SAPS   H8R  185   4.601   0.655   6.256 -1.9012  0.8165 -0.3105
    2SAPS   C29  186   4.715   0.811   6.338 -0.3432  0.3495 -0.1401
    2SAPS   H9R  187   4.775   0.814   6.246 -0.2098  0.2449 -0.0550
    2SAPS  C210  188   4.750   0.905   6.452  0.0345 -0.2453 -0.5655
    2SAPS  H10R  189   4.689   0.904   6.545  1.1900  3.4730  0.4151
    2SAPS  H10S  190   4.744   1.010   6.416  0.3966  0.0026  0.0881
    2SAPS  C211  191   4.890   0.878   6.504  0.2264  1.0257 -0.1744
    2SAPS  H11R  192   4.903   0.771   6.523 -1.7464  0.1983 -2.9068
    2SAPS  C212  193   4.976   0.973   6.537 -0.9803  0.5228 -0.5219
    2SAPS  H12R  194   5.076   0.943   6.571 -0.9962  0.5223 -0.4769
    2SAPS  C213  195   4.969   1.127   6.521  0.0297  0.6901 -0.0863
    2SAPS  H13R  196   4.894   1.160   6.596 -0.1211 -2.2994  1.2175
    2SAPS  H13S  197   4.924   1.148   6.422  2.6039  1.5301 -1.1550
    2SAPS  C214  198   5.092   1.219   6.535 -0.4415  0.4425  0.7095
    2SAPS  H14R  199   5.109   1.262   6.634 -0.3580 -0.8456  1.2739
    2SAPS  C215  200   5.137   1.277   6.427 -0.2018  0.0805 -0.0559
    2SAPS  H15R  201   5.221   1.347   6.439  1.6158 -1.9001 -0.5177
    2SAPS  C216  202   5.113   1.239   6.286 -0.7617 -0.7342  0.0905
    2SAPS  H16R  203   5.024   1.296   6.253 -0.6152 -0.0779  0.7898
    2SAPS  H16S  204   5.086   1.135   6.258 -2.1712 -0.2916 -0.2756
    2SAPS  C217  205   5.232   1.288   6.193  0.1049  0.6252 -0.6374
    2SAPS  H17R  206   5.325   1.236   6.224  0.2272  1.1537 -0.0690
    2SAPS  H17S  207   5.251   1.395   6.216  1.3978  0.8377 -2.5655
    2SAPS  C218  208   5.224   1.265   6.039 -0.8293  0.4619  0.2511
    2SAPS  H18R  209   5.230   1.157   6.012  1.2436  0.2646  1.2713
    2SAPS  H18S  210   5.318   1.316   6.008 -0.3138 -0.8975 -0.5502
    2SAPS  C219  211   5.107   1.331   5.971 -0.1021  0.2205  0.6667
    2SAPS  H19R  212   5.113   1.441   5.987  0.4762  0.4224 -0.7268
    2SAPS  H19S  213   5.014   1.291   6.017 -0.4185  0.1568 -0.0117
    2SAPS  C220  214   5.093   1.314   5.824  0.0736  0.7202 -0.3601
    2SAPS  H20R  215   5.077   1.208   5.795  0.6340  1.0232 -1.8681
    2SAPS  H20S  216   5.181   1.337   5.760 -0.1270  0.9112 -0.5686
    2SAPS  H20T  217   5.014   1.387   5.798  0.1866  0.0095 -2.9240
    2SAPS   C33  218   4.375   0.254   6.809 -0.3220 -0.8222  0.4232
    2SAPS   H3X  219   4.431   0.339   6.856  0.3293 -0.0277 -1.6913
    2SAPS   H3Y  220   4.271   0.290   6.821  0.7716  2.5028  1.1532
    2SAPS   C34  221   4.424   0.249   6.665  0.4661  0.7908  0.2137
    2SAPS   H4X  222   4.432   0.141   6.643  0.5844  1.1065 -1.3890
    2SAPS   H4Y  223   4.523   0.301   6.664  0.4453  0.8353 -0.9718
    2SAPS   C35  224   4.323   0.315   6.565 -0.1600  0.2803  0.2416
    2SAPS   H5X  225   4.311   0.420   6.597 -2.3237  0.3930 -0.7212
    2SAPS   H5Y  226   4.231   0.257   6.587 -0.2145  0.1434 -0.3361
    2SAPS   C36  227   4.372   0.290   6.425  0.3358 -0.1495  0.5634
    2SAPS   H6X  228   4.389   0.182   6.406 -2.2061 -0.8009  1.4863
    2SAPS   H6Y  229   4.472   0.338   6.416 -0.7570  2.0649 -0.9121
    2SAPS   C37  230   4.280   0.346   6.310  0.5399 -0.1894 -0.6891
    2SAPS   H7X  231   4.241   0.445   6.343  1.3881  0.8261 -2.6156
    2SAPS   H7Y  232   4.185   0.288   6.302 -1.0405  2.1286  0.2268
    2SAPS   C38  233   4.340   0.366   6.164 -0.0005 -0.2853  0.0319
    2SAPS   H8X  234   4.254   0.381   6.096  1.9372  1.2557 -2.2069
    2SAPS   H8Y  235   4.392   0.274   6.130  0.7145  0.5744 -1.2685
    2SAPS   C39  236   4.434   0.482   6.161  0.2653 -0.1975  0.2280
    2SAPS   H9X  237   4.527   0.457   6.218  0.1416 -0.8328  0.1580
    2SAPS   H9Y  238   4.380   0.569   6.203 -0.4803  0.7408 -2.4882
    2SAPS  C310  239   4.467   0.526   6.014  0.1630 -0.2712  0.2932
    2SAPS  H10X  240   4.528   0.618   6.030 -0.1043 -0.3960  2.1953
    2SAPS  H10Y  241   4.367   0.553   5.974  0.3274  0.4271  0.3440
    2SAPS  C311  242   4.549   0.432   5.927  0.1847  0.4008 -0.5306
    2SAPS  H11X  243   4.488   0.341   5.909  1.5840 -1.3040  2.5835
    2SAPS  H11Y  244   4.644   0.397   5.973  0.2803  0.4450 -0.6928
    2SAPS  C312  245   4.577   0.487   5.790  0.0073  0.1369  0.1312
    2SAPS  H12X  246   4.519   0.580   5.771 -0.7002 -0.1818  0.6814
    2SAPS  H12Y  247   4.547   0.405   5.722 -0.6417  2.4480 -2.5235
    2SAPS  C313  248   4.724   0.523   5.761 -0.5974 -0.1735 -0.5089
    2SAPS  H13X  249   4.724   0.575   5.663 -0.1311  1.6101  0.3932
    2SAPS  H13Y  250   4.783   0.429   5.755  0.0477  0.2813 -1.6615
    2SAPS  C314  251   4.795   0.619   5.860  0.4492  0.1575  0.5799
    2SAPS  H14X  252   4.794   0.574   5.962 -1.5164  0.2783  0.6352
    2SAPS  H14Y  253   4.719   0.697   5.881 -1.2406 -1.3933  0.4980
    2SAPS  C315  254   4.933   0.666   5.814  0.1094 -0.0515 -0.0271
    2SAPS  H15X  255   4.914   0.744   5.736 -1.5620  0.9077  1.2590
    2SAPS  H15Y  256   4.987   0.591   5.753  0.0834  0.2572 -0.4392
    2SAPS  C316  257   5.008   0.735   5.927 -0.4960  0.4026 -0.2451
    2SAPS  H16X  258   5.099   0.787   5.890  0.6225 -0.7225  0.7938
    2SAPS  H16Y  259   5.050   0.655   5.992  0.5749  0.6170 -0.6395
    2SAPS  C317  260   4.936   0.847   6.002 -0.2983  0.5580  0.5689
    2SAPS  H17X  261   4.831   0.818   6.025 -0.1881 -0.6682 -0.3766
    2SAPS  H17Y  262   4.934   0.935   5.934  0.3311 -0.4604 -0.8020
    2SAPS  C318  263   5.001   0.891   6.134 -0.3956 -0.0634  0.0327
    2SAPS  H18X  264   4.928   0.962   6.179 -1.1899  1.9908 -4.0412
    2SAPS  H18Y  265   5.092   0.947   6.106 -0.5564  0.1901  0.0154
    2SAPS  H18Z  266   5.008   0.801   6.198  0.6826 -1.0288 -1.3606
    3SAPS     N  267   4.078   5.720   7.514  0.1581  0.1166  0.7290
    3SAPS   HN1  268   4.147   5.646   7.538 -2.7278 -3.1345 -0.2714
    3SAPS   HN2  269   4.002   5.661   7.475  0.5600 -0.9727  1.5566
    3SAPS   HN3  270   4.117   5.789   7.446 -0.0264  0.5224  1.0339
    3SAPS   C12  271   4.037   5.793   7.633  0.1759  0.2475  0.4117
    3SAPS  H12A  272   3.934   5.823   7.621  0.6963  1.2564 -2.1538
    3SAPS   C13  273   4.025   5.694   7.749 -0.7663 -0.7392 -0.3946
    3SAPS  O13A  274   4.058   5.573   7.732 -0.4626  0.2701  0.1749
    3SAPS  O13B  275   3.955   5.719   7.850 -0.4994 -0.2654  0.7070
    3SAPS   C11  276   4.115   5.914   7.670  0.2920  0.1660  0.0984
    3SAPS  H11A  277   4.225   5.903   7.657  0.0370  0.2953 -2.9390
    3SAPS  H11B  278   4.097   5.935   7.777 -0.9323 -0.1480 -0.0343
    3SAPS     P  279   4.119   6.168   7.634  0.3530  0.6265 -0.4560
    3SAPS   O13  280   4.027   6.199   7.745 -0.4118  0.2414  0.4343
    3SAPS   O14  281   4.263   6.165   7.660  0.2212  0.7442  0.3600
    3SAPS   O12  282   4.088   6.024   7.576  0.0946  0.7029  0.4552
    3SAPS   O11  283   4.080   6.271   7.515 -0.0082 -0.2474 -0.2423
    3SAPS    C1  284   3.945   6.307   7.500  1.1990 -0.2437  0.2504
    3SAPS    HA  285   3.884   6.218   7.475 -0.0243  0.6372  0.0255
    3SAPS    HB  286   3.895   6.359   7.584 -0.7694  0.5133 -1.3105
    3SAPS    C2  287   3.927   6.405   7.377  0.1589  0.1340  0.4209
    3SAPS    HS  288   3.824   6.446   7.383 -0.1029  0.0278 -2.1640
    3SAPS   O21  289   3.950   6.326   7.256  0.0157  0.2075 -0.6268
    3SAPS   C21  290   3.848   6.315   7.171 -0.3004 -0.7297  0.0305
    3SAPS   O22  291   3.739   6.371   7.190 -0.3864  0.4365  0.1492
    3SAPS   C22  292   3.889   6.229   7.046 -0.1031  0.3978  0.4117
    3SAPS   H2R  293   4.000   6.219   7.049 -0.1553 -1.0453 -1.0686
    3SAPS   H2S  294   3.858   6.124   7.062  0.9263 -0.1021 -0.7480
    3SAPS    C3  295   4.032   6.523   7.387  0.4303  0.1015 -1.0675
    3SAPS    HX  296   4.134   6.481   7.369 -0.0919 -1.2605 -1.0157
    3SAPS    HY  297   4.041   6.551   7.494  2.3679  0.8383 -1.3916
    3SAPS   O31  298   3.989   6.634   7.305  0.1186  0.0115 -0.2589
    3SAPS   C31  299   4.042   6.640   7.186  0.2773 -0.2825  0.6356
    3SAPS   O32  300   4.118   6.555   7.139  0.4858 -0.3610 -0.3530
    3SAPS   C32  301   3.992   6.763   7.109  0.1342  0.0568  0.0088
    3SAPS   H2X  302   4.029   6.851   7.165 -1.7568  0.5154  0.6408
    3SAPS   H2Y  303   3.884   6.786   7.094  0.4028  1.5624  0.2613
    3SAPS   C23  304   3.821   6.280   6.909 -0.2834 -0.4454 -0.2913
    3SAPS   H3R  305   3.851   6.387   6.903  0.1311 -0.6556 -3.5655
    3SAPS   H3S  306   3.711   6.278   6.925 -0.4207 -0.2741 -1.1972
    3SAPS   C24  307   3.859   6.197   6.787  0.1676 -0.4974  0.0888
    3SAPS   H4R  308   3.789   6.207   6.700  1.5131  1.1114 -0.8563
    3SAPS   H4S  309   3.827   6.096   6.821 -1.9229 -0.2397 -0.9456
    3SAPS   C25  310   4.001   6.213   6.747  0.1187 -0.3111 -0.0206
    3SAPS   H5R  311   4.077   6.224   6.826 -0.4473  1.1860  0.3501
    3SAPS   C26  312   4.046   6.202   6.622  0.1225  0.0089  0.2616
    3SAPS   H6R  313   4.152   6.224   6.599  0.0027 -2.0903 -2.9314
    3SAPS   C27  314   3.970   6.192   6.494  0.8969  0.7903  0.5090
    3SAPS   H7R  315   3.864   6.224   6.506  1.2066  2.2696 -0.5284
    3SAPS   H7S  316   3.972   6.086   6.459 -0.1208  0.4192  1.4992
    3SAPS   C28  317   4.029   6.284   6.390 -0.1817 -0.5899 -0.1220
    3SAPS   H8R  318   3.991   6.387   6.391 -1.8130 -1.0269 -3.3679
    3SAPS   C29  319   4.108   6.248   6.286  0.0602  0.0055 -0.1263
    3SAPS   H9R  320   4.160   6.331   6.237 -1.3107  1.5368  0.9381
    3SAPS  C210  321   4.178   6.111   6.268 -0.1435 -0.5844 -0.4164
    3SAPS  H10R  322   4.213   6.079   6.368 -1.4047  1.3584  0.7024
    3SAPS  H10S  323   4.267   6.125   6.203  0.6848 -0.4556  0.7251
    3SAPS  C211  324   4.103   5.992   6.212 -0.1687  0.3791  0.5221
    3SAPS  H11R  325   4.042   5.928   6.277 -0.7888 -0.9862 -1.3207
    3SAPS  C212  326   4.092   5.972   6.082  0.1414  0.2082  0.0770
    3SAPS  H12R  327   4.047   5.876   6.053 -0.2771  0.7157 -1.0336
    3SAPS  C213  328   4.158   6.051   5.978  0.4685 -0.1442  0.1355
    3SAPS  H13R  329   4.174   5.997   5.883 -1.0550 -0.9534  0.3071
    3SAPS  H13S  330   4.261   6.072   6.014  0.6970  2.2592 -1.6863
    3SAPS  C214  331   4.090   6.180   5.948 -0.1591  0.7264 -0.2352
    3SAPS  H14R  332   3.980   6.176   5.946 -0.2663  1.6853  1.5186
    3SAPS  C215  333   4.143   6.289   5.908  0.5978 -0.2749  0.1778
    3SAPS  H15R  334   4.076   6.375   5.895 -1.0992 -1.3330  1.4236
    3SAPS  C216  335   4.291   6.309   5.886  0.6294  0.4304 -0.7648
    3SAPS  H16R  336   4.351   6.215   5.889  0.2698  0.2105  0.4795
    3SAPS  H16S  337   4.324   6.366   5.975 -0.9371  0.7043 -0.3259
    3SAPS  C217  338   4.313   6.369   5.754 -0.4325  0.4224  0.0687
    3SAPS  H17R  339   4.260   6.320   5.669  0.5592  0.5358 -0.6269
    3SAPS  H17S  340   4.418   6.359   5.720 -0.4267  0.9526 -0.0853
    3SAPS  C218  341   4.290   6.520   5.739  0.3628  0.1069 -0.4240
    3SAPS  H18R  342   4.185   6.557   5.746  0.7650  0.9099  2.1201
    3SAPS  H18S  343   4.316   6.542   5.633  0.7098  3.5707  0.2778
    3SAPS  C219  344   4.374   6.606   5.832 -0.2222  0.1431  0.5688
    3SAPS  H19R  345   4.348   6.580   5.937 -0.7817 -2.3382 -0.1273
    3SAPS  H19S  346   4.484   6.591   5.833  0.2208  2.7269 -0.5063
    3SAPS  C220  347   4.339   6.755   5.813 -0.2376  0.2027 -0.5120
    3SAPS  H20R  348   4.400   6.822   5.878  0.9483 -0.6350 -0.7493
    3SAPS  H20S  349   4.233   6.781   5.838 -1.2940 -1.4478 -2.9223
    3SAPS  H20T  350   4.360   6.772   5.706 -0.9379 -3.3396 -1.3356
    3SAPS   C33  351   4.053   6.769   6.965  0.1192 -0.4049  0.1073
    3SAPS   H3X  352   4.164   6.778   6.973  0.0796  0.5672 -0.3352
    3SAPS   H3Y  353   4.015   6.867   6.930 -2.3178 -0.2968  2.7811
    3SAPS   C34  354   4.012   6.657   6.871  0.2900 -0.5978  0.3216
    3SAPS   H4X  355   3.906   6.670   6.838 -0.1566 -0.7210  1.6431
    3SAPS   H4Y  356   4.019   6.554   6.912  1.2105 -1.1036 -1.0109
    3SAPS   C35  357   4.104   6.667   6.747  0.2632  0.2954 -0.4565
    3SAPS   H5X  358   4.211   6.681   6.773  0.3947  2.7355 -2.0092
    3SAPS   H5Y  359   4.090   6.574   6.688 -0.9611 -0.7207  1.3401
    3SAPS   C36  360   4.060   6.787   6.652 -0.1192  0.0979  0.5093
    3SAPS   H6X  361   4.057   6.881   6.711 -3.2363  0.1026  0.4965
    3SAPS   H6Y  362   3.953   6.760   6.637  0.3039 -0.6326 -1.5084
    3SAPS   C37  363   4.131   6.794   6.519 -0.7249 -0.5454 -0.5050
    3SAPS   H7X  364   4.238   6.820   6.537 -0.9781  0.0033  0.2283
    3SAPS   H7Y  365   4.096   6.887   6.468 -0.6366 -1.5081 -2.4078
    3SAPS   C38  366   4.121   6.667   6.439  0.1278  0.0827  0.6380
    3SAPS   H8X  367   4.017   6.632   6.459 -0.1965  1.5260  1.5989
    3SAPS   H8Y  368   4.193   6.591   6.475  1.8512 -1.5513 -5.1178
    3SAPS   C39  369   4.130   6.688   6.287  0.3062 -0.2362  0.0963
    3SAPS   H9X  370   4.041   6.745   6.255  0.7262  0.4203  0.0693
    3SAPS   H9Y  371   4.117   6.589   6.239  0.9685 -2.4795  4.1296
    3SAPS  C310  372   4.248   6.764   6.226 -0.5259 -0.0499  0.6185
    3SAPS  H10X  373   4.257   6.863   6.275  2.7570 -0.3754  0.9241
    3SAPS  H10Y  374   4.239   6.787   6.118  0.0088  0.1669  0.6155
    3SAPS  C311  375   4.376   6.675   6.235 -0.1571  0.0233  0.1405
    3SAPS  H11X  376   4.366   6.579   6.181 -1.4072  0.2340 -0.0396
    3SAPS  H11Y  377   4.396   6.660   6.343  0.9697 -0.1427 -0.0810
    3SAPS  C312  378   4.494   6.747   6.177  0.4795 -0.4156  0.3301
    3SAPS  H12X  379   4.472   6.855   6.177  0.6169 -0.3653 -0.8756
    3SAPS  H12Y  380   4.510   6.716   6.071  1.6613 -1.1164  0.6871
    3SAPS  C313  381   4.616   6.717   6.262 -0.4401  0.2501 -0.6006
    3SAPS  H13X  382   4.706   6.733   6.199 -1.2572 -0.9040 -2.1306
    3SAPS  H13Y  383   4.635   6.609   6.283  0.0285  0.5885  0.8179
    3SAPS  C314  384   4.615   6.792   6.399  0.2171  0.3302 -0.2998
    3SAPS  H14X  385   4.533   6.753   6.463 -0.9615 -0.3585 -2.1375
    3SAPS  H14Y  386   4.586   6.893   6.365 -0.6746 -0.2495 -1.3009
    3SAPS  C315  387   4.757   6.806   6.452 -0.3472  0.5940 -0.3445
    3SAPS  H15X  388   4.762   6.893   6.520 -0.3363  1.3042 -1.2365
    3SAPS  H15Y  389   4.821   6.813   6.361  0.4307 -0.6807  0.0825
    3SAPS  C316  390   4.794   6.674   6.534 -0.0041  0.2443  0.2708
    3SAPS  H16X  391   4.898   6.689   6.572 -0.5638  0.3557  1.8315
    3SAPS  H16Y  392   4.793   6.581   6.473  0.4102  0.2598  0.2348
    3SAPS  C317  393   4.715   6.671   6.670 -0.1351  0.3272 -0.5242
    3SAPS  H17X  394   4.752   6.581   6.722 -1.5354 -1.0364 -1.7839
    3SAPS  H17Y  395   4.608   6.654   6.645 -0.4733  1.5160  0.0359
    3SAPS  C318  396   4.722   6.785   6.769  0.5167  0.1636 -0.3897
    3SAPS  H18X  397   4.670   6.762   6.864  0.0380  0.3506 -0.6051
    3SAPS  H18Y  398   4.667   6.873   6.730  0.7636  1.1398  1.3514
    3SAPS  H18Z  399   4.825   6.811   6.802  0.2696  1.8638 -0.8477
    4SAPS     N  400   2.607   4.404   7.835 -0.7314  0.1362  0.0758
    4SAPS   HN1  401   2.645   4.494   7.798  0.9850 -1.0897 -1.3119
    4SAPS   HN2  402   2.656   4.389   7.926 -0.8217  1.7820  0.4229
    4SAPS   HN3  403   2.625   4.336   7.759 -0.8520  1.4122 -1.1324
    4SAPS   C12  404   2.472   4.406   7.876  0.1979  0.3622  0.1699
    4SAPS  H12A  405   2.459   4.307   7.917 -1.8514 -0.4660 -2.1714
    4SAPS   C13  406   2.431   4.517   7.974 -0.5181  0.4085  0.0116
    4SAPS  O13A  407   2.527   4.557   8.043 -0.2894 -0.0057 -0.5294
    4SAPS  O13B  408   2.311   4.527   8.005 -0.2485 -0.0959 -0.3434
    4SAPS   C11  409   2.383   4.413   7.748  0.4136  0.2468 -0.2520
    4SAPS  H11A  410   2.407   4.511   7.700 -0.3549  0.6517  0.1780
    4SAPS  H11B  411   2.275   4.415   7.772  0.2084 -1.9963 -0.7903
    4SAPS     P  412   2.328   4.188   7.632  0.3452 -0.6220 -0.1339
    4SAPS   O13  413   2.323   4.119   7.762 -0.7574 -0.1780 -0.1187
    4SAPS   O14  414   2.202   4.240   7.578  0.0679  0.4226  0.0155
    4SAPS   O12  415   2.415   4.315   7.655 -0.0594  0.6066 -0.3637
    4SAPS   O11  416   2.409   4.087   7.535  0.1418 -0.7635  0.4858
    4SAPS    C1  417   2.536   4.127   7.478 -0.2616  0.2292  0.1297
    4SAPS    HA  418   2.596   4.199   7.538  0.1674  0.8940 -1.0645
    4SAPS    HB  419   2.597   4.034   7.472  2.9148  2.2575 -3.7803
    4SAPS    C2  420   2.522   4.178   7.335 -0.0987  0.4361  0.6665
    4SAPS    HS  421   2.459   4.270   7.343  0.1272  0.5912  0.6930
    4SAPS   O21  422   2.461   4.077   7.248  0.1939  0.1281  0.2565
    4SAPS   C21  423   2.333   4.104   7.216  0.0647  0.0807  0.6466
    4SAPS   O22  424   2.275   4.207   7.234  0.4504 -0.0734  0.2265
    4SAPS   C22  425   2.272   3.976   7.151  0.1287 -0.0604 -0.0473
    4SAPS   H2R  426   2.339   3.927   7.077  1.4577  0.7947  0.5541
    4SAPS   H2S  427   2.250   3.909   7.237 -0.7011 -0.7797 -0.7981
    4SAPS    C3  428   2.654   4.221   7.268  0.0177 -0.2701  0.9981
    4SAPS    HX  429   2.709   4.126   7.248 -0.7248 -0.4831 -0.1470
    4SAPS    HY  430   2.704   4.293   7.336 -1.6324  1.2163  0.7031
    4SAPS   O31  431   2.633   4.274   7.135 -0.8001 -0.3279  0.2882
    4SAPS   C31  432   2.636   4.409   7.123 -0.2216  0.1903 -0.7757
    4SAPS   O32  433   2.665   4.479   7.223  0.6459  0.4017  1.0644
    4SAPS   C32  434   2.565   4.454   6.993  0.2185 -0.4614 -0.0772
    4SAPS   H2X  435   2.618   4.419   6.902  0.0816 -2.3778  0.5336
    4SAPS   H2Y  436   2.563   4.565   6.992 -1.8870 -0.3956  1.7968
    4SAPS   C23  437   2.133   4.004   7.090 -1.3902 -0.3310  0.0624
    4SAPS   H3R  438   2.158   4.067   7.002 -0.0890  0.6877  1.1121
    4SAPS   H3S  439   2.070   4.079   7.143  0.1044  2.0111 -1.2922
    4SAPS   C24  440   2.052   3.874   7.067 -0.5765 -0.4891 -1.0530
    4SAPS   H4R  441   1.948   3.898   7.037 -1.7299  0.4011  3.0570
    4SAPS   H4S  442   2.039   3.828   7.167 -0.2187 -0.1185 -0.8348
    4SAPS   C25  443   2.130   3.777   6.981  0.2255 -0.1081  0.3775
    4SAPS   H5R  444   2.233   3.750   7.009  1.2865  0.0834 -2.8549
    4SAPS   C26  445   2.096   3.722   6.860 -0.6122  0.2579 -0.0856
    4SAPS   H6R  446   2.165   3.650   6.814  0.2875  1.7203 -1.0701
    4SAPS   C27  447   1.960   3.737   6.790 -0.1412  0.1712 -0.2298
    4SAPS   H7R  448   1.967   3.800   6.698 -3.0202  0.9616  0.0071
    4SAPS   H7S  449   1.889   3.787   6.859  1.5850  1.7270  0.5096
    4SAPS   C28  450   1.914   3.593   6.756 -0.1594 -0.3519  0.3690
    4SAPS   H8R  451   1.907   3.524   6.842 -1.7939 -1.2021 -0.4086
    4SAPS   C29  452   1.865   3.540   6.642  0.3754  0.5671 -0.0846
    4SAPS   H9R  453   1.845   3.432   6.634 -0.8420  0.8071 -0.5547
    4SAPS  C210  454   1.827   3.617   6.514  0.1013 -0.1835 -0.8845
    4SAPS  H10R  455   1.920   3.619   6.453  0.3200 -0.5914 -0.5683
    4SAPS  H10S  456   1.801   3.724   6.531 -1.8020 -0.5456 -1.3447
    4SAPS  C211  457   1.704   3.560   6.454  0.3060 -0.6053  0.0899
    4SAPS  H11R  458   1.616   3.542   6.517 -0.6940 -3.7470 -1.9790
    4SAPS  C212  459   1.699   3.514   6.329  0.7363 -1.0171  0.5657
    4SAPS  H12R  460   1.595   3.486   6.305 -0.2292  1.3201  1.7137
    4SAPS  C213  461   1.800   3.520   6.216 -0.9777  0.3332  0.0878
    4SAPS  H13R  462   1.875   3.596   6.248 -0.2283  0.2106 -1.3035
    4SAPS  H13S  463   1.760   3.536   6.114  0.4835  1.1303 -0.3920
    4SAPS  C214  464   1.901   3.409   6.213  0.3733 -0.3022  0.5414
    4SAPS  H14R  465   1.908   3.344   6.301  0.9001  0.8609  1.3722
    4SAPS  C215  466   1.987   3.383   6.113  0.3645  0.1495  0.4527
    4SAPS  H15R  467   2.051   3.294   6.121 -0.6599 -0.6426  0.0137
    4SAPS  C216  468   1.999   3.461   5.979  0.4246  0.2126 -0.0002
    4SAPS  H16R  469   1.944   3.556   5.994 -3.2757 -1.7261  0.0718
    4SAPS  H16S  470   1.950   3.413   5.891 -0.1923  2.0524 -0.7166
    4SAPS  C217  471   2.147   3.489   5.940  0.3559 -0.1085 -0.3871
    4SAPS  H17R  472   2.201   3.393   5.930  0.6421 -0.0996  0.9499
    4SAPS  H17S  473   2.185   3.550   6.024 -0.9240  0.1898  0.0017
    4SAPS  C218  474   2.166   3.569   5.809  0.7718 -0.5851  0.5295
    4SAPS  H18R  475   2.272   3.601   5.796  0.8695  0.0974  2.6338
    4SAPS  H18S  476   2.103   3.660   5.803  0.4729 -0.6121  2.5174
    4SAPS  C219  477   2.156   3.473   5.688  0.0547  0.8159  0.0043
    4SAPS  H19R  478   2.063   3.413   5.696  0.8573 -0.3104  1.1438
    4SAPS  H19S  479   2.236   3.396   5.693 -0.8355 -0.2214 -1.1233
    4SAPS  C220  480   2.152   3.544   5.556  0.1095 -0.6656  0.4824
    4SAPS  H20R  481   2.239   3.612   5.541  0.0663 -0.5562  0.7082
    4SAPS  H20S  482   2.059   3.603   5.543  0.4133 -0.3548 -0.3203
    4SAPS  H20T  483   2.148   3.469   5.475 -2.2150  0.1051 -0.2100
    4SAPS   C33  484   2.422   4.400   6.984  0.3095  0.0861  0.2249
    4SAPS   H3X  485   2.361   4.417   7.076 -0.7835  0.5220 -0.5644
    4SAPS   H3Y  486   2.421   4.290   6.967 -1.3743  0.1101 -0.0311
    4SAPS   C34  487   2.352   4.458   6.864  0.3845 -0.7317  0.2606
    4SAPS   H4X  488   2.424   4.439   6.782  0.8123 -0.2129  0.5050
    4SAPS   H4Y  489   2.342   4.568   6.877  0.2399 -0.4764 -1.6865
    4SAPS   C35  490   2.220   4.398   6.819 -0.0709  0.0040  0.7297
    4SAPS   H5X  491   2.172   4.474   6.754  1.4113  2.4551  2.3336
    4SAPS   H5Y  492   2.171   4.362   6.912 -0.0196 -1.2695  0.2855
    4SAPS   C36  493   2.225   4.264   6.739  0.2571 -0.0348 -0.0863
    4SAPS   H6X  494   2.298   4.202   6.795 -0.1114  0.7901  1.3812
    4SAPS   H6Y  495   2.249   4.271   6.631 -1.4570  0.9950 -0.4398
    4SAPS   C37  496   2.093   4.181   6.745 -0.0121  0.9673  0.0611
    4SAPS   H7X  497   2.008   4.234   6.697  1.5043  2.1144 -1.5373
    4SAPS   H7Y  498   2.063   4.159   6.849  0.2141 -0.5731 -0.1823
    4SAPS   C38  499   2.096   4.041   6.683 -0.0359 -0.0586  0.0702
    4SAPS   H8X  500   1.994   4.003   6.705  0.6832 -1.8503  0.4776
    4SAPS   H8Y  501   2.162   3.971   6.738  0.7077  0.2008 -0.4839
    4SAPS   C39  502   2.136   4.035   6.530  0.2906 -0.3057 -0.3897
    4SAPS   H9X  503   2.245   4.047   6.516  0.6426 -0.0207  2.0813
    4SAPS   H9Y  504   2.087   4.119   6.477 -1.8854 -0.9083  0.5419
    4SAPS  C310  505   2.087   3.918   6.450 -0.0273 -0.1860 -0.6044
    4SAPS  H10X  506   1.976   3.915   6.446 -0.0552 -0.4594  0.2422
    4SAPS  H10Y  507   2.131   3.834   6.506 -0.2748  0.1509  0.1066
    4SAPS  C311  508   2.116   3.931   6.299 -0.0404  0.0743  0.7426
    4SAPS  H11X  509   2.224   3.939   6.277 -0.5388 -0.3169 -2.1697
    4SAPS  H11Y  510   2.080   4.032   6.272  0.5635  0.8817  2.7551
    4SAPS  C312  511   2.036   3.832   6.212  0.6763  0.1412 -0.4481
    4SAPS  H12X  512   1.930   3.832   6.245  1.0895 -0.2113  0.9199
    4SAPS  H12Y  513   2.077   3.729   6.213 -1.4812 -0.7922  1.6963
    4SAPS  C313  514   2.037   3.870   6.062 -0.2365 -0.3396 -0.6114
    4SAPS  H13X  515   1.984   3.967   6.052  3.6496  2.1789  0.6961
    4SAPS  H13Y  516   1.989   3.804   5.987 -0.0731  0.1498 -1.1536
    4SAPS  C314  517   2.179   3.877   6.001 -0.4986 -0.3957  1.2098
    4SAPS  H14X  518   2.227   3.777   5.988  0.3678  0.1327  0.1010
    4SAPS  H14Y  519   2.255   3.934   6.058 -1.6754  0.9510  1.4717
    4SAPS  C315  520   2.189   3.950   5.863  0.2802 -0.0315 -0.5539
    4SAPS  H15X  521   2.134   4.042   5.893 -0.2060 -0.0519 -1.3496
    4SAPS  H15Y  522   2.123   3.894   5.793 -0.4760 -0.2597  0.3240
    4SAPS  C316  523   2.333   3.950   5.805  0.3845 -0.4085  0.0375
    4SAPS  H16X  524   2.372   3.846   5.793 -0.6425 -0.8496  0.4796
    4SAPS  H16Y  525   2.403   3.994   5.879 -1.0245 -0.8856  1.7158
    4SAPS  C317  526   2.351   4.012   5.665  0.6248  0.1070 -0.4235
    4SAPS  H17X  527   2.284   3.953   5.598  0.8681 -0.3445 -0.2790
    4SAPS  H17Y  528   2.454   3.995   5.626  1.1236 -0.0719  0.9256
    4SAPS  C318  529   2.307   4.149   5.656 -0.2100 -0.7752 -0.0754
    4SAPS  H18X  530   2.198   4.160   5.674 -0.4014  1.3346 -2.0075
    4SAPS  H18Y  531   2.328   4.214   5.568  0.3604 -0.0862  0.5457
    4SAPS  H18Z  532   2.356   4.206   5.739 -1.9161 -0.5294  0.8078
    5SAPS     N  533   4.529   5.398   7.226  0.2123 -0.0119  0.1165
    5SAPS   HN1  534   4.462   5.472   7.195 -1.2846 -2.1693 -2.1657
    5SAPS   HN2  535   4.584   5.380   7.140  0.6896  1.9065 -0.0399
    5SAPS   HN3  536   4.477   5.314   7.257  0.2926 -0.0957  0.0210
    5SAPS   C12  537   4.618   5.438   7.334 -0.3372 -0.0369 -0.2319
    5SAPS  H12A  538   4.556   5.460   7.420 -0.9995 -0.6957 -0.5304
    5SAPS   C13  539   4.717   5.321   7.370  0.0261 -1.2052 -0.3467
    5SAPS  O13A  540   4.722   5.212   7.312  0.2042  0.3950  0.2541
    5SAPS  O13B  541   4.769   5.326   7.486  0.2265  0.0709  0.2962
    5SAPS   C11  542   4.699   5.566   7.296  0.3426  0.0517 -0.1511
    5SAPS  H11A  543   4.743   5.565   7.194 -3.2759  3.2006 -1.9593
    5SAPS  H11B  544   4.775   5.574   7.377 -2.0572 -0.1025  2.2600
    5SAPS     P  545   4.610   5.790   7.412  0.0183  0.1669  0.0799
    5SAPS   O13  546   4.517   5.900   7.377  0.4299 -0.4811  0.1634
    5SAPS   O14  547   4.578   5.715   7.540  0.3622  0.1435  0.3946
    5SAPS   O12  548   4.615   5.681   7.294 -0.1376  0.2717  0.4819
    5SAPS   O11  549   4.762   5.849   7.415 -0.5098 -0.1762 -0.0087
    5SAPS    C1  550   4.832   5.860   7.290  0.2499 -0.1834  0.0432
    5SAPS    HA  551   4.937   5.829   7.310 -0.1647 -0.8550  1.3522
    5SAPS    HB  552   4.797   5.796   7.206  0.7972  0.3216 -0.5794
    5SAPS    C2  553   4.843   6.000   7.236  0.3975  0.2729  0.1990
    5SAPS    HS  554   4.736   6.029   7.246  0.0758  0.2682 -2.4947
    5SAPS   O21  555   4.888   6.005   7.102 -0.9410  0.2966 -0.3088
    5SAPS   C21  556   4.802   6.045   7.014  0.5476 -0.1976  0.1445
    5SAPS   O22  557   4.679   6.066   7.027  0.3016  0.2015  0.2102
    5SAPS   C22  558   4.875   6.071   6.885 -0.6392  0.6502 -0.0852
    5SAPS   H2R  559   4.913   5.972   6.850  0.8317 -0.2074  3.5078
    5SAPS   H2S  560   4.788   6.104   6.825  0.0082  0.6099 -1.0663
    5SAPS    C3  561   4.930   6.091   7.323 -1.5016 -0.5364 -0.0261
    5SAPS    HX  562   4.891   6.079   7.426  2.1471 -1.7368  1.3781
    5SAPS    HY  563   4.922   6.194   7.282  0.7245 -1.8255 -4.3298
    5SAPS   O31  564   5.062   6.040   7.327 -0.1785  0.0410 -0.2144
    5SAPS   C31  565   5.151   6.094   7.247 -0.2071 -0.0389  0.0719
    5SAPS   O32  566   5.135   6.188   7.169 -0.0468 -0.0292 -0.2841
    5SAPS   C32  567   5.287   6.032   7.252  0.1402  0.5575  0.2918
    5SAPS   H2X  568   5.292   5.963   7.339 -0.1848  0.7902  0.4972
    5SAPS   H2Y  569   5.367   6.105   7.276  0.1310  0.5131  0.4557
    5SAPS   C23  570   4.978   6.184   6.891  0.7428 -0.0187  0.3908
    5SAPS   H3R  571   5.064   6.163   6.958  0.8882 -1.1981 -0.1485
    5SAPS   H3S  572   4.922   6.279   6.908 -2.6030 -1.3235 -2.1163
    5SAPS   C24  573   5.043   6.208   6.751  0.1143  0.5428 -1.1284
    5SAPS   H4R  574   4.960   6.235   6.683 -0.7415 -0.1545 -0.3876
    5SAPS   H4S  575   5.088   6.112   6.717  0.1786  0.4556 -0.8087
    5SAPS   C25  576   5.149   6.306   6.746  0.2161 -0.4831 -0.2588
    5SAPS   H5R  577   5.215   6.310   6.833 -0.8677 -1.0890  0.6218
    5SAPS   C26  578   5.173   6.397   6.649  0.3349 -0.4634 -0.1635
    5SAPS   H6R  579   5.242   6.479   6.673  0.4030 -0.9337  1.3674
    5SAPS   C27  580   5.094   6.422   6.522  0.2936 -0.1495  0.2103
    5SAPS   H7R  581   5.044   6.521   6.515 -0.8705 -0.8200 -1.7019
    5SAPS   H7S  582   5.009   6.351   6.514  1.2392 -1.4684  1.4305
    5SAPS   C28  583   5.180   6.421   6.405 -0.1599 -0.4106 -0.0347
    5SAPS   H8R  584   5.281   6.384   6.431 -0.3925 -0.5202  0.7527
    5SAPS   C29  585   5.146   6.445   6.282 -0.2184  0.2319 -0.3685
    5SAPS   H9R  586   5.224   6.444   6.204 -0.4088  0.1550 -0.5586
    5SAPS  C210  587   5.005   6.469   6.228 -0.0678 -0.1752  0.4885
    5SAPS  H10R  588   4.928   6.423   6.293 -2.8951 -2.4311 -3.9750
    5SAPS  H10S  589   4.994   6.410   6.135 -1.7308 -1.3836  1.3922
    5SAPS  C211  590   4.984   6.618   6.206  0.0049  0.4214 -0.7029
    5SAPS  H11R  591   4.983   6.662   6.307  0.4468 -0.5376 -0.2687
    5SAPS  C212  592   4.963   6.691   6.093 -0.5190  0.0483 -0.2674
    5SAPS  H12R  593   4.942   6.798   6.102 -2.6905 -0.3543 -0.0956
    5SAPS  C213  594   4.954   6.630   5.957  0.1022  0.5107  0.0494
    5SAPS  H13R  595   4.949   6.520   5.962 -1.1013  0.6038  1.6469
    5SAPS  H13S  596   5.047   6.664   5.907  0.6813 -2.5298 -1.1499
    5SAPS  C214  597   4.828   6.669   5.887 -0.1949 -0.0280  0.7562
    5SAPS  H14R  598   4.759   6.733   5.945  0.1429 -1.2392  2.5789
    5SAPS  C215  599   4.815   6.677   5.750 -0.3300  0.1805 -0.1144
    5SAPS  H15R  600   4.714   6.708   5.719  0.0267 -0.2504 -1.8054
    5SAPS  C216  601   4.911   6.627   5.641  0.3416  0.7646 -0.3263
    5SAPS  H16R  602   5.002   6.590   5.692  0.0494  1.3890  0.6687
    5SAPS  H16S  603   4.934   6.712   5.573  4.1378  0.5887  0.5553
    5SAPS  C217  604   4.844   6.519   5.555  0.2244 -0.6030  0.4377
    5SAPS  H17R  605   4.756   6.563   5.504 -0.7358 -1.3900  1.3821
    5SAPS  H17S  606   4.807   6.434   5.616 -0.0957 -0.2250  0.7732
    5SAPS  C218  607   4.947   6.463   5.456 -0.4327 -0.0244 -0.2797
    5SAPS  H18R  608   5.037   6.426   5.511 -0.9130 -1.6979 -0.5612
    5SAPS  H18S  609   4.986   6.542   5.389 -1.1923 -0.3455 -1.1209
    5SAPS  C219  610   4.897   6.346   5.373 -1.0982 -0.3052  0.2371
    5SAPS  H19R  611   4.814   6.372   5.305  0.7570  0.6197 -1.8045
    5SAPS  H19S  612   4.863   6.263   5.439  0.6193 -1.6000 -0.3984
    5SAPS  C220  613   5.009   6.289   5.280 -0.1022 -0.9623  0.0338
    5SAPS  H20R  614   5.097   6.252   5.336 -0.5879 -2.2614 -0.0319
    5SAPS  H20S  615   5.047   6.366   5.209  3.1671 -1.0437  1.5216
    5SAPS  H20T  616   4.975   6.197   5.228  1.0236 -1.3574 -0.0416
    5SAPS   C33  617   5.326   5.946   7.123  0.5019 -0.0401 -0.1138
    5SAPS   H3X  618   5.236   5.886   7.099 -1.4407  2.5412  0.3109
    5SAPS   H3Y  619   5.406   5.873   7.148  0.3397 -0.1292  0.1448
    5SAPS   C34  620   5.371   6.029   6.994 -0.5611  0.2329 -0.1529
    5SAPS   H4X  621   5.476   6.062   7.003 -1.1066  2.1591 -0.3164
    5SAPS   H4Y  622   5.311   6.123   6.989 -1.5939 -0.3124  1.3291
    5SAPS   C35  623   5.348   5.951   6.863  0.1839  0.3617 -0.2124
    5SAPS   H5X  624   5.238   5.955   6.851 -0.5612 -2.3720  3.6509
    5SAPS   H5Y  625   5.374   5.845   6.884  3.0192  0.9552 -0.3683
    5SAPS   C36  626   5.416   6.001   6.737  0.6165 -0.1051 -0.1044
    5SAPS   H6X  627   5.521   6.031   6.760  0.5859 -1.0761  1.4010
    5SAPS   H6Y  628   5.362   6.092   6.702  1.3111  1.1308  1.8658
    5SAPS   C37  629   5.416   5.895   6.635  0.9279 -0.5554  0.5648
    5SAPS   H7X  630   5.311   5.861   6.621  0.1980  0.5670  2.7593
    5SAPS   H7Y  631   5.472   5.808   6.675  1.2033 -0.9225 -0.5845
    5SAPS   C38  632   5.460   5.947   6.497 -0.8490  0.1661  0.2496
    5SAPS   H8X  633   5.562   5.989   6.496 -1.4436  1.8531  2.5882
    5SAPS   H8Y  634   5.384   6.014   6.451  2.2984  2.2531 -2.3199
    5SAPS   C39  635   5.454   5.822   6.405 -0.5731  0.2824 -0.0981
    5SAPS   H9X  636   5.355   5.772   6.402 -1.1023  0.8923  3.5945
    5SAPS   H9Y  637   5.526   5.747   6.443 -2.0345 -0.5987  1.0476
    5SAPS  C310  638   5.489   5.866   6.263 -0.2300 -0.2666 -0.8630
    5SAPS  H10X  639   5.586   5.921   6.262 -0.9529  1.0437 -0.4082
    5SAPS  H10Y  640   5.421   5.935   6.211 -0.2160  0.8599  0.5461
    5SAPS  C311  641   5.512   5.739   6.179  0.0933 -0.0634  0.4005
    5SAPS  H11X  642   5.413   5.689   6.173  0.4502 -0.7266 -0.0188
    5SAPS  H11Y  643   5.579   5.663   6.225  0.0447 -0.2070  0.2341
    5SAPS  C312  644   5.554   5.785   6.042  0.0788 -0.6166 -0.0555
    5SAPS  H12X  645   5.665   5.788   6.044  0.4602 -1.8532 -5.3391
    5SAPS  H12Y  646   5.514   5.888   6.024  2.1303  0.3500  0.6193
    5SAPS  C313  647   5.504   5.693   5.935 -0.4899 -0.4432  0.2929
    5SAPS  H13X  648   5.395   5.706   5.924 -0.5452 -0.4335  0.8598
    5SAPS  H13Y  649   5.516   5.588   5.970 -5.9113 -0.9310  1.5498
    5SAPS  C314  650   5.562   5.721   5.798  0.0505 -0.0962  0.4096
    5SAPS  H14X  651   5.671   5.698   5.790  0.1667 -0.8142  3.2753
    5SAPS  H14Y  652   5.550   5.831   5.786 -1.3391 -0.0279  2.1832
    5SAPS  C315  653   5.483   5.662   5.680  0.2741 -0.6117 -0.3781
    5SAPS  H15X  654   5.373   5.665   5.699  0.0292 -1.4241 -1.5113
    5SAPS  H15Y  655   5.490   5.551   5.671  0.6466 -0.6343  0.1755
    5SAPS  C316  656   5.514   5.719   5.545  0.0891 -0.2186  0.5303
    5SAPS  H16X  657   5.617   5.685   5.521 -0.1387 -3.0089  2.9610
    5SAPS  H16Y  658   5.504   5.830   5.545 -0.6063 -0.2763 -0.0140
    5SAPS  C317  659   5.417   5.668   5.449 -0.1826  0.7701  0.6402
    5SAPS  H17X  660   5.312   5.682   5.484 -0.6807 -3.8949  1.6708
    5SAPS  H17Y  661   5.428   5.557   5.448 -0.1113  0.7264  2.6148
    5SAPS  C318  662   5.438   5.719   5.311 -0.3764  0.0756  0.0164
    5SAPS  H18X  663   5.387   5.642   5.249  1.6418 -2.5845  1.3857
    5SAPS  H18Y  664   5.547   5.713   5.290 -0.4469 -1.1966 -0.1142
    5SAPS  H18Z  665   5.384   5.813   5.292 -2.5101 -1.2917 -1.0624
    6SAPS     N  666   1.862   6.417   7.626  0.1184  0.0846 -0.2830
    6SAPS   HN1  667   1.819   6.323   7.613  0.7399 -0.2862  0.2994
    6SAPS   HN2  668   1.793   6.493   7.645  0.2777  0.0095  0.6597
    6SAPS   HN3  669   1.896   6.456   7.536 -0.6172  0.4273 -0.4295
    6SAPS   C12  670   1.970   6.425   7.724  0.3296  0.4209  0.6818
    6SAPS  H12A  671   1.925   6.403   7.819 -0.6659 -1.8838 -0.2594
    6SAPS   C13  672   2.085   6.323   7.698 -0.3771 -0.3149  0.3028
    6SAPS  O13A  673   2.108   6.269   7.586 -0.0415 -0.2330 -0.2002
    6SAPS  O13B  674   2.167   6.308   7.795 -1.0040 -0.0801  0.2711
    6SAPS   C11  675   2.029   6.572   7.718  0.4865 -0.4704 -0.4225
    6SAPS  H11A  676   2.112   6.581   7.645  1.4197 -2.0370  0.3895
    6SAPS  H11B  677   2.073   6.596   7.816  0.6331  1.7153 -0.9643
    6SAPS     P  678   1.963   6.820   7.729  0.5063 -0.1016 -0.1116
    6SAPS   O13  679   1.896   6.843   7.860  0.1001 -0.2820  0.4911
    6SAPS   O14  680   2.107   6.851   7.732 -0.0236  0.1502 -0.2608
    6SAPS   O12  681   1.934   6.671   7.680  0.1646 -0.2659  0.4987
    6SAPS   O11  682   1.894   6.902   7.615  0.6942  0.0677 -0.0632
    6SAPS    C1  683   1.786   6.855   7.539  0.0964  0.1255  0.1200
    6SAPS    HA  684   1.734   6.765   7.580  0.2076  1.0769  2.5375
    6SAPS    HB  685   1.708   6.934   7.540 -0.7982 -0.5200 -3.7406
    6SAPS    C2  686   1.820   6.844   7.387  0.1220  0.3583  0.1899
    6SAPS    HS  687   1.904   6.774   7.371 -0.8229 -0.9786  0.8962
    6SAPS   O21  688   1.854   6.977   7.336 -0.6504 -0.2332  0.0361
    6SAPS   C21  689   1.982   7.007   7.330  0.0280  0.0628  0.4170
    6SAPS   O22  690   2.075   6.952   7.387  0.0673 -0.3915  0.4586
    6SAPS   C22  691   2.009   7.124   7.232  0.6877  0.2184 -0.8786
    6SAPS   H2R  692   2.029   7.070   7.137  0.3885 -3.4316  0.9649
    6SAPS   H2S  693   1.911   7.177   7.224  0.8440  0.7472  0.4748
    6SAPS    C3  694   1.703   6.797   7.306  0.0077 -0.2200 -0.2206
    6SAPS    HX  695   1.613   6.855   7.335 -0.4954 -0.2344 -1.6720
    6SAPS    HY  696   1.671   6.695   7.337 -1.9737  0.0356 -1.2162
    6SAPS   O31  697   1.728   6.808   7.165 -0.4477  0.3685  0.0757
    6SAPS   C31  698   1.652   6.890   7.090 -0.5062  0.6457  0.0014
    6SAPS   O32  699   1.555   6.955   7.135 -0.2970  0.0397  0.5490
    6SAPS   C32  700   1.709   6.897   6.943  0.0015  0.2714 -0.0066
    6SAPS   H2X  701   1.761   6.798   6.941  1.2777  0.9185  0.0468
    6SAPS   H2Y  702   1.796   6.967   6.943  1.4998 -1.3984 -2.9361
    6SAPS   C23  703   2.113   7.226   7.276 -0.1165  0.5629  0.0096
    6SAPS   H3R  704   2.215   7.192   7.303  0.1596  1.0804 -0.3618
    6SAPS   H3S  705   2.074   7.283   7.363  0.6753  0.0152  0.7341
    6SAPS   C24  706   2.131   7.334   7.169  0.5094 -0.6098 -0.4171
    6SAPS   H4R  707   2.179   7.310   7.072 -1.8588 -0.9188 -1.5933
    6SAPS   H4S  708   2.196   7.417   7.206 -0.5154  0.7877 -1.6297
    6SAPS   C25  709   2.004   7.407   7.142  0.3879 -0.2223  0.6556
    6SAPS   H5R  710   1.948   7.428   7.235  1.1158  0.0193  1.0560
    6SAPS   C26  711   1.951   7.438   7.023  0.3941  0.0433  0.8301
    6SAPS   H6R  712   1.856   7.493   7.035  1.0220  0.7340  3.0193
    6SAPS   C27  713   2.012   7.405   6.887  0.0363 -0.4654 -0.3898
    6SAPS   H7R  714   2.120   7.431   6.887  0.0481 -0.4315  1.1167
    6SAPS   H7S  715   1.968   7.472   6.810  1.4348  1.3673  0.3386
    6SAPS   C28  716   1.997   7.260   6.850  0.0488  0.1958 -0.3522
    6SAPS   H8R  717   1.975   7.197   6.937  1.0083  0.0876 -0.1765
    6SAPS   C29  718   2.013   7.216   6.721  0.0036 -0.1824  0.1086
    6SAPS   H9R  719   2.009   7.109   6.694 -1.2390  0.3969 -2.2733
    6SAPS  C210  720   2.037   7.307   6.600  0.1599 -0.0515  0.1946
    6SAPS  H10R  721   2.017   7.414   6.620  1.0132  0.1618 -0.0872
    6SAPS  H10S  722   1.972   7.261   6.522 -0.3311 -1.2345  1.2639
    6SAPS  C211  723   2.179   7.309   6.556 -0.3354  0.3190 -0.3231
    6SAPS  H11R  724   2.246   7.344   6.635  0.0301  2.5409 -1.5212
    6SAPS  C212  725   2.221   7.228   6.450 -0.1779  0.0087 -0.5685
    6SAPS  H12R  726   2.329   7.229   6.429 -0.1743 -2.3716 -0.8636
    6SAPS  C213  727   2.147   7.152   6.348  0.0558  0.7397 -0.0319
    6SAPS  H13R  728   2.069   7.092   6.400  1.1051 -0.5390  0.1035
    6SAPS  H13S  729   2.220   7.078   6.311 -2.6135 -1.1488 -1.9236
    6SAPS  C214  730   2.095   7.230   6.237  0.5634 -0.3908 -0.4037
    6SAPS  H14R  731   2.107   7.339   6.245  0.2838 -0.4552  1.1688
    6SAPS  C215  732   2.034   7.182   6.130  0.6352  0.2561  0.0033
    6SAPS  H15R  733   2.016   7.247   6.043  0.1823 -0.1760 -0.2346
    6SAPS  C216  734   2.031   7.033   6.106  0.5235  0.3259 -0.2663
    6SAPS  H16R  735   1.942   7.009   6.044  1.0581 -0.3469 -0.7950
    6SAPS  H16S  736   2.033   6.968   6.196  1.7654  2.0025  0.9849
    6SAPS  C217  737   2.152   6.986   6.028 -0.6641 -0.7235  0.3016
    6SAPS  H17R  738   2.159   6.875   6.035 -0.4713 -0.7132  0.2723
    6SAPS  H17S  739   2.248   7.030   6.060  0.3474 -0.5358 -2.6714
    6SAPS  C218  740   2.140   7.012   5.878  0.1340 -0.2141  0.1357
    6SAPS  H18R  741   2.233   7.056   5.836  0.6024  1.8367  3.0044
    6SAPS  H18S  742   2.050   7.076   5.862  0.2921 -0.1616 -0.5571
    6SAPS  C219  743   2.111   6.887   5.791  0.4848  0.1129  0.2709
    6SAPS  H19R  744   2.017   6.835   5.822 -0.4719  1.4761 -0.2385
    6SAPS  H19S  745   2.184   6.805   5.808 -1.3120 -1.4615  0.7772
    6SAPS  C220  746   2.093   6.927   5.641 -0.3433  0.1015 -0.0010
    6SAPS  H20R  747   2.081   6.834   5.582  2.2036  0.7462 -1.6814
    6SAPS  H20S  748   2.188   6.981   5.621 -0.3971  1.1243  2.1888
    6SAPS  H20T  749   2.004   6.993   5.632 -2.2652 -2.2263  0.6415
    6SAPS   C33  750   1.606   6.917   6.826 -0.2756  0.0141 -0.6964
    6SAPS   H3X  751   1.555   7.016   6.830  0.9370  0.6222  0.8594
    6SAPS   H3Y  752   1.533   6.834   6.843  1.0521 -0.7458  1.7716
    6SAPS   C34  753   1.678   6.919   6.689  0.3139 -0.3578  0.3571
    6SAPS   H4X  754   1.715   6.815   6.678  1.0724 -0.0772  0.1922
    6SAPS   H4Y  755   1.764   6.988   6.685  0.1131 -0.1544 -0.8472
    6SAPS   C35  756   1.590   6.942   6.564 -0.4100  0.8502 -0.5637
    6SAPS   H5X  757   1.558   7.048   6.572  1.2286  1.3896 -0.7333
    6SAPS   H5Y  758   1.497   6.881   6.564  0.0675  0.1038 -0.0834
    6SAPS   C36  759   1.668   6.912   6.440  0.3827  0.5326  0.1802
    6SAPS   H6X  760   1.677   6.802   6.425 -0.2229  0.1867  2.0634
    6SAPS   H6Y  761   1.770   6.949   6.466  1.1410 -0.5355 -1.1187
    6SAPS   C37  762   1.610   6.969   6.312 -0.9055 -0.5737 -0.1196
    6SAPS   H7X  763   1.595   7.077   6.332  0.6280 -0.5016  0.8126
    6SAPS   H7Y  764   1.505   6.937   6.292 -1.1037  1.1425 -2.1704
    6SAPS   C38  765   1.682   6.945   6.184 -0.2025  0.1067 -0.1015
    6SAPS   H8X  766   1.708   6.837   6.181  0.2419  0.1136  2.0162
    6SAPS   H8Y  767   1.778   7.001   6.180 -0.4595  0.5350 -0.2933
    6SAPS   C39  768   1.606   6.980   6.058 -0.2762 -0.8400 -0.1175
    6SAPS   H9X  769   1.541   7.069   6.075 -0.1456 -0.2935 -2.2336
    6SAPS   H9Y  770   1.540   6.893   6.038 -1.7314 -0.4333  2.4369
    6SAPS  C310  771   1.701   6.999   5.941 -0.1933  0.5037 -0.3100
    6SAPS  H10X  772   1.766   6.910   5.955 -1.2798  0.1951  4.0653
    6SAPS  H10Y  773   1.762   7.089   5.963  1.1275 -0.6050  0.7506
    6SAPS  C311  774   1.645   7.026   5.793 -0.5893  0.0770 -0.4730
    6SAPS  H11X  775   1.540   7.060   5.806 -0.6844 -0.2217 -0.4577
    6SAPS  H11Y  776   1.638   6.932   5.733 -2.6774  0.3187 -0.6978
    6SAPS  C312  777   1.733   7.125   5.710  0.6895 -0.3487 -0.8193
    6SAPS  H12X  778   1.825   7.080   5.667  0.9327 -0.4938 -0.1612
    6SAPS  H12Y  779   1.744   7.217   5.771 -1.9268 -0.5619  0.0887
    6SAPS  C313  780   1.666   7.169   5.579 -0.2408 -1.1154 -0.0280
    6SAPS  H13X  781   1.565   7.213   5.594  0.1697  2.4208 -5.0462
    6SAPS  H13Y  782   1.659   7.075   5.519 -0.5623 -0.5715 -0.8470
    6SAPS  C314  783   1.747   7.265   5.484  0.5402 -0.1091  0.7118
    6SAPS  H14X  784   1.756   7.355   5.549 -3.5333 -1.5482  3.7358
    6SAPS  H14Y  785   1.675   7.283   5.402 -0.4538  2.1834  1.9910
    6SAPS  C315  786   1.886   7.219   5.440 -0.4158 -0.5837  0.2366
    6SAPS  H15X  787   1.887   7.108   5.426 -0.0554 -0.7931  1.7787
    6SAPS  H15Y  788   1.964   7.252   5.511 -1.6814  1.7222  0.6504
    6SAPS  C316  789   1.922   7.295   5.310  0.3687 -0.3868 -0.1639
    6SAPS  H16X  790   1.904   7.402   5.333  0.0421 -0.5832  0.5200
    6SAPS  H16Y  791   1.846   7.277   5.231 -0.8201  1.2690  0.5662
    6SAPS  C317  792   2.058   7.251   5.259 -0.0770  0.3085 -0.1670
    6SAPS  H17X  793   2.101   7.321   5.184  0.5198 -0.3473 -0.4481
    6SAPS  H17Y  794   2.042   7.154   5.208 -2.6120  0.2352  0.6264
    6SAPS  C318  795   2.171   7.233   5.355  0.2858 -0.5277 -0.3979
    6SAPS  H18X  796   2.264   7.204   5.302  1.2090 -0.1106  0.9641
    6SAPS  H18Y  797   2.149   7.157   5.433 -0.4292 -0.5638 -0.6276
    6SAPS  H18Z  798   2.196   7.328   5.406 -0.8463  0.0914 -0.9579
    7SAPS     N  799   4.212   0.453   7.600 -0.5299  0.0901  0.2873
    7SAPS   HN1  800   4.231   0.475   7.500 -0.0271 -0.1544  0.3246
    7SAPS   HN2  801   4.233   0.545   7.644 -1.8145  2.8540 -4.2316
    7SAPS   HN3  802   4.273   0.376   7.635  0.8886  1.0510 -0.0010
    7SAPS   C12  803   4.066   0.422   7.605 -0.5807 -0.2663 -0.2378
    7SAPS  H12A  804   4.063   0.323   7.563  3.2630  0.0229 -1.6382
    7SAPS   C13  805   4.001   0.409   7.741  0.3906 -0.7434  0.5540
    7SAPS  O13A  806   4.071   0.448   7.840 -0.1543  0.5842  0.4353
    7SAPS  O13B  807   3.878   0.377   7.747 -0.0730 -0.0732 -0.2502
    7SAPS   C11  808   3.973   0.510   7.514 -0.0069  0.0999 -0.6952
    7SAPS  H11A  809   3.870   0.469   7.521  0.7253 -2.1132 -2.0760
    7SAPS  H11B  810   4.013   0.492   7.412  2.7787 -1.2609  0.5242
    7SAPS     P  811   3.871   0.752   7.498 -0.1596 -0.2378  0.1821
    7SAPS   O13  812   3.766   0.693   7.412  0.2236 -0.4541  0.2487
    7SAPS   O14  813   3.821   0.851   7.599 -0.3434 -0.1467 -0.6395
    7SAPS   O12  814   3.975   0.650   7.558  0.4748  0.8243 -0.3658
    7SAPS   O11  815   3.956   0.859   7.408  0.5321 -0.1760  0.7538
    7SAPS    C1  816   4.091   0.838   7.368 -0.0912  0.4388  0.7059
    7SAPS    HA  817   4.156   0.910   7.420 -0.3468  0.8179  0.5035
    7SAPS    HB  818   4.135   0.742   7.404 -0.6004 -0.2087 -0.3217
    7SAPS    C2  819   4.098   0.844   7.216 -0.7908 -0.2592  0.4795
    7SAPS    HS  820   4.035   0.933   7.198  1.3137  1.4666  1.2223
    7SAPS   O21  821   4.053   0.717   7.159 -0.0504  0.3455  0.2480
    7SAPS   C21  822   3.934   0.711   7.104 -0.1136  0.0109 -0.1408
    7SAPS   O22  823   3.868   0.808   7.071  0.1516 -0.4117  0.7550
    7SAPS   C22  824   3.892   0.569   7.068 -0.1698  0.7476 -0.6713
    7SAPS   H2R  825   3.890   0.524   7.170 -3.8862  1.9334 -0.0579
    7SAPS   H2S  826   3.787   0.577   7.034 -0.5873 -0.1177  0.3721
    7SAPS    C3  827   4.246   0.869   7.178  0.1120 -0.2698 -0.3229
    7SAPS    HX  828   4.310   0.792   7.227  1.4609 -0.4580 -2.2652
    7SAPS    HY  829   4.293   0.966   7.206 -1.5121 -0.0963  2.1696
    7SAPS   O31  830   4.261   0.849   7.038  0.2796 -0.8375  0.0579
    7SAPS   C31  831   4.213   0.945   6.952  0.0608 -0.4009  0.6398
    7SAPS   O32  832   4.165   1.053   6.985 -0.0341  0.0702  0.0285
    7SAPS   C32  833   4.246   0.903   6.809  0.6164  0.5046  0.3669
    7SAPS   H2X  834   4.342   0.849   6.820  0.2552  0.0075  1.1377
    7SAPS   H2Y  835   4.255   0.988   6.738 -1.5252  0.9108  0.4980
    7SAPS   C23  836   3.994   0.503   6.972  0.1512  0.6741 -0.1228
    7SAPS   H3R  837   4.092   0.515   7.024 -0.4108  1.5770  0.7517
    7SAPS   H3S  838   3.990   0.548   6.871  1.3821  0.2342 -0.3911
    7SAPS   C24  839   3.959   0.358   6.968  0.5148  0.6563  0.0047
    7SAPS   H4R  840   3.982   0.316   7.069 -2.0904  1.9977  1.2798
    7SAPS   H4S  841   4.039   0.315   6.904 -0.5183 -0.9290 -0.2931
    7SAPS   C25  842   3.812   0.327   6.933 -0.2926  0.9660  0.0520
    7SAPS   H5R  843   3.737   0.338   7.013 -2.1664 -0.0071 -1.4859
    7SAPS   C26  844   3.764   0.327   6.806  0.3797  0.6198 -0.0648
    7SAPS   H6R  845   3.658   0.302   6.794  0.1164  2.0191 -1.0102
    7SAPS   C27  846   3.848   0.333   6.678 -0.2120  0.8282 -0.0713
    7SAPS   H7R  847   3.951   0.306   6.706 -0.8251 -0.6114  0.9340
    7SAPS   H7S  848   3.835   0.434   6.634 -2.2579  0.8011  0.3341
    7SAPS   C28  849   3.815   0.223   6.575 -0.6011 -0.1244 -0.3712
    7SAPS   H8R  850   3.818   0.124   6.621 -1.0198  0.2758  0.5331
    7SAPS   C29  851   3.774   0.244   6.448  0.0405 -0.6291 -1.5724
    7SAPS   H9R  852   3.747   0.153   6.392 -0.3060 -0.7776 -1.1714
    7SAPS  C210  853   3.768   0.376   6.375 -0.4316  0.5824 -0.0744
    7SAPS  H10R  854   3.760   0.462   6.445 -0.7395  0.3991  0.1200
    7SAPS  H10S  855   3.672   0.377   6.319 -1.8408 -0.6900  2.1621
    7SAPS  C211  856   3.887   0.383   6.282 -0.5765  0.1963 -0.4897
    7SAPS  H11R  857   3.981   0.401   6.338  0.1794  0.1688 -1.7206
    7SAPS  C212  858   3.899   0.381   6.153 -0.0159 -0.1367  0.5648
    7SAPS  H12R  859   3.997   0.404   6.108 -0.2884  1.0273  0.5292
    7SAPS  C213  860   3.798   0.363   6.046  0.1221  0.1297  0.1541
    7SAPS  H13R  861   3.816   0.419   5.953 -0.6085  0.5486  0.2519
    7SAPS  H13S  862   3.698   0.395   6.082 -0.1012  0.4169 -0.7087
    7SAPS  C214  863   3.786   0.208   6.026  0.0681  0.0155 -0.2867
    7SAPS  H14R  864   3.761   0.159   6.122 -0.2827  1.8146  0.5915
    7SAPS  C215  865   3.832   0.134   5.927  0.2645  0.3874  0.9416
    7SAPS  H15R  866   3.810   0.026   5.934  0.6122  0.2104 -0.5042
    7SAPS  C216  867   3.901   0.176   5.796  0.0574 -0.5623 -0.0745
    7SAPS  H16R  868   4.011   0.185   5.810  0.2671 -1.9070 -0.6870
    7SAPS  H16S  869   3.856   0.265   5.748 -2.7180 -1.6451  0.3394
    7SAPS  C217  870   3.886   0.062   5.688  0.5698  0.3597 -0.9829
    7SAPS  H17R  871   3.915   0.104   5.589  0.7369 -0.7548 -1.4226
    7SAPS  H17S  872   3.781   0.026   5.682  0.2856  1.1248 -0.8111
    7SAPS  C218  873   3.976  -0.065   5.715  0.0615 -0.0044 -0.3202
    7SAPS  H18R  874   3.963  -0.091   5.822  0.2524  2.4112  0.3382
    7SAPS  H18S  875   4.084  -0.039   5.709  0.6934 -1.9572  1.1818
    7SAPS  C219  876   3.944  -0.183   5.615 -0.5254 -0.5134  1.0157
    7SAPS  H19R  877   4.042  -0.227   5.586 -0.9906 -0.8777 -0.0343
    7SAPS  H19S  878   3.901  -0.133   5.526  1.6789  1.0237  0.7210
    7SAPS  C220  879   3.872  -0.300   5.679  0.2454  0.0142 -0.0338
    7SAPS  H20R  880   3.929  -0.345   5.763  1.4389  1.0738 -0.2419
    7SAPS  H20S  881   3.839  -0.371   5.600  0.1131  0.5672 -0.4791
    7SAPS  H20T  882   3.779  -0.253   5.718  1.3686  3.0363 -0.6694
    7SAPS   C33  883   4.139   0.800   6.763 -0.3321 -0.1889 -0.5086
    7SAPS   H3X  884   4.050   0.859   6.732 -0.2041 -0.2476 -0.9997
    7SAPS   H3Y  885   4.111   0.735   6.849 -1.2939  0.6379 -0.1745
    7SAPS   C34  886   4.189   0.709   6.651 -0.0900 -0.2805 -0.3549
    7SAPS   H4X  887   4.267   0.654   6.708  2.1565  2.5920 -0.4022
    7SAPS   H4Y  888   4.247   0.773   6.581 -1.3501 -0.5606 -1.7077
    7SAPS   C35  889   4.087   0.609   6.596  0.4442 -0.1444  0.3062
    7SAPS   H5X  890   4.055   0.539   6.676  1.4429  1.0858  1.8428
    7SAPS   H5Y  891   4.131   0.544   6.517 -1.7610  1.0083 -2.0134
    7SAPS   C36  892   3.960   0.678   6.536 -0.1899  0.1143  0.0324
    7SAPS   H6X  893   3.900   0.733   6.612  1.7294  3.2777 -0.5346
    7SAPS   H6Y  894   3.890   0.605   6.491  1.5012 -0.5454 -1.6907
    7SAPS   C37  895   3.989   0.779   6.420 -0.0855 -0.3980  0.3418
    7SAPS   H7X  896   4.041   0.865   6.467  1.6308 -0.9008 -0.5460
    7SAPS   H7Y  897   3.897   0.808   6.364  1.0624  1.3100 -0.7811
    7SAPS   C38  898   4.090   0.734   6.311  0.3725 -0.6918  0.2264
    7SAPS   H8X  899   4.049   0.644   6.261 -1.1345  1.0944 -1.9932
    7SAPS   H8Y  900   4.187   0.709   6.359  2.5522  1.0646 -2.8621
    7SAPS   C39  901   4.114   0.839   6.205  0.1120  0.8369 -0.2915
    7SAPS   H9X  902   4.154   0.928   6.258  0.5054  0.3108  0.3123
    7SAPS   H9Y  903   4.014   0.868   6.165 -1.0298 -3.0498 -0.7130
    7SAPS  C310  904   4.202   0.800   6.083  0.3213 -0.0677 -0.1226
    7SAPS  H10X  905   4.152   0.721   6.023  0.2942 -1.0398  1.1357
    7SAPS  H10Y  906   4.297   0.758   6.119 -0.0215 -0.4022  0.4049
    7SAPS  C311  907   4.234   0.923   5.994 -0.0973 -0.4833 -0.3894
    7SAPS  H11X  908   4.334   0.899   5.954 -0.3769  0.2937 -1.5949
    7SAPS  H11Y  909   4.247   1.017   6.053 -0.9306 -1.3629  1.2800
    7SAPS  C312  910   4.118   0.957   5.888  0.0633  0.1667 -0.4852
    7SAPS  H12X  911   4.031   0.996   5.945 -0.0668  0.0883 -0.6289
    7SAPS  H12Y  912   4.093   0.854   5.855  1.6280 -0.7853  1.1238
    7SAPS  C313  913   4.153   1.062   5.784  0.2259  0.1540 -0.2817
    7SAPS  H13X  914   4.204   1.145   5.838 -2.0708  1.3321  0.1767
    7SAPS  H13Y  915   4.068   1.105   5.727  0.7338  0.8784 -0.5146
    7SAPS  C314  916   4.258   0.995   5.685 -0.0590 -0.6541  0.0024
    7SAPS  H14X  917   4.211   0.900   5.651  0.8435 -0.4563 -1.9455
    7SAPS  H14Y  918   4.352   0.970   5.739  0.3913  1.2901  0.2052
    7SAPS  C315  919   4.292   1.079   5.561  0.1790  0.9424  0.7858
    7SAPS  H15X  920   4.338   1.176   5.591  1.0811  0.8230 -0.1713
    7SAPS  H15Y  921   4.202   1.123   5.512  0.2613 -0.6466 -0.9168
    7SAPS  C316  922   4.369   1.001   5.455  0.4958 -0.5282 -0.1731
    7SAPS  H16X  923   4.331   0.898   5.442  0.7038 -0.6996  0.5690
    7SAPS  H16Y  924   4.477   0.985   5.475  1.3330  1.3459 -2.6536
    7SAPS  C317  925   4.351   1.071   5.317 -0.3290 -0.2202  0.0911
    7SAPS  H17X  926   4.390   1.174   5.324 -0.1217 -0.3424  0.7963
    7SAPS  H17Y  927   4.252   1.063   5.267  0.2110 -1.2275 -0.8787
    7SAPS  C318  928   4.445   1.008   5.209 -0.1608  0.1993 -0.3677
    7SAPS  H18X  929   4.445   1.061   5.112  0.6371 -0.5768 -0.8025
    7SAPS  H18Y  930   4.420   0.900   5.198  1.1596  0.0187 -1.7844
    7SAPS  H18Z  931   4.540   1.015   5.266 -0.9462  1.9032  0.8200
    8SAPS     N  932   2.621   2.315   7.529 -0.2413 -0.1412 -0.3557
    8SAPS   HN1  933   2.690   2.385   7.497 -1.2190  1.3040  0.5496
    8SAPS   HN2  934   2.576   2.264   7.449  2.1202 -1.6267 -0.8251
    8SAPS   HN3  935   2.543   2.370   7.571 -0.2349  0.2080 -0.7887
    8SAPS   C12  936   2.668   2.212   7.633 -0.2527  0.1988 -0.4311
    8SAPS  H12A  937   2.745   2.152   7.587  0.2134  1.6249 -1.5864
    8SAPS   C13  938   2.738   2.274   7.759  0.3489  0.0520 -0.0044
    8SAPS  O13A  939   2.784   2.389   7.749 -0.2299  0.3386 -0.1418
    8SAPS  O13B  940   2.769   2.199   7.857 -0.0454  0.4572  1.0146
    8SAPS   C11  941   2.543   2.127   7.686  0.0550 -0.6326 -0.0540
    8SAPS  H11A  942   2.484   2.200   7.745 -0.1145 -1.2343  0.5407
    8SAPS  H11B  943   2.585   2.046   7.749 -1.3975 -0.8600  0.6557
    8SAPS     P  944   2.347   1.983   7.633  0.2467  0.3134 -0.3989
    8SAPS   O13  945   2.403   1.882   7.722 -0.1253  0.6814  0.1630
    8SAPS   O14  946   2.231   2.060   7.691  0.4106 -0.0746  0.1666
    8SAPS   O12  947   2.454   2.085   7.579 -0.5221  0.1288  0.0864
    8SAPS   O11  948   2.309   1.921   7.496  0.3199  0.5428  0.0457
    8SAPS    C1  949   2.400   1.826   7.420  0.6430 -0.1200 -0.2363
    8SAPS    HA  950   2.486   1.881   7.377  0.7716 -1.3185 -1.5820
    8SAPS    HB  951   2.447   1.748   7.484  1.2519 -0.5374 -1.1801
    8SAPS    C2  952   2.325   1.769   7.295  0.0410  0.1256  0.0924
    8SAPS    HS  953   2.387   1.686   7.254 -0.7882 -0.6111  0.3060
    8SAPS   O21  954   2.325   1.882   7.205 -0.3205  0.4558  0.9464
    8SAPS   C21  955   2.308   1.863   7.072  0.1413 -0.1411  0.5144
    8SAPS   O22  956   2.279   1.757   7.014 -0.9740 -0.0662  0.2747
    8SAPS   C22  957   2.350   1.982   6.993 -0.1131 -0.1222  0.8143
    8SAPS   H2R  958   2.282   2.066   7.020  0.1976  0.8987 -1.4347
    8SAPS   H2S  959   2.449   2.018   7.028 -0.9379  3.3264 -0.0058
    8SAPS    C3  960   2.183   1.729   7.329  0.7470 -0.2810  1.0130
    8SAPS    HX  961   2.119   1.819   7.342 -0.3947 -0.9163 -0.0060
    8SAPS    HY  962   2.190   1.686   7.432  1.1331  0.1732  1.1794
    8SAPS   O31  963   2.121   1.632   7.231 -0.0526 -0.4463 -0.5231
    8SAPS   C31  964   1.993   1.637   7.224 -0.4955 -0.4533  0.5028
    8SAPS   O32  965   1.912   1.713   7.269  0.0700 -0.3189 -0.7712
    8SAPS   C32  966   1.944   1.514   7.144 -0.7113  0.9751  0.2545
    8SAPS   H2X  967   1.846   1.490   7.190 -1.0269 -0.0824 -0.9361
    8SAPS   H2Y  968   2.012   1.431   7.170 -1.5565  0.4913  0.9736
    8SAPS   C23  969   2.330   1.977   6.839  0.2479 -0.0206  0.2085
    8SAPS   H3R  970   2.285   2.069   6.796  1.1191  0.2382 -0.1667
    8SAPS   H3S  971   2.261   1.896   6.806 -2.0456  1.5497  0.9773
    8SAPS   C24  972   2.470   1.958   6.759  0.0641  0.3719 -0.4588
    8SAPS   H4R  973   2.522   1.865   6.792  0.3811  0.1846 -1.4565
    8SAPS   H4S  974   2.535   2.046   6.777 -0.0299  0.8126 -2.1640
    8SAPS   C25  975   2.443   1.944   6.612 -1.0077 -0.5920  0.2781
    8SAPS   H5R  976   2.341   1.971   6.580  0.0414  1.2004 -1.8749
    8SAPS   C26  977   2.518   1.880   6.520 -0.8323 -0.2646  0.1872
    8SAPS   H6R  978   2.494   1.894   6.414  1.2835  1.6305 -0.1182
    8SAPS   C27  979   2.655   1.838   6.548  0.0279 -0.0620 -0.3687
    8SAPS   H7R  980   2.642   1.736   6.590  0.8780  0.6134  1.6556
    8SAPS   H7S  981   2.699   1.898   6.631 -0.4200 -0.1103 -0.0924
    8SAPS   C28  982   2.733   1.844   6.422 -0.6215  0.5480 -0.4488
    8SAPS   H8R  983   2.768   1.944   6.394 -1.4756  0.5169 -1.6829
    8SAPS   C29  984   2.782   1.745   6.346  0.6633  0.2049  0.0378
    8SAPS   H9R  985   2.823   1.781   6.250 -2.3199 -0.2729 -1.5459
    8SAPS  C210  986   2.769   1.596   6.366  0.1991  1.0902  0.0313
    8SAPS  H10R  987   2.704   1.533   6.301 -1.2374 -1.0896  3.3174
    8SAPS  H10S  988   2.737   1.577   6.470 -3.2026 -2.8247 -1.4467
    8SAPS  C211  989   2.907   1.536   6.344 -0.6800  0.0598 -0.6975
    8SAPS  H11R  990   2.975   1.548   6.429 -1.4510  2.8837 -0.3660
    8SAPS  C212  991   2.964   1.504   6.225 -0.8931  0.7193  0.2315
    8SAPS  H12R  992   3.064   1.459   6.229 -1.6513 -1.3222 -1.7095
    8SAPS  C213  993   2.909   1.508   6.084  0.0489  0.2488 -0.0464
    8SAPS  H13R  994   2.994   1.540   6.020 -0.7909 -0.7207 -1.7239
    8SAPS  H13S  995   2.830   1.586   6.078 -0.5148 -0.2143  0.9220
    8SAPS  C214  996   2.846   1.382   6.030 -0.2026 -0.0372  0.1002
    8SAPS  H14R  997   2.860   1.290   6.088  2.8370 -0.7520 -1.5334
    8SAPS  C215  998   2.772   1.371   5.918  0.1500 -0.3214  0.7214
    8SAPS  H15R  999   2.703   1.289   5.896 -1.8349  1.9234 -2.3946
    8SAPS  C216 1000   2.739   1.487   5.823 -0.0296 -0.1878 -0.0810
    8SAPS  H16R 1001   2.744   1.445   5.720 -2.4652  0.5713 -0.5667
    8SAPS  H16S 1002   2.806   1.575   5.829  1.7792 -1.3651 -1.7914
    8SAPS  C217 1003   2.602   1.555   5.845 -0.2039 -0.2107  0.6401
    8SAPS  H17R 1004   2.523   1.478   5.828 -2.8844  2.3237  0.8779
    8SAPS  H17S 1005   2.584   1.632   5.767  1.6328  0.2049  0.5771
    8SAPS  C218 1006   2.582   1.619   5.976  0.6175 -0.0345  0.0663
    8SAPS  H18R 1007   2.660   1.696   5.991  0.8062  0.1295 -1.6445
    8SAPS  H18S 1008   2.585   1.539   6.054  2.1549  0.7077  0.7989
    8SAPS  C219 1009   2.441   1.682   5.987  0.7041 -0.3504  0.0316
    8SAPS  H19R 1010   2.367   1.600   5.989  0.5536 -0.2081  0.4213
    8SAPS  H19S 1011   2.414   1.744   5.899 -0.3316  0.0273  0.6018
    8SAPS  C220 1012   2.423   1.758   6.119  0.2723 -0.0459  0.1343
    8SAPS  H20R 1013   2.432   1.682   6.200 -0.2779  0.4002  0.6272
    8SAPS  H20S 1014   2.324   1.808   6.123  0.8030  1.2722 -1.9268
    8SAPS  H20T 1015   2.509   1.826   6.135  2.0452 -1.9422 -0.8255
    8SAPS   C33 1016   1.950   1.528   6.992  0.5435 -0.4055  0.2888
    8SAPS   H3X 1017   2.055   1.550   6.963  1.9929 -2.1310  3.7109
    8SAPS   H3Y 1018   1.895   1.623   6.970  0.8049 -0.1720  0.6337
    8SAPS   C34 1019   1.890   1.409   6.916 -0.9591 -0.4405 -0.1766
    8SAPS   H4X 1020   1.783   1.386   6.933 -0.8740 -0.1758  0.7298
    8SAPS   H4Y 1021   1.945   1.314   6.931  0.3726  0.5187  1.1779
    8SAPS   C35 1022   1.898   1.443   6.765 -0.1247  0.4377  0.6277
    8SAPS   H5X 1023   2.008   1.438   6.750 -0.0009 -1.6534  1.8865
    8SAPS   H5Y 1024   1.861   1.545   6.739  1.0421  0.3822 -1.4982
    8SAPS   C36 1025   1.829   1.341   6.671  0.5891  0.0264 -0.7161
    8SAPS   H6X 1026   1.719   1.353   6.684  0.6394  0.0335 -0.2766
    8SAPS   H6Y 1027   1.865   1.244   6.710 -0.1274  0.9559  2.6016
    8SAPS   C37 1028   1.876   1.347   6.526 -0.1903 -0.5654 -0.4355
    8SAPS   H7X 1029   1.848   1.251   6.477 -0.2866 -1.2522  0.9359
    8SAPS   H7Y 1030   1.987   1.353   6.521 -0.1239  0.3137  1.4654
    8SAPS   C38 1031   1.812   1.471   6.460 -0.1753  0.0487  0.1060
    8SAPS   H8X 1032   1.860   1.562   6.501 -2.5843  1.2447  0.4375
    8SAPS   H8Y 1033   1.702   1.480   6.476 -0.1926  1.6590 -0.6895
    8SAPS   C39 1034   1.860   1.488   6.312  0.5398 -0.1501 -0.1889
    8SAPS   H9X 1035   1.970   1.493   6.310  0.5638 -0.4820 -1.8025
    8SAPS   H9Y 1036   1.839   1.591   6.275 -1.5207 -0.0370  1.1304
    8SAPS  C310 1037   1.789   1.396   6.211  0.0922  0.9173  0.2701
    8SAPS  H10X 1038   1.687   1.437   6.196 -0.8138 -0.9980  0.9086
    8SAPS  H10Y 1039   1.789   1.300   6.267 -0.3686  1.7438  1.7476
    8SAPS  C311 1040   1.868   1.386   6.079  0.0239 -0.4327 -0.0905
    8SAPS  H11X 1041   1.961   1.327   6.096  1.3677  1.1487 -1.6129
    8SAPS  H11Y 1042   1.910   1.482   6.042 -1.3205 -0.1557 -0.9839
    8SAPS  C312 1043   1.789   1.322   5.966 -0.0359  0.1170 -0.0509
    8SAPS  H12X 1044   1.705   1.391   5.942  0.1121  0.0015 -0.9160
    8SAPS  H12Y 1045   1.748   1.228   6.009 -1.6289  0.8531  0.0990
    8SAPS  C313 1046   1.870   1.300   5.838 -0.3184  0.4294  0.2575
    8SAPS  H13X 1047   1.802   1.257   5.762  3.0653 -0.7206 -2.3970
    8SAPS  H13Y 1048   1.939   1.217   5.864 -0.7187  0.3761  1.1974
    8SAPS  C314 1049   1.930   1.424   5.776 -0.8017 -0.1024  0.7904
    8SAPS  H14X 1050   1.988   1.486   5.848 -1.3805  0.3093  0.9128
    8SAPS  H14Y 1051   1.836   1.477   5.747 -1.1681 -2.6341 -3.3699
    8SAPS  C315 1052   2.013   1.395   5.648  0.6228  0.1576 -0.5427
    8SAPS  H15X 1053   2.097   1.323   5.663  0.7609  0.1538 -1.2817
    8SAPS  H15Y 1054   2.057   1.486   5.602  0.4973 -0.6203 -2.3059
    8SAPS  C316 1055   1.920   1.341   5.537  0.0636  0.2419  0.6611
    8SAPS  H16X 1056   1.816   1.377   5.553  0.6854  2.2048  0.4870
    8SAPS  H16Y 1057   1.905   1.232   5.554 -0.8639  0.4950  1.5806
    8SAPS  C317 1058   1.973   1.372   5.402 -0.0143  0.4803 -0.3254
    8SAPS  H17X 1059   2.082   1.354   5.393  0.0272  0.0899  0.8422
    8SAPS  H17Y 1060   1.948   1.478   5.380  1.2887  1.3197  1.8980
    8SAPS  C318 1061   1.915   1.279   5.291  0.2434  0.1016  0.8005
    8SAPS  H18X 1062   1.961   1.306   5.193 -0.4405  0.9939  0.7141
    8SAPS  H18Y 1063   1.805   1.293   5.285  0.0897 -0.6487  1.6297
    8SAPS  H18Z 1064   1.936   1.174   5.318 -2.2544 -0.4707  0.7457
    9SAPS     N 1065   0.324   0.115   8.141  0.1747  0.6598 -0.1033
    9SAPS   HN1 1066   0.300   0.105   8.040  0.7986  0.3681 -0.2308
    9SAPS   HN2 1067   0.338   0.218   8.151 -1.1773  1.0072 -1.5182
    9SAPS   HN3 1068   0.414   0.067   8.161  1.0502  0.9304 -2.9070
    9SAPS   C12 1069   0.217   0.045   8.225  0.8157 -0.1818  0.3171
    9SAPS  H12A 1070   0.214  -0.057   8.190  1.0902  0.4461 -1.6605
    9SAPS   C13 1071   0.234   0.052   8.381  0.0072  0.0784  0.0320
    9SAPS  O13A 1072   0.335   0.125   8.425  0.1986  0.2697  0.4527
    9SAPS  O13B 1073   0.160  -0.010   8.457  0.5383 -0.1218 -0.2660
    9SAPS   C11 1074   0.078   0.104   8.201 -0.2381 -0.0359 -0.8022
    9SAPS  H11A 1075   0.069   0.201   8.255 -1.1515  0.1245 -1.2368
    9SAPS  H11B 1076  -0.003   0.036   8.235 -1.6371  1.3573 -1.2292
    9SAPS     P 1077  -0.088   0.149   8.007 -0.0213  0.5744 -0.2168
    9SAPS   O13 1078  -0.167   0.040   8.066 -0.0144  0.0425  0.1414
    9SAPS   O14 1079  -0.131   0.288   8.023 -0.1451 -0.4040 -0.1503
    9SAPS   O12 1080   0.062   0.144   8.066 -0.2456  0.1159  0.4152
    9SAPS   O11 1081  -0.053   0.110   7.852 -0.7072  0.5972  0.4714
    9SAPS    C1 1082  -0.164   0.129   7.760  0.5027 -0.4729 -0.4530
    9SAPS    HA 1083  -0.265   0.109   7.802  0.8160  0.1408  0.6397
    9SAPS    HB 1084  -0.172   0.237   7.735  2.7163  0.3316  1.8714
    9SAPS    C2 1085  -0.130   0.055   7.625  0.0826 -0.6418  0.1958
    9SAPS    HS 1086  -0.108  -0.049   7.658 -1.0068 -0.3813  1.8726
    9SAPS   O21 1087  -0.027   0.120   7.560  0.2141  0.3221  0.2180
    9SAPS   C21 1088   0.056   0.038   7.486 -0.6401  0.4444 -0.5421
    9SAPS   O22 1089   0.040  -0.080   7.475  0.1638 -0.0742 -0.0079
    9SAPS   C22 1090   0.151   0.114   7.401  0.1920 -0.5754 -0.2399
    9SAPS   H2R 1091   0.160   0.221   7.428  0.9466 -0.8446  0.6180
    9SAPS   H2S 1092   0.257   0.084   7.419  0.6393  0.2129 -1.4268
    9SAPS    C3 1093  -0.256   0.050   7.538 -0.0178 -0.1394  0.2266
    9SAPS    HX 1094  -0.268   0.158   7.515 -1.9414 -0.1179  1.0979
    9SAPS    HY 1095  -0.351   0.029   7.591 -0.8393 -0.9428 -1.4609
    9SAPS   O31 1096  -0.240  -0.023   7.412 -0.4898  0.9023 -0.3673
    9SAPS   C31 1097  -0.231  -0.153   7.427 -0.4254 -0.5350  0.6014
    9SAPS   O32 1098  -0.256  -0.209   7.532  0.2667 -0.0000 -0.6483
    9SAPS   C32 1099  -0.201  -0.222   7.294  0.0068  0.2211  0.1664
    9SAPS   H2X 1100  -0.091  -0.213   7.285  0.2305  0.2060  2.3254
    9SAPS   H2Y 1101  -0.254  -0.173   7.210  1.5543  1.2098 -0.2579
    9SAPS   C23 1102   0.131   0.096   7.249 -0.0015 -0.2176 -0.3414
    9SAPS   H3R 1103   0.163   0.188   7.197 -0.3535 -0.4596 -1.0003
    9SAPS   H3S 1104   0.025   0.091   7.215 -0.2659  0.1546  0.4217
    9SAPS   C24 1105   0.226  -0.009   7.185 -0.1695 -0.1874  0.4456
    9SAPS   H4R 1106   0.316  -0.002   7.250 -0.4705 -0.4970  0.9028
    9SAPS   H4S 1107   0.248   0.014   7.079 -1.8733 -0.6751 -0.0483
    9SAPS   C25 1108   0.157  -0.143   7.188 -0.5141  0.1248 -0.0562
    9SAPS   H5R 1109   0.177  -0.184   7.288  3.6957  0.1194 -0.7141
    9SAPS   C26 1110   0.079  -0.200   7.091  0.1015 -0.3922 -0.4429
    9SAPS   H6R 1111   0.052  -0.306   7.089 -0.9125 -0.2038  0.9627
    9SAPS   C27 1112   0.039  -0.124   6.964  0.4263  1.0951 -0.1974
    9SAPS   H7R 1113   0.081  -0.022   6.977  2.1982  0.4364 -0.4809
    9SAPS   H7S 1114  -0.071  -0.112   6.962 -0.0400 -2.1979 -0.0213
    9SAPS   C28 1115   0.073  -0.202   6.844 -0.9885 -1.2563 -0.0950
    9SAPS   H8R 1116   0.030  -0.303   6.842 -2.1973 -0.7477 -1.6851
    9SAPS   C29 1117   0.165  -0.159   6.759 -0.1907  0.1054 -0.0792
    9SAPS   H9R 1118   0.196  -0.226   6.677 -0.0969 -0.8522  0.7231
    9SAPS  C210 1119   0.230  -0.021   6.762  0.2999  0.8017 -0.3299
    9SAPS  H10R 1120   0.326  -0.030   6.707 -0.3573  1.2745 -1.5910
    9SAPS  H10S 1121   0.254   0.013   6.865  0.2978 -0.9625  0.2934
    9SAPS  C211 1122   0.147   0.090   6.699  0.7293  1.2130  0.6145
    9SAPS  H11R 1123   0.097   0.150   6.777 -0.9644  0.4374  0.1743
    9SAPS  C212 1124   0.117   0.115   6.573 -0.8317 -0.2697  0.3083
    9SAPS  H12R 1125   0.058   0.204   6.545 -0.7015 -0.4898 -0.7136
    9SAPS  C213 1126   0.147   0.043   6.451  0.6934  0.0326 -0.2889
    9SAPS  H13R 1127   0.060   0.034   6.383 -0.8283  2.4421  1.1882
    9SAPS  H13S 1128   0.174  -0.064   6.460  0.3718 -0.2939 -2.5801
    9SAPS  C214 1129   0.265   0.110   6.385 -0.2565  0.1646  0.3004
    9SAPS  H14R 1130   0.286   0.213   6.417 -0.7617  0.8345 -1.3981
    9SAPS  C215 1131   0.352   0.053   6.293 -0.4586  0.7972 -0.5708
    9SAPS  H15R 1132   0.439   0.107   6.251  0.5706  0.5910  1.1940
    9SAPS  C216 1133   0.349  -0.096   6.254 -0.8111  0.5486 -0.3425
    9SAPS  H16R 1134   0.287  -0.157   6.324 -1.0629 -0.0411 -1.0602
    9SAPS  H16S 1135   0.445  -0.145   6.281 -1.2804 -0.2935 -0.1524
    9SAPS  C217 1136   0.319  -0.122   6.107  0.2400 -0.0272 -0.1744
    9SAPS  H17R 1137   0.370  -0.047   6.043  1.8971 -1.4646 -0.6054
    9SAPS  H17S 1138   0.211  -0.109   6.085  0.6596  2.1962 -1.2478
    9SAPS  C218 1139   0.367  -0.258   6.061 -0.2388 -0.0228  0.0953
    9SAPS  H18R 1140   0.328  -0.342   6.123 -1.5402 -0.4665 -1.2683
    9SAPS  H18S 1141   0.476  -0.249   6.084 -0.6887  1.6099  1.7942
    9SAPS  C219 1142   0.356  -0.306   5.914 -0.3795 -0.1889  0.9005
    9SAPS  H19R 1143   0.246  -0.305   5.907 -0.3718 -0.7862  0.6473
    9SAPS  H19S 1144   0.387  -0.412   5.900 -2.1300 -1.1351  3.5718
    9SAPS  C220 1145   0.426  -0.207   5.812  0.6077 -0.4823 -0.2644
    9SAPS  H20R 1146   0.423  -0.099   5.836 -3.6294 -0.3294 -0.6587
    9SAPS  H20S 1147   0.394  -0.222   5.707  0.6991 -1.1575 -0.2037
    9SAPS  H20T 1148   0.533  -0.234   5.807  0.8396  0.6589 -1.8776
    9SAPS   C33 1149  -0.239  -0.372   7.300  0.3530 -0.4848  0.0756
    9SAPS   H3X 1150  -0.343  -0.386   7.337  0.6935  1.6119  2.0207
    9SAPS   H3Y 1151  -0.180  -0.430   7.374 -0.7966 -2.2528 -0.3245
    9SAPS   C34 1152  -0.209  -0.458   7.167  0.3761 -1.3178 -0.3556
    9SAPS   H4X 1153  -0.209  -0.566   7.193  0.1244 -0.8455  1.8105
    9SAPS   H4Y 1154  -0.106  -0.443   7.127  0.1368  1.2456 -0.1665
    9SAPS   C35 1155  -0.306  -0.432   7.049 -0.5670 -0.3894 -0.2571
    9SAPS   H5X 1156  -0.297  -0.327   7.012  0.1431  0.0426  1.0550
    9SAPS   H5Y 1157  -0.407  -0.441   7.094 -1.2858  0.1026 -1.7229
    9SAPS   C36 1158  -0.301  -0.541   6.944  0.3291  0.5809 -0.1449
    9SAPS   H6X 1159  -0.403  -0.539   6.900 -0.1756 -2.5829  0.6504
    9SAPS   H6Y 1160  -0.295  -0.642   6.991  4.1151  0.9675  0.5433
    9SAPS   C37 1161  -0.196  -0.515   6.837 -0.4217  0.3502 -0.1863
    9SAPS   H7X 1162  -0.099  -0.478   6.875  0.8161 -1.7352 -1.1538
    9SAPS   H7Y 1163  -0.232  -0.433   6.770 -1.1379  0.1180 -0.0938
    9SAPS   C38 1164  -0.175  -0.635   6.744  0.6534  0.0706 -0.3252
    9SAPS   H8X 1165  -0.266  -0.653   6.684  0.9119 -0.0754 -0.6753
    9SAPS   H8Y 1166  -0.155  -0.729   6.800  0.9700 -0.0127 -0.5761
    9SAPS   C39 1167  -0.058  -0.621   6.649 -0.5052 -0.2796  0.1396
    9SAPS   H9X 1168  -0.048  -0.713   6.588 -0.8174 -0.8464  0.9291
    9SAPS   H9Y 1169   0.035  -0.626   6.709  0.4292 -0.2647 -1.2447
    9SAPS  C310 1170  -0.056  -0.497   6.566  0.4365  0.7778 -0.7532
    9SAPS  H10X 1171  -0.041  -0.411   6.635  3.7018 -1.0114  1.0291
    9SAPS  H10Y 1172  -0.146  -0.486   6.503  1.0921 -0.6787 -2.0054
    9SAPS  C311 1173   0.057  -0.493   6.470 -0.3440 -0.1755 -0.0097
    9SAPS  H11X 1174   0.049  -0.583   6.405  1.2798  0.3276 -0.9673
    9SAPS  H11Y 1175   0.153  -0.497   6.527  0.1907  0.5136 -0.8474
    9SAPS  C312 1176   0.070  -0.367   6.381  0.3084  0.0950  0.6224
    9SAPS  H12X 1177   0.156  -0.383   6.313 -0.5451 -1.0388 -0.2420
    9SAPS  H12Y 1178   0.090  -0.278   6.444 -0.0611 -0.9686  2.3222
    9SAPS  C313 1179  -0.052  -0.347   6.287 -0.2823  0.5502 -0.4113
    9SAPS  H13X 1180  -0.142  -0.310   6.341  0.0084 -0.0032  0.4861
    9SAPS  H13Y 1181  -0.075  -0.447   6.244  0.7255  0.7653 -1.5159
    9SAPS  C314 1182  -0.029  -0.243   6.183  0.0297  0.1603  0.3240
    9SAPS  H14X 1183   0.047  -0.279   6.111  1.4506  2.0790  0.7789
    9SAPS  H14Y 1184   0.015  -0.151   6.228 -0.9337  0.4711  0.6638
    9SAPS  C315 1185  -0.158  -0.192   6.112  0.3806 -0.8118 -0.6028
    9SAPS  H15X 1186  -0.122  -0.095   6.072  0.9799 -1.0096 -0.5607
    9SAPS  H15Y 1187  -0.243  -0.174   6.181 -0.3319 -1.9327 -1.1626
    9SAPS  C316 1188  -0.210  -0.289   6.003 -0.0821 -0.1984  0.2521
    9SAPS  H16X 1189  -0.262  -0.376   6.048 -1.9850  0.9714  0.4385
    9SAPS  H16Y 1190  -0.127  -0.333   5.944 -1.6841 -1.1714 -1.3500
    9SAPS  C317 1191  -0.284  -0.222   5.885  0.6081  0.5985 -0.0084
    9SAPS  H17X 1192  -0.227  -0.133   5.851  2.5837 -1.4209 -2.4109
    9SAPS  H17Y 1193  -0.381  -0.186   5.925  0.0567 -1.6554  0.8757
    9SAPS  C318 1194  -0.304  -0.305   5.757 -0.2002  0.1823 -0.5256
    9SAPS  H18X 1195  -0.210  -0.350   5.719 -0.9396 -0.6373 -1.4657
    9SAPS  H18Y 1196  -0.334  -0.234   5.676  0.1055  0.0150 -0.7877
    9SAPS  H18Z 1197  -0.377  -0.385   5.781 -1.6474  1.9829  1.4556
   10SAPS     N 1198   1.453   5.964   7.541 -0.3598  0.4375  0.2843
   10SAPS   HN1 1199   1.357   5.962   7.582 -0.3152 -1.3960  0.4094
   10SAPS   HN2 1200   1.455   5.987   7.440  1.9257 -1.4465 -0.2048
   10SAPS   HN3 1201   1.502   5.872   7.545  1.3935  1.2248 -1.3374
   10SAPS   C12 1202   1.537   6.083   7.590 -0.1606  0.4475 -0.4959
   10SAPS  H12A 1203   1.546   6.062   7.696 -2.0926  2.3117  0.1173
   10SAPS   C13 1204   1.676   6.097   7.527 -0.4801 -0.0979  0.0455
   10SAPS  O13A 1205   1.713   6.005   7.451  0.2536  0.2944 -0.3371
   10SAPS  O13B 1206   1.753   6.185   7.566 -0.1799  0.2258 -0.1378
   10SAPS   C11 1207   1.462   6.218   7.577  0.5819 -0.1483 -0.5978
   10SAPS  H11A 1208   1.449   6.228   7.468 -1.4596 -0.5101 -0.4244
   10SAPS  H11B 1209   1.527   6.301   7.613  0.7129  0.0940 -1.3776
   10SAPS     P 1210   1.263   6.354   7.675  0.0996  0.1932  0.1254
   10SAPS   O13 1211   1.122   6.333   7.720 -0.5268  0.0497 -0.5556
   10SAPS   O14 1212   1.355   6.444   7.753  0.6452  0.5718 -1.0883
   10SAPS   O12 1213   1.340   6.219   7.654 -0.3051  0.4787 -0.1653
   10SAPS   O11 1214   1.262   6.411   7.530 -0.0055  0.7915  0.1046
   10SAPS    C1 1215   1.197   6.336   7.424  0.4101 -0.3532 -0.1368
   10SAPS    HA 1216   1.251   6.244   7.394  1.3730 -0.0872  0.7047
   10SAPS    HB 1217   1.094   6.306   7.453  0.1415  0.3063 -0.3904
   10SAPS    C2 1218   1.171   6.429   7.297 -0.1275 -0.5425 -0.6122
   10SAPS    HS 1219   1.136   6.358   7.219  1.5993  0.5190 -2.4189
   10SAPS   O21 1220   1.293   6.491   7.257  0.0811  0.2947  0.0750
   10SAPS   C21 1221   1.386   6.406   7.211 -0.1999  0.5634  0.5723
   10SAPS   O22 1222   1.366   6.294   7.166 -0.1945  0.6245  0.4598
   10SAPS   C22 1223   1.521   6.478   7.236 -0.0942 -0.8688  0.3473
   10SAPS   H2R 1224   1.521   6.580   7.191 -1.6578 -1.4526 -1.0900
   10SAPS   H2S 1225   1.539   6.492   7.345  0.4241 -2.8321  0.5478
   10SAPS    C3 1226   1.071   6.546   7.324  0.4407  0.0598  1.2443
   10SAPS    HX 1227   1.099   6.585   7.425 -0.1337 -0.2651  1.5322
   10SAPS    HY 1228   0.967   6.508   7.323  1.5455 -3.4128 -1.5155
   10SAPS   O31 1229   1.090   6.647   7.225 -0.1106  0.1921  0.4172
   10SAPS   C31 1230   1.024   6.625   7.112  0.4513  0.1880  0.2704
   10SAPS   O32 1231   0.954   6.529   7.092  0.4323  0.0740  0.1470
   10SAPS   C32 1232   1.033   6.737   7.011  0.6280  0.3045  0.1122
   10SAPS   H2X 1233   1.006   6.834   7.057 -4.5162 -0.8261 -0.0101
   10SAPS   H2Y 1234   0.963   6.697   6.935  0.0141  1.9387 -0.2208
   10SAPS   C23 1235   1.640   6.390   7.196  0.0655 -0.0363  0.0106
   10SAPS   H3R 1236   1.640   6.288   7.240  1.9767 -0.1406 -0.1540
   10SAPS   H3S 1237   1.733   6.427   7.245  1.0498 -2.0040 -0.2405
   10SAPS   C24 1238   1.661   6.395   7.050 -0.2123 -0.4089  0.0798
   10SAPS   H4R 1239   1.570   6.353   7.003  0.6390  0.2052 -2.2717
   10SAPS   H4S 1240   1.747   6.325   7.036 -0.8121 -0.9246 -1.1626
   10SAPS   C25 1241   1.688   6.518   6.985 -0.0972 -1.0119  0.8104
   10SAPS   H5R 1242   1.762   6.586   7.030 -1.4190  0.1858  1.2593
   10SAPS   C26 1243   1.653   6.546   6.858  0.0772 -0.4072  0.6680
   10SAPS   H6R 1244   1.682   6.644   6.817  1.3155 -0.4012  1.5233
   10SAPS   C27 1245   1.569   6.467   6.764 -0.1038 -0.8577  0.1099
   10SAPS   H7R 1246   1.472   6.520   6.752 -0.2124 -0.4889  2.1445
   10SAPS   H7S 1247   1.534   6.371   6.807 -1.1490 -0.9830 -0.9653
   10SAPS   C28 1248   1.629   6.437   6.631 -0.1424 -0.4393 -0.1177
   10SAPS   H8R 1249   1.727   6.390   6.644 -0.0274  0.5586  3.6364
   10SAPS   C29 1250   1.563   6.446   6.512  0.0693  0.7716 -0.1188
   10SAPS   H9R 1251   1.625   6.424   6.424 -0.9898  3.6830 -1.7492
   10SAPS  C210 1252   1.429   6.493   6.466  0.0321 -0.2305 -0.5131
   10SAPS  H10R 1253   1.389   6.550   6.553  3.6525 -0.7968  1.7200
   10SAPS  H10S 1254   1.356   6.409   6.460 -0.2406 -0.1988  1.4624
   10SAPS  C211 1255   1.440   6.572   6.338  0.1918 -0.5172 -0.1170
   10SAPS  H11R 1256   1.456   6.680   6.354 -0.9088 -0.3429 -0.0695
   10SAPS  C212 1257   1.428   6.513   6.219 -0.4484 -0.3461  0.4799
   10SAPS  H12R 1258   1.425   6.584   6.135  2.5535 -2.2574 -1.4382
   10SAPS  C213 1259   1.395   6.372   6.190 -0.4707  0.6163 -0.0374
   10SAPS  H13R 1260   1.373   6.304   6.276 -0.5336  1.0572  0.2997
   10SAPS  H13S 1261   1.478   6.322   6.136  0.6591 -0.3997  2.4610
   10SAPS  C214 1262   1.273   6.367   6.106 -0.1459 -0.1787 -0.5144
   10SAPS  H14R 1263   1.188   6.361   6.176  0.9924  2.9085  1.3254
   10SAPS  C215 1264   1.260   6.365   5.973  0.2019 -0.0450 -0.5387
   10SAPS  H15R 1265   1.158   6.346   5.934 -0.5033  0.2675  1.0943
   10SAPS  C216 1266   1.370   6.389   5.876  0.1448 -0.3523  0.0109
   10SAPS  H16R 1267   1.462   6.429   5.923  0.0317  1.0537 -0.9116
   10SAPS  H16S 1268   1.342   6.465   5.800  2.0340  1.1618  0.7488
   10SAPS  C217 1269   1.404   6.252   5.807  0.1918 -0.3928  0.1857
   10SAPS  H17R 1270   1.308   6.221   5.761  0.0129 -0.5294  0.6538
   10SAPS  H17S 1271   1.421   6.170   5.881 -1.1135 -0.2411  0.6674
   10SAPS  C218 1272   1.513   6.272   5.699  0.3711  0.1829 -0.1627
   10SAPS  H18R 1273   1.600   6.315   5.754 -1.2701  0.6270  2.2664
   10SAPS  H18S 1274   1.471   6.343   5.624 -0.7090  0.7574  0.9610
   10SAPS  C219 1275   1.564   6.145   5.617  0.1295  0.1088  1.2326
   10SAPS  H19R 1276   1.487   6.116   5.542  1.1421 -1.4044  0.7232
   10SAPS  H19S 1277   1.577   6.066   5.694 -0.8551  1.0042  2.3520
   10SAPS  C220 1278   1.694   6.177   5.548  0.0708  0.4679 -0.2663
   10SAPS  H20R 1279   1.768   6.223   5.616  0.1999 -0.2299  0.0765
   10SAPS  H20S 1280   1.673   6.254   5.470 -2.0969 -2.8103 -3.2600
   10SAPS  H20T 1281   1.729   6.089   5.488  1.7659  1.2190 -0.4412
   10SAPS   C33 1282   1.169   6.735   6.937  0.2742  0.1032  0.3746
   10SAPS   H3X 1283   1.155   6.719   6.828 -0.7479  2.3026  0.1155
   10SAPS   H3Y 1284   1.232   6.655   6.981  1.1863  0.0983 -0.8827
   10SAPS   C34 1285   1.255   6.867   6.959 -0.4183 -0.2359  0.0594
   10SAPS   H4X 1286   1.359   6.828   6.958 -1.0146 -1.9248  0.6787
   10SAPS   H4Y 1287   1.236   6.902   7.063 -0.2263  0.4761 -0.1447
   10SAPS   C35 1288   1.212   6.974   6.855  0.3681 -0.0279  0.4764
   10SAPS   H5X 1289   1.274   7.063   6.878  1.6677 -0.4391 -1.2602
   10SAPS   H5Y 1290   1.103   6.998   6.860  0.4260  1.1630 -2.2481
   10SAPS   C36 1291   1.242   6.951   6.702 -0.5543 -0.0363 -0.4090
   10SAPS   H6X 1292   1.162   6.877   6.684 -1.3614  0.4924  0.9184
   10SAPS   H6Y 1293   1.340   6.899   6.693 -1.4518 -1.9911  0.7228
   10SAPS   C37 1294   1.223   7.072   6.611  0.5969 -0.1793  0.0788
   10SAPS   H7X 1295   1.285   7.157   6.647  1.2416  0.8819 -3.2275
   10SAPS   H7Y 1296   1.116   7.099   6.624  0.6274 -0.8030  1.9065
   10SAPS   C38 1297   1.264   7.051   6.463 -0.1556  0.3175  0.2379
   10SAPS   H8X 1298   1.202   6.966   6.425 -2.6052  1.4882  1.3783
   10SAPS   H8Y 1299   1.371   7.021   6.458 -0.4983 -0.7686 -1.5784
   10SAPS   C39 1300   1.245   7.171   6.365 -0.4285  0.4519  0.0277
   10SAPS   H9X 1301   1.288   7.261   6.414  2.0205  0.0666 -1.2630
   10SAPS   H9Y 1302   1.135   7.178   6.347 -0.5404 -1.3363 -0.1831
   10SAPS  C310 1303   1.294   7.140   6.224 -0.4470  1.1286 -0.8310
   10SAPS  H10X 1304   1.266   7.043   6.177 -1.2007  0.5818  0.6853
   10SAPS  H10Y 1305   1.403   7.145   6.249 -0.9282 -0.0101  1.8624
   10SAPS  C311 1306   1.265   7.249   6.119  0.5858 -0.1315  0.0041
   10SAPS  H11X 1307   1.308   7.348   6.146  0.9996 -0.2508 -0.2129
   10SAPS  H11Y 1308   1.154   7.259   6.116  0.4905 -1.0689 -3.3495
   10SAPS  C312 1309   1.290   7.214   5.969 -0.4015 -0.0710 -0.1974
   10SAPS  H12X 1310   1.225   7.128   5.945  0.3171 -0.3480 -1.2525
   10SAPS  H12Y 1311   1.395   7.178   5.957  0.3008  0.8113  2.5394
   10SAPS  C313 1312   1.272   7.333   5.876  0.1782 -0.0297 -0.0661
   10SAPS  H13X 1313   1.310   7.422   5.930  1.0319 -0.5979  0.3100
   10SAPS  H13Y 1314   1.166   7.357   5.854 -0.0294 -1.3819 -0.6637
   10SAPS  C314 1315   1.354   7.321   5.750 -0.2335  0.2064 -0.5166
   10SAPS  H14X 1316   1.331   7.225   5.699 -1.5356  0.9996 -1.4779
   10SAPS  H14Y 1317   1.462   7.323   5.776 -0.3950 -0.8275  0.2780
   10SAPS  C315 1318   1.318   7.426   5.645  0.2714 -0.6347 -0.3580
   10SAPS  H15X 1319   1.335   7.530   5.682  0.7056 -0.1192 -1.9086
   10SAPS  H15Y 1320   1.209   7.417   5.631  0.0556  0.5617  0.3739
   10SAPS  C316 1321   1.383   7.413   5.511 -0.3420  0.1983  0.5828
   10SAPS  H16X 1322   1.358   7.313   5.471 -1.6467  0.4227  0.8143
   10SAPS  H16Y 1323   1.492   7.417   5.535 -0.5956  2.7927  1.6682
   10SAPS  C317 1324   1.353   7.533   5.419  0.1399 -0.1716 -0.4355
   10SAPS  H17X 1325   1.406   7.616   5.471 -1.2584  0.2937  0.3000
   10SAPS  H17Y 1326   1.249   7.570   5.404  0.6205  1.6789  0.5053
   10SAPS  C318 1327   1.405   7.518   5.276 -0.1998 -0.3549  0.3180
   10SAPS  H18X 1328   1.372   7.598   5.206  1.5920 -0.7045 -1.0236
   10SAPS  H18Y 1329   1.362   7.423   5.238  1.4058 -0.9251 -0.1986
   10SAPS  H18Z 1330   1.516   7.510   5.279 -0.0176  1.5763  3.2399
   11SAPS     N 1331   6.682   6.430   2.642 -0.4706 -0.5346  0.3173
   11SAPS   HN1 1332   6.748   6.510   2.647 -0.4944 -0.4879 -0.1084
   11SAPS   HN2 1333   6.728   6.341   2.668  0.6259 -0.0007  0.2741
   11SAPS   HN3 1334   6.647   6.425   2.544 -0.1513  0.3340  0.1495
   11SAPS   C12 1335   6.571   6.458   2.732 -0.3534 -0.1174 -0.2087
   11SAPS  H12A 1336   6.609   6.498   2.825  0.6006 -0.4413 -0.4521
   11SAPS   C13 1337   6.459   6.547   2.677  0.6907  0.2346  0.2686
   11SAPS  O13A 1338   6.460   6.594   2.560 -0.0810  0.0890  0.3258
   11SAPS  O13B 1339   6.362   6.576   2.754  0.1533  0.2630 -0.6229
   11SAPS   C11 1340   6.503   6.325   2.770 -0.0852 -0.5006 -0.7963
   11SAPS  H11A 1341   6.452   6.281   2.682 -0.3125  0.4007 -1.1303
   11SAPS  H11B 1342   6.429   6.336   2.851  0.0335 -1.1594 -0.5912
   11SAPS     P 1343   6.575   6.083   2.860  0.4954 -0.0388 -0.3285
   11SAPS   O13 1344   6.489   6.013   2.762  0.6964  0.0162 -0.1237
   11SAPS   O14 1345   6.702   6.020   2.897 -0.3140  0.0730  0.3813
   11SAPS   O12 1346   6.602   6.227   2.812  0.2375 -0.0452 -0.7354
   11SAPS   O11 1347   6.489   6.103   3.000 -0.3103  0.8117  0.6355
   11SAPS    C1 1348   6.539   6.157   3.116  0.1055 -0.4862 -0.4986
   11SAPS    HA 1349   6.606   6.242   3.088  0.9243 -1.1444 -0.5665
   11SAPS    HB 1350   6.456   6.193   3.180  0.9840  0.4500  0.1635
   11SAPS    C2 1351   6.620   6.057   3.197 -0.2584  0.8973  0.0702
   11SAPS    HS 1352   6.708   6.030   3.136 -0.1983  1.5920 -0.1548
   11SAPS   O21 1353   6.531   5.946   3.228  0.2563 -1.0061  0.3090
   11SAPS   C21 1354   6.583   5.829   3.264  0.0498 -0.2595  0.2709
   11SAPS   O22 1355   6.700   5.804   3.256 -0.2794 -0.5957  0.9563
   11SAPS   C22 1356   6.469   5.730   3.302  0.2130 -0.3742  0.4062
   11SAPS   H2R 1357   6.375   5.783   3.276  0.5394  1.0575  1.9390
   11SAPS   H2S 1358   6.473   5.637   3.241  2.0234  0.3319 -0.6355
   11SAPS    C3 1359   6.662   6.130   3.331  0.1074  0.3093  0.3487
   11SAPS    HX 1360   6.728   6.209   3.291 -0.9379  0.7414 -0.5989
   11SAPS    HY 1361   6.732   6.061   3.382 -0.8199  0.2062  1.5168
   11SAPS   O31 1362   6.552   6.168   3.417 -0.8446  0.0926  0.5995
   11SAPS   C31 1363   6.545   6.280   3.481  0.1799 -0.0526 -0.7268
   11SAPS   O32 1364   6.621   6.376   3.473 -0.7048  0.4946  0.3999
   11SAPS   C32 1365   6.432   6.279   3.575 -0.6261 -1.0132  0.1617
   11SAPS   H2X 1366   6.405   6.175   3.605  0.4793 -0.7235  2.3576
   11SAPS   H2Y 1367   6.346   6.323   3.521 -0.3889  0.7458  1.1618
   11SAPS   C23 1368   6.456   5.695   3.455  0.1598  0.5470 -0.3932
   11SAPS   H3R 1369   6.513   5.768   3.516 -0.6018 -0.1090  1.1638
   11SAPS   H3S 1370   6.507   5.599   3.477 -0.6939  0.0184 -0.6384
   11SAPS   C24 1371   6.309   5.702   3.496 -0.3908 -0.3878  0.3854
   11SAPS   H4R 1372   6.304   5.645   3.591  0.1743  0.4768  0.9486
   11SAPS   H4S 1373   6.240   5.652   3.425 -0.8335  0.0620  0.4904
   11SAPS   C25 1374   6.263   5.847   3.502  0.4874  0.1496  0.5536
   11SAPS   H5R 1375   6.258   5.895   3.403 -0.7933 -0.1306  0.4607
   11SAPS   C26 1376   6.238   5.917   3.615 -0.0430  0.9360  0.0512
   11SAPS   H6R 1377   6.200   6.020   3.611 -2.2858  0.1194 -1.6220
   11SAPS   C27 1378   6.246   5.859   3.755 -0.0458 -0.5074 -0.2032
   11SAPS   H7R 1379   6.318   5.775   3.745  0.4115  0.0090 -1.4997
   11SAPS   H7S 1380   6.155   5.807   3.791  0.1322 -1.1087 -0.6031
   11SAPS   C28 1381   6.307   5.953   3.847 -0.0026  0.6818  0.5698
   11SAPS   H8R 1382   6.410   5.987   3.825  1.1756 -2.8504  0.0407
   11SAPS   C29 1383   6.260   5.984   3.969 -0.0541 -0.0690 -0.2052
   11SAPS   H9R 1384   6.321   6.053   4.028  0.3228 -0.6560  0.0946
   11SAPS  C210 1385   6.137   5.931   4.031  0.0729 -0.4221 -0.3484
   11SAPS  H10R 1386   6.164   5.833   4.075 -0.0502 -0.1181  0.4142
   11SAPS  H10S 1387   6.059   5.920   3.953 -1.2181  1.4250  0.6171
   11SAPS  C211 1388   6.093   6.025   4.133 -0.0654  0.3505 -0.3961
   11SAPS  H11R 1389   6.045   6.121   4.107 -1.2929 -0.1793 -0.1504
   11SAPS  C212 1390   6.101   5.996   4.269  0.0969 -0.8525 -0.3323
   11SAPS  H12R 1391   6.067   6.078   4.334  0.6103  0.5448 -1.7668
   11SAPS  C213 1392   6.145   5.873   4.338  0.2307  0.5261  0.2795
   11SAPS  H13R 1393   6.189   5.808   4.259 -3.2775 -1.4886 -0.2159
   11SAPS  H13S 1394   6.062   5.818   4.387 -1.3262  2.0888 -0.5065
   11SAPS  C214 1395   6.251   5.888   4.442  0.7493 -0.8852  0.5378
   11SAPS  H14R 1396   6.354   5.877   4.404  0.1011 -0.4674 -1.4496
   11SAPS  C215 1397   6.237   5.912   4.568  0.1672 -1.2240  0.2132
   11SAPS  H15R 1398   6.324   5.896   4.634 -0.3000  0.8395  1.4255
   11SAPS  C216 1399   6.104   5.925   4.649 -0.1536 -0.1714  0.1625
   11SAPS  H16R 1400   6.016   5.889   4.591 -1.3103  2.0577  0.4149
   11SAPS  H16S 1401   6.090   6.030   4.681 -1.6726 -1.2648  3.5873
   11SAPS  C217 1402   6.105   5.849   4.782 -0.0889 -0.2141  0.0403
   11SAPS  H17R 1403   6.165   5.755   4.787  0.3250  0.0941  1.1608
   11SAPS  H17S 1404   6.005   5.814   4.815 -1.1228 -0.0718 -2.6489
   11SAPS  C218 1405   6.171   5.938   4.896  0.0265 -0.0310  0.0650
   11SAPS  H18R 1406   6.112   6.029   4.918  0.5089  0.3086 -0.0219
   11SAPS  H18S 1407   6.272   5.972   4.863 -0.3472  1.6558  0.5859
   11SAPS  C219 1408   6.199   5.858   5.020  0.1916 -0.2553  0.7922
   11SAPS  H19R 1409   6.251   5.928   5.088 -0.8706 -0.1085  1.4761
   11SAPS  H19S 1410   6.264   5.774   4.987 -0.0098 -0.2971  0.4934
   11SAPS  C220 1411   6.072   5.805   5.083 -0.0626  0.4395  0.5315
   11SAPS  H20R 1412   5.996   5.885   5.071 -0.5261 -0.2556 -1.6595
   11SAPS  H20S 1413   6.086   5.785   5.191 -0.8052 -0.6648  0.4389
   11SAPS  H20T 1414   6.034   5.720   5.022  1.9653 -0.6848  0.7688
   11SAPS   C33 1415   6.465   6.361   3.706 -0.0194 -0.6818 -0.0357
   11SAPS   H3X 1416   6.472   6.469   3.679 -0.3351 -0.9194 -1.1025
   11SAPS   H3Y 1417   6.567   6.332   3.738 -0.4523 -3.4247 -0.9137
   11SAPS   C34 1418   6.361   6.350   3.819  0.5539 -0.0858  0.0993
   11SAPS   H4X 1419   6.279   6.276   3.808 -2.2228  2.9171 -1.0519
   11SAPS   H4Y 1420   6.316   6.452   3.818  3.3600  1.2381 -0.7953
   11SAPS   C35 1421   6.438   6.341   3.951 -0.2359 -0.6527 -0.5037
   11SAPS   H5X 1422   6.502   6.432   3.955 -1.4088  0.1621  0.8640
   11SAPS   H5Y 1423   6.501   6.249   3.955  1.9779  0.7990 -0.0045
   11SAPS   C36 1424   6.340   6.347   4.076 -0.2016  0.4754  0.4414
   11SAPS   H6X 1425   6.277   6.256   4.073 -0.0239  0.3630  0.1614
   11SAPS   H6Y 1426   6.285   6.443   4.061 -0.3181  0.3218 -0.1397
   11SAPS   C37 1427   6.429   6.351   4.208  0.6498 -0.8264 -0.0378
   11SAPS   H7X 1428   6.504   6.433   4.211 -2.9070  2.7309 -0.8120
   11SAPS   H7Y 1429   6.495   6.262   4.218  1.5930 -0.1529 -0.1826
   11SAPS   C38 1430   6.335   6.358   4.330 -0.5085  0.0566 -0.0794
   11SAPS   H8X 1431   6.268   6.270   4.321  1.8257 -1.9283  0.7686
   11SAPS   H8Y 1432   6.271   6.445   4.304  1.2068  0.7340 -2.3292
   11SAPS   C39 1433   6.404   6.365   4.472  0.5491 -0.2643 -0.2118
   11SAPS   H9X 1434   6.437   6.470   4.485  1.1174 -0.5281  0.5915
   11SAPS   H9Y 1435   6.499   6.306   4.472 -0.3181 -1.7333 -1.4580
   11SAPS  C310 1436   6.315   6.316   4.579  1.0123 -0.0692 -0.3226
   11SAPS  H10X 1437   6.284   6.210   4.564 -0.1311  0.1592  0.2430
   11SAPS  H10Y 1438   6.221   6.377   4.578  1.6665  0.9949  0.5435
   11SAPS  C311 1439   6.400   6.336   4.703  0.1876  0.7824 -0.5079
   11SAPS  H11X 1440   6.460   6.430   4.708 -0.7137  1.3344  0.4564
   11SAPS  H11Y 1441   6.478   6.257   4.696  1.7683  1.9319  2.2053
   11SAPS  C312 1442   6.333   6.334   4.843  0.4066  0.1838 -0.7147
   11SAPS  H12X 1443   6.294   6.230   4.855  4.9093 -1.8355 -1.5013
   11SAPS  H12Y 1444   6.263   6.420   4.837  0.7283  0.5742  0.8117
   11SAPS  C313 1445   6.429   6.362   4.957  0.3482 -0.0482 -0.3013
   11SAPS  H13X 1446   6.383   6.344   5.057  1.8185  1.3554  0.6777
   11SAPS  H13Y 1447   6.466   6.466   4.944  2.3238 -0.5985  0.5309
   11SAPS  C314 1448   6.556   6.271   4.961  0.6436  0.2127  0.0347
   11SAPS  H14X 1449   6.626   6.319   5.033 -0.1697 -0.3378  1.2458
   11SAPS  H14Y 1450   6.596   6.277   4.858 -1.9058  2.9081 -0.9190
   11SAPS  C315 1451   6.531   6.127   5.010  0.2331 -0.1914 -0.0960
   11SAPS  H15X 1452   6.439   6.092   4.957  0.9776  0.7076 -2.1155
   11SAPS  H15Y 1453   6.508   6.148   5.116  0.1536  0.7122 -0.2881
   11SAPS  C316 1454   6.638   6.017   4.978 -0.7036 -0.9001 -0.4565
   11SAPS  H16X 1455   6.614   5.942   5.056  0.9642  1.1641  2.2345
   11SAPS  H16Y 1456   6.743   6.049   4.997 -0.3779 -0.7072 -2.4242
   11SAPS  C317 1457   6.625   5.966   4.839  0.6210 -0.4668  0.2515
   11SAPS  H17X 1458   6.694   6.033   4.784  0.7058  0.8100  1.8467
   11SAPS  H17Y 1459   6.528   5.993   4.793  1.4762  1.7475 -0.3727
   11SAPS  C318 1460   6.664   5.824   4.810  0.0833 -0.2628  0.2897
   11SAPS  H18X 1461   6.611   5.750   4.874 -0.1342  0.5592  1.0812
   11SAPS  H18Y 1462   6.773   5.813   4.829  0.0527  0.5228  0.9845
   11SAPS  H18Z 1463   6.651   5.802   4.702 -0.9867 -0.5575  0.4713
   12SAPS     N 1464   0.665   5.635   2.858  0.0565  0.4302 -0.2166
   12SAPS   HN1 1465   0.641   5.534   2.854  2.6848 -0.2505 -0.7907
   12SAPS   HN2 1466   0.756   5.652   2.811  0.7073  0.5952  1.0623
   12SAPS   HN3 1467   0.660   5.659   2.959 -2.0064 -1.6156  0.2636
   12SAPS   C12 1468   0.554   5.718   2.796  0.3505 -0.4591  0.4655
   12SAPS  H12A 1469   0.587   5.821   2.802  1.3444 -0.6874 -0.6694
   12SAPS   C13 1470   0.530   5.676   2.650  0.2157 -0.3062  0.0330
   12SAPS  O13A 1471   0.595   5.582   2.596  0.5416 -0.1160  0.3560
   12SAPS  O13B 1472   0.441   5.733   2.584 -0.9548  0.2908 -0.1643
   12SAPS   C11 1473   0.427   5.698   2.879  0.3238  0.3124  0.3850
   12SAPS  H11A 1474   0.379   5.598   2.882 -0.4075  0.6790  1.7696
   12SAPS  H11B 1475   0.340   5.757   2.844 -0.4801  0.0101  1.8186
   12SAPS     P 1476   0.418   5.848   3.087 -0.0392  0.2304 -0.2357
   12SAPS   O13 1477   0.468   5.961   3.010 -0.2491  0.4843  0.3397
   12SAPS   O14 1478   0.270   5.843   3.119 -0.5236 -0.4304 -0.1376
   12SAPS   O12 1479   0.460   5.721   3.016 -0.2678  0.0089 -0.1118
   12SAPS   O11 1480   0.492   5.835   3.220  0.2299 -0.1411  0.0777
   12SAPS    C1 1481   0.438   5.740   3.321 -0.1206  0.6229  0.6021
   12SAPS    HA 1482   0.332   5.708   3.314  0.5295 -2.8618  3.4541
   12SAPS    HB 1483   0.503   5.650   3.317  0.6842  1.2180 -0.2806
   12SAPS    C2 1484   0.437   5.819   3.462  0.4225 -0.0441  0.5008
   12SAPS    HS 1485   0.457   5.736   3.534  1.2797 -0.6137 -0.3609
   12SAPS   O21 1486   0.306   5.881   3.481 -0.2055 -0.3485  0.5862
   12SAPS   C21 1487   0.218   5.812   3.554  1.2124  0.0548  0.7721
   12SAPS   O22 1488   0.239   5.728   3.636  0.7799  0.2474  0.6488
   12SAPS   C22 1489   0.077   5.863   3.527  0.5155 -0.0399 -0.3099
   12SAPS   H2R 1490   0.083   5.959   3.473  0.4315 -0.7981 -1.7146
   12SAPS   H2S 1491   0.013   5.785   3.480  2.1064 -1.0861 -0.8388
   12SAPS    C3 1492   0.548   5.929   3.465  0.2580  0.0437  0.2315
   12SAPS    HX 1493   0.531   6.002   3.384  2.5460  1.8258  1.2422
   12SAPS    HY 1494   0.645   5.878   3.448 -0.3085 -0.7149 -0.8724
   12SAPS   O31 1495   0.554   5.992   3.597  0.1705  0.1336  0.4050
   12SAPS   C31 1496   0.483   6.093   3.619  0.1436 -0.3176 -0.1204
   12SAPS   O32 1497   0.423   6.160   3.532 -0.2241  0.3541 -0.3834
   12SAPS   C32 1498   0.492   6.128   3.766  0.4092 -0.9953 -0.7396
   12SAPS   H2X 1499   0.589   6.180   3.780  0.1449 -0.8707  0.8190
   12SAPS   H2Y 1500   0.496   6.036   3.829 -2.2636  0.1504  1.3350
   12SAPS   C23 1501  -0.021   5.904   3.644  0.0177 -0.3513 -0.3324
   12SAPS   H3R 1502  -0.002   5.835   3.729  0.3466  0.0957 -0.0387
   12SAPS   H3S 1503  -0.127   5.898   3.609  0.2864  0.6999 -1.3827
   12SAPS   C24 1504   0.016   6.042   3.699  0.0812 -0.0559 -0.4542
   12SAPS   H4R 1505   0.003   6.124   3.625 -1.1194 -0.5730 -0.8414
   12SAPS   H4S 1506   0.119   6.041   3.742  1.2869  0.3103 -3.1623
   12SAPS   C25 1507  -0.089   6.054   3.812 -0.5383  0.0756 -0.0031
   12SAPS   H5R 1508  -0.189   6.091   3.785 -0.0699 -0.0165 -1.9906
   12SAPS   C26 1509  -0.077   6.009   3.938  0.5053  0.0620 -0.5155
   12SAPS   H6R 1510  -0.157   6.022   4.012  0.0679 -0.9317 -0.8070
   12SAPS   C27 1511   0.041   5.940   3.991 -0.2554  0.9401 -0.1200
   12SAPS   H7R 1512   0.080   5.983   4.086 -1.4992 -1.1198  1.3988
   12SAPS   H7S 1513   0.125   5.935   3.919 -0.1610 -0.5152  0.0762
   12SAPS   C28 1514  -0.014   5.794   4.004  0.6133  0.4385  0.7681
   12SAPS   H8R 1515   0.015   5.724   3.924 -0.1809  2.8495 -1.8039
   12SAPS   C29 1516  -0.076   5.738   4.111  0.1471 -0.1952 -0.7515
   12SAPS   H9R 1517  -0.105   5.632   4.105  0.8941 -0.3512 -1.7443
   12SAPS  C210 1518  -0.118   5.807   4.238 -0.9811 -0.2256  0.4114
   12SAPS  H10R 1519  -0.180   5.738   4.299  0.7902 -2.2718 -0.0017
   12SAPS  H10S 1520  -0.178   5.895   4.205  0.5149  0.3036 -1.0536
   12SAPS  C211 1521  -0.005   5.844   4.331 -0.0476 -1.0813 -0.6546
   12SAPS  H11R 1522   0.080   5.776   4.317 -0.8167 -1.8982 -1.4852
   12SAPS  C212 1523  -0.010   5.939   4.431  0.0163 -0.1199 -0.7918
   12SAPS  H12R 1524   0.064   5.937   4.512 -0.4221  2.0942 -0.2474
   12SAPS  C213 1525  -0.116   6.043   4.438  0.1591 -0.0063  0.4061
   12SAPS  H13R 1526  -0.148   6.039   4.544 -1.8087 -1.9693 -0.1804
   12SAPS  H13S 1527  -0.209   6.025   4.379 -0.6008  2.6018  0.6937
   12SAPS  C214 1528  -0.048   6.172   4.392 -0.2514  0.2475 -0.9544
   12SAPS  H14R 1529  -0.044   6.175   4.283  1.3686 -2.5597 -1.0619
   12SAPS  C215 1530   0.002   6.273   4.472 -0.2002  0.8407  0.8122
   12SAPS  H15R 1531   0.067   6.348   4.425  1.6452 -1.3105 -0.2352
   12SAPS  C216 1532   0.002   6.291   4.622 -0.2088  0.6232  0.0372
   12SAPS  H16R 1533  -0.052   6.212   4.678  1.7040 -0.4316  0.5104
   12SAPS  H16S 1534  -0.051   6.382   4.655  0.0858  0.8388 -0.0833
   12SAPS  C217 1535   0.143   6.295   4.683 -0.3776 -0.0928 -0.1668
   12SAPS  H17R 1536   0.140   6.321   4.792 -1.1111  1.2714 -0.4773
   12SAPS  H17S 1537   0.197   6.380   4.636 -0.3693 -0.1491 -0.2570
   12SAPS  C218 1538   0.228   6.173   4.676  0.5358  0.5447 -0.0428
   12SAPS  H18R 1539   0.254   6.158   4.569  3.1738 -2.3268  0.8407
   12SAPS  H18S 1540   0.173   6.081   4.708  1.0707  0.8759  1.9446
   12SAPS  C219 1541   0.362   6.185   4.743 -1.0704  0.0423 -0.2163
   12SAPS  H19R 1542   0.354   6.233   4.843  1.7728 -0.9377  0.5802
   12SAPS  H19S 1543   0.426   6.248   4.677 -2.5110  1.3568 -0.4350
   12SAPS  C220 1544   0.437   6.050   4.743  0.0442 -0.7715 -0.4980
   12SAPS  H20R 1545   0.458   6.011   4.641  1.2233 -1.4665 -0.0151
   12SAPS  H20S 1546   0.385   5.972   4.802  0.5593 -0.9018 -0.2085
   12SAPS  H20T 1547   0.535   6.059   4.796 -1.4891 -0.3374  2.4854
   12SAPS   C33 1548   0.372   6.216   3.801  0.7269  0.3395 -0.8476
   12SAPS   H3X 1549   0.277   6.179   3.757  0.7372 -1.0703  0.2476
   12SAPS   H3Y 1550   0.391   6.317   3.759 -0.1177  0.2787 -1.3935
   12SAPS   C34 1551   0.337   6.234   3.951 -0.2791  0.0893  0.6936
   12SAPS   H4X 1552   0.411   6.291   4.011 -0.6504 -1.3937  2.6340
   12SAPS   H4Y 1553   0.345   6.130   3.989  0.0688 -0.1882 -0.1189
   12SAPS   C35 1554   0.202   6.297   3.969  0.1365  0.3018 -0.8892
   12SAPS   H5X 1555   0.148   6.252   4.055 -0.8817  1.2834 -0.9919
   12SAPS   H5Y 1556   0.142   6.269   3.880  0.0679 -0.4434 -0.6187
   12SAPS   C36 1557   0.198   6.442   4.004 -0.0107 -0.2436  0.5590
   12SAPS   H6X 1558   0.102   6.499   3.998  0.0294 -0.3425 -1.8967
   12SAPS   H6Y 1559   0.275   6.493   3.943 -2.1838  1.1789 -1.1610
   12SAPS   C37 1560   0.235   6.468   4.147  0.1018 -0.3319 -0.2201
   12SAPS   H7X 1561   0.327   6.407   4.163 -0.3544 -1.2626 -1.0262
   12SAPS   H7Y 1562   0.163   6.426   4.220 -0.9247 -1.7336 -1.9509
   12SAPS   C38 1563   0.270   6.616   4.196 -0.2297  0.4627 -0.0992
   12SAPS   H8X 1564   0.184   6.687   4.186  0.2453  1.0554 -0.0214
   12SAPS   H8Y 1565   0.353   6.655   4.133 -1.8052  0.5011 -2.2610
   12SAPS   C39 1566   0.327   6.623   4.337 -0.2634  0.1374 -0.3336
   12SAPS   H9X 1567   0.259   6.601   4.422 -0.3921  1.1820 -0.1531
   12SAPS   H9Y 1568   0.364   6.727   4.345 -0.9395  0.3873 -0.3919
   12SAPS  C310 1569   0.447   6.538   4.362  0.1887 -0.0923 -0.6691
   12SAPS  H10X 1570   0.505   6.535   4.267  0.0887  3.5000 -0.9829
   12SAPS  H10Y 1571   0.419   6.436   4.398  1.8607 -0.1409  0.6308
   12SAPS  C311 1572   0.539   6.601   4.463  0.2982 -0.2744 -0.3772
   12SAPS  H11X 1573   0.560   6.707   4.434 -1.5783  0.2779  0.1817
   12SAPS  H11Y 1574   0.636   6.548   4.468  1.0655  1.1599  1.4929
   12SAPS  C312 1575   0.490   6.598   4.611 -0.1561  0.5014 -0.4761
   12SAPS  H12X 1576   0.444   6.498   4.623  2.1037 -1.2411 -4.6284
   12SAPS  H12Y 1577   0.417   6.682   4.618 -0.8152 -0.1855  4.5740
   12SAPS  C313 1578   0.599   6.612   4.718 -0.4042 -0.1069 -0.2015
   12SAPS  H13X 1579   0.673   6.690   4.689 -0.9696  0.0698 -1.2166
   12SAPS  H13Y 1580   0.668   6.525   4.722  0.5923  0.6801  0.5769
   12SAPS  C314 1581   0.560   6.636   4.868 -0.5463  0.4224  0.4342
   12SAPS  H14X 1582   0.508   6.733   4.880 -0.1861  0.4805  1.6499
   12SAPS  H14Y 1583   0.645   6.633   4.939  0.3543 -0.2744 -0.6379
   12SAPS  C315 1584   0.474   6.518   4.913  0.1255  0.2370  0.4362
   12SAPS  H15X 1585   0.512   6.420   4.875 -1.3086  0.6818 -2.4285
   12SAPS  H15Y 1586   0.373   6.530   4.868  0.8561 -0.4341 -1.4952
   12SAPS  C316 1587   0.447   6.510   5.067  0.6266 -0.3439  0.1028
   12SAPS  H16X 1588   0.389   6.598   5.102  3.5659  2.0139 -0.5377
   12SAPS  H16Y 1589   0.548   6.519   5.113  1.4280 -0.8340 -1.4924
   12SAPS  C317 1590   0.377   6.382   5.112 -0.5463  0.9669 -0.5544
   12SAPS  H17X 1591   0.392   6.383   5.222  0.2190  0.6925 -0.6550
   12SAPS  H17Y 1592   0.417   6.283   5.083 -0.5998  1.1671 -1.3431
   12SAPS  C318 1593   0.220   6.374   5.096 -0.3172  0.0861  0.2440
   12SAPS  H18X 1594   0.172   6.286   5.144 -0.7593  0.3944  0.3754
   12SAPS  H18Y 1595   0.202   6.370   4.986  2.3455  0.5734 -0.2767
   12SAPS  H18Z 1596   0.176   6.469   5.131 -0.4011  1.1775 -2.5389
   13SAPS     N 1597   1.742   4.921   3.006 -0.3056 -0.1278 -0.1354
   13SAPS   HN1 1598   1.743   4.989   3.085 -2.1716  0.2490 -0.3845
   13SAPS   HN2 1599   1.641   4.898   3.002 -0.1318 -1.4274  1.7150
   13SAPS   HN3 1600   1.810   4.847   3.034  0.0326  0.2917  0.1692
   13SAPS   C12 1601   1.787   4.979   2.876 -0.4814 -0.0758  0.4713
   13SAPS  H12A 1602   1.755   4.917   2.794  1.5098 -0.2818 -0.2051
   13SAPS   C13 1603   1.715   5.113   2.838  0.2851 -0.7396  0.4035
   13SAPS  O13A 1604   1.634   5.156   2.926  0.8495 -0.1834 -0.0195
   13SAPS  O13B 1605   1.720   5.153   2.716 -0.0556  0.6766 -0.3225
   13SAPS   C11 1606   1.942   5.003   2.879  0.2790  0.5277  0.7219
   13SAPS  H11A 1607   1.954   5.088   2.948 -3.8261  0.6611  1.5382
   13SAPS  H11B 1608   1.968   5.038   2.777 -1.5636  0.6520  0.2575
   13SAPS     P 1609   2.173   4.903   2.938 -0.1061  0.4756 -0.0289
   13SAPS   O13 1610   2.225   4.772   2.988 -0.4731  0.2476  0.1781
   13SAPS   O14 1611   2.229   4.939   2.801 -0.2359  0.1834 -0.2469
   13SAPS   O12 1612   2.013   4.881   2.925  0.4949  0.1084  0.5227
   13SAPS   O11 1613   2.180   5.017   3.044  0.7056 -0.0747 -0.0223
   13SAPS    C1 1614   2.127   4.990   3.175 -0.5267 -0.6313  0.1115
   13SAPS    HA 1615   2.075   5.080   3.214  0.5618 -0.8736  2.2960
   13SAPS    HB 1616   2.055   4.906   3.180 -0.9942 -0.2298  0.1898
   13SAPS    C2 1617   2.233   4.973   3.292 -0.4327 -0.1324  0.1225
   13SAPS    HS 1618   2.301   5.060   3.276 -1.0800  0.2525 -0.6047
   13SAPS   O21 1619   2.306   4.853   3.279 -0.5374  0.5818 -0.2663
   13SAPS   C21 1620   2.425   4.848   3.215  0.0600  0.1365 -0.1546
   13SAPS   O22 1621   2.484   4.937   3.158 -0.4421 -0.1078  0.2669
   13SAPS   C22 1622   2.471   4.704   3.215  0.0468  0.2040 -0.4802
   13SAPS   H2R 1623   2.425   4.640   3.294 -0.0566  0.8700  0.0098
   13SAPS   H2S 1624   2.437   4.666   3.117  0.7920  3.2664 -2.0606
   13SAPS    C3 1625   2.170   4.967   3.427  0.0632 -0.2522 -0.0938
   13SAPS    HX 1626   2.252   4.980   3.502 -0.1193 -0.0023  0.0645
   13SAPS    HY 1627   2.128   4.866   3.445 -0.4787  0.1353  0.9032
   13SAPS   O31 1628   2.071   5.072   3.441 -0.2613 -0.2518 -0.6340
   13SAPS   C31 1629   1.950   5.033   3.481  0.1987 -0.0665  0.4162
   13SAPS   O32 1630   1.914   4.921   3.505  0.5852 -0.2377  0.7906
   13SAPS   C32 1631   1.853   5.153   3.486  0.9357  0.0785  0.0646
   13SAPS   H2X 1632   1.751   5.109   3.480  0.6408  0.9242 -2.8500
   13SAPS   H2Y 1633   1.858   5.209   3.390 -2.0448  0.0042 -0.2136
   13SAPS   C23 1634   2.627   4.682   3.244  1.1707 -0.0470  0.4979
   13SAPS   H3R 1635   2.690   4.747   3.178  0.4269 -0.8279 -1.0234
   13SAPS   H3S 1636   2.636   4.576   3.215 -0.5706 -0.5180  1.5717
   13SAPS   C24 1637   2.660   4.679   3.394  0.0896  0.3784  0.1530
   13SAPS   H4R 1638   2.661   4.784   3.431  1.2402  0.1898  0.6773
   13SAPS   H4S 1639   2.766   4.649   3.404 -0.0081  0.4630  1.5377
   13SAPS   C25 1640   2.574   4.585   3.474  0.4267  0.1658 -0.4247
   13SAPS   H5R 1641   2.601   4.480   3.453 -1.6895 -0.6857  0.7977
   13SAPS   C26 1642   2.487   4.614   3.572  0.1171 -0.2583  0.0859
   13SAPS   H6R 1643   2.446   4.524   3.620 -0.7761  0.5844  0.9620
   13SAPS   C27 1644   2.428   4.752   3.610 -0.1405  0.2805  0.3648
   13SAPS   H7R 1645   2.324   4.744   3.649 -0.8528  0.9276 -1.2846
   13SAPS   H7S 1646   2.402   4.797   3.511 -0.7171 -1.3731 -0.2763
   13SAPS   C28 1647   2.515   4.852   3.681 -0.0724  0.4739 -0.1032
   13SAPS   H8R 1648   2.542   4.941   3.623  1.1845  0.4334  0.3968
   13SAPS   C29 1649   2.566   4.834   3.808 -0.6380 -0.0871 -0.8540
   13SAPS   H9R 1650   2.642   4.905   3.845 -0.4586 -0.8406  0.2845
   13SAPS  C210 1651   2.541   4.720   3.903  0.0664  0.0794 -0.8641
   13SAPS  H10R 1652   2.610   4.725   3.990 -0.3747  2.4728 -0.5812
   13SAPS  H10S 1653   2.574   4.629   3.849  2.8625 -0.2818  1.2216
   13SAPS  C211 1654   2.398   4.711   3.947 -0.5307 -0.1964 -0.7076
   13SAPS  H11R 1655   2.325   4.698   3.866 -1.0496  2.6333 -0.8185
   13SAPS  C212 1656   2.353   4.698   4.072  0.1132 -0.0864  0.1711
   13SAPS  H12R 1657   2.247   4.682   4.096  0.2060 -2.9960 -0.9900
   13SAPS  C213 1658   2.441   4.705   4.193  0.1611 -0.4551  0.2605
   13SAPS  H13R 1659   2.523   4.630   4.195  1.9767  1.4482  1.7944
   13SAPS  H13S 1660   2.379   4.683   4.282 -0.4352  1.4070  0.3571
   13SAPS  C214 1661   2.513   4.835   4.222 -0.6050 -0.9869 -0.8780
   13SAPS  H14R 1662   2.535   4.895   4.133 -0.1270 -0.1701 -0.2187
   13SAPS  C215 1663   2.556   4.881   4.342  0.3149  0.0335 -0.0929
   13SAPS  H15R 1664   2.622   4.969   4.340  0.2275  0.0844 -0.8568
   13SAPS  C216 1665   2.532   4.813   4.472 -0.3981 -0.1794 -0.3429
   13SAPS  H16R 1666   2.502   4.707   4.452  2.5733 -0.7093 -2.7543
   13SAPS  H16S 1667   2.448   4.860   4.526  0.8493 -1.0422  2.5687
   13SAPS  C217 1668   2.652   4.798   4.569 -0.0140 -0.2485  0.6169
   13SAPS  H17R 1669   2.729   4.744   4.511 -0.8377 -1.8982  0.9899
   13SAPS  H17S 1670   2.632   4.724   4.649  1.8222  0.3467  1.6715
   13SAPS  C218 1671   2.704   4.921   4.642 -0.3006 -0.5023 -0.4232
   13SAPS  H18R 1672   2.624   4.949   4.714  1.6437  2.0568  0.9337
   13SAPS  H18S 1673   2.724   5.011   4.581  1.4426  0.0649  0.8934
   13SAPS  C219 1674   2.826   4.888   4.732 -0.2221  0.5428 -0.3767
   13SAPS  H19R 1675   2.906   4.830   4.681 -0.8263 -1.4876  0.8769
   13SAPS  H19S 1676   2.790   4.826   4.816 -0.2009  0.3217 -0.5319
   13SAPS  C220 1677   2.892   5.010   4.794 -0.1540 -0.3060 -0.2397
   13SAPS  H20R 1678   2.819   5.072   4.850 -0.9848 -1.1672 -0.3436
   13SAPS  H20S 1679   2.925   5.073   4.709  0.2820  0.8054  0.7340
   13SAPS  H20T 1680   2.980   4.978   4.853 -0.0037  0.4233 -0.0693
   13SAPS   C33 1681   1.864   5.244   3.608 -0.2425 -0.9285 -0.5939
   13SAPS   H3X 1682   1.795   5.326   3.579  0.0669 -1.2174 -2.2603
   13SAPS   H3Y 1683   1.967   5.284   3.611  0.3674 -2.2065 -2.6487
   13SAPS   C34 1684   1.822   5.175   3.740  0.4738 -0.5028  0.1077
   13SAPS   H4X 1685   1.913   5.133   3.788 -1.4984 -3.3806  1.5863
   13SAPS   H4Y 1686   1.749   5.097   3.711 -2.7136  2.2178  0.2564
   13SAPS   C35 1687   1.753   5.266   3.838 -0.2771  0.3199  0.5073
   13SAPS   H5X 1688   1.650   5.291   3.807 -0.1500 -1.5588 -1.7807
   13SAPS   H5Y 1689   1.810   5.361   3.846  0.8097 -0.2916  0.3078
   13SAPS   C36 1690   1.748   5.199   3.975 -0.0785  0.7781  0.0011
   13SAPS   H6X 1691   1.847   5.191   4.025 -0.4662 -1.2442  0.5569
   13SAPS   H6Y 1692   1.700   5.100   3.957 -0.8506  1.1169  0.1950
   13SAPS   C37 1693   1.660   5.266   4.079  0.1201 -0.4919  0.4733
   13SAPS   H7X 1694   1.559   5.281   4.036  0.1063  0.0316  0.6857
   13SAPS   H7Y 1695   1.696   5.370   4.094  0.0144 -0.5534  1.1824
   13SAPS   C38 1696   1.648   5.201   4.216 -0.8183  0.8411 -0.1166
   13SAPS   H8X 1697   1.745   5.171   4.260 -1.0067  1.9925  1.1607
   13SAPS   H8Y 1698   1.591   5.106   4.205  0.1995  0.3604 -1.5559
   13SAPS   C39 1699   1.596   5.286   4.334  0.0849  0.2008 -0.2663
   13SAPS   H9X 1700   1.487   5.294   4.316  0.2574  1.0660 -0.9518
   13SAPS   H9Y 1701   1.646   5.385   4.333  3.9844 -1.4336  2.7631
   13SAPS  C310 1702   1.627   5.211   4.463 -0.7491  0.3532 -0.5909
   13SAPS  H10X 1703   1.733   5.180   4.466 -1.4357 -2.2094  2.0839
   13SAPS  H10Y 1704   1.567   5.117   4.470  0.1285 -0.2202 -0.7147
   13SAPS  C311 1705   1.597   5.284   4.596  0.9997  0.3692  0.2177
   13SAPS  H11X 1706   1.654   5.380   4.595  2.1295 -0.2925 -0.6385
   13SAPS  H11Y 1707   1.654   5.221   4.668  0.4069 -0.8174 -0.3351
   13SAPS  C312 1708   1.447   5.296   4.634 -0.1762 -0.1225 -0.1501
   13SAPS  H12X 1709   1.393   5.199   4.628  2.3802 -1.8525  2.1835
   13SAPS  H12Y 1710   1.404   5.357   4.552 -1.3769 -0.6104  0.0837
   13SAPS  C313 1711   1.418   5.361   4.776  0.1758  0.7709  0.3790
   13SAPS  H13X 1712   1.464   5.462   4.766 -1.0752  1.1435 -2.4682
   13SAPS  H13Y 1713   1.469   5.293   4.848 -0.7094 -1.3500 -0.9217
   13SAPS  C314 1714   1.274   5.371   4.815 -0.0714  0.2292 -0.0226
   13SAPS  H14X 1715   1.228   5.274   4.842 -0.0676  1.0514  3.4126
   13SAPS  H14Y 1716   1.222   5.410   4.725  2.3905  0.7822 -1.3047
   13SAPS  C315 1717   1.267   5.461   4.937 -0.0476  0.0525 -0.1564
   13SAPS  H15X 1718   1.285   5.570   4.921  1.6542  0.3034  2.8932
   13SAPS  H15Y 1719   1.348   5.435   5.007  0.7168  0.6672 -0.7959
   13SAPS  C316 1720   1.127   5.459   5.008 -0.2225 -0.2650  0.5150
   13SAPS  H16X 1721   1.119   5.361   5.061  1.9393 -0.6655  0.1857
   13SAPS  H16Y 1722   1.052   5.470   4.927  1.4152 -2.2397 -1.4108
   13SAPS  C317 1723   1.091   5.569   5.111  0.0991 -0.2432 -0.5565
   13SAPS  H17X 1724   1.098   5.668   5.061 -0.3963  0.0068 -0.1291
   13SAPS  H17Y 1725   1.168   5.561   5.191 -0.0424 -0.9024 -0.4789
   13SAPS  C318 1726   0.947   5.565   5.176 -0.3119 -0.1883 -0.2758
   13SAPS  H18X 1727   0.872   5.540   5.097  0.1252 -1.3982 -0.3376
   13SAPS  H18Y 1728   0.913   5.655   5.231 -1.5407  0.0528 -1.3770
   13SAPS  H18Z 1729   0.947   5.492   5.259  0.2147  0.1387  0.0133
   14SAPS     N 1730   1.156   5.720   2.869 -0.0485  0.3873 -0.5399
   14SAPS   HN1 1731   1.233   5.704   2.937  0.5752  0.8671 -1.1187
   14SAPS   HN2 1732   1.102   5.631   2.871 -0.6566  0.7621  0.1181
   14SAPS   HN3 1733   1.198   5.735   2.775  0.1436  0.3207 -0.4641
   14SAPS   C12 1734   1.064   5.835   2.897 -0.0423  0.0810  0.3081
   14SAPS  H12A 1735   1.106   5.926   2.857 -2.3216  0.3403 -1.7252
   14SAPS   C13 1736   0.928   5.819   2.820 -0.2677 -0.4769 -0.0814
   14SAPS  O13A 1737   0.899   5.711   2.767 -1.1633 -0.0101  0.4749
   14SAPS  O13B 1738   0.845   5.913   2.840  0.1862  0.1285  0.0499
   14SAPS   C11 1739   1.039   5.842   3.051  0.1968 -0.3661  0.8622
   14SAPS  H11A 1740   0.990   5.749   3.086  0.3501 -0.4767  0.7867
   14SAPS  H11B 1741   0.962   5.919   3.073 -1.8701 -1.2595 -2.5703
   14SAPS     P 1742   1.160   5.928   3.262 -0.1305  0.0731 -0.4161
   14SAPS   O13 1743   1.299   5.950   3.304 -0.6860  0.0109 -0.2876
   14SAPS   O14 1744   1.070   6.046   3.250 -0.8660 -0.0454 -0.4105
   14SAPS   O12 1745   1.164   5.860   3.122 -0.0591 -0.9098  0.0702
   14SAPS   O11 1746   1.097   5.817   3.351 -0.5907  0.9360 -0.3671
   14SAPS    C1 1747   1.146   5.684   3.331  0.8714  0.6781  0.6191
   14SAPS    HA 1748   1.064   5.616   3.299  0.2100  1.4278  0.6671
   14SAPS    HB 1749   1.225   5.672   3.255 -2.1953 -0.2456 -2.6997
   14SAPS    C2 1750   1.211   5.622   3.459 -0.1403  0.2991 -0.5068
   14SAPS    HS 1751   1.209   5.511   3.460  0.6298  0.2517  1.7570
   14SAPS   O21 1752   1.147   5.661   3.580  0.2906  0.7572 -0.5977
   14SAPS   C21 1753   1.026   5.622   3.590  0.5441 -0.9843  0.1665
   14SAPS   O22 1754   0.972   5.524   3.533  0.5243 -0.3970  0.0135
   14SAPS   C22 1755   0.962   5.694   3.710 -0.7495  0.0874  0.3618
   14SAPS   H2R 1756   1.044   5.709   3.783  0.1138  0.1087 -0.6037
   14SAPS   H2S 1757   0.925   5.791   3.669  1.3926  1.2001  0.9490
   14SAPS    C3 1758   1.364   5.655   3.462  0.1627 -0.2140  0.3923
   14SAPS    HX 1759   1.380   5.765   3.465  0.5724 -0.2702  0.3027
   14SAPS    HY 1760   1.407   5.621   3.365 -0.6917  1.8339 -0.7662
   14SAPS   O31 1761   1.427   5.602   3.580  0.4167 -0.0122  0.3422
   14SAPS   C31 1762   1.450   5.695   3.681 -0.4706  0.9081  0.0292
   14SAPS   O32 1763   1.437   5.813   3.674  0.7763  0.0866  0.2660
   14SAPS   C32 1764   1.506   5.624   3.805  0.3530 -0.6184 -0.2892
   14SAPS   H2X 1765   1.588   5.560   3.765  0.7205  0.8009 -1.9089
   14SAPS   H2Y 1766   1.424   5.567   3.853  1.7041 -3.8024 -1.4657
   14SAPS   C23 1767   0.850   5.603   3.768  0.0823 -0.0583  0.1344
   14SAPS   H3R 1768   0.854   5.620   3.878  1.5281  1.6908 -0.1337
   14SAPS   H3S 1769   0.866   5.494   3.756 -0.9824 -0.5112  2.3429
   14SAPS   C24 1770   0.714   5.630   3.705  0.5022  0.7991  0.0964
   14SAPS   H4R 1771   0.740   5.622   3.597  3.2768 -1.8080  0.8323
   14SAPS   H4S 1772   0.682   5.735   3.721 -0.9537  0.0901  2.3628
   14SAPS   C25 1773   0.606   5.535   3.729  0.4886  0.6506  0.3048
   14SAPS   H5R 1774   0.611   5.436   3.682 -2.0009  0.1308  0.9711
   14SAPS   C26 1775   0.497   5.560   3.805  0.4779 -0.5197  0.0268
   14SAPS   H6R 1776   0.426   5.483   3.836 -2.4229  1.3154 -1.6389
   14SAPS   C27 1777   0.488   5.693   3.881  0.0670  0.4633 -0.1615
   14SAPS   H7R 1778   0.503   5.780   3.815 -1.1280  1.4572  0.8378
   14SAPS   H7S 1779   0.564   5.697   3.962 -1.5773  1.3630  1.3890
   14SAPS   C28 1780   0.352   5.699   3.950 -0.3089 -0.1630  0.4378
   14SAPS   H8R 1781   0.266   5.664   3.890 -0.2695  0.1194  0.2141
   14SAPS   C29 1782   0.323   5.747   4.071  0.1305 -0.3195  0.4918
   14SAPS   H9R 1783   0.231   5.703   4.113  1.1028 -1.3036  1.6856
   14SAPS  C210 1784   0.420   5.803   4.169  0.3575 -0.3963 -0.0321
   14SAPS  H10R 1785   0.483   5.861   4.098  2.7094 -1.4944  1.0687
   14SAPS  H10S 1786   0.477   5.712   4.195 -1.1269 -1.7118 -1.1981
   14SAPS  C211 1787   0.370   5.884   4.283 -0.4065  0.2587 -0.1887
   14SAPS  H11R 1788   0.311   5.975   4.262  2.0011  2.4852  1.9311
   14SAPS  C212 1789   0.394   5.870   4.413  0.1202  0.5528  0.9490
   14SAPS  H12R 1790   0.342   5.938   4.483 -1.1882 -1.7761  2.4022
   14SAPS  C213 1791   0.458   5.742   4.468 -0.8219  0.2145  0.2825
   14SAPS  H13R 1792   0.466   5.657   4.398  0.4068  0.2254  0.3893
   14SAPS  H13S 1793   0.401   5.711   4.559 -0.8599 -0.3911  0.0556
   14SAPS  C214 1794   0.603   5.777   4.497  0.8377 -0.1320 -0.4606
   14SAPS  H14R 1795   0.665   5.817   4.416  0.8167  2.2698  0.6440
   14SAPS  C215 1796   0.662   5.743   4.614  0.3336  0.1413  0.1457
   14SAPS  H15R 1797   0.768   5.771   4.627  1.2728 -1.4760 -2.9597
   14SAPS  C216 1798   0.598   5.674   4.727 -0.2775 -0.1526 -0.6585
   14SAPS  H16R 1799   0.505   5.618   4.704  0.2525 -1.0996 -0.5864
   14SAPS  H16S 1800   0.575   5.749   4.806 -1.7365  0.0743 -1.2745
   14SAPS  C217 1801   0.705   5.574   4.793  0.2379  0.4172  0.3094
   14SAPS  H17R 1802   0.681   5.545   4.897 -1.6923 -1.6640 -0.6271
   14SAPS  H17S 1803   0.802   5.627   4.786  0.1705  0.4007 -0.9571
   14SAPS  C218 1804   0.711   5.429   4.724  0.0615  0.2630 -0.0719
   14SAPS  H18R 1805   0.737   5.445   4.617 -1.8064  1.5019 -0.3897
   14SAPS  H18S 1806   0.611   5.383   4.731  0.1237  0.1792  0.2544
   14SAPS  C219 1807   0.800   5.326   4.788  0.2618 -0.5300  0.5472
   14SAPS  H19R 1808   0.907   5.354   4.785  0.0783  0.0997 -0.4771
   14SAPS  H19S 1809   0.795   5.233   4.727 -0.3839  0.7008 -1.3619
   14SAPS  C220 1810   0.755   5.279   4.928 -0.2598  0.5648 -0.0157
   14SAPS  H20R 1811   0.806   5.181   4.944 -1.1826 -0.1228 -1.0525
   14SAPS  H20S 1812   0.644   5.271   4.930 -0.2268  0.1502  0.3918
   14SAPS  H20T 1813   0.796   5.337   5.013  1.0161 -0.9252  0.4460
   14SAPS   C33 1814   1.568   5.727   3.902 -0.8659 -0.5225 -0.6384
   14SAPS   H3X 1815   1.483   5.776   3.954 -1.2504  0.3207 -2.0107
   14SAPS   H3Y 1816   1.624   5.800   3.840  0.4923 -0.4492  0.6145
   14SAPS   C34 1817   1.644   5.661   4.011 -0.9067 -0.2998 -0.3023
   14SAPS   H4X 1818   1.717   5.593   3.962  1.6543  1.3032  1.0561
   14SAPS   H4Y 1819   1.575   5.600   4.073 -0.0045 -1.3961 -0.3325
   14SAPS   C35 1820   1.724   5.769   4.093  0.6922  0.0336 -0.6005
   14SAPS   H5X 1821   1.803   5.805   4.024  0.6899  0.8504 -0.1819
   14SAPS   H5Y 1822   1.786   5.730   4.177  0.5256  0.9405 -0.0380
   14SAPS   C36 1823   1.641   5.891   4.141  0.6163 -0.0439  0.0361
   14SAPS   H6X 1824   1.594   5.940   4.053  0.2365 -0.9356 -0.2752
   14SAPS   H6Y 1825   1.725   5.956   4.173 -0.4644  1.0696  0.6855
   14SAPS   C37 1826   1.543   5.873   4.255  0.0364 -0.2164 -0.5286
   14SAPS   H7X 1827   1.589   5.804   4.330 -2.3105  1.3345  2.5460
   14SAPS   H7Y 1828   1.454   5.823   4.211 -0.1798 -0.9855  0.7120
   14SAPS   C38 1829   1.517   6.009   4.326  0.2637 -0.6560 -0.5233
   14SAPS   H8X 1830   1.483   6.075   4.243 -0.0915 -0.4772 -0.2361
   14SAPS   H8Y 1831   1.614   6.043   4.368 -1.1190  3.6110 -0.3285
   14SAPS   C39 1832   1.397   6.001   4.414 -0.2424  0.0246 -0.1485
   14SAPS   H9X 1833   1.300   5.982   4.363 -1.3107 -2.1452  2.3839
   14SAPS   H9Y 1834   1.386   6.096   4.470 -1.3784 -0.7128  0.9654
   14SAPS  C310 1835   1.399   5.890   4.522  0.5855 -0.6384  0.2761
   14SAPS  H10X 1836   1.499   5.897   4.571  0.4863 -1.4762  0.6048
   14SAPS  H10Y 1837   1.371   5.794   4.474 -1.2304 -0.1016  0.1893
   14SAPS  C311 1838   1.299   5.922   4.633 -0.2533 -0.4383  1.0067
   14SAPS  H11X 1839   1.198   5.910   4.587  0.5078  0.3170 -0.9589
   14SAPS  H11Y 1840   1.304   6.029   4.661 -1.4004  0.4260 -1.7491
   14SAPS  C312 1841   1.301   5.838   4.756  0.4657 -0.0208 -0.1887
   14SAPS  H12X 1842   1.308   5.734   4.716 -1.0484 -0.8822  1.6343
   14SAPS  H12Y 1843   1.210   5.842   4.819  2.5943  2.4489  3.1231
   14SAPS  C313 1844   1.412   5.874   4.854 -0.2401 -0.3371 -0.5807
   14SAPS  H13X 1845   1.384   5.968   4.905 -0.0019  0.0672 -1.1814
   14SAPS  H13Y 1846   1.499   5.890   4.786 -1.4796  2.5389 -1.6573
   14SAPS  C314 1847   1.446   5.771   4.957 -0.0022 -0.0419 -0.4343
   14SAPS  H14X 1848   1.468   5.684   4.890  0.3033 -0.5021  0.2510
   14SAPS  H14Y 1849   1.354   5.756   5.017  0.6218 -0.4612  0.4404
   14SAPS  C315 1850   1.552   5.790   5.061 -0.3607 -0.3519 -0.8438
   14SAPS  H15X 1851   1.651   5.823   5.024 -0.3572 -0.2737 -0.7650
   14SAPS  H15Y 1852   1.563   5.695   5.117 -1.1444  0.6635  1.1572
   14SAPS  C316 1853   1.518   5.892   5.180 -0.4809  0.8588 -0.4662
   14SAPS  H16X 1854   1.423   5.855   5.224  0.1045  0.6487  0.6634
   14SAPS  H16Y 1855   1.497   5.993   5.138 -2.2055 -0.0929 -2.0094
   14SAPS  C317 1856   1.616   5.900   5.294  0.6761  0.6704 -0.2668
   14SAPS  H17X 1857   1.566   5.972   5.363 -1.3019  0.1583 -1.0967
   14SAPS  H17Y 1858   1.717   5.945   5.279  0.6634  0.5833 -0.6330
   14SAPS  C318 1859   1.625   5.769   5.371  0.6819  0.3790 -0.0226
   14SAPS  H18X 1860   1.691   5.787   5.459  2.0202  0.5842 -1.0388
   14SAPS  H18Y 1861   1.667   5.689   5.307  1.1560  1.1469 -0.7073
   14SAPS  H18Z 1862   1.523   5.745   5.407  1.0513  0.0082  0.7981
   15SAPS     N 1863   0.021   0.138   2.950  0.3974 -0.3898 -0.2356
   15SAPS   HN1 1864   0.120   0.136   2.918  0.5804  0.2621  0.2761
   15SAPS   HN2 1865  -0.002   0.235   2.978 -0.3521 -0.2975 -1.1197
   15SAPS   HN3 1866   0.013   0.081   3.037 -2.4788 -1.4983 -1.1346
   15SAPS   C12 1867  -0.056   0.075   2.851 -0.0831  0.2578  0.0451
   15SAPS  H12A 1868  -0.073   0.148   2.773  1.9388 -0.5240 -1.2067
   15SAPS   C13 1869   0.018  -0.045   2.782  0.1697 -0.1218 -0.1425
   15SAPS  O13A 1870   0.139  -0.071   2.811 -0.5041 -0.9860  0.0609
   15SAPS  O13B 1871  -0.036  -0.120   2.701  0.0596 -0.0481 -0.3787
   15SAPS   C11 1872  -0.192   0.036   2.911  0.2207  0.6089  0.9057
   15SAPS  H11A 1873  -0.182  -0.062   2.962 -0.7731 -1.2711 -2.2407
   15SAPS  H11B 1874  -0.269   0.015   2.834  0.1565 -0.8301  1.3289
   15SAPS     P 1875  -0.391   0.130   3.059  0.1965  0.2417 -0.1949
   15SAPS   O13 1876  -0.489   0.202   2.975  0.2914  0.2000 -0.2853
   15SAPS   O14 1877  -0.418  -0.011   3.095 -0.0396  0.6194  0.2822
   15SAPS   O12 1878  -0.242   0.143   2.991  0.1966 -0.3280  0.3669
   15SAPS   O11 1879  -0.376   0.212   3.194  0.6754  0.0315  0.5538
   15SAPS    C1 1880  -0.282   0.155   3.293 -0.4771 -0.3712 -0.3805
   15SAPS    HA 1881  -0.198   0.091   3.257  2.1740  0.9625  2.8912
   15SAPS    HB 1882  -0.238   0.236   3.354 -0.9044 -0.2125 -0.2841
   15SAPS    C2 1883  -0.339   0.079   3.412 -0.1612  0.1231  0.1694
   15SAPS    HS 1884  -0.381  -0.012   3.365  1.1428  1.0672 -3.1267
   15SAPS   O21 1885  -0.435   0.167   3.473  0.4613 -0.0858 -0.3842
   15SAPS   C21 1886  -0.544   0.097   3.522  0.0300  0.3459 -0.0062
   15SAPS   O22 1887  -0.574  -0.016   3.491 -0.1363 -0.0879 -0.0729
   15SAPS   C22 1888  -0.622   0.181   3.624  0.2119 -0.4596 -0.1118
   15SAPS   H2R 1889  -0.551   0.255   3.667  0.6126 -0.6683 -0.4038
   15SAPS   H2S 1890  -0.699   0.238   3.567  0.4100 -0.0759 -0.0002
   15SAPS    C3 1891  -0.228   0.040   3.520 -0.0382  0.1968  0.5681
   15SAPS    HX 1892  -0.166   0.129   3.540  1.9327 -1.0086  0.0693
   15SAPS    HY 1893  -0.163  -0.045   3.491 -0.5059 -0.2224  0.7211
   15SAPS   O31 1894  -0.282   0.014   3.648 -0.6941  0.2074  0.1319
   15SAPS   C31 1895  -0.191  -0.016   3.745 -0.3277  0.1902  0.8236
   15SAPS   O32 1896  -0.070  -0.027   3.728  0.1912  0.2638 -0.2957
   15SAPS   C32 1897  -0.267  -0.043   3.870 -0.0183  0.1348 -0.0637
   15SAPS   H2X 1898  -0.328  -0.135   3.859 -0.6943  0.6118 -0.3554
   15SAPS   H2Y 1899  -0.320   0.046   3.909 -1.6496 -0.5419 -0.6734
   15SAPS   C23 1900  -0.703   0.091   3.724 -0.1950 -0.2001 -0.1887
   15SAPS   H3R 1901  -0.648  -0.003   3.745 -2.7245 -1.5783  0.6358
   15SAPS   H3S 1902  -0.799   0.059   3.678 -0.3920 -2.1800  1.4873
   15SAPS   C24 1903  -0.713   0.153   3.867 -0.1756  0.1935 -0.4684
   15SAPS   H4R 1904  -0.775   0.089   3.933  1.3083 -2.6035 -1.5998
   15SAPS   H4S 1905  -0.776   0.244   3.856 -1.5233 -0.3909  1.7987
   15SAPS   C25 1906  -0.584   0.189   3.937  0.0377  0.6056  0.5229
   15SAPS   H5R 1907  -0.541   0.278   3.890 -2.4098  1.0201 -1.1177
   15SAPS   C26 1908  -0.534   0.136   4.048  0.2135  0.1516 -0.1498
   15SAPS   H6R 1909  -0.437   0.173   4.082 -0.3451  0.7871  0.8041
   15SAPS   C27 1910  -0.587   0.019   4.136  0.2423 -0.0986  0.1988
   15SAPS   H7R 1911  -0.516   0.013   4.221  0.8120  0.9542 -0.1992
   15SAPS   H7S 1912  -0.583  -0.083   4.092  1.0027 -0.8809  1.9512
   15SAPS   C28 1913  -0.730   0.053   4.193 -0.2091 -0.5190 -0.2014
   15SAPS   H8R 1914  -0.781   0.133   4.138 -3.0080 -2.2697 -0.3220
   15SAPS   C29 1915  -0.779   0.024   4.318 -0.5820 -0.2504  0.3401
   15SAPS   H9R 1916  -0.879   0.055   4.352 -0.5916  0.2792 -0.1753
   15SAPS  C210 1917  -0.712  -0.079   4.411  0.5711 -0.2827  0.1132
   15SAPS  H10R 1918  -0.663  -0.159   4.351 -0.8952  0.1625 -1.7626
   15SAPS  H10S 1919  -0.790  -0.132   4.468 -2.0945  0.4329 -2.6364
   15SAPS  C211 1920  -0.616  -0.002   4.499  0.0401  0.3193 -1.0134
   15SAPS  H11R 1921  -0.549   0.073   4.454 -0.6900  1.2313 -0.6111
   15SAPS  C212 1922  -0.600  -0.026   4.633  0.3796  0.2735  0.2959
   15SAPS  H12R 1923  -0.520   0.027   4.686 -0.9355  1.8769  0.7775
   15SAPS  C213 1924  -0.671  -0.150   4.700 -0.1866 -0.1454  0.1540
   15SAPS  H13R 1925  -0.598  -0.185   4.777  0.2363 -0.1746 -0.2562
   15SAPS  H13S 1926  -0.679  -0.231   4.624  1.0780  0.8237 -1.0731
   15SAPS  C214 1927  -0.800  -0.134   4.777 -0.2187  0.1089 -0.3536
   15SAPS  H14R 1928  -0.893  -0.172   4.732 -1.1860 -1.0015  2.3635
   15SAPS  C215 1929  -0.812  -0.101   4.908 -0.1695  0.7487  0.8173
   15SAPS  H15R 1930  -0.914  -0.101   4.949 -0.9423 -1.8652 -0.8808
   15SAPS  C216 1931  -0.707  -0.047   5.003  0.7713 -0.5173 -1.0716
   15SAPS  H16R 1932  -0.751   0.036   5.063  1.2340 -1.2537  0.3463
   15SAPS  H16S 1933  -0.636   0.007   4.937  1.0798  0.4650  0.0257
   15SAPS  C217 1934  -0.640  -0.147   5.097 -0.4877 -0.0704  0.7236
   15SAPS  H17R 1935  -0.580  -0.224   5.045 -0.9692  0.3818 -0.5455
   15SAPS  H17S 1936  -0.727  -0.199   5.143 -1.7001 -1.1002 -2.4338
   15SAPS  C218 1937  -0.551  -0.074   5.200  0.6141  0.7438  0.4227
   15SAPS  H18R 1938  -0.632  -0.010   5.242 -0.0013  2.3225 -2.8587
   15SAPS  H18S 1939  -0.477  -0.010   5.148  0.7958  0.3732  0.2228
   15SAPS  C219 1940  -0.482  -0.178   5.293  0.3810 -0.1622  0.1769
   15SAPS  H19R 1941  -0.407  -0.242   5.241 -1.4213 -0.7078 -1.8820
   15SAPS  H19S 1942  -0.557  -0.250   5.328 -0.0514  0.7338  1.1463
   15SAPS  C220 1943  -0.410  -0.099   5.410 -0.7390  0.2452  0.5610
   15SAPS  H20R 1944  -0.322  -0.048   5.364  0.2602 -2.8969 -1.3315
   15SAPS  H20S 1945  -0.389  -0.164   5.498 -0.4191  0.1634  0.4262
   15SAPS  H20T 1946  -0.476  -0.017   5.446  0.5125  1.4653  0.1586
   15SAPS   C33 1947  -0.160  -0.057   3.987 -0.1852 -0.0620  0.4671
   15SAPS   H3X 1948  -0.091   0.029   3.986  0.6212 -0.7034 -0.4296
   15SAPS   H3Y 1949  -0.098  -0.148   3.976 -0.0424 -0.1581  1.8644
   15SAPS   C34 1950  -0.221  -0.070   4.134 -0.2306 -0.3188  0.8036
   15SAPS   H4X 1951  -0.296  -0.152   4.137  1.2660 -2.0259 -2.7360
   15SAPS   H4Y 1952  -0.280   0.024   4.146  1.1862  0.7937 -0.5299
   15SAPS   C35 1953  -0.113  -0.079   4.237  0.7705  0.6605 -1.1834
   15SAPS   H5X 1954  -0.041   0.004   4.222  2.1054 -0.3131 -0.4079
   15SAPS   H5Y 1955  -0.062  -0.170   4.199 -1.3927 -0.5444 -1.3751
   15SAPS   C36 1956  -0.178  -0.085   4.381 -0.6861  0.1203 -0.2811
   15SAPS   H6X 1957  -0.239  -0.178   4.387 -0.0757 -0.2462  0.3847
   15SAPS   H6Y 1958  -0.245   0.003   4.389 -0.7882  0.1565 -1.3725
   15SAPS   C37 1959  -0.067  -0.093   4.496 -0.5042 -0.0092 -0.9018
   15SAPS   H7X 1960  -0.003  -0.005   4.477 -0.0945 -0.1294 -0.1206
   15SAPS   H7Y 1961  -0.023  -0.194   4.478 -1.2778 -0.7729  1.0902
   15SAPS   C38 1962  -0.119  -0.105   4.643  0.6882 -0.7818  0.0775
   15SAPS   H8X 1963  -0.175  -0.202   4.646 -0.7110 -0.0384 -1.0975
   15SAPS   H8Y 1964  -0.194  -0.026   4.664  0.7587 -1.4547  3.4958
   15SAPS   C39 1965  -0.008  -0.106   4.749 -0.7393 -0.3848  0.0009
   15SAPS   H9X 1966   0.059  -0.020   4.726 -2.0723  0.3352 -1.3092
   15SAPS   H9Y 1967   0.064  -0.189   4.735  2.5024  2.3652 -1.1960
   15SAPS  C310 1968  -0.052  -0.100   4.891 -0.3338  0.2704 -0.1057
   15SAPS  H10X 1969  -0.111  -0.194   4.901  0.4760 -0.2513 -0.1417
   15SAPS  H10Y 1970  -0.127  -0.019   4.900  0.6304  1.5388 -2.5655
   15SAPS  C311 1971   0.057  -0.075   4.994  0.1708 -0.1711 -0.4014
   15SAPS  H11X 1972   0.105   0.019   4.961  1.1578 -0.3183  0.5850
   15SAPS  H11Y 1973   0.134  -0.156   4.989  0.5815  0.0943  1.2057
   15SAPS  C312 1974  -0.001  -0.055   5.127 -0.0755  1.0167 -0.3290
   15SAPS  H12X 1975  -0.057  -0.146   5.157  0.4390  0.4458 -1.0875
   15SAPS  H12Y 1976  -0.074   0.028   5.118 -0.5178  0.6668 -0.0363
   15SAPS  C313 1977   0.112  -0.032   5.225  0.1185  0.2952 -0.7664
   15SAPS  H13X 1978   0.187   0.039   5.184  0.5267 -0.5724 -1.5420
   15SAPS  H13Y 1979   0.164  -0.130   5.240 -0.7268  0.1874  1.9128
   15SAPS  C314 1980   0.067   0.016   5.364  0.6442  0.4837  0.3165
   15SAPS  H14X 1981  -0.024  -0.037   5.399  1.0612 -1.8271 -1.7916
   15SAPS  H14Y 1982   0.029   0.120   5.364 -2.1673 -0.4667  0.7511
   15SAPS  C315 1983   0.174  -0.000   5.467 -0.0706  0.7331 -0.5351
   15SAPS  H15X 1984   0.261   0.054   5.425  1.1697 -1.4663 -0.9058
   15SAPS  H15Y 1985   0.198  -0.107   5.486 -0.1071  1.0480  1.4852
   15SAPS  C316 1986   0.140   0.074   5.593 -0.4101 -0.3418 -0.7027
   15SAPS  H16X 1987   0.102   0.174   5.562  0.7274  0.2802 -0.1522
   15SAPS  H16Y 1988   0.226   0.088   5.662 -1.8983 -0.6534  1.3285
   15SAPS  C317 1989   0.022   0.022   5.680 -0.2606 -0.8045  0.4672
   15SAPS  H17X 1990   0.030  -0.086   5.705  0.3718 -1.2056 -1.3065
   15SAPS  H17Y 1991  -0.074   0.032   5.624 -0.4943 -0.6277  0.8874
   15SAPS  C318 1992  -0.002   0.121   5.791 -0.2888  0.0104  0.7207
   15SAPS  H18X 1993  -0.109   0.131   5.819 -1.1386 -0.5114 -2.0430
   15SAPS  H18Y 1994   0.033   0.217   5.747 -1.4576  0.3107  0.4130
   15SAPS  H18Z 1995   0.054   0.090   5.882 -1.1949 -0.9368  0.9714
   16SAPS     N 1996   2.145   0.494   3.014 -0.2055  0.1710 -0.1966
   16SAPS   HN1 1997   2.192   0.539   3.095 -2.1859 -0.6697  1.5041
   16SAPS   HN2 1998   2.122   0.395   3.038  0.3740  0.0190 -0.2504
   16SAPS   HN3 1999   2.192   0.487   2.921 -0.2343  0.7213 -0.2509
   16SAPS   C12 2000   2.013   0.559   2.976  0.2176 -0.1395 -0.1057
   16SAPS  H12A 2001   2.044   0.658   2.943 -1.0047  0.2144 -0.2388
   16SAPS   C13 2002   1.953   0.493   2.850 -0.6947  0.4780  0.2854
   16SAPS  O13A 2003   2.001   0.392   2.786  0.9225 -0.1405 -0.9688
   16SAPS  O13B 2004   1.845   0.545   2.805  0.1037  0.4994 -0.2197
   16SAPS   C11 2005   1.910   0.551   3.098 -0.3342 -0.1983  1.1273
   16SAPS  H11A 2006   1.889   0.443   3.112  1.3230 -0.7898 -0.4954
   16SAPS  H11B 2007   1.818   0.605   3.066  0.8818  1.5571  0.4844
   16SAPS     P 2008   1.947   0.753   3.257 -0.2443  0.3488 -0.0742
   16SAPS   O13 2009   2.085   0.810   3.261  0.5629 -0.0356 -0.5382
   16SAPS   O14 2010   1.844   0.818   3.174  0.2517 -0.0377 -0.0011
   16SAPS   O12 2011   1.966   0.606   3.216  0.2507  0.2680  0.0488
   16SAPS   O11 2012   1.880   0.733   3.396  0.3764 -0.2731 -0.3601
   16SAPS    C1 2013   1.762   0.653   3.416  0.2192 -0.5025 -0.4695
   16SAPS    HA 2014   1.688   0.680   3.339  1.5267  1.3630 -1.1345
   16SAPS    HB 2015   1.786   0.544   3.413  1.0651 -0.3035 -1.0991
   16SAPS    C2 2016   1.697   0.685   3.552 -0.0425  0.1876 -0.1294
   16SAPS    HS 2017   1.593   0.647   3.552 -0.0012 -0.6240 -5.3768
   16SAPS   O21 2018   1.708   0.826   3.573  0.6201  0.6866  0.1778
   16SAPS   C21 2019   1.618   0.875   3.650  0.0509 -0.4959 -0.3397
   16SAPS   O22 2020   1.516   0.819   3.687 -0.2724 -0.4153 -0.1017
   16SAPS   C22 2021   1.646   1.020   3.667 -0.1847  0.5938  0.1197
   16SAPS   H2R 2022   1.751   1.025   3.630 -0.6870  1.8290 -1.1784
   16SAPS   H2S 2023   1.582   1.073   3.594  0.1667 -0.2345 -0.8286
   16SAPS    C3 2024   1.783   0.613   3.667  0.0367 -0.7036  0.3459
   16SAPS    HX 2025   1.880   0.667   3.664  0.0564 -0.6748  1.2948
   16SAPS    HY 2026   1.798   0.506   3.638  2.5962 -0.5469  0.8264
   16SAPS   O31 2027   1.721   0.639   3.798 -0.4262  0.3995 -0.1041
   16SAPS   C31 2028   1.617   0.568   3.824 -0.1745  0.3570  0.5685
   16SAPS   O32 2029   1.556   0.493   3.751  0.3650 -0.1396 -0.1905
   16SAPS   C32 2030   1.562   0.601   3.959  0.3439 -0.2830  0.9515
   16SAPS   H2X 2031   1.469   0.661   3.948  0.4926 -0.4838 -3.4765
   16SAPS   H2Y 2032   1.644   0.647   4.017 -0.5510  0.5496  1.5966
   16SAPS   C23 2033   1.623   1.075   3.812 -0.2419  0.1312 -0.0842
   16SAPS   H3R 2034   1.640   0.994   3.885  0.1259 -0.0376 -0.3547
   16SAPS   H3S 2035   1.513   1.088   3.824 -0.2483  0.6650 -0.6345
   16SAPS   C24 2036   1.695   1.207   3.843 -0.6697  0.3274  0.0995
   16SAPS   H4R 2037   1.646   1.260   3.927  0.8127 -1.2237  2.0439
   16SAPS   H4S 2038   1.669   1.267   3.754  0.6542  3.7324  1.8129
   16SAPS   C25 2039   1.840   1.185   3.851  0.8780 -0.1468 -0.2798
   16SAPS   H5R 2040   1.895   1.184   3.756 -0.5702 -0.3392 -1.1437
   16SAPS   C26 2041   1.911   1.154   3.962  0.5108 -0.0867  0.3061
   16SAPS   H6R 2042   2.020   1.148   3.948  0.2052 -0.6962 -2.4733
   16SAPS   C27 2043   1.856   1.139   4.104  0.3792 -0.0788  0.7810
   16SAPS   H7R 2044   1.815   1.036   4.106 -2.4091  0.7398 -3.1962
   16SAPS   H7S 2045   1.773   1.210   4.120  1.6661  1.3260  1.4583
   16SAPS   C28 2046   1.946   1.150   4.215 -0.1255  0.3087  0.5202
   16SAPS   H8R 2047   2.054   1.166   4.199 -0.1424  0.3567  0.4538
   16SAPS   C29 2048   1.911   1.149   4.347  0.0717  0.0093 -0.2603
   16SAPS   H9R 2049   1.991   1.152   4.421 -0.7183  1.5719  0.5853
   16SAPS  C210 2050   1.773   1.146   4.392 -0.5429  0.0682  0.2217
   16SAPS  H10R 2051   1.766   1.098   4.492 -0.2008  0.1042  0.2630
   16SAPS  H10S 2052   1.718   1.077   4.324  2.1935 -0.4849 -1.5832
   16SAPS  C211 2053   1.697   1.278   4.403 -0.7457  0.5804 -0.5912
   16SAPS  H11R 2054   1.642   1.296   4.310 -1.3273 -1.1311 -0.6140
   16SAPS  C212 2055   1.696   1.361   4.509  0.4699 -0.7270  0.3411
   16SAPS  H12R 2056   1.638   1.454   4.496  1.4787 -0.2738 -1.1870
   16SAPS  C213 2057   1.755   1.337   4.643  0.0699  0.4396 -0.8941
   16SAPS  H13R 2058   1.744   1.437   4.690 -1.3825 -0.2638  0.3644
   16SAPS  H13S 2059   1.864   1.320   4.643  0.0686  0.2984  0.5456
   16SAPS  C214 2060   1.676   1.237   4.730 -0.1055 -0.2554 -0.5514
   16SAPS  H14R 2061   1.641   1.145   4.681  3.5996 -2.5059  0.6260
   16SAPS  C215 2062   1.647   1.251   4.860 -0.0510  0.9704  0.4031
   16SAPS  H15R 2063   1.603   1.158   4.898  0.9242 -0.0748 -0.9079
   16SAPS  C216 2064   1.677   1.357   4.960  0.4119 -0.1096  0.4037
   16SAPS  H16R 2065   1.728   1.441   4.907 -3.3672  1.4291 -1.1619
   16SAPS  H16S 2066   1.737   1.324   5.048  0.6308 -1.1255 -0.1169
   16SAPS  C217 2067   1.547   1.416   5.027  0.5595  0.2580  0.5105
   16SAPS  H17R 2068   1.479   1.334   5.057 -0.9091  1.7877  1.5510
   16SAPS  H17S 2069   1.501   1.494   4.964  1.0704  0.2615  0.1363
   16SAPS  C218 2070   1.591   1.484   5.159 -0.0507  0.1525 -0.7276
   16SAPS  H18R 2071   1.651   1.574   5.135 -2.1091  1.3432 -1.7164
   16SAPS  H18S 2072   1.656   1.421   5.223  2.7518  2.0770 -1.5040
   16SAPS  C219 2073   1.474   1.536   5.246  0.1802  0.5940  0.0786
   16SAPS  H19R 2074   1.402   1.458   5.280 -0.0184  0.8341  0.2145
   16SAPS  H19S 2075   1.416   1.612   5.191  0.9064  0.4405 -0.9206
   16SAPS  C220 2076   1.534   1.614   5.364  0.5017 -0.2931 -0.1781
   16SAPS  H20R 2077   1.601   1.546   5.421 -0.1427 -1.9333 -1.2890
   16SAPS  H20S 2078   1.456   1.651   5.433  0.3596 -1.2733  0.2023
   16SAPS  H20T 2079   1.592   1.702   5.328  0.9880 -0.2298  0.7439
   16SAPS   C33 2080   1.524   0.473   4.035  0.3151 -0.3412 -0.2586
   16SAPS   H3X 2081   1.438   0.422   3.985  0.6812  0.2636 -1.5318
   16SAPS   H3Y 2082   1.484   0.501   4.135  0.3902  3.6135 -1.1992
   16SAPS   C34 2083   1.644   0.385   4.059  0.7012  0.3729  0.7596
   16SAPS   H4X 2084   1.702   0.346   3.973  0.4711 -0.1794  0.8492
   16SAPS   H4Y 2085   1.598   0.297   4.110 -0.0195  0.8436  0.9394
   16SAPS   C35 2086   1.755   0.443   4.146  0.3805 -0.5459  0.1514
   16SAPS   H5X 2087   1.786   0.535   4.093  1.2425 -0.8710  0.0828
   16SAPS   H5Y 2088   1.842   0.374   4.149  0.2207 -0.8169 -1.1003
   16SAPS   C36 2089   1.704   0.463   4.295  0.2995 -0.2909 -0.1354
   16SAPS   H6X 2090   1.618   0.396   4.316 -1.8561  2.3457  0.0116
   16SAPS   H6Y 2091   1.672   0.566   4.319 -0.1910 -0.0445 -1.7718
   16SAPS   C37 2092   1.823   0.435   4.392 -0.1404  0.4450 -0.5085
   16SAPS   H7X 2093   1.913   0.494   4.365 -1.1567  2.3998  0.1188
   16SAPS   H7Y 2094   1.849   0.329   4.376 -1.5911 -0.0422  0.1316
   16SAPS   C38 2095   1.780   0.448   4.545  0.3560  0.7299  0.0963
   16SAPS   H8X 2096   1.696   0.377   4.559  1.3683 -1.3280 -3.1381
   16SAPS   H8Y 2097   1.757   0.556   4.557 -0.6747  0.6980 -1.3081
   16SAPS   C39 2098   1.905   0.428   4.636 -0.0454  0.3642  0.4402
   16SAPS   H9X 2099   1.973   0.515   4.626  0.8329 -0.3810 -0.1900
   16SAPS   H9Y 2100   1.957   0.339   4.596  0.3969  0.6961  0.2667
   16SAPS  C310 2101   1.876   0.429   4.782  0.1357 -0.2407 -0.5490
   16SAPS  H10X 2102   1.793   0.357   4.799  1.4634 -1.6854  0.1646
   16SAPS  H10Y 2103   1.847   0.527   4.825  0.1249 -1.1058  1.5917
   16SAPS  C311 2104   1.999   0.383   4.869 -0.9228  0.0379  0.4981
   16SAPS  H11X 2105   2.025   0.283   4.829 -0.4778 -0.5569  2.1855
   16SAPS  H11Y 2106   1.956   0.370   4.971  1.2943  2.3252  1.8188
   16SAPS  C312 2107   2.118   0.485   4.861 -0.2124 -0.1020  0.4955
   16SAPS  H12X 2108   2.079   0.574   4.916 -1.5385  1.7864 -3.2145
   16SAPS  H12Y 2109   2.129   0.518   4.756 -2.4465 -1.7077 -0.3317
   16SAPS  C313 2110   2.248   0.444   4.931  1.2605  0.2756 -0.2440
   16SAPS  H13X 2111   2.261   0.346   4.882  0.0232 -1.1875  2.1480
   16SAPS  H13Y 2112   2.231   0.409   5.035  0.1627 -1.7704 -1.0513
   16SAPS  C314 2113   2.365   0.533   4.904 -0.2472  0.4083 -0.4206
   16SAPS  H14X 2114   2.378   0.565   4.798  0.2908  0.1348 -0.4395
   16SAPS  H14Y 2115   2.463   0.487   4.930  0.1359  0.5721 -1.5067
   16SAPS  C315 2116   2.351   0.665   4.982 -0.6358 -0.1046  0.3797
   16SAPS  H15X 2117   2.320   0.646   5.087 -0.9328 -1.9755 -0.0212
   16SAPS  H15Y 2118   2.273   0.717   4.922  1.2478 -0.2771 -2.4124
   16SAPS  C316 2119   2.473   0.760   4.976 -0.0070  0.0556  0.3584
   16SAPS  H16X 2120   2.439   0.861   5.005  1.9079  1.1532 -0.9980
   16SAPS  H16Y 2121   2.502   0.750   4.869 -2.4178  1.9859 -0.5521
   16SAPS  C317 2122   2.590   0.736   5.071 -0.2983  0.3877 -0.6072
   16SAPS  H17X 2123   2.632   0.633   5.063  1.5201  1.0919 -0.6119
   16SAPS  H17Y 2124   2.551   0.731   5.175  0.3389  1.5076 -0.3054
   16SAPS  C318 2125   2.687   0.855   5.057  0.1299  0.7026  0.2117
   16SAPS  H18X 2126   2.739   0.840   4.960 -0.4122 -0.8104  0.1217
   16SAPS  H18Y 2127   2.766   0.842   5.134 -0.4204 -0.0073  0.6725
   16SAPS  H18Z 2128   2.642   0.956   5.071 -1.0122  0.4041 -1.0314
   17SAPS     N 2129   5.645   0.047   3.105  0.0073  0.2285 -0.4925
   17SAPS   HN1 2130   5.714   0.115   3.142 -1.8074  1.3587  0.9280
   17SAPS   HN2 2131   5.576   0.027   3.179 -1.8904  0.8797 -2.0148
   17SAPS   HN3 2132   5.697  -0.042   3.090 -0.1601  0.3250 -1.7587
   17SAPS   C12 2133   5.580   0.093   2.986 -0.6724  0.3268 -0.4928
   17SAPS  H12A 2134   5.523   0.182   3.008  0.8580  1.1272  0.4641
   17SAPS   C13 2135   5.682   0.137   2.883  0.2112 -0.6348  0.1106
   17SAPS  O13A 2136   5.800   0.155   2.907  0.2099 -0.5625  0.0733
   17SAPS  O13B 2137   5.623   0.201   2.785  0.4356 -0.4787 -0.4124
   17SAPS   C11 2138   5.490  -0.019   2.922  0.7003  0.0900 -0.2813
   17SAPS  H11A 2139   5.557  -0.101   2.889  0.0357 -1.1368  1.3078
   17SAPS  H11B 2140   5.435   0.031   2.839 -1.1191  0.5220  1.1158
   17SAPS     P 2141   5.249  -0.105   2.991 -0.2799  0.0975  0.0081
   17SAPS   O13 2142   5.154  -0.004   3.045 -0.1308 -0.1017  0.2744
   17SAPS   O14 2143   5.237  -0.143   2.850 -0.7569 -0.0106 -0.1478
   17SAPS   O12 2144   5.397  -0.060   3.019  0.0825 -0.0574 -0.0012
   17SAPS   O11 2145   5.238  -0.229   3.084 -0.1113  0.1633  0.2863
   17SAPS    C1 2146   5.340  -0.327   3.095 -0.1422  0.6731 -0.4409
   17SAPS    HA 2147   5.326  -0.418   3.032  0.0680 -0.0918  0.5811
   17SAPS    HB 2148   5.438  -0.288   3.062 -0.5120  2.1656  0.1607
   17SAPS    C2 2149   5.380  -0.361   3.242  0.3601  0.1592 -0.2786
   17SAPS    HS 2150   5.478  -0.414   3.252 -0.5090 -1.0052  3.8553
   17SAPS   O21 2151   5.276  -0.443   3.310  0.0566 -0.1850  0.4363
   17SAPS   C21 2152   5.254  -0.566   3.266 -0.0299 -0.4158 -0.3359
   17SAPS   O22 2153   5.295  -0.609   3.161 -1.1991 -0.2824 -1.0761
   17SAPS   C22 2154   5.142  -0.621   3.354  0.3601  0.3907  1.2083
   17SAPS   H2R 2155   5.075  -0.548   3.404  0.7729  1.6977 -0.0736
   17SAPS   H2S 2156   5.078  -0.678   3.282 -0.9577  1.5848  1.4033
   17SAPS    C3 2157   5.410  -0.231   3.324 -0.5161  0.6089 -0.5774
   17SAPS    HX 2158   5.321  -0.165   3.328 -0.1545  1.1926 -1.7446
   17SAPS    HY 2159   5.492  -0.175   3.273 -0.7698  0.2180 -1.4218
   17SAPS   O31 2160   5.456  -0.272   3.455 -0.5142  0.0200  0.9795
   17SAPS   C31 2161   5.381  -0.247   3.554  0.3255  0.2533  0.7881
   17SAPS   O32 2162   5.269  -0.195   3.549 -0.4151  0.0110 -0.5016
   17SAPS   C32 2163   5.442  -0.299   3.676  1.2373  0.6534 -1.0298
   17SAPS   H2X 2164   5.547  -0.263   3.689  0.9128  0.9825  1.1741
   17SAPS   H2Y 2165   5.440  -0.408   3.657 -1.7626  0.6611 -1.2222
   17SAPS   C23 2166   5.204  -0.723   3.455 -0.5524  0.0591 -0.4727
   17SAPS   H3R 2167   5.283  -0.782   3.404 -0.7245 -0.2157 -0.4253
   17SAPS   H3S 2168   5.133  -0.801   3.489  1.9794 -1.1252  2.6429
   17SAPS   C24 2169   5.266  -0.658   3.580  0.1563  0.6249  0.7763
   17SAPS   H4R 2170   5.357  -0.606   3.541 -0.4737  1.7110  0.7014
   17SAPS   H4S 2171   5.302  -0.748   3.634  0.7921 -1.6038 -2.9569
   17SAPS   C25 2172   5.185  -0.559   3.656  0.2989 -0.2225  0.8022
   17SAPS   H5R 2173   5.148  -0.473   3.598 -3.7223 -1.8850  0.5914
   17SAPS   C26 2174   5.126  -0.572   3.770  0.0236  0.3312 -0.5098
   17SAPS   H6R 2175   5.055  -0.495   3.803 -1.7310 -0.2554 -2.7252
   17SAPS   C27 2176   5.129  -0.705   3.844  0.2468 -0.0256 -0.1656
   17SAPS   H7R 2177   5.135  -0.795   3.778 -0.8786 -1.4723  1.6069
   17SAPS   H7S 2178   5.030  -0.720   3.892 -0.4849  0.4387 -1.4901
   17SAPS   C28 2179   5.242  -0.712   3.944  0.9509 -0.1124 -0.1531
   17SAPS   H8R 2180   5.336  -0.714   3.887  0.9016 -0.2767 -0.2284
   17SAPS   C29 2181   5.239  -0.723   4.082 -0.0871  0.5327  0.1252
   17SAPS   H9R 2182   5.335  -0.728   4.136 -0.7613 -0.1809  1.3021
   17SAPS  C210 2183   5.118  -0.728   4.170  0.4026 -0.5243  0.6606
   17SAPS  H10R 2184   5.101  -0.828   4.215  0.6978 -0.6720  0.4488
   17SAPS  H10S 2185   5.030  -0.703   4.107 -0.7805 -0.9110  2.1129
   17SAPS  C211 2186   5.132  -0.629   4.280 -0.4284 -0.9399 -0.4462
   17SAPS  H11R 2187   5.120  -0.525   4.247 -2.2906 -1.5663 -1.9159
   17SAPS  C212 2188   5.141  -0.650   4.411 -0.0281  0.0083 -0.2490
   17SAPS  H12R 2189   5.150  -0.560   4.474 -2.3743  0.3085 -0.2754
   17SAPS  C213 2190   5.160  -0.781   4.489  0.0066  0.1613 -0.5808
   17SAPS  H13R 2191   5.172  -0.875   4.430  0.6018  0.9894 -1.8345
   17SAPS  H13S 2192   5.075  -0.791   4.559  1.1553 -0.7320  0.7334
   17SAPS  C214 2193   5.290  -0.758   4.558  0.3160 -0.7218 -0.1908
   17SAPS  H14R 2194   5.375  -0.740   4.490  0.7282  0.8477  0.6769
   17SAPS  C215 2195   5.311  -0.733   4.693 -0.4233 -0.1144  0.0579
   17SAPS  H15R 2196   5.417  -0.730   4.723 -0.7192  0.1221  1.1099
   17SAPS  C216 2197   5.209  -0.735   4.804  0.1453  0.8592  0.1227
   17SAPS  H16R 2198   5.199  -0.833   4.856  1.6095 -1.3914 -3.5011
   17SAPS  H16S 2199   5.113  -0.699   4.761  0.4183  0.2732 -1.0128
   17SAPS  C217 2200   5.242  -0.625   4.907 -0.7679  0.2228 -0.0292
   17SAPS  H17R 2201   5.154  -0.615   4.974 -1.6850 -3.9564 -0.3275
   17SAPS  H17S 2202   5.266  -0.521   4.877  0.0855  0.2624  0.7395
   17SAPS  C218 2203   5.354  -0.677   4.999 -0.2366  0.2791 -0.1882
   17SAPS  H18R 2204   5.449  -0.687   4.943  0.3621 -1.2098  1.0092
   17SAPS  H18S 2205   5.328  -0.778   5.038 -0.4778  1.2017  2.1922
   17SAPS  C219 2206   5.378  -0.595   5.127 -0.3943  0.1536 -0.0060
   17SAPS  H19R 2207   5.296  -0.600   5.202 -1.6903  1.2215 -1.3004
   17SAPS  H19S 2208   5.364  -0.494   5.083 -1.9725 -0.4250 -0.9016
   17SAPS  C220 2209   5.515  -0.607   5.189  0.3880 -0.2703 -0.0582
   17SAPS  H20R 2210   5.609  -0.597   5.131  0.0475  0.2180 -0.5376
   17SAPS  H20S 2211   5.520  -0.714   5.219  0.3915 -0.7734 -1.7481
   17SAPS  H20T 2212   5.525  -0.538   5.275 -0.2478 -0.0737 -0.1372
   17SAPS   C33 2213   5.363  -0.272   3.806  0.4879  0.1897  0.0408
   17SAPS   H3X 2214   5.258  -0.309   3.804  0.1363  0.8029  2.8585
   17SAPS   H3Y 2215   5.347  -0.166   3.834 -1.9356 -0.1387  0.1051
   17SAPS   C34 2216   5.434  -0.330   3.926 -1.0291  0.2391  0.6490
   17SAPS   H4X 2217   5.536  -0.292   3.943 -0.4313 -0.9973  0.0199
   17SAPS   H4Y 2218   5.446  -0.439   3.903 -0.2786  0.4421  0.0415
   17SAPS   C35 2219   5.357  -0.318   4.058 -0.3388  0.0173 -0.0607
   17SAPS   H5X 2220   5.270  -0.387   4.056  1.0503 -1.7947 -0.4000
   17SAPS   H5Y 2221   5.326  -0.213   4.078  3.4908  1.0437  1.4820
   17SAPS   C36 2222   5.441  -0.344   4.178 -0.3462  0.3092 -0.0959
   17SAPS   H6X 2223   5.536  -0.291   4.154 -0.5016  0.0586 -1.3187
   17SAPS   H6Y 2224   5.471  -0.451   4.181  1.5968  0.8184  0.8876
   17SAPS   C37 2225   5.381  -0.303   4.311 -0.4792 -0.2343  0.1450
   17SAPS   H7X 2226   5.278  -0.343   4.325 -0.6452  0.6672  1.8459
   17SAPS   H7Y 2227   5.375  -0.192   4.311  0.7895 -0.1277  1.4150
   17SAPS   C38 2228   5.470  -0.361   4.426 -0.0390  0.3512  0.0320
   17SAPS   H8X 2229   5.573  -0.330   4.399  0.8176 -0.9450  1.6213
   17SAPS   H8Y 2230   5.470  -0.472   4.412 -2.4038  0.3024  0.0092
   17SAPS   C39 2231   5.424  -0.292   4.562 -0.0724 -0.5246  0.4353
   17SAPS   H9X 2232   5.317  -0.309   4.582 -0.6340 -2.6026 -3.2368
   17SAPS   H9Y 2233   5.438  -0.185   4.537 -1.7498 -0.1663  0.9587
   17SAPS  C310 2234   5.504  -0.328   4.689  0.8997  0.8049 -0.0743
   17SAPS  H10X 2235   5.604  -0.280   4.677  1.2600  0.0103 -0.3345
   17SAPS  H10Y 2236   5.519  -0.437   4.702 -0.0456  0.6858  0.1037
   17SAPS  C311 2237   5.432  -0.275   4.813  0.1846 -0.6854 -0.2065
   17SAPS  H11X 2238   5.327  -0.310   4.826 -0.0268  0.8414  3.3522
   17SAPS  H11Y 2239   5.424  -0.166   4.795  1.2054 -0.2856  1.5110
   17SAPS  C312 2240   5.508  -0.281   4.953  0.0780 -0.0413 -0.1908
   17SAPS  H12X 2241   5.510  -0.387   4.988 -3.0160 -0.4194 -0.8902
   17SAPS  H12Y 2242   5.457  -0.215   5.026 -0.0256 -2.5608  2.1943
   17SAPS  C313 2243   5.660  -0.244   4.958 -0.0783 -1.2982 -0.5651
   17SAPS  H13X 2244   5.677  -0.138   4.929 -0.9039 -1.2280 -0.8393
   17SAPS  H13Y 2245   5.714  -0.305   4.883 -0.1190 -0.9971 -0.8417
   17SAPS  C314 2246   5.715  -0.253   5.102  0.8326 -0.7250  0.1365
   17SAPS  H14X 2247   5.825  -0.263   5.095  0.9080  0.4776 -0.6467
   17SAPS  H14Y 2248   5.674  -0.343   5.153 -0.8857 -0.0381  0.0406
   17SAPS  C315 2249   5.674  -0.135   5.186  0.2810 -0.0369 -0.3277
   17SAPS  H15X 2250   5.564  -0.118   5.190  0.4638  1.0538  0.6040
   17SAPS  H15Y 2251   5.731  -0.047   5.151  0.3470  0.0215 -0.0734
   17SAPS  C316 2252   5.715  -0.132   5.336 -0.8865  0.2317 -0.8271
   17SAPS  H16X 2253   5.666  -0.208   5.401  0.0002 -0.2792 -0.7283
   17SAPS  H16Y 2254   5.688  -0.036   5.384  1.8370  0.4175  0.5769
   17SAPS  C317 2255   5.871  -0.146   5.359 -0.2754 -0.5050 -0.1708
   17SAPS  H17X 2256   5.914  -0.058   5.307 -2.8579  0.3000 -1.0862
   17SAPS  H17Y 2257   5.916  -0.240   5.320  0.8109 -0.8136  1.7160
   17SAPS  C318 2258   5.904  -0.138   5.509  0.3784  0.0702 -0.3267
   17SAPS  H18X 2259   5.883  -0.034   5.543 -0.6163 -0.2613  0.0893
   17SAPS  H18Y 2260   6.008  -0.166   5.539 -0.6022 -1.5507  1.8350
   17SAPS  H18Z 2261   5.840  -0.213   5.559 -0.6074  1.0960 -0.0149
   18SAPS     N 2262   1.487   5.128   2.567 -0.2388  0.0331  0.1905
   18SAPS   HN1 2263   1.510   5.049   2.503  0.2380  0.0947  0.2860
   18SAPS   HN2 2264   1.481   5.217   2.514 -0.6311 -0.9898 -1.5950
   18SAPS   HN3 2265   1.569   5.132   2.630 -0.5947 -0.7177  0.7305
   18SAPS   C12 2266   1.348   5.102   2.633  0.2454  0.2071 -0.4600
   18SAPS  H12A 2267   1.321   5.189   2.690 -0.5826 -0.7112  0.5923
   18SAPS   C13 2268   1.227   5.065   2.547 -0.7663 -0.0545  0.3680
   18SAPS  O13A 2269   1.252   5.015   2.433 -0.3336 -0.3328 -0.3576
   18SAPS  O13B 2270   1.113   5.066   2.598  0.8055  0.4768  0.0994
   18SAPS   C11 2271   1.368   4.988   2.740  0.0666 -0.8965  0.3306
   18SAPS  H11A 2272   1.280   4.997   2.807 -0.7098 -2.2506 -0.4741
   18SAPS  H11B 2273   1.460   5.010   2.798  0.6151  1.6831 -1.3444
   18SAPS     P 2274   1.476   4.761   2.708 -0.3174 -0.1469 -0.2727
   18SAPS   O13 2275   1.430   4.624   2.693  0.1732 -0.5258 -0.5708
   18SAPS   O14 2276   1.578   4.805   2.615 -0.1057 -0.1087 -0.1275
   18SAPS   O12 2277   1.363   4.861   2.682  0.4751 -0.5020  0.6527
   18SAPS   O11 2278   1.529   4.785   2.853  0.2284  0.2554  0.4333
   18SAPS    C1 2279   1.495   4.694   2.958  0.0676  0.2262  0.7690
   18SAPS    HA 2280   1.474   4.591   2.921 -1.0925  0.5373  0.5047
   18SAPS    HB 2281   1.572   4.688   3.037  0.1098 -2.4804  0.6213
   18SAPS    C2 2282   1.366   4.744   3.036 -0.0379 -0.1065  0.6827
   18SAPS    HS 2283   1.284   4.739   2.961  2.7225 -2.7097 -2.5130
   18SAPS   O21 2284   1.402   4.877   3.088  0.4673 -0.2076  0.1348
   18SAPS   C21 2285   1.300   4.947   3.134 -0.2821  0.3943 -0.3705
   18SAPS   O22 2286   1.181   4.929   3.117 -0.1522  0.6246  0.6223
   18SAPS   C22 2287   1.361   5.058   3.223 -0.4382  0.9634 -0.1775
   18SAPS   H2R 2288   1.467   5.042   3.252 -0.2368  0.8632 -0.9501
   18SAPS   H2S 2289   1.345   5.154   3.171 -3.4390  1.6700  1.7787
   18SAPS    C3 2290   1.331   4.648   3.146  0.5711 -0.1748 -0.9198
   18SAPS    HX 2291   1.280   4.566   3.091 -0.2494  0.6710 -1.4528
   18SAPS    HY 2292   1.250   4.687   3.211  0.1709 -0.0447 -1.4898
   18SAPS   O31 2293   1.439   4.597   3.228 -0.3314 -0.3554  0.1085
   18SAPS   C31 2294   1.407   4.524   3.331  0.2055  0.7751 -0.5112
   18SAPS   O32 2295   1.293   4.488   3.361 -0.4692  0.0433 -0.3016
   18SAPS   C32 2296   1.534   4.488   3.418  0.2713 -0.2859  0.0080
   18SAPS   H2X 2297   1.624   4.474   3.355  0.5046 -0.0565  0.2870
   18SAPS   H2Y 2298   1.513   4.385   3.457  0.7770 -0.1397  0.6764
   18SAPS   C23 2299   1.291   5.086   3.356  0.1726 -0.5132  0.4323
   18SAPS   H3R 2300   1.185   5.104   3.329  0.5601  1.9094  0.3137
   18SAPS   H3S 2301   1.333   5.181   3.393  0.3538  0.3065 -1.7234
   18SAPS   C24 2302   1.296   4.959   3.438 -0.3925 -0.5219  0.3956
   18SAPS   H4R 2303   1.296   4.869   3.373 -1.0725  0.1124 -0.5055
   18SAPS   H4S 2304   1.208   4.956   3.507  0.1348 -0.4353  1.0867
   18SAPS   C25 2305   1.423   4.954   3.514  0.6021  0.5316 -0.6171
   18SAPS   H5R 2306   1.515   4.964   3.456  0.6611  2.2021 -0.2973
   18SAPS   C26 2307   1.431   4.936   3.647  0.7902 -0.0724  0.0584
   18SAPS   H6R 2308   1.533   4.922   3.687  1.0128  2.2201  0.3880
   18SAPS   C27 2309   1.321   4.940   3.751 -0.2658 -0.2381 -0.3252
   18SAPS   H7R 2310   1.281   4.836   3.750 -0.4564 -0.1655 -0.3571
   18SAPS   H7S 2311   1.243   5.016   3.728  0.2685  0.6925  0.8818
   18SAPS   C28 2312   1.367   4.989   3.889 -0.6475  0.4351  0.0348
   18SAPS   H8R 2313   1.386   5.097   3.895 -0.3941  0.3205  2.4657
   18SAPS   C29 2314   1.375   4.908   3.999 -0.5838 -1.0295 -0.2919
   18SAPS   H9R 2315   1.415   4.965   4.084  1.9744 -1.7625 -0.9318
   18SAPS  C210 2316   1.343   4.770   4.023  0.4224 -0.4254 -0.5791
   18SAPS  H10R 2317   1.422   4.715   4.079  0.2164  1.5106  1.8309
   18SAPS  H10S 2318   1.343   4.718   3.925 -0.2074 -1.9049  0.1848
   18SAPS  C211 2319   1.213   4.748   4.099 -0.0844 -0.3497  0.1523
   18SAPS  H11R 2320   1.160   4.658   4.065  0.0396 -1.1665  2.0362
   18SAPS  C212 2321   1.157   4.821   4.197 -0.2581 -0.3931 -0.5666
   18SAPS  H12R 2322   1.056   4.800   4.235  0.0825  0.2258  0.7244
   18SAPS  C213 2323   1.211   4.948   4.266  0.5639  0.6793 -0.5191
   18SAPS  H13R 2324   1.321   4.959   4.255  0.8010 -1.1420 -0.2887
   18SAPS  H13S 2325   1.191   4.923   4.372  1.4523  1.7823 -0.0722
   18SAPS  C214 2326   1.139   5.076   4.234  0.1912 -0.6706  0.1365
   18SAPS  H14R 2327   1.124   5.099   4.128  0.3881 -0.9042  0.0591
   18SAPS  C215 2328   1.080   5.153   4.330  0.2707  0.6003 -0.7242
   18SAPS  H15R 2329   1.011   5.231   4.294 -2.4109 -2.2968 -2.4459
   18SAPS  C216 2330   1.097   5.138   4.477 -0.0848 -0.2606  0.5995
   18SAPS  H16R 2331   1.077   5.238   4.520 -0.2556  0.1772 -0.4533
   18SAPS  H16S 2332   1.200   5.101   4.493  0.8758  2.6426  1.7316
   18SAPS  C217 2333   1.000   5.052   4.559  0.7470 -0.0426 -0.6270
   18SAPS  H17R 2334   0.971   4.957   4.509  0.3736 -0.3022  0.0674
   18SAPS  H17S 2335   0.903   5.106   4.566  1.8296  1.9080 -0.1834
   18SAPS  C218 2336   1.050   5.020   4.696 -0.6550 -0.1060  0.5846
   18SAPS  H18R 2337   1.042   5.107   4.765  2.2771 -0.5178  1.5879
   18SAPS  H18S 2338   1.157   4.990   4.688 -0.6783  0.2282 -1.6614
   18SAPS  C219 2339   0.975   4.904   4.755  0.5156 -0.0813  0.0404
   18SAPS  H19R 2340   0.993   4.809   4.699  0.6172  0.9738 -1.7699
   18SAPS  H19S 2341   0.867   4.926   4.743  0.3140 -0.4454  1.0593
   18SAPS  C220 2342   1.007   4.883   4.898 -0.1485 -0.1917 -0.1679
   18SAPS  H20R 2343   0.947   4.799   4.938 -2.2554  0.3272 -2.0308
   18SAPS  H20S 2344   0.980   4.968   4.964  0.3791 -1.6091  1.9932
   18SAPS  H20T 2345   1.116   4.866   4.910  0.0158  1.3313  0.7948
   18SAPS   C33 2346   1.557   4.577   3.545 -0.4753  0.2417  0.0092
   18SAPS   H3X 2347   1.561   4.682   3.511  0.8430  0.6822  1.4226
   18SAPS   H3Y 2348   1.647   4.554   3.605  0.5370  0.6638 -1.3095
   18SAPS   C34 2349   1.439   4.580   3.649 -0.0691 -0.3851  0.7592
   18SAPS   H4X 2350   1.352   4.610   3.587 -1.4239  1.9218  3.5350
   18SAPS   H4Y 2351   1.465   4.655   3.727  2.8489 -0.1038 -0.3338
   18SAPS   C35 2352   1.412   4.447   3.722  0.5208  0.0351  0.1680
   18SAPS   H5X 2353   1.505   4.438   3.782 -0.5834  1.3252  2.1900
   18SAPS   H5Y 2354   1.430   4.363   3.651 -0.3147  0.0105 -0.0192
   18SAPS   C36 2355   1.283   4.442   3.795  0.3365 -0.0013  0.4041
   18SAPS   H6X 2356   1.203   4.425   3.720 -0.3779  1.4388  0.8115
   18SAPS   H6Y 2357   1.254   4.537   3.845  1.8183 -0.2219  1.7560
   18SAPS   C37 2358   1.277   4.335   3.910  0.4475  0.5967 -0.0751
   18SAPS   H7X 2359   1.264   4.236   3.862  1.2851  0.2638  0.3597
   18SAPS   H7Y 2360   1.182   4.362   3.962 -0.6587  1.3838 -2.3655
   18SAPS   C38 2361   1.398   4.327   3.992 -0.6977 -0.2397 -0.4117
   18SAPS   H8X 2362   1.454   4.421   4.007  0.0761 -0.7647  0.0926
   18SAPS   H8Y 2363   1.462   4.246   3.951  0.1404 -1.1562  2.4222
   18SAPS   C39 2364   1.353   4.273   4.130 -0.3351 -0.5888  0.9695
   18SAPS   H9X 2365   1.451   4.242   4.172  1.6165 -0.1962 -2.8622
   18SAPS   H9Y 2366   1.283   4.187   4.119 -0.2380 -0.6062  0.4192
   18SAPS  C310 2367   1.300   4.379   4.222  0.7297 -0.2111  0.0225
   18SAPS  H10X 2368   1.203   4.416   4.183  1.0072  0.4650 -0.0369
   18SAPS  H10Y 2369   1.347   4.479   4.211 -1.3778  0.7414 -0.8440
   18SAPS  C311 2370   1.296   4.324   4.369  0.5303 -0.1435  0.1731
   18SAPS  H11X 2371   1.395   4.292   4.409 -0.3364 -1.3822  1.4229
   18SAPS  H11Y 2372   1.226   4.239   4.366  2.4468 -1.8415  1.1479
   18SAPS  C312 2373   1.229   4.426   4.459 -0.0632  0.4572  0.1068
   18SAPS  H12X 2374   1.188   4.375   4.549  2.2408  0.3475  1.1567
   18SAPS  H12Y 2375   1.138   4.454   4.401 -0.9336 -3.2493 -0.5701
   18SAPS  C313 2376   1.321   4.550   4.498 -0.1028  0.3300  0.3555
   18SAPS  H13X 2377   1.316   4.620   4.412  1.6525 -2.0893 -1.8726
   18SAPS  H13Y 2378   1.423   4.518   4.527 -0.3853 -1.1574 -0.1864
   18SAPS  C314 2379   1.259   4.629   4.623 -0.6041  0.4777  0.8241
   18SAPS  H14X 2380   1.210   4.553   4.688  1.1378 -0.8598  0.6804
   18SAPS  H14Y 2381   1.179   4.701   4.600 -0.4585  0.0024 -1.4249
   18SAPS  C315 2382   1.355   4.708   4.718 -0.7711  0.6945 -0.4101
   18SAPS  H15X 2383   1.444   4.643   4.736  0.2489  2.1109 -0.1682
   18SAPS  H15Y 2384   1.308   4.755   4.807 -1.8051  0.4669 -0.8179
   18SAPS  C316 2385   1.421   4.834   4.644  0.0128  0.5057 -0.3563
   18SAPS  H16X 2386   1.357   4.925   4.638  0.2737  0.5878 -2.2911
   18SAPS  H16Y 2387   1.438   4.798   4.541  1.3865 -0.5486  0.2048
   18SAPS  C317 2388   1.555   4.876   4.715 -0.2006 -0.0419 -0.7332
   18SAPS  H17X 2389   1.616   4.938   4.646  0.9816  0.0659  0.3650
   18SAPS  H17Y 2390   1.619   4.792   4.749 -0.3293  0.5497  1.0389
   18SAPS  C318 2391   1.524   4.959   4.845 -0.4264 -0.3716  0.7049
   18SAPS  H18X 2392   1.618   4.968   4.904 -0.6077  1.5244  0.7540
   18SAPS  H18Y 2393   1.447   4.910   4.909  1.1274 -1.1000  2.0996
   18SAPS  H18Z 2394   1.475   5.056   4.821  0.5237 -0.0313  0.0895
   19SAPS     N 2395   2.548   3.982   2.698 -0.1745  0.5214 -0.2505
   19SAPS   HN1 2396   2.567   3.880   2.707 -2.4425 -0.0885 -1.7654
   19SAPS   HN2 2397   2.635   4.034   2.723  2.6590 -2.7928 -2.2106
   19SAPS   HN3 2398   2.467   4.004   2.759 -0.8253 -0.9489 -0.5280
   19SAPS   C12 2399   2.514   4.015   2.559  0.2230 -0.0054 -0.2660
   19SAPS  H12A 2400   2.438   4.091   2.570  0.6841  0.4270 -0.0331
   19SAPS   C13 2401   2.633   4.070   2.474  0.2235  0.1248  0.0092
   19SAPS  O13A 2402   2.743   4.080   2.533 -0.3688 -0.0566  0.3658
   19SAPS  O13B 2403   2.608   4.114   2.364  0.4982 -0.3854  0.2760
   19SAPS   C11 2404   2.445   3.893   2.478  0.5722 -0.6600  0.1814
   19SAPS  H11A 2405   2.524   3.817   2.460  0.8205  0.1033 -2.3251
   19SAPS  H11B 2406   2.409   3.943   2.385 -1.7962 -0.1389  1.3076
   19SAPS     P 2407   2.190   3.798   2.477 -0.2009 -0.2582  0.1435
   19SAPS   O13 2408   2.148   3.921   2.403  0.5155  0.2683 -0.1584
   19SAPS   O14 2409   2.205   3.673   2.405 -0.4749  0.0097 -0.0556
   19SAPS   O12 2410   2.330   3.832   2.544 -0.4584 -0.0071  0.0402
   19SAPS   O11 2411   2.093   3.765   2.596 -0.0421 -0.2354 -0.3066
   19SAPS    C1 2412   2.133   3.734   2.729 -0.2138 -0.4375 -0.5941
   19SAPS    HA 2413   2.188   3.638   2.737  1.0155  0.1694 -1.3667
   19SAPS    HB 2414   2.199   3.816   2.766  0.7662 -1.9259  1.0994
   19SAPS    C2 2415   2.025   3.729   2.831 -0.3440  0.2027 -0.0167
   19SAPS    HS 2416   2.067   3.714   2.933 -2.0146  0.4673  0.7311
   19SAPS   O21 2417   1.927   3.624   2.798  0.0089  0.4021 -0.1505
   19SAPS   C21 2418   1.983   3.503   2.815 -0.3392 -0.2343 -0.3092
   19SAPS   O22 2419   2.090   3.478   2.869 -0.4935 -0.1902  0.3864
   19SAPS   C22 2420   1.902   3.394   2.762 -0.3537  0.6068  0.5162
   19SAPS   H2R 2421   1.887   3.396   2.652 -0.7589 -0.6754  0.5303
   19SAPS   H2S 2422   1.949   3.300   2.798 -1.1233  0.9771  2.6795
   19SAPS    C3 2423   1.960   3.869   2.837  0.2075 -0.2375  0.8122
   19SAPS    HX 2424   1.946   3.913   2.736 -0.0682 -0.0372  0.9381
   19SAPS    HY 2425   2.037   3.933   2.886  0.2918 -0.7787  1.4020
   19SAPS   O31 2426   1.837   3.866   2.898  0.1208  0.3244 -0.4624
   19SAPS   C31 2427   1.846   3.887   3.036  0.7313 -0.3644  0.5308
   19SAPS   O32 2428   1.943   3.904   3.104 -0.1476 -0.5126 -0.7148
   19SAPS   C32 2429   1.702   3.892   3.087 -0.2038  0.5104  0.0977
   19SAPS   H2X 2430   1.638   3.820   3.032  0.9086  0.6890 -1.5080
   19SAPS   H2Y 2431   1.670   3.997   3.073 -0.1695  0.8845  2.4350
   19SAPS   C23 2432   1.760   3.385   2.825  0.7426 -0.0682 -0.2147
   19SAPS   H3R 2433   1.707   3.313   2.758 -0.8638  0.8596  0.0045
   19SAPS   H3S 2434   1.710   3.484   2.814 -0.4406 -0.5204  0.7926
   19SAPS   C24 2435   1.774   3.344   2.971  0.0837  0.7685  0.5685
   19SAPS   H4R 2436   1.687   3.387   3.026  0.5922 -0.7985  2.7037
   19SAPS   H4S 2437   1.866   3.384   3.017  1.1765 -0.2522 -0.6318
   19SAPS   C25 2438   1.771   3.194   2.989  0.4908 -0.4477  0.2150
   19SAPS   H5R 2439   1.770   3.130   2.899  0.6581 -2.1359  1.3637
   19SAPS   C26 2440   1.734   3.141   3.106  0.4555  0.1720  0.0580
   19SAPS   H6R 2441   1.740   3.032   3.116  0.0042  0.1201 -0.2101
   19SAPS   C27 2442   1.706   3.222   3.234 -0.5989 -0.4675 -0.6987
   19SAPS   H7R 2443   1.623   3.178   3.293 -0.8697  2.1747  1.0768
   19SAPS   H7S 2444   1.653   3.318   3.214  1.9128  1.0940 -0.3248
   19SAPS   C28 2445   1.827   3.255   3.321  0.1030  0.1491 -0.7049
   19SAPS   H8R 2446   1.865   3.168   3.376 -0.1960  0.6595  0.3342
   19SAPS   C29 2447   1.879   3.376   3.345  0.1982  0.3472 -0.9218
   19SAPS   H9R 2448   1.957   3.376   3.423 -0.8154 -0.7011  0.1365
   19SAPS  C210 2449   1.842   3.509   3.298 -0.0221 -0.4150  0.8677
   19SAPS  H10R 2450   1.813   3.584   3.374 -0.5702  2.5806 -2.0577
   19SAPS  H10S 2451   1.760   3.502   3.223  1.3812  0.2956 -0.8126
   19SAPS  C211 2452   1.969   3.561   3.224  1.0990 -0.5644  0.1258
   19SAPS  H11R 2453   1.974   3.527   3.119 -1.8750 -0.8318  0.0056
   19SAPS  C212 2454   2.061   3.644   3.267 -0.1782 -0.6473 -0.4023
   19SAPS  H12R 2455   2.150   3.656   3.203  1.2829 -1.1266  1.4550
   19SAPS  C213 2456   2.065   3.706   3.405 -0.6730 -0.9330 -0.1647
   19SAPS  H13R 2457   2.018   3.638   3.479 -1.1282  1.8221  2.2732
   19SAPS  H13S 2458   2.003   3.798   3.405  0.8297  0.2020  2.6227
   19SAPS  C214 2459   2.205   3.738   3.452  0.6758  0.0956 -0.8201
   19SAPS  H14R 2460   2.287   3.691   3.396  0.7551  1.7285 -2.1587
   19SAPS  C215 2461   2.239   3.824   3.550  0.0315  0.6044  0.0420
   19SAPS  H15R 2462   2.346   3.849   3.561 -0.5179  3.7424 -0.8088
   19SAPS  C216 2463   2.148   3.889   3.646  0.1586 -0.5790 -0.1774
   19SAPS  H16R 2464   2.040   3.866   3.631 -0.5123  0.6134  2.2616
   19SAPS  H16S 2465   2.159   3.999   3.636  2.2072 -0.3639  2.8522
   19SAPS  C217 2466   2.180   3.833   3.789  0.1473  0.5771 -1.1206
   19SAPS  H17R 2467   2.282   3.864   3.819 -0.6122  1.1481  1.0395
   19SAPS  H17S 2468   2.170   3.723   3.788  0.3090  0.5593 -1.7798
   19SAPS  C218 2469   2.080   3.876   3.903  0.4338  0.0420 -0.6823
   19SAPS  H18R 2470   1.979   3.860   3.860  0.2146  0.6765 -0.4142
   19SAPS  H18S 2471   2.093   3.982   3.933 -2.2104  0.2675 -0.1313
   19SAPS  C219 2472   2.098   3.800   4.036 -0.4075  0.3218  0.0732
   19SAPS  H19R 2473   2.206   3.782   4.051 -0.1964  1.2184 -0.3401
   19SAPS  H19S 2474   2.039   3.707   4.018  0.0401 -0.0722  0.5866
   19SAPS  C220 2475   2.046   3.873   4.160 -0.0549 -0.2986  0.3048
   19SAPS  H20R 2476   1.939   3.900   4.154 -0.2546 -1.2431 -0.6139
   19SAPS  H20S 2477   2.103   3.966   4.178 -1.9728  0.7830  1.0638
   19SAPS  H20T 2478   2.071   3.822   4.256  1.0624  0.6911  0.5646
   19SAPS   C33 2479   1.695   3.884   3.240  0.0629 -0.6819 -0.1314
   19SAPS   H3X 2480   1.723   3.784   3.280 -1.7796 -0.6237  1.4831
   19SAPS   H3Y 2481   1.591   3.887   3.279  0.3614 -2.4790  0.9337
   19SAPS   C34 2482   1.768   3.999   3.319 -0.4502  0.1438  0.7538
   19SAPS   H4X 2483   1.733   4.099   3.286  1.5485  0.4040 -0.7497
   19SAPS   H4Y 2484   1.877   4.004   3.301 -0.6561  0.8192 -0.3593
   19SAPS   C35 2485   1.744   3.982   3.471  0.0459 -0.3679  0.0135
   19SAPS   H5X 2486   1.761   3.879   3.510 -2.2698 -0.2206  1.6544
   19SAPS   H5Y 2487   1.633   3.981   3.482  0.0815 -0.6612  0.3654
   19SAPS   C36 2488   1.804   4.093   3.561 -0.3292  0.0131 -0.3399
   19SAPS   H6X 2489   1.752   4.182   3.520 -2.0446 -0.3160  0.9976
   19SAPS   H6Y 2490   1.913   4.110   3.547 -0.6706  4.1364  0.7563
   19SAPS   C37 2491   1.782   4.060   3.709 -0.1537 -0.4655 -0.3950
   19SAPS   H7X 2492   1.825   3.958   3.722 -0.7345 -0.5504  1.0152
   19SAPS   H7Y 2493   1.675   4.043   3.733 -0.3298  0.7253 -0.2677
   19SAPS   C38 2494   1.857   4.160   3.792  0.3238  0.1771 -0.3827
   19SAPS   H8X 2495   1.811   4.259   3.769 -3.3099 -0.8380  1.7758
   19SAPS   H8Y 2496   1.964   4.144   3.766 -0.0762 -2.1833 -0.8061
   19SAPS   C39 2497   1.844   4.125   3.942  0.8701 -0.5929 -0.7209
   19SAPS   H9X 2498   1.898   4.029   3.960 -0.2048 -0.8447  1.4686
   19SAPS   H9Y 2499   1.741   4.107   3.977  0.6977  1.0817 -0.2732
   19SAPS  C310 2500   1.896   4.242   4.041  0.4200  0.8137  0.3825
   19SAPS  H10X 2501   1.984   4.293   3.997 -0.7997  3.0188  0.3682
   19SAPS  H10Y 2502   1.915   4.184   4.133  1.4879 -0.1042 -0.3779
   19SAPS  C311 2503   1.793   4.357   4.070  0.2160 -0.0060 -0.4814
   19SAPS  H11X 2504   1.713   4.294   4.113 -1.2227  1.9829 -0.1336
   19SAPS  H11Y 2505   1.757   4.393   3.971  0.0812  0.5169 -0.2443
   19SAPS  C312 2506   1.843   4.458   4.173  0.2955  0.1330 -0.0481
   19SAPS  H12X 2507   1.915   4.530   4.129  1.2821  0.3603  1.8308
   19SAPS  H12Y 2508   1.904   4.413   4.254  0.1867 -0.2643 -0.1870
   19SAPS  C313 2509   1.729   4.531   4.243 -0.0346  0.4136 -0.3591
   19SAPS  H13X 2510   1.689   4.446   4.303 -0.5284  0.2857 -0.8655
   19SAPS  H13Y 2511   1.653   4.572   4.172  0.1041  1.1408 -0.1010
   19SAPS  C314 2512   1.778   4.643   4.336  0.3137  0.1159 -0.1084
   19SAPS  H14X 2513   1.691   4.695   4.380 -1.5276  0.2362 -3.5926
   19SAPS  H14Y 2514   1.818   4.715   4.261  1.3601  0.4080  0.7041
   19SAPS  C315 2515   1.880   4.593   4.443 -1.2269  0.0620  0.6988
   19SAPS  H15X 2516   1.899   4.684   4.503 -0.2462  0.8597 -0.7521
   19SAPS  H15Y 2517   1.967   4.560   4.382 -2.6847 -0.5784 -1.1293
   19SAPS  C316 2518   1.837   4.484   4.541  0.9389 -0.9441 -0.0472
   19SAPS  H16X 2519   1.917   4.462   4.615 -0.6901 -0.7285  1.8765
   19SAPS  H16Y 2520   1.795   4.393   4.491 -0.7579  0.4267 -1.2552
   19SAPS  C317 2521   1.728   4.540   4.635 -0.1770  0.7125  0.7559
   19SAPS  H17X 2522   1.643   4.574   4.573 -0.4563 -0.2225  0.6082
   19SAPS  H17Y 2523   1.766   4.628   4.691  0.3516  0.9221  0.0876
   19SAPS  C318 2524   1.692   4.425   4.731 -0.4247 -0.3281 -0.3038
   19SAPS  H18X 2525   1.604   4.462   4.789 -1.7902  1.0751 -3.0452
   19SAPS  H18Y 2526   1.773   4.401   4.802 -1.8212  0.5086  1.6829
   19SAPS  H18Z 2527   1.661   4.333   4.678  0.3418 -0.2500 -0.9065
   20SAPS     N 2528   2.332   3.329   2.840  0.0140 -0.4843  0.4441
   20SAPS   HN1 2529   2.421   3.310   2.789 -0.0707  1.8600 -0.7216
   20SAPS   HN2 2530   2.260   3.349   2.768  1.3675  2.2790 -0.3052
   20SAPS   HN3 2531   2.344   3.421   2.888  1.6729 -0.7115  0.5291
   20SAPS   C12 2532   2.276   3.217   2.914  0.1582  1.2732 -0.2266
   20SAPS  H12A 2533   2.175   3.227   2.950 -0.8012 -1.5232 -1.8512
   20SAPS   C13 2534   2.281   3.074   2.843 -0.8865 -0.0027  0.4451
   20SAPS  O13A 2535   2.336   3.064   2.725 -0.1577 -0.0769 -0.1145
   20SAPS  O13B 2536   2.222   2.977   2.897 -0.0075 -0.6099  0.0712
   20SAPS   C11 2537   2.369   3.200   3.043  0.3505  0.0718  0.1942
   20SAPS  H11A 2538   2.329   3.115   3.103  0.3331 -0.3876 -0.4638
   20SAPS  H11B 2539   2.355   3.292   3.104  2.9711  0.6630  0.0384
   20SAPS     P 2540   2.616   3.256   3.038 -0.1817 -0.1076 -0.2773
   20SAPS   O13 2541   2.743   3.201   2.992 -0.3765  0.4005  0.1258
   20SAPS   O14 2542   2.583   3.388   2.975 -0.6019 -0.1514 -0.3302
   20SAPS   O12 2543   2.501   3.160   3.019 -0.5328  0.4751 -0.3486
   20SAPS   O11 2544   2.640   3.273   3.197 -0.0636  0.3689  0.3793
   20SAPS    C1 2545   2.643   3.155   3.275 -0.4409  0.1942 -0.1889
   20SAPS    HA 2546   2.577   3.080   3.227 -0.1100  0.5473 -1.2122
   20SAPS    HB 2547   2.736   3.098   3.256  0.4995  1.0230  1.6341
   20SAPS    C2 2548   2.606   3.176   3.424  0.5072 -0.1261 -1.1730
   20SAPS    HS 2549   2.580   3.082   3.477  0.1205  0.1665 -0.8429
   20SAPS   O21 2550   2.509   3.286   3.438  0.3300 -0.5740  0.3918
   20SAPS   C21 2551   2.390   3.239   3.392 -0.5337 -0.4423 -0.1930
   20SAPS   O22 2552   2.369   3.129   3.349  0.1943 -0.3648 -0.3050
   20SAPS   C22 2553   2.285   3.353   3.408  0.6622 -0.4537 -0.0089
   20SAPS   H2R 2554   2.321   3.436   3.344 -1.4357 -1.2907 -2.4452
   20SAPS   H2S 2555   2.188   3.326   3.360  0.2923  1.3186 -0.3505
   20SAPS    C3 2556   2.738   3.219   3.489 -0.8729 -0.1361 -0.8627
   20SAPS    HX 2557   2.769   3.313   3.440  0.5144  0.8669  1.7661
   20SAPS    HY 2558   2.821   3.149   3.467  0.0656  0.7456 -0.1833
   20SAPS   O31 2559   2.728   3.246   3.631  0.2299 -0.2605  0.7419
   20SAPS   C31 2560   2.719   3.148   3.714  0.7547  0.1511 -0.2686
   20SAPS   O32 2561   2.735   3.034   3.676  0.0703  0.5526 -0.1503
   20SAPS   C32 2562   2.668   3.203   3.851  0.0787 -0.1151  0.2908
   20SAPS   H2X 2563   2.558   3.188   3.857  0.1135 -0.4781  0.0703
   20SAPS   H2Y 2564   2.689   3.312   3.851 -1.1914  0.1422  0.1576
   20SAPS   C23 2565   2.264   3.385   3.560 -0.5120  0.1149  0.2150
   20SAPS   H3R 2566   2.228   3.491   3.562 -2.0681 -0.2707 -2.1647
   20SAPS   H3S 2567   2.358   3.378   3.619 -1.1760 -1.1429  1.1755
   20SAPS   C24 2568   2.153   3.300   3.631  0.0875 -0.0249 -0.8943
   20SAPS   H4R 2569   2.119   3.231   3.550 -0.0832  0.2758 -1.0821
   20SAPS   H4S 2570   2.070   3.370   3.653  0.3635 -0.4948  1.9642
   20SAPS   C25 2571   2.202   3.229   3.754  0.2098 -0.2379  0.0106
   20SAPS   H5R 2572   2.302   3.187   3.732 -0.2537 -0.4233 -1.8611
   20SAPS   C26 2573   2.152   3.230   3.885 -0.0151  0.1917  0.3687
   20SAPS   H6R 2574   2.211   3.186   3.968  0.4704  0.6940  0.2961
   20SAPS   C27 2575   2.020   3.296   3.923 -0.0215  0.3098  0.7689
   20SAPS   H7R 2576   1.947   3.272   3.844 -0.6955  0.5063  1.3231
   20SAPS   H7S 2577   2.020   3.408   3.922 -2.0296  0.4465 -3.5457
   20SAPS   C28 2578   1.957   3.246   4.050 -0.7696  0.1977  0.4842
   20SAPS   H8R 2579   1.876   3.172   4.035 -2.6609  2.2244  0.1767
   20SAPS   C29 2580   1.990   3.285   4.177 -0.1634  0.1282 -0.3698
   20SAPS   H9R 2581   1.945   3.233   4.263  0.8269  0.8878  0.6398
   20SAPS  C210 2582   2.105   3.386   4.218  0.1254  0.0485 -0.4741
   20SAPS  H10R 2583   2.060   3.482   4.250  0.3236  1.2532 -3.5074
   20SAPS  H10S 2584   2.163   3.427   4.132 -1.1257  0.1766 -1.2811
   20SAPS  C211 2585   2.207   3.343   4.324  0.8121  0.2076 -0.1808
   20SAPS  H11R 2586   2.298   3.311   4.273  0.1979  1.1377 -1.9303
   20SAPS  C212 2587   2.200   3.375   4.454 -0.3446 -0.1906 -0.3443
   20SAPS  H12R 2588   2.283   3.351   4.521  0.6304  0.4897 -1.2744
   20SAPS  C213 2589   2.081   3.438   4.530  0.5176 -0.4054 -0.6094
   20SAPS  H13R 2590   2.028   3.503   4.458 -1.2587 -1.3051 -0.1804
   20SAPS  H13S 2591   2.108   3.505   4.614  1.1365 -0.1850 -0.9796
   20SAPS  C214 2592   1.978   3.338   4.577  0.5384 -0.1718 -0.0023
   20SAPS  H14R 2593   1.994   3.249   4.514 -2.2588 -0.3858 -0.5400
   20SAPS  C215 2594   1.878   3.340   4.669  0.4402 -0.5225  0.0567
   20SAPS  H15R 2595   1.803   3.260   4.678 -1.2000  0.7937 -1.2110
   20SAPS  C216 2596   1.830   3.465   4.748  0.2414  0.4644  0.3015
   20SAPS  H16R 2597   1.751   3.525   4.699 -0.8533 -0.6141  0.6880
   20SAPS  H16S 2598   1.907   3.543   4.767 -1.1124  1.5939  1.3475
   20SAPS  C217 2599   1.768   3.420   4.883  0.4607  0.0354  0.4257
   20SAPS  H17R 2600   1.835   3.354   4.943  0.4788 -0.4247 -0.0910
   20SAPS  H17S 2601   1.690   3.345   4.857  2.0028 -1.7913  0.7771
   20SAPS  C218 2602   1.690   3.531   4.947  0.8056  0.4113 -0.2230
   20SAPS  H18R 2603   1.608   3.570   4.883  1.6993  3.1876  0.1792
   20SAPS  H18S 2604   1.752   3.616   4.984 -1.4481  1.1453  2.1869
   20SAPS  C219 2605   1.630   3.486   5.084 -0.6692  0.3652 -0.6922
   20SAPS  H19R 2606   1.718   3.464   5.148  0.7708 -0.1552 -2.7437
   20SAPS  H19S 2607   1.562   3.398   5.081 -0.0694 -0.2032  1.1118
   20SAPS  C220 2608   1.540   3.592   5.141  0.4427  0.6907 -0.3218
   20SAPS  H20R 2609   1.604   3.681   5.160  1.3939  0.2586 -1.4355
   20SAPS  H20S 2610   1.506   3.552   5.239  2.4062 -3.9720 -1.2642
   20SAPS  H20T 2611   1.455   3.617   5.073  2.5251  1.8530 -2.6525
   20SAPS   C33 2612   2.726   3.143   3.971 -0.4388 -0.1985 -0.4230
   20SAPS   H3X 2613   2.835   3.163   3.985  0.0727 -2.7604 -0.1674
   20SAPS   H3Y 2614   2.717   3.032   3.973 -1.3413 -0.1507  2.0455
   20SAPS   C34 2615   2.652   3.199   4.094  0.1079  0.0744  0.2479
   20SAPS   H4X 2616   2.551   3.158   4.113  0.2313  0.4967  1.9632
   20SAPS   H4Y 2617   2.643   3.308   4.075  2.8873  0.5727  1.2979
   20SAPS   C35 2618   2.725   3.181   4.232 -0.1937 -0.0054  1.1736
   20SAPS   H5X 2619   2.814   3.248   4.232  0.1024 -0.3514 -0.8234
   20SAPS   H5Y 2620   2.754   3.074   4.238 -0.8664 -0.2576  0.1836
   20SAPS   C36 2621   2.632   3.220   4.347  0.5703 -0.1034  0.0451
   20SAPS   H6X 2622   2.526   3.200   4.324  1.3702 -1.8967 -2.5246
   20SAPS   H6Y 2623   2.634   3.331   4.352 -0.0773  0.0141 -1.7224
   20SAPS   C37 2624   2.687   3.173   4.481 -0.0965 -0.2483  0.7343
   20SAPS   H7X 2625   2.794   3.200   4.497  0.5309 -1.5939 -0.8736
   20SAPS   H7Y 2626   2.693   3.062   4.476  2.3952 -0.1761  0.6485
   20SAPS   C38 2627   2.603   3.209   4.600 -0.2186  0.0572  0.5636
   20SAPS   H8X 2628   2.625   3.140   4.684  1.4322 -0.6425 -0.3980
   20SAPS   H8Y 2629   2.494   3.206   4.581 -0.2223 -1.3057  0.6834
   20SAPS   C39 2630   2.626   3.347   4.658  0.1130 -0.1244  0.6459
   20SAPS   H9X 2631   2.597   3.428   4.587  1.0545 -0.7135 -0.4428
   20SAPS   H9Y 2632   2.736   3.353   4.672  0.1141  0.0719  0.5586
   20SAPS  C310 2633   2.546   3.367   4.791 -0.0522 -0.1031  0.3396
   20SAPS  H10X 2634   2.567   3.292   4.869  0.1137 -0.5493 -0.1269
   20SAPS  H10Y 2635   2.435   3.361   4.780 -0.1525  1.7246  0.0356
   20SAPS  C311 2636   2.577   3.501   4.851  0.1257  0.2098  0.2471
   20SAPS  H11X 2637   2.548   3.575   4.774 -1.5521 -1.6892 -1.0619
   20SAPS  H11Y 2638   2.687   3.501   4.868  0.3399 -2.6207 -0.6512
   20SAPS  C312 2639   2.502   3.534   4.972  0.3184  0.2637  0.2623
   20SAPS  H12X 2640   2.507   3.643   4.992 -0.4969  0.6739 -1.5833
   20SAPS  H12Y 2641   2.537   3.476   5.060 -1.6347 -2.3106 -0.5341
   20SAPS  C313 2642   2.348   3.514   4.965  0.2308 -0.4904  0.2183
   20SAPS  H13X 2643   2.333   3.406   4.940 -1.9204 -0.3083  0.5115
   20SAPS  H13Y 2644   2.288   3.579   4.898 -0.1698  0.3244  1.3548
   20SAPS  C314 2645   2.274   3.548   5.100 -0.6439 -1.1021 -0.6040
   20SAPS  H14X 2646   2.301   3.469   5.174 -2.9355 -1.6102 -0.2507
   20SAPS  H14Y 2647   2.167   3.530   5.076 -0.9419  0.3234 -0.4540
   20SAPS  C315 2648   2.320   3.690   5.163  0.8889  0.4318 -0.6152
   20SAPS  H15X 2649   2.428   3.689   5.187  0.8359 -2.5904 -0.0721
   20SAPS  H15Y 2650   2.275   3.700   5.264  2.3156  2.8093 -0.1541
   20SAPS  C316 2651   2.289   3.809   5.075 -0.1168 -0.2344  0.1819
   20SAPS  H16X 2652   2.180   3.828   5.081  0.0929  0.6937  1.2383
   20SAPS  H16Y 2653   2.304   3.801   4.965 -0.1798  0.7864  0.0884
   20SAPS  C317 2654   2.367   3.934   5.115  0.2320  0.1990  0.5344
   20SAPS  H17X 2655   2.477   3.920   5.101  0.5717  0.6977  2.4642
   20SAPS  H17Y 2656   2.356   3.949   5.224 -3.2951  1.6115  0.1126
   20SAPS  C318 2657   2.322   4.065   5.049  0.2695  0.4328 -0.0240
   20SAPS  H18X 2658   2.352   4.061   4.942  2.0869 -0.2058  0.4716
   20SAPS  H18Y 2659   2.383   4.139   5.105  0.5263  0.1055  0.1402
   20SAPS  H18Z 2660   2.213   4.081   5.061  0.6350  1.6249  2.2537
   21CHL1    C3 2661   1.386   4.982   6.659 -0.2055 -0.2681  0.6109
   21CHL1    H3 2662   1.282   4.961   6.629  0.4539 -2.2113 -0.5390
   21CHL1    O3 2663   1.380   5.007   6.797 -0.4914  0.1972 -0.4747
   21CHL1   H3' 2664   1.466   5.038   6.827 -0.0182 -0.8831 -0.6686
   21CHL1    C4 2665   1.473   4.855   6.625 -0.2891 -0.3317 -0.3669
   21CHL1   H4A 2666   1.572   4.869   6.675  1.2363  1.2903 -3.5248
   21CHL1   H4B 2667   1.425   4.764   6.667  0.3367 -0.0125  1.1273
   21CHL1    C5 2668   1.495   4.831   6.479  0.8383  0.2999 -0.3845
   21CHL1    C6 2669   1.477   4.707   6.426 -1.1288 -0.1046 -0.0933
   21CHL1    H6 2670   1.464   4.619   6.490  0.5105 -1.5903 -1.6886
   21CHL1    C7 2671   1.489   4.681   6.280 -0.1574  0.0975 -0.1017
   21CHL1   H7A 2672   1.542   4.585   6.261 -0.1474  0.5938 -3.0840
   21CHL1   H7B 2673   1.387   4.674   6.236 -0.3389 -2.2019  0.5467
   21CHL1    C8 2674   1.568   4.783   6.201 -0.3573  0.4444 -0.1919
   21CHL1    H8 2675   1.676   4.766   6.221 -0.0328  0.9026 -1.4094
   21CHL1   C14 2676   1.535   4.767   6.050 -0.4578 -0.4310  0.9994
   21CHL1   H14 2677   1.430   4.800   6.038 -0.1771 -0.2174 -1.3152
   21CHL1   C15 2678   1.544   4.627   5.988  0.1065  0.1279  0.0771
   21CHL1  H15A 2679   1.622   4.556   6.023 -0.5770 -1.6886 -1.8965
   21CHL1  H15B 2680   1.446   4.576   6.003 -0.2546  0.4623 -1.0570
   21CHL1   C16 2681   1.571   4.659   5.843 -1.0448  1.3936  0.3501
   21CHL1  H16A 2682   1.664   4.616   5.800 -1.6531  0.5084 -0.1425
   21CHL1  H16B 2683   1.489   4.602   5.792  0.2188 -0.5530  0.3644
   21CHL1   C17 2684   1.570   4.811   5.822 -0.0579  0.3402  0.1032
   21CHL1   H17 2685   1.464   4.843   5.811  0.0505  0.3040 -1.2441
   21CHL1   C13 2686   1.617   4.867   5.964  0.7655  0.0096  0.6414
   21CHL1   C18 2687   1.772   4.845   5.982 -0.0309  0.0269 -0.6440
   21CHL1  H18A 2688   1.791   4.739   5.953 -1.5849 -0.0939 -1.2967
   21CHL1  H18B 2689   1.830   4.904   5.907  1.4363 -0.6790 -0.1177
   21CHL1  H18C 2690   1.810   4.857   6.086  0.6640  1.4030 -1.0365
   21CHL1   C12 2691   1.567   5.006   6.005 -0.1155 -0.1019 -0.2304
   21CHL1  H12A 2692   1.608   5.087   5.941 -0.1206 -0.6397 -0.9319
   21CHL1  H12B 2693   1.457   5.020   5.997 -0.0074  2.2767  1.3376
   21CHL1   C11 2694   1.611   5.033   6.154 -0.3318  0.2454 -0.1066
   21CHL1  H11A 2695   1.722   5.024   6.158 -0.2648  0.9048 -0.3614
   21CHL1  H11B 2696   1.575   5.134   6.184 -2.3197 -0.2432 -0.6556
   21CHL1    C9 2697   1.538   4.925   6.249 -0.1323 -0.5652  0.7111
   21CHL1    H9 2698   1.431   4.931   6.220  0.0665 -0.2846  0.0326
   21CHL1   C10 2699   1.541   4.953   6.399 -0.4225 -0.0336  0.5261
   21CHL1   C19 2700   1.693   4.986   6.441  0.3444 -0.0453 -0.2741
   21CHL1  H19A 2701   1.765   4.906   6.415  0.4820  0.4671 -1.5522
   21CHL1  H19B 2702   1.733   5.083   6.403  1.3483  0.6583  2.3734
   21CHL1  H19C 2703   1.700   4.991   6.552  0.3526 -1.1632 -0.2193
   21CHL1    C1 2704   1.451   5.071   6.426  0.7757  0.1528  0.2934
   21CHL1   H1A 2705   1.486   5.169   6.387  0.2554  0.2196 -0.0226
   21CHL1   H1B 2706   1.350   5.045   6.388  1.8991 -0.2572 -2.6957
   21CHL1    C2 2707   1.442   5.099   6.578  0.0279 -0.0394  0.2992
   21CHL1   H2A 2708   1.376   5.188   6.588 -0.3165 -0.3367  0.7218
   21CHL1   H2B 2709   1.538   5.147   6.606  0.4970  1.1754 -3.0037
   21CHL1   C20 2710   1.643   4.855   5.698 -0.3723 -0.7307  0.5544
   21CHL1   H20 2711   1.750   4.832   5.715 -0.0547 -0.2317 -0.6247
   21CHL1   C21 2712   1.636   5.008   5.687 -0.1024  0.4223  0.2681
   21CHL1  H21A 2713   1.530   5.041   5.695  0.4234  1.9239  1.4377
   21CHL1  H21B 2714   1.674   5.044   5.589  2.3346 -0.2509  0.9172
   21CHL1  H21C 2715   1.706   5.064   5.752  0.7035  3.0944 -2.6358
   21CHL1   C22 2716   1.609   4.790   5.563  0.2580  0.4719  0.9500
   21CHL1  H22A 2717   1.687   4.825   5.491 -0.4604  1.4747  0.6284
   21CHL1  H22B 2718   1.609   4.680   5.578 -0.8517  0.6064  2.0896
   21CHL1   C23 2719   1.469   4.828   5.497 -0.1933  0.6606 -0.5231
   21CHL1  H23A 2720   1.392   4.824   5.577  0.4046  1.7722  0.1355
   21CHL1  H23B 2721   1.469   4.934   5.464  0.3591 -0.4818 -4.7884
   21CHL1   C24 2722   1.437   4.753   5.363  0.2907 -1.0291 -0.1460
   21CHL1  H24A 2723   1.413   4.648   5.391 -1.9477 -0.4423  0.2912
   21CHL1  H24B 2724   1.352   4.810   5.320  2.0170  1.2805 -0.7239
   21CHL1   C25 2725   1.550   4.756   5.249 -0.1124  0.1508 -0.1586
   21CHL1   H25 2726   1.633   4.694   5.288  1.0228  0.5539 -1.8533
   21CHL1   C26 2727   1.492   4.691   5.121  0.2903 -0.0251 -0.1190
   21CHL1  H26A 2728   1.573   4.710   5.047 -0.3307  2.3851 -0.2651
   21CHL1  H26B 2729   1.458   4.586   5.134  0.3514  0.0227  0.4575
   21CHL1  H26C 2730   1.402   4.748   5.089  1.3510  1.2729 -0.9607
   21CHL1   C27 2731   1.594   4.904   5.226 -0.8293  0.4300  0.2308
   21CHL1  H27A 2732   1.505   4.955   5.183 -0.3865  2.8003  1.8897
   21CHL1  H27B 2733   1.627   4.956   5.319 -0.5380 -0.3329  0.5610
   21CHL1  H27C 2734   1.671   4.892   5.147  0.6837 -1.9484  1.9233
   22CHL1    C3 2735   3.085   5.216   6.909  0.2247  0.0567 -0.0248
   22CHL1    H3 2736   2.992   5.250   6.860  1.3671  1.7620 -1.1512
   22CHL1    O3 2737   3.097   5.253   7.046 -0.5461  0.1408  0.1252
   22CHL1   H3' 2738   3.089   5.349   7.046  1.4429  0.3489  1.2774
   22CHL1    C4 2739   3.096   5.064   6.897 -0.2889 -0.2585  0.5391
   22CHL1   H4A 2740   3.191   5.033   6.946 -0.5865 -0.2095  1.1639
   22CHL1   H4B 2741   3.014   5.027   6.963  1.2967 -0.5918  2.4268
   22CHL1    C5 2742   3.078   5.021   6.751 -0.6958 -0.9919 -0.1844
   22CHL1    C6 2743   2.986   4.931   6.718  0.3586  0.0979  0.1660
   22CHL1    H6 2744   2.922   4.882   6.792  0.6144  0.4926  0.6525
   22CHL1    C7 2745   2.944   4.902   6.575 -0.8867  0.5919  1.0721
   22CHL1   H7A 2746   2.910   4.796   6.570  1.4121 -0.1412 -1.8419
   22CHL1   H7B 2747   2.863   4.966   6.535 -0.2845  0.4252 -0.4598
   22CHL1    C8 2748   3.068   4.921   6.476  0.3314 -0.7852 -0.3138
   22CHL1    H8 2749   3.140   4.845   6.511  0.6703  0.1236  1.0100
   22CHL1   C14 2750   3.035   4.893   6.330 -0.6776  0.4107 -0.1863
   22CHL1   H14 2751   2.957   4.969   6.304 -0.3334  0.5617 -0.7764
   22CHL1   C15 2752   2.967   4.761   6.289 -0.2977  0.8966 -0.0669
   22CHL1  H15A 2753   3.030   4.684   6.339  0.7497  1.5269 -0.3780
   22CHL1  H15B 2754   2.861   4.742   6.314 -0.6496  1.1173 -1.3107
   22CHL1   C16 2755   2.991   4.762   6.137 -0.0949 -0.0724 -0.0643
   22CHL1  H16A 2756   3.035   4.663   6.113  0.8276  0.1806  0.5571
   22CHL1  H16B 2757   2.898   4.785   6.080 -0.4250  3.1458  1.5510
   22CHL1   C17 2758   3.090   4.874   6.098  0.1390 -0.0229  0.0507
   22CHL1   H17 2759   3.030   4.963   6.070  0.9001  0.1623 -1.0711
   22CHL1   C13 2760   3.151   4.921   6.233 -0.5934  0.4041 -0.7203
   22CHL1   C18 2761   3.259   4.819   6.272  0.1908  0.6864 -1.1758
   22CHL1  H18A 2762   3.357   4.843   6.226  1.3000 -0.2588  0.5655
   22CHL1  H18B 2763   3.292   4.834   6.377  1.8185  0.1390 -1.5723
   22CHL1  H18C 2764   3.218   4.716   6.259 -3.0857  1.7707 -0.2342
   22CHL1   C12 2765   3.192   5.071   6.252 -0.3973  0.6424 -0.3535
   22CHL1  H12A 2766   3.281   5.087   6.188 -0.1012 -0.9651 -0.3839
   22CHL1  H12B 2767   3.109   5.133   6.211 -0.9303 -0.5641 -1.1617
   22CHL1   C11 2768   3.228   5.102   6.397  0.4003 -0.3257  0.2536
   22CHL1  H11A 2769   3.320   5.044   6.419 -0.5358 -1.3222  1.7247
   22CHL1  H11B 2770   3.260   5.208   6.408  1.3983 -0.4408 -1.2792
   22CHL1    C9 2771   3.120   5.065   6.498  0.6776  0.0746 -0.4951
   22CHL1    H9 2772   3.028   5.125   6.485 -0.5693 -0.9563  2.6194
   22CHL1   C10 2773   3.168   5.097   6.645  0.1926  0.2505 -0.7347
   22CHL1   C19 2774   3.313   5.043   6.656 -0.7143 -0.9989 -0.1085
   22CHL1  H19A 2775   3.382   5.113   6.605 -3.6820  1.7685 -0.6035
   22CHL1  H19B 2776   3.341   5.029   6.763  0.7200  2.2549  0.0465
   22CHL1  H19C 2777   3.325   4.947   6.602  4.0374 -0.4206 -0.4637
   22CHL1    C1 2778   3.171   5.247   6.683  0.4337  0.2423  0.7013
   22CHL1   H1A 2779   3.254   5.288   6.623 -0.2864  0.1698 -0.3566
   22CHL1   H1B 2780   3.072   5.291   6.657  0.3507 -2.0331 -3.8949
   22CHL1    C2 2781   3.207   5.270   6.831  0.1631  0.0305  0.9382
   22CHL1   H2A 2782   3.217   5.381   6.833  1.5760  0.0173 -1.4307
   22CHL1   H2B 2783   3.306   5.234   6.868  0.6788  0.9295  0.4841
   22CHL1   C20 2784   3.181   4.840   5.971  0.1321  0.6701  0.4153
   22CHL1   H20 2785   3.238   4.751   6.004  0.7922  0.7165 -0.5893
   22CHL1   C21 2786   3.279   4.958   5.954  0.0179  0.0563 -0.2560
   22CHL1  H21A 2787   3.219   5.052   5.953 -0.2236 -0.0330  1.6075
   22CHL1  H21B 2788   3.341   4.953   5.862 -0.0952  1.1992 -0.4035
   22CHL1  H21C 2789   3.347   4.967   6.041  1.1105  1.3075 -1.1926
   22CHL1   C22 2790   3.096   4.813   5.853  0.8392 -0.2283  0.5222
   22CHL1  H22A 2791   3.023   4.732   5.872 -0.7269  0.0243 -3.3805
   22CHL1  H22B 2792   3.023   4.892   5.825  1.9155  0.5750 -0.0686
   22CHL1   C23 2793   3.174   4.794   5.717  1.0749 -0.0501 -1.1017
   22CHL1  H23A 2794   3.217   4.889   5.679 -1.8370  0.9617 -2.1853
   22CHL1  H23B 2795   3.255   4.723   5.742  2.2257  1.2626 -1.0060
   22CHL1   C24 2796   3.088   4.729   5.608 -0.4664 -0.1065 -0.5291
   22CHL1  H24A 2797   3.024   4.653   5.659 -0.4968 -0.0606 -0.4982
   22CHL1  H24B 2798   3.004   4.795   5.577 -1.3236 -0.9638 -0.0790
   22CHL1   C25 2799   3.167   4.677   5.499 -0.2752  0.0368 -1.2101
   22CHL1   H25 2800   3.243   4.608   5.543  0.5089  0.9081 -1.1642
   22CHL1   C26 2801   3.096   4.590   5.388 -0.8313 -0.8163  0.2963
   22CHL1  H26A 2802   3.040   4.653   5.316  2.2059  0.9643 -0.7211
   22CHL1  H26B 2803   3.171   4.528   5.335 -0.9612 -0.4657 -0.3124
   22CHL1  H26C 2804   3.023   4.515   5.425 -1.5253 -0.1230  0.3532
   22CHL1   C27 2805   3.257   4.786   5.425 -0.2399 -0.5896  0.3223
   22CHL1  H27A 2806   3.300   4.734   5.336 -0.3060 -1.4370  0.7716
   22CHL1  H27B 2807   3.211   4.882   5.394 -2.5271 -2.2989 -2.0577
   22CHL1  H27C 2808   3.344   4.803   5.492  0.1942  0.9793 -0.5979
   23CHL1    C3 2809   1.084   4.736   6.700  0.2227 -0.5014  0.0823
   23CHL1    H3 2810   1.193   4.745   6.677  0.1807 -0.1119  0.0274
   23CHL1    O3 2811   1.062   4.765   6.841  0.3428 -1.3318 -0.2812
   23CHL1   H3' 2812   1.001   4.698   6.873 -1.3381  0.6614  0.9660
   23CHL1    C4 2813   1.003   4.830   6.615 -0.0325  0.6437  0.4574
   23CHL1   H4A 2814   0.898   4.819   6.649 -0.0547 -0.6595  0.0181
   23CHL1   H4B 2815   1.037   4.932   6.643  0.0707  0.0934  2.4841
   23CHL1    C5 2816   1.022   4.801   6.463 -0.0240  0.9128 -0.8820
   23CHL1    C6 2817   1.088   4.887   6.390  0.0675 -0.7906  0.4901
   23CHL1    H6 2818   1.126   4.979   6.436 -0.2966 -0.1875 -0.3884
   23CHL1    C7 2819   1.101   4.862   6.241 -0.3249  0.3144 -0.0127
   23CHL1   H7A 2820   1.067   4.954   6.188 -1.9160 -0.2262  0.0067
   23CHL1   H7B 2821   1.207   4.849   6.210 -0.1100  1.2409  0.2829
   23CHL1    C8 2822   1.017   4.752   6.178  0.3729  0.1301 -0.1105
   23CHL1    H8 2823   0.911   4.787   6.172  0.3924  0.2753  0.3575
   23CHL1   C14 2824   1.063   4.705   6.043  0.0008  0.4430  0.2948
   23CHL1   H14 2825   1.158   4.660   6.078 -1.7907 -3.3747  0.7082
   23CHL1   C15 2826   1.102   4.811   5.935 -0.1382 -0.0524 -0.0656
   23CHL1  H15A 2827   1.022   4.884   5.911  0.3973  0.6064  0.1208
   23CHL1  H15B 2828   1.187   4.875   5.967 -0.1771 -0.0073 -0.0528
   23CHL1   C16 2829   1.122   4.729   5.814  0.4908 -0.3851  0.4118
   23CHL1  H16A 2830   1.064   4.771   5.729  2.7413 -0.9624 -1.5322
   23CHL1  H16B 2831   1.228   4.723   5.782  0.1656  1.1555 -1.1313
   23CHL1   C17 2832   1.079   4.579   5.844  0.2703  0.6776  0.1168
   23CHL1   H17 2833   1.175   4.532   5.872 -1.5545 -2.4863  1.6261
   23CHL1   C13 2834   0.991   4.591   5.969 -0.6284 -0.4025 -1.4071
   23CHL1   C18 2835   0.855   4.628   5.927 -0.2079 -0.0826 -0.6907
   23CHL1  H18A 2836   0.808   4.668   6.019  0.3968 -3.7048  1.3443
   23CHL1  H18B 2837   0.849   4.710   5.851  1.4253  0.0524 -0.7135
   23CHL1  H18C 2838   0.791   4.543   5.895  1.5048 -2.7026  2.3495
   23CHL1   C12 2839   0.991   4.472   6.070 -0.1171  0.0389 -0.1621
   23CHL1  H12A 2840   0.927   4.388   6.036 -2.2892  1.3260  0.5376
   23CHL1  H12B 2841   1.095   4.433   6.077 -0.9304 -2.1044  0.7791
   23CHL1   C11 2842   0.946   4.514   6.209  0.7045  1.0151  0.4598
   23CHL1  H11A 2843   0.842   4.553   6.214 -0.6761 -2.3996  3.1057
   23CHL1  H11B 2844   0.954   4.433   6.285  3.0160  1.4989  0.7945
   23CHL1    C9 2845   1.021   4.630   6.276  0.8874  0.5338 -0.5090
   23CHL1    H9 2846   1.124   4.591   6.283  0.8865  0.6977  0.6316
   23CHL1   C10 2847   0.981   4.657   6.427  0.0583  0.7865 -0.6033
   23CHL1   C19 2848   0.829   4.657   6.444  0.4575  0.1761 -0.3779
   23CHL1  H19A 2849   0.801   4.685   6.548  1.6592 -0.6449  0.1954
   23CHL1  H19B 2850   0.783   4.724   6.370 -0.2918  0.5586  0.4192
   23CHL1  H19C 2851   0.785   4.555   6.435 -1.8785  1.0377  0.5388
   23CHL1    C1 2852   1.036   4.550   6.525 -0.3468  0.3019 -0.8709
   23CHL1   H1A 2853   0.981   4.455   6.508 -2.3324  1.3466 -0.5687
   23CHL1   H1B 2854   1.143   4.525   6.504 -1.2985 -4.2241 -1.2389
   23CHL1    C2 2855   1.025   4.596   6.676 -0.1843  0.9026 -0.0405
   23CHL1   H2A 2856   1.079   4.525   6.743  1.2612  1.0463 -1.0222
   23CHL1   H2B 2857   0.918   4.604   6.703 -0.4317  3.7187 -1.5831
   23CHL1   C20 2858   1.027   4.502   5.726 -1.0723 -0.3261  0.5227
   23CHL1   H20 2859   0.922   4.534   5.710 -0.7024 -0.1894 -1.9776
   23CHL1   C21 2860   1.025   4.344   5.751 -0.0530 -0.3092  0.6192
   23CHL1  H21A 2861   1.100   4.302   5.821 -0.4674 -2.5986 -0.2260
   23CHL1  H21B 2862   1.036   4.293   5.653 -2.0674 -4.4373  2.2908
   23CHL1  H21C 2863   0.925   4.313   5.787  0.5505  0.1051  2.8124
   23CHL1   C22 2864   1.119   4.524   5.591 -0.5700 -0.0204  0.1319
   23CHL1  H22A 2865   1.167   4.623   5.580  0.7659 -0.5152  1.2498
   23CHL1  H22B 2866   1.199   4.449   5.605 -0.6123  0.2178  1.7868
   23CHL1   C23 2867   1.040   4.503   5.462  0.5658 -0.1394  0.1472
   23CHL1  H23A 2868   0.994   4.402   5.456  0.4482 -0.0080 -1.5596
   23CHL1  H23B 2869   0.960   4.580   5.461 -1.1707 -1.8497  0.8421
   23CHL1   C24 2870   1.132   4.522   5.345 -0.0079  0.6196  1.2490
   23CHL1  H24A 2871   1.189   4.617   5.358  0.1577  0.5457  1.0757
   23CHL1  H24B 2872   1.201   4.435   5.342  0.6554  1.1369  1.0640
   23CHL1   C25 2873   1.051   4.511   5.206 -0.6832 -0.4376  0.1364
   23CHL1   H25 2874   0.970   4.586   5.212  1.1631  1.8039 -0.9650
   23CHL1   C26 2875   1.119   4.581   5.080  0.2138  0.0469  0.4309
   23CHL1  H26A 2876   1.049   4.589   4.993  0.6889 -1.5850 -0.1446
   23CHL1  H26B 2877   1.162   4.679   5.107  0.8729 -0.2323  0.4187
   23CHL1  H26C 2878   1.210   4.528   5.045 -0.8294 -0.9215 -0.9281
   23CHL1   C27 2879   0.996   4.369   5.179 -0.6180  0.0310 -0.3017
   23CHL1  H27A 2880   0.904   4.364   5.242  0.8839  0.5017  2.0468
   23CHL1  H27B 2881   0.969   4.355   5.072 -2.8687 -1.2514  0.3760
   23CHL1  H27C 2882   1.072   4.296   5.212  0.9476  2.9316  3.2729
   24CHL1    C3 2883   2.703   5.392   6.726  0.4525 -0.0478 -0.5048
   24CHL1    H3 2884   2.800   5.429   6.686  0.1009  1.0950 -0.3272
   24CHL1    O3 2885   2.687   5.433   6.863  0.3294  0.6048  0.6248
   24CHL1   H3' 2886   2.591   5.425   6.863  0.2917  1.0360  0.4216
   24CHL1    C4 2887   2.598   5.469   6.641 -0.0666 -0.3676 -0.4746
   24CHL1   H4A 2888   2.493   5.443   6.667 -0.1103 -1.9397 -2.1028
   24CHL1   H4B 2889   2.614   5.576   6.665  1.0683 -0.3547 -1.2161
   24CHL1    C5 2890   2.617   5.443   6.497 -0.1624  0.7876  0.1975
   24CHL1    C6 2891   2.620   5.535   6.399 -0.0351  0.5216 -0.1302
   24CHL1    H6 2892   2.607   5.642   6.424  2.0093  1.6850 -3.4941
   24CHL1    C7 2893   2.619   5.503   6.251 -0.1797 -0.8905 -0.4075
   24CHL1   H7A 2894   2.535   5.556   6.202 -1.2062 -0.1516  2.0060
   24CHL1   H7B 2895   2.718   5.532   6.209 -0.0730 -0.5687  0.0679
   24CHL1    C8 2896   2.600   5.350   6.224  0.0525  0.1538 -0.4742
   24CHL1    H8 2897   2.490   5.341   6.219 -0.0111  1.1594 -5.1332
   24CHL1   C14 2898   2.660   5.336   6.085  0.3600  0.4627 -0.0205
   24CHL1   H14 2899   2.769   5.355   6.095  0.4780 -0.4338  0.5954
   24CHL1   C15 2900   2.609   5.427   5.973 -0.6432 -0.1405  0.1060
   24CHL1  H15A 2901   2.498   5.426   5.986 -1.0307  1.5288 -2.2558
   24CHL1  H15B 2902   2.638   5.534   5.965  0.8092 -0.6101 -1.5007
   24CHL1   C16 2903   2.651   5.354   5.844 -0.0101  0.6200 -0.1667
   24CHL1  H16A 2904   2.560   5.345   5.782  1.3359 -1.8237 -1.9533
   24CHL1  H16B 2905   2.717   5.406   5.771  2.5915  1.3712  2.4931
   24CHL1   C17 2906   2.701   5.215   5.888  0.1370  0.1791  0.6291
   24CHL1   H17 2907   2.809   5.220   5.911  0.5468 -0.8762 -0.9552
   24CHL1   C13 2908   2.638   5.192   6.030 -0.5697  0.6207 -0.1577
   24CHL1   C18 2909   2.484   5.148   6.019 -0.0780  1.0148 -0.1171
   24CHL1  H18A 2910   2.476   5.047   5.973 -0.9364  1.1063 -0.1786
   24CHL1  H18B 2911   2.453   5.141   6.125 -0.5254  2.2877 -0.1484
   24CHL1  H18C 2912   2.418   5.224   5.972 -1.7767 -0.0660  0.4223
   24CHL1   C12 2913   2.724   5.097   6.128  1.1234 -0.8379  0.3913
   24CHL1  H12A 2914   2.708   4.990   6.102  0.5337 -0.7701  0.4522
   24CHL1  H12B 2915   2.833   5.114   6.137  1.1249 -1.3736  1.5311
   24CHL1   C11 2916   2.667   5.115   6.275 -0.7468 -0.5360 -0.1925
   24CHL1  H11A 2917   2.564   5.072   6.273 -1.8546  1.9154 -1.3901
   24CHL1  H11B 2918   2.718   5.045   6.344 -1.6922 -0.0505  1.0392
   24CHL1    C9 2919   2.674   5.259   6.321  0.1212 -0.3587 -0.0770
   24CHL1    H9 2920   2.778   5.296   6.316 -0.9618  2.9193 -1.1068
   24CHL1   C10 2921   2.626   5.289   6.465  0.2872 -0.5403 -0.4247
   24CHL1   C19 2922   2.480   5.229   6.479 -0.1969  0.1836 -0.1013
   24CHL1  H19A 2923   2.404   5.294   6.432 -1.3556 -1.0290  0.0585
   24CHL1  H19B 2924   2.477   5.128   6.433 -0.0533  0.3299 -0.4325
   24CHL1  H19C 2925   2.461   5.227   6.589  1.3097 -1.0425  0.1719
   24CHL1    C1 2926   2.721   5.208   6.562  0.7045 -0.0840  0.3960
   24CHL1   H1A 2927   2.693   5.101   6.550 -2.5064  0.7522 -0.3082
   24CHL1   H1B 2928   2.824   5.229   6.525  0.2150  1.2887 -0.2519
   24CHL1    C2 2929   2.707   5.239   6.706 -0.1982  0.1179 -0.3560
   24CHL1   H2A 2930   2.776   5.196   6.781  0.7947  2.7943  0.3618
   24CHL1   H2B 2931   2.601   5.220   6.733  0.2449 -1.9425  0.1794
   24CHL1   C20 2932   2.674   5.109   5.775  0.0998 -0.0644 -0.9731
   24CHL1   H20 2933   2.567   5.116   5.746 -0.2984 -1.2853  0.0787
   24CHL1   C21 2934   2.697   4.962   5.821 -0.1976 -0.3534 -0.1358
   24CHL1  H21A 2935   2.804   4.950   5.849 -0.3423 -0.0623  0.5481
   24CHL1  H21B 2936   2.684   4.884   5.743 -0.4596 -0.6273  0.1759
   24CHL1  H21C 2937   2.636   4.930   5.908  0.2509 -0.3026  0.1995
   24CHL1   C22 2938   2.765   5.142   5.657 -0.6149 -0.1753 -0.2239
   24CHL1  H22A 2939   2.749   5.249   5.631  0.2040  0.0051 -0.0202
   24CHL1  H22B 2940   2.872   5.140   5.687 -0.4884  3.0612 -0.0960
   24CHL1   C23 2941   2.719   5.064   5.531  0.3392  0.3580  0.8333
   24CHL1  H23A 2942   2.736   4.955   5.545 -0.2858  0.2978  1.1035
   24CHL1  H23B 2943   2.610   5.084   5.522 -0.3229 -2.4424  1.6886
   24CHL1   C24 2944   2.802   5.101   5.407  0.4164  0.3770  0.5854
   24CHL1  H24A 2945   2.792   5.210   5.387 -1.5958  0.7015  2.9848
   24CHL1  H24B 2946   2.911   5.080   5.418  0.8263  0.0646 -2.9503
   24CHL1   C25 2947   2.754   5.039   5.273  0.0402 -0.7092 -1.0036
   24CHL1   H25 2948   2.665   5.096   5.238 -0.5788  0.2568  1.8830
   24CHL1   C26 2949   2.854   5.049   5.159  0.1225  0.4967  1.1328
   24CHL1  H26A 2950   2.949   5.009   5.201  0.2928  0.2235  0.4926
   24CHL1  H26B 2951   2.819   4.985   5.076 -1.9731  3.1233 -0.1700
   24CHL1  H26C 2952   2.868   5.146   5.106 -0.0794 -0.6372 -1.1000
   24CHL1   C27 2953   2.705   4.891   5.276 -0.3288  0.4189 -0.1171
   24CHL1  H27A 2954   2.669   4.867   5.174  2.0337 -0.8422 -0.7154
   24CHL1  H27B 2955   2.793   4.825   5.289 -0.0867  0.5987 -0.8044
   24CHL1  H27C 2956   2.623   4.869   5.347  0.5606 -2.9590  0.0372
   25CHL1    C3 2957   5.131   0.553   7.131 -0.4832 -0.1521  0.8549
   25CHL1    H3 2958   5.164   0.448   7.143 -1.4904 -0.3218  2.4197
   25CHL1    O3 2959   5.133   0.610   7.257 -0.1338 -0.0125 -0.2490
   25CHL1   H3' 2960   5.060   0.567   7.303 -0.2225  0.7060  0.2958
   25CHL1    C4 2961   5.204   0.644   7.032 -0.0410  0.1512  0.3155
   25CHL1   H4A 2962   5.160   0.745   7.027 -0.2722 -0.0098 -2.5539
   25CHL1   H4B 2963   5.306   0.651   7.076  0.3178 -1.1299 -0.2702
   25CHL1    C5 2964   5.213   0.591   6.892 -0.4013 -0.0128 -0.0212
   25CHL1    C6 2965   5.328   0.567   6.833 -0.2822  0.0913  0.8603
   25CHL1    H6 2966   5.424   0.584   6.885  0.8863  1.6581 -1.6270
   25CHL1    C7 2967   5.337   0.516   6.690 -0.2811 -0.1047  0.0092
   25CHL1   H7A 2968   5.417   0.569   6.633 -1.7126  3.7451  1.2585
   25CHL1   H7B 2969   5.364   0.409   6.693 -0.1023 -0.0763 -0.4282
   25CHL1    C8 2970   5.202   0.531   6.612  0.2721 -0.0883 -0.2498
   25CHL1    H8 2971   5.178   0.636   6.585 -2.4001 -0.3649  0.7060
   25CHL1   C14 2972   5.204   0.432   6.490  0.0863 -0.2814  0.0673
   25CHL1   H14 2973   5.218   0.334   6.540 -0.8656  0.6184  2.2052
   25CHL1   C15 2974   5.306   0.451   6.375  0.4789  0.4293 -0.5589
   25CHL1  H15A 2975   5.304   0.562   6.363  0.1772  0.6549  1.1928
   25CHL1  H15B 2976   5.408   0.418   6.404  0.8781  0.7115 -1.6307
   25CHL1   C16 2977   5.255   0.358   6.267  0.5338 -0.8158  0.2813
   25CHL1  H16A 2978   5.275   0.413   6.173  1.3967  0.1767  1.0210
   25CHL1  H16B 2979   5.313   0.263   6.268  0.6034 -0.8023  2.2341
   25CHL1   C17 2980   5.108   0.336   6.298 -0.2083 -0.2310  0.3216
   25CHL1   H17 2981   5.099   0.234   6.343  0.2796 -1.0675 -1.4079
   25CHL1   C13 2982   5.070   0.429   6.411 -0.0542  0.2798 -0.3364
   25CHL1   C18 2983   5.037   0.568   6.344 -0.0256 -0.1509  0.4015
   25CHL1  H18A 2984   5.042   0.653   6.415  1.2778 -0.3262  0.5409
   25CHL1  H18B 2985   5.106   0.598   6.262  0.8704  3.0426  2.1613
   25CHL1  H18C 2986   4.935   0.573   6.300 -0.6778  0.9119  1.9547
   25CHL1   C12 2987   4.954   0.378   6.503 -0.4060  0.6705 -0.2502
   25CHL1  H12A 2988   4.862   0.386   6.442 -0.7943  0.6148  0.3228
   25CHL1  H12B 2989   4.976   0.274   6.537 -0.0577  0.5070 -0.9471
   25CHL1   C11 2990   4.949   0.461   6.635 -0.4094  0.2560 -0.6219
   25CHL1  H11A 2991   4.914   0.563   6.610  2.5188  1.1769 -1.3677
   25CHL1  H11B 2992   4.882   0.406   6.705  0.8988 -0.6352 -0.0389
   25CHL1    C9 2993   5.085   0.480   6.707 -0.0387  0.8372  0.3068
   25CHL1    H9 2994   5.128   0.382   6.737 -0.9627  1.1110  2.7288
   25CHL1   C10 2995   5.078   0.563   6.835 -0.7481  0.4651 -0.1230
   25CHL1   C19 2996   5.005   0.700   6.805  0.6886 -0.7884  0.9498
   25CHL1  H19A 2997   5.008   0.779   6.884 -1.4072  0.3475 -0.0462
   25CHL1  H19B 2998   5.054   0.755   6.722  1.0347  0.5448  1.9909
   25CHL1  H19C 2999   4.900   0.675   6.780  0.4412  0.6283  0.4957
   25CHL1    C1 3000   4.991   0.481   6.945 -0.6757 -0.0076  0.1104
   25CHL1   H1A 3001   4.885   0.482   6.912 -0.8746 -0.7363  0.7285
   25CHL1   H1B 3002   5.018   0.374   6.940  0.2388  0.1918  0.5008
   25CHL1    C2 3003   4.989   0.542   7.088  0.2068 -0.3085  1.5549
   25CHL1   H2A 3004   4.927   0.488   7.163 -1.7222  0.3935  0.5372
   25CHL1   H2B 3005   4.946   0.643   7.072  1.5798  0.0539 -0.1557
   25CHL1   C20 3006   5.025   0.336   6.162 -0.0557  0.2017 -0.5097
   25CHL1   H20 3007   5.012   0.437   6.119 -0.0918  0.8177  0.9008
   25CHL1   C21 3008   4.883   0.288   6.200  0.4814 -0.6482  0.2986
   25CHL1  H21A 3009   4.829   0.369   6.254  1.8160 -0.6336  1.6900
   25CHL1  H21B 3010   4.884   0.200   6.267 -0.8282 -1.9126 -1.2842
   25CHL1  H21C 3011   4.824   0.251   6.114  0.3737  0.1839  0.0019
   25CHL1   C22 3012   5.075   0.253   6.038  0.7364 -0.0166  0.3100
   25CHL1  H22A 3013   5.179   0.282   6.012  0.9344 -1.1435 -0.2048
   25CHL1  H22B 3014   5.080   0.144   6.060 -0.5766 -0.5926 -1.9502
   25CHL1   C23 3015   4.989   0.270   5.901  0.0525  0.0843 -0.0232
   25CHL1  H23A 3016   4.882   0.243   5.916  0.4338 -2.1150 -0.8525
   25CHL1  H23B 3017   4.993   0.376   5.867  0.8312 -0.2045 -0.8705
   25CHL1   C24 3018   5.043   0.182   5.788  0.2962  0.2226 -0.3827
   25CHL1  H24A 3019   5.041   0.073   5.810 -0.0039  0.1801 -0.6188
   25CHL1  H24B 3020   4.986   0.199   5.695 -0.0078  2.2844  0.1398
   25CHL1   C25 3021   5.193   0.217   5.746  0.4285 -0.3187  0.2795
   25CHL1   H25 3022   5.255   0.170   5.825  2.6798 -0.5534 -1.5124
   25CHL1   C26 3023   5.221   0.150   5.605 -0.4476 -0.2323 -0.4819
   25CHL1  H26A 3024   5.160   0.192   5.523 -0.6696  0.8421  0.2064
   25CHL1  H26B 3025   5.327   0.171   5.581 -0.4942  0.5440 -0.0285
   25CHL1  H26C 3026   5.198   0.041   5.611  1.8252 -0.7736 -0.6083
   25CHL1   C27 3027   5.202   0.374   5.723 -0.6289 -0.3217  0.3375
   25CHL1  H27A 3028   5.286   0.396   5.654 -0.3418 -1.4282  0.3117
   25CHL1  H27B 3029   5.113   0.420   5.674  0.3246 -0.1530 -1.2933
   25CHL1  H27C 3030   5.216   0.436   5.814 -2.5573 -1.3866  1.4439
   26CHL1    C3 3031   2.538   4.868   6.704  0.0689  0.6207  0.0961
   26CHL1    H3 3032   2.580   4.962   6.662 -1.7468  0.3624 -2.5362
   26CHL1    O3 3033   2.532   4.869   6.844  0.1991  0.0619  0.4131
   26CHL1   H3' 3034   2.489   4.953   6.858  1.2625  1.0780 -1.9318
   26CHL1    C4 3035   2.400   4.847   6.650  0.2505 -0.0544  0.5744
   26CHL1   H4A 3036   2.351   4.763   6.702 -1.3913 -1.5902 -3.0662
   26CHL1   H4B 3037   2.342   4.941   6.666 -0.5043 -0.1956 -1.1074
   26CHL1    C5 3038   2.380   4.809   6.501  0.3004  0.5690 -0.1031
   26CHL1    C6 3039   2.294   4.874   6.421  0.3056 -0.0247 -0.7364
   26CHL1    H6 3040   2.228   4.953   6.461 -1.5935 -0.9465 -1.9373
   26CHL1    C7 3041   2.270   4.837   6.277 -0.1856 -0.0373  0.8185
   26CHL1   H7A 3042   2.163   4.824   6.248 -0.3992 -1.8722  2.2615
   26CHL1   H7B 3043   2.308   4.921   6.215  0.6120 -1.1054 -0.1738
   26CHL1    C8 3044   2.347   4.711   6.226 -0.2473 -0.6043  0.2806
   26CHL1    H8 3045   2.281   4.622   6.233  1.2433 -1.6284  2.8906
   26CHL1   C14 3046   2.366   4.717   6.071 -0.1956 -0.4245  0.4285
   26CHL1   H14 3047   2.432   4.807   6.066  0.9612 -1.2903 -0.1776
   26CHL1   C15 3048   2.256   4.756   5.973  0.3838  0.8781 -0.7558
   26CHL1  H15A 3049   2.172   4.688   5.999 -0.2619  2.2963  1.0462
   26CHL1  H15B 3050   2.213   4.858   5.985 -0.0744  0.6593 -0.4980
   26CHL1   C16 3051   2.315   4.737   5.830  0.6283  0.2040  0.5125
   26CHL1  H16A 3052   2.247   4.671   5.771  2.2472 -0.2652 -0.9164
   26CHL1  H16B 3053   2.316   4.831   5.772 -1.4112  0.1700  0.3303
   26CHL1   C17 3054   2.455   4.670   5.855 -0.1363  0.1434 -0.3476
   26CHL1   H17 3055   2.526   4.755   5.860 -0.5436  0.4312  0.7693
   26CHL1   C13 3056   2.451   4.615   6.006  0.2328  0.2347  0.3042
   26CHL1   C18 3057   2.375   4.477   5.998 -0.0058 -0.4604  0.3114
   26CHL1  H18A 3058   2.447   4.396   5.973  0.8932  0.2117  0.6673
   26CHL1  H18B 3059   2.352   4.454   6.105  4.7984 -1.0666  1.4448
   26CHL1  H18C 3060   2.286   4.472   5.932 -0.3258  1.3250  0.5539
   26CHL1   C12 3061   2.585   4.604   6.080 -0.3058 -0.6303  0.3778
   26CHL1  H12A 3062   2.660   4.527   6.051  2.3588  2.3891 -1.3189
   26CHL1  H12B 3063   2.646   4.694   6.064  1.3266 -1.7081  0.3345
   26CHL1   C11 3064   2.568   4.583   6.234  0.6598  0.2517  0.1604
   26CHL1  H11A 3065   2.515   4.486   6.249  0.9813  0.1609  0.7472
   26CHL1  H11B 3066   2.671   4.573   6.274  0.6463 -0.1399  0.1060
   26CHL1    C9 3067   2.488   4.699   6.294  0.2545 -0.6508  0.0074
   26CHL1    H9 3068   2.546   4.788   6.263 -1.7131 -0.2179 -2.7248
   26CHL1   C10 3069   2.475   4.696   6.450 -0.0617 -0.3755  0.1595
   26CHL1   C19 3070   2.411   4.565   6.497 -0.0484  1.2595 -0.5074
   26CHL1  H19A 3071   2.407   4.560   6.608 -0.2989 -1.6234 -0.5616
   26CHL1  H19B 3072   2.311   4.542   6.455 -0.2097 -0.7333  0.8314
   26CHL1  H19C 3073   2.487   4.489   6.466 -2.4298 -0.3239 -2.9103
   26CHL1    C1 3074   2.617   4.714   6.510 -0.1510  0.3476 -0.4226
   26CHL1   H1A 3075   2.681   4.625   6.492 -1.9621 -1.1344  0.1494
   26CHL1   H1B 3076   2.665   4.800   6.459  1.0263 -0.8235 -1.3716
   26CHL1    C2 3077   2.622   4.744   6.662 -0.4626 -0.2990 -0.5882
   26CHL1   H2A 3078   2.728   4.754   6.691 -0.6191  2.2163 -0.6637
   26CHL1   H2B 3079   2.580   4.660   6.723 -0.9180  0.1488 -0.2735
   26CHL1   C20 3080   2.489   4.569   5.740 -0.0787 -0.1953  0.6249
   26CHL1   H20 3081   2.404   4.498   5.743  0.6628 -1.2523 -1.3614
   26CHL1   C21 3082   2.625   4.502   5.761  0.4422 -0.1242  0.2324
   26CHL1  H21A 3083   2.652   4.470   5.864  1.0447 -0.4045 -0.0041
   26CHL1  H21B 3084   2.710   4.564   5.724  0.9593 -0.8425  0.1995
   26CHL1  H21C 3085   2.631   4.405   5.707 -1.9898 -0.0403 -0.3110
   26CHL1   C22 3086   2.486   4.631   5.599 -0.3823  0.4694  0.1129
   26CHL1  H22A 3087   2.409   4.708   5.579 -1.6992 -0.9547 -0.4802
   26CHL1  H22B 3088   2.586   4.678   5.582  0.2896  0.0908  2.6100
   26CHL1   C23 3089   2.460   4.529   5.492  0.5449  1.3668 -0.2905
   26CHL1  H23A 3090   2.537   4.449   5.498 -0.4087  0.4260 -0.3126
   26CHL1  H23B 3091   2.360   4.490   5.520  0.8650  0.5227 -0.2919
   26CHL1   C24 3092   2.449   4.582   5.348 -0.4548  0.9166 -0.5440
   26CHL1  H24A 3093   2.402   4.681   5.368 -0.2938  0.7856  0.5931
   26CHL1  H24B 3094   2.550   4.598   5.305 -0.8275  0.3749 -1.6536
   26CHL1   C25 3095   2.370   4.498   5.247 -0.0145 -0.4584  0.0177
   26CHL1   H25 3096   2.420   4.403   5.221 -0.9720 -1.3131  1.2049
   26CHL1   C26 3097   2.234   4.448   5.301 -0.4216  0.6314  0.3265
   26CHL1  H26A 3098   2.192   4.389   5.216 -0.1325 -0.9206  1.2352
   26CHL1  H26B 3099   2.252   4.379   5.386 -2.3589 -0.2609  0.0692
   26CHL1  H26C 3100   2.164   4.532   5.321  0.7267  2.4503 -2.5838
   26CHL1   C27 3101   2.362   4.582   5.110  0.3640  0.8497 -0.2528
   26CHL1  H27A 3102   2.325   4.514   5.030  0.9441 -1.3859  1.2726
   26CHL1  H27B 3103   2.286   4.663   5.107  0.1022  0.6125 -0.1708
   26CHL1  H27C 3104   2.459   4.630   5.087  0.5553  0.2944 -0.6148
   27CHL1    C3 3105   0.456   4.223   6.935 -0.2718 -0.1933  0.3370
   27CHL1    H3 3106   0.368   4.156   6.929 -0.1998 -0.3904  1.2665
   27CHL1    O3 3107   0.461   4.229   7.081 -0.3592  0.1251 -0.2499
   27CHL1   H3' 3108   0.418   4.313   7.101  0.4100  0.3463  0.5364
   27CHL1    C4 3109   0.582   4.173   6.879 -0.1655  0.5073  0.2838
   27CHL1   H4A 3110   0.672   4.230   6.913 -0.3034  0.9213 -0.0347
   27CHL1   H4B 3111   0.594   4.070   6.917  0.6652 -0.3787 -2.1813
   27CHL1    C5 3112   0.578   4.155   6.726  0.0985  0.4250  0.0082
   27CHL1    C6 3113   0.601   4.038   6.666  0.3090  0.0007 -0.0444
   27CHL1    H6 3114   0.637   3.945   6.711 -0.3578 -0.9314 -1.3694
   27CHL1    C7 3115   0.570   4.017   6.523 -0.7938  0.7448 -0.3395
   27CHL1   H7A 3116   0.649   3.951   6.481  0.3802  0.3432  2.2824
   27CHL1   H7B 3117   0.472   3.965   6.521 -1.2648  1.6265 -0.3289
   27CHL1    C8 3118   0.568   4.150   6.441 -0.2815 -0.0294 -0.8590
   27CHL1    H8 3119   0.669   4.195   6.440 -0.9174  1.4478 -1.2036
   27CHL1   C14 3120   0.521   4.127   6.299  0.3441 -0.0571  0.3732
   27CHL1   H14 3121   0.415   4.096   6.299  0.4250 -0.3928 -1.0431
   27CHL1   C15 3122   0.588   4.019   6.221 -0.4339  0.0126  0.2966
   27CHL1  H15A 3123   0.698   4.018   6.235  0.0252 -3.9492 -1.9610
   27CHL1  H15B 3124   0.558   3.917   6.253  2.4171 -1.3567 -1.0252
   27CHL1   C16 3125   0.560   4.052   6.076  0.4515  0.1901  0.5531
   27CHL1  H16A 3126   0.654   4.056   6.016  0.1118  0.1924  0.0204
   27CHL1  H16B 3127   0.503   3.973   6.024 -1.3752  1.2446  0.8789
   27CHL1   C17 3128   0.481   4.188   6.073 -0.1599  0.1191  0.1869
   27CHL1   H17 3129   0.371   4.181   6.086 -0.0267 -1.0866  0.8588
   27CHL1   C13 3130   0.527   4.255   6.214  0.2528  0.1509 -0.4174
   27CHL1   C18 3131   0.667   4.316   6.201  0.2338  0.6045  0.4472
   27CHL1  H18A 3132   0.727   4.237   6.150 -3.3318 -1.1670 -1.3917
   27CHL1  H18B 3133   0.665   4.415   6.152 -1.5133  0.1169 -0.5526
   27CHL1  H18C 3134   0.710   4.340   6.300  2.0013  0.1125 -0.1558
   27CHL1   C12 3135   0.430   4.356   6.286 -0.1199  0.0638 -0.6237
   27CHL1  H12A 3136   0.458   4.450   6.233  3.2427 -0.4974 -0.0559
   27CHL1  H12B 3137   0.325   4.321   6.276  0.2407 -1.3172  0.1454
   27CHL1   C11 3138   0.475   4.386   6.429 -0.1822 -0.0793 -0.6725
   27CHL1  H11A 3139   0.569   4.444   6.425  0.0209 -0.0624  2.2708
   27CHL1  H11B 3140   0.401   4.453   6.478 -0.7080 -1.9634  1.2483
   27CHL1    C9 3141   0.483   4.258   6.509 -0.1186  0.3217  0.4870
   27CHL1    H9 3142   0.385   4.206   6.505 -0.5855  1.2825 -1.4099
   27CHL1   C10 3143   0.525   4.288   6.654  0.2470 -0.0565 -0.7337
   27CHL1   C19 3144   0.646   4.377   6.657  0.0307 -0.3272 -0.3363
   27CHL1  H19A 3145   0.692   4.398   6.756  2.7420  0.3006 -1.6372
   27CHL1  H19B 3146   0.725   4.333   6.593  1.1584 -1.9719  2.0335
   27CHL1  H19C 3147   0.612   4.480   6.632  2.9997  1.2574  1.5717
   27CHL1    C1 3148   0.405   4.356   6.729 -0.5857  0.5295  0.5049
   27CHL1   H1A 3149   0.385   4.459   6.692  0.0943 -0.3701 -2.6257
   27CHL1   H1B 3150   0.312   4.301   6.704  0.2264 -0.9945  0.7122
   27CHL1    C2 3151   0.430   4.361   6.881  0.4024 -0.1936  0.2217
   27CHL1   H2A 3152   0.346   4.411   6.934  1.1782 -1.0961  2.4152
   27CHL1   H2B 3153   0.520   4.422   6.898  0.7193 -0.6227  0.1083
   27CHL1   C20 3154   0.507   4.271   5.942 -0.3843  0.3061  0.0703
   27CHL1   H20 3155   0.613   4.304   5.941  0.0510 -0.8177  2.6027
   27CHL1   C21 3156   0.411   4.393   5.947 -0.8655  0.2252  0.6119
   27CHL1  H21A 3157   0.446   4.452   5.860 -1.5918 -0.5974 -0.2516
   27CHL1  H21B 3158   0.412   4.452   6.041 -4.0104 -1.0875  1.6202
   27CHL1  H21C 3159   0.311   4.357   5.915 -0.6131 -0.7505  0.8782
   27CHL1   C22 3160   0.489   4.184   5.810 -0.0423 -0.0253 -0.4292
   27CHL1  H22A 3161   0.473   4.076   5.831 -0.1889 -0.3074 -1.9263
   27CHL1  H22B 3162   0.400   4.227   5.760  0.9427  1.4087 -1.0121
   27CHL1   C23 3163   0.606   4.198   5.714 -0.5295 -0.5428  0.1280
   27CHL1  H23A 3164   0.630   4.306   5.717  0.5453 -0.7929  1.3680
   27CHL1  H23B 3165   0.688   4.130   5.746  2.2236  3.5535  2.7335
   27CHL1   C24 3166   0.570   4.163   5.577  0.4873  0.2651  0.3519
   27CHL1  H24A 3167   0.534   4.058   5.581 -0.4695  0.6187  2.3395
   27CHL1  H24B 3168   0.489   4.227   5.537 -0.0195 -1.5506 -1.7073
   27CHL1   C25 3169   0.675   4.181   5.470 -0.2571  0.0339 -0.3461
   27CHL1   H25 3170   0.714   4.284   5.481  1.9181 -0.5909 -1.6269
   27CHL1   C26 3171   0.803   4.090   5.493 -1.0203 -0.4275  0.4180
   27CHL1  H26A 3172   0.885   4.097   5.418 -2.9260 -0.1660 -1.7777
   27CHL1  H26B 3173   0.844   4.117   5.592 -1.0884 -0.7858  0.5480
   27CHL1  H26C 3174   0.776   3.983   5.480 -1.4982 -0.1447 -1.2192
   27CHL1   C27 3175   0.619   4.159   5.333  0.6245  0.1066  0.0318
   27CHL1  H27A 3176   0.535   4.230   5.315  0.6005  0.4648  1.4272
   27CHL1  H27B 3177   0.571   4.060   5.321 -0.0531  0.6055 -1.5432
   27CHL1  H27C 3178   0.687   4.168   5.246  0.5044  0.4200 -0.0313
   28CHL1    C3 3179   6.341   3.583   7.202 -0.3857 -0.5124 -0.3038
   28CHL1    H3 3180   6.422   3.508   7.201 -1.7001 -1.9710 -1.0878
   28CHL1    O3 3181   6.296   3.596   7.334 -0.1533 -0.5012  0.4342
   28CHL1   H3' 3182   6.246   3.515   7.350  1.5432 -1.4284  1.2765
   28CHL1    C4 3183   6.371   3.730   7.159 -0.3611  0.2031  0.0111
   28CHL1   H4A 3184   6.291   3.802   7.186  1.4381  0.9854  4.0757
   28CHL1   H4B 3185   6.456   3.775   7.216 -1.5138  0.9868  1.1648
   28CHL1    C5 3186   6.397   3.739   7.011 -0.2605  0.4682  0.1244
   28CHL1    C6 3187   6.509   3.795   6.963 -0.3524 -0.1572 -0.1581
   28CHL1    H6 3188   6.588   3.829   7.032 -0.9810 -1.1663  1.0999
   28CHL1    C7 3189   6.543   3.815   6.818 -0.1115 -0.1048 -0.1834
   28CHL1   H7A 3190   6.595   3.911   6.798 -0.9458  0.0117 -2.0666
   28CHL1   H7B 3191   6.623   3.748   6.781  0.8172  1.0431 -0.2987
   28CHL1    C8 3192   6.415   3.801   6.728 -0.5159  0.1417 -0.6673
   28CHL1    H8 3193   6.348   3.889   6.742  1.1634  1.5796 -1.3337
   28CHL1   C14 3194   6.447   3.793   6.582 -0.2999 -0.0899  0.0327
   28CHL1   H14 3195   6.519   3.711   6.562  1.0833  1.0559  0.2110
   28CHL1   C15 3196   6.525   3.914   6.517 -0.4592  0.0686  0.1214
   28CHL1  H15A 3197   6.493   4.016   6.547  0.7919 -0.0203  1.8549
   28CHL1  H15B 3198   6.634   3.911   6.537 -0.2963 -0.7298 -0.7679
   28CHL1   C16 3199   6.498   3.884   6.366 -0.3491 -0.6913 -0.5531
   28CHL1  H16A 3200   6.446   3.972   6.322 -1.1922  0.0226  1.7353
   28CHL1  H16B 3201   6.593   3.854   6.318  0.0606 -0.6464  0.2052
   28CHL1   C17 3202   6.399   3.766   6.349  0.2338 -0.3491  0.2326
   28CHL1   H17 3203   6.463   3.675   6.346  1.4048  0.4648 -0.1165
   28CHL1   C13 3204   6.327   3.764   6.485 -0.1435 -0.4479 -0.7237
   28CHL1   C18 3205   6.226   3.876   6.487  1.0307 -0.3199  0.2629
   28CHL1  H18A 3206   6.146   3.845   6.416  0.8205 -1.6431  1.0358
   28CHL1  H18B 3207   6.177   3.882   6.586  0.7502 -2.1246  0.2714
   28CHL1  H18C 3208   6.266   3.977   6.464 -0.0998  0.9570  3.3870
   28CHL1   C12 3209   6.249   3.632   6.533 -0.2371 -0.4101 -0.6268
   28CHL1  H12A 3210   6.151   3.631   6.482 -0.9168  0.5074  0.6120
   28CHL1  H12B 3211   6.312   3.542   6.514  0.0426 -0.2455 -0.4834
   28CHL1   C11 3212   6.211   3.637   6.685 -0.1287  0.6035 -0.1193
   28CHL1  H11A 3213   6.123   3.705   6.693 -0.6509 -0.1153  0.3800
   28CHL1  H11B 3214   6.180   3.533   6.711 -0.9822  0.9482  0.2896
   28CHL1    C9 3215   6.337   3.675   6.773 -0.0994 -0.9573  0.4251
   28CHL1    H9 3216   6.412   3.596   6.751  2.5116  1.2841  0.7970
   28CHL1   C10 3217   6.290   3.678   6.917 -0.0118  0.0815 -0.5708
   28CHL1   C19 3218   6.158   3.762   6.932  0.1950 -0.5392 -0.0046
   28CHL1  H19A 3219   6.153   3.858   6.876 -0.9675 -1.3132 -1.3154
   28CHL1  H19B 3220   6.069   3.707   6.895  0.0330  0.7087 -1.6337
   28CHL1  H19C 3221   6.139   3.784   7.039 -0.6855 -1.3870  0.0295
   28CHL1    C1 3222   6.251   3.535   6.969  0.0006  0.5973 -0.3762
   28CHL1   H1A 3223   6.162   3.498   6.913  0.8717  0.3645 -1.6490
   28CHL1   H1B 3224   6.330   3.462   6.941  0.5101  0.4989  1.2160
   28CHL1    C2 3225   6.232   3.520   7.119 -0.1521  0.6524 -0.7164
   28CHL1   H2A 3226   6.210   3.414   7.144  0.2909  0.3851 -1.4324
   28CHL1   H2B 3227   6.143   3.582   7.144  0.6871  1.3874  0.5991
   28CHL1   C20 3228   6.315   3.765   6.219 -0.0807 -0.1962 -0.2859
   28CHL1   H20 3229   6.233   3.840   6.219  0.5734  0.5653 -1.9328
   28CHL1   C21 3230   6.273   3.623   6.198 -0.5631  0.3252 -0.1826
   28CHL1  H21A 3231   6.194   3.606   6.122  0.4074 -1.9881 -0.7787
   28CHL1  H21B 3232   6.235   3.573   6.290  0.1579  0.4473  0.1903
   28CHL1  H21C 3233   6.356   3.559   6.161 -0.4127 -0.8029  1.9426
   28CHL1   C22 3234   6.396   3.807   6.097  0.1677 -0.4518  0.4378
   28CHL1  H22A 3235   6.453   3.901   6.109 -0.5301  0.0418 -0.0542
   28CHL1  H22B 3236   6.476   3.733   6.076  1.6627  0.6060  2.2110
   28CHL1   C23 3237   6.316   3.837   5.973 -0.1155  0.0076  0.3142
   28CHL1  H23A 3238   6.267   3.740   5.947  0.7490 -0.6385  1.0500
   28CHL1  H23B 3239   6.237   3.906   6.011 -0.0804 -0.1246  0.6229
   28CHL1   C24 3240   6.399   3.890   5.857 -0.3144 -0.0471  0.3523
   28CHL1  H24A 3241   6.345   3.923   5.766  1.1722  2.1965  0.1769
   28CHL1  H24B 3242   6.448   3.981   5.899  0.3303 -0.9549  1.6506
   28CHL1   C25 3243   6.510   3.797   5.800  0.1212  0.2380  0.7842
   28CHL1   H25 3244   6.580   3.767   5.881  1.0463 -0.2096 -0.1662
   28CHL1   C26 3245   6.457   3.671   5.733  0.1012 -0.4534 -0.8374
   28CHL1  H26A 3246   6.534   3.607   5.686 -0.3177 -2.3529  0.9290
   28CHL1  H26B 3247   6.400   3.615   5.811  1.0995  0.8200  0.8998
   28CHL1  H26C 3248   6.382   3.705   5.659  0.8564  0.7246 -1.0995
   28CHL1   C27 3249   6.588   3.871   5.689 -0.3637 -0.0153  0.3201
   28CHL1  H27A 3250   6.528   3.927   5.614  1.6492  0.3797 -1.0805
   28CHL1  H27B 3251   6.661   3.944   5.730 -1.1339  1.9609 -1.5816
   28CHL1  H27C 3252   6.651   3.800   5.631  0.2806 -0.2159  1.2447
   29CHL1    C3 3253   1.100   5.269   6.752  0.8505  0.2270  0.1513
   29CHL1    H3 3254   1.147   5.174   6.718 -1.9499 -1.3099  0.1881
   29CHL1    O3 3255   1.124   5.293   6.892  0.3405 -0.2509  0.3118
   29CHL1   H3' 3256   1.088   5.211   6.926  0.2056  0.6930  2.5901
   29CHL1    C4 3257   1.143   5.394   6.674 -0.1005 -0.5688  0.0283
   29CHL1   H4A 3258   1.083   5.480   6.711  1.0200  0.4708 -0.4978
   29CHL1   H4B 3259   1.248   5.414   6.705 -1.0306  0.2095  3.0020
   29CHL1    C5 3260   1.123   5.366   6.526  0.4467 -0.4000  0.2045
   29CHL1    C6 3261   1.223   5.370   6.439  0.1825 -0.2706  0.7116
   29CHL1    H6 3262   1.325   5.397   6.469  0.3396  2.8994 -2.1502
   29CHL1    C7 3263   1.216   5.352   6.289  0.4367 -0.1668  0.2122
   29CHL1   H7A 3264   1.267   5.442   6.246 -0.5185  0.9097  1.2542
   29CHL1   H7B 3265   1.285   5.270   6.259  2.4340  1.4874 -0.0004
   29CHL1    C8 3266   1.074   5.354   6.240  0.1328 -0.1312 -0.0090
   29CHL1    H8 3267   1.042   5.460   6.243 -0.2952 -0.0677 -3.1463
   29CHL1   C14 3268   1.059   5.306   6.097  0.6226  0.0515 -0.2923
   29CHL1   H14 3269   1.091   5.200   6.098 -2.3813 -0.9815 -1.7445
   29CHL1   C15 3270   1.151   5.363   5.992 -0.4475 -0.1220 -0.8580
   29CHL1  H15A 3271   1.184   5.466   6.018 -0.4966  0.1130 -1.6784
   29CHL1  H15B 3272   1.241   5.299   5.982  0.4100  0.6854  1.1183
   29CHL1   C16 3273   1.067   5.355   5.862 -0.4965  0.8062 -0.0683
   29CHL1  H16A 3274   1.039   5.454   5.820 -0.3909  0.0406 -2.0778
   29CHL1  H16B 3275   1.124   5.312   5.777 -0.6518  2.3759 -1.0171
   29CHL1   C17 3276   0.940   5.275   5.897  0.1413 -0.2654  0.3270
   29CHL1   H17 3277   0.967   5.167   5.888  0.7667 -0.1622  0.9232
   29CHL1   C13 3278   0.919   5.315   6.043  0.0367 -0.3474 -0.2002
   29CHL1   C18 3279   0.857   5.460   6.037  0.3894  0.2592  0.0493
   29CHL1  H18A 3280   0.872   5.516   6.132 -1.1633  0.3752  0.2613
   29CHL1  H18B 3281   0.911   5.518   5.959  0.3895  1.1093  0.6659
   29CHL1  H18C 3282   0.749   5.457   6.008  0.1988  0.1893  0.7481
   29CHL1   C12 3283   0.837   5.223   6.128  0.6303 -1.1167 -0.5101
   29CHL1  H12A 3284   0.729   5.214   6.102  0.2765 -1.3265  0.9132
   29CHL1  H12B 3285   0.887   5.124   6.133  0.6761 -1.1228 -1.0289
   29CHL1   C11 3286   0.832   5.267   6.282  0.3414  0.2779  0.5667
   29CHL1  H11A 3287   0.777   5.364   6.281 -1.5443 -0.7208 -1.4648
   29CHL1  H11B 3288   0.769   5.199   6.344 -0.1460 -0.3304 -0.5772
   29CHL1    C9 3289   0.976   5.282   6.334  0.1716 -0.2313 -0.4546
   29CHL1    H9 3290   1.014   5.178   6.326 -1.7227 -0.9309 -0.8652
   29CHL1   C10 3291   0.980   5.339   6.486  0.2048 -0.3996 -0.5545
   29CHL1   C19 3292   0.890   5.466   6.505  0.3164  0.0975 -0.0880
   29CHL1  H19A 3293   0.945   5.547   6.453  0.6243 -2.1404 -3.5522
   29CHL1  H19B 3294   0.791   5.448   6.457  0.9571  1.2276 -1.9274
   29CHL1  H19C 3295   0.865   5.495   6.610 -0.9753 -0.0685 -0.3361
   29CHL1    C1 3296   0.920   5.223   6.578  0.5314 -0.1709  0.5507
   29CHL1   H1A 3297   0.810   5.210   6.564  0.2600  0.8967  1.5280
   29CHL1   H1B 3298   0.956   5.120   6.557 -0.1382 -0.5149  1.0312
   29CHL1    C2 3299   0.947   5.245   6.731  0.7020  0.7746 -0.8138
   29CHL1   H2A 3300   0.915   5.156   6.789  0.1194  0.5607 -1.4568
   29CHL1   H2B 3301   0.900   5.339   6.766  0.8138  0.3503  0.5356
   29CHL1   C20 3302   0.831   5.297   5.789  0.7618  0.2470  0.2066
   29CHL1   H20 3303   0.787   5.399   5.797 -2.2256 -0.7735 -1.6577
   29CHL1   C21 3304   0.714   5.206   5.811  1.1819 -0.2939  0.0220
   29CHL1  H21A 3305   0.746   5.101   5.829  1.0631 -0.3824 -0.2739
   29CHL1  H21B 3306   0.648   5.198   5.722  1.9635 -1.5722 -0.4651
   29CHL1  H21C 3307   0.658   5.233   5.903  2.2108  0.7177  0.3705
   29CHL1   C22 3308   0.866   5.288   5.637  0.4866  0.3975  0.3847
   29CHL1  H22A 3309   0.783   5.315   5.569  2.2201  1.6726 -1.3529
   29CHL1  H22B 3310   0.955   5.353   5.620 -1.3374  2.6260 -1.3869
   29CHL1   C23 3311   0.904   5.144   5.602 -0.1793 -0.7544  0.0212
   29CHL1  H23A 3312   0.976   5.114   5.680 -0.9823 -1.1407  0.6330
   29CHL1  H23B 3313   0.814   5.080   5.613 -0.4903 -0.2486  0.4968
   29CHL1   C24 3314   0.984   5.135   5.466  0.0390  0.2037 -0.2647
   29CHL1  H24A 3315   0.922   5.183   5.388 -1.6312 -2.9284 -1.0096
   29CHL1  H24B 3316   1.075   5.199   5.471  1.8710 -2.2931  0.5889
   29CHL1   C25 3317   1.031   4.999   5.411 -0.0391  0.2022  0.1452
   29CHL1   H25 3318   1.105   4.954   5.480 -1.4545  0.6018  2.0019
   29CHL1   C26 3319   0.911   4.906   5.390 -0.0854  0.0371 -0.6118
   29CHL1  H26A 3320   0.859   4.890   5.486 -2.0959  0.5471 -1.5690
   29CHL1  H26B 3321   0.839   4.958   5.323  1.6518  0.5153 -2.2029
   29CHL1  H26C 3322   0.939   4.804   5.355  0.4417  0.3458 -1.1263
   29CHL1   C27 3323   1.112   5.021   5.278  0.7276 -0.3996  1.2247
   29CHL1  H27A 3324   1.050   5.049   5.191  1.9895 -2.6510 -0.5299
   29CHL1  H27B 3325   1.186   5.101   5.299  0.0470  0.0190  2.1399
   29CHL1  H27C 3326   1.161   4.924   5.252 -2.4368 -1.4849 -1.4066
   30CHL1    C3 3327   2.266   5.783   6.704  0.2728  0.7122  0.2412
   30CHL1    H3 3328   2.375   5.793   6.687  0.3036 -2.0127 -2.0293
   30CHL1    O3 3329   2.229   5.801   6.841  0.1313  0.4201 -0.4172
   30CHL1   H3' 3330   2.220   5.896   6.853  2.3193  0.8925 -2.0175
   30CHL1    C4 3331   2.197   5.887   6.618  0.4049 -0.2973  0.7337
   30CHL1   H4A 3332   2.091   5.857   6.626  0.1187  0.6989  0.7265
   30CHL1   H4B 3333   2.202   5.988   6.665 -0.1156  0.2924 -0.4446
   30CHL1    C5 3334   2.237   5.865   6.475 -0.3656  0.6709 -0.2507
   30CHL1    C6 3335   2.305   5.952   6.406  0.0547 -0.1213 -0.1249
   30CHL1    H6 3336   2.330   6.047   6.456  0.7748 -0.7037  0.6653
   30CHL1    C7 3337   2.339   5.931   6.266  0.2283  0.2998  0.0429
   30CHL1   H7A 3338   2.315   6.023   6.210 -0.6817 -0.1568 -0.3223
   30CHL1   H7B 3339   2.448   5.911   6.256  0.5352  1.8632 -0.0784
   30CHL1    C8 3340   2.253   5.820   6.193  0.5096  0.4181  0.0592
   30CHL1    H8 3341   2.155   5.865   6.164  0.7845  0.2517 -1.1632
   30CHL1   C14 3342   2.313   5.781   6.061 -0.0638  0.8996  1.2047
   30CHL1   H14 3343   2.411   5.742   6.098 -1.1163 -2.2383  1.0231
   30CHL1   C15 3344   2.342   5.895   5.968 -0.1863  0.0133 -0.3285
   30CHL1  H15A 3345   2.252   5.959   5.959 -0.0332  0.2668 -0.0594
   30CHL1  H15B 3346   2.425   5.962   5.998 -1.2432  1.1807  0.0616
   30CHL1   C16 3347   2.369   5.816   5.832 -0.7538  0.1580  0.1531
   30CHL1  H16A 3348   2.319   5.877   5.754 -0.6501 -2.3615 -2.0192
   30CHL1  H16B 3349   2.480   5.820   5.822 -0.7624 -0.2599 -0.1226
   30CHL1   C17 3350   2.329   5.668   5.851  0.0996  0.0360 -0.0793
   30CHL1   H17 3351   2.421   5.608   5.871 -0.9036 -1.4948  0.1440
   30CHL1   C13 3352   2.247   5.663   5.984 -0.0263  0.5963  0.5433
   30CHL1   C18 3353   2.106   5.695   5.939 -0.5890 -0.4086 -0.3046
   30CHL1  H18A 3354   2.038   5.734   6.018 -1.1977  0.3026 -1.1584
   30CHL1  H18B 3355   2.100   5.776   5.863 -1.0272 -0.1830 -0.0341
   30CHL1  H18C 3356   2.049   5.607   5.904 -3.7966  1.6628 -0.6455
   30CHL1   C12 3357   2.243   5.531   6.067  0.0587 -0.3736  0.6580
   30CHL1  H12A 3358   2.201   5.445   6.011 -0.3927  1.0202 -1.2472
   30CHL1  H12B 3359   2.352   5.510   6.081  0.9931  1.3300 -2.8086
   30CHL1   C11 3360   2.174   5.574   6.200 -0.1877 -0.8245 -1.0451
   30CHL1  H11A 3361   2.069   5.601   6.179 -0.1174  1.5541  1.1495
   30CHL1  H11B 3362   2.162   5.488   6.269 -2.4051  1.7265  2.0838
   30CHL1    C9 3363   2.248   5.691   6.282  0.5970  0.3987  0.2110
   30CHL1    H9 3364   2.350   5.649   6.297  1.4734  2.2856 -0.0772
   30CHL1   C10 3365   2.198   5.715   6.422  0.5100 -0.5909 -0.0771
   30CHL1   C19 3366   2.043   5.705   6.417  0.4326  0.3397  0.1908
   30CHL1  H19A 3367   1.996   5.719   6.516  0.3681 -1.3470  0.4175
   30CHL1  H19B 3368   2.010   5.787   6.350  0.3772 -0.5159 -0.8683
   30CHL1  H19C 3369   2.010   5.602   6.390 -0.0832  0.1807  1.3734
   30CHL1    C1 3370   2.264   5.607   6.518  0.0480  0.1169 -0.0178
   30CHL1   H1A 3371   2.228   5.506   6.488  0.4151  0.1927 -0.7239
   30CHL1   H1B 3372   2.374   5.614   6.507  0.1115  2.9928  1.3787
   30CHL1    C2 3373   2.239   5.636   6.671  0.1405 -0.6395  0.0735
   30CHL1   H2A 3374   2.311   5.568   6.722  1.0336  0.5183  0.4185
   30CHL1   H2B 3375   2.134   5.611   6.696 -0.0910  0.0674 -0.1694
   30CHL1   C20 3376   2.269   5.599   5.717  0.3870  0.3167 -0.3150
   30CHL1   H20 3377   2.169   5.647   5.708  0.6543  0.6947 -1.3594
   30CHL1   C21 3378   2.251   5.446   5.735 -0.5673  0.3518 -0.0994
   30CHL1  H21A 3379   2.345   5.392   5.759  0.7632  1.3081 -2.6915
   30CHL1  H21B 3380   2.221   5.392   5.642  2.1366 -2.5014  0.5121
   30CHL1  H21C 3381   2.173   5.437   5.814 -0.4309  0.8723  0.0958
   30CHL1   C22 3382   2.334   5.633   5.587  0.7663 -0.3310  0.2099
   30CHL1  H22A 3383   2.254   5.613   5.512 -1.4320 -0.1685  2.3824
   30CHL1  H22B 3384   2.342   5.743   5.592  1.9543 -0.4530  1.1950
   30CHL1   C23 3385   2.462   5.562   5.567 -0.0762 -0.1756  0.3168
   30CHL1  H23A 3386   2.521   5.574   5.660 -0.4835 -3.4644  1.1307
   30CHL1  H23B 3387   2.442   5.452   5.566 -1.9351  0.1390  0.0213
   30CHL1   C24 3388   2.538   5.615   5.441  0.5342  0.4867  0.5122
   30CHL1  H24A 3389   2.482   5.570   5.356 -0.5162  0.5330  1.1534
   30CHL1  H24B 3390   2.542   5.725   5.434 -0.6290  0.4968 -0.3247
   30CHL1   C25 3391   2.674   5.547   5.432 -0.6892 -0.3635 -0.3212
   30CHL1   H25 3392   2.658   5.438   5.450 -2.6711 -0.1355 -0.5174
   30CHL1   C26 3393   2.729   5.556   5.289  0.1665  0.7593  0.2319
   30CHL1  H26A 3394   2.814   5.485   5.280 -0.4495 -0.1312  1.1132
   30CHL1  H26B 3395   2.663   5.520   5.207 -1.6750  1.7697  1.1881
   30CHL1  H26C 3396   2.759   5.659   5.261  1.6863  0.1450 -0.4708
   30CHL1   C27 3397   2.770   5.602   5.540  0.2742 -0.1839 -0.0702
   30CHL1  H27A 3398   2.772   5.711   5.524 -1.6188 -0.2832 -1.3328
   30CHL1  H27B 3399   2.720   5.594   5.640  3.4545  0.1550  1.6695
   30CHL1  H27C 3400   2.872   5.559   5.549 -0.4706 -1.7650  1.4386
   31CHL1    C3 3401   1.206   5.795   6.793  0.7894 -0.2481 -0.2390
   31CHL1    H3 3402   1.209   5.687   6.765 -0.1970  0.1567 -2.1030
   31CHL1    O3 3403   1.200   5.790   6.934 -0.1665 -0.3091  0.7354
   31CHL1   H3' 3404   1.188   5.882   6.958 -1.2118 -0.0785 -0.5012
   31CHL1    C4 3405   1.327   5.859   6.737  0.3935  0.3207 -0.1515
   31CHL1   H4A 3406   1.341   5.968   6.752 -0.3780 -0.0044  4.1908
   31CHL1   H4B 3407   1.417   5.821   6.791 -1.8592 -0.7991  3.1471
   31CHL1    C5 3408   1.322   5.837   6.585 -0.0417 -0.0397  0.1892
   31CHL1    C6 3409   1.426   5.776   6.526  0.3493  0.5617  0.1663
   31CHL1    H6 3410   1.516   5.740   6.577 -0.8843 -0.3089  1.8297
   31CHL1    C7 3411   1.433   5.759   6.375  0.3807  0.0295  0.3377
   31CHL1   H7A 3412   1.532   5.793   6.338 -1.4674  2.5574 -2.7996
   31CHL1   H7B 3413   1.405   5.654   6.349  1.8798 -0.3710  0.2232
   31CHL1    C8 3414   1.319   5.840   6.300  0.0073  0.7910 -0.4701
   31CHL1    H8 3415   1.356   5.944   6.308 -0.0616  0.7595  0.2962
   31CHL1   C14 3416   1.328   5.782   6.159  0.2847  0.3107  0.0618
   31CHL1   H14 3417   1.300   5.675   6.167  1.5765  0.0035  0.7465
   31CHL1   C15 3418   1.461   5.789   6.087 -0.2770  0.1844 -0.3498
   31CHL1  H15A 3419   1.501   5.890   6.108  2.9888 -1.2716  1.1768
   31CHL1  H15B 3420   1.535   5.714   6.123 -0.4999 -1.0700 -2.3559
   31CHL1   C16 3421   1.427   5.767   5.936 -1.0322 -0.1628 -0.2850
   31CHL1  H16A 3422   1.454   5.859   5.881 -2.5398  0.4049 -0.1258
   31CHL1  H16B 3423   1.474   5.672   5.901  0.1111  0.1309  0.3782
   31CHL1   C17 3424   1.271   5.765   5.932 -0.3645 -0.1909  0.2441
   31CHL1   H17 3425   1.236   5.659   5.938 -2.0882  0.2640 -0.9358
   31CHL1   C13 3426   1.227   5.840   6.060 -0.8154  0.1303 -0.3358
   31CHL1   C18 3427   1.226   5.993   6.041 -0.5147 -0.8830  0.1037
   31CHL1  H18A 3428   1.322   6.020   5.992 -0.8034  0.7930  0.3762
   31CHL1  H18B 3429   1.148   6.026   5.970  0.1239 -0.7041 -0.5317
   31CHL1  H18C 3430   1.205   6.055   6.131  1.0355 -0.8864  0.4984
   31CHL1   C12 3431   1.092   5.807   6.119  0.4810  0.8170  0.0889
   31CHL1  H12A 3432   1.015   5.852   6.053  1.4578  2.1082 -0.2053
   31CHL1  H12B 3433   1.079   5.697   6.117 -3.1241  1.1193 -3.1776
   31CHL1   C11 3434   1.068   5.865   6.261  0.0624  0.8208 -0.1458
   31CHL1  H11A 3435   1.064   5.976   6.261  1.1282  0.8835  1.1352
   31CHL1  H11B 3436   0.968   5.828   6.294  0.8401 -0.7985  0.4942
   31CHL1    C9 3437   1.182   5.822   6.365  0.9399 -0.1556  0.1971
   31CHL1    H9 3438   1.172   5.711   6.374 -1.1128  0.0524  1.1544
   31CHL1   C10 3439   1.188   5.883   6.510 -0.4233 -0.3699 -0.1615
   31CHL1   C19 3440   1.174   6.038   6.505 -0.1816  0.2506  0.3132
   31CHL1  H19A 3441   1.224   6.082   6.415 -1.5492  2.8598  0.7114
   31CHL1  H19B 3442   1.067   6.066   6.515  0.6092  3.0870  2.0366
   31CHL1  H19C 3443   1.228   6.087   6.589  3.5204 -0.9026 -1.1920
   31CHL1    C1 3444   1.062   5.830   6.593  0.4746 -0.0412  0.4575
   31CHL1   H1A 3445   0.972   5.872   6.543  2.9757 -0.7116 -5.4927
   31CHL1   H1B 3446   1.043   5.721   6.581  1.3598 -0.3318  1.5079
   31CHL1    C2 3447   1.077   5.859   6.739  0.0021  0.0527 -0.3401
   31CHL1   H2A 3448   0.988   5.819   6.791 -2.3528  0.0285 -4.0071
   31CHL1   H2B 3449   1.088   5.969   6.752 -0.3349 -0.0994  1.4138
   31CHL1   C20 3450   1.220   5.816   5.795  0.0267 -0.4309  0.2758
   31CHL1   H20 3451   1.248   5.923   5.784  0.0993 -0.5609 -0.9301
   31CHL1   C21 3452   1.066   5.806   5.782 -0.4489  0.1716 -0.1366
   31CHL1  H21A 3453   1.017   5.898   5.821  1.9052  1.0573  0.9827
   31CHL1  H21B 3454   1.012   5.720   5.827 -1.3070  0.6953 -0.1413
   31CHL1  H21C 3455   1.037   5.796   5.676 -0.6196 -1.3011  0.0296
   31CHL1   C22 3456   1.288   5.751   5.675  0.4830 -0.4328 -0.9705
   31CHL1  H22A 3457   1.250   5.781   5.574 -0.7053 -2.4672 -1.1697
   31CHL1  H22B 3458   1.393   5.788   5.671 -0.4385  2.5825  0.0089
   31CHL1   C23 3459   1.293   5.588   5.678 -0.8061 -0.3119 -0.1774
   31CHL1  H23A 3460   1.360   5.547   5.756 -0.6268 -1.8870 -1.1285
   31CHL1  H23B 3461   1.190   5.546   5.681 -1.2511  0.2890 -3.4626
   31CHL1   C24 3462   1.339   5.536   5.537  0.0479 -0.1545 -0.5268
   31CHL1  H24A 3463   1.275   5.584   5.460  0.1409  0.2132 -0.3747
   31CHL1  H24B 3464   1.445   5.564   5.521  0.4569  0.2124  2.2984
   31CHL1   C25 3465   1.325   5.383   5.522  0.1418 -0.4129 -0.2561
   31CHL1   H25 3466   1.217   5.355   5.516  0.7737 -2.9568 -0.6389
   31CHL1   C26 3467   1.391   5.335   5.393  0.7383 -0.4771 -0.3817
   31CHL1  H26A 3468   1.500   5.325   5.410  0.9591  1.3344 -0.5546
   31CHL1  H26B 3469   1.354   5.235   5.363 -2.3290  1.0599 -2.3385
   31CHL1  H26C 3470   1.358   5.407   5.314 -1.0934 -0.3811  0.4169
   31CHL1   C27 3471   1.386   5.302   5.638  0.1547  0.7039  0.1402
   31CHL1  H27A 3472   1.345   5.339   5.734 -0.3184  0.3233  0.0867
   31CHL1  H27B 3473   1.364   5.193   5.632  0.9863  0.4436  1.2699
   31CHL1  H27C 3474   1.497   5.301   5.645  0.2440  3.1283 -0.1247
   32CHL1    C3 3475   2.686   3.942   6.947  0.0778  0.7166  0.4319
   32CHL1    H3 3476   2.776   3.994   6.908 -0.1708  0.6779 -0.2066
   32CHL1    O3 3477   2.675   3.933   7.089  0.4089  0.6909  0.1614
   32CHL1   H3' 3478   2.650   4.016   7.130 -1.0044 -0.9183  2.8773
   32CHL1    C4 3479   2.565   4.019   6.884  0.6913 -0.4350 -0.1527
   32CHL1   H4A 3480   2.473   3.965   6.914  0.4359 -1.6920 -2.9148
   32CHL1   H4B 3481   2.563   4.121   6.929  0.5740 -1.9021  3.5541
   32CHL1    C5 3482   2.572   4.039   6.733  0.5139  0.5030  0.4660
   32CHL1    C6 3483   2.574   4.160   6.678  0.3748 -0.3638 -0.1412
   32CHL1    H6 3484   2.551   4.247   6.741  0.6097  1.2266 -2.1561
   32CHL1    C7 3485   2.587   4.188   6.531 -0.1041  0.1828  0.1863
   32CHL1   H7A 3486   2.511   4.265   6.505  1.4895  2.2178  1.1762
   32CHL1   H7B 3487   2.678   4.252   6.522 -1.6131  2.7329  1.6903
   32CHL1    C8 3488   2.587   4.054   6.447  1.3174 -0.1192  0.3425
   32CHL1    H8 3489   2.479   4.038   6.424  1.3388  0.7423 -0.4411
   32CHL1   C14 3490   2.658   4.082   6.317 -0.6142 -1.2397  0.0093
   32CHL1   H14 3491   2.763   4.117   6.330  0.7863 -4.8436 -0.3581
   32CHL1   C15 3492   2.592   4.198   6.244  1.6999 -0.4023  0.4863
   32CHL1  H15A 3493   2.482   4.197   6.256  1.5663  1.0860 -0.3866
   32CHL1  H15B 3494   2.623   4.300   6.277 -1.6221  0.6436  0.7242
   32CHL1   C16 3495   2.635   4.183   6.097 -0.2228  0.0379  0.0008
   32CHL1  H16A 3496   2.546   4.176   6.030  0.5722  0.1626 -1.1060
   32CHL1  H16B 3497   2.701   4.263   6.059 -0.2500 -0.1669 -0.4898
   32CHL1   C17 3498   2.718   4.054   6.092 -0.1305  0.7245  1.0647
   32CHL1   H17 3499   2.820   4.089   6.118  0.5017  0.0617 -0.4367
   32CHL1   C13 3500   2.667   3.971   6.211 -0.2880 -0.3455 -0.1267
   32CHL1   C18 3501   2.525   3.920   6.184  0.1113  0.6500 -0.3357
   32CHL1  H18A 3502   2.454   3.996   6.145 -1.3128 -0.2918  0.3231
   32CHL1  H18B 3503   2.532   3.833   6.115 -2.8520  1.0902 -1.3569
   32CHL1  H18C 3504   2.473   3.867   6.266  0.5293 -1.1361 -1.1632
   32CHL1   C12 3505   2.748   3.858   6.283  1.0574  0.0177  0.3427
   32CHL1  H12A 3506   2.737   3.760   6.231 -1.8325  0.0756  0.6538
   32CHL1  H12B 3507   2.853   3.893   6.282  0.6753  1.2370 -1.2684
   32CHL1   C11 3508   2.701   3.828   6.423  0.6206  0.6454 -0.1576
   32CHL1  H11A 3509   2.616   3.757   6.414 -0.3945  2.0431 -2.5268
   32CHL1  H11B 3510   2.788   3.768   6.459  0.7046  0.1201 -1.1915
   32CHL1    C9 3511   2.667   3.953   6.511 -0.2420 -0.1312  0.2005
   32CHL1    H9 3512   2.764   4.000   6.537  0.0122 -0.6255  0.1488
   32CHL1   C10 3513   2.604   3.914   6.651 -0.3902 -0.5007  0.3623
   32CHL1   C19 3514   2.464   3.854   6.645  0.4521 -0.3485  0.6175
   32CHL1  H19A 3515   2.432   3.819   6.745 -1.4811  0.5157  0.3314
   32CHL1  H19B 3516   2.383   3.919   6.608 -0.0617 -1.7355 -0.8098
   32CHL1  H19C 3517   2.452   3.756   6.594 -2.3308 -0.8067  1.9726
   32CHL1    C1 3518   2.692   3.806   6.723 -0.5379  0.3640  0.1623
   32CHL1   H1A 3519   2.669   3.701   6.695 -1.0207  0.1528  1.2969
   32CHL1   H1B 3520   2.795   3.825   6.686 -0.7170  2.2725  0.5731
   32CHL1    C2 3521   2.681   3.803   6.876  0.2564  0.7338 -0.2765
   32CHL1   H2A 3522   2.762   3.738   6.916 -1.1856 -1.4965 -0.7702
   32CHL1   H2B 3523   2.581   3.766   6.906 -0.6971  0.5034 -3.3832
   32CHL1   C20 3524   2.721   3.977   5.959  0.3727  0.0856 -0.7382
   32CHL1   H20 3525   2.630   3.914   5.949 -0.5902  0.8197  2.4114
   32CHL1   C21 3526   2.843   3.883   5.951 -1.3534  0.2020 -0.9456
   32CHL1  H21A 3527   2.862   3.821   6.041  1.0785  4.0326  1.4868
   32CHL1  H21B 3528   2.933   3.947   5.958 -0.5524 -0.9975  0.3605
   32CHL1  H21C 3529   2.840   3.818   5.861  0.1398 -1.0788 -0.1197
   32CHL1   C22 3530   2.717   4.055   5.822 -0.4621 -0.3084 -0.2515
   32CHL1  H22A 3531   2.619   4.106   5.815  0.1938  0.7624 -3.3100
   32CHL1  H22B 3532   2.792   4.134   5.844 -0.4504 -0.3126 -0.2760
   32CHL1   C23 3533   2.747   3.992   5.688 -0.0538 -0.9047 -0.3515
   32CHL1  H23A 3534   2.851   3.954   5.686  0.0161 -0.6991 -1.2352
   32CHL1  H23B 3535   2.669   3.913   5.683 -0.0238 -0.9608  0.0876
   32CHL1   C24 3536   2.731   4.094   5.576 -0.1262 -0.1097  0.2096
   32CHL1  H24A 3537   2.627   4.129   5.565 -1.3903 -3.8077 -1.5037
   32CHL1  H24B 3538   2.805   4.176   5.589  1.3639 -0.6222 -3.5497
   32CHL1   C25 3539   2.762   4.040   5.428  0.1365 -0.5337 -0.0529
   32CHL1   H25 3540   2.738   4.132   5.371 -1.4410 -1.7739 -1.4800
   32CHL1   C26 3541   2.916   4.019   5.387  0.0576  0.5784 -0.0213
   32CHL1  H26A 3542   2.960   3.936   5.446 -1.0183  1.2425  1.8019
   32CHL1  H26B 3543   2.920   4.001   5.277  1.2955  0.3981  0.0330
   32CHL1  H26C 3544   2.970   4.105   5.433  0.3591  0.9918 -1.1076
   32CHL1   C27 3545   2.675   3.917   5.389  0.0646 -0.3909 -0.1819
   32CHL1  H27A 3546   2.690   3.895   5.281  2.3165 -0.7491  0.1533
   32CHL1  H27B 3547   2.698   3.822   5.441  2.1151  0.1015 -0.1173
   32CHL1  H27C 3548   2.568   3.944   5.397  0.9621  4.5198 -1.3588
   33CHL1    C3 3549   0.779   3.781   6.998  0.9983 -0.3600  0.2980
   33CHL1    H3 3550   0.741   3.862   6.933  0.1316 -0.0409  1.1740
   33CHL1    O3 3551   0.759   3.828   7.132 -0.4936 -0.3863 -0.0229
   33CHL1   H3' 3552   0.837   3.808   7.184 -0.2848  0.9459  0.2022
   33CHL1    C4 3553   0.674   3.663   6.978  0.8569 -0.7105  0.2430
   33CHL1   H4A 3554   0.704   3.576   7.040 -2.3034 -1.8743  0.2988
   33CHL1   H4B 3555   0.575   3.701   7.011 -0.2308 -1.2202 -2.2366
   33CHL1    C5 3556   0.673   3.625   6.835  0.1524 -0.1267 -0.3905
   33CHL1    C6 3557   0.556   3.631   6.766 -0.2947  0.5094  0.6748
   33CHL1    H6 3558   0.467   3.668   6.818  0.4998 -0.3126  2.7491
   33CHL1    C7 3559   0.554   3.611   6.623  0.2680 -0.1203 -0.5940
   33CHL1   H7A 3560   0.463   3.556   6.591  0.3304 -1.2798  1.1326
   33CHL1   H7B 3561   0.544   3.713   6.579 -2.6743  0.3503  0.9819
   33CHL1    C8 3562   0.677   3.548   6.561  0.4166 -0.5121  0.0778
   33CHL1    H8 3563   0.673   3.440   6.587  1.7619 -0.5035  0.3676
   33CHL1   C14 3564   0.679   3.578   6.403 -0.8545 -0.2561 -0.6213
   33CHL1   H14 3565   0.700   3.686   6.388 -1.2573  0.1359  1.3143
   33CHL1   C15 3566   0.544   3.544   6.333  0.0829  0.4319 -0.3420
   33CHL1  H15A 3567   0.511   3.447   6.374 -3.4467  2.0833  1.1855
   33CHL1  H15B 3568   0.472   3.621   6.368  1.3441  1.0303  1.0672
   33CHL1   C16 3569   0.588   3.531   6.188  0.4004 -0.5018 -0.4123
   33CHL1  H16A 3570   0.548   3.442   6.134 -1.4099  1.0572 -1.7889
   33CHL1  H16B 3571   0.549   3.620   6.134  1.5075  0.5811  0.5247
   33CHL1   C17 3572   0.745   3.550   6.184  0.0751  0.2465  0.2112
   33CHL1   H17 3573   0.767   3.659   6.180 -0.7243  0.4123  0.1592
   33CHL1   C13 3574   0.789   3.504   6.329  0.6806  0.6207  0.2464
   33CHL1   C18 3575   0.777   3.350   6.328 -0.1746 -0.3081  0.0644
   33CHL1  H18A 3576   0.761   3.315   6.432  1.9536 -3.2375 -0.4744
   33CHL1  H18B 3577   0.684   3.310   6.282  1.7174 -2.3185 -2.2717
   33CHL1  H18C 3578   0.867   3.304   6.283  0.7459 -0.5339  2.0298
   33CHL1   C12 3579   0.927   3.541   6.384  0.1924  0.2632 -0.1794
   33CHL1  H12A 3580   1.007   3.473   6.347 -1.5248 -2.2568  0.3924
   33CHL1  H12B 3581   0.948   3.647   6.363  1.4649  0.1001  0.1867
   33CHL1   C11 3582   0.933   3.533   6.536  0.1438 -0.6016  0.5930
   33CHL1  H11A 3583   0.933   3.424   6.557  0.2927 -0.7969 -0.3676
   33CHL1  H11B 3584   1.031   3.568   6.576  0.5079 -3.0592  2.0069
   33CHL1    C9 3585   0.814   3.604   6.615  0.0447 -0.5393 -0.1147
   33CHL1    H9 3586   0.803   3.711   6.586 -0.3297 -0.9071 -1.3706
   33CHL1   C10 3587   0.810   3.601   6.770  0.1957 -0.5747 -0.3495
   33CHL1   C19 3588   0.865   3.464   6.810  0.6611 -0.2549 -0.9775
   33CHL1  H19A 3589   0.976   3.464   6.798  1.0774  0.7359  2.0238
   33CHL1  H19B 3590   0.849   3.432   6.915 -1.6295 -5.7681 -2.6720
   33CHL1  H19C 3591   0.821   3.387   6.743 -0.7926  0.0731 -0.4452
   33CHL1    C1 3592   0.901   3.712   6.813 -1.1115  0.1430  0.3773
   33CHL1   H1A 3593   1.002   3.693   6.770 -0.5809  3.2645  0.0113
   33CHL1   H1B 3594   0.884   3.806   6.755  2.6085  1.1860  0.7163
   33CHL1    C2 3595   0.920   3.750   6.966  0.4583  0.3815 -0.3059
   33CHL1   H2A 3596   0.988   3.835   6.984  0.5937  0.1939  0.0706
   33CHL1   H2B 3597   0.957   3.667   7.030  0.6312 -0.3489 -1.3246
   33CHL1   C20 3598   0.796   3.501   6.047 -0.4637  1.2873  0.6485
   33CHL1   H20 3599   0.770   3.393   6.044 -1.6646  1.5845 -0.6411
   33CHL1   C21 3600   0.948   3.517   6.053 -0.8317  1.0983  0.1576
   33CHL1  H21A 3601   0.982   3.472   5.958  0.1159  1.3018  0.3920
   33CHL1  H21B 3602   1.000   3.452   6.127 -0.5287 -1.5375 -2.2122
   33CHL1  H21C 3603   0.985   3.621   6.061  3.7131 -0.3010  0.0437
   33CHL1   C22 3604   0.727   3.579   5.927 -0.1742 -0.4011 -0.1645
   33CHL1  H22A 3605   0.619   3.550   5.928 -0.2398 -0.2111 -0.9327
   33CHL1  H22B 3606   0.736   3.688   5.947 -2.8894 -0.4288  1.7306
   33CHL1   C23 3607   0.785   3.536   5.794 -0.0645 -0.1088  0.1805
   33CHL1  H23A 3608   0.887   3.579   5.786 -0.3441  0.4237 -0.7014
   33CHL1  H23B 3609   0.785   3.425   5.797  1.8070 -0.1402  0.4171
   33CHL1   C24 3610   0.707   3.586   5.673  0.3772 -0.0062 -0.6551
   33CHL1  H24A 3611   0.600   3.569   5.694  0.1407  1.0385 -0.9678
   33CHL1  H24B 3612   0.704   3.696   5.657  2.1126 -0.0053 -1.2266
   33CHL1   C25 3613   0.743   3.522   5.536 -0.3757  0.5941 -0.6274
   33CHL1   H25 3614   0.730   3.414   5.559  0.7857  0.3809 -0.9063
   33CHL1   C26 3615   0.646   3.565   5.411  0.1455  0.0763 -0.2393
   33CHL1  H26A 3616   0.672   3.668   5.381 -1.9562  0.9164  0.6352
   33CHL1  H26B 3617   0.657   3.496   5.325 -2.5222 -2.6043  1.3542
   33CHL1  H26C 3618   0.540   3.560   5.446 -0.5180  2.0094 -1.7972
   33CHL1   C27 3619   0.891   3.527   5.512  1.0143 -0.1344  0.2135
   33CHL1  H27A 3620   0.915   3.632   5.482  0.6198 -0.5130 -1.5324
   33CHL1  H27B 3621   0.960   3.503   5.595  0.6176 -0.0077  0.5838
   33CHL1  H27C 3622   0.913   3.467   5.421  0.9458 -0.0420  0.1350
   34CHL1    C3 3623   1.831   6.011   6.824 -0.8543 -0.6016  0.9874
   34CHL1    H3 3624   1.936   5.976   6.810 -0.7916  0.4806 -1.9469
   34CHL1    O3 3625   1.797   6.027   6.956  0.6279  0.2372 -0.7685
   34CHL1   H3' 3626   1.702   6.013   6.957  0.0724  3.3248 -0.3014
   34CHL1    C4 3627   1.837   6.156   6.762 -0.3288  0.1022 -0.6151
   34CHL1   H4A 3628   1.735   6.196   6.781  0.0102 -0.3276  2.7346
   34CHL1   H4B 3629   1.905   6.216   6.825 -0.1521 -0.0732 -0.6359
   34CHL1    C5 3630   1.867   6.152   6.610  0.0265 -0.6809 -0.8545
   34CHL1    C6 3631   1.973   6.225   6.557 -0.6044 -0.1933  0.0919
   34CHL1    H6 3632   2.027   6.294   6.624  0.5103 -0.0618 -0.8938
   34CHL1    C7 3633   2.007   6.229   6.410  0.5477 -0.1878 -0.1493
   34CHL1   H7A 3634   2.019   6.333   6.371  0.6768 -0.9037 -2.1247
   34CHL1   H7B 3635   2.106   6.184   6.389  0.7342  1.2265 -2.6980
   34CHL1    C8 3636   1.903   6.160   6.317  0.3976  0.3630 -0.4267
   34CHL1    H8 3637   1.822   6.234   6.305 -0.3733 -0.5018 -0.6980
   34CHL1   C14 3638   1.957   6.115   6.179 -0.6659 -0.1785 -0.2077
   34CHL1   H14 3639   2.035   6.044   6.212 -1.1097 -0.6164 -0.0856
   34CHL1   C15 3640   2.042   6.218   6.108  0.6742  0.9931  0.8761
   34CHL1  H15A 3641   1.998   6.319   6.124  0.6213  1.2346 -0.6473
   34CHL1  H15B 3642   2.136   6.228   6.166  1.2868  0.6481 -0.0360
   34CHL1   C16 3643   2.050   6.172   5.957  0.7632  0.0854 -0.6915
   34CHL1  H16A 3644   2.004   6.248   5.891  1.5016 -0.7681 -2.2383
   34CHL1  H16B 3645   2.157   6.152   5.933  0.9997 -0.4554  0.6940
   34CHL1   C17 3646   1.958   6.044   5.949 -0.9566 -0.5093  0.7563
   34CHL1   H17 3647   2.024   5.956   5.969 -1.7623 -1.0849  0.9735
   34CHL1   C13 3648   1.864   6.052   6.074 -0.0824  0.0843  0.1579
   34CHL1   C18 3649   1.754   6.151   6.028  0.5660  0.1668 -0.2952
   34CHL1  H18A 3650   1.696   6.176   6.119  0.3388  1.2003 -0.7092
   34CHL1  H18B 3651   1.793   6.251   5.999  1.4859 -0.4514 -1.2889
   34CHL1  H18C 3652   1.679   6.103   5.961 -1.8426  1.1178  1.6102
   34CHL1   C12 3653   1.812   5.932   6.145  0.0597 -0.0005  0.6303
   34CHL1  H12A 3654   1.740   5.874   6.084  1.6130  0.4424 -1.7578
   34CHL1  H12B 3655   1.893   5.863   6.175  1.3144  0.7601 -0.8692
   34CHL1   C11 3656   1.747   5.964   6.280  0.6809  0.2129  0.4508
   34CHL1  H11A 3657   1.652   6.019   6.263 -0.1055 -1.1462  0.2126
   34CHL1  H11B 3658   1.717   5.862   6.315  1.9297 -0.4118 -0.2110
   34CHL1    C9 3659   1.840   6.035   6.381  0.0738  0.4633  0.1989
   34CHL1    H9 3660   1.925   5.963   6.392 -1.4737 -1.3342  1.0272
   34CHL1   C10 3661   1.786   6.053   6.523  0.6140  0.1813  0.6561
   34CHL1   C19 3662   1.632   6.101   6.513 -0.1961 -0.3818 -1.3557
   34CHL1  H19A 3663   1.626   6.188   6.445 -0.8451 -1.7664 -3.1594
   34CHL1  H19B 3664   1.570   6.026   6.460  1.5454 -0.9650 -2.6955
   34CHL1  H19C 3665   1.585   6.117   6.612  2.9267 -1.3379  0.4452
   34CHL1    C1 3666   1.786   5.918   6.594  0.0844 -0.2842 -0.3478
   34CHL1   H1A 3667   1.724   5.836   6.552  0.8922 -0.8941 -0.3743
   34CHL1   H1B 3668   1.888   5.874   6.592  0.2526 -0.0445  1.4108
   34CHL1    C2 3669   1.739   5.931   6.742  0.4911 -0.3760 -0.1958
   34CHL1   H2A 3670   1.744   5.831   6.789 -0.9401  0.0695  0.9919
   34CHL1   H2B 3671   1.630   5.950   6.749  0.0403 -3.0143  1.2245
   34CHL1   C20 3672   1.908   6.012   5.805  0.7005  0.3872 -0.5917
   34CHL1   H20 3673   1.844   6.095   5.768 -0.1364 -1.3054 -3.1394
   34CHL1   C21 3674   1.814   5.890   5.814  0.5419 -0.7751  0.3270
   34CHL1  H21A 3675   1.860   5.799   5.859  3.1977  0.2871 -0.0239
   34CHL1  H21B 3676   1.770   5.865   5.715  1.9922 -1.1181 -0.2675
   34CHL1  H21C 3677   1.733   5.924   5.881  0.8030 -1.4180  0.9867
   34CHL1   C22 3678   2.024   5.988   5.709 -0.0778 -0.3421 -0.1591
   34CHL1  H22A 3679   2.057   6.090   5.680 -1.7019  0.0785 -0.6693
   34CHL1  H22B 3680   2.108   5.926   5.747 -0.2635 -1.6419 -1.7388
   34CHL1   C23 3681   1.996   5.932   5.570 -0.3258 -0.5261 -0.2473
   34CHL1  H23A 3682   1.987   5.822   5.577  1.0399 -0.6625 -0.3305
   34CHL1  H23B 3683   1.897   5.969   5.537  0.2085 -0.4329 -1.8473
   34CHL1   C24 3684   2.105   5.967   5.467 -0.3738 -0.0833 -0.2791
   34CHL1  H24A 3685   2.139   6.072   5.471  1.2863 -0.4225 -2.7970
   34CHL1  H24B 3686   2.194   5.911   5.502  1.1757  1.5119 -1.5110
   34CHL1   C25 3687   2.066   5.941   5.317 -0.7311  0.1368  0.1964
   34CHL1   H25 3688   2.010   6.031   5.282 -0.4967  0.0376 -0.4484
   34CHL1   C26 3689   2.180   5.932   5.217  0.2168 -0.1362  0.8507
   34CHL1  H26A 3690   2.241   6.024   5.232  0.5783 -0.1855 -0.1708
   34CHL1  H26B 3691   2.247   5.847   5.242  0.4478  0.2299  1.4999
   34CHL1  H26C 3692   2.148   5.926   5.111 -0.2853 -2.0650  1.0664
   34CHL1   C27 3693   1.980   5.817   5.300 -0.0609 -0.2654 -0.3680
   34CHL1  H27A 3694   1.898   5.810   5.375 -0.0900  1.1543 -0.2301
   34CHL1  H27B 3695   1.929   5.835   5.203 -2.5781 -1.2274  0.6895
   34CHL1  H27C 3696   2.050   5.730   5.305  2.6865  1.5866 -2.9755
   35CHL1    C3 3697   3.536   0.751   7.193  0.0967 -0.4825  0.2159
   35CHL1    H3 3698   3.630   0.695   7.174  1.7073  2.1681 -0.1916
   35CHL1    O3 3699   3.562   0.828   7.314  0.0680 -0.5040  0.2706
   35CHL1   H3' 3700   3.616   0.778   7.375  1.9639  0.6937 -0.3377
   35CHL1    C4 3701   3.534   0.861   7.081 -0.4603  0.3832  0.0057
   35CHL1   H4A 3702   3.449   0.931   7.099 -1.4647 -0.7753 -0.0851
   35CHL1   H4B 3703   3.619   0.929   7.100  0.1346 -0.1981 -0.5189
   35CHL1    C5 3704   3.525   0.793   6.948  0.6958 -0.4053  0.5851
   35CHL1    C6 3705   3.609   0.811   6.844  0.4894  0.0121 -0.5404
   35CHL1    H6 3706   3.673   0.898   6.865  0.2272 -0.0548  0.6265
   35CHL1    C7 3707   3.606   0.770   6.701 -0.4166 -0.0956  0.4104
   35CHL1   H7A 3708   3.598   0.870   6.653 -3.0632  0.0743  1.0323
   35CHL1   H7B 3709   3.691   0.710   6.663  0.0308  0.6995  0.1144
   35CHL1    C8 3710   3.471   0.710   6.680 -0.2693  0.9703  0.0126
   35CHL1    H8 3711   3.393   0.788   6.667 -1.6260 -0.5858 -1.8765
   35CHL1   C14 3712   3.466   0.636   6.542  0.3765  0.6720  0.6951
   35CHL1   H14 3713   3.536   0.550   6.544  1.2628  1.3821  2.1566
   35CHL1   C15 3714   3.509   0.719   6.424 -0.3424 -0.0913  0.2999
   35CHL1  H15A 3715   3.465   0.820   6.409  2.3348  0.9070 -1.4952
   35CHL1  H15B 3716   3.620   0.724   6.426 -0.2413 -1.4634 -0.0889
   35CHL1   C16 3717   3.451   0.637   6.305  0.0946  0.4758  0.3433
   35CHL1  H16A 3718   3.384   0.702   6.246 -0.7604 -0.1852  0.5732
   35CHL1  H16B 3719   3.531   0.584   6.247 -3.4178 -2.8663 -1.9667
   35CHL1   C17 3720   3.359   0.523   6.362  0.6302  0.0055  0.4771
   35CHL1   H17 3721   3.417   0.431   6.384 -0.5757 -0.6857  0.8237
   35CHL1   C13 3722   3.329   0.571   6.506  0.5669 -0.0557 -0.4020
   35CHL1   C18 3723   3.218   0.681   6.505 -0.7695 -0.2468  0.0852
   35CHL1  H18A 3724   3.232   0.757   6.425 -0.0554  1.8274  2.0615
   35CHL1  H18B 3725   3.115   0.642   6.517 -1.5365  1.3602 -0.8970
   35CHL1  H18C 3726   3.225   0.748   6.594  0.8655 -0.6535  0.2876
   35CHL1   C12 3727   3.307   0.456   6.619 -0.0869  0.4735  0.1213
   35CHL1  H12A 3728   3.209   0.408   6.598 -0.0317  1.9556 -4.3789
   35CHL1  H12B 3729   3.385   0.378   6.604  1.5143  2.1054 -0.3669
   35CHL1   C11 3730   3.305   0.519   6.757 -0.2421 -0.0630 -0.0960
   35CHL1  H11A 3731   3.216   0.584   6.766 -1.0023 -1.1632  0.5165
   35CHL1  H11B 3732   3.293   0.446   6.839  0.3647  1.4729  1.4348
   35CHL1    C9 3733   3.431   0.612   6.790 -0.0561  0.5183 -0.3211
   35CHL1    H9 3734   3.514   0.539   6.802  0.7877  1.2896 -1.2309
   35CHL1   C10 3735   3.409   0.694   6.926  0.8574  0.3359 -0.3473
   35CHL1   C19 3736   3.286   0.793   6.923  0.8765  0.8450  1.0511
   35CHL1  H19A 3737   3.283   0.865   6.838 -1.5752 -2.2789 -1.7860
   35CHL1  H19B 3738   3.199   0.725   6.912  0.2409  1.4144  2.4261
   35CHL1  H19C 3739   3.281   0.850   7.018 -2.5575 -1.3367  2.3490
   35CHL1    C1 3740   3.402   0.595   7.048 -0.1466  0.4369  0.5907
   35CHL1   H1A 3741   3.306   0.540   7.056  0.4957 -0.6323  1.2230
   35CHL1   H1B 3742   3.484   0.521   7.036 -1.1899 -0.7497  0.6119
   35CHL1    C2 3743   3.411   0.658   7.194  0.0139 -0.5456  0.2324
   35CHL1   H2A 3744   3.442   0.576   7.262  2.5174  0.4948  0.4482
   35CHL1   H2B 3745   3.319   0.713   7.224 -0.5016 -0.2835 -1.7271
   35CHL1   C20 3746   3.244   0.487   6.258 -0.2297  0.1477  0.4615
   35CHL1   H20 3747   3.175   0.571   6.236 -0.2670  0.0520  0.2205
   35CHL1   C21 3748   3.158   0.389   6.321  0.2596 -0.5019 -0.5097
   35CHL1  H21A 3749   3.217   0.303   6.360 -0.2800 -0.9274 -0.6261
   35CHL1  H21B 3750   3.077   0.352   6.254 -1.1240  0.6679  0.4637
   35CHL1  H21C 3751   3.104   0.438   6.405  0.1592  0.0627 -0.8995
   35CHL1   C22 3752   3.286   0.433   6.119 -0.0806  0.1958 -0.4446
   35CHL1  H22A 3753   3.201   0.383   6.067  0.5324  1.3625 -2.7039
   35CHL1  H22B 3754   3.326   0.521   6.065  1.5109 -0.1568  0.1151
   35CHL1   C23 3755   3.401   0.336   6.125 -0.3610 -1.1780 -0.7134
   35CHL1  H23A 3756   3.494   0.394   6.142 -1.7057  0.9000  0.0590
   35CHL1  H23B 3757   3.380   0.266   6.208 -0.2828 -0.0049  0.3358
   35CHL1   C24 3758   3.437   0.256   5.995  0.1819 -0.4872  0.0607
   35CHL1  H24A 3759   3.482   0.328   5.923 -0.6370 -0.3861 -0.3697
   35CHL1  H24B 3760   3.504   0.170   6.015 -0.6733 -1.5907 -1.5983
   35CHL1   C25 3761   3.326   0.191   5.909 -0.3546  0.2538  0.4921
   35CHL1   H25 3762   3.253   0.268   5.876 -1.2468 -0.2601  1.2110
   35CHL1   C26 3763   3.386   0.126   5.784 -0.9209  0.2283  0.0613
   35CHL1  H26A 3764   3.448   0.039   5.814 -0.1564  1.2643  1.6584
   35CHL1  H26B 3765   3.303   0.081   5.726 -1.0047 -0.8094  0.9620
   35CHL1  H26C 3766   3.431   0.203   5.717  0.7521 -1.5053 -0.9044
   35CHL1   C27 3767   3.240   0.089   5.981 -0.4483  0.0266 -0.2007
   35CHL1  H27A 3768   3.223   0.116   6.087 -1.5535 -1.5261  0.0467
   35CHL1  H27B 3769   3.136   0.082   5.941 -1.5830 -0.2338  2.6068
   35CHL1  H27C 3770   3.269  -0.014   5.954 -1.9934 -0.2904 -0.7868
   36CHL1    C3 3771   6.724   4.564   6.704 -0.4080  0.0853 -0.5788
   36CHL1    H3 3772   6.762   4.658   6.659  0.4357  1.0536  1.9814
   36CHL1    O3 3773   6.712   4.589   6.842  0.6871 -0.2148  0.7220
   36CHL1   H3' 3774   6.801   4.609   6.870  0.3245  0.9813  1.0819
   36CHL1    C4 3775   6.588   4.531   6.639  0.0083 -0.8583  0.2331
   36CHL1   H4A 3776   6.542   4.445   6.692 -1.0324 -2.4517 -2.9597
   36CHL1   H4B 3777   6.522   4.616   6.664 -1.4080 -1.6133 -0.8420
   36CHL1    C5 3778   6.600   4.492   6.495  0.0321  0.4436 -0.2668
   36CHL1    C6 3779   6.529   4.562   6.406  0.4785 -0.5008 -0.2874
   36CHL1    H6 3780   6.457   4.640   6.435  0.8812 -0.0122 -0.5991
   36CHL1    C7 3781   6.554   4.544   6.258  0.7698 -0.1765  0.7007
   36CHL1   H7A 3782   6.452   4.543   6.215  0.9179  2.9694  0.0213
   36CHL1   H7B 3783   6.612   4.630   6.218 -0.4379  0.4731  0.2990
   36CHL1    C8 3784   6.623   4.409   6.222  0.1078 -0.0869  0.2034
   36CHL1    H8 3785   6.550   4.331   6.254  0.7934 -0.5585  0.6373
   36CHL1   C14 3786   6.659   4.417   6.080  0.0299 -0.2778 -0.0330
   36CHL1   H14 3787   6.742   4.491   6.070  1.5409 -1.9283 -0.1672
   36CHL1   C15 3788   6.549   4.460   5.970 -0.5396 -0.0494 -0.7563
   36CHL1  H15A 3789   6.458   4.399   5.987 -1.3193  1.3692  0.4876
   36CHL1  H15B 3790   6.521   4.566   5.989  4.7244  1.3448  0.9234
   36CHL1   C16 3791   6.615   4.415   5.837  0.7320 -0.1611  0.3915
   36CHL1  H16A 3792   6.546   4.361   5.769  0.1711 -0.8275  1.4537
   36CHL1  H16B 3793   6.657   4.494   5.772 -1.8266  0.8073 -0.2246
   36CHL1   C17 3794   6.735   4.323   5.871 -0.2548 -0.1615  0.7353
   36CHL1   H17 3795   6.824   4.390   5.870 -0.7064  0.4949  1.9890
   36CHL1   C13 3796   6.715   4.292   6.023  0.0858 -0.2167  0.2763
   36CHL1   C18 3797   6.607   4.177   6.035 -0.1072  0.3497 -0.4907
   36CHL1  H18A 3798   6.529   4.202   5.960  0.4451  1.8579 -0.6068
   36CHL1  H18B 3799   6.667   4.084   6.023  0.5574  0.2678  2.5265
   36CHL1  H18C 3800   6.547   4.169   6.129 -0.2817  2.6954 -0.3495
   36CHL1   C12 3801   6.847   4.264   6.103 -0.0601 -0.0699 -0.3752
   36CHL1  H12A 3802   6.895   4.173   6.062  1.5480  0.5199  0.0884
   36CHL1  H12B 3803   6.917   4.345   6.072 -0.9153  0.4465 -1.0098
   36CHL1   C11 3804   6.832   4.271   6.255  0.3636  0.4736 -0.2625
   36CHL1  H11A 3805   6.777   4.177   6.276  1.7475 -0.3251 -0.1095
   36CHL1  H11B 3806   6.927   4.257   6.310  0.4022 -1.3404 -0.7285
   36CHL1    C9 3807   6.746   4.385   6.310  0.9667 -0.9123 -0.8455
   36CHL1    H9 3808   6.798   4.481   6.287 -1.6276  0.4216 -1.5451
   36CHL1   C10 3809   6.708   4.389   6.465 -0.0536  0.6141 -0.1396
   36CHL1   C19 3810   6.639   4.247   6.502  0.1623 -0.3150 -0.2364
   36CHL1  H19A 3811   6.691   4.160   6.456  1.6418  1.1000 -1.3416
   36CHL1  H19B 3812   6.650   4.230   6.612  0.1113  1.0409 -0.0074
   36CHL1  H19C 3813   6.537   4.242   6.459  0.6994 -2.1672 -1.4323
   36CHL1    C1 3814   6.845   4.405   6.537  0.6741  0.2484  0.1369
   36CHL1   H1A 3815   6.891   4.304   6.535 -0.8037 -0.4267 -0.5393
   36CHL1   H1B 3816   6.910   4.482   6.490 -1.7748  2.6594  0.4200
   36CHL1    C2 3817   6.826   4.450   6.686  0.6456 -0.7988  0.2800
   36CHL1   H2A 3818   6.924   4.478   6.730 -0.3477 -0.1595  2.1782
   36CHL1   H2B 3819   6.791   4.357   6.736 -1.3299  0.3296  1.0742
   36CHL1   C20 3820   6.763   4.206   5.781  0.7954  0.3438 -0.1725
   36CHL1   H20 3821   6.676   4.137   5.790 -0.2637  1.4425 -1.4793
   36CHL1   C21 3822   6.885   4.128   5.821 -1.0372 -0.0038 -0.5082
   36CHL1  H21A 3823   6.974   4.183   5.859 -0.8685 -0.6217  0.0191
   36CHL1  H21B 3824   6.916   4.071   5.731  0.1929  1.7808 -1.2473
   36CHL1  H21C 3825   6.856   4.057   5.902 -0.1364  1.0801  0.8022
   36CHL1   C22 3826   6.773   4.250   5.631  0.3496  0.8941  0.3717
   36CHL1  H22A 3827   6.800   4.155   5.581  1.6434  0.0147  2.5894
   36CHL1  H22B 3828   6.677   4.287   5.589 -0.0754  1.9686  2.1554
   36CHL1   C23 3829   6.884   4.352   5.583  0.4992 -0.5353  0.3827
   36CHL1  H23A 3830   6.882   4.432   5.660  0.1246 -1.1690  1.0501
   36CHL1  H23B 3831   6.983   4.305   5.599  0.3980 -0.6264  0.7525
   36CHL1   C24 3832   6.853   4.408   5.440  0.0230  0.0161  0.7909
   36CHL1  H24A 3833   6.829   4.331   5.363  1.5414 -1.8022  2.0268
   36CHL1  H24B 3834   6.762   4.472   5.441 -0.6955 -0.9820  1.2283
   36CHL1   C25 3835   6.973   4.491   5.382 -0.0413 -0.3988  0.5708
   36CHL1   H25 3836   7.004   4.571   5.453  0.1945  3.4657 -3.4662
   36CHL1   C26 3837   7.090   4.393   5.356 -0.1330 -0.1555 -0.4564
   36CHL1  H26A 3838   7.165   4.434   5.285 -1.7283  0.3366 -1.9323
   36CHL1  H26B 3839   7.132   4.374   5.457 -1.5119  0.3179  0.2455
   36CHL1  H26C 3840   7.054   4.297   5.315 -1.6861  0.3134 -0.2716
   36CHL1   C27 3841   6.934   4.574   5.256 -0.0538  0.4933 -0.5246
   36CHL1  H27A 3842   6.897   4.502   5.180 -0.0309 -0.1895  0.0985
   36CHL1  H27B 3843   6.847   4.639   5.279 -0.2144  0.3856 -0.8196
   36CHL1  H27C 3844   7.023   4.632   5.222  1.6877 -0.4972  2.0026
   37CHL1    C3 3845   0.602   1.389   7.088 -0.0585  0.0475  0.6034
   37CHL1    H3 3846   0.699   1.352   7.048 -0.4375 -1.1896  0.7836
   37CHL1    O3 3847   0.594   1.387   7.231  0.4783 -0.8072 -0.7414
   37CHL1   H3' 3848   0.685   1.399   7.259  0.1917 -1.9870  0.8466
   37CHL1    C4 3849   0.586   1.534   7.034 -0.2395  0.4125  0.1623
   37CHL1   H4A 3850   0.505   1.586   7.089 -0.4907  0.6855 -0.4624
   37CHL1   H4B 3851   0.673   1.593   7.068  1.5088 -1.0832 -1.4789
   37CHL1    C5 3852   0.554   1.532   6.888  0.1304  0.2972 -0.2984
   37CHL1    C6 3853   0.644   1.605   6.812  0.8830 -0.7196  0.1634
   37CHL1    H6 3854   0.720   1.667   6.862  2.1635 -1.8309 -0.3315
   37CHL1    C7 3855   0.631   1.627   6.663  0.2122 -0.0001 -0.8267
   37CHL1   H7A 3856   0.633   1.738   6.652  3.5780  0.0428 -0.8255
   37CHL1   H7B 3857   0.716   1.586   6.604 -0.0641 -0.5703 -0.8264
   37CHL1    C8 3858   0.492   1.569   6.610  0.6758  0.2310  0.3528
   37CHL1    H8 3859   0.411   1.644   6.623  0.5761 -0.0609  1.4327
   37CHL1   C14 3860   0.510   1.557   6.450  0.3370  0.4727 -0.2381
   37CHL1   H14 3861   0.584   1.477   6.431 -0.0120 -0.1889  1.0438
   37CHL1   C15 3862   0.549   1.683   6.381  0.1839 -0.0626  0.2884
   37CHL1  H15A 3863   0.502   1.769   6.434  2.4638 -0.7520  3.7395
   37CHL1  H15B 3864   0.660   1.684   6.386  0.1369 -1.3511  2.8497
   37CHL1   C16 3865   0.504   1.645   6.238  0.5738  0.1807 -0.3638
   37CHL1  H16A 3866   0.445   1.731   6.200 -0.1808 -1.0094 -1.9726
   37CHL1  H16B 3867   0.591   1.635   6.171  1.2444  0.7122  0.4024
   37CHL1   C17 3868   0.429   1.510   6.236  0.3257  0.9648  0.2180
   37CHL1   H17 3869   0.506   1.433   6.214  0.0881  1.1958 -1.5218
   37CHL1   C13 3870   0.388   1.499   6.376  0.1592  0.2868 -0.0889
   37CHL1   C18 3871   0.263   1.598   6.397  0.3587  0.0942  0.3040
   37CHL1  H18A 3872   0.166   1.558   6.358  0.0218 -0.0687  1.2667
   37CHL1  H18B 3873   0.244   1.633   6.501  1.3084  1.8720 -0.0868
   37CHL1  H18C 3874   0.281   1.692   6.342  1.7326 -1.6482 -2.4481
   37CHL1   C12 3875   0.355   1.365   6.444  0.0254 -0.2818  0.6995
   37CHL1  H12A 3876   0.269   1.307   6.404  0.7521 -0.1885 -1.0926
   37CHL1  H12B 3877   0.448   1.313   6.412 -0.6027 -0.7204 -0.4832
   37CHL1   C11 3878   0.334   1.375   6.590  0.6773  0.7077 -0.2053
   37CHL1  H11A 3879   0.237   1.425   6.611 -0.4399 -2.3680  2.9573
   37CHL1  H11B 3880   0.309   1.280   6.641 -2.6971  1.5914  0.0497
   37CHL1    C9 3881   0.454   1.435   6.663  0.4134 -0.0459 -0.7927
   37CHL1    H9 3882   0.534   1.361   6.639  2.1782  1.4635  0.1915
   37CHL1   C10 3883   0.447   1.437   6.824 -0.6273 -0.3972 -0.0371
   37CHL1   C19 3884   0.301   1.483   6.861  0.3373  0.0462 -0.0637
   37CHL1  H19A 3885   0.273   1.578   6.810  0.3219  0.7185  1.1767
   37CHL1  H19B 3886   0.227   1.406   6.830  3.1953 -2.6637 -0.7948
   37CHL1  H19C 3887   0.300   1.495   6.971  0.7555  1.0968 -0.1636
   37CHL1    C1 3888   0.478   1.301   6.883  0.6582 -0.1306  1.0648
   37CHL1   H1A 3889   0.404   1.226   6.849  0.1300  0.5415  0.7094
   37CHL1   H1B 3890   0.576   1.278   6.837 -0.2013 -0.1499 -0.8421
   37CHL1    C2 3891   0.488   1.299   7.035 -0.0216  0.0808  0.0151
   37CHL1   H2A 3892   0.501   1.192   7.062 -2.2406 -0.9374 -2.4891
   37CHL1   H2B 3893   0.395   1.326   7.089  0.7747  1.2795  0.8551
   37CHL1   C20 3894   0.331   1.492   6.121  0.0035  0.3268 -0.1887
   37CHL1   H20 3895   0.238   1.550   6.134  0.8595  1.2677  2.2179
   37CHL1   C21 3896   0.302   1.341   6.105 -0.0130 -0.7072  0.3828
   37CHL1  H21A 3897   0.388   1.271   6.109 -0.1799 -1.0579 -1.4065
   37CHL1  H21B 3898   0.259   1.322   6.004 -0.6967 -1.3246  0.7865
   37CHL1  H21C 3899   0.226   1.297   6.173  0.7180  1.2609  2.6227
   37CHL1   C22 3900   0.382   1.549   5.989 -1.0832  0.4314  0.5794
   37CHL1  H22A 3901   0.409   1.656   5.984  1.8644 -0.2445 -3.3407
   37CHL1  H22B 3902   0.468   1.488   5.954 -0.0615  1.2308  1.6200
   37CHL1   C23 3903   0.279   1.547   5.872  0.1518  0.5192 -0.3806
   37CHL1  H23A 3904   0.253   1.441   5.851  1.2065  0.4915 -1.6931
   37CHL1  H23B 3905   0.195   1.605   5.915 -0.1228 -1.2312  1.5987
   37CHL1   C24 3906   0.335   1.607   5.739 -0.6616  0.1540  0.3988
   37CHL1  H24A 3907   0.255   1.636   5.668 -0.6597 -1.8151 -0.4946
   37CHL1  H24B 3908   0.376   1.709   5.753  1.0632 -0.4562  0.1028
   37CHL1   C25 3909   0.452   1.522   5.665  0.2753  0.1919  0.3433
   37CHL1   H25 3910   0.533   1.495   5.735  0.7579  1.3768  0.2638
   37CHL1   C26 3911   0.400   1.383   5.602  0.0077  0.3341 -0.1321
   37CHL1  H26A 3912   0.327   1.407   5.522 -1.8169 -0.7158  1.1408
   37CHL1  H26B 3913   0.492   1.327   5.574  1.5148  4.0321 -3.5709
   37CHL1  H26C 3914   0.332   1.328   5.671 -0.4753 -1.1253 -1.7267
   37CHL1   C27 3915   0.517   1.595   5.548 -0.0924  0.5543 -0.6466
   37CHL1  H27A 3916   0.515   1.704   5.571  0.6365  0.0195  2.3700
   37CHL1  H27B 3917   0.624   1.567   5.541 -0.5913 -3.0284  2.8633
   37CHL1  H27C 3918   0.470   1.583   5.448  1.6329 -0.6987 -1.3358
   38CHL1    C3 3919   1.724   2.089   6.988 -0.3447 -0.1512  0.2594
   38CHL1    H3 3920   1.673   1.991   6.976 -0.2625 -0.0517 -0.9936
   38CHL1    O3 3921   1.716   2.125   7.126  0.5153  0.2453  0.3110
   38CHL1   H3' 3922   1.762   2.209   7.126  0.4648  0.2925  1.7193
   38CHL1    C4 3923   1.872   2.080   6.956  0.1089  0.4230 -0.6043
   38CHL1   H4A 3924   1.912   2.182   6.974 -2.0883  1.4812 -1.3292
   38CHL1   H4B 3925   1.924   2.010   7.024  2.0758  1.6503 -0.7644
   38CHL1    C5 3926   1.898   2.048   6.808  0.6684  1.0201  0.0596
   38CHL1    C6 3927   1.958   1.931   6.783  0.8260 -1.1344  0.3145
   38CHL1    H6 3928   1.994   1.865   6.863 -1.7767 -0.7462  1.9313
   38CHL1    C7 3929   1.974   1.873   6.644 -1.1385 -0.0366 -0.1401
   38CHL1   H7A 3930   2.084   1.859   6.635 -0.7944  1.7606  0.8151
   38CHL1   H7B 3931   1.919   1.779   6.624 -1.5566 -0.3403  2.1980
   38CHL1    C8 3932   1.937   1.974   6.531  0.1533 -0.2693  0.3061
   38CHL1    H8 3933   2.027   2.037   6.512  1.3747 -2.1453 -0.4808
   38CHL1   C14 3934   1.914   1.912   6.393  0.1549 -0.2046  0.0065
   38CHL1   H14 3935   1.828   1.841   6.403  0.0074 -0.0204  0.0486
   38CHL1   C15 3936   2.020   1.819   6.342 -0.0887 -0.1447 -0.1074
   38CHL1  H15A 3937   2.122   1.861   6.357  0.0381 -1.2807  2.8095
   38CHL1  H15B 3938   2.028   1.720   6.392 -1.8701  1.4535  3.6918
   38CHL1   C16 3939   1.998   1.819   6.191 -0.7103 -0.4434 -0.0039
   38CHL1  H16A 3940   2.093   1.860   6.152 -0.9565  1.2942  1.1038
   38CHL1  H16B 3941   1.993   1.714   6.156  1.1920 -0.6639  0.2815
   38CHL1   C17 3942   1.884   1.921   6.154  0.5015 -0.2825  0.2455
   38CHL1   H17 3943   1.791   1.860   6.149 -3.1743  4.7552  0.0505
   38CHL1   C13 3944   1.885   2.011   6.279 -0.0899  0.2190  0.2498
   38CHL1   C18 3945   1.995   2.117   6.254 -0.5144 -0.2708 -0.2590
   38CHL1  H18A 3946   2.091   2.069   6.224 -1.2741 -1.4661 -0.8081
   38CHL1  H18B 3947   1.966   2.181   6.168 -0.0833  0.9007  0.4418
   38CHL1  H18C 3948   2.031   2.175   6.343 -0.7674  0.7001 -0.7713
   38CHL1   C12 3949   1.756   2.083   6.314 -0.1473 -0.4170 -0.3854
   38CHL1  H12A 3950   1.731   2.164   6.242 -0.5894 -0.1381  0.0723
   38CHL1  H12B 3951   1.670   2.013   6.309 -0.2897 -0.2742  0.0385
   38CHL1   C11 3952   1.755   2.150   6.451 -1.2971 -0.1152  0.0748
   38CHL1  H11A 3953   1.805   2.248   6.438  0.0028 -0.6173  1.0851
   38CHL1  H11B 3954   1.653   2.181   6.484 -0.3496  2.5146  0.7495
   38CHL1    C9 3955   1.810   2.062   6.567 -0.2421  0.1447 -0.8257
   38CHL1    H9 3956   1.741   1.979   6.592  1.4669 -0.2146  3.4954
   38CHL1   C10 3957   1.827   2.133   6.705  0.2033  0.2995 -0.0893
   38CHL1   C19 3958   1.921   2.253   6.684  0.1382 -0.0869  0.8480
   38CHL1  H19A 3959   1.921   2.317   6.776 -0.0916  1.7602 -0.3779
   38CHL1  H19B 3960   2.023   2.232   6.648 -0.4288  1.8208 -2.2395
   38CHL1  H19C 3961   1.875   2.323   6.610 -0.4272 -1.1524  0.1742
   38CHL1    C1 3962   1.677   2.171   6.748 -0.7528 -0.4600 -0.7891
   38CHL1   H1A 3963   1.649   2.261   6.690  0.8457  1.2123  0.9033
   38CHL1   H1B 3964   1.598   2.095   6.727 -0.6335 -0.8671  0.1737
   38CHL1    C2 3965   1.665   2.202   6.902  0.0888 -0.2088 -0.4478
   38CHL1   H2A 3966   1.557   2.218   6.925  0.7471  2.2072  1.3622
   38CHL1   H2B 3967   1.726   2.291   6.929  1.3718 -1.6250  1.6012
   38CHL1   C20 3968   1.898   1.986   6.015  0.8732 -0.1701  0.0115
   38CHL1   H20 3969   1.993   2.042   6.009  0.1183  1.1167 -0.5013
   38CHL1   C21 3970   1.785   2.095   5.985 -0.7151  0.1945 -0.1150
   38CHL1  H21A 3971   1.686   2.047   6.001 -0.0860 -1.2855 -0.4563
   38CHL1  H21B 3972   1.778   2.125   5.879 -1.7349 -1.3646 -0.5301
   38CHL1  H21C 3973   1.793   2.188   6.046  2.4560 -0.4643  0.6507
   38CHL1   C22 3974   1.902   1.890   5.893  0.3742 -0.1268  1.2116
   38CHL1  H22A 3975   1.946   1.796   5.933 -0.4400 -0.6341  0.9362
   38CHL1  H22B 3976   1.801   1.864   5.855  1.1150  0.5894 -1.4785
   38CHL1   C23 3977   1.990   1.925   5.773 -0.3184  0.6307  0.0834
   38CHL1  H23A 3978   1.936   1.997   5.708  0.1028  1.1997  0.3538
   38CHL1  H23B 3979   2.081   1.984   5.798 -0.2627 -0.3777  2.5580
   38CHL1   C24 3980   2.024   1.806   5.677  0.3606 -0.4458  0.1152
   38CHL1  H24A 3981   2.089   1.731   5.727 -0.5790 -1.5727 -0.2988
   38CHL1  H24B 3982   1.937   1.748   5.640  2.1105 -2.2440 -1.4344
   38CHL1   C25 3983   2.100   1.846   5.543  0.2161  0.2192 -0.9151
   38CHL1   H25 3984   2.042   1.930   5.499 -0.5963 -0.0319 -0.3458
   38CHL1   C26 3985   2.245   1.879   5.576  0.3604 -0.0240 -0.4701
   38CHL1  H26A 3986   2.308   1.799   5.621  0.4323 -0.2160 -0.8986
   38CHL1  H26B 3987   2.295   1.905   5.480 -0.3006  0.9269 -0.5731
   38CHL1  H26C 3988   2.245   1.970   5.639 -0.5887  0.1668 -0.7188
   38CHL1   C27 3989   2.102   1.722   5.446 -0.1478 -0.3608  0.4317
   38CHL1  H27A 3990   2.159   1.752   5.356 -0.8519 -1.0357 -0.2603
   38CHL1  H27B 3991   2.142   1.628   5.489  0.5262 -0.7068 -0.9041
   38CHL1  H27C 3992   2.001   1.700   5.404 -0.1891 -1.7580  1.2140
   39CHL1    C3 3993   2.569   2.813   6.605 -0.1608 -0.2053  1.1070
   39CHL1    H3 3994   2.648   2.883   6.571 -1.5791  0.1233 -1.8768
   39CHL1    O3 3995   2.584   2.789   6.741 -0.6771  0.4429  0.2996
   39CHL1   H3' 3996   2.655   2.725   6.753  0.6608  2.0512  1.4004
   39CHL1    C4 3997   2.443   2.893   6.583  0.0445 -0.5409 -0.0498
   39CHL1   H4A 3998   2.361   2.830   6.624 -1.0371  0.9125  0.0892
   39CHL1   H4B 3999   2.440   2.983   6.647  0.6352  0.5162 -1.4673
   39CHL1    C5 4000   2.408   2.921   6.437  0.4178  0.1383 -0.6535
   39CHL1    C6 4001   2.388   3.035   6.386  0.1953  0.1465  0.1364
   39CHL1    H6 4002   2.402   3.123   6.450  1.6653  0.0283  0.0135
   39CHL1    C7 4003   2.352   3.067   6.242  0.3794  0.5638  0.3546
   39CHL1   H7A 4004   2.268   3.139   6.242  0.2563  0.8282 -5.0544
   39CHL1   H7B 4005   2.436   3.115   6.188  0.9716  0.1726  0.9159
   39CHL1    C8 4006   2.304   2.937   6.178  0.5971  0.9226 -0.2019
   39CHL1    H8 4007   2.197   2.921   6.203  1.0256 -0.0232  1.1195
   39CHL1   C14 4008   2.297   2.969   6.022  0.5465 -0.1372 -0.1429
   39CHL1   H14 4009   2.403   2.993   5.997  0.8908 -1.7155 -0.3413
   39CHL1   C15 4010   2.206   3.085   5.983  0.1711  0.0603  0.5319
   39CHL1  H15A 4011   2.105   3.066   6.026 -0.5973  1.1625 -0.7072
   39CHL1  H15B 4012   2.246   3.185   6.013 -0.8124  1.0941 -1.3961
   39CHL1   C16 4013   2.175   3.057   5.832  0.5092 -0.2462  0.0070
   39CHL1  H16A 4014   2.065   3.054   5.818 -0.0168  0.1163  3.1985
   39CHL1  H16B 4015   2.221   3.136   5.769  2.9068 -1.4763  0.1025
   39CHL1   C17 4016   2.239   2.914   5.795 -0.6020 -0.6881 -0.3040
   39CHL1   H17 4017   2.342   2.936   5.760  0.0712 -0.9438  1.3789
   39CHL1   C13 4018   2.257   2.851   5.938 -0.3995 -0.3804 -0.2368
   39CHL1   C18 4019   2.115   2.798   5.986 -0.7633 -1.1093  0.4643
   39CHL1  H18A 4020   2.101   2.769   6.092  1.3932 -1.1772  0.7701
   39CHL1  H18B 4021   2.029   2.869   5.975 -2.2816 -2.8327  0.6646
   39CHL1  H18C 4022   2.095   2.706   5.927 -0.7257  0.4046 -2.0808
   39CHL1   C12 4023   2.359   2.734   5.959 -0.0928 -0.9735  0.5118
   39CHL1  H12A 4024   2.340   2.644   5.897 -0.0296 -0.4647 -0.2622
   39CHL1  H12B 4025   2.455   2.773   5.919 -1.5023  1.3499 -0.8166
   39CHL1   C11 4026   2.369   2.696   6.104  0.4894  0.4630 -0.2238
   39CHL1  H11A 4027   2.274   2.644   6.126  0.7017  1.3832  3.5876
   39CHL1  H11B 4028   2.446   2.616   6.113  2.9364  2.0917 -3.8473
   39CHL1    C9 4029   2.392   2.822   6.200 -0.9262 -0.7367 -0.1086
   39CHL1    H9 4030   2.496   2.859   6.184 -1.5038  1.6991  1.4055
   39CHL1   C10 4031   2.394   2.789   6.350 -0.5034 -0.6591 -0.8917
   39CHL1   C19 4032   2.267   2.706   6.382  0.9977  0.5991  0.2957
   39CHL1  H19A 4033   2.252   2.612   6.325  0.3975  0.5854  0.4642
   39CHL1  H19B 4034   2.269   2.680   6.490  0.6230  1.1252  0.4323
   39CHL1  H19C 4035   2.175   2.764   6.361 -0.2407 -0.9374  1.2467
   39CHL1    C1 4036   2.520   2.697   6.374 -0.0425  0.5847 -0.2440
   39CHL1   H1A 4037   2.502   2.595   6.335 -0.6495  0.6604 -0.1718
   39CHL1   H1B 4038   2.605   2.747   6.323 -0.0246 -0.3415 -1.1652
   39CHL1    C2 4039   2.565   2.680   6.525  0.2951 -0.2613  0.3324
   39CHL1   H2A 4040   2.660   2.621   6.525  0.7968  0.5276  0.6334
   39CHL1   H2B 4041   2.483   2.627   6.578  0.7416 -1.4994 -0.1825
   39CHL1   C20 4042   2.156   2.848   5.692  0.1600  0.3469  0.0541
   39CHL1   H20 4043   2.068   2.792   5.730  1.8743 -0.9686  2.3165
   39CHL1   C21 4044   2.257   2.743   5.632  0.0993 -0.2996  0.4134
   39CHL1  H21A 4045   2.340   2.801   5.587 -0.4085  0.4908  0.4798
   39CHL1  H21B 4046   2.210   2.677   5.557  0.6588 -0.1932 -0.0453
   39CHL1  H21C 4047   2.294   2.674   5.712 -1.7330 -0.6219  1.0162
   39CHL1   C22 4048   2.117   2.945   5.577 -0.0242 -0.0324  0.6383
   39CHL1  H22A 4049   2.051   3.027   5.612  0.7912  0.5647  0.8220
   39CHL1  H22B 4050   2.213   2.991   5.545  0.7625 -2.1167 -0.1507
   39CHL1   C23 4051   2.061   2.887   5.439  0.2096  0.6740 -0.2677
   39CHL1  H23A 4052   2.051   2.971   5.367  1.7353  1.1359  0.0241
   39CHL1  H23B 4053   2.131   2.808   5.402  0.9812  0.3330  1.7391
   39CHL1   C24 4054   1.912   2.829   5.452  0.4064 -0.7750  0.0806
   39CHL1  H24A 4055   1.915   2.738   5.515 -1.7406 -2.0403 -1.5257
   39CHL1  H24B 4056   1.848   2.906   5.500  0.9745 -1.1353  1.4592
   39CHL1   C25 4057   1.836   2.788   5.321 -0.4862  0.1760 -0.1532
   39CHL1   H25 4058   1.850   2.876   5.255 -1.2026  1.4821  1.3752
   39CHL1   C26 4059   1.899   2.672   5.248 -0.2647  0.4493 -0.0810
   39CHL1  H26A 4060   2.008   2.691   5.253 -0.2862  0.3331  1.3054
   39CHL1  H26B 4061   1.876   2.577   5.301 -0.3749  0.6395  0.2126
   39CHL1  H26C 4062   1.859   2.662   5.145 -0.5054  0.2701  0.0291
   39CHL1   C27 4063   1.685   2.769   5.351 -0.9980 -1.0877 -0.9659
   39CHL1  H27A 4064   1.662   2.865   5.403  2.1306  0.0108 -1.4080
   39CHL1  H27B 4065   1.628   2.769   5.255 -1.3301  1.7414 -0.8647
   39CHL1  H27C 4066   1.668   2.679   5.413 -0.7885 -0.7642 -0.4313
   40CHL1    C3 4067   3.473   0.129   6.983 -0.1322 -0.2971  0.1268
   40CHL1    H3 4068   3.523   0.224   6.953 -0.7191  0.8186  2.4519
   40CHL1    O3 4069   3.420   0.158   7.113  0.2402  0.3616 -0.4953
   40CHL1   H3' 4070   3.393   0.072   7.147 -0.3917 -0.4432 -2.8810
   40CHL1    C4 4071   3.359   0.093   6.890  0.5127  0.1730  0.2467
   40CHL1   H4A 4072   3.301   0.009   6.933 -0.2495  0.0043 -1.0596
   40CHL1   H4B 4073   3.277   0.168   6.883 -1.0809 -1.2589  2.2267
   40CHL1    C5 4074   3.406   0.047   6.753 -0.0993 -0.1425 -0.2823
   40CHL1    C6 4075   3.352   0.113   6.650  0.1883  0.0789 -0.0251
   40CHL1    H6 4076   3.268   0.178   6.679 -0.9071 -1.8830  1.4716
   40CHL1    C7 4077   3.378   0.069   6.507 -0.2863 -0.3321  0.6838
   40CHL1   H7A 4078   3.284   0.061   6.449  1.1350 -1.8895 -1.5375
   40CHL1   H7B 4079   3.447   0.148   6.470  0.2408  0.4264  3.1098
   40CHL1    C8 4080   3.437  -0.075   6.499 -0.4126  0.0694  1.4159
   40CHL1    H8 4081   3.356  -0.150   6.511 -1.4049  1.0424  0.9031
   40CHL1   C14 4082   3.501  -0.087   6.356 -0.1754  0.6186  0.1312
   40CHL1   H14 4083   3.581  -0.011   6.342  2.0066 -1.5942 -0.2661
   40CHL1   C15 4084   3.410  -0.077   6.227  0.1203 -0.2217 -0.3569
   40CHL1  H15A 4085   3.315  -0.132   6.243  0.4520 -0.9932 -0.9360
   40CHL1  H15B 4086   3.390   0.029   6.200  0.2888 -0.0689  0.1081
   40CHL1   C16 4087   3.488  -0.156   6.120 -0.0353 -0.5012 -0.4916
   40CHL1  H16A 4088   3.417  -0.227   6.073 -1.2068  1.0459 -1.1379
   40CHL1  H16B 4089   3.523  -0.085   6.041  1.6851  2.1702  2.4303
   40CHL1   C17 4090   3.616  -0.212   6.191  0.0547  0.5690 -0.4921
   40CHL1   H17 4091   3.687  -0.127   6.187 -1.7381  2.4238  3.0437
   40CHL1   C13 4092   3.578  -0.223   6.339 -0.7219 -0.7946  0.4062
   40CHL1   C18 4093   3.486  -0.341   6.358 -1.0221  0.4187  1.0301
   40CHL1  H18A 4094   3.453  -0.356   6.463 -1.0415  1.1235  1.1300
   40CHL1  H18B 4095   3.391  -0.332   6.302 -0.4443 -0.0811 -0.0875
   40CHL1  H18C 4096   3.517  -0.437   6.311 -0.9332  0.3879  1.1505
   40CHL1   C12 4097   3.698  -0.228   6.431 -0.0084  0.3978 -0.2609
   40CHL1  H12A 4098   3.733  -0.333   6.420  0.9594  0.3163  2.7140
   40CHL1  H12B 4099   3.792  -0.178   6.398  0.3737 -0.3175 -0.2672
   40CHL1   C11 4100   3.655  -0.204   6.574 -0.0811 -0.3873 -0.4030
   40CHL1  H11A 4101   3.610  -0.295   6.618 -2.2855  0.0569 -1.6086
   40CHL1  H11B 4102   3.745  -0.181   6.635 -1.8253 -0.7184  2.4701
   40CHL1    C9 4103   3.559  -0.085   6.597 -0.0380  0.1952 -0.0337
   40CHL1    H9 4104   3.615   0.008   6.574 -0.7666 -0.0667 -3.3261
   40CHL1   C10 4105   3.511  -0.064   6.747 -0.1990 -0.1876 -0.0695
   40CHL1   C19 4106   3.456  -0.195   6.794  0.5209  0.1077 -0.2047
   40CHL1  H19A 4107   3.393  -0.188   6.885  1.3803 -1.4868  0.5428
   40CHL1  H19B 4108   3.395  -0.240   6.713  0.5646 -0.2616 -0.0361
   40CHL1  H19C 4109   3.535  -0.270   6.814  1.2473  1.0602  0.6046
   40CHL1    C1 4110   3.626  -0.017   6.845  0.5037  0.3191 -0.2000
   40CHL1   H1A 4111   3.695  -0.103   6.853  0.0522  0.0047  0.3834
   40CHL1   H1B 4112   3.672   0.073   6.799 -0.7670  0.4854 -1.2108
   40CHL1    C2 4113   3.580   0.023   6.992 -0.6389 -0.3640  0.5047
   40CHL1   H2A 4114   3.660   0.051   7.065 -1.6948 -0.0439  1.5618
   40CHL1   H2B 4115   3.534  -0.072   7.026  1.8550 -1.8692 -0.0646
   40CHL1   C20 4116   3.683  -0.337   6.134 -0.1048 -0.8486 -0.0984
   40CHL1   H20 4117   3.685  -0.412   6.216  1.0653 -0.4476  0.2424
   40CHL1   C21 4118   3.828  -0.315   6.107 -0.2757 -0.9128  0.1369
   40CHL1  H21A 4119   3.884  -0.260   6.185 -1.3338 -1.1813  1.1123
   40CHL1  H21B 4120   3.835  -0.259   6.011 -2.2781  1.2239  1.1715
   40CHL1  H21C 4121   3.890  -0.407   6.099  0.8341 -0.2809  1.1627
   40CHL1   C22 4122   3.608  -0.411   6.026 -0.2191  0.6322  0.4230
   40CHL1  H22A 4123   3.503  -0.431   6.058 -0.6648  1.1757 -0.6556
   40CHL1  H22B 4124   3.592  -0.362   5.928  0.8212 -0.4579 -0.3183
   40CHL1   C23 4125   3.670  -0.549   5.999  0.3417 -0.2967  0.1759
   40CHL1  H23A 4126   3.753  -0.535   5.927 -0.7440  0.7661 -0.9187
   40CHL1  H23B 4127   3.712  -0.583   6.096 -0.1413 -1.6863 -0.0753
   40CHL1   C24 4128   3.578  -0.653   5.932 -0.0307 -0.1559 -0.1841
   40CHL1  H24A 4129   3.484  -0.655   5.992 -0.6417  0.1270 -1.1024
   40CHL1  H24B 4130   3.536  -0.617   5.836 -0.2801  0.2660  0.0770
   40CHL1   C25 4131   3.648  -0.790   5.918  0.2506  0.1991  0.1309
   40CHL1   H25 4132   3.742  -0.770   5.862 -0.6881  1.9310 -0.9008
   40CHL1   C26 4133   3.675  -0.852   6.051 -0.1838  0.6773  0.0384
   40CHL1  H26A 4134   3.734  -0.945   6.037 -1.1640 -0.2305  1.6318
   40CHL1  H26B 4135   3.733  -0.785   6.119  1.3583 -0.8857  0.3194
   40CHL1  H26C 4136   3.579  -0.881   6.099 -1.7026  1.1484 -2.4961
   40CHL1   C27 4137   3.571  -0.897   5.826 -0.3450 -0.0808  0.1423
   40CHL1  H27A 4138   3.481  -0.950   5.861  0.7176 -2.6625 -0.7767
   40CHL1  H27B 4139   3.556  -0.864   5.721 -0.0191 -1.7590 -0.4498
   40CHL1  H27C 4140   3.651  -0.974   5.822  2.0346  1.9371  3.2765
   41CHL1    C3 4141   0.173   5.672   6.673 -0.2219 -0.0892 -0.1766
   41CHL1    H3 4142   0.270   5.625   6.644 -0.1153  0.7104 -1.1470
   41CHL1    O3 4143   0.144   5.648   6.806 -0.0823 -0.4931 -0.5670
   41CHL1   H3' 4144   0.178   5.725   6.854  2.0444 -0.9945 -1.1307
   41CHL1    C4 4145   0.174   5.826   6.652 -0.5396  0.0442  0.1013
   41CHL1   H4A 4146   0.100   5.875   6.719  1.3229 -0.2731  2.5327
   41CHL1   H4B 4147   0.268   5.852   6.706 -1.0976  1.1909  0.5581
   41CHL1    C5 4148   0.181   5.871   6.510  0.0338  0.8127 -0.0133
   41CHL1    C6 4149   0.286   5.943   6.472  0.0387  0.5747  0.1466
   41CHL1    H6 4150   0.358   5.971   6.550 -2.0452  0.1855  2.3374
   41CHL1    C7 4151   0.294   6.013   6.341  0.1047 -0.4898  0.5816
   41CHL1   H7A 4152   0.296   6.124   6.347 -0.0504 -0.3544 -1.1944
   41CHL1   H7B 4153   0.383   5.978   6.283  0.9372  2.6220 -0.2304
   41CHL1    C8 4154   0.169   5.984   6.246 -0.4562  0.0709 -0.2087
   41CHL1    H8 4155   0.096   6.066   6.260 -0.4878  0.1283 -0.6906
   41CHL1   C14 4156   0.205   6.000   6.101 -0.2944  0.2133 -0.1237
   41CHL1   H14 4157   0.274   5.916   6.079  1.0464  1.0216  0.8173
   41CHL1   C15 4158   0.280   6.127   6.049 -0.4683  0.2171 -0.2152
   41CHL1  H15A 4159   0.242   6.218   6.100  1.1812  1.6121 -1.3461
   41CHL1  H15B 4160   0.386   6.127   6.081 -0.6113  2.1517  0.3584
   41CHL1   C16 4161   0.240   6.133   5.902 -0.5281 -0.7210  0.6864
   41CHL1  H16A 4162   0.188   6.229   5.883  0.0978 -0.4215  0.4475
   41CHL1  H16B 4163   0.336   6.125   5.847  1.3133 -0.0255  3.5692
   41CHL1   C17 4164   0.154   6.012   5.863  0.0637  1.0725 -0.3452
   41CHL1   H17 4165   0.225   5.932   5.832 -0.1118  0.7145  0.1777
   41CHL1   C13 4166   0.093   5.967   5.998  1.1676  0.3086 -0.4192
   41CHL1   C18 4167  -0.022   6.070   6.015 -0.0544 -0.1703 -0.1404
   41CHL1  H18A 4168  -0.103   6.056   5.940 -0.2455  1.9981 -0.4084
   41CHL1  H18B 4169  -0.064   6.077   6.118 -1.5887 -1.0855 -0.6719
   41CHL1  H18C 4170   0.023   6.169   5.992  0.9832 -0.8169 -0.9656
   41CHL1   C12 4171   0.044   5.825   6.015 -0.3507  0.1226 -0.9780
   41CHL1  H12A 4172  -0.049   5.811   5.955  0.8228 -1.4918 -2.5215
   41CHL1  H12B 4173   0.114   5.744   5.986 -1.0216 -0.8098 -0.0808
   41CHL1   C11 4174   0.006   5.802   6.160 -0.5109 -0.0971  0.2402
   41CHL1  H11A 4175  -0.078   5.873   6.175 -0.0277  0.8654 -1.3145
   41CHL1  H11B 4176  -0.032   5.699   6.173 -0.2381 -0.4124 -1.2529
   41CHL1    C9 4177   0.112   5.839   6.264  0.1187 -0.4082 -0.4518
   41CHL1    H9 4178   0.199   5.771   6.247  1.8821  1.2830  1.2858
   41CHL1   C10 4179   0.071   5.811   6.418 -0.6954  0.2827 -0.3947
   41CHL1   C19 4180  -0.057   5.879   6.451  0.1025 -0.6196 -0.5911
   41CHL1  H19A 4181  -0.143   5.834   6.397 -1.0874  1.0598 -0.2182
   41CHL1  H19B 4182  -0.085   5.883   6.558  0.3753  0.4804 -0.5491
   41CHL1  H19C 4183  -0.053   5.984   6.415  0.1160 -1.4588 -3.2304
   41CHL1    C1 4184   0.069   5.658   6.447 -0.3413 -0.0812 -0.0777
   41CHL1   H1A 4185  -0.008   5.607   6.386 -0.6975  1.8117 -1.3076
   41CHL1   H1B 4186   0.170   5.618   6.421  0.4203  1.0644  0.9776
   41CHL1    C2 4187   0.061   5.614   6.591  0.0059  0.7862  0.1021
   41CHL1   H2A 4188   0.063   5.503   6.600 -1.2828  0.8386  1.7236
   41CHL1   H2B 4189  -0.037   5.646   6.632 -0.9610 -1.7526 -0.0175
   41CHL1   C20 4190   0.061   6.038   5.735 -0.8244  1.1220  0.1896
   41CHL1   H20 4191  -0.017   6.106   5.775 -0.1853  0.0303  3.5914
   41CHL1   C21 4192  -0.004   5.909   5.686 -0.0565  0.0485  0.2807
   41CHL1  H21A 4193  -0.079   5.921   5.604 -0.2552  0.0185  0.4556
   41CHL1  H21B 4194  -0.069   5.868   5.766 -0.5183 -0.8994 -0.5502
   41CHL1  H21C 4195   0.068   5.828   5.663 -0.7043 -0.3300 -0.4950
   41CHL1   C22 4196   0.147   6.096   5.614 -0.1916  0.6836  0.0181
   41CHL1  H22A 4197   0.218   6.173   5.650 -0.8665 -0.0570  3.2627
   41CHL1  H22B 4198   0.214   6.017   5.575  1.1919  0.7313  2.1735
   41CHL1   C23 4199   0.067   6.155   5.497 -0.0376  0.0024  0.1016
   41CHL1  H23A 4200   0.137   6.169   5.412  1.1471  1.3749  1.2532
   41CHL1  H23B 4201  -0.007   6.079   5.462 -0.7400  1.2692 -1.2402
   41CHL1   C24 4202   0.004   6.288   5.518  0.3466  0.4152 -0.4574
   41CHL1  H24A 4203  -0.061   6.299   5.607  0.2133 -0.1548 -0.4850
   41CHL1  H24B 4204   0.085   6.360   5.541 -0.5907  1.5998 -0.7411
   41CHL1   C25 4205  -0.078   6.339   5.397 -0.3305 -0.0945  0.6075
   41CHL1   H25 4206  -0.028   6.304   5.305 -0.7293  1.3931 -0.2127
   41CHL1   C26 4207  -0.214   6.265   5.386 -0.1009 -0.6079  0.1194
   41CHL1  H26A 4208  -0.278   6.275   5.476  0.0567  0.1931  0.1556
   41CHL1  H26B 4209  -0.265   6.294   5.291 -0.2549 -1.7866 -0.1720
   41CHL1  H26C 4210  -0.185   6.158   5.380 -0.9015 -0.7749 -2.6114
   41CHL1   C27 4211  -0.104   6.484   5.394 -0.4857  0.4595  0.6391
   41CHL1  H27A 4212  -0.195   6.524   5.345  0.9176  1.6973 -1.1042
   41CHL1  H27B 4213  -0.097   6.526   5.497 -0.2174  1.3426  0.2699
   41CHL1  H27C 4214  -0.020   6.533   5.339 -0.3088 -2.5029 -1.9916
   42CHL1    C3 4215   5.204   1.563   7.178  0.1021  0.1037  0.5513
   42CHL1    H3 4216   5.269   1.644   7.219 -0.0391  0.1042  0.7725
   42CHL1    O3 4217   5.161   1.488   7.287  0.6065  0.4868 -0.1230
   42CHL1   H3' 4218   5.118   1.556   7.340  0.5750  0.8302 -0.5885
   42CHL1    C4 4219   5.081   1.622   7.103 -0.6296  0.0661  0.3647
   42CHL1   H4A 4220   5.013   1.540   7.071  0.9133 -0.3995 -1.9724
   42CHL1   H4B 4221   5.012   1.680   7.168 -1.1506 -1.2555  1.0448
   42CHL1    C5 4222   5.120   1.707   6.983 -0.2644 -0.3385 -0.3097
   42CHL1    C6 4223   5.086   1.832   6.961  0.5967  0.1112  0.0415
   42CHL1    H6 4224   5.037   1.885   7.044 -1.0790 -1.8329  0.3745
   42CHL1    C7 4225   5.108   1.909   6.836  0.3264 -0.2150  0.1815
   42CHL1   H7A 4226   5.013   1.961   6.813 -0.9383 -2.2169  0.6617
   42CHL1   H7B 4227   5.187   1.983   6.862 -0.6379  0.1396  2.2756
   42CHL1    C8 4228   5.153   1.826   6.716 -0.6135 -0.0653 -0.3290
   42CHL1    H8 4229   5.066   1.773   6.671 -0.6576 -1.2560  1.1083
   42CHL1   C14 4230   5.209   1.905   6.597 -0.6915  0.3795  0.8267
   42CHL1   H14 4231   5.290   1.964   6.644 -1.0539 -0.3893  2.4695
   42CHL1   C15 4232   5.122   2.013   6.535  0.7683 -0.4123 -0.4691
   42CHL1  H15A 4233   5.020   1.970   6.532  1.8039 -3.3525  1.5966
   42CHL1  H15B 4234   5.121   2.114   6.581 -2.5511 -0.9983  1.0061
   42CHL1   C16 4235   5.180   2.032   6.392  0.2780 -0.2752 -1.2675
   42CHL1  H16A 4236   5.106   1.998   6.317  0.0252 -2.0991 -0.2219
   42CHL1  H16B 4237   5.209   2.138   6.374 -0.9976 -0.0151 -1.8795
   42CHL1   C17 4238   5.303   1.938   6.384 -0.6170  0.1379  0.1750
   42CHL1   H17 4239   5.396   1.984   6.423  0.1749  0.6453 -2.1645
   42CHL1   C13 4240   5.264   1.823   6.479 -0.2427  0.4547 -0.1192
   42CHL1   C18 4241   5.157   1.739   6.408  0.5541  0.3751  0.7503
   42CHL1  H18A 4242   5.187   1.678   6.320  0.8447  2.8552 -0.9627
   42CHL1  H18B 4243   5.112   1.667   6.479 -0.1804 -1.9765 -1.9071
   42CHL1  H18C 4244   5.075   1.807   6.376  0.6098  0.9426  1.7672
   42CHL1   C12 4245   5.375   1.731   6.537 -0.1982 -0.2035  1.0663
   42CHL1  H12A 4246   5.411   1.659   6.461 -1.8647 -2.1443  1.9919
   42CHL1  H12B 4247   5.462   1.797   6.556 -0.6661  0.9856 -0.7184
   42CHL1   C11 4248   5.320   1.640   6.649  0.3731  0.2047 -0.6406
   42CHL1  H11A 4249   5.247   1.570   6.603  1.5464  0.1731 -2.5342
   42CHL1  H11B 4250   5.399   1.571   6.687  1.5621  1.4098 -0.8428
   42CHL1    C9 4251   5.253   1.716   6.766 -0.2925 -0.1386 -0.3473
   42CHL1    H9 4252   5.335   1.780   6.806 -1.0495  1.7157 -1.6581
   42CHL1   C10 4253   5.204   1.624   6.877  0.4635  0.2432  0.4303
   42CHL1   C19 4254   5.135   1.500   6.820  0.3984  0.0231  0.2062
   42CHL1  H19A 4255   5.202   1.427   6.769 -0.8470 -0.5564 -0.6655
   42CHL1  H19B 4256   5.088   1.438   6.900  0.5664 -2.9667 -1.8285
   42CHL1  H19C 4257   5.057   1.529   6.746  2.2917  1.7260 -1.2173
   42CHL1    C1 4258   5.326   1.561   6.952  0.2787 -0.3367  0.1503
   42CHL1   H1A 4259   5.380   1.494   6.882  0.9915  1.0776 -0.6788
   42CHL1   H1B 4260   5.404   1.631   6.987  0.3877 -0.2638 -0.2427
   42CHL1    C2 4261   5.299   1.484   7.088  0.2676  0.2882 -0.5725
   42CHL1   H2A 4262   5.399   1.467   7.131  1.3014  1.1630 -2.4785
   42CHL1   H2B 4263   5.257   1.385   7.062 -0.0045  1.0356 -3.2782
   42CHL1   C20 4264   5.335   1.899   6.237  0.5498 -0.0076 -0.4403
   42CHL1   H20 4265   5.246   1.846   6.197 -0.0975 -0.7210  1.7778
   42CHL1   C21 4266   5.465   1.814   6.232  0.3163  0.5500  0.2541
   42CHL1  H21A 4267   5.545   1.864   6.291 -0.7675  0.2068  2.1106
   42CHL1  H21B 4268   5.513   1.803   6.133  2.0162  1.9088  0.8736
   42CHL1  H21C 4269   5.440   1.712   6.267 -0.2712  0.5184 -0.2400
   42CHL1   C22 4270   5.360   2.030   6.156  0.0973 -0.0863 -0.3015
   42CHL1  H22A 4271   5.278   2.103   6.176  0.8717  0.0292  2.9079
   42CHL1  H22B 4272   5.453   2.078   6.195 -0.9988  2.0113 -0.0878
   42CHL1   C23 4273   5.380   2.021   5.996  0.0164  0.2254 -0.2271
   42CHL1  H23A 4274   5.474   1.967   5.975  0.3955  0.9167 -0.3234
   42CHL1  H23B 4275   5.299   1.951   5.968 -1.3638  1.8299 -0.4126
   42CHL1   C24 4276   5.370   2.162   5.934  0.5108  0.2238  0.3996
   42CHL1  H24A 4277   5.278   2.207   5.976  0.3772 -1.0087  1.5022
   42CHL1  H24B 4278   5.452   2.225   5.976 -1.3978  1.5553  2.3403
   42CHL1   C25 4279   5.366   2.172   5.779  0.5005  0.6243 -1.0439
   42CHL1   H25 4280   5.441   2.098   5.742  0.9468  0.6285 -0.1568
   42CHL1   C26 4281   5.220   2.134   5.729 -0.4807 -0.6326 -0.1317
   42CHL1  H26A 4282   5.142   2.204   5.766 -1.2183 -1.3458 -0.3141
   42CHL1  H26B 4283   5.211   2.113   5.621 -1.9598 -0.0312 -0.1479
   42CHL1  H26C 4284   5.210   2.033   5.774  0.5011 -0.8358 -0.3376
   42CHL1   C27 4285   5.384   2.312   5.726  0.9488  0.5494 -1.0185
   42CHL1  H27A 4286   5.301   2.382   5.748  0.6130 -0.1666  0.0688
   42CHL1  H27B 4287   5.479   2.352   5.769  0.0344  1.5913  0.1213
   42CHL1  H27C 4288   5.394   2.312   5.616  0.0348  0.9351 -1.1102
   43CHL1    C3 4289   6.269   2.781   7.389  0.6424  0.8417  0.6559
   43CHL1    H3 4290   6.267   2.680   7.343  2.2761  1.6379 -1.3077
   43CHL1    O3 4291   6.266   2.777   7.532  0.0618 -0.3739 -0.3744
   43CHL1   H3' 4292   6.173   2.757   7.547  0.4438 -1.6460  0.4059
   43CHL1    C4 4293   6.400   2.852   7.341  0.0989  0.3798  0.2854
   43CHL1   H4A 4294   6.411   2.953   7.386  1.8531 -0.5938  2.2394
   43CHL1   H4B 4295   6.490   2.802   7.383 -0.7911  0.4713  2.4454
   43CHL1    C5 4296   6.402   2.875   7.191  0.2299 -0.1277  0.0627
   43CHL1    C6 4297   6.498   2.814   7.112 -0.0469 -1.2970  0.3655
   43CHL1    H6 4298   6.567   2.748   7.165 -0.7533 -0.9995  1.6884
   43CHL1    C7 4299   6.518   2.851   6.962 -0.2796  0.1857  0.0359
   43CHL1   H7A 4300   6.621   2.876   6.928 -0.7549  0.5308 -1.1930
   43CHL1   H7B 4301   6.481   2.772   6.894  2.8554 -0.1384 -1.4412
   43CHL1    C8 4302   6.427   2.970   6.918  0.4538 -0.0109 -0.3079
   43CHL1    H8 4303   6.473   3.065   6.952  0.2869 -0.0173 -0.0625
   43CHL1   C14 4304   6.403   2.973   6.767  0.1711 -0.3299  0.2456
   43CHL1   H14 4305   6.337   2.886   6.746 -0.6353  0.5171 -0.8823
   43CHL1   C15 4306   6.525   2.959   6.675 -0.5988  0.0417  0.2511
   43CHL1  H15A 4307   6.611   3.016   6.716  0.0736 -0.1652 -0.8216
   43CHL1  H15B 4308   6.560   2.854   6.667  2.2128  0.9235 -0.0347
   43CHL1   C16 4309   6.484   3.013   6.538 -0.7199  0.8195  0.0613
   43CHL1  H16A 4310   6.557   3.094   6.515 -2.3003  1.9458 -1.2363
   43CHL1  H16B 4311   6.486   2.937   6.457 -1.9389 -0.7164  1.4015
   43CHL1   C17 4312   6.339   3.060   6.559  0.3150 -0.1655  0.3203
   43CHL1   H17 4313   6.275   2.971   6.541  0.4391 -0.4229  1.1223
   43CHL1   C13 4314   6.321   3.086   6.712  0.0394 -0.4058  0.2483
   43CHL1   C18 4315   6.380   3.224   6.751 -0.4643  0.1469 -0.4575
   43CHL1  H18A 4316   6.462   3.241   6.679  0.2090  0.7657  0.4335
   43CHL1  H18B 4317   6.315   3.314   6.741  1.0161  1.4158  0.8188
   43CHL1  H18C 4318   6.424   3.220   6.853  0.1081  2.7998 -0.5384
   43CHL1   C12 4319   6.182   3.076   6.767 -0.6383  0.8792 -0.5666
   43CHL1  H12A 4320   6.116   3.161   6.739 -2.5263 -1.2310 -2.8642
   43CHL1  H12B 4321   6.132   2.985   6.729  0.2200  0.6780 -1.2409
   43CHL1   C11 4322   6.191   3.077   6.925 -0.3549  0.3154  0.1826
   43CHL1  H11A 4323   6.222   3.178   6.958  1.7626 -0.3831  0.4563
   43CHL1  H11B 4324   6.085   3.063   6.955 -0.9133 -0.1864 -1.8034
   43CHL1    C9 4325   6.286   2.963   6.979  0.2014 -0.3015 -0.6748
   43CHL1    H9 4326   6.250   2.865   6.942 -0.8284 -0.8709  1.6740
   43CHL1   C10 4327   6.285   2.955   7.134 -0.7453 -0.4864  0.4377
   43CHL1   C19 4328   6.297   3.102   7.185  0.9872  1.0970 -0.1779
   43CHL1  H19A 4329   6.200   3.156   7.176  0.3412 -0.0151 -0.1352
   43CHL1  H19B 4330   6.310   3.122   7.294 -0.5190  4.1702 -0.4636
   43CHL1  H19C 4331   6.372   3.157   7.125  1.4724  0.0994 -0.5182
   43CHL1    C1 4332   6.152   2.890   7.191 -0.2609 -0.2513 -0.1185
   43CHL1   H1A 4333   6.068   2.955   7.161 -0.0489  0.2534  0.3522
   43CHL1   H1B 4334   6.144   2.791   7.141  0.7507 -0.4249  0.0258
   43CHL1    C2 4335   6.144   2.858   7.342  0.1594 -0.2335  0.0935
   43CHL1   H2A 4336   6.047   2.816   7.378 -0.4290  0.3872 -0.7216
   43CHL1   H2B 4337   6.135   2.954   7.396 -1.3675  0.7086 -1.7081
   43CHL1   C20 4338   6.305   3.175   6.453  0.1558 -0.7605  0.2703
   43CHL1   H20 4339   6.384   3.253   6.447 -1.3387  0.7278 -1.2036
   43CHL1   C21 4340   6.166   3.239   6.485 -0.7407 -0.5554 -0.0480
   43CHL1  H21A 4341   6.142   3.322   6.415  0.8636 -0.5848 -0.6791
   43CHL1  H21B 4342   6.161   3.295   6.581 -3.1957 -0.6034 -0.0958
   43CHL1  H21C 4343   6.086   3.163   6.495  0.4102 -1.6310  1.4382
   43CHL1   C22 4344   6.305   3.107   6.313 -0.2474 -0.1335  0.4776
   43CHL1  H22A 4345   6.410   3.078   6.292  0.5003  0.8841  2.4738
   43CHL1  H22B 4346   6.246   3.013   6.322  0.5166 -0.6300  0.3709
   43CHL1   C23 4347   6.247   3.200   6.201  0.7903  0.3883 -0.3331
   43CHL1  H23A 4348   6.144   3.233   6.228  0.6560 -0.9662  0.9755
   43CHL1  H23B 4349   6.308   3.292   6.194 -1.2031  1.8114  0.1103
   43CHL1   C24 4350   6.255   3.137   6.061 -0.6949  0.9130 -0.3127
   43CHL1  H24A 4351   6.359   3.098   6.064 -1.3381 -0.8392  2.6855
   43CHL1  H24B 4352   6.184   3.052   6.052  1.3230 -0.9803  0.7744
   43CHL1   C25 4353   6.239   3.243   5.949  0.3791 -0.1972  0.2034
   43CHL1   H25 4354   6.315   3.323   5.962 -2.2469  2.8420 -1.4468
   43CHL1   C26 4355   6.266   3.181   5.805 -0.1908 -0.4729  0.5104
   43CHL1  H26A 4356   6.183   3.111   5.781 -1.2699  0.5734  1.0361
   43CHL1  H26B 4357   6.275   3.258   5.726 -2.2606 -1.6342 -0.9366
   43CHL1  H26C 4358   6.360   3.123   5.807 -0.8770 -1.6429  0.0783
   43CHL1   C27 4359   6.102   3.312   5.954 -0.0706  0.2741 -1.0676
   43CHL1  H27A 4360   6.103   3.374   6.046  1.7186  0.6200 -1.2870
   43CHL1  H27B 4361   6.081   3.384   5.871 -4.0108  0.5947  0.0022
   43CHL1  H27C 4362   6.019   3.239   5.954  0.4873 -0.4461  1.4995
   44CHL1    C3 4363   6.231   4.822   7.072  0.2344  0.0905 -0.2120
   44CHL1    H3 4364   6.126   4.810   7.107  0.6260  0.1543  1.0271
   44CHL1    O3 4365   6.315   4.817   7.186  0.5554  0.0278 -0.3393
   44CHL1   H3' 4366   6.385   4.879   7.166 -1.2143  1.3888 -2.7524
   44CHL1    C4 4367   6.276   4.717   6.974 -0.0004  0.1741  0.3978
   44CHL1   H4A 4368   6.386   4.733   6.970 -0.3118  2.5046 -1.2434
   44CHL1   H4B 4369   6.236   4.620   7.008 -0.7325  0.5538  0.6294
   44CHL1    C5 4370   6.222   4.748   6.835 -0.8258 -0.2950  0.7204
   44CHL1    C6 4371   6.175   4.650   6.763 -0.0478 -0.5854  0.8360
   44CHL1    H6 4372   6.166   4.553   6.815  2.2493 -0.0409  2.4347
   44CHL1    C7 4373   6.123   4.660   6.621  0.2133 -0.0509 -0.1219
   44CHL1   H7A 4374   6.153   4.574   6.557  0.2004 -0.8476  0.9121
   44CHL1   H7B 4375   6.012   4.664   6.623  0.2380  4.1897  0.6973
   44CHL1    C8 4376   6.182   4.780   6.549 -0.1855  0.5882 -0.6773
   44CHL1    H8 4377   6.289   4.752   6.536 -1.0988 -4.1589  0.2604
   44CHL1   C14 4378   6.123   4.806   6.415 -0.2341  0.8989  0.5117
   44CHL1   H14 4379   6.017   4.837   6.429  0.2809  2.1838  1.7110
   44CHL1   C15 4380   6.124   4.683   6.321 -0.2979 -0.6735 -0.1592
   44CHL1  H15A 4381   6.224   4.634   6.319  2.2609  3.9401  0.0309
   44CHL1  H15B 4382   6.046   4.614   6.358 -0.7184 -0.8002 -1.2471
   44CHL1   C16 4383   6.085   4.744   6.184 -0.3271  0.1196  1.1818
   44CHL1  H16A 4384   6.147   4.693   6.108  0.4164  1.5671  0.8037
   44CHL1  H16B 4385   5.975   4.728   6.169 -0.3715  2.0912 -1.0796
   44CHL1   C17 4386   6.108   4.894   6.197  0.0210 -0.3735 -0.0068
   44CHL1   H17 4387   6.010   4.945   6.212 -1.2464 -2.9744  1.0333
   44CHL1   C13 4388   6.182   4.918   6.331 -0.2255  0.0601 -0.1083
   44CHL1   C18 4389   6.336   4.895   6.311 -0.3227  0.0844  0.6723
   44CHL1  H18A 4390   6.385   4.891   6.411 -1.4325 -1.0720  1.2015
   44CHL1  H18B 4391   6.360   4.798   6.263 -2.1687  0.8424 -2.0122
   44CHL1  H18C 4392   6.378   4.977   6.249 -1.4410 -0.9553 -1.6018
   44CHL1   C12 4393   6.160   5.042   6.418 -0.2861 -0.2088 -0.7358
   44CHL1  H12A 4394   6.196   5.135   6.369 -0.0045 -0.0910 -0.3110
   44CHL1  H12B 4395   6.050   5.057   6.430 -0.2923  0.3372 -1.3545
   44CHL1   C11 4396   6.225   5.032   6.557  0.3363 -0.5973  0.1719
   44CHL1  H11A 4397   6.335   5.029   6.537  0.6011  0.4078  1.2887
   44CHL1  H11B 4398   6.190   5.121   6.614 -1.3229 -0.6969 -0.6477
   44CHL1    C9 4399   6.174   4.905   6.635  0.1845  0.0614  0.4872
   44CHL1    H9 4400   6.064   4.922   6.641 -0.2364 -1.3712 -1.9380
   44CHL1   C10 4401   6.233   4.888   6.781 -0.3938 -0.5118 -0.5546
   44CHL1   C19 4402   6.378   4.923   6.768  0.3053  0.2721 -0.0171
   44CHL1  H19A 4403   6.427   4.849   6.701  0.1208 -2.1403  2.3292
   44CHL1  H19B 4404   6.399   5.026   6.734 -1.7907  0.4690 -0.8380
   44CHL1  H19C 4405   6.436   4.915   6.863 -1.4853 -2.1040  0.9885
   44CHL1    C1 4406   6.168   4.981   6.881 -0.5149  0.3634 -0.0523
   44CHL1   H1A 4407   6.169   5.087   6.848 -0.1828  0.8838  1.5423
   44CHL1   H1B 4408   6.068   4.934   6.893  0.3078 -1.7304 -0.9086
   44CHL1    C2 4409   6.227   4.967   7.024  0.3011 -0.0971  0.0898
   44CHL1   H2A 4410   6.160   5.025   7.092 -0.8459 -1.4968  0.1959
   44CHL1   H2B 4411   6.328   5.011   7.019  0.1544  0.2028 -0.2786
   44CHL1   C20 4412   6.161   4.941   6.063 -0.7741  0.1793 -0.2416
   44CHL1   H20 4413   6.257   4.890   6.042 -1.6695 -1.3569 -0.7999
   44CHL1   C21 4414   6.172   5.094   6.078  0.2329 -0.3022  0.4368
   44CHL1  H21A 4415   6.230   5.122   6.169 -0.7152 -0.0907  0.9940
   44CHL1  H21B 4416   6.075   5.142   6.103 -0.4159 -2.0977  1.6659
   44CHL1  H21C 4417   6.214   5.142   5.987 -1.8978  2.5986  0.8504
   44CHL1   C22 4418   6.075   4.909   5.944  0.0775 -0.1071  0.8574
   44CHL1  H22A 4419   6.060   4.801   5.924  1.1158 -0.2309  0.6845
   44CHL1  H22B 4420   5.979   4.963   5.957  0.6902  1.3227 -0.3112
   44CHL1   C23 4421   6.144   4.965   5.817 -0.1456 -0.8289 -0.2309
   44CHL1  H23A 4422   6.136   5.074   5.797 -0.1621 -0.7968 -0.0475
   44CHL1  H23B 4423   6.253   4.943   5.821 -0.4405 -2.1148  1.4383
   44CHL1   C24 4424   6.099   4.893   5.686  0.0212 -0.1092 -0.2717
   44CHL1  H24A 4425   6.113   4.784   5.701 -1.8653 -0.5439 -1.3761
   44CHL1  H24B 4426   5.990   4.911   5.679  0.2350  1.6070  0.3000
   44CHL1   C25 4427   6.158   4.936   5.557 -0.4540  0.3813  0.3506
   44CHL1   H25 4428   6.267   4.941   5.579 -0.5210 -1.1640  1.1509
   44CHL1   C26 4429   6.157   4.824   5.459 -0.2031 -0.0188  0.3465
   44CHL1  H26A 4430   6.201   4.729   5.497 -0.7105 -0.6626 -0.6374
   44CHL1  H26B 4431   6.057   4.793   5.422 -0.1953  0.9328 -0.5052
   44CHL1  H26C 4432   6.222   4.854   5.374 -0.6018  2.2735  0.7898
   44CHL1   C27 4433   6.102   5.065   5.496 -0.5907 -0.2118  0.1570
   44CHL1  H27A 4434   5.995   5.059   5.467 -0.1669 -0.6627 -1.3791
   44CHL1  H27B 4435   6.119   5.150   5.566 -0.8688 -0.1740  0.1791
   44CHL1  H27C 4436   6.165   5.094   5.409 -1.1525 -1.1228 -0.5596
   45CHL1    C3 4437   0.595   4.829   6.786  0.1083 -0.6005  0.3924
   45CHL1    H3 4438   0.681   4.767   6.753 -0.0872  0.1186 -1.6044
   45CHL1    O3 4439   0.610   4.857   6.923  0.5126 -0.0419  0.2250
   45CHL1   H3' 4440   0.531   4.906   6.947  0.5887  0.2814 -0.1754
   45CHL1    C4 4441   0.596   4.956   6.693  0.4473  0.9993  0.3097
   45CHL1   H4A 4442   0.528   5.026   6.745  0.4163  0.2039  1.3706
   45CHL1   H4B 4443   0.696   5.003   6.709  1.6635 -1.0340 -0.8509
   45CHL1    C5 4444   0.567   4.937   6.551  0.0603 -0.4636  0.0703
   45CHL1    C6 4445   0.646   4.975   6.454 -0.1561 -0.5736  0.5176
   45CHL1    H6 4446   0.743   5.024   6.471  0.8829 -1.6000 -1.9892
   45CHL1    C7 4447   0.620   4.951   6.307 -0.0850  0.1402 -0.2262
   45CHL1   H7A 4448   0.658   5.028   6.236  3.1241 -1.1058 -0.0546
   45CHL1   H7B 4449   0.672   4.857   6.280 -0.2484 -0.4420  1.3899
   45CHL1    C8 4450   0.473   4.913   6.276  0.2491  0.2207 -0.2933
   45CHL1    H8 4451   0.412   5.005   6.284  0.3209  0.2673 -0.2864
   45CHL1   C14 4452   0.464   4.866   6.133  0.5505  0.3287  0.6582
   45CHL1   H14 4453   0.530   4.777   6.126  0.8244  0.6007 -0.5281
   45CHL1   C15 4454   0.521   4.957   6.021 -0.0682  0.6340  0.5636
   45CHL1  H15A 4455   0.513   5.066   6.041 -0.7961  0.2708  2.5480
   45CHL1  H15B 4456   0.628   4.931   6.013 -0.0150  1.3835 -2.0924
   45CHL1   C16 4457   0.438   4.913   5.896  0.4885  0.3041  0.9740
   45CHL1  H16A 4458   0.379   5.001   5.861 -0.9650 -0.6832  0.8393
   45CHL1  H16B 4459   0.501   4.876   5.812  0.9380 -1.5924  2.0970
   45CHL1   C17 4460   0.339   4.796   5.943  0.4153 -0.2889 -0.2199
   45CHL1   H17 4461   0.387   4.696   5.935 -0.4614 -0.5843 -2.3727
   45CHL1   C13 4462   0.316   4.823   6.087  0.1703 -0.3174  0.4393
   45CHL1   C18 4463   0.227   4.950   6.100  0.4617 -0.3795 -0.1789
   45CHL1  H18A 4464   0.264   5.037   6.041  1.1795 -0.6252 -0.1009
   45CHL1  H18B 4465   0.120   4.935   6.078  0.2107 -0.5530  1.1107
   45CHL1  H18C 4466   0.233   4.987   6.205 -0.3894 -1.4632  0.2609
   45CHL1   C12 4467   0.262   4.715   6.180  0.0918  0.5475  0.0916
   45CHL1  H12A 4468   0.152   4.699   6.176  0.3415 -1.6812  0.3955
   45CHL1  H12B 4469   0.305   4.616   6.152 -0.9896  0.1733 -0.2822
   45CHL1   C11 4470   0.280   4.757   6.327  0.1889  0.7232  0.2294
   45CHL1  H11A 4471   0.208   4.839   6.345 -0.8925 -0.4563  1.5368
   45CHL1  H11B 4472   0.253   4.673   6.395 -0.4108  0.4238 -0.3612
   45CHL1    C9 4473   0.418   4.806   6.378  0.3156 -0.0586  0.5388
   45CHL1    H9 4474   0.494   4.725   6.375 -1.7256 -2.0568  0.2027
   45CHL1   C10 4475   0.437   4.861   6.529 -0.4921  0.0138 -0.2191
   45CHL1   C19 4476   0.320   4.955   6.565  0.5770  0.5238 -0.1090
   45CHL1  H19A 4477   0.307   5.034   6.489  0.9533  0.4520 -0.2508
   45CHL1  H19B 4478   0.231   4.888   6.559 -0.8128  2.2946  0.0945
   45CHL1  H19C 4479   0.330   5.005   6.664 -0.5940  0.6162 -0.0301
   45CHL1    C1 4480   0.432   4.737   6.620 -0.4798  0.7498 -0.2966
   45CHL1   H1A 4481   0.334   4.689   6.596 -0.5078  0.1036  0.9854
   45CHL1   H1B 4482   0.506   4.665   6.579 -1.5990 -1.3352  1.1119
   45CHL1    C2 4483   0.452   4.758   6.770 -0.1132  0.4131  0.0889
   45CHL1   H2A 4484   0.451   4.664   6.829  3.3233  0.7502  0.9052
   45CHL1   H2B 4485   0.384   4.827   6.824  1.7788  1.4031  1.3444
   45CHL1   C20 4486   0.219   4.785   5.839 -0.3099  0.1206 -0.2756
   45CHL1   H20 4487   0.166   4.882   5.852  0.7494  0.6814 -0.0515
   45CHL1   C21 4488   0.121   4.676   5.883  0.1499  0.1834  0.6616
   45CHL1  H21A 4489   0.164   4.589   5.937  0.7635  1.0237  1.5484
   45CHL1  H21B 4490   0.059   4.645   5.796  1.6644  0.0610 -0.4184
   45CHL1  H21C 4491   0.062   4.723   5.964 -1.7669 -0.9518 -0.0129
   45CHL1   C22 4492   0.260   4.775   5.698  0.1533  0.5415  0.4612
   45CHL1  H22A 4493   0.173   4.754   5.632  0.9942 -0.2539 -0.4315
   45CHL1  H22B 4494   0.303   4.872   5.666 -1.1247  0.8063 -0.5108
   45CHL1   C23 4495   0.365   4.664   5.667 -0.3064  0.1756 -0.2245
   45CHL1  H23A 4496   0.435   4.645   5.751  0.4997 -3.1100 -1.4570
   45CHL1  H23B 4497   0.313   4.568   5.646 -0.2086  0.1023 -0.1304
   45CHL1   C24 4498   0.456   4.714   5.551  0.5800  0.0723 -0.1760
   45CHL1  H24A 4499   0.393   4.706   5.460 -1.5548  1.7541  1.0713
   45CHL1  H24B 4500   0.498   4.813   5.576 -0.1135  0.4940 -0.6683
   45CHL1   C25 4501   0.571   4.621   5.509 -0.5029  0.4388  0.5083
   45CHL1   H25 4502   0.534   4.517   5.505 -0.4136  0.4351 -0.6921
   45CHL1   C26 4503   0.628   4.647   5.368 -0.5908 -0.1516  0.6511
   45CHL1  H26A 4504   0.666   4.750   5.354  0.2370 -0.5052  0.2366
   45CHL1  H26B 4505   0.703   4.574   5.330 -2.7946 -1.8627 -0.7007
   45CHL1  H26C 4506   0.541   4.634   5.300 -0.6174  0.2659  0.6051
   45CHL1   C27 4507   0.683   4.631   5.602 -0.9670 -0.1669 -0.5536
   45CHL1  H27A 4508   0.717   4.736   5.612  0.1129 -0.6151  0.7332
   45CHL1  H27B 4509   0.649   4.589   5.699 -0.5789  1.3787  0.2974
   45CHL1  H27C 4510   0.776   4.583   5.565  1.0413  2.7483  0.2935
   46CHL1    C3 4511   1.592   0.615   7.109  0.4856 -0.1517 -0.4201
   46CHL1    H3 4512   1.699   0.600   7.135  0.3112  0.2417  0.5543
   46CHL1    O3 4513   1.522   0.622   7.234  0.6288 -0.1501  0.7115
   46CHL1   H3' 4514   1.438   0.582   7.214  0.3406  0.7154  0.1068
   46CHL1    C4 4515   1.586   0.749   7.040 -0.0978  0.4731  0.1614
   46CHL1   H4A 4516   1.480   0.779   7.053 -0.5870 -2.0244  3.0081
   46CHL1   H4B 4517   1.633   0.829   7.099 -0.3352 -0.6650  1.9588
   46CHL1    C5 4518   1.628   0.753   6.897  0.1387  0.4276  0.1203
   46CHL1    C6 4519   1.715   0.844   6.857  0.4320  0.0197  0.2849
   46CHL1    H6 4520   1.761   0.914   6.929  1.4526  1.6663 -1.8486
   46CHL1    C7 4521   1.761   0.859   6.712  0.4100 -0.0386  0.5693
   46CHL1   H7A 4522   1.771   0.965   6.679 -3.3586  0.5518  0.8637
   46CHL1   H7B 4523   1.864   0.824   6.691  0.3637 -1.3892  2.3744
   46CHL1    C8 4524   1.660   0.782   6.618 -0.8826 -0.4659  0.3296
   46CHL1    H8 4525   1.572   0.850   6.616 -0.5486 -0.0233  0.3480
   46CHL1   C14 4526   1.728   0.771   6.484  0.3032 -0.9574 -0.1166
   46CHL1   H14 4527   1.816   0.703   6.495  1.7479  0.1279 -3.6389
   46CHL1   C15 4528   1.783   0.902   6.425  0.2053 -0.1841 -0.2054
   46CHL1  H15A 4529   1.711   0.985   6.442  0.8815  0.3425  0.0992
   46CHL1  H15B 4530   1.882   0.928   6.467 -1.3313 -0.0733  3.7036
   46CHL1   C16 4531   1.785   0.879   6.265 -0.3339 -0.5786 -0.4838
   46CHL1  H16A 4532   1.721   0.957   6.219 -1.8480 -0.6582  1.3297
   46CHL1  H16B 4533   1.889   0.898   6.231 -0.3140  1.4073  0.5362
   46CHL1   C17 4534   1.736   0.735   6.250  0.8557  0.4055 -0.0534
   46CHL1   H17 4535   1.820   0.663   6.258 -0.8001 -1.4507  1.9239
   46CHL1   C13 4536   1.645   0.710   6.375 -0.5132  0.2442 -0.3883
   46CHL1   C18 4537   1.514   0.786   6.353  0.0950  0.0057  0.0489
   46CHL1  H18A 4538   1.541   0.887   6.317  1.2484  0.0275  0.9093
   46CHL1  H18B 4539   1.451   0.734   6.278  1.8275 -0.2585 -1.2863
   46CHL1  H18C 4540   1.455   0.784   6.448  0.6716 -1.5922  0.4058
   46CHL1   C12 4541   1.624   0.558   6.424 -0.1161  0.4223  0.3538
   46CHL1  H12A 4542   1.549   0.519   6.352 -0.3052 -0.0184  0.7885
   46CHL1  H12B 4543   1.726   0.517   6.412 -1.0795 -1.5747 -1.8854
   46CHL1   C11 4544   1.559   0.558   6.561  0.3177  0.1747  1.3500
   46CHL1  H11A 4545   1.453   0.590   6.550  0.2153 -0.5830 -0.0860
   46CHL1  H11B 4546   1.554   0.451   6.592 -2.7510 -0.1580  0.0898
   46CHL1    C9 4547   1.634   0.640   6.668  0.2186  0.6136  0.5102
   46CHL1    H9 4548   1.729   0.583   6.666 -1.2869 -2.0622 -1.2399
   46CHL1   C10 4549   1.568   0.646   6.808  0.1428 -0.4858 -0.0266
   46CHL1   C19 4550   1.413   0.671   6.799 -0.0127 -0.0145 -0.6467
   46CHL1  H19A 4551   1.379   0.753   6.733 -1.2940 -0.6996 -0.8816
   46CHL1  H19B 4552   1.374   0.580   6.747 -1.1638 -1.4474  2.4660
   46CHL1  H19C 4553   1.365   0.685   6.898  1.1553  1.1891 -0.2289
   46CHL1    C1 4554   1.590   0.505   6.878  0.3246 -0.0530  0.6631
   46CHL1   H1A 4555   1.529   0.439   6.813  1.1906  0.6372 -0.9179
   46CHL1   H1B 4556   1.697   0.480   6.864 -0.3070 -1.5047 -2.3131
   46CHL1    C2 4557   1.535   0.504   7.023 -0.2130 -0.1021 -0.2250
   46CHL1   H2A 4558   1.531   0.409   7.080 -3.4611 -0.8069 -1.4116
   46CHL1   H2B 4559   1.426   0.524   7.019  0.0221  1.2538 -0.6015
   46CHL1   C20 4560   1.677   0.715   6.108 -0.0243 -0.1487  0.3717
   46CHL1   H20 4561   1.594   0.787   6.093 -0.8876 -0.9228  1.2874
   46CHL1   C21 4562   1.627   0.572   6.091 -0.0602  0.0916 -0.1826
   46CHL1  H21A 4563   1.593   0.553   5.987  0.5323 -2.7575  0.0699
   46CHL1  H21B 4564   1.537   0.555   6.153 -1.3668  0.3096 -1.9466
   46CHL1  H21C 4565   1.703   0.499   6.127 -2.1396 -2.4699 -0.7307
   46CHL1   C22 4566   1.778   0.744   5.990  0.7152 -1.0970  0.6933
   46CHL1  H22A 4567   1.872   0.756   6.049 -0.0839  1.0464  1.6591
   46CHL1  H22B 4568   1.786   0.656   5.922 -1.3983  0.3449 -1.5935
   46CHL1   C23 4569   1.739   0.880   5.910  0.4745  1.1947  0.6730
   46CHL1  H23A 4570   1.638   0.872   5.865  1.0203  0.7140 -0.5144
   46CHL1  H23B 4571   1.738   0.956   5.991  1.5571 -0.1175  1.9762
   46CHL1   C24 4572   1.830   0.905   5.787 -0.1558 -1.1452  0.4895
   46CHL1  H24A 4573   1.803   1.006   5.750 -3.2669 -2.3331 -0.7891
   46CHL1  H24B 4574   1.935   0.904   5.825  0.4345  1.4004 -0.8250
   46CHL1   C25 4575   1.819   0.812   5.669 -0.1050  0.4907  0.2155
   46CHL1   H25 4576   1.831   0.707   5.703 -3.6157 -0.0094  0.3604
   46CHL1   C26 4577   1.670   0.808   5.622  0.0729 -0.6430  0.7272
   46CHL1  H26A 4578   1.670   0.751   5.527  2.7906 -1.6506  1.2241
   46CHL1  H26B 4579   1.607   0.745   5.689 -2.1630 -1.2326 -1.7633
   46CHL1  H26C 4580   1.628   0.911   5.620 -0.1030 -0.6895  1.6466
   46CHL1   C27 4581   1.918   0.854   5.551  0.8077  0.6102 -0.4600
   46CHL1  H27A 4582   1.903   0.785   5.465 -0.4205 -0.5709  0.6550
   46CHL1  H27B 4583   1.891   0.958   5.522  1.4381  1.4258  1.6913
   46CHL1  H27C 4584   2.020   0.865   5.593  1.2374 -1.6441 -0.8290
   47CHL1    C3 4585   2.860   1.147   7.277  0.3291 -0.1374 -0.0799
   47CHL1    H3 4586   2.808   1.238   7.240  0.1188 -0.2958 -0.1792
   47CHL1    O3 4587   2.889   1.167   7.414  0.6312  0.2499 -0.0834
   47CHL1   H3' 4588   2.948   1.243   7.412 -1.3512  1.9091  0.5686
   47CHL1    C4 4589   2.758   1.033   7.272 -0.6676  0.4056 -0.2211
   47CHL1   H4A 4590   2.791   0.941   7.325  0.0626  0.5460 -0.4222
   47CHL1   H4B 4591   2.663   1.057   7.325 -0.8232 -0.4689 -0.0825
   47CHL1    C5 4592   2.720   0.992   7.134  0.2472  0.5734  0.1212
   47CHL1    C6 4593   2.595   0.992   7.086  0.2095 -0.5718 -0.0209
   47CHL1    H6 4594   2.518   1.036   7.151  2.9645 -1.6136  4.4371
   47CHL1    C7 4595   2.550   0.935   6.952  0.0640  0.0669  0.9532
   47CHL1   H7A 4596   2.455   0.880   6.971 -1.0011  1.2783 -0.6362
   47CHL1   H7B 4597   2.522   1.016   6.882  0.7287 -0.9784 -0.5826
   47CHL1    C8 4598   2.665   0.848   6.894  0.7317  0.4939 -0.3443
   47CHL1    H8 4599   2.674   0.754   6.953  0.7608  0.0644 -1.0204
   47CHL1   C14 4600   2.632   0.818   6.746 -0.1863 -0.5425 -1.0678
   47CHL1   H14 4601   2.627   0.916   6.693 -1.2266 -0.8749 -1.6140
   47CHL1   C15 4602   2.495   0.756   6.715  0.2389  0.0354  0.9444
   47CHL1  H15A 4603   2.446   0.679   6.779 -1.3451 -0.5865 -0.8962
   47CHL1  H15B 4604   2.425   0.842   6.713  0.8976  0.6060  1.8069
   47CHL1   C16 4605   2.524   0.690   6.572 -0.9910 -1.0712  0.2895
   47CHL1  H16A 4606   2.517   0.581   6.589 -1.4660 -0.6530  3.3692
   47CHL1  H16B 4607   2.451   0.716   6.492  0.8755  0.5578 -0.9898
   47CHL1   C17 4608   2.669   0.722   6.528 -0.2039  0.0296  0.1762
   47CHL1   H17 4609   2.674   0.823   6.482  3.5278  0.3677  0.9763
   47CHL1   C13 4610   2.738   0.740   6.669  0.8100  0.3163 -0.0326
   47CHL1   C18 4611   2.770   0.602   6.733 -0.8341 -0.1420  0.3130
   47CHL1  H18A 4612   2.861   0.550   6.696 -1.0697 -0.7815  0.6146
   47CHL1  H18B 4613   2.795   0.621   6.840 -0.6336 -0.0264  0.2448
   47CHL1  H18C 4614   2.677   0.542   6.748 -1.4508  0.4329 -1.1012
   47CHL1   C12 4615   2.861   0.836   6.673  0.3714 -0.3348 -0.8530
   47CHL1  H12A 4616   2.941   0.790   6.612  1.1718  0.8987 -0.7752
   47CHL1  H12B 4617   2.837   0.927   6.614 -0.4981 -1.4914 -2.3572
   47CHL1   C11 4618   2.908   0.858   6.816 -0.0293  0.0209 -0.2683
   47CHL1  H11A 4619   2.943   0.757   6.848  0.0775  0.0686 -0.2319
   47CHL1  H11B 4620   2.994   0.929   6.814 -1.4143  1.7460 -1.7366
   47CHL1    C9 4621   2.798   0.925   6.902 -0.3096  0.0282  0.3813
   47CHL1    H9 4622   2.780   1.024   6.855 -2.2341 -1.1864 -1.6431
   47CHL1   C10 4623   2.844   0.951   7.042 -0.3201  0.1710 -0.0263
   47CHL1   C19 4624   2.910   0.822   7.093  0.4260  0.2208 -0.8376
   47CHL1  H19A 4625   2.916   0.820   7.204 -0.9233 -1.7569 -0.7433
   47CHL1  H19B 4626   2.869   0.727   7.053  0.6018  0.4650 -1.6066
   47CHL1  H19C 4627   3.018   0.824   7.067  0.7498  0.3606  0.4115
   47CHL1    C1 4628   2.941   1.069   7.045 -0.3322 -0.0471  0.5093
   47CHL1   H1A 4629   3.031   1.062   6.980  0.0985 -1.2832  1.2210
   47CHL1   H1B 4630   2.884   1.151   6.995 -1.5428 -2.0785 -1.6103
   47CHL1    C2 4631   2.986   1.113   7.187  0.0205  0.4147  0.5876
   47CHL1   H2A 4632   3.045   1.206   7.176 -1.2278  1.0257 -1.7137
   47CHL1   H2B 4633   3.057   1.045   7.238  1.1049 -0.4570 -1.9377
   47CHL1   C20 4634   2.738   0.631   6.424 -0.7248 -0.9772 -0.1318
   47CHL1   H20 4635   2.776   0.546   6.485  0.0553 -0.7720 -0.3251
   47CHL1   C21 4636   2.841   0.712   6.352 -0.2367 -0.5073 -0.1267
   47CHL1  H21A 4637   2.796   0.808   6.321  0.9703  1.1101  2.7416
   47CHL1  H21B 4638   2.888   0.656   6.268 -0.5113 -1.8779  0.6047
   47CHL1  H21C 4639   2.929   0.743   6.413 -0.9162  1.2259  0.0172
   47CHL1   C22 4640   2.635   0.583   6.326  0.4612 -0.3224  0.6023
   47CHL1  H22A 4641   2.563   0.515   6.377 -0.8402  0.3716 -0.2710
   47CHL1  H22B 4642   2.576   0.669   6.290  3.6566  2.1037  0.7619
   47CHL1   C23 4643   2.684   0.498   6.205 -0.3676  0.6142  0.2587
   47CHL1  H23A 4644   2.735   0.563   6.131 -0.1439 -2.8042 -2.9337
   47CHL1  H23B 4645   2.748   0.416   6.246  0.4758  1.6476  1.0622
   47CHL1   C24 4646   2.580   0.420   6.127 -0.2790 -0.1365 -0.1129
   47CHL1  H24A 4647   2.529   0.336   6.178 -1.7248  0.2709 -0.8203
   47CHL1  H24B 4648   2.501   0.492   6.097 -0.3617 -0.8636 -1.7792
   47CHL1   C25 4649   2.628   0.370   5.992 -0.1921  0.5204  0.1664
   47CHL1   H25 4650   2.634   0.455   5.920  1.0157  0.1327 -0.2105
   47CHL1   C26 4651   2.763   0.291   6.006 -0.1060  0.6217  0.8011
   47CHL1  H26A 4652   2.802   0.239   5.916  0.0337 -2.5362  2.5367
   47CHL1  H26B 4653   2.830   0.373   6.040 -0.0471  0.3104  1.4426
   47CHL1  H26C 4654   2.739   0.216   6.084 -0.8644  1.7179  1.6592
   47CHL1   C27 4655   2.524   0.279   5.930  0.0684  0.1539 -0.6645
   47CHL1  H27A 4656   2.506   0.192   5.997 -1.3608  1.8578  1.2581
   47CHL1  H27B 4657   2.429   0.335   5.923 -0.1617 -0.2058 -0.4372
   47CHL1  H27C 4658   2.557   0.243   5.829 -0.5031 -0.6931 -0.5592
   48CHL1    C3 4659   5.477   0.195   7.220 -0.5749  0.1436  0.1989
   48CHL1    H3 4660   5.461   0.086   7.210  0.9369 -0.0167 -0.7517
   48CHL1    O3 4661   5.422   0.251   7.337 -0.5351 -0.3225  0.2039
   48CHL1   H3' 4662   5.327   0.252   7.329 -0.6078 -0.2819  0.9906
   48CHL1    C4 4663   5.628   0.223   7.209  0.8184  0.4081  0.2086
   48CHL1   H4A 4664   5.641   0.332   7.232  0.4731  0.0743  2.2470
   48CHL1   H4B 4665   5.668   0.178   7.303 -2.7562 -0.7679  1.3428
   48CHL1    C5 4666   5.695   0.194   7.080  0.3358  0.3582  0.1742
   48CHL1    C6 4667   5.818   0.139   7.080  0.7858 -0.6642 -0.8735
   48CHL1    H6 4668   5.865   0.131   7.179  0.7582  0.9470 -0.6947
   48CHL1    C7 4669   5.890   0.115   6.951 -0.0292  0.1286 -0.1046
   48CHL1   H7A 4670   5.995   0.151   6.959  0.1745 -0.6341  1.0843
   48CHL1   H7B 4671   5.899   0.004   6.948 -0.3249  0.0920  0.2364
   48CHL1    C8 4672   5.815   0.175   6.828  0.8605  0.1737 -0.7733
   48CHL1    H8 4673   5.850   0.281   6.825  0.7310  0.2538  0.2098
   48CHL1   C14 4674   5.871   0.114   6.702 -0.0039 -0.0322  0.1228
   48CHL1   H14 4675   5.820   0.016   6.687 -2.4820  0.7409  2.5535
   48CHL1   C15 4676   6.020   0.099   6.690  0.0226  0.6541 -0.1176
   48CHL1  H15A 4677   6.071   0.190   6.727  1.0669 -0.0694  0.2899
   48CHL1  H15B 4678   6.054   0.018   6.759  0.1869  2.0946  1.5561
   48CHL1   C16 4679   6.057   0.090   6.539  0.5168  0.2426  0.9142
   48CHL1  H16A 4680   6.133   0.165   6.511 -0.7231  1.6322  1.0967
   48CHL1  H16B 4681   6.088  -0.009   6.502 -0.0217  0.4578 -0.1728
   48CHL1   C17 4682   5.916   0.124   6.464 -0.5983  0.5545 -0.2943
   48CHL1   H17 4683   5.859   0.029   6.453  0.8138 -0.3492 -0.1092
   48CHL1   C13 4684   5.827   0.190   6.568 -0.2758  0.2478  0.1337
   48CHL1   C18 4685   5.870   0.346   6.570  0.3209 -0.4165 -0.9660
   48CHL1  H18A 4686   5.981   0.359   6.564  0.3812 -0.9530 -1.0834
   48CHL1  H18B 4687   5.830   0.397   6.480  2.7196  1.7962 -0.8924
   48CHL1  H18C 4688   5.835   0.401   6.660  4.9275  3.3986 -1.0478
   48CHL1   C12 4689   5.674   0.162   6.554  1.1014  1.1541 -0.8991
   48CHL1  H12A 4690   5.623   0.222   6.475  0.9912  3.0348  0.5224
   48CHL1  H12B 4691   5.654   0.053   6.544  1.0128  1.0423  0.3555
   48CHL1   C11 4692   5.599   0.207   6.692 -0.6230  0.2914 -0.0138
   48CHL1  H11A 4693   5.595   0.318   6.683  0.2516  0.6771  3.2505
   48CHL1  H11B 4694   5.491   0.179   6.689 -0.8944  1.0835  1.3458
   48CHL1    C9 4695   5.667   0.157   6.823  0.1900 -0.4147  0.0701
   48CHL1    H9 4696   5.649   0.048   6.826  1.3222 -0.6183 -0.3007
   48CHL1   C10 4697   5.616   0.226   6.953 -0.0601 -0.3521  0.7425
   48CHL1   C19 4698   5.636   0.376   6.942 -0.1752 -0.4196 -0.1130
   48CHL1  H19A 4699   5.743   0.403   6.946 -1.2129  4.3055  1.1855
   48CHL1  H19B 4700   5.586   0.425   6.855  0.0103  1.1445  0.6449
   48CHL1  H19C 4701   5.595   0.420   7.035 -0.5186  0.9663 -0.8879
   48CHL1    C1 4702   5.456   0.207   6.964 -0.5736  0.6082  0.2657
   48CHL1   H1A 4703   5.408   0.268   6.885 -0.3811  0.3870 -0.0253
   48CHL1   H1B 4704   5.437   0.100   6.938  1.8576  0.5706 -1.7431
   48CHL1    C2 4705   5.401   0.257   7.100 -0.0511  0.5062 -0.1285
   48CHL1   H2A 4706   5.296   0.222   7.110 -0.2785  1.2443  0.1779
   48CHL1   H2B 4707   5.410   0.367   7.110  1.4374  0.5719 -1.6633
   48CHL1   C20 4708   5.918   0.167   6.320  0.0385 -0.7630  0.0134
   48CHL1   H20 4709   5.947   0.274   6.321 -2.7373  0.0655 -0.5905
   48CHL1   C21 4710   5.780   0.161   6.250  0.0253 -0.3001  0.2425
   48CHL1  H21A 4711   5.779   0.169   6.139 -1.3058  0.2137  0.2686
   48CHL1  H21B 4712   5.728   0.070   6.287  0.0327  0.0614  1.1900
   48CHL1  H21C 4713   5.713   0.242   6.286 -1.1033 -0.9772 -0.2851
   48CHL1   C22 4714   6.015   0.079   6.234  0.8843 -0.8535  0.2585
   48CHL1  H22A 4715   6.115   0.117   6.263  0.4369  1.0537 -0.4848
   48CHL1  H22B 4716   6.006  -0.021   6.281 -2.8671  0.5742  3.1341
   48CHL1   C23 4717   6.012   0.099   6.083 -0.0762  0.2212  0.4006
   48CHL1  H23A 4718   5.938   0.030   6.037  0.7637 -0.5528  0.1907
   48CHL1  H23B 4719   5.989   0.206   6.066  1.4608  0.6962  1.1346
   48CHL1   C24 4720   6.148   0.074   6.015  0.0114  0.7622 -0.4957
   48CHL1  H24A 4721   6.227   0.142   6.052  1.6404 -0.4624 -1.6076
   48CHL1  H24B 4722   6.174  -0.033   6.029 -0.6708  0.6969  0.3618
   48CHL1   C25 4723   6.133   0.095   5.857  0.0110 -0.0300 -0.3762
   48CHL1   H25 4724   6.032   0.058   5.830  0.4007  0.4139 -2.5980
   48CHL1   C26 4725   6.153   0.247   5.820  0.8193 -0.0776 -0.5917
   48CHL1  H26A 4726   6.115   0.272   5.719  1.7673  1.9419 -0.4885
   48CHL1  H26B 4727   6.093   0.315   5.885  2.2557  1.2528 -0.6197
   48CHL1  H26C 4728   6.258   0.280   5.829  0.1835  1.6433  1.0592
   48CHL1   C27 4729   6.234   0.013   5.769 -1.0201 -0.0467 -0.1105
   48CHL1  H27A 4730   6.205  -0.094   5.769 -1.8679  0.1228 -2.7424
   48CHL1  H27B 4731   6.229   0.042   5.662  0.0058 -2.7260 -0.9490
   48CHL1  H27C 4732   6.338   0.026   5.808 -1.3764 -0.9388  1.2009
   49CHL1    C3 4733   2.252   2.086   3.708 -0.1292  0.0727 -0.6019
   49CHL1    H3 4734   2.333   2.026   3.753 -0.8620 -0.4821  0.0142
   49CHL1    O3 4735   2.241   2.067   3.570 -0.4861  0.5413  0.4049
   49CHL1   H3' 4736   2.275   2.141   3.518  2.7467 -0.6803  0.5250
   49CHL1    C4 4737   2.123   2.031   3.774 -0.2457  0.1509  0.2279
   49CHL1   H4A 4738   2.036   2.074   3.719  0.7897  2.3671  0.2177
   49CHL1   H4B 4739   2.127   1.922   3.752  1.3344  0.2953 -0.3349
   49CHL1    C5 4740   2.099   2.053   3.925 -0.6471 -0.0524  0.1161
   49CHL1    C6 4741   2.065   1.965   4.015  0.8642  1.5098  0.2492
   49CHL1    H6 4742   2.060   1.859   3.986 -0.4911  1.3222  1.0712
   49CHL1    C7 4743   2.030   1.984   4.153 -0.8845  0.0961  0.0761
   49CHL1   H7A 4744   1.927   1.946   4.171 -2.8047  2.8438 -3.8666
   49CHL1   H7B 4745   2.108   1.932   4.213 -0.7286  2.8261  2.4377
   49CHL1    C8 4746   2.031   2.134   4.196 -0.5509 -0.2063  0.2982
   49CHL1    H8 4747   1.934   2.181   4.170  1.0088  2.5744 -0.9602
   49CHL1   C14 4748   2.066   2.135   4.349 -0.1717  0.6644  0.3946
   49CHL1   H14 4749   2.159   2.076   4.363  0.4198  1.2459 -0.9762
   49CHL1   C15 4750   1.954   2.073   4.433 -1.0785 -0.0623 -0.5923
   49CHL1  H15A 4751   1.855   2.113   4.401  0.5586  1.9226 -3.6838
   49CHL1  H15B 4752   1.969   1.967   4.404 -1.2066  0.1906 -1.6507
   49CHL1   C16 4753   2.000   2.117   4.574 -0.0411 -0.3368 -0.5118
   49CHL1  H16A 4754   1.911   2.155   4.630  0.6414  1.3984 -0.5231
   49CHL1  H16B 4755   2.041   2.026   4.622 -1.7395 -0.4706  0.7857
   49CHL1   C17 4756   2.107   2.237   4.557  0.6050 -1.1030 -0.4097
   49CHL1   H17 4757   2.210   2.197   4.572  1.2858  1.5509  3.4737
   49CHL1   C13 4758   2.096   2.274   4.405 -0.2000 -0.1503 -0.7167
   49CHL1   C18 4759   1.970   2.369   4.387  0.5181 -0.4728 -0.3858
   49CHL1  H18A 4760   1.933   2.384   4.283  1.2936  1.7197 -0.3999
   49CHL1  H18B 4761   1.888   2.332   4.452  0.1631 -1.7065 -1.4924
   49CHL1  H18C 4762   1.997   2.473   4.413  0.0408 -0.4073 -0.1323
   49CHL1   C12 4763   2.209   2.332   4.336  0.3695  0.1833 -0.4839
   49CHL1  H12A 4764   2.236   2.431   4.380 -1.6044 -0.3817  2.3001
   49CHL1  H12B 4765   2.302   2.271   4.346  1.7311  2.1194 -0.6721
   49CHL1   C11 4766   2.182   2.347   4.187 -0.7332 -0.1912  0.1209
   49CHL1  H11A 4767   2.098   2.418   4.173 -1.2448 -1.0824 -1.5705
   49CHL1  H11B 4768   2.275   2.384   4.137 -1.5095  2.0004  0.2048
   49CHL1    C9 4769   2.141   2.210   4.125 -0.5609 -0.6843 -0.6231
   49CHL1    H9 4770   2.237   2.154   4.127 -0.8087 -1.2536 -2.5353
   49CHL1   C10 4771   2.118   2.199   3.966 -0.5809 -0.1381 -0.0576
   49CHL1   C19 4772   1.995   2.273   3.922  0.0648 -0.0483  0.1137
   49CHL1  H19A 4773   1.897   2.232   3.952  0.4758 -0.2371  1.2500
   49CHL1  H19B 4774   1.997   2.368   3.981 -1.3712 -0.2297  0.4791
   49CHL1  H19C 4775   1.991   2.271   3.811  0.0328 -2.3113  0.1119
   49CHL1    C1 4776   2.254   2.253   3.898  0.2079  0.0121  0.4617
   49CHL1   H1A 4777   2.263   2.359   3.929  1.1919  0.6312 -1.7765
   49CHL1   H1B 4778   2.333   2.185   3.939  0.1630 -1.4437 -1.6939
   49CHL1    C2 4779   2.272   2.238   3.746 -1.3352  0.5163 -0.4785
   49CHL1   H2A 4780   2.377   2.267   3.728 -0.7482 -0.8672  0.5998
   49CHL1   H2B 4781   2.190   2.298   3.700 -3.9486 -1.8923  0.6933
   49CHL1   C20 4782   2.088   2.354   4.665 -0.4369  0.0683  0.3470
   49CHL1   H20 4783   1.986   2.395   4.649  0.3725  0.9831 -3.3955
   49CHL1   C21 4784   2.185   2.467   4.637 -0.5489 -0.2752 -0.6167
   49CHL1  H21A 4785   2.149   2.518   4.545 -0.5457 -0.1457 -0.5453
   49CHL1  H21B 4786   2.283   2.426   4.603 -0.0456  1.3152 -1.1652
   49CHL1  H21C 4787   2.183   2.546   4.714 -0.5960  0.7202 -1.6075
   49CHL1   C22 4788   2.092   2.311   4.811 -0.0365 -0.3686  0.6848
   49CHL1  H22A 4789   2.053   2.396   4.871 -0.1710  0.6236 -0.7485
   49CHL1  H22B 4790   2.013   2.235   4.829 -1.0407  1.1428  3.1460
   49CHL1   C23 4791   2.223   2.250   4.865 -0.5788  0.1879 -0.1607
   49CHL1  H23A 4792   2.261   2.166   4.803  0.4507  2.1990 -2.4212
   49CHL1  H23B 4793   2.301   2.328   4.852 -0.4356  0.5452  2.3157
   49CHL1   C24 4794   2.206   2.225   5.016 -0.4152  0.1751 -0.0218
   49CHL1  H24A 4795   2.167   2.319   5.061 -0.1111  0.2758  0.0320
   49CHL1  H24B 4796   2.131   2.144   5.022  0.3745 -0.9463 -3.4248
   49CHL1   C25 4797   2.334   2.174   5.090  0.0579 -0.3101 -0.6369
   49CHL1   H25 4798   2.405   2.259   5.085 -1.5326  1.1451  0.4299
   49CHL1   C26 4799   2.299   2.137   5.234 -0.2557 -0.0689 -0.2861
   49CHL1  H26A 4800   2.221   2.057   5.228 -0.4758  0.1727 -0.6342
   49CHL1  H26B 4801   2.384   2.107   5.299 -0.0922  0.5137 -0.2255
   49CHL1  H26C 4802   2.266   2.226   5.291 -0.7251  0.0567 -0.7416
   49CHL1   C27 4803   2.404   2.056   5.016  0.3816  0.2454  0.9276
   49CHL1  H27A 4804   2.414   2.076   4.907  0.4748  0.6229  1.0031
   49CHL1  H27B 4805   2.503   2.029   5.057  0.2716 -0.2746  0.8575
   49CHL1  H27C 4806   2.337   1.968   5.026 -0.4979  1.0847  3.1951
   50CHL1    C3 4807   0.383   4.352   3.361  0.0823 -1.0045  0.6053
   50CHL1    H3 4808   0.457   4.276   3.394 -0.0307 -0.1577  3.0024
   50CHL1    O3 4809   0.383   4.361   3.219  0.5402 -0.4911  0.5523
   50CHL1   H3' 4810   0.347   4.448   3.201 -3.5448 -1.6157  2.2035
   50CHL1    C4 4811   0.239   4.326   3.398 -0.1520  0.3296  0.5526
   50CHL1   H4A 4812   0.172   4.411   3.373  0.9647  0.8782 -0.6705
   50CHL1   H4B 4813   0.194   4.238   3.348 -2.8158  3.2743 -2.8079
   50CHL1    C5 4814   0.242   4.301   3.550 -0.7721  0.0776 -0.5080
   50CHL1    C6 4815   0.234   4.177   3.602  0.5317  0.3824  0.2157
   50CHL1    H6 4816   0.219   4.089   3.538 -2.1456  0.5483  0.4885
   50CHL1    C7 4817   0.236   4.153   3.747  0.1030  0.8228  0.2459
   50CHL1   H7A 4818   0.145   4.094   3.773  0.4840  1.2460  2.8945
   50CHL1   H7B 4819   0.328   4.102   3.781 -1.8915 -1.9257  1.9521
   50CHL1    C8 4820   0.222   4.282   3.828  0.3399 -0.4376 -0.4795
   50CHL1    H8 4821   0.120   4.322   3.808 -0.1317 -2.1782 -1.7531
   50CHL1   C14 4822   0.249   4.254   3.973 -0.2776 -0.6241  0.4205
   50CHL1   H14 4823   0.356   4.223   3.967 -0.3282 -0.5474 -1.9234
   50CHL1   C15 4824   0.170   4.147   4.040  0.5565  0.1966 -0.0607
   50CHL1  H15A 4825   0.063   4.157   4.011  0.8953  3.0329 -0.6739
   50CHL1  H15B 4826   0.209   4.044   4.031  0.2343  0.1447 -0.8940
   50CHL1   C16 4827   0.188   4.172   4.196 -0.4021  0.0007 -0.1041
   50CHL1  H16A 4828   0.089   4.183   4.247  0.9209  0.4573  2.5412
   50CHL1  H16B 4829   0.250   4.097   4.250  0.5668  1.4055  0.8087
   50CHL1   C17 4830   0.256   4.320   4.203 -0.4492 -0.6711  0.7017
   50CHL1   H17 4831   0.366   4.302   4.201 -0.4647 -0.7739  0.7620
   50CHL1   C13 4832   0.233   4.379   4.066  0.0543  0.0112  0.2052
   50CHL1   C18 4833   0.094   4.442   4.059  1.1348  0.4581 -0.7202
   50CHL1  H18A 4834   0.072   4.469   3.954  0.9647 -0.4669 -0.9310
   50CHL1  H18B 4835   0.020   4.369   4.099  1.6708  1.3033  2.0200
   50CHL1  H18C 4836   0.079   4.538   4.112 -3.8694 -0.0215 -0.8196
   50CHL1   C12 4837   0.340   4.477   4.021 -0.0290  0.0761 -0.0508
   50CHL1  H12A 4838   0.356   4.568   4.083 -1.1808 -0.4187  1.0145
   50CHL1  H12B 4839   0.438   4.425   4.027  0.1876  0.6696  2.3438
   50CHL1   C11 4840   0.328   4.510   3.867 -0.2413 -1.0366 -0.0041
   50CHL1  H11A 4841   0.250   4.588   3.857  2.4181  1.8820  0.5228
   50CHL1  H11B 4842   0.421   4.561   3.834 -1.0687  0.9161  0.5203
   50CHL1    C9 4843   0.313   4.388   3.778  0.3342  0.1078  0.4565
   50CHL1    H9 4844   0.415   4.344   3.777 -0.1955 -1.1557  0.7401
   50CHL1   C10 4845   0.282   4.423   3.632  0.7606 -0.3955  0.0634
   50CHL1   C19 4846   0.161   4.528   3.628 -0.2801  0.2481  0.0392
   50CHL1  H19A 4847   0.063   4.506   3.675 -0.6373  1.3585 -0.1582
   50CHL1  H19B 4848   0.206   4.620   3.672  1.1139  0.3283 -1.4560
   50CHL1  H19C 4849   0.144   4.565   3.524 -2.6196 -1.6619 -0.3329
   50CHL1    C1 4850   0.407   4.486   3.575  0.0570  0.3241 -0.0556
   50CHL1   H1A 4851   0.410   4.589   3.617 -1.0794  1.1272 -1.8335
   50CHL1   H1B 4852   0.495   4.426   3.608  0.1346  0.4119 -0.1045
   50CHL1    C2 4853   0.417   4.492   3.421  0.3250 -1.0645 -0.1310
   50CHL1   H2A 4854   0.521   4.504   3.385 -0.2644  0.5990 -1.4243
   50CHL1   H2B 4855   0.347   4.571   3.386  0.8151 -0.6702 -0.2290
   50CHL1   C20 4856   0.214   4.395   4.330  0.1553  1.2561 -0.2202
   50CHL1   H20 4857   0.112   4.437   4.325  0.4274  1.9107 -0.5415
   50CHL1   C21 4858   0.311   4.508   4.352 -0.0577 -0.1574  0.4052
   50CHL1  H21A 4859   0.417   4.477   4.346 -0.4283 -1.4183  0.0928
   50CHL1  H21B 4860   0.292   4.574   4.440  0.0241 -0.5008  0.6849
   50CHL1  H21C 4861   0.289   4.592   4.283 -1.2347 -0.8132 -0.0538
   50CHL1   C22 4862   0.222   4.302   4.457 -0.2998  0.3138 -0.4942
   50CHL1  H22A 4863   0.151   4.217   4.449  0.4336 -0.1483 -2.8130
   50CHL1  H22B 4864   0.322   4.255   4.466 -0.4931 -0.0683 -0.3376
   50CHL1   C23 4865   0.195   4.392   4.584 -0.5036  0.1924  0.0518
   50CHL1  H23A 4866   0.274   4.468   4.600  0.7645 -1.1716  0.5360
   50CHL1  H23B 4867   0.102   4.450   4.566  0.1623  0.9885 -0.9580
   50CHL1   C24 4868   0.168   4.300   4.704 -0.6451 -0.6568 -0.6053
   50CHL1  H24A 4869   0.068   4.253   4.691 -0.6652 -0.8711  0.2990
   50CHL1  H24B 4870   0.239   4.214   4.702  1.1293  0.6592  1.4503
   50CHL1   C25 4871   0.164   4.368   4.843  0.1876 -0.2280  0.2038
   50CHL1   H25 4872   0.092   4.452   4.837 -1.2844 -1.5321 -1.4925
   50CHL1   C26 4873   0.106   4.271   4.949  0.0587  0.0384 -0.1797
   50CHL1  H26A 4874   0.153   4.172   4.934 -2.1417 -1.1893  0.5864
   50CHL1  H26B 4875   0.134   4.304   5.051 -0.2177  1.9952 -0.6887
   50CHL1  H26C 4876  -0.002   4.253   4.928 -0.0619 -0.3824  0.7450
   50CHL1   C27 4877   0.299   4.426   4.879  0.4262  0.0765 -0.1714
   50CHL1  H27A 4878   0.302   4.531   4.844  0.1603 -0.3245 -1.4401
   50CHL1  H27B 4879   0.334   4.407   4.983 -1.0689 -2.2900 -0.0039
   50CHL1  H27C 4880   0.371   4.361   4.826  0.1208  0.1090 -0.6303
   51CHL1    C3 4881   0.062   5.211   3.955 -0.0659 -0.1275 -0.3855
   51CHL1    H3 4882   0.053   5.101   3.963  0.2017 -0.1611 -0.5527
   51CHL1    O3 4883   0.034   5.249   3.823  0.1616  0.5797  0.0716
   51CHL1   H3' 4884   0.084   5.330   3.810  1.4258  0.0236  1.2799
   51CHL1    C4 4885  -0.044   5.273   4.053 -0.3978 -0.6497 -0.0554
   51CHL1   H4A 4886  -0.038   5.379   4.023  1.2624 -0.6925  0.0603
   51CHL1   H4B 4887  -0.143   5.233   4.023  0.5225 -2.6213 -0.6325
   51CHL1    C5 4888  -0.008   5.267   4.199  0.6364 -0.3989 -0.2466
   51CHL1    C6 4889  -0.079   5.194   4.283  0.0030 -0.4492  0.0694
   51CHL1    H6 4890  -0.170   5.144   4.246 -0.7317 -0.4811  1.7979
   51CHL1    C7 4891  -0.053   5.189   4.433  0.4442  0.1791  0.4849
   51CHL1   H7A 4892  -0.149   5.215   4.483  0.1590  1.4956 -0.6890
   51CHL1   H7B 4893  -0.018   5.086   4.455  0.1583  0.2695  1.4110
   51CHL1    C8 4894   0.055   5.283   4.485 -0.4027 -0.6500  1.0576
   51CHL1    H8 4895   0.016   5.387   4.480  0.9191 -0.1974 -1.6043
   51CHL1   C14 4896   0.098   5.261   4.634 -0.4729 -0.3473 -0.5398
   51CHL1   H14 4897   0.130   5.155   4.637 -3.6747 -1.3871  1.8327
   51CHL1   C15 4898  -0.009   5.282   4.746  0.7918 -0.0344 -0.0863
   51CHL1  H15A 4899  -0.067   5.375   4.725 -0.7725 -1.2554 -1.4594
   51CHL1  H15B 4900  -0.077   5.194   4.754 -0.3373  0.5716 -2.1842
   51CHL1   C16 4901   0.074   5.295   4.876 -0.2524 -0.3109 -0.3124
   51CHL1  H16A 4902   0.045   5.389   4.928  2.5280 -0.0579  0.9681
   51CHL1  H16B 4903   0.075   5.217   4.956 -0.2741  0.2114  0.2098
   51CHL1   C17 4904   0.217   5.328   4.820 -0.0743 -0.4227 -1.0780
   51CHL1   H17 4905   0.264   5.228   4.817  0.4052 -0.2171 -0.4688
   51CHL1   C13 4906   0.208   5.359   4.669  0.5648  0.2391 -0.0745
   51CHL1   C18 4907   0.177   5.507   4.650  0.4586  0.3053  1.0513
   51CHL1  H18A 4908   0.246   5.576   4.702 -0.2862  1.6254  0.3479
   51CHL1  H18B 4909   0.171   5.535   4.543 -0.9733 -0.8803  0.7808
   51CHL1  H18C 4910   0.073   5.534   4.679  0.0922  3.1735 -2.3231
   51CHL1   C12 4911   0.332   5.322   4.586  0.2096  0.0642  0.2915
   51CHL1  H12A 4912   0.416   5.394   4.601  0.6100  0.1912 -2.1254
   51CHL1  H12B 4913   0.371   5.227   4.629  0.9118  1.3374  2.6793
   51CHL1   C11 4914   0.305   5.342   4.436 -0.3513  0.3825  0.0287
   51CHL1  H11A 4915   0.326   5.451   4.427  1.5545  0.0554  0.1991
   51CHL1  H11B 4916   0.395   5.298   4.389 -0.0021 -1.6959  2.4155
   51CHL1    C9 4917   0.174   5.279   4.388 -0.2455 -0.6095 -0.1128
   51CHL1    H9 4918   0.205   5.173   4.376 -2.0944 -1.3473  1.2104
   51CHL1   C10 4919   0.135   5.321   4.239 -0.2078 -0.0641 -0.6473
   51CHL1   C19 4920   0.135   5.470   4.233 -0.0373  0.3728  0.3513
   51CHL1  H19A 4921   0.054   5.511   4.298 -0.9832  0.6435 -0.9652
   51CHL1  H19B 4922   0.232   5.519   4.257  1.2894 -0.4146 -2.9357
   51CHL1  H19C 4923   0.113   5.509   4.132  0.2185  1.1573  0.5904
   51CHL1    C1 4924   0.234   5.257   4.134 -0.3908  0.2937 -0.4863
   51CHL1   H1A 4925   0.327   5.315   4.155 -1.1757  0.7281  2.1649
   51CHL1   H1B 4926   0.254   5.151   4.162 -0.7850  0.4189  0.2931
   51CHL1    C2 4927   0.205   5.268   3.991  0.0280 -0.7948  0.1207
   51CHL1   H2A 4928   0.264   5.203   3.923  1.2542  0.0492  0.3234
   51CHL1   H2B 4929   0.207   5.374   3.957  1.4308 -0.6956  0.4451
   51CHL1   C20 4930   0.310   5.411   4.908  0.2701 -0.0931 -0.0951
   51CHL1   H20 4931   0.388   5.456   4.843  0.8748  0.0676  0.7299
   51CHL1   C21 4932   0.377   5.309   5.012  0.2291 -0.0658 -0.0789
   51CHL1  H21A 4933   0.436   5.369   5.086  0.4420 -0.3891  0.0172
   51CHL1  H21B 4934   0.440   5.235   4.958 -0.3586 -0.1139 -0.7045
   51CHL1  H21C 4935   0.296   5.258   5.068  0.4498  0.9499  1.2366
   51CHL1   C22 4936   0.244   5.529   4.984 -0.0305 -0.4728  0.1754
   51CHL1  H22A 4937   0.188   5.589   4.910 -2.1265 -1.1335  1.1225
   51CHL1  H22B 4938   0.174   5.481   5.056  0.3505 -0.7503  0.3687
   51CHL1   C23 4939   0.352   5.627   5.038  0.6107  0.1634 -0.3033
   51CHL1  H23A 4940   0.395   5.578   5.128 -0.6593  0.4448  0.4815
   51CHL1  H23B 4941   0.436   5.642   4.967  0.2669  3.6735 -0.1629
   51CHL1   C24 4942   0.286   5.757   5.088 -0.6879  0.1395 -0.4639
   51CHL1  H24A 4943   0.253   5.830   5.011  0.1849  1.1623  0.0995
   51CHL1  H24B 4944   0.202   5.724   5.152  0.3558  0.3938  1.0808
   51CHL1   C25 4945   0.378   5.845   5.175 -0.0268  0.1248  0.3626
   51CHL1   H25 4946   0.416   5.795   5.266 -0.1431  0.5961  0.6729
   51CHL1   C26 4947   0.495   5.891   5.100 -0.2996  0.1554 -0.2689
   51CHL1  H26A 4948   0.560   5.945   5.172  0.8098 -0.5024 -0.7490
   51CHL1  H26B 4949   0.553   5.810   5.052 -1.1707  0.0105 -1.1131
   51CHL1  H26C 4950   0.469   5.961   5.017 -1.7654 -0.8476 -0.6863
   51CHL1   C27 4951   0.295   5.967   5.224  0.2015  0.0812 -0.1502
   51CHL1  H27A 4952   0.336   6.027   5.308 -0.5636 -0.5989  0.7369
   51CHL1  H27B 4953   0.273   6.032   5.137  2.2769  0.0867 -0.7155
   51CHL1  H27C 4954   0.196   5.937   5.266 -0.1074  1.4731  0.1699
   52CHL1    C3 4955   6.523   0.364   3.852  0.3228  0.0480 -0.4951
   52CHL1    H3 4956   6.460   0.272   3.851 -0.5361  0.6188 -0.3882
   52CHL1    O3 4957   6.538   0.389   3.714 -0.3863 -0.5745 -0.1684
   52CHL1   H3' 4958   6.603   0.460   3.705 -0.1559 -0.9130 -1.4017
   52CHL1    C4 4959   6.461   0.484   3.924 -0.1180  0.1445  0.2127
   52CHL1   H4A 4960   6.516   0.574   3.891 -0.7039  0.5676  0.3720
   52CHL1   H4B 4961   6.355   0.501   3.894 -0.3457 -0.6219  0.5666
   52CHL1    C5 4962   6.473   0.474   4.077 -0.3786 -0.4834  0.5431
   52CHL1    C6 4963   6.363   0.488   4.151  0.4005  0.6239  0.2718
   52CHL1    H6 4964   6.263   0.511   4.110  0.0758  0.9022  1.2065
   52CHL1    C7 4965   6.368   0.501   4.300 -0.6969 -0.1266  0.2081
   52CHL1   H7A 4966   6.316   0.591   4.339  0.8343  1.3543 -1.0115
   52CHL1   H7B 4967   6.319   0.415   4.351 -0.4513 -1.2226 -1.3381
   52CHL1    C8 4968   6.513   0.506   4.362  0.2608 -0.5677  0.5293
   52CHL1    H8 4969   6.555   0.608   4.347  1.4906 -1.4118 -2.7453
   52CHL1   C14 4970   6.514   0.471   4.512 -0.6349  0.3236 -0.2447
   52CHL1   H14 4971   6.462   0.373   4.519  0.3370 -0.1698  0.2259
   52CHL1   C15 4972   6.437   0.561   4.611 -0.1780 -0.6038  1.4897
   52CHL1  H15A 4973   6.445   0.663   4.569 -0.0629 -1.8460 -1.8213
   52CHL1  H15B 4974   6.331   0.526   4.609  0.3915 -2.3864 -0.2069
   52CHL1   C16 4975   6.509   0.530   4.745  0.0355 -0.9202 -0.5060
   52CHL1  H16A 4976   6.555   0.625   4.780 -0.9795 -1.0644  1.3761
   52CHL1  H16B 4977   6.434   0.494   4.819 -0.8835  2.8159  0.5579
   52CHL1   C17 4978   6.614   0.414   4.721  0.5440  0.2529  0.0766
   52CHL1   H17 4979   6.545   0.327   4.714 -0.6084  1.1462 -0.0850
   52CHL1   C13 4980   6.658   0.442   4.574 -0.0717  0.4687  0.0500
   52CHL1   C18 4981   6.748   0.561   4.568  1.7042 -0.3390  0.4918
   52CHL1  H18A 4982   6.742   0.605   4.466  1.1233 -0.4845  0.4578
   52CHL1  H18B 4983   6.715   0.639   4.639 -2.3189 -0.0351 -1.4243
   52CHL1  H18C 4984   6.855   0.536   4.586  1.8280  1.0222  1.9043
   52CHL1   C12 4985   6.719   0.322   4.497  0.4538 -0.5809  0.0584
   52CHL1  H12A 4986   6.816   0.289   4.540  1.2037  1.6208  0.1987
   52CHL1  H12B 4987   6.642   0.242   4.503 -1.3657  1.1283  0.6995
   52CHL1   C11 4988   6.734   0.362   4.348  0.2891  0.4298  0.6301
   52CHL1  H11A 4989   6.817   0.435   4.337 -1.0152  2.0508  1.1931
   52CHL1  H11B 4990   6.774   0.272   4.297 -0.7687  1.5362 -2.4192
   52CHL1    C9 4991   6.602   0.405   4.284 -0.1499 -0.0348  0.0175
   52CHL1    H9 4992   6.542   0.312   4.281 -0.5670  0.0153  3.3861
   52CHL1   C10 4993   6.620   0.441   4.136  0.2309 -0.1216 -0.7944
   52CHL1   C19 4994   6.710   0.564   4.119 -0.3695 -0.5697  0.6491
   52CHL1  H19A 4995   6.671   0.650   4.177 -1.1367 -1.1712  1.0469
   52CHL1  H19B 4996   6.810   0.546   4.162  0.6474 -0.3413 -1.5111
   52CHL1  H19C 4997   6.736   0.586   4.013 -0.5263 -1.1006  0.4949
   52CHL1    C1 4998   6.667   0.320   4.057 -0.2522  0.5734 -0.2747
   52CHL1   H1A 4999   6.772   0.307   4.092 -0.8915 -2.1023  0.8562
   52CHL1   H1B 5000   6.614   0.226   4.081 -1.6810  0.6227 -2.9025
   52CHL1    C2 5001   6.663   0.341   3.903  0.0607  0.0775  0.9914
   52CHL1   H2A 5002   6.712   0.260   3.844 -2.6212  0.2572 -1.7449
   52CHL1   H2B 5003   6.732   0.427   3.886 -0.9255  0.6288 -0.4380
   52CHL1   C20 5004   6.729   0.412   4.826  0.0476  0.7377  0.3197
   52CHL1   H20 5005   6.814   0.476   4.794  1.6210 -1.5202 -0.2844
   52CHL1   C21 5006   6.757   0.264   4.839 -0.5682 -0.7144 -0.4832
   52CHL1  H21A 5007   6.853   0.253   4.893 -0.4684  2.1313  0.0790
   52CHL1  H21B 5008   6.775   0.212   4.743  3.4223  0.9925 -0.8701
   52CHL1  H21C 5009   6.675   0.219   4.899  0.5894  0.2251  1.9258
   52CHL1   C22 5010   6.673   0.453   4.962 -1.4317 -0.1045  0.0698
   52CHL1  H22A 5011   6.663   0.564   4.955  1.2009  0.1539 -0.9815
   52CHL1  H22B 5012   6.571   0.412   4.972 -1.1690 -0.7377  0.1698
   52CHL1   C23 5013   6.760   0.417   5.085 -0.4227 -0.2975 -1.1075
   52CHL1  H23A 5014   6.740   0.312   5.116 -0.5887  0.4067  1.3061
   52CHL1  H23B 5015   6.870   0.424   5.072  0.3093 -2.7783  2.5166
   52CHL1   C24 5016   6.724   0.513   5.210  0.1995  0.2603 -0.6993
   52CHL1  H24A 5017   6.739   0.615   5.168  0.5066  1.5953  2.3797
   52CHL1  H24B 5018   6.615   0.494   5.220  0.2047 -1.1908 -2.7411
   52CHL1   C25 5019   6.803   0.474   5.336 -0.4051 -0.4778 -1.0413
   52CHL1   H25 5020   6.814   0.364   5.326  0.9921 -0.2490 -2.4064
   52CHL1   C26 5021   6.936   0.546   5.336 -0.1895 -0.0060 -0.8061
   52CHL1  H26A 5022   6.914   0.655   5.342 -2.2972 -0.3297 -1.6034
   52CHL1  H26B 5023   7.004   0.509   5.416 -0.9498  0.1066 -0.0855
   52CHL1  H26C 5024   6.989   0.528   5.241  1.6745  0.4475  0.1100
   52CHL1   C27 5025   6.719   0.512   5.459 -0.0497 -0.3417  0.3916
   52CHL1  H27A 5026   6.734   0.619   5.481  1.7157 -0.7511  1.3952
   52CHL1  H27B 5027   6.610   0.501   5.442 -0.5210 -0.7317  3.1872
   52CHL1  H27C 5028   6.752   0.455   5.549  1.1293 -0.7300 -0.2564
   53CHL1    C3 5029   5.849   1.151   4.052  0.3162  0.1504 -0.0330
   53CHL1    H3 5030   5.766   1.223   4.071 -1.0819 -1.6783  1.2334
   53CHL1    O3 5031   5.890   1.161   3.915  0.2213 -0.3664 -0.3791
   53CHL1   H3' 5032   5.840   1.235   3.879  0.4959 -0.4844 -1.0259
   53CHL1    C4 5033   5.969   1.171   4.147 -0.1862  0.3104 -0.2751
   53CHL1   H4A 5034   6.062   1.118   4.118 -0.0150  0.7066 -0.4589
   53CHL1   H4B 5035   6.009   1.273   4.129  0.6145 -0.5071 -3.9901
   53CHL1    C5 5036   5.929   1.141   4.289 -0.1516  0.3921  0.2331
   53CHL1    C6 5037   5.923   1.239   4.382 -0.3445  0.1805  0.0683
   53CHL1    H6 5038   5.965   1.338   4.359  1.0114 -0.5022 -0.5053
   53CHL1    C7 5039   5.884   1.221   4.524 -0.4229 -0.3570  0.1596
   53CHL1   H7A 5040   5.939   1.288   4.593 -0.3460 -1.5290  1.2696
   53CHL1   H7B 5041   5.783   1.264   4.541 -0.0782  0.8034 -0.5818
   53CHL1    C8 5042   5.896   1.075   4.567  0.0017  0.5897 -0.4426
   53CHL1    H8 5043   6.001   1.039   4.565  0.3296  1.4636  0.4085
   53CHL1   C14 5044   5.825   1.057   4.700 -0.7159  0.2682 -0.2981
   53CHL1   H14 5045   5.724   1.101   4.686  0.4345  3.0942 -0.4084
   53CHL1   C15 5046   5.885   1.122   4.833  0.2426 -0.1975  0.6001
   53CHL1  H15A 5047   5.992   1.091   4.834  0.2154 -0.2807  2.1962
   53CHL1  H15B 5048   5.873   1.233   4.841 -1.9902 -0.4465  1.0894
   53CHL1   C16 5049   5.801   1.054   4.951  0.1951  0.4636  0.5643
   53CHL1  H16A 5050   5.869   1.037   5.038  0.7735 -4.4907 -0.5934
   53CHL1  H16B 5051   5.713   1.119   4.971  1.0897  1.3937  1.7015
   53CHL1   C17 5052   5.743   0.922   4.890  0.7590 -0.3403  0.5738
   53CHL1   H17 5053   5.636   0.942   4.867  0.9872  1.7281  1.1135
   53CHL1   C13 5054   5.808   0.913   4.749 -0.4534  0.5549 -0.8988
   53CHL1   C18 5055   5.952   0.850   4.768  0.4879 -0.7304  0.4065
   53CHL1  H18A 5056   5.938   0.742   4.788  0.3285 -0.5986  1.0323
   53CHL1  H18B 5057   6.016   0.858   4.678 -1.8942 -2.5388 -1.5905
   53CHL1  H18C 5058   5.998   0.902   4.856 -0.6512  1.3345 -0.1386
   53CHL1   C12 5059   5.723   0.831   4.648 -0.7388  0.6081  0.2165
   53CHL1  H12A 5060   5.719   0.721   4.661 -1.5681  0.5889 -0.1736
   53CHL1  H12B 5061   5.620   0.872   4.638 -0.4570  0.7265 -3.7358
   53CHL1   C11 5062   5.794   0.838   4.510  0.9582 -0.9127  0.1130
   53CHL1  H11A 5063   5.895   0.790   4.518  1.9034  0.7814 -1.0244
   53CHL1  H11B 5064   5.718   0.801   4.438  0.6962 -1.0884  0.4769
   53CHL1    C9 5065   5.817   0.986   4.463  0.4212  0.0023  0.2624
   53CHL1    H9 5066   5.712   1.024   4.463 -0.0466 -1.1569 -2.0263
   53CHL1   C10 5067   5.866   1.005   4.318 -0.7205  0.4790 -0.5982
   53CHL1   C19 5068   5.983   0.896   4.301  0.2296 -0.3200 -0.5244
   53CHL1  H19A 5069   6.048   0.905   4.392  0.5715  2.6116 -0.9788
   53CHL1  H19B 5070   5.938   0.794   4.297 -0.5506 -0.0118  0.1407
   53CHL1  H19C 5071   6.047   0.910   4.212 -0.5209 -1.3799 -1.2516
   53CHL1    C1 5072   5.754   0.976   4.219  0.4331  0.1166 -0.3419
   53CHL1   H1A 5073   5.730   0.868   4.216  1.9965 -0.2934  0.5288
   53CHL1   H1B 5074   5.666   1.040   4.240  1.3100  1.6187 -1.0528
   53CHL1    C2 5075   5.803   1.008   4.076  0.7219  0.1360  0.3588
   53CHL1   H2A 5076   5.713   1.001   4.012  0.1049  0.6036  1.1643
   53CHL1   H2B 5077   5.889   0.943   4.047  0.3432  0.0155 -0.5322
   53CHL1   C20 5078   5.741   0.804   4.984  0.7482  0.2487  0.0372
   53CHL1   H20 5079   5.840   0.771   5.022  0.3560 -0.0429  0.8476
   53CHL1   C21 5080   5.665   0.680   4.919  0.2409 -0.4507  0.1701
   53CHL1  H21A 5081   5.724   0.622   4.845  1.2293  1.0058 -0.2435
   53CHL1  H21B 5082   5.583   0.734   4.866  0.9148  1.7619  1.2620
   53CHL1  H21C 5083   5.636   0.604   4.994  0.8301 -1.2140 -0.3594
   53CHL1   C22 5084   5.671   0.841   5.117 -0.0712  0.1191  0.2881
   53CHL1  H22A 5085   5.706   0.941   5.151 -0.4027  0.0423  0.8672
   53CHL1  H22B 5086   5.563   0.865   5.105 -0.2133  0.0160  1.2639
   53CHL1   C23 5087   5.681   0.744   5.236  0.0867  0.2419  0.3209
   53CHL1  H23A 5088   5.603   0.667   5.222  0.3280  0.0820 -0.1558
   53CHL1  H23B 5089   5.775   0.685   5.230 -2.1391 -3.4371 -3.3970
   53CHL1   C24 5090   5.670   0.820   5.369  1.2148  0.4228 -0.0986
   53CHL1  H24A 5091   5.759   0.887   5.372 -0.0408  2.2988 -2.0867
   53CHL1  H24B 5092   5.586   0.892   5.366 -0.7688 -1.7001  0.8313
   53CHL1   C25 5093   5.651   0.731   5.490 -0.2561  0.6469 -0.4912
   53CHL1   H25 5094   5.736   0.660   5.483 -1.6987 -1.2709  0.3393
   53CHL1   C26 5095   5.660   0.811   5.621  0.0727  0.1525  0.7186
   53CHL1  H26A 5096   5.687   0.745   5.706  0.6245 -1.1678 -0.4384
   53CHL1  H26B 5097   5.734   0.892   5.603 -0.6583  0.9225  1.1129
   53CHL1  H26C 5098   5.560   0.856   5.635 -1.1498 -2.3823  0.6614
   53CHL1   C27 5099   5.517   0.658   5.494 -1.1088  0.5658 -0.2307
   53CHL1  H27A 5100   5.506   0.612   5.594 -0.6747  2.2056  0.5991
   53CHL1  H27B 5101   5.439   0.737   5.483  0.2749  1.8939 -0.8387
   53CHL1  H27C 5102   5.517   0.588   5.407 -0.1712  1.2670 -0.8204
   54CHL1    C3 5103   0.559   1.257   3.684 -0.3473  0.1325  0.0844
   54CHL1    H3 5104   0.650   1.320   3.687 -0.0828 -0.2757  1.6813
   54CHL1    O3 5105   0.526   1.217   3.547 -0.6617 -0.5072 -0.3440
   54CHL1   H3' 5106   0.466   1.144   3.566 -2.0488  1.1257  2.1651
   54CHL1    C4 5107   0.584   1.134   3.778 -0.5521 -0.3910 -0.2056
   54CHL1   H4A 5108   0.494   1.070   3.763 -0.5497 -0.8661  1.6665
   54CHL1   H4B 5109   0.666   1.066   3.744 -1.4663 -2.0530  0.7642
   54CHL1    C5 5110   0.617   1.167   3.918 -0.3952  0.0069 -0.2095
   54CHL1    C6 5111   0.722   1.127   3.985  0.7137  0.5401 -0.1795
   54CHL1    H6 5112   0.801   1.065   3.940 -0.9128 -1.8761  0.0775
   54CHL1    C7 5113   0.753   1.146   4.124 -0.2084 -0.0984 -0.5325
   54CHL1   H7A 5114   0.792   1.049   4.161  0.4879  1.0020  1.7623
   54CHL1   H7B 5115   0.842   1.211   4.139  1.2334 -2.4675  2.2929
   54CHL1    C8 5116   0.630   1.186   4.208 -0.2688  0.1342 -0.4770
   54CHL1    H8 5117   0.569   1.094   4.215 -0.1518  0.1524  1.0281
   54CHL1   C14 5118   0.657   1.242   4.348  0.4868  0.4287 -0.0945
   54CHL1   H14 5119   0.730   1.322   4.324 -0.2137  0.6259 -1.7614
   54CHL1   C15 5120   0.739   1.147   4.447 -1.2546  0.9194 -0.3815
   54CHL1  H15A 5121   0.709   1.041   4.432  1.2935  0.2233 -0.9051
   54CHL1  H15B 5122   0.845   1.148   4.414 -0.9238  2.4513  0.6433
   54CHL1   C16 5123   0.714   1.208   4.583  0.0836 -0.3526 -0.0809
   54CHL1  H16A 5124   0.666   1.128   4.643 -2.3229  0.0940 -1.2946
   54CHL1  H16B 5125   0.809   1.249   4.624 -0.7468  0.5055  1.0331
   54CHL1   C17 5126   0.608   1.322   4.558  0.2630  0.2276  0.4639
   54CHL1   H17 5127   0.661   1.419   4.547  0.8963 -0.1240  0.3373
   54CHL1   C13 5128   0.537   1.294   4.425 -0.0544 -0.2908  0.0469
   54CHL1   C18 5129   0.432   1.181   4.444  0.0474 -0.4864 -0.0082
   54CHL1  H18A 5130   0.335   1.220   4.481  0.6309  1.7490 -0.6565
   54CHL1  H18B 5131   0.397   1.133   4.350 -0.9636 -0.6136  0.4190
   54CHL1  H18C 5132   0.463   1.103   4.516 -0.0935 -0.2929  0.2611
   54CHL1   C12 5133   0.491   1.411   4.344  0.1364  0.0115 -0.0580
   54CHL1  H12A 5134   0.420   1.482   4.393  0.7805 -0.1871  1.1778
   54CHL1  H12B 5135   0.574   1.483   4.327  1.1069 -0.9339  0.5645
   54CHL1   C11 5136   0.439   1.376   4.206 -0.2879 -0.5535 -0.1591
   54CHL1  H11A 5137   0.350   1.312   4.224 -0.6473 -1.0629 -3.1350
   54CHL1  H11B 5138   0.405   1.465   4.149 -0.3528 -0.7485 -0.4288
   54CHL1    C9 5139   0.548   1.296   4.128  1.0498 -0.5253 -0.3514
   54CHL1    H9 5140   0.630   1.369   4.112  0.0637  0.3771 -1.5013
   54CHL1   C10 5141   0.507   1.250   3.991 -0.0029  0.1491  0.8524
   54CHL1   C19 5142   0.381   1.173   4.003  0.3198  0.7506 -0.2163
   54CHL1  H19A 5143   0.354   1.130   3.904  0.8813 -0.3617  0.1071
   54CHL1  H19B 5144   0.393   1.098   4.083 -1.5769  0.0364 -0.5520
   54CHL1  H19C 5145   0.296   1.235   4.039 -0.0934 -0.1518  0.3772
   54CHL1    C1 5146   0.481   1.376   3.899 -0.1834 -0.5901  0.0499
   54CHL1   H1A 5147   0.393   1.426   3.945  1.6958  1.2288  1.9216
   54CHL1   H1B 5148   0.564   1.450   3.904 -0.6760 -0.0002 -0.4187
   54CHL1    C2 5149   0.447   1.346   3.746 -0.7646  0.0013 -0.3296
   54CHL1   H2A 5150   0.456   1.439   3.686  4.4458  0.2179  0.3239
   54CHL1   H2B 5151   0.352   1.290   3.740 -0.4066 -0.7584  0.7942
   54CHL1   C20 5152   0.521   1.333   4.685  0.0991 -0.1581 -0.2568
   54CHL1   H20 5153   0.471   1.234   4.693  0.0247 -0.1513 -0.6375
   54CHL1   C21 5154   0.412   1.433   4.663  0.1162  0.2347 -0.1315
   54CHL1  H21A 5155   0.451   1.527   4.619 -0.9665  1.4033  1.3286
   54CHL1  H21B 5156   0.357   1.453   4.757  1.2391 -1.4878  0.9530
   54CHL1  H21C 5157   0.336   1.394   4.592 -0.5798  1.2706  0.0176
   54CHL1   C22 5158   0.598   1.357   4.819 -0.3625  0.1421  0.8434
   54CHL1  H22A 5159   0.683   1.285   4.829 -1.0802 -0.6256  1.6664
   54CHL1  H22B 5160   0.650   1.455   4.816 -1.7278  0.8688 -0.0411
   54CHL1   C23 5161   0.510   1.347   4.943  0.4631  0.0698  0.3501
   54CHL1  H23A 5162   0.466   1.447   4.966 -1.7164 -0.7515 -0.0558
   54CHL1  H23B 5163   0.422   1.281   4.931  0.3998 -0.4218  2.9941
   54CHL1   C24 5164   0.580   1.302   5.078 -0.7191  0.3817 -0.9663
   54CHL1  H24A 5165   0.652   1.220   5.056  0.6307  1.8149 -2.1046
   54CHL1  H24B 5166   0.650   1.381   5.111  0.7757 -1.5098  0.6681
   54CHL1   C25 5167   0.477   1.265   5.183  0.4390  0.3321 -0.3435
   54CHL1   H25 5168   0.396   1.210   5.132  1.3264 -0.8813 -0.4754
   54CHL1   C26 5169   0.522   1.178   5.292 -0.1104 -0.2727 -0.5638
   54CHL1  H26A 5170   0.584   1.238   5.363  1.0249 -2.0371  0.0122
   54CHL1  H26B 5171   0.439   1.131   5.350  2.7612 -2.0274  2.5157
   54CHL1  H26C 5172   0.590   1.095   5.264  0.8083  0.6432 -1.1127
   54CHL1   C27 5173   0.410   1.391   5.239  0.0876 -0.1178 -0.0775
   54CHL1  H27A 5174   0.360   1.445   5.156 -0.9166  0.8036  1.0919
   54CHL1  H27B 5175   0.329   1.367   5.312 -0.2635 -0.5284 -0.5906
   54CHL1  H27C 5176   0.489   1.451   5.288  1.1809 -1.5486 -0.0292
   55CHL1    C3 5177   0.083   3.447   3.846  0.3476 -0.1791 -0.7600
   55CHL1    H3 5178  -0.024   3.452   3.816  0.6186 -1.1883 -1.9720
   55CHL1    O3 5179   0.150   3.402   3.730 -0.6521  0.5126  0.1863
   55CHL1   H3' 5180   0.239   3.407   3.766 -0.5434  0.2690 -0.0486
   55CHL1    C4 5181   0.153   3.579   3.875  0.5635 -0.5276 -0.0037
   55CHL1   H4A 5182   0.262   3.562   3.863  0.2829 -0.7850 -3.1741
   55CHL1   H4B 5183   0.129   3.657   3.799  2.0720  0.1995  0.2367
   55CHL1    C5 5184   0.101   3.631   4.006 -0.9079 -0.0561 -0.1776
   55CHL1    C6 5185   0.044   3.751   4.009 -0.3864  0.1494 -0.4127
   55CHL1    H6 5186   0.031   3.812   3.919 -2.1709  0.1463 -0.1894
   55CHL1    C7 5187  -0.001   3.819   4.133 -0.2389  0.2667 -0.7663
   55CHL1   H7A 5188   0.045   3.919   4.148  2.4257 -0.4848 -3.0666
   55CHL1   H7B 5189  -0.111   3.815   4.145 -0.1034  0.6424  0.8477
   55CHL1    C8 5190   0.054   3.748   4.266 -0.2800  0.5391  0.2981
   55CHL1    H8 5191   0.162   3.771   4.278  0.6922 -4.2277  3.2606
   55CHL1   C14 5192  -0.028   3.795   4.389  0.3615  0.1035  0.6330
   55CHL1   H14 5193  -0.128   3.754   4.366 -0.0543  1.3502  0.1687
   55CHL1   C15 5194  -0.039   3.947   4.417  0.2723 -0.4533  0.0026
   55CHL1  H15A 5195   0.056   4.003   4.406  0.0186  0.1867  0.9495
   55CHL1  H15B 5196  -0.110   4.001   4.350 -0.9765  1.3028  2.5803
   55CHL1   C16 5197  -0.090   3.957   4.557 -0.0260  0.5466 -0.3323
   55CHL1  H16A 5198  -0.023   4.014   4.625  1.1030 -0.6379 -0.4238
   55CHL1  H16B 5199  -0.196   3.990   4.562 -0.0174  0.4166  3.3003
   55CHL1   C17 5200  -0.083   3.805   4.614 -0.6237 -0.1639 -0.3518
   55CHL1   H17 5201  -0.185   3.764   4.603 -1.0885  0.6364  0.7568
   55CHL1   C13 5202   0.014   3.735   4.520 -0.4521 -0.2584 -0.4733
   55CHL1   C18 5203   0.158   3.777   4.566  0.8665 -0.2164  0.2640
   55CHL1  H18A 5204   0.227   3.755   4.481  1.1297  1.0434  0.1298
   55CHL1  H18B 5205   0.172   3.881   4.601 -0.1949  0.0341 -0.0406
   55CHL1  H18C 5206   0.192   3.719   4.655 -3.7557  0.3551  2.6645
   55CHL1   C12 5207   0.006   3.586   4.511 -0.3456 -0.2092  0.3112
   55CHL1  H12A 5208   0.051   3.545   4.604 -3.5702  1.1793  2.6643
   55CHL1  H12B 5209  -0.104   3.573   4.505 -0.7838  3.0260 -1.5715
   55CHL1   C11 5210   0.084   3.531   4.385  0.6639  0.0637 -0.1275
   55CHL1  H11A 5211   0.189   3.562   4.402  1.2924 -2.1357  0.3038
   55CHL1  H11B 5212   0.071   3.421   4.376 -1.6118  0.2241  0.4631
   55CHL1    C9 5213   0.047   3.595   4.249 -0.3840 -0.7493  0.1491
   55CHL1    H9 5214  -0.059   3.574   4.226 -0.6698  2.2259 -1.7099
   55CHL1   C10 5215   0.123   3.541   4.132  0.0753 -0.0245 -0.2300
   55CHL1   C19 5216   0.275   3.537   4.154  0.1257 -0.6047  0.1730
   55CHL1  H19A 5217   0.319   3.639   4.161  2.4000 -1.2284 -2.6568
   55CHL1  H19B 5218   0.303   3.480   4.245 -1.7434  1.3554  2.0620
   55CHL1  H19C 5219   0.338   3.490   4.075  2.0600 -1.0813  1.9168
   55CHL1    C1 5220   0.069   3.403   4.090 -0.0354 -0.1036 -0.4214
   55CHL1   H1A 5221   0.093   3.335   4.175  0.4657  0.2303 -0.2930
   55CHL1   H1B 5222  -0.042   3.392   4.090 -0.1274  0.6897 -1.2293
   55CHL1    C2 5223   0.114   3.347   3.955 -0.0081  0.5106  1.0827
   55CHL1   H2A 5224   0.077   3.245   3.933  3.2192 -0.2938 -1.3053
   55CHL1   H2B 5225   0.224   3.331   3.955  0.5377  3.5287  1.5499
   55CHL1   C20 5226  -0.057   3.796   4.765  0.3747  0.9316 -0.2047
   55CHL1   H20 5227   0.043   3.838   4.789 -0.0769  0.5772  2.6552
   55CHL1   C21 5228  -0.047   3.651   4.826 -0.1177  0.0852  0.3653
   55CHL1  H21A 5229  -0.065   3.664   4.935  0.2534 -0.1294  0.4523
   55CHL1  H21B 5230   0.053   3.605   4.813 -0.5438 -0.6431 -0.3857
   55CHL1  H21C 5231  -0.133   3.597   4.780  0.7415 -0.9304 -0.0783
   55CHL1   C22 5232  -0.174   3.872   4.841 -0.2984 -0.5994  0.0102
   55CHL1  H22A 5233  -0.195   3.972   4.795  1.5327 -0.5531 -0.8269
   55CHL1  H22B 5234  -0.267   3.812   4.852  0.0814 -1.3564 -0.7795
   55CHL1   C23 5235  -0.136   3.917   4.982 -0.6587  0.0409  0.2696
   55CHL1  H23A 5236  -0.127   3.829   5.049 -1.1061 -0.6029 -0.5047
   55CHL1  H23B 5237  -0.036   3.964   4.997 -1.0155  0.8084  0.2946
   55CHL1   C24 5238  -0.240   4.002   5.058  0.4164 -0.0887 -0.7410
   55CHL1  H24A 5239  -0.222   4.109   5.033  1.6562  0.2029  1.1647
   55CHL1  H24B 5240  -0.346   3.988   5.028  0.2886  1.3449 -1.0638
   55CHL1   C25 5241  -0.234   3.989   5.210 -0.5865 -0.2205  0.0563
   55CHL1   H25 5242  -0.258   3.886   5.242  1.2413 -0.1572  1.8332
   55CHL1   C26 5243  -0.092   4.014   5.267  0.0725  0.2115  0.3148
   55CHL1  H26A 5244  -0.082   4.019   5.378 -0.6501 -0.2556  0.4069
   55CHL1  H26B 5245  -0.017   3.942   5.228  1.2634  1.8879 -0.6202
   55CHL1  H26C 5246  -0.064   4.115   5.230 -0.3847 -0.4156 -1.8489
   55CHL1   C27 5247  -0.335   4.081   5.274 -0.0441 -0.4121 -0.1591
   55CHL1  H27A 5248  -0.306   4.188   5.273 -0.5530 -0.2417 -2.8727
   55CHL1  H27B 5249  -0.429   4.058   5.220 -0.2167  0.4365 -0.2256
   55CHL1  H27C 5250  -0.352   4.057   5.381  4.4235 -1.2013  0.5976
   56CHL1    C3 5251   2.956   4.174   3.632 -0.1795  0.0001  0.4906
   56CHL1    H3 5252   3.041   4.120   3.677 -0.7946  1.4980  3.7353
   56CHL1    O3 5253   2.947   4.147   3.491  0.6616  0.5501 -0.2729
   56CHL1   H3' 5254   2.987   4.063   3.468 -0.0761 -0.1603  0.9534
   56CHL1    C4 5255   2.823   4.144   3.705 -0.0418  0.8609  0.2432
   56CHL1   H4A 5256   2.734   4.194   3.662 -0.9412  1.7596  2.9641
   56CHL1   H4B 5257   2.808   4.035   3.689  2.1379  0.7405 -1.4622
   56CHL1    C5 5258   2.828   4.180   3.855  0.4732  0.1804  0.5332
   56CHL1    C6 5259   2.798   4.085   3.947  1.1200  0.2821  0.0251
   56CHL1    H6 5260   2.776   3.986   3.905  0.5221  0.5829 -0.4036
   56CHL1    C7 5261   2.795   4.108   4.096 -0.4477 -0.9798 -0.5482
   56CHL1   H7A 5262   2.703   4.078   4.150  0.9824 -0.1119  2.5687
   56CHL1   H7B 5263   2.879   4.053   4.143 -0.8094 -1.7062 -0.7446
   56CHL1    C8 5264   2.816   4.260   4.133  0.5788 -0.1391 -0.9003
   56CHL1    H8 5265   2.716   4.309   4.138  0.8272  0.3600 -0.7421
   56CHL1   C14 5266   2.868   4.268   4.276  0.0518  0.2064 -0.1995
   56CHL1   H14 5267   2.963   4.211   4.279 -1.4545 -2.3902  2.2213
   56CHL1   C15 5268   2.782   4.201   4.386 -0.1787  0.6786  0.1387
   56CHL1  H15A 5269   2.674   4.219   4.367  0.1142  0.2467 -2.3401
   56CHL1  H15B 5270   2.775   4.090   4.385 -0.6970  0.7050  0.1899
   56CHL1   C16 5271   2.816   4.263   4.520 -0.5308 -0.5480  0.0244
   56CHL1  H16A 5272   2.732   4.325   4.558  1.8533  1.4146  2.4710
   56CHL1  H16B 5273   2.849   4.188   4.596 -1.1154 -0.8509 -0.0092
   56CHL1   C17 5274   2.931   4.361   4.483 -0.4833  0.3147  0.4448
   56CHL1   H17 5275   3.027   4.305   4.477 -0.3647  0.6369 -0.7861
   56CHL1   C13 5276   2.898   4.401   4.340  0.0892 -0.6046 -0.2635
   56CHL1   C18 5277   2.770   4.493   4.325  0.2683  0.5848  0.2680
   56CHL1  H18A 5278   2.686   4.439   4.372  2.8132 -2.4934  1.6227
   56CHL1  H18B 5279   2.783   4.596   4.365 -0.3569 -0.0469  2.2025
   56CHL1  H18C 5280   2.747   4.495   4.216 -1.6746 -0.8145  0.6033
   56CHL1   C12 5281   3.010   4.454   4.247  0.3643  0.3706  0.2992
   56CHL1  H12A 5282   3.048   4.553   4.281  1.0582  0.6149 -1.1079
   56CHL1  H12B 5283   3.097   4.386   4.249  1.7698  1.9869 -1.5879
   56CHL1   C11 5284   2.970   4.466   4.095  0.3289 -0.0569  0.3510
   56CHL1  H11A 5285   2.897   4.548   4.079 -0.0515 -0.8868 -2.8975
   56CHL1  H11B 5286   3.062   4.491   4.038  0.0505  0.5601  0.1676
   56CHL1    C9 5287   2.921   4.325   4.038 -0.3759  0.3813  0.2262
   56CHL1    H9 5288   3.015   4.266   4.046 -0.0235  1.1672  4.8066
   56CHL1   C10 5289   2.879   4.320   3.890  0.2200  0.8811  0.0936
   56CHL1   C19 5290   2.771   4.425   3.866 -0.9337 -0.7694  0.4828
   56CHL1  H19A 5291   2.688   4.412   3.938 -0.3177  0.0194  1.3663
   56CHL1  H19B 5292   2.813   4.528   3.869 -0.2952 -0.9738 -0.8084
   56CHL1  H19C 5293   2.730   4.418   3.763 -0.4227 -1.1927  0.3014
   56CHL1    C1 5294   2.999   4.357   3.794  0.0254  0.1542  0.6323
   56CHL1   H1A 5295   3.018   4.466   3.805 -0.3868  0.2719  0.1941
   56CHL1   H1B 5296   3.088   4.301   3.829 -0.8069 -0.5106  1.7927
   56CHL1    C2 5297   2.973   4.327   3.650  0.2286  0.1193  0.0413
   56CHL1   H2A 5298   3.055   4.361   3.583  0.7807  0.1508  0.7271
   56CHL1   H2B 5299   2.882   4.384   3.620  0.9507  2.9653  2.8245
   56CHL1   C20 5300   2.946   4.468   4.591 -0.2459 -0.1172 -0.1587
   56CHL1   H20 5301   2.846   4.515   4.604  0.9128  2.2821  0.6172
   56CHL1   C21 5302   3.038   4.582   4.553  0.7535  0.5667  0.2779
   56CHL1  H21A 5303   3.043   4.652   4.639  0.5083  2.3463 -1.0816
   56CHL1  H21B 5304   3.000   4.653   4.476  0.2575  1.4045  1.2748
   56CHL1  H21C 5305   3.141   4.544   4.534 -0.1200 -1.2290 -1.1542
   56CHL1   C22 5306   2.984   4.415   4.737 -0.0247 -0.3981  0.0802
   56CHL1  H22A 5307   3.000   4.305   4.733  1.1082 -0.2759  0.7668
   56CHL1  H22B 5308   3.078   4.463   4.772 -1.2127  0.8435  1.8193
   56CHL1   C23 5309   2.878   4.462   4.837  0.6595  0.7938 -1.1770
   56CHL1  H23A 5310   2.882   4.572   4.853  1.1866  0.3917  2.0361
   56CHL1  H23B 5311   2.782   4.432   4.789  0.8796  0.9439 -1.7148
   56CHL1   C24 5312   2.897   4.397   4.973  0.2711  0.6942  0.0481
   56CHL1  H24A 5313   2.925   4.291   4.952  2.5653  1.3662 -0.5038
   56CHL1  H24B 5314   2.983   4.441   5.027  1.7483 -2.1821  0.2206
   56CHL1   C25 5315   2.770   4.396   5.065  1.1277 -0.1123 -0.0084
   56CHL1   H25 5316   2.730   4.500   5.062  0.2779 -0.3678  1.5158
   56CHL1   C26 5317   2.656   4.307   5.009  0.0924  0.0771  0.3145
   56CHL1  H26A 5318   2.575   4.301   5.085 -1.2647  2.1153 -0.8694
   56CHL1  H26B 5319   2.613   4.360   4.922 -1.1090  0.8112  1.3184
   56CHL1  H26C 5320   2.696   4.207   4.980  0.5005  0.1894  0.4877
   56CHL1   C27 5321   2.799   4.369   5.211  1.2501 -1.2463  0.0609
   56CHL1  H27A 5322   2.879   4.439   5.243  0.4197 -0.8291  1.3226
   56CHL1  H27B 5323   2.707   4.392   5.269  1.1171  2.8826 -1.4366
   56CHL1  H27C 5324   2.834   4.270   5.246  0.7329 -0.1476  4.1363
   57CHL1    C3 5325   3.300   3.213   3.638 -0.4381 -0.6608 -0.4178
   57CHL1    H3 5326   3.353   3.310   3.647  0.1339 -1.0769  0.9522
   57CHL1    O3 5327   3.306   3.178   3.505  0.3502 -0.2056 -0.5170
   57CHL1   H3' 5328   3.325   3.084   3.507 -1.0201 -0.4921  0.9528
   57CHL1    C4 5329   3.357   3.107   3.732 -0.3846 -0.0478 -0.6431
   57CHL1   H4A 5330   3.302   3.013   3.708  0.8852 -1.3125  1.1528
   57CHL1   H4B 5331   3.462   3.084   3.706 -0.1851 -2.2481  1.7456
   57CHL1    C5 5332   3.336   3.136   3.872 -0.0906 -0.2914 -0.4594
   57CHL1    C6 5333   3.450   3.157   3.943 -0.0036 -0.2753 -0.2081
   57CHL1    H6 5334   3.541   3.137   3.886  0.6936 -1.0506  1.1105
   57CHL1    C7 5335   3.460   3.200   4.090 -0.1113 -0.2975 -0.1824
   57CHL1   H7A 5336   3.548   3.165   4.148  0.0658  1.5475  0.7475
   57CHL1   H7B 5337   3.478   3.309   4.101  0.5375 -0.4393  0.2646
   57CHL1    C8 5338   3.323   3.185   4.152 -0.1852  0.3242  0.2118
   57CHL1    H8 5339   3.299   3.079   4.176  0.6142  0.5646  2.2594
   57CHL1   C14 5340   3.318   3.263   4.290  0.0315 -0.3862  0.6184
   57CHL1   H14 5341   3.344   3.370   4.274  0.2582 -0.1555  2.3960
   57CHL1   C15 5342   3.432   3.228   4.385  0.0686  1.0602  0.4439
   57CHL1  H15A 5343   3.450   3.119   4.369  1.3374  1.4035 -0.5884
   57CHL1  H15B 5344   3.525   3.284   4.362 -1.3979  3.6570  0.5322
   57CHL1   C16 5345   3.378   3.263   4.523 -1.7711  0.8439  0.3454
   57CHL1  H16A 5346   3.369   3.170   4.583  1.9646 -0.8516 -1.3684
   57CHL1  H16B 5347   3.434   3.341   4.578 -3.9221  1.3211  2.0082
   57CHL1   C17 5348   3.238   3.325   4.491  0.1663  0.2808 -0.1169
   57CHL1   H17 5349   3.248   3.433   4.466  0.3635  0.3240  0.1373
   57CHL1   C13 5350   3.188   3.257   4.364 -0.5170  0.1425  0.1767
   57CHL1   C18 5351   3.154   3.110   4.398 -0.3709  0.9509  0.1605
   57CHL1  H18A 5352   3.106   3.065   4.308 -0.6196  3.2915 -0.9532
   57CHL1  H18B 5353   3.233   3.043   4.439 -2.2448  0.1325  2.7279
   57CHL1  H18C 5354   3.072   3.109   4.473 -1.2709 -0.9150 -0.7704
   57CHL1   C12 5355   3.088   3.337   4.281 -0.1682 -0.3322 -0.2491
   57CHL1  H12A 5356   2.995   3.351   4.340  0.2893  2.6390 -0.0444
   57CHL1  H12B 5357   3.128   3.439   4.263 -1.0816  0.1881  0.5789
   57CHL1   C11 5358   3.077   3.274   4.139 -0.1839  0.1719  0.5381
   57CHL1  H11A 5359   3.018   3.180   4.150  0.8881 -0.9601 -2.4590
   57CHL1  H11B 5360   3.016   3.340   4.074 -0.7887 -0.0840  0.8372
   57CHL1    C9 5361   3.209   3.241   4.064 -0.4983 -0.3374 -0.3658
   57CHL1    H9 5362   3.239   3.345   4.041 -1.3481  0.1172  0.4886
   57CHL1   C10 5363   3.198   3.174   3.923 -0.3715 -0.0871 -0.1300
   57CHL1   C19 5364   3.113   3.037   3.935 -0.2635 -0.2682 -0.7391
   57CHL1  H19A 5365   3.009   3.047   3.971  0.1649 -0.4065  0.5765
   57CHL1  H19B 5366   3.114   2.988   3.835  2.2325  0.1895 -1.0151
   57CHL1  H19C 5367   3.179   2.980   4.003  0.7328  0.6449 -0.9056
   57CHL1    C1 5368   3.124   3.273   3.824  0.2776 -0.4511 -0.7411
   57CHL1   H1A 5369   3.015   3.257   3.842  0.4348 -2.8128 -1.4714
   57CHL1   H1B 5370   3.155   3.376   3.849  1.7563 -1.5214  2.2815
   57CHL1    C2 5371   3.148   3.237   3.672 -0.3512  0.2015 -0.0275
   57CHL1   H2A 5372   3.103   3.320   3.614  0.2886  0.2173 -0.5107
   57CHL1   H2B 5373   3.095   3.144   3.642 -0.2647  0.3627 -0.6916
   57CHL1   C20 5374   3.145   3.323   4.615 -0.2763  0.6002 -0.3574
   57CHL1   H20 5375   3.106   3.225   4.651 -3.0769  1.5698 -0.4977
   57CHL1   C21 5376   3.014   3.404   4.593  0.1922  0.4787 -0.1441
   57CHL1  H21A 5377   2.946   3.332   4.543  0.6170  0.3888 -0.5923
   57CHL1  H21B 5378   3.027   3.496   4.533 -4.2239 -0.0084 -2.2803
   57CHL1  H21C 5379   2.976   3.425   4.696 -0.3544 -3.2269  0.5642
   57CHL1   C22 5380   3.207   3.381   4.740  0.5304  0.0796  0.1226
   57CHL1  H22A 5381   3.131   3.378   4.821 -1.2990  0.3899 -1.5140
   57CHL1  H22B 5382   3.293   3.314   4.763  0.6172 -0.0561 -0.5687
   57CHL1   C23 5383   3.262   3.517   4.718  0.0904 -1.0666  0.2007
   57CHL1  H23A 5384   3.337   3.521   4.637  0.8003 -0.4426  0.8688
   57CHL1  H23B 5385   3.174   3.585   4.715 -0.1634 -1.1465  2.8872
   57CHL1   C24 5386   3.350   3.575   4.839  1.3542 -0.0744 -0.4200
   57CHL1  H24A 5387   3.438   3.507   4.842  0.2035 -1.6081  0.8804
   57CHL1  H24B 5388   3.360   3.684   4.820 -1.1545  0.5186  1.1992
   57CHL1   C25 5389   3.278   3.560   4.976  0.8132  0.3603 -0.1310
   57CHL1   H25 5390   3.245   3.456   4.995 -0.2239  0.4537 -1.2896
   57CHL1   C26 5391   3.378   3.575   5.092  0.0344  0.2287  0.5140
   57CHL1  H26A 5392   3.428   3.674   5.077  1.1766 -0.6599 -2.2287
   57CHL1  H26B 5393   3.328   3.561   5.190 -0.7703  0.7559  0.1905
   57CHL1  H26C 5394   3.461   3.502   5.085 -1.1196 -1.1914  1.2223
   57CHL1   C27 5395   3.157   3.650   4.982 -0.4612 -0.1027  0.1961
   57CHL1  H27A 5396   3.082   3.609   4.912  0.0152 -1.7154  0.5874
   57CHL1  H27B 5397   3.121   3.649   5.087  0.0866 -1.1079  0.3886
   57CHL1  H27C 5398   3.190   3.755   4.969  3.3991 -1.1653  0.0623
   58CHL1    C3 5399   0.948   4.520   3.436  0.2468  0.5769 -0.1944
   58CHL1    H3 5400   1.032   4.458   3.474 -1.0421  0.1513  2.1894
   58CHL1    O3 5401   0.958   4.522   3.294 -0.1697 -0.7524  0.2307
   58CHL1   H3' 5402   0.918   4.605   3.268  0.1022 -1.1601 -1.6761
   58CHL1    C4 5403   0.820   4.449   3.488 -0.1131  1.1039 -0.2008
   58CHL1   H4A 5404   0.743   4.517   3.449 -1.2938 -0.2413 -0.2929
   58CHL1   H4B 5405   0.792   4.355   3.435 -1.9787  0.3339  1.9806
   58CHL1    C5 5406   0.807   4.435   3.635  0.1958  0.0436  0.0115
   58CHL1    C6 5407   0.790   4.318   3.699 -0.4262 -0.2442  0.3405
   58CHL1    H6 5408   0.773   4.223   3.647 -0.7307  0.3292 -0.6176
   58CHL1    C7 5409   0.781   4.297   3.849 -0.6573  0.2471  0.9068
   58CHL1   H7A 5410   0.693   4.234   3.877  0.4764 -1.9961 -0.3195
   58CHL1   H7B 5411   0.875   4.265   3.897  0.6552  1.5155 -0.7146
   58CHL1    C8 5412   0.762   4.437   3.919  0.1570  0.1496 -0.7804
   58CHL1    H8 5413   0.660   4.482   3.914 -0.4346 -0.5529  2.6486
   58CHL1   C14 5414   0.797   4.420   4.066  0.3087  0.4006  0.5482
   58CHL1   H14 5415   0.905   4.398   4.069  0.5399  1.5540  1.7101
   58CHL1   C15 5416   0.733   4.304   4.143 -0.3424 -0.2299  0.5708
   58CHL1  H15A 5417   0.626   4.291   4.114 -0.1777 -0.0183 -0.1600
   58CHL1  H15B 5418   0.786   4.218   4.097  0.1800  0.4911 -0.2059
   58CHL1   C16 5419   0.751   4.341   4.290  0.1101  0.3213  0.2836
   58CHL1  H16A 5420   0.644   4.334   4.320  0.0538  1.2893  0.3586
   58CHL1  H16B 5421   0.801   4.263   4.351  0.0081  0.6812  0.8352
   58CHL1   C17 5422   0.818   4.481   4.291  0.6243 -0.0558 -0.9859
   58CHL1   H17 5423   0.927   4.465   4.285  0.7498  0.8068 -1.2111
   58CHL1   C13 5424   0.785   4.541   4.154 -0.2284  0.2950 -0.3337
   58CHL1   C18 5425   0.633   4.582   4.156  0.0528 -0.5944  0.3862
   58CHL1  H18A 5426   0.565   4.498   4.184 -0.6248 -0.8278 -1.7935
   58CHL1  H18B 5427   0.621   4.663   4.232 -1.1823 -0.3486 -0.0451
   58CHL1  H18C 5428   0.601   4.634   4.063  0.7967 -0.8115  0.0044
   58CHL1   C12 5429   0.879   4.644   4.089 -0.3697 -0.0169  0.2053
   58CHL1  H12A 5430   0.876   4.741   4.143 -0.3449  1.9494 -3.0466
   58CHL1  H12B 5431   0.972   4.585   4.104 -1.6590 -2.1216  0.4183
   58CHL1   C11 5432   0.847   4.674   3.943 -0.5245 -0.4346  0.0022
   58CHL1  H11A 5433   0.747   4.722   3.938 -0.9850 -1.4991 -2.1995
   58CHL1  H11B 5434   0.929   4.740   3.906 -0.7845 -2.0647 -3.9961
   58CHL1    C9 5435   0.850   4.542   3.861  0.1762 -0.0551 -0.6464
   58CHL1    H9 5436   0.956   4.509   3.870 -0.1022 -0.4837  1.6612
   58CHL1   C10 5437   0.827   4.569   3.710 -0.7624 -0.3433  0.5891
   58CHL1   C19 5438   0.700   4.665   3.689 -0.6915 -0.4854 -0.6466
   58CHL1  H19A 5439   0.684   4.678   3.580  1.7608 -0.9641 -1.1362
   58CHL1  H19B 5440   0.609   4.622   3.737 -0.6988 -0.0447 -0.2493
   58CHL1  H19C 5441   0.715   4.764   3.737 -2.2762 -1.9209  3.2276
   58CHL1    C1 5442   0.952   4.647   3.649 -0.5297  0.3299  0.0448
   58CHL1   H1A 5443   0.956   4.750   3.692 -0.8387  0.2272  0.3208
   58CHL1   H1B 5444   1.042   4.589   3.679 -0.2319 -1.6028 -3.9612
   58CHL1    C2 5445   0.953   4.667   3.495 -0.5000 -0.4905  1.2494
   58CHL1   H2A 5446   1.051   4.713   3.469  0.5025 -2.7730  0.7059
   58CHL1   H2B 5447   0.868   4.726   3.455 -0.1735 -1.6646 -1.3556
   58CHL1   C20 5448   0.782   4.570   4.424 -0.2877 -0.1389  0.2715
   58CHL1   H20 5449   0.673   4.590   4.432 -0.0935  0.8861  0.3699
   58CHL1   C21 5450   0.852   4.707   4.402  0.3103  0.4815 -0.4591
   58CHL1  H21A 5451   0.851   4.761   4.499 -1.1136  0.8949 -0.6666
   58CHL1  H21B 5452   0.791   4.774   4.336 -1.4064  1.1854  1.7018
   58CHL1  H21C 5453   0.959   4.689   4.379  0.1624 -0.0438 -0.7405
   58CHL1   C22 5454   0.846   4.499   4.548  0.2960 -0.8488 -0.4078
   58CHL1  H22A 5455   0.866   4.392   4.528 -0.2201 -1.1102  0.4082
   58CHL1  H22B 5456   0.941   4.544   4.584  0.6726 -1.5555 -0.5096
   58CHL1   C23 5457   0.744   4.500   4.663  0.6909  0.1545  0.2929
   58CHL1  H23A 5458   0.735   4.604   4.700 -1.0282 -0.0045  0.3617
   58CHL1  H23B 5459   0.645   4.465   4.628  0.4616 -0.9124  1.9028
   58CHL1   C24 5460   0.765   4.397   4.775  0.0614  0.0552 -0.2510
   58CHL1  H24A 5461   0.754   4.293   4.736  0.6424 -0.1084  0.0056
   58CHL1  H24B 5462   0.866   4.406   4.821  0.2046  0.2189 -0.5995
   58CHL1   C25 5463   0.663   4.420   4.892 -0.1054 -0.4791  0.1336
   58CHL1   H25 5464   0.565   4.442   4.844  0.2802 -0.2535 -0.5565
   58CHL1   C26 5465   0.642   4.289   4.971 -0.4143  0.0101  0.0763
   58CHL1  H26A 5466   0.738   4.259   5.019 -0.6675  1.4714  1.5788
   58CHL1  H26B 5467   0.570   4.307   5.054  0.5829  0.5165  0.8563
   58CHL1  H26C 5468   0.607   4.206   4.907  2.0439 -2.0926  1.2978
   58CHL1   C27 5469   0.697   4.539   4.981  0.6166 -0.0935  0.0247
   58CHL1  H27A 5470   0.729   4.623   4.915  1.3600 -1.3927 -1.3421
   58CHL1  H27B 5471   0.608   4.567   5.041  1.0192  1.5770 -0.0999
   58CHL1  H27C 5472   0.769   4.515   5.061 -0.8833  0.2816  1.5394
   59CHL1    C3 5473   0.669   3.829   3.571 -0.1653 -0.0544  0.3914
   59CHL1    H3 5474   0.777   3.849   3.590 -0.5247  2.0605  0.5060
   59CHL1    O3 5475   0.657   3.820   3.431 -0.0786 -0.0311  0.3631
   59CHL1   H3' 5476   0.562   3.822   3.415 -0.0276  1.3567  0.1209
   59CHL1    C4 5477   0.619   3.700   3.643 -0.0767 -1.1038  0.6391
   59CHL1   H4A 5478   0.511   3.689   3.618 -0.1874 -1.6597  1.3710
   59CHL1   H4B 5479   0.666   3.606   3.607 -0.6213 -1.3164  0.4698
   59CHL1    C5 5480   0.633   3.718   3.795  0.3465 -0.6304  0.0422
   59CHL1    C6 5481   0.714   3.634   3.861  0.0482 -0.8193 -0.2527
   59CHL1    H6 5482   0.769   3.554   3.810  2.4688 -0.1925  1.1953
   59CHL1    C7 5483   0.743   3.645   4.013 -0.6747  0.1637 -0.0946
   59CHL1   H7A 5484   0.736   3.547   4.065  0.8398 -1.0067 -1.9708
   59CHL1   H7B 5485   0.847   3.681   4.029 -0.4029 -0.7796  0.3498
   59CHL1    C8 5486   0.643   3.741   4.086  0.1746  0.2162  0.1995
   59CHL1    H8 5487   0.546   3.686   4.083  0.7457 -0.8051 -1.3744
   59CHL1   C14 5488   0.691   3.779   4.221 -1.0887  0.1612 -0.4729
   59CHL1   H14 5489   0.786   3.827   4.190 -0.3112  0.2252  1.8135
   59CHL1   C15 5490   0.745   3.661   4.305  0.8163  0.3430 -0.1728
   59CHL1  H15A 5491   0.676   3.577   4.326  2.8759 -1.7685 -1.3857
   59CHL1  H15B 5492   0.843   3.623   4.269 -0.0822 -0.1609 -2.2607
   59CHL1   C16 5493   0.763   3.741   4.441 -0.5428 -0.0856 -0.6210
   59CHL1  H16A 5494   0.726   3.689   4.532  1.3154 -2.4701 -1.1014
   59CHL1  H16B 5495   0.873   3.752   4.454 -0.6992 -0.4353  1.1968
   59CHL1   C17 5496   0.699   3.884   4.434 -0.4722  0.3642  0.9083
   59CHL1   H17 5497   0.780   3.947   4.392 -1.0256  1.5018  1.4911
   59CHL1   C13 5498   0.611   3.876   4.311 -0.4579  0.3071 -0.2575
   59CHL1   C18 5499   0.472   3.816   4.347 -0.3150 -0.8583 -0.0071
   59CHL1  H18A 5500   0.410   3.795   4.258  1.2068 -2.5802 -0.7286
   59CHL1  H18B 5501   0.482   3.713   4.386  0.2985 -1.6620 -2.1400
   59CHL1  H18C 5502   0.404   3.886   4.401  0.5711  0.1462 -0.1449
   59CHL1   C12 5503   0.592   4.004   4.223 -0.0210  0.5047 -0.1372
   59CHL1  H12A 5504   0.524   4.068   4.282 -0.3506  0.4993 -0.5070
   59CHL1  H12B 5505   0.697   4.042   4.221 -0.0662  0.6103 -1.0723
   59CHL1   C11 5506   0.541   3.974   4.082 -0.6492  0.0643 -0.0142
   59CHL1  H11A 5507   0.434   3.947   4.090 -0.6582  0.4676  1.6114
   59CHL1  H11B 5508   0.542   4.066   4.020 -0.6099 -0.1748 -0.3706
   59CHL1    C9 5509   0.626   3.870   4.006  0.5693 -0.1259 -0.2176
   59CHL1    H9 5510   0.730   3.909   4.001  0.0324  1.5374  0.7461
   59CHL1   C10 5511   0.572   3.837   3.864  0.5079  0.6646  0.1936
   59CHL1   C19 5512   0.421   3.820   3.870 -0.4530 -0.2386 -0.1097
   59CHL1  H19A 5513   0.367   3.916   3.889 -0.7732 -0.8938  2.6622
   59CHL1  H19B 5514   0.371   3.767   3.786 -0.2946 -0.9937  0.2629
   59CHL1  H19C 5515   0.390   3.753   3.953  1.3698 -0.6147  0.3059
   59CHL1    C1 5516   0.605   3.961   3.783 -0.1125 -0.2265 -0.5367
   59CHL1   H1A 5517   0.536   4.042   3.816  2.3031  1.4836  0.5768
   59CHL1   H1B 5518   0.708   3.988   3.814 -0.9993  0.6503  1.9175
   59CHL1    C2 5519   0.592   3.950   3.627  0.0948  0.1339 -0.2642
   59CHL1   H2A 5520   0.625   4.051   3.594  1.5443  0.3981  1.7916
   59CHL1   H2B 5521   0.483   3.953   3.608  0.0147  0.7051  0.2493
   59CHL1   C20 5522   0.647   3.940   4.566  0.0139  0.1296 -0.8806
   59CHL1   H20 5523   0.580   3.862   4.610  1.4790 -2.3692 -2.7686
   59CHL1   C21 5524   0.583   4.078   4.564  0.2041  0.7342  0.2862
   59CHL1  H21A 5525   0.496   4.075   4.495  0.9923  1.0422 -0.7386
   59CHL1  H21B 5526   0.651   4.158   4.527  0.7161 -0.0055 -0.3829
   59CHL1  H21C 5527   0.534   4.105   4.660  0.7026 -0.3952  0.8753
   59CHL1   C22 5528   0.773   3.968   4.647  0.8704 -0.5648 -0.4923
   59CHL1  H22A 5529   0.855   3.904   4.609  1.7446 -0.8130  1.6885
   59CHL1  H22B 5530   0.803   4.075   4.650 -0.3625 -0.1959 -0.4909
   59CHL1   C23 5531   0.732   3.931   4.790 -0.1014  0.7824 -0.2874
   59CHL1  H23A 5532   0.640   3.984   4.821 -0.1192  1.1296 -0.9241
   59CHL1  H23B 5533   0.712   3.822   4.791  2.3953  0.2086 -2.1715
   59CHL1   C24 5534   0.844   3.946   4.899  0.1072  0.3073  0.2248
   59CHL1  H24A 5535   0.937   3.898   4.859 -1.0912 -0.4149 -1.8606
   59CHL1  H24B 5536   0.874   4.053   4.907 -0.5930  0.4082  1.6981
   59CHL1   C25 5537   0.798   3.906   5.039  0.1069 -0.4774  0.1829
   59CHL1   H25 5538   0.729   3.984   5.076 -1.0261 -2.2632  2.0741
   59CHL1   C26 5539   0.738   3.764   5.059 -0.5331  0.0524 -0.4558
   59CHL1  H26A 5540   0.738   3.731   5.165 -0.9905  2.1637  0.2619
   59CHL1  H26B 5541   0.632   3.767   5.025 -0.4804  1.2208 -0.5781
   59CHL1  H26C 5542   0.795   3.691   4.998  0.7388  0.1902  0.5217
   59CHL1   C27 5543   0.904   3.919   5.146 -0.5843  0.5831 -0.0077
   59CHL1  H27A 5544   0.988   3.850   5.122 -1.7383 -0.9183  0.1084
   59CHL1  H27B 5545   0.949   4.021   5.142 -1.9913  1.1945 -1.1767
   59CHL1  H27C 5546   0.874   3.897   5.251  0.4838 -0.9045  0.0085
   60CHL1    C3 5547   2.379   2.599   3.538  0.1953 -0.3204  0.1370
   60CHL1    H3 5548   2.356   2.498   3.579 -0.6984 -0.6120 -1.0171
   60CHL1    O3 5549   2.413   2.590   3.398  0.6558  0.3745 -0.0082
   60CHL1   H3' 5550   2.402   2.683   3.376 -0.7593 -0.2074 -1.9319
   60CHL1    C4 5551   2.255   2.690   3.556  0.9941  0.3596 -0.9206
   60CHL1   H4A 5552   2.267   2.796   3.525 -2.8837  1.0647 -0.4988
   60CHL1   H4B 5553   2.165   2.647   3.508  0.1850  2.1920 -1.0852
   60CHL1    C5 5554   2.240   2.696   3.715  0.5232  0.5350  0.7915
   60CHL1    C6 5555   2.132   2.646   3.775  0.1520  0.0424 -0.1112
   60CHL1    H6 5556   2.045   2.606   3.721  0.8449 -1.7801  0.0325
   60CHL1    C7 5557   2.116   2.658   3.928 -0.1553  0.1139  0.0956
   60CHL1   H7A 5558   2.014   2.702   3.939 -0.2656  0.3161 -1.5234
   60CHL1   H7B 5559   2.113   2.560   3.980  0.2260  0.4937  0.8435
   60CHL1    C8 5560   2.214   2.762   4.000  0.4599 -0.1817  0.5752
   60CHL1    H8 5561   2.176   2.862   3.967  2.0274  0.8995  1.8703
   60CHL1   C14 5562   2.203   2.753   4.154  0.3169 -0.1641  0.2440
   60CHL1   H14 5563   2.236   2.656   4.195 -0.0421  0.3660  1.8517
   60CHL1   C15 5564   2.053   2.770   4.207 -0.3113  0.2924 -0.0575
   60CHL1  H15A 5565   2.001   2.859   4.165  1.5509  2.2227  1.4448
   60CHL1  H15B 5566   1.993   2.677   4.203  0.1526 -0.1449  1.8270
   60CHL1   C16 5567   2.090   2.788   4.355  0.2711 -0.7892 -0.3319
   60CHL1  H16A 5568   2.043   2.884   4.386  0.2316 -1.3176  1.3903
   60CHL1  H16B 5569   2.047   2.705   4.416 -0.8934  0.0908  0.0992
   60CHL1   C17 5570   2.248   2.812   4.372 -0.5809  0.4743 -0.7165
   60CHL1   H17 5571   2.289   2.712   4.395  0.6814  0.7959 -1.4882
   60CHL1   C13 5572   2.293   2.847   4.227 -0.1543 -0.3382 -0.1970
   60CHL1   C18 5573   2.257   2.992   4.190 -0.3876 -0.0462 -0.1508
   60CHL1  H18A 5574   2.252   3.007   4.080 -1.3772 -0.8561 -0.2300
   60CHL1  H18B 5575   2.158   3.021   4.230 -0.5582  0.4613 -0.9378
   60CHL1  H18C 5576   2.334   3.061   4.231 -1.5047  1.3110 -0.2655
   60CHL1   C12 5577   2.436   2.805   4.191 -0.9345 -0.1117  0.5952
   60CHL1  H12A 5578   2.520   2.852   4.247 -0.5149 -0.2464  0.0889
   60CHL1  H12B 5579   2.448   2.696   4.207 -2.9163 -0.4313  0.1091
   60CHL1   C11 5580   2.461   2.822   4.039  0.0153  0.2157  0.0472
   60CHL1  H11A 5581   2.473   2.927   4.006 -0.7451  0.1513 -0.4513
   60CHL1  H11B 5582   2.561   2.780   4.013  1.3069  1.6013  2.4494
   60CHL1    C9 5583   2.359   2.734   3.955  0.2517  0.6943 -0.3038
   60CHL1    H9 5584   2.391   2.630   3.974  1.5419  1.0479 -0.4739
   60CHL1   C10 5585   2.361   2.751   3.801 -0.4644 -0.4407 -0.0500
   60CHL1   C19 5586   2.363   2.902   3.766  0.1661  0.4863 -0.1163
   60CHL1  H19A 5587   2.366   2.923   3.657  0.1455  1.4629  0.0691
   60CHL1  H19B 5588   2.278   2.962   3.804 -0.6553  1.9573 -3.7953
   60CHL1  H19C 5589   2.453   2.946   3.812 -0.8065  2.3954  0.0359
   60CHL1    C1 5590   2.490   2.688   3.747  0.4763  0.2939  0.1346
   60CHL1   H1A 5591   2.579   2.737   3.790 -1.1490  1.2481  2.6925
   60CHL1   H1B 5592   2.479   2.582   3.781  3.0964 -0.0280  0.1130
   60CHL1    C2 5593   2.497   2.671   3.597 -0.1197 -0.3998 -0.6144
   60CHL1   H2A 5594   2.585   2.612   3.565  1.1470  0.8922  0.3446
   60CHL1   H2B 5595   2.502   2.774   3.556  0.0375 -0.4888 -0.8149
   60CHL1   C20 5596   2.289   2.906   4.485  0.7672  1.1779 -0.2347
   60CHL1   H20 5597   2.268   3.004   4.439 -3.0655  0.6196 -0.0675
   60CHL1   C21 5598   2.438   2.893   4.525  0.2324 -0.2036  0.0231
   60CHL1  H21A 5599   2.437   2.786   4.554 -1.8362 -0.4453 -0.7601
   60CHL1  H21B 5600   2.475   2.955   4.609  1.2704  0.3970 -0.8411
   60CHL1  H21C 5601   2.494   2.919   4.433 -0.7471  0.0221 -0.5252
   60CHL1   C22 5602   2.195   2.902   4.611  0.4129  0.0968 -0.1448
   60CHL1  H22A 5603   2.088   2.915   4.582  0.1763 -1.9535 -0.3603
   60CHL1  H22B 5604   2.211   2.812   4.675  0.1505  0.9782  1.1947
   60CHL1   C23 5605   2.229   3.011   4.709  0.0770 -0.0463 -0.2640
   60CHL1  H23A 5606   2.325   2.997   4.764 -1.2426  1.6196  2.7052
   60CHL1  H23B 5607   2.247   3.108   4.659  0.0560 -0.4848 -1.1457
   60CHL1   C24 5608   2.129   3.026   4.828  0.0445  0.0258 -0.2072
   60CHL1  H24A 5609   2.043   3.094   4.805  0.1806 -0.0792 -1.0349
   60CHL1  H24B 5610   2.092   2.927   4.861  1.1801 -0.6745 -0.9809
   60CHL1   C25 5611   2.196   3.093   4.950 -0.1543  0.1333 -0.5813
   60CHL1   H25 5612   2.255   3.184   4.925 -2.1497  1.6139 -0.1676
   60CHL1   C26 5613   2.087   3.150   5.050  0.5891 -0.1271  0.1179
   60CHL1  H26A 5614   2.127   3.215   5.131  0.5257  2.1396 -1.5535
   60CHL1  H26B 5615   2.013   3.206   4.989  0.1225 -1.2851 -0.3998
   60CHL1  H26C 5616   2.021   3.072   5.092 -0.2701  1.9765  2.9500
   60CHL1   C27 5617   2.295   3.002   5.029  0.5463  0.1457  0.4805
   60CHL1  H27A 5618   2.374   2.973   4.956  2.6687 -1.5886  3.2714
   60CHL1  H27B 5619   2.338   3.056   5.115  1.5476 -0.1037  0.1493
   60CHL1  H27C 5620   2.237   2.914   5.064  2.9344 -1.2819  1.0945
   61CHL1    C3 5621   3.315   3.775   3.614  0.3148 -0.8280 -0.1014
   61CHL1    H3 5622   3.421   3.765   3.645 -0.3088 -0.9631  2.0915
   61CHL1    O3 5623   3.288   3.747   3.478 -0.3896  0.1574 -0.7638
   61CHL1   H3' 5624   3.364   3.774   3.426  1.4950 -1.5717  0.9187
   61CHL1    C4 5625   3.234   3.677   3.700 -0.0190  0.5087 -0.9428
   61CHL1   H4A 5626   3.125   3.680   3.679 -0.5276  2.3345  1.4988
   61CHL1   H4B 5627   3.273   3.574   3.687 -0.0462  0.0656  1.9029
   61CHL1    C5 5628   3.265   3.717   3.846 -0.6004 -0.4366  0.1677
   61CHL1    C6 5629   3.319   3.624   3.935  0.0758 -0.2858 -0.0986
   61CHL1    H6 5630   3.348   3.522   3.908 -1.5754 -0.4938 -1.2435
   61CHL1    C7 5631   3.332   3.663   4.079 -0.1683 -0.0692 -0.0369
   61CHL1   H7A 5632   3.290   3.577   4.136  0.3170 -1.4694 -1.6782
   61CHL1   H7B 5633   3.441   3.649   4.096 -0.5036 -2.0533  0.8153
   61CHL1    C8 5634   3.267   3.788   4.128 -0.3837 -0.1525 -0.2795
   61CHL1    H8 5635   3.158   3.769   4.129 -0.6460  1.1211  1.7115
   61CHL1   C14 5636   3.316   3.817   4.266 -0.4861  0.2796  0.4214
   61CHL1   H14 5637   3.426   3.817   4.256 -0.5068 -2.1876 -0.5716
   61CHL1   C15 5638   3.301   3.712   4.376  0.6613 -0.0865  0.1633
   61CHL1  H15A 5639   3.195   3.679   4.371 -0.0286  1.8999  0.8057
   61CHL1  H15B 5640   3.356   3.616   4.364 -0.6550 -0.7378 -0.8838
   61CHL1   C16 5641   3.322   3.793   4.507  0.0495  0.0878  0.0024
   61CHL1  H16A 5642   3.245   3.770   4.584 -0.2686  1.3634  0.0914
   61CHL1  H16B 5643   3.415   3.759   4.556 -0.8953 -0.3654  1.5355
   61CHL1   C17 5644   3.323   3.940   4.467  0.2704 -0.2598 -0.0422
   61CHL1   H17 5645   3.431   3.967   4.462  0.3550 -0.8106 -1.5828
   61CHL1   C13 5646   3.267   3.951   4.325  0.0488  0.5405  0.2543
   61CHL1   C18 5647   3.108   3.949   4.329 -0.2001  0.2429 -0.2383
   61CHL1  H18A 5648   3.063   3.935   4.228 -0.1058  0.9923 -0.3860
   61CHL1  H18B 5649   3.059   3.882   4.402  0.3144 -2.2698 -2.0291
   61CHL1  H18C 5650   3.077   4.048   4.369 -0.1062  0.4623 -0.6996
   61CHL1   C12 5651   3.325   4.058   4.238  0.6503 -0.0955  0.7878
   61CHL1  H12A 5652   3.311   4.168   4.251 -0.3456  0.3401 -2.9850
   61CHL1  H12B 5653   3.434   4.039   4.235  0.6761  0.2421 -0.8868
   61CHL1   C11 5654   3.278   4.038   4.088 -0.3538  0.2764  0.1934
   61CHL1  H11A 5655   3.168   4.053   4.089 -0.2841  0.8457 -0.3199
   61CHL1  H11B 5656   3.327   4.106   4.015  0.1727 -0.6013 -0.2891
   61CHL1    C9 5657   3.302   3.897   4.028 -0.4511  0.0046  0.2854
   61CHL1    H9 5658   3.413   3.903   4.016 -0.7076 -0.4188 -3.8737
   61CHL1   C10 5659   3.240   3.864   3.889  0.7863 -0.4330 -0.2029
   61CHL1   C19 5660   3.095   3.900   3.891  0.2065  0.1675 -0.2563
   61CHL1  H19A 5661   3.072   4.003   3.925 -1.8198 -0.5505  0.7288
   61CHL1  H19B 5662   3.041   3.888   3.795  0.9451  0.8162 -0.7681
   61CHL1  H19C 5663   3.037   3.847   3.969 -0.4857  1.2984  0.0211
   61CHL1    C1 5664   3.317   3.948   3.787  0.2111 -0.6721  0.6650
   61CHL1   H1A 5665   3.291   4.053   3.815  1.0310 -0.7731  1.9162
   61CHL1   H1B 5666   3.426   3.941   3.806  0.6567 -0.3711 -1.6099
   61CHL1    C2 5667   3.281   3.920   3.643 -0.2702 -0.2748  0.0466
   61CHL1   H2A 5668   3.348   3.989   3.587 -0.1893 -0.2096  0.2262
   61CHL1   H2B 5669   3.176   3.943   3.614 -0.0402 -0.2010 -0.7494
   61CHL1   C20 5670   3.259   4.031   4.579  0.1563 -0.0839  0.7074
   61CHL1   H20 5671   3.154   3.997   4.591  0.2590 -0.3387  0.9016
   61CHL1   C21 5672   3.269   4.179   4.543  0.8895 -0.2603 -0.6190
   61CHL1  H21A 5673   3.195   4.234   4.605  1.9939  0.1958  0.3147
   61CHL1  H21B 5674   3.233   4.205   4.441 -0.0258  1.8159  0.1810
   61CHL1  H21C 5675   3.372   4.219   4.555  1.1078 -1.3841  1.7383
   61CHL1   C22 5676   3.326   4.010   4.715 -0.6420 -0.3854 -0.2121
   61CHL1  H22A 5677   3.308   3.912   4.765  1.2828 -0.5239  0.2952
   61CHL1  H22B 5678   3.436   4.007   4.701 -0.5515 -0.9791  0.5326
   61CHL1   C23 5679   3.298   4.107   4.833  0.1360  0.2797 -0.1759
   61CHL1  H23A 5680   3.381   4.180   4.842  1.2918 -1.0831  0.8066
   61CHL1  H23B 5681   3.207   4.161   4.801  0.6197  1.8635  1.0072
   61CHL1   C24 5682   3.264   4.032   4.968 -0.0107 -0.1936  0.3585
   61CHL1  H24A 5683   3.162   3.988   4.973 -0.0357 -0.1465  0.2660
   61CHL1  H24B 5684   3.337   3.948   4.970 -1.8172 -1.8542 -0.2269
   61CHL1   C25 5685   3.283   4.108   5.099  0.3970 -0.3453 -0.4141
   61CHL1   H25 5686   3.383   4.155   5.103 -0.3149  1.3075 -1.1403
   61CHL1   C26 5687   3.186   4.229   5.110  0.0253 -0.4070  0.2922
   61CHL1  H26A 5688   3.080   4.196   5.109 -0.1550  0.1444 -1.4661
   61CHL1  H26B 5689   3.207   4.286   5.203 -3.0128  2.4814 -0.5824
   61CHL1  H26C 5690   3.212   4.293   5.023  2.7241 -2.0220 -0.1864
   61CHL1   C27 5691   3.272   4.014   5.220  0.0938  0.4432 -0.6227
   61CHL1  H27A 5692   3.177   3.958   5.211  0.1576  0.5505 -2.2861
   61CHL1  H27B 5693   3.350   3.935   5.221 -0.5916 -0.2357 -0.1461
   61CHL1  H27C 5694   3.273   4.062   5.320  0.8592 -3.0196  1.1896
   62CHL1    C3 5695   4.256   4.795   3.303 -0.0141  0.3622 -0.2578
   62CHL1    H3 5696   4.228   4.689   3.320 -0.1058  0.2086 -1.2960
   62CHL1    O3 5697   4.249   4.829   3.165  0.1275 -0.1835 -0.2444
   62CHL1   H3' 5698   4.160   4.860   3.145  0.1290  0.5224  0.7501
   62CHL1    C4 5699   4.153   4.872   3.385 -0.4807  0.1482 -0.0764
   62CHL1   H4A 5700   4.168   4.980   3.362 -2.4606  0.7056  1.0406
   62CHL1   H4B 5701   4.051   4.836   3.359  0.7410 -2.3519 -1.8417
   62CHL1    C5 5702   4.187   4.860   3.533 -0.4195 -0.0673  0.0756
   62CHL1    C6 5703   4.094   4.832   3.629 -0.4523 -0.0173 -0.2097
   62CHL1    H6 5704   3.987   4.812   3.611 -0.5878 -0.7340  1.2777
   62CHL1    C7 5705   4.128   4.833   3.776 -0.4268  0.3052 -0.4633
   62CHL1   H7A 5706   4.054   4.892   3.835  0.0266  0.0895  0.3458
   62CHL1   H7B 5707   4.120   4.726   3.805 -3.1173  0.3135 -0.9469
   62CHL1    C8 5708   4.264   4.889   3.822  0.3628 -0.8677 -0.1948
   62CHL1    H8 5709   4.255   5.000   3.818 -1.5625 -1.0235 -2.1590
   62CHL1   C14 5710   4.299   4.840   3.963  0.3275 -0.1284  0.5708
   62CHL1   H14 5711   4.323   4.731   3.959  1.0793  0.0635 -0.7754
   62CHL1   C15 5712   4.194   4.860   4.074 -0.5601 -0.1609 -0.5453
   62CHL1  H15A 5713   4.148   4.959   4.057 -0.2557  0.1539  0.4416
   62CHL1  H15B 5714   4.111   4.786   4.079  2.1050 -3.2932  1.1574
   62CHL1   C16 5715   4.277   4.864   4.210 -0.0047 -0.9111 -0.0153
   62CHL1  H16A 5716   4.271   4.958   4.268  0.1065 -0.9361  0.0383
   62CHL1  H16B 5717   4.257   4.776   4.276 -2.5413  0.3225  0.9582
   62CHL1   C17 5718   4.430   4.850   4.163 -0.2662  0.4889  0.6921
   62CHL1   H17 5719   4.445   4.740   4.161  1.2500  0.6634 -1.1100
   62CHL1   C13 5720   4.435   4.891   4.022  0.3423 -0.3921 -0.0134
   62CHL1   C18 5721   4.430   5.049   4.016  0.0999  0.0154 -0.1734
   62CHL1  H18A 5722   4.339   5.091   4.065  1.0512 -0.6106  2.2981
   62CHL1  H18B 5723   4.516   5.091   4.073  0.5865  1.8985 -2.1884
   62CHL1  H18C 5724   4.442   5.101   3.919  2.3422 -0.5151 -0.2474
   62CHL1   C12 5725   4.540   4.819   3.924  0.3653 -0.2916  0.5916
   62CHL1  H12A 5726   4.636   4.865   3.957 -0.2582  0.9220  0.7741
   62CHL1  H12B 5727   4.536   4.708   3.929  1.3351 -0.4064 -0.6479
   62CHL1   C11 5728   4.517   4.876   3.779 -0.4335 -0.8750  0.3433
   62CHL1  H11A 5729   4.527   4.987   3.780 -0.2769 -0.8850 -0.2401
   62CHL1  H11B 5730   4.591   4.841   3.704 -0.5234 -0.0650 -0.1367
   62CHL1    C9 5731   4.370   4.850   3.724 -0.1810  0.1495  0.7266
   62CHL1    H9 5732   4.359   4.741   3.740 -2.9661  0.3202  0.5102
   62CHL1   C10 5733   4.337   4.884   3.572 -0.2050 -0.3847  0.1139
   62CHL1   C19 5734   4.395   5.024   3.552 -0.5679 -0.5523 -0.0328
   62CHL1  H19A 5735   4.504   5.021   3.570 -0.5245 -0.7144 -0.3242
   62CHL1  H19B 5736   4.380   5.064   3.450 -2.3501 -0.6986  0.1406
   62CHL1  H19C 5737   4.341   5.091   3.623  0.7160 -0.7040  1.1342
   62CHL1    C1 5738   4.419   4.787   3.490  0.3064  0.0315 -0.1438
   62CHL1   H1A 5739   4.525   4.811   3.515  0.5795  0.3799 -1.5548
   62CHL1   H1B 5740   4.406   4.683   3.527 -0.2208  0.4276  0.8182
   62CHL1    C2 5741   4.406   4.810   3.344  0.2862  0.8758 -0.2687
   62CHL1   H2A 5742   4.462   4.727   3.296 -3.1488 -2.3739  0.8622
   62CHL1   H2B 5743   4.431   4.913   3.312  0.1849  0.5412 -1.4826
   62CHL1   C20 5744   4.535   4.894   4.262 -0.5636  0.4226 -0.5612
   62CHL1   H20 5745   4.524   5.005   4.264  0.1789  0.5002  0.4472
   62CHL1   C21 5746   4.676   4.859   4.226 -1.1406  0.0389 -0.3821
   62CHL1  H21A 5747   4.701   4.751   4.223 -0.4109  0.1859  0.1355
   62CHL1  H21B 5748   4.749   4.909   4.293  2.9428 -2.8044 -2.2468
   62CHL1  H21C 5749   4.723   4.894   4.131  1.6135 -0.1546  0.7993
   62CHL1   C22 5750   4.517   4.853   4.417 -0.5757 -0.0346  0.6973
   62CHL1  H22A 5751   4.409   4.838   4.437 -0.6668  0.0158  0.2511
   62CHL1  H22B 5752   4.562   4.753   4.435 -0.6926 -0.1811  0.1892
   62CHL1   C23 5753   4.586   4.956   4.506 -0.3129 -0.3203 -0.3787
   62CHL1  H23A 5754   4.696   4.952   4.494 -0.1680 -0.0208  0.7461
   62CHL1  H23B 5755   4.546   5.057   4.483 -0.7450 -0.5018 -0.4415
   62CHL1   C24 5756   4.563   4.924   4.655  0.1066  0.1365 -0.2516
   62CHL1  H24A 5757   4.582   4.815   4.660 -2.0896 -0.2406  1.9730
   62CHL1  H24B 5758   4.647   4.972   4.710  1.0711  0.0005 -1.5561
   62CHL1   C25 5759   4.425   4.972   4.709 -0.2416  0.1863  0.7910
   62CHL1   H25 5760   4.350   4.954   4.629  1.0395  1.6469 -0.8043
   62CHL1   C26 5761   4.384   4.882   4.830  0.7917 -0.1919 -0.3186
   62CHL1  H26A 5762   4.283   4.907   4.869  1.1353  1.8533 -0.6183
   62CHL1  H26B 5763   4.379   4.776   4.798 -0.1808 -0.1937 -0.1755
   62CHL1  H26C 5764   4.451   4.903   4.916  4.0977 -1.8274 -2.3087
   62CHL1   C27 5765   4.437   5.122   4.743  0.0471 -0.6855 -0.0008
   62CHL1  H27A 5766   4.438   5.192   4.656  0.6110  4.0148  3.3590
   62CHL1  H27B 5767   4.344   5.162   4.789 -0.0048  1.4004 -1.7546
   62CHL1  H27C 5768   4.517   5.155   4.813 -2.4287  2.1395  1.7590
   63CHL1    C3 5769   2.444   1.179   3.951 -0.3397  0.3890  0.3052
   63CHL1    H3 5770   2.519   1.259   3.964  0.5215 -0.0639 -1.5816
   63CHL1    O3 5771   2.423   1.163   3.810 -0.0533  0.1650 -0.2637
   63CHL1   H3' 5772   2.348   1.103   3.807  0.2097 -0.3805  1.9643
   63CHL1    C4 5773   2.505   1.054   4.009  0.4967 -0.5730 -1.0958
   63CHL1   H4A 5774   2.434   0.969   4.003 -1.3472  0.8054  0.1416
   63CHL1   H4B 5775   2.598   1.034   3.950  0.4861  1.1977 -1.7850
   63CHL1    C5 5776   2.535   1.078   4.155  0.3433 -0.0761 -0.0593
   63CHL1    C6 5777   2.663   1.072   4.208  0.3898  0.4937  0.2352
   63CHL1    H6 5778   2.738   1.037   4.135 -1.0066 -0.9941 -0.5594
   63CHL1    C7 5779   2.705   1.093   4.351 -0.1833  0.8408  0.2846
   63CHL1   H7A 5780   2.770   1.018   4.401 -1.3081  0.5361  1.3349
   63CHL1   H7B 5781   2.764   1.185   4.370  1.5629 -0.0091 -0.7528
   63CHL1    C8 5782   2.573   1.102   4.438 -0.2109 -0.3420 -0.7577
   63CHL1    H8 5783   2.545   0.995   4.452  1.7965 -0.7951  0.1899
   63CHL1   C14 5784   2.599   1.164   4.570  0.0451  0.4610  0.1571
   63CHL1   H14 5785   2.639   1.264   4.546  1.3962  0.1042  0.8421
   63CHL1   C15 5786   2.724   1.116   4.651 -0.5921  0.7382 -0.0153
   63CHL1  H15A 5787   2.709   1.006   4.664 -2.5213  0.7392 -1.8112
   63CHL1  H15B 5788   2.821   1.141   4.604  0.3242 -2.6851 -0.2544
   63CHL1   C16 5789   2.702   1.186   4.785 -1.0589 -0.2510  0.5216
   63CHL1  H16A 5790   2.711   1.107   4.864  0.2037 -0.5493  0.1104
   63CHL1  H16B 5791   2.783   1.257   4.813 -0.5169  0.6053 -2.8140
   63CHL1   C17 5792   2.562   1.252   4.784  1.0270 -0.3045 -0.2405
   63CHL1   H17 5793   2.568   1.357   4.748 -0.6589 -0.1096 -0.0251
   63CHL1   C13 5794   2.484   1.184   4.671  0.1874  0.0451  0.3914
   63CHL1   C18 5795   2.434   1.041   4.715 -0.3010  0.0166 -0.0969
   63CHL1  H18A 5796   2.407   0.975   4.630  4.0953 -0.9357 -1.0118
   63CHL1  H18B 5797   2.519   0.986   4.761 -1.1859 -1.5289 -0.2341
   63CHL1  H18C 5798   2.346   1.053   4.781 -0.4120  1.0333 -0.4093
   63CHL1   C12 5799   2.371   1.264   4.599 -0.7015  0.8738  0.3650
   63CHL1  H12A 5800   2.276   1.279   4.654 -1.0732 -1.1952  0.3513
   63CHL1  H12B 5801   2.426   1.360   4.589  1.1916 -0.1168  0.7482
   63CHL1   C11 5802   2.334   1.197   4.466 -0.1293  0.1543 -0.2613
   63CHL1  H11A 5803   2.293   1.101   4.501  3.8000 -2.6852 -2.5928
   63CHL1  H11B 5804   2.253   1.258   4.421  0.0359 -0.1354 -0.9704
   63CHL1    C9 5805   2.456   1.174   4.376  0.3541  0.5894  0.5341
   63CHL1    H9 5806   2.497   1.274   4.353  1.5956 -0.1656 -0.7334
   63CHL1   C10 5807   2.417   1.122   4.236  0.1825  0.2515  0.4622
   63CHL1   C19 5808   2.326   0.997   4.255  0.2443 -0.8516 -0.4074
   63CHL1  H19A 5809   2.301   0.956   4.155  2.3162 -2.2297 -0.4168
   63CHL1  H19B 5810   2.369   0.912   4.312  0.2548 -2.3408 -2.5250
   63CHL1  H19C 5811   2.227   1.031   4.294  0.5650  1.9554 -1.7683
   63CHL1    C1 5812   2.343   1.237   4.167  0.0095  0.1817 -0.0115
   63CHL1   H1A 5813   2.242   1.253   4.209 -0.6248 -0.4415 -1.2281
   63CHL1   H1B 5814   2.401   1.331   4.178 -1.3120  0.8698  1.4797
   63CHL1    C2 5815   2.315   1.214   4.021  0.1867  0.1023 -0.3568
   63CHL1   H2A 5816   2.271   1.308   3.980  0.6464  1.4880  2.1365
   63CHL1   H2B 5817   2.240   1.134   4.003 -0.5029  0.7354 -0.3630
   63CHL1   C20 5818   2.496   1.247   4.923 -0.4149  1.2395  0.0544
   63CHL1   H20 5819   2.499   1.143   4.963  2.2355  2.1266  2.5206
   63CHL1   C21 5820   2.354   1.307   4.920 -0.4868 -0.2590  0.3650
   63CHL1  H21A 5821   2.363   1.413   4.889  2.5838 -1.4185 -3.5742
   63CHL1  H21B 5822   2.305   1.305   5.019  2.4075 -1.8609  1.9088
   63CHL1  H21C 5823   2.284   1.254   4.853  0.2464 -0.0219 -0.6195
   63CHL1   C22 5824   2.588   1.327   5.023  0.2200  0.0995 -0.0172
   63CHL1  H22A 5825   2.687   1.277   5.025 -0.1478 -0.6618 -0.4062
   63CHL1  H22B 5826   2.587   1.431   4.982 -1.5170 -0.6533 -2.0829
   63CHL1   C23 5827   2.544   1.341   5.173  0.4127 -0.0409 -0.2721
   63CHL1  H23A 5828   2.440   1.380   5.186  0.5291  0.4584 -0.7799
   63CHL1  H23B 5829   2.539   1.237   5.211 -2.0945 -0.5861 -1.8102
   63CHL1   C24 5830   2.633   1.436   5.262  0.1404 -0.2721  0.2321
   63CHL1  H24A 5831   2.727   1.383   5.288 -1.1708 -1.7021  2.2910
   63CHL1  H24B 5832   2.669   1.513   5.190  3.1621 -3.1214 -1.6012
   63CHL1   C25 5833   2.554   1.509   5.383 -0.4817  0.1589 -0.1073
   63CHL1   H25 5834   2.631   1.567   5.439  0.6876  1.7540 -3.1235
   63CHL1   C26 5835   2.456   1.622   5.333  0.2372 -0.1060  0.4212
   63CHL1  H26A 5836   2.403   1.661   5.422  1.3676  0.1729  0.9940
   63CHL1  H26B 5837   2.498   1.708   5.275 -0.9718 -1.7371 -3.1598
   63CHL1  H26C 5838   2.380   1.574   5.268  0.2284  1.2816 -0.6599
   63CHL1   C27 5839   2.480   1.412   5.479  0.2554  0.2690  0.1198
   63CHL1  H27A 5840   2.393   1.362   5.432 -0.3320 -0.5398  1.9613
   63CHL1  H27B 5841   2.548   1.326   5.496 -0.8976 -0.7707 -0.4530
   63CHL1  H27C 5842   2.440   1.446   5.577 -1.9623 -3.9895  0.9139
   64CHL1    C3 5843   5.304   0.807   3.676  0.0057  0.3378 -0.2366
   64CHL1    H3 5844   5.196   0.830   3.691 -0.2887  0.5586 -2.3423
   64CHL1    O3 5845   5.324   0.846   3.541 -0.1149  0.4497  0.0220
   64CHL1   H3' 5846   5.275   0.929   3.547  1.2012  1.1759  1.3648
   64CHL1    C4 5847   5.403   0.897   3.753  0.5934 -0.2177 -0.1794
   64CHL1   H4A 5848   5.508   0.865   3.738  0.1394 -0.7951 -2.4515
   64CHL1   H4B 5849   5.379   1.002   3.726 -0.2976 -0.4224 -0.2367
   64CHL1    C5 5850   5.379   0.872   3.905  0.3953  0.6785  0.7753
   64CHL1    C6 5851   5.340   0.972   3.990 -0.2788  0.9182 -0.0904
   64CHL1    H6 5852   5.327   1.078   3.963 -4.5090  1.1700  2.0167
   64CHL1    C7 5853   5.316   0.943   4.129  0.3322  0.5516 -0.6476
   64CHL1   H7A 5854   5.363   1.021   4.195 -1.2737  0.2050  0.9864
   64CHL1   H7B 5855   5.208   0.951   4.155  0.8545  0.7107  1.7833
   64CHL1    C8 5856   5.367   0.809   4.179 -0.0624  0.4687  0.4327
   64CHL1    H8 5857   5.478   0.816   4.180 -0.0784  1.2615 -0.9402
   64CHL1   C14 5858   5.309   0.779   4.317 -0.5261  0.1062  0.3245
   64CHL1   H14 5859   5.201   0.766   4.297 -0.3062 -1.2775 -0.0477
   64CHL1   C15 5860   5.315   0.885   4.428  0.3655  0.0616  0.2980
   64CHL1  H15A 5861   5.423   0.907   4.437  0.3136 -0.1019  1.4027
   64CHL1  H15B 5862   5.251   0.971   4.397  0.6150  0.1848  0.1242
   64CHL1   C16 5863   5.266   0.813   4.552 -0.5524  0.1115  0.2937
   64CHL1  H16A 5864   5.343   0.831   4.630 -0.7351 -2.6575  1.2100
   64CHL1  H16B 5865   5.162   0.839   4.580 -0.6978 -1.2668  1.1388
   64CHL1   C17 5866   5.253   0.659   4.515  0.0881 -0.1071  0.3620
   64CHL1   H17 5867   5.148   0.648   4.481  0.4175  0.4553 -0.9127
   64CHL1   C13 5868   5.336   0.635   4.376 -0.1958 -0.2544  0.5168
   64CHL1   C18 5869   5.486   0.620   4.412  0.3977  0.0189  0.4699
   64CHL1  H18A 5870   5.544   0.674   4.334 -0.1167 -0.2437 -0.0939
   64CHL1  H18B 5871   5.510   0.688   4.498 -2.1168 -0.2641  1.4655
   64CHL1  H18C 5872   5.518   0.515   4.428  1.7147  0.5127  1.2680
   64CHL1   C12 5873   5.281   0.539   4.275  0.4077 -0.2429 -0.2606
   64CHL1  H12A 5874   5.297   0.433   4.304 -2.2750 -0.9144 -0.9483
   64CHL1  H12B 5875   5.172   0.545   4.255  0.2078 -0.9694  0.5368
   64CHL1   C11 5876   5.356   0.560   4.142  0.4119  0.1442 -0.0593
   64CHL1  H11A 5877   5.465   0.545   4.153  0.5952  1.3483 -0.0536
   64CHL1  H11B 5878   5.314   0.485   4.071  0.1288  1.7417 -1.6648
   64CHL1    C9 5879   5.332   0.699   4.077  0.1155  0.2468 -0.5539
   64CHL1    H9 5880   5.221   0.700   4.070  0.0850 -0.5611 -0.1763
   64CHL1   C10 5881   5.390   0.715   3.941  0.3299  0.1193 -0.0793
   64CHL1   C19 5882   5.543   0.684   3.929  0.0070  0.6756  0.1403
   64CHL1  H19A 5883   5.578   0.702   3.825  2.8080  0.4806  0.9528
   64CHL1  H19B 5884   5.611   0.750   3.987 -0.2093  0.1624  0.9854
   64CHL1  H19C 5885   5.561   0.578   3.957  1.0707  0.4999 -1.0956
   64CHL1    C1 5886   5.317   0.617   3.845 -0.3306  0.4422  0.0560
   64CHL1   H1A 5887   5.352   0.514   3.863  0.6138  0.5364 -1.1779
   64CHL1   H1B 5888   5.208   0.619   3.869 -0.0794 -0.0818  1.3165
   64CHL1    C2 5889   5.328   0.653   3.697 -0.1072 -0.2685  0.3530
   64CHL1   H2A 5890   5.247   0.599   3.644 -0.5217 -1.0011  1.6997
   64CHL1   H2B 5891   5.420   0.624   3.642 -0.1270  0.1319  0.0983
   64CHL1   C20 5892   5.284   0.577   4.632 -0.2498  1.2334 -0.2340
   64CHL1   H20 5893   5.393   0.586   4.653 -0.2145  0.4180 -0.0212
   64CHL1   C21 5894   5.258   0.427   4.593 -0.5182 -0.6251 -0.3366
   64CHL1  H21A 5895   5.316   0.376   4.513 -1.1067 -1.0304 -0.5121
   64CHL1  H21B 5896   5.154   0.407   4.559 -0.6314 -0.7746  0.0857
   64CHL1  H21C 5897   5.284   0.365   4.681 -0.3799  0.2230  0.2359
   64CHL1   C22 5898   5.194   0.607   4.759 -0.3148  0.2452 -0.2577
   64CHL1  H22A 5899   5.182   0.716   4.776 -1.3453  0.1227 -0.1253
   64CHL1  H22B 5900   5.095   0.564   4.735 -1.1150  1.3699  0.8871
   64CHL1   C23 5901   5.254   0.554   4.890 -0.1842  0.1478  0.5659
   64CHL1  H23A 5902   5.279   0.448   4.871  0.4421  0.5894 -1.2977
   64CHL1  H23B 5903   5.352   0.601   4.915  0.4775 -1.2150  0.5868
   64CHL1   C24 5904   5.158   0.573   5.007  0.1895  0.4638 -0.2696
   64CHL1  H24A 5905   5.144   0.683   5.020  1.0576  0.5665 -0.1814
   64CHL1  H24B 5906   5.061   0.521   4.988  0.8563 -1.1581  0.6075
   64CHL1   C25 5907   5.208   0.513   5.135 -0.9929 -0.3308  0.3283
   64CHL1   H25 5908   5.255   0.420   5.096  0.1765  0.1902  0.4694
   64CHL1   C26 5909   5.313   0.607   5.199  0.2774 -0.0618  0.0707
   64CHL1  H26A 5910   5.267   0.694   5.251 -0.1546  0.7546 -1.6057
   64CHL1  H26B 5911   5.373   0.548   5.271 -0.7224 -0.1416  0.8458
   64CHL1  H26C 5912   5.378   0.648   5.118  0.2247  0.0079  0.0632
   64CHL1   C27 5913   5.090   0.471   5.224 -0.0245  0.1814  0.2834
   64CHL1  H27A 5914   5.024   0.555   5.253 -0.2260 -0.4856  1.9181
   64CHL1  H27B 5915   5.032   0.394   5.168  0.6799 -1.1582  1.3299
   64CHL1  H27C 5916   5.139   0.416   5.308 -0.0218 -2.7082 -1.4836
   65CHL1    C3 5917   3.922   5.270   3.510 -0.7040  0.4822 -0.1651
   65CHL1    H3 5918   3.876   5.169   3.513  0.3282 -0.0555 -1.4894
   65CHL1    O3 5919   3.922   5.323   3.381  0.0711  0.1405  0.4808
   65CHL1   H3' 5920   3.943   5.415   3.398 -0.8374  0.4763 -0.1272
   65CHL1    C4 5921   3.833   5.359   3.598 -0.0070 -0.1342  0.0211
   65CHL1   H4A 5922   3.872   5.462   3.589  2.3519 -0.8641  0.8956
   65CHL1   H4B 5923   3.731   5.345   3.558 -0.8236  0.7095  1.7025
   65CHL1    C5 5924   3.849   5.339   3.744  0.2625 -0.0606  0.9778
   65CHL1    C6 5925   3.735   5.308   3.816  0.2615  1.1532 -0.0041
   65CHL1    H6 5926   3.634   5.313   3.771 -1.2902 -1.5054  2.8202
   65CHL1    C7 5927   3.741   5.285   3.968 -0.1862  0.5150 -0.7952
   65CHL1   H7A 5928   3.659   5.338   4.021 -1.3554 -1.0967 -0.9170
   65CHL1   H7B 5929   3.739   5.178   3.998 -0.8897  1.3065  2.3383
   65CHL1    C8 5930   3.871   5.332   4.028 -0.2178  0.4116 -0.1496
   65CHL1    H8 5931   3.871   5.443   4.019 -1.9043  0.5652  1.2115
   65CHL1   C14 5932   3.900   5.275   4.162 -0.7699  0.1013 -0.2284
   65CHL1   H14 5933   3.932   5.172   4.137  4.0204  1.3560 -0.2673
   65CHL1   C15 5934   3.787   5.278   4.260  0.1794 -0.1438  0.3592
   65CHL1  H15A 5935   3.720   5.364   4.242 -1.2524 -1.2403  0.3328
   65CHL1  H15B 5936   3.719   5.192   4.242 -0.5379  0.7196 -1.1680
   65CHL1   C16 5937   3.848   5.260   4.397  0.3255  0.7054 -0.2502
   65CHL1  H16A 5938   3.817   5.346   4.461 -0.4977  0.6865 -0.6168
   65CHL1  H16B 5939   3.815   5.169   4.451  0.3144 -1.0812 -3.0896
   65CHL1   C17 5940   4.003   5.260   4.372 -0.9591  0.1432 -0.9359
   65CHL1   H17 5941   4.029   5.153   4.364 -1.2250  0.0905 -1.0931
   65CHL1   C13 5942   4.021   5.334   4.237  0.7169 -0.1411 -0.2163
   65CHL1   C18 5943   3.994   5.485   4.269 -0.4609 -0.6267  0.3958
   65CHL1  H18A 5944   4.089   5.529   4.308  0.4944 -0.0469 -2.3956
   65CHL1  H18B 5945   3.980   5.538   4.173  0.8408 -1.7263 -0.4391
   65CHL1  H18C 5946   3.907   5.503   4.335 -1.7946  3.1195 -2.0721
   65CHL1   C12 5947   4.140   5.305   4.152 -0.1851 -0.2733  0.4996
   65CHL1  H12A 5948   4.222   5.361   4.202 -0.7313  1.4312 -0.4402
   65CHL1  H12B 5949   4.166   5.197   4.155 -2.2311 -0.8304 -0.1079
   65CHL1   C11 5950   4.139   5.352   4.013  0.5765  0.1460  0.8758
   65CHL1  H11A 5951   4.136   5.463   4.019  1.2175  0.1145  1.9925
   65CHL1  H11B 5952   4.231   5.308   3.969 -0.5033 -1.1575 -0.1391
   65CHL1    C9 5953   4.004   5.302   3.942  0.0754  0.1804  0.3451
   65CHL1    H9 5954   4.011   5.191   3.950 -2.5160  0.0442  1.6303
   65CHL1   C10 5955   3.998   5.342   3.801  1.0281  0.3527 -0.2136
   65CHL1   C19 5956   4.053   5.482   3.777  0.0717  0.2147 -0.3896
   65CHL1  H19A 5957   4.162   5.467   3.792 -0.1366 -0.3112  0.6164
   65CHL1  H19B 5958   4.045   5.526   3.675 -0.2646  2.9671  0.7208
   65CHL1  H19C 5959   4.003   5.555   3.844 -2.7466 -2.1666  0.2984
   65CHL1    C1 5960   4.073   5.240   3.723 -0.2867  0.0309  0.3382
   65CHL1   H1A 5961   4.176   5.238   3.764 -0.3411 -3.1700  0.5776
   65CHL1   H1B 5962   4.021   5.142   3.732  1.4710 -1.0918 -1.1342
   65CHL1    C2 5963   4.068   5.258   3.567  0.5974 -1.0722  0.0007
   65CHL1   H2A 5964   4.124   5.175   3.518  2.5660  0.1596  0.0303
   65CHL1   H2B 5965   4.117   5.356   3.549  0.1231 -0.8129  0.1141
   65CHL1   C20 5966   4.081   5.312   4.508 -0.4337  0.0696 -0.5735
   65CHL1   H20 5967   4.041   5.413   4.533  0.6582  0.7822 -1.6078
   65CHL1   C21 5968   4.228   5.324   4.476  0.2228  0.6121 -0.3368
   65CHL1  H21A 5969   4.254   5.228   4.427  0.9601  1.6509 -2.0898
   65CHL1  H21B 5970   4.293   5.331   4.566 -0.2736 -1.2821  0.2035
   65CHL1  H21C 5971   4.252   5.409   4.407 -0.2725 -1.1003 -2.7557
   65CHL1   C22 5972   4.063   5.216   4.632  0.4219  0.6546  0.3491
   65CHL1  H22A 5973   3.959   5.178   4.641  0.6471 -0.7243 -1.9809
   65CHL1  H22B 5974   4.125   5.125   4.617 -2.5439 -1.4448 -0.1493
   65CHL1   C23 5975   4.086   5.296   4.762  0.3366  0.8830  0.1592
   65CHL1  H23A 5976   4.193   5.318   4.782 -0.0968  0.6064  3.3520
   65CHL1  H23B 5977   4.028   5.390   4.751  1.0352  1.2911 -0.1216
   65CHL1   C24 5978   4.046   5.216   4.891 -0.6488  0.0213 -0.2975
   65CHL1  H24A 5979   3.935   5.207   4.896 -1.0861  2.3247 -3.0384
   65CHL1  H24B 5980   4.090   5.115   4.884 -0.2506  0.1669  0.0773
   65CHL1   C25 5981   4.089   5.277   5.029 -0.2096 -0.3665  0.7216
   65CHL1   H25 5982   4.068   5.386   5.022 -1.0536 -0.4540  1.6448
   65CHL1   C26 5983   4.004   5.207   5.134 -0.1185 -0.3989  0.0731
   65CHL1  H26A 5984   4.022   5.248   5.236 -2.2963 -3.0820  1.6844
   65CHL1  H26B 5985   3.904   5.240   5.097  0.5244 -0.3729 -1.7134
   65CHL1  H26C 5986   4.009   5.097   5.135  2.1266 -0.3909 -2.3193
   65CHL1   C27 5987   4.235   5.249   5.052  0.2640 -0.1848 -0.3066
   65CHL1  H27A 5988   4.262   5.307   5.143  1.2024  0.8742 -1.2215
   65CHL1  H27B 5989   4.237   5.141   5.079  0.7645 -0.2970 -0.7654
   65CHL1  H27C 5990   4.298   5.276   4.964  0.4071 -1.1273 -0.5135
   66CHL1    C3 5991   2.795   3.684   3.578  0.0845 -0.3864 -0.2777
   66CHL1    H3 5992   2.863   3.764   3.616  0.4421  0.4124 -2.4805
   66CHL1    O3 5993   2.822   3.661   3.435  0.1169 -0.3843 -0.4009
   66CHL1   H3' 5994   2.918   3.654   3.432  0.3469  2.0457 -0.9364
   66CHL1    C4 5995   2.812   3.557   3.660  0.5876 -0.2036 -0.6234
   66CHL1   H4A 5996   2.729   3.490   3.631 -1.1049  0.5632  2.0595
   66CHL1   H4B 5997   2.911   3.507   3.648  1.4443  0.4481  2.6348
   66CHL1    C5 5998   2.787   3.588   3.810 -0.6413  0.0136  0.2694
   66CHL1    C6 5999   2.885   3.575   3.904 -0.1824 -0.0511 -0.4403
   66CHL1    H6 6000   2.980   3.525   3.879 -1.5030 -2.2693 -1.3276
   66CHL1    C7 6001   2.856   3.610   4.045 -0.4059  0.6333  0.1943
   66CHL1   H7A 6002   2.914   3.536   4.105 -0.7041 -1.0182 -1.5017
   66CHL1   H7B 6003   2.892   3.714   4.063 -0.9692  0.4684  2.6436
   66CHL1    C8 6004   2.709   3.613   4.089  0.5713  0.2864  0.5055
   66CHL1    H8 6005   2.667   3.511   4.098  0.8751  0.1973  0.9223
   66CHL1   C14 6006   2.698   3.673   4.226  0.4274 -0.4119  0.5848
   66CHL1   H14 6007   2.748   3.773   4.228 -0.0198 -0.1890  2.1254
   66CHL1   C15 6008   2.765   3.602   4.338 -1.0962 -0.2035  0.1524
   66CHL1  H15A 6009   2.751   3.493   4.347  0.9828 -0.6608 -1.2629
   66CHL1  H15B 6010   2.873   3.617   4.318 -1.3079  0.5705 -0.4852
   66CHL1   C16 6011   2.720   3.679   4.463  0.3399 -0.1122 -0.6325
   66CHL1  H16A 6012   2.683   3.606   4.538 -0.7377  0.4785 -0.5728
   66CHL1  H16B 6013   2.797   3.740   4.516  0.6509 -2.0379  1.2764
   66CHL1   C17 6014   2.601   3.761   4.415  0.2532  0.1705  0.1824
   66CHL1   H17 6015   2.629   3.864   4.383 -0.0920  0.0254 -0.6082
   66CHL1   C13 6016   2.561   3.704   4.280 -0.0755  0.7045 -0.1385
   66CHL1   C18 6017   2.473   3.576   4.301 -0.6204 -0.1112  0.1665
   66CHL1  H18A 6018   2.522   3.499   4.365 -0.4764 -1.1224 -1.1117
   66CHL1  H18B 6019   2.375   3.599   4.347 -0.2576 -1.0723  1.4944
   66CHL1  H18C 6020   2.449   3.536   4.200  1.0336  0.1371 -0.3559
   66CHL1   C12 6021   2.494   3.796   4.180  1.1180  0.0235  0.0943
   66CHL1  H12A 6022   2.392   3.824   4.215  0.8618 -0.6505 -0.1067
   66CHL1  H12B 6023   2.549   3.892   4.185  2.1059 -0.5313  0.0695
   66CHL1   C11 6024   2.489   3.740   4.033 -0.7243 -0.3205  0.0702
   66CHL1  H11A 6025   2.420   3.653   4.035 -0.2155 -0.7295  1.7581
   66CHL1  H11B 6026   2.442   3.811   3.962 -2.3883 -2.4878 -1.1297
   66CHL1    C9 6027   2.634   3.701   3.986 -0.3207  0.0525 -0.7635
   66CHL1    H9 6028   2.701   3.790   3.990  1.4161 -1.1513 -1.7093
   66CHL1   C10 6029   2.638   3.642   3.840 -0.1279 -0.1852 -0.3274
   66CHL1   C19 6030   2.528   3.535   3.823 -0.1539  0.0464  0.4926
   66CHL1  H19A 6031   2.544   3.476   3.731 -0.7308 -3.2101  2.3528
   66CHL1  H19B 6032   2.543   3.464   3.907  2.3626 -1.7024 -1.3171
   66CHL1  H19C 6033   2.430   3.586   3.840  1.3774  2.9685  1.4170
   66CHL1    C1 6034   2.604   3.760   3.747 -0.3533  0.2860  0.3581
   66CHL1   H1A 6035   2.495   3.779   3.748 -0.2298  1.0263  1.1114
   66CHL1   H1B 6036   2.667   3.844   3.784  2.1282 -1.6006  0.7063
   66CHL1    C2 6037   2.654   3.744   3.596  0.1800  0.0535  0.2670
   66CHL1   H2A 6038   2.651   3.843   3.546  1.8545  0.0421  0.0984
   66CHL1   H2B 6039   2.584   3.681   3.536  0.2683 -1.5376  1.7299
   66CHL1   C20 6040   2.486   3.782   4.522  0.2017  0.2021  0.1797
   66CHL1   H20 6041   2.444   3.682   4.547  1.6272 -0.7613 -1.0428
   66CHL1   C21 6042   2.367   3.859   4.473 -0.1112  0.4643  0.3089
   66CHL1  H21A 6043   2.307   3.905   4.555 -0.6953  0.6478 -0.2159
   66CHL1  H21B 6044   2.301   3.800   4.406 -1.3377 -0.8547  2.5313
   66CHL1  H21C 6045   2.395   3.951   4.417  0.2259  0.0752 -0.1626
   66CHL1   C22 6046   2.543   3.834   4.656 -0.0123  0.6534 -0.2241
   66CHL1  H22A 6047   2.463   3.843   4.732 -0.4601  0.8677 -0.7130
   66CHL1  H22B 6048   2.629   3.775   4.694 -0.6118 -0.1995 -0.1656
   66CHL1   C23 6049   2.604   3.978   4.642 -0.3662  1.0729  0.0232
   66CHL1  H23A 6050   2.678   3.988   4.559 -0.5167  1.2984 -0.0841
   66CHL1  H23B 6051   2.525   4.050   4.611  0.8643  2.7823  0.7021
   66CHL1   C24 6052   2.685   4.011   4.775 -0.1790 -0.2165 -0.4766
   66CHL1  H24A 6053   2.723   4.114   4.762  1.0926 -0.7772 -1.4153
   66CHL1  H24B 6054   2.609   4.020   4.856  0.6329  2.0102  0.0939
   66CHL1   C25 6055   2.804   3.922   4.820 -0.0028  0.0395 -0.4771
   66CHL1   H25 6056   2.769   3.817   4.818 -0.2214  0.1205 -1.5508
   66CHL1   C26 6057   2.919   3.928   4.718 -0.4361  0.5613  1.1101
   66CHL1  H26A 6058   2.992   3.847   4.739 -1.8331 -0.4269  2.4002
   66CHL1  H26B 6059   2.875   3.907   4.618 -1.1846  2.1909  1.0754
   66CHL1  H26C 6060   2.965   4.029   4.712  0.2726  0.2510  1.2419
   66CHL1   C27 6061   2.862   3.946   4.965  0.2370  0.6527  0.3981
   66CHL1  H27A 6062   2.954   3.886   4.979  0.4203  0.9577  0.5296
   66CHL1  H27B 6063   2.782   3.909   5.033 -0.1164  0.1408 -0.2844
   66CHL1  H27C 6064   2.887   4.052   4.987 -0.4013  0.4248  2.4304
   67CHL1    C3 6065   1.473   3.499   3.414 -0.5476  0.5362  0.1753
   67CHL1    H3 6066   1.580   3.473   3.432 -0.9638 -0.1888  1.8677
   67CHL1    O3 6067   1.427   3.455   3.288 -0.4563 -0.2887 -0.4527
   67CHL1   H3' 6068   1.347   3.404   3.304 -0.4195 -1.2592 -2.9234
   67CHL1    C4 6069   1.396   3.426   3.532 -0.6067  0.2423 -0.8695
   67CHL1   H4A 6070   1.289   3.455   3.524 -1.2749 -1.9319 -0.4997
   67CHL1   H4B 6071   1.402   3.317   3.510 -0.9709  0.4931 -2.3192
   67CHL1    C5 6072   1.458   3.464   3.666 -0.4566  0.6112 -0.5585
   67CHL1    C6 6073   1.519   3.373   3.744 -0.2021 -0.8035  0.5095
   67CHL1    H6 6074   1.504   3.268   3.714 -0.0378 -0.3632 -1.2187
   67CHL1    C7 6075   1.581   3.398   3.876  0.3501  0.3415  0.7788
   67CHL1   H7A 6076   1.531   3.326   3.944  0.3122  0.5446  0.9665
   67CHL1   H7B 6077   1.690   3.382   3.870 -0.0978 -2.6680 -1.2268
   67CHL1    C8 6078   1.547   3.533   3.935  0.0964  0.1558 -0.2594
   67CHL1    H8 6079   1.443   3.530   3.973 -0.2501  3.5503 -0.6609
   67CHL1   C14 6080   1.647   3.571   4.048  0.4126  0.0668 -0.2878
   67CHL1   H14 6081   1.750   3.580   4.007  0.4479  0.1296 -0.1864
   67CHL1   C15 6082   1.661   3.470   4.161 -0.0216  0.4124 -0.8011
   67CHL1  H15A 6083   1.564   3.425   4.189  0.8935 -0.2868  1.4969
   67CHL1  H15B 6084   1.729   3.388   4.129 -1.1039 -0.3448 -1.2396
   67CHL1   C16 6085   1.730   3.543   4.280  0.3288 -0.5458  0.3953
   67CHL1  H16A 6086   1.675   3.527   4.375  0.5742 -1.6636  0.3690
   67CHL1  H16B 6087   1.838   3.519   4.285  0.5574 -0.5273 -2.5150
   67CHL1   C17 6088   1.727   3.695   4.240  0.7953  0.4274  0.1941
   67CHL1   H17 6089   1.816   3.713   4.177  0.4526 -3.2621 -1.5729
   67CHL1   C13 6090   1.616   3.696   4.126 -0.0456 -0.6871  0.3989
   67CHL1   C18 6091   1.481   3.695   4.194 -0.0922 -0.1385  0.6366
   67CHL1  H18A 6092   1.463   3.781   4.261  0.8586 -0.9684  2.0163
   67CHL1  H18B 6093   1.391   3.695   4.129 -1.2971  0.6171  2.2414
   67CHL1  H18C 6094   1.478   3.610   4.266 -0.8592 -1.2614 -0.6663
   67CHL1   C12 6095   1.628   3.811   4.022 -0.3622 -0.3299  1.5910
   67CHL1  H12A 6096   1.609   3.914   4.060  2.2977 -0.0047  2.2341
   67CHL1  H12B 6097   1.736   3.811   3.997 -0.1027  0.3576  2.6263
   67CHL1   C11 6098   1.542   3.791   3.889 -0.0232 -0.0972 -0.7216
   67CHL1  H11A 6099   1.436   3.797   3.923  0.8979  1.0773  2.3023
   67CHL1  H11B 6100   1.563   3.874   3.818  0.5493 -0.7533 -1.3389
   67CHL1    C9 6101   1.557   3.647   3.829  0.5978  0.0612 -0.2199
   67CHL1    H9 6102   1.662   3.637   3.793  0.1827 -1.7107 -1.0737
   67CHL1   C10 6103   1.459   3.620   3.702 -0.2423 -0.1746  0.2088
   67CHL1   C19 6104   1.311   3.666   3.729 -0.0635 -0.1968 -0.5263
   67CHL1  H19A 6105   1.242   3.626   3.652 -1.8802 -0.6263  1.2367
   67CHL1  H19B 6106   1.281   3.603   3.816  0.7057 -0.0292 -0.1260
   67CHL1  H19C 6107   1.306   3.777   3.730 -1.1553 -0.1638 -2.8703
   67CHL1    C1 6108   1.507   3.696   3.574 -0.6912  0.0082 -0.2983
   67CHL1   H1A 6109   1.484   3.803   3.595  0.3474  0.1936 -0.0505
   67CHL1   H1B 6110   1.618   3.705   3.575 -0.7747  1.2991  1.1503
   67CHL1    C2 6111   1.460   3.653   3.431  0.0578  0.0658 -0.4600
   67CHL1   H2A 6112   1.519   3.700   3.350 -2.1127 -0.4184 -2.4096
   67CHL1   H2B 6113   1.360   3.696   3.410  0.9412  0.8394 -3.4751
   67CHL1   C20 6114   1.710   3.789   4.361  0.1377  0.9999 -0.0714
   67CHL1   H20 6115   1.608   3.769   4.400 -0.0673  0.6419 -0.7814
   67CHL1   C21 6116   1.704   3.932   4.310 -0.1002 -1.1423  0.5316
   67CHL1  H21A 6117   1.780   3.957   4.233  1.5111 -1.1323  2.0596
   67CHL1  H21B 6118   1.721   4.011   4.386 -3.1427 -1.4166  1.6180
   67CHL1  H21C 6119   1.602   3.955   4.272  0.6495 -0.3471 -1.0913
   67CHL1   C22 6120   1.822   3.761   4.467  0.2360 -0.0721  0.7008
   67CHL1  H22A 6121   1.787   3.676   4.530 -1.2603  0.7722  1.0563
   67CHL1  H22B 6122   1.915   3.731   4.414  1.5960  0.3912  2.7356
   67CHL1   C23 6123   1.856   3.880   4.562  0.2186 -0.4624  0.1145
   67CHL1  H23A 6124   1.890   3.971   4.507 -2.3568 -0.0363 -0.9601
   67CHL1  H23B 6125   1.762   3.902   4.618  0.0520  1.8405 -0.9449
   67CHL1   C24 6126   1.963   3.827   4.666 -0.0703  0.6172  0.2947
   67CHL1  H24A 6127   1.930   3.727   4.704  2.0243 -0.1196  0.3079
   67CHL1  H24B 6128   2.055   3.818   4.606 -0.7963  0.6709 -0.8576
   67CHL1   C25 6129   1.988   3.909   4.786  0.2027 -1.0492  0.1783
   67CHL1   H25 6130   2.070   3.861   4.844 -0.5975 -1.1245  1.2735
   67CHL1   C26 6131   2.044   4.043   4.738 -0.0026 -0.0104  0.3420
   67CHL1  H26A 6132   2.142   4.036   4.685  0.0396  0.7016  0.3163
   67CHL1  H26B 6133   1.974   4.094   4.669  0.8369  0.1890 -0.3780
   67CHL1  H26C 6134   2.062   4.119   4.817  1.7591  1.3431 -1.2705
   67CHL1   C27 6135   1.878   3.923   4.887  0.4122  0.0222 -0.8584
   67CHL1  H27A 6136   1.908   3.997   4.964 -0.5499 -1.0044  0.5531
   67CHL1  H27B 6137   1.786   3.959   4.836 -0.9759 -2.4215 -0.2565
   67CHL1  H27C 6138   1.857   3.827   4.940  0.4387  1.3726  1.7564
   68CHL1    C3 6139   5.893   2.395   3.726  0.1150  0.3831 -0.1341
   68CHL1    H3 6140   5.833   2.489   3.723 -0.3917  0.0790  0.3625
   68CHL1    O3 6141   5.914   2.343   3.598 -0.4235 -0.5348  0.2293
   68CHL1   H3' 6142   5.964   2.261   3.609  1.0303  0.2247 -0.3559
   68CHL1    C4 6143   6.022   2.435   3.794  0.0635 -0.1473 -0.0015
   68CHL1   H4A 6144   6.097   2.353   3.788 -0.0280 -0.1350 -1.7157
   68CHL1   H4B 6145   6.066   2.522   3.739 -1.1553 -0.5664 -1.7258
   68CHL1    C5 6146   5.993   2.468   3.945 -0.7130  0.4383  0.1079
   68CHL1    C6 6147   6.018   2.591   3.991 -0.0793  0.1707  0.2176
   68CHL1    H6 6148   6.051   2.669   3.920  0.4192 -0.4675 -0.2642
   68CHL1    C7 6149   6.002   2.629   4.138 -0.1084  0.3814  0.7550
   68CHL1   H7A 6150   6.097   2.671   4.176  0.6084 -2.7948  2.8907
   68CHL1   H7B 6151   5.916   2.695   4.164 -2.4871 -3.1308  2.6319
   68CHL1    C8 6152   6.001   2.497   4.218  0.0651 -0.1430 -0.0377
   68CHL1    H8 6153   6.108   2.468   4.224  0.6872  2.2553  2.3500
   68CHL1   C14 6154   5.969   2.541   4.358  0.0907 -0.7994  0.5152
   68CHL1   H14 6155   5.870   2.592   4.350  1.1320  1.0158 -3.0012
   68CHL1   C15 6156   6.053   2.655   4.432 -0.0751 -0.3239 -1.0270
   68CHL1  H15A 6157   6.162   2.635   4.421  0.6796  0.9562  2.6666
   68CHL1  H15B 6158   6.027   2.755   4.391 -1.3293 -0.4695 -0.6217
   68CHL1   C16 6159   6.020   2.630   4.582  0.6164  0.0281  0.2707
   68CHL1  H16A 6160   6.116   2.626   4.638  1.0181 -1.0459 -0.4669
   68CHL1  H16B 6161   5.953   2.716   4.607 -1.1316 -1.6075  1.4776
   68CHL1   C17 6162   5.934   2.503   4.592 -0.1840  0.0614 -0.3285
   68CHL1   H17 6163   5.825   2.525   4.586 -0.2888 -0.2288  0.3263
   68CHL1   C13 6164   5.951   2.423   4.460 -0.5599 -0.1392 -0.3463
   68CHL1   C18 6165   6.088   2.345   4.470  0.0006  0.3767  0.2001
   68CHL1  H18A 6166   6.099   2.268   4.550  2.0949 -1.6633 -1.9191
   68CHL1  H18B 6167   6.098   2.294   4.372 -1.4431  1.4267 -0.5290
   68CHL1  H18C 6168   6.174   2.415   4.479  3.1986 -3.1589 -0.4795
   68CHL1   C12 6169   5.832   2.341   4.408  0.5513 -0.2072 -0.8358
   68CHL1  H12A 6170   5.804   2.262   4.481 -1.9137  0.3811 -1.0755
   68CHL1  H12B 6171   5.752   2.418   4.405  0.9433  0.1799 -2.1131
   68CHL1   C11 6172   5.860   2.284   4.274 -0.2616 -0.2870  0.7647
   68CHL1  H11A 6173   5.946   2.213   4.284 -1.0376 -1.2913  0.4902
   68CHL1  H11B 6174   5.771   2.236   4.228 -1.0340  1.7159  0.0944
   68CHL1    C9 6175   5.895   2.398   4.170  0.8245 -1.2655 -0.1061
   68CHL1    H9 6176   5.806   2.464   4.166  1.7777  0.2159  1.4306
   68CHL1   C10 6177   5.934   2.347   4.031  0.4875 -0.7348 -0.1705
   68CHL1   C19 6178   6.005   2.214   4.034 -0.0834  0.0443  0.4041
   68CHL1  H19A 6179   5.951   2.120   4.061  1.6939 -0.7498  1.3736
   68CHL1  H19B 6180   6.035   2.192   3.930  0.5440 -1.7317  0.9160
   68CHL1  H19C 6181   6.090   2.215   4.105 -0.2752 -1.0257  0.6750
   68CHL1    C1 6182   5.801   2.319   3.957 -0.1266  0.1215 -1.2416
   68CHL1   H1A 6183   5.747   2.243   4.017 -2.4331  2.0227 -0.7538
   68CHL1   H1B 6184   5.733   2.406   3.969 -1.5815 -1.0381 -0.7398
   68CHL1    C2 6185   5.813   2.280   3.807 -0.7936  0.8485 -0.0596
   68CHL1   H2A 6186   5.717   2.243   3.765  0.6191 -4.1531  0.4881
   68CHL1   H2B 6187   5.863   2.182   3.791 -3.2973 -0.5379  0.0931
   68CHL1   C20 6188   5.952   2.425   4.721 -0.1815 -1.3722 -0.4572
   68CHL1   H20 6189   6.060   2.399   4.717 -0.4665 -2.8956  0.9812
   68CHL1   C21 6190   5.874   2.296   4.725  0.0012  0.4690 -0.3282
   68CHL1  H21A 6191   5.927   2.213   4.675  0.3379  0.5880 -0.1696
   68CHL1  H21B 6192   5.774   2.311   4.680 -1.7746  1.0640  3.3898
   68CHL1  H21C 6193   5.857   2.265   4.830  0.9706 -0.9870 -0.5864
   68CHL1   C22 6194   5.935   2.510   4.845 -0.0283  0.2723  0.2041
   68CHL1  H22A 6195   5.989   2.606   4.829 -1.8676  1.3033 -0.0969
   68CHL1  H22B 6196   5.824   2.518   4.854 -0.1352  0.6879 -1.2536
   68CHL1   C23 6197   5.997   2.451   4.972  0.4057 -0.5817 -0.3381
   68CHL1  H23A 6198   5.940   2.367   5.015  1.8431 -0.9555  0.9323
   68CHL1  H23B 6199   6.100   2.419   4.946  0.0767 -0.8459 -1.3573
   68CHL1   C24 6200   6.019   2.558   5.078  0.2152 -0.2538 -0.0643
   68CHL1  H24A 6201   6.056   2.650   5.027 -1.1843 -0.0802 -0.8169
   68CHL1  H24B 6202   5.916   2.574   5.116 -0.2509 -2.6458 -0.1488
   68CHL1   C25 6203   6.097   2.519   5.207 -0.5961  0.0895  0.8658
   68CHL1   H25 6204   6.195   2.482   5.172 -0.1990  1.7754  0.1070
   68CHL1   C26 6205   6.123   2.641   5.295  0.0307  0.5839 -0.3390
   68CHL1  H26A 6206   6.186   2.707   5.230  1.5858 -0.9326 -0.4453
   68CHL1  H26B 6207   6.025   2.687   5.321 -0.0524  0.7960 -1.0101
   68CHL1  H26C 6208   6.172   2.602   5.387 -1.4499  1.3595  0.8300
   68CHL1   C27 6209   6.020   2.409   5.282  0.0251  0.5779  0.5455
   68CHL1  H27A 6210   6.070   2.395   5.380  1.4440 -0.0277 -0.2266
   68CHL1  H27B 6211   5.920   2.447   5.311  0.1343  1.2884  0.0034
   68CHL1  H27C 6212   6.009   2.313   5.227  0.2425 -0.4152  2.1690
   69CHL1    C3 6213   5.011   1.092   3.867  0.4672  0.5760  0.1958
   69CHL1    H3 6214   5.106   1.036   3.876 -0.5492 -1.3829 -0.5692
   69CHL1    O3 6215   4.978   1.093   3.730  0.5546  0.4808  0.3223
   69CHL1   H3' 6216   4.888   1.065   3.711  0.8790 -1.0450  0.8404
   69CHL1    C4 6217   4.899   1.021   3.951  0.5373 -0.4111  0.5551
   69CHL1   H4A 6218   4.805   1.068   3.917  0.4819  0.8429  2.2783
   69CHL1   H4B 6219   4.904   0.912   3.930  0.3402 -0.1874 -0.7358
   69CHL1    C5 6220   4.915   1.049   4.103 -0.0281 -0.7331  0.1735
   69CHL1    C6 6221   4.910   0.956   4.200  0.0565  0.2504  0.9369
   69CHL1    H6 6222   4.884   0.852   4.176 -3.7042  0.6948  2.4550
   69CHL1    C7 6223   4.922   0.972   4.345 -0.0942  0.4144  0.0032
   69CHL1   H7A 6224   4.853   0.902   4.396  0.3025 -0.9134 -1.2167
   69CHL1   H7B 6225   5.023   0.939   4.378 -0.0837 -0.2670 -0.6846
   69CHL1    C8 6226   4.910   1.120   4.387 -0.5613 -0.5178  0.1119
   69CHL1    H8 6227   4.806   1.158   4.385  0.5233  2.8428 -0.7256
   69CHL1   C14 6228   4.962   1.141   4.534  0.7130  0.0142  0.5052
   69CHL1   H14 6229   5.067   1.104   4.528  0.1553 -1.6911  0.6276
   69CHL1   C15 6230   4.890   1.056   4.645  0.2846 -0.1586 -0.0620
   69CHL1  H15A 6231   4.780   1.041   4.633  0.2443  0.4174 -0.4418
   69CHL1  H15B 6232   4.944   0.960   4.630  1.2508  0.4788 -0.7852
   69CHL1   C16 6233   4.932   1.133   4.775  1.4755  0.4112 -0.7861
   69CHL1  H16A 6234   4.842   1.167   4.830  0.0832 -2.5404 -1.0911
   69CHL1  H16B 6235   4.999   1.069   4.836 -1.9652 -1.4558  1.3146
   69CHL1   C17 6236   5.019   1.250   4.731 -0.2942 -0.0300  0.1410
   69CHL1   H17 6237   5.122   1.208   4.726 -1.2084 -2.3953  0.0219
   69CHL1   C13 6238   4.972   1.277   4.586 -0.3931 -0.1865 -0.0752
   69CHL1   C18 6239   4.838   1.357   4.589 -0.4247  0.0826 -0.9187
   69CHL1  H18A 6240   4.784   1.356   4.686  0.0461  0.8229 -0.6381
   69CHL1  H18B 6241   4.857   1.466   4.577 -0.1539  0.1165 -0.2233
   69CHL1  H18C 6242   4.775   1.320   4.505 -2.7573  1.6428  0.0178
   69CHL1   C12 6243   5.072   1.349   4.489  0.7101  0.4411  0.3460
   69CHL1  H12A 6244   5.093   1.453   4.523 -0.1280 -0.3191  3.4157
   69CHL1  H12B 6245   5.167   1.291   4.484 -0.7543 -2.0108 -1.9598
   69CHL1   C11 6246   5.017   1.348   4.349  0.1051  0.8459  0.5129
   69CHL1  H11A 6247   4.914   1.388   4.345  0.1292  1.4176  3.4477
   69CHL1  H11B 6248   5.079   1.406   4.277  0.3261 -1.0912 -0.9182
   69CHL1    C9 6249   4.998   1.203   4.294 -0.4505  0.7472 -1.2465
   69CHL1    H9 6250   5.102   1.168   4.308 -1.1314 -0.8826  0.2634
   69CHL1   C10 6251   4.956   1.197   4.149  0.0204  0.1115  0.4856
   69CHL1   C19 6252   4.827   1.285   4.126  0.0422  0.5145 -0.7146
   69CHL1  H19A 6253   4.744   1.269   4.199  1.2114  1.0520  0.7782
   69CHL1  H19B 6254   4.847   1.393   4.144  1.8277  0.0395  0.4100
   69CHL1  H19C 6255   4.779   1.278   4.026  0.7428  1.8723 -1.1547
   69CHL1    C1 6256   5.077   1.239   4.053  0.5969 -1.0027  0.7077
   69CHL1   H1A 6257   5.129   1.329   4.092  0.3396 -0.7206  0.4029
   69CHL1   H1B 6258   5.151   1.158   4.071  0.4090 -1.0391  1.3405
   69CHL1    C2 6259   5.038   1.241   3.906  0.4317  0.5183  0.1947
   69CHL1   H2A 6260   5.113   1.282   3.835 -0.5763 -0.8978 -1.7575
   69CHL1   H2B 6261   4.951   1.306   3.881 -0.6761 -0.4950  1.3055
   69CHL1   C20 6262   5.020   1.369   4.836 -0.3070  0.3572  0.1202
   69CHL1   H20 6263   4.920   1.417   4.834 -1.6353 -2.2064  1.1446
   69CHL1   C21 6264   5.132   1.473   4.801  0.0359  0.2417 -0.3258
   69CHL1  H21A 6265   5.149   1.554   4.876 -0.9961 -0.0777  0.2808
   69CHL1  H21B 6266   5.083   1.519   4.713 -0.8311  2.0535  1.0190
   69CHL1  H21C 6267   5.225   1.416   4.778 -0.4159 -0.4164 -0.5519
   69CHL1   C22 6268   5.042   1.312   4.983 -0.0583 -0.3625  0.6150
   69CHL1  H22A 6269   4.956   1.245   5.003 -0.0635 -0.0182  1.8084
   69CHL1  H22B 6270   5.140   1.259   4.974  2.0683  3.1156  1.4277
   69CHL1   C23 6271   5.052   1.417   5.096  0.4078  0.3092 -0.0306
   69CHL1  H23A 6272   5.133   1.493   5.090  1.7670 -1.1214 -0.5292
   69CHL1  H23B 6273   4.955   1.469   5.078  0.3302 -0.7761 -3.6544
   69CHL1   C24 6274   5.058   1.344   5.238  0.5381  0.4035  0.1259
   69CHL1  H24A 6275   4.967   1.286   5.263  0.8311  0.8044  2.3187
   69CHL1  H24B 6276   5.148   1.279   5.228 -0.0202 -0.2023 -1.2987
   69CHL1   C25 6277   5.066   1.447   5.355 -0.0689  0.1010  1.0185
   69CHL1   H25 6278   5.169   1.489   5.356  0.7746 -1.8380  1.3531
   69CHL1   C26 6279   4.963   1.563   5.348  0.2793  0.3100 -0.3413
   69CHL1  H26A 6280   4.984   1.623   5.257  1.5046  1.2539  0.5331
   69CHL1  H26B 6281   4.854   1.539   5.351  0.1817  0.4287  4.1615
   69CHL1  H26C 6282   4.985   1.616   5.444 -1.3878 -0.6052  0.6047
   69CHL1   C27 6283   5.060   1.369   5.489 -0.1172  0.2878 -0.6982
   69CHL1  H27A 6284   4.962   1.316   5.490  0.1744 -0.2557  0.5513
   69CHL1  H27B 6285   5.145   1.297   5.490  2.4103  2.8285 -4.8431
   69CHL1  H27C 6286   5.078   1.438   5.573  1.8708  0.1216 -0.9459
   70CHL1    C3 6287   6.024   3.944   3.940  0.2558 -0.3451 -0.2112
   70CHL1    H3 6288   5.925   3.982   3.974  0.8657  0.1172  1.1726
   70CHL1    O3 6289   6.029   3.938   3.796 -0.3273  0.3511 -0.4221
   70CHL1   H3' 6290   6.107   3.884   3.784  0.1541  0.7877  0.6823
   70CHL1    C4 6291   6.132   4.035   4.000  0.1701  0.7207  0.1209
   70CHL1   H4A 6292   6.233   3.993   3.979 -0.8577 -0.7760 -2.2714
   70CHL1   H4B 6293   6.127   4.138   3.957 -2.3109 -0.1636 -1.9997
   70CHL1    C5 6294   6.122   4.033   4.156  0.0217 -0.8290 -0.2606
   70CHL1    C6 6295   6.102   4.150   4.224 -0.1050  0.1007  0.4213
   70CHL1    H6 6296   6.101   4.248   4.174 -0.1782 -0.5407 -0.8917
   70CHL1    C7 6297   6.092   4.152   4.372 -0.0925 -1.1262  0.5068
   70CHL1   H7A 6298   6.107   4.252   4.418 -2.2900 -2.5540  5.0088
   70CHL1   H7B 6299   5.987   4.130   4.401 -0.0083 -1.7844  0.3347
   70CHL1    C8 6300   6.152   4.032   4.440 -0.2999 -0.5310  0.6969
   70CHL1    H8 6301   6.262   4.039   4.439 -0.2769 -0.7026 -1.0620
   70CHL1   C14 6302   6.118   4.028   4.589  0.1596  0.2185 -0.7473
   70CHL1   H14 6303   6.007   4.028   4.599  0.3008 -0.0715  1.2767
   70CHL1   C15 6304   6.149   4.155   4.667 -0.0771  0.3035 -0.0441
   70CHL1  H15A 6305   6.255   4.181   4.649  0.1013  0.5521  1.2934
   70CHL1  H15B 6306   6.078   4.234   4.636 -0.4237  0.4067  0.9750
   70CHL1   C16 6307   6.119   4.110   4.814 -0.4231 -0.2317  0.2272
   70CHL1  H16A 6308   6.218   4.131   4.859  0.6824 -0.5073 -1.9284
   70CHL1  H16B 6309   6.033   4.164   4.857 -0.5227  0.5946 -0.9465
   70CHL1   C17 6310   6.086   3.955   4.807 -0.2329  0.3009  0.2585
   70CHL1   H17 6311   5.979   3.925   4.802 -0.2279  0.3144  0.0679
   70CHL1   C13 6312   6.148   3.907   4.669 -0.2130  0.3678 -0.5181
   70CHL1   C18 6313   6.302   3.889   4.680  0.5754  0.2996 -0.6461
   70CHL1  H18A 6314   6.355   3.889   4.582  3.6887  1.2157  0.9408
   70CHL1  H18B 6315   6.343   3.977   4.734  0.5342 -0.5108  0.7246
   70CHL1  H18C 6316   6.324   3.802   4.745  0.1115  0.5156 -0.1946
   70CHL1   C12 6317   6.074   3.788   4.598 -0.4688  0.1467 -0.0471
   70CHL1  H12A 6318   6.087   3.690   4.648 -0.5104  0.0011 -0.3172
   70CHL1  H12B 6319   5.965   3.806   4.594 -1.2167 -3.5235  0.5337
   70CHL1   C11 6320   6.109   3.767   4.447  0.7176 -0.3731  0.0011
   70CHL1  H11A 6321   6.215   3.733   4.451  0.4600 -1.2636 -0.7324
   70CHL1  H11B 6322   6.037   3.702   4.393  0.0844 -0.2403  0.6630
   70CHL1    C9 6323   6.099   3.910   4.374  0.2621  0.4224 -0.3722
   70CHL1    H9 6324   5.988   3.917   4.371  0.2458  0.4698  0.2717
   70CHL1   C10 6325   6.135   3.895   4.225 -0.0212  0.0657  0.1932
   70CHL1   C19 6326   6.288   3.846   4.214  0.4259 -0.2791 -0.2195
   70CHL1  H19A 6327   6.341   3.840   4.117 -0.4277 -0.0557 -0.7139
   70CHL1  H19B 6328   6.354   3.914   4.271 -1.2210  0.8983  0.3762
   70CHL1  H19C 6329   6.315   3.745   4.251  2.3751  0.1623 -0.3565
   70CHL1    C1 6330   6.043   3.801   4.148  0.4212  0.1204  0.5289
   70CHL1   H1A 6331   6.078   3.697   4.167  1.6827  0.1185 -1.4814
   70CHL1   H1B 6332   5.940   3.827   4.183  0.0853 -0.4037 -0.0478
   70CHL1    C2 6333   6.039   3.801   3.992  0.4106 -0.2432 -0.5280
   70CHL1   H2A 6334   5.955   3.740   3.955  0.3222  0.2576 -1.1555
   70CHL1   H2B 6335   6.131   3.759   3.947  0.4087 -0.1941 -0.5774
   70CHL1   C20 6336   6.131   3.889   4.939 -0.7829 -0.3773  0.3161
   70CHL1   H20 6337   6.242   3.890   4.940 -0.7717 -0.5175 -0.1154
   70CHL1   C21 6338   6.092   3.740   4.930  0.0990  0.3921  0.0437
   70CHL1  H21A 6339   6.142   3.680   4.851 -1.1713 -1.7052  0.7172
   70CHL1  H21B 6340   5.983   3.730   4.911 -0.1591  0.6162  1.3038
   70CHL1  H21C 6341   6.122   3.686   5.023  2.2009 -1.4646 -1.6206
   70CHL1   C22 6342   6.063   3.951   5.054 -0.1016 -0.5686  0.0998
   70CHL1  H22A 6343   6.099   4.055   5.065  1.3598 -0.7939 -1.9174
   70CHL1  H22B 6344   5.955   3.946   5.027 -0.1987  0.4773  0.2726
   70CHL1   C23 6345   6.084   3.878   5.189 -0.1547  0.1527 -0.5090
   70CHL1  H23A 6346   6.022   3.786   5.193  1.0801 -0.8025 -2.2925
   70CHL1  H23B 6347   6.191   3.853   5.202 -0.2191  0.9709  2.4622
   70CHL1   C24 6348   6.051   3.965   5.313 -0.2252 -0.4490 -0.2854
   70CHL1  H24A 6349   6.093   4.067   5.309 -1.5014  0.0870 -0.5758
   70CHL1  H24B 6350   5.944   3.990   5.297 -0.4944 -0.9234  0.6716
   70CHL1   C25 6351   6.057   3.886   5.443  0.0841  0.7602  0.0884
   70CHL1   H25 6352   5.989   3.799   5.429 -0.8164  1.2590  1.1635
   70CHL1   C26 6353   6.200   3.841   5.499  0.0340 -0.1177  0.8522
   70CHL1  H26A 6354   6.188   3.757   5.570  1.9117 -1.3346 -0.1848
   70CHL1  H26B 6355   6.263   3.807   5.415 -0.1060 -2.3130  1.5852
   70CHL1  H26C 6356   6.252   3.930   5.540  2.8109 -0.8232 -0.9085
   70CHL1   C27 6357   5.977   3.980   5.541 -0.6223  0.0376  0.0620
   70CHL1  H27A 6358   5.963   3.927   5.638  0.8697 -2.5363 -1.0342
   70CHL1  H27B 6359   6.036   4.072   5.564  1.6983 -1.3554 -0.0222
   70CHL1  H27C 6360   5.874   4.000   5.504 -1.2785 -1.5102  0.9537
   71CHL1    C3 6361   3.930   2.955   3.562  0.3975 -0.1532  1.2762
   71CHL1    H3 6362   4.024   3.012   3.548  2.6781 -3.3711  2.2603
   71CHL1    O3 6363   3.891   2.897   3.436  0.0644  0.8879 -0.5764
   71CHL1   H3' 6364   3.817   2.841   3.458 -0.0269  0.5048 -1.7979
   71CHL1    C4 6365   3.977   2.843   3.650 -0.1527 -0.0705  0.2322
   71CHL1   H4A 6366   3.904   2.760   3.642 -0.5233  0.3680 -1.4591
   71CHL1   H4B 6367   4.075   2.810   3.611 -0.4262 -3.2592  1.9459
   71CHL1    C5 6368   3.990   2.892   3.796 -0.4564  1.2319  1.2891
   71CHL1    C6 6369   4.113   2.876   3.853  0.2592 -0.0964  0.3459
   71CHL1    H6 6370   4.200   2.831   3.804  0.8409  0.5776  0.7392
   71CHL1    C7 6371   4.140   2.910   3.999 -0.0926 -0.2957 -0.0312
   71CHL1   H7A 6372   4.202   2.838   4.056  0.2664 -0.1895 -0.2826
   71CHL1   H7B 6373   4.200   3.004   4.003  2.0610 -1.6549  2.0393
   71CHL1    C8 6374   4.002   2.915   4.072  0.2813  0.0175 -0.5200
   71CHL1    H8 6375   3.962   2.812   4.082 -0.6127  0.2258 -1.7382
   71CHL1   C14 6376   4.022   2.966   4.211 -0.2938 -0.0390  0.1209
   71CHL1   H14 6377   4.070   3.066   4.203 -0.8558  0.1774 -0.7323
   71CHL1   C15 6378   4.124   2.888   4.301  0.3727  0.1557  0.0803
   71CHL1  H15A 6379   4.114   2.780   4.278 -0.2909  0.1972  0.1606
   71CHL1  H15B 6380   4.227   2.929   4.285  0.8525 -0.6690  0.9362
   71CHL1   C16 6381   4.075   2.918   4.446 -0.3219 -0.1422 -0.3923
   71CHL1  H16A 6382   4.039   2.821   4.487  3.8720 -1.9256 -0.4359
   71CHL1  H16B 6383   4.155   2.949   4.516 -2.4473 -0.7142  2.4500
   71CHL1   C17 6384   3.954   3.023   4.432  0.5198 -0.0425 -0.1002
   71CHL1   H17 6385   4.018   3.114   4.432  1.6563 -0.8077  0.4064
   71CHL1   C13 6386   3.898   2.983   4.291  0.0036  0.0848 -0.2023
   71CHL1   C18 6387   3.832   2.846   4.298  0.2540  0.6309 -0.2266
   71CHL1  H18A 6388   3.904   2.767   4.328 -1.0446 -0.7731 -0.6297
   71CHL1  H18B 6389   3.749   2.845   4.372  0.0015 -1.2158 -0.4834
   71CHL1  H18C 6390   3.788   2.808   4.203 -0.9606  1.2585  0.0617
   71CHL1   C12 6391   3.819   3.095   4.225 -0.2529  0.2249  0.6860
   71CHL1  H12A 6392   3.719   3.112   4.271 -0.6716 -0.7146  0.1566
   71CHL1  H12B 6393   3.882   3.186   4.235  0.7776 -0.3263 -0.4560
   71CHL1   C11 6394   3.786   3.062   4.082 -0.0976  0.1845 -0.5273
   71CHL1  H11A 6395   3.710   2.982   4.091  0.3391 -0.3742 -1.6269
   71CHL1  H11B 6396   3.737   3.147   4.029 -0.9226  1.4539  2.0594
   71CHL1    C9 6397   3.908   3.016   4.002 -0.9170  0.2469  0.2536
   71CHL1    H9 6398   3.969   3.109   3.995  1.1955 -0.8407  2.7902
   71CHL1   C10 6399   3.875   2.958   3.861 -1.0405  0.2798 -0.0236
   71CHL1   C19 6400   3.759   2.869   3.874 -0.2436  0.1263 -0.3790
   71CHL1  H19A 6401   3.667   2.918   3.911 -1.7962 -2.2994 -0.7960
   71CHL1  H19B 6402   3.719   2.822   3.781  0.2922  4.3344 -3.0195
   71CHL1  H19C 6403   3.775   2.785   3.945  1.0742  1.7633  1.3441
   71CHL1    C1 6404   3.839   3.067   3.768 -0.1882  0.1386 -0.1808
   71CHL1   H1A 6405   3.747   3.119   3.804  0.4778  0.4437  1.1509
   71CHL1   H1B 6406   3.924   3.139   3.766  1.6461 -1.8955  0.4802
   71CHL1    C2 6407   3.810   3.037   3.617 -0.3663 -0.1303 -0.1543
   71CHL1   H2A 6408   3.796   3.133   3.563  2.9199  0.3551 -0.3548
   71CHL1   H2B 6409   3.716   2.978   3.609 -0.1914 -0.2926 -1.3044
   71CHL1   C20 6410   3.859   3.039   4.551 -0.8893  0.3086  0.1906
   71CHL1   H20 6411   3.789   2.952   4.548 -0.9399  0.3099 -3.5175
   71CHL1   C21 6412   3.781   3.166   4.533  0.2894  0.8085 -0.6358
   71CHL1  H21A 6413   3.718   3.184   4.622  2.0544  0.6817  0.6904
   71CHL1  H21B 6414   3.701   3.167   4.456 -0.1870 -0.5078 -0.1898
   71CHL1  H21C 6415   3.847   3.254   4.518  0.6983  0.3556 -1.5944
   71CHL1   C22 6416   3.926   3.032   4.693 -0.0245  0.1154 -0.3041
   71CHL1  H22A 6417   3.953   2.925   4.710 -1.6086 -0.6690 -2.2373
   71CHL1  H22B 6418   4.022   3.087   4.691 -0.7959  1.7641  2.8482
   71CHL1   C23 6419   3.850   3.081   4.826  0.1497  0.9300 -0.1243
   71CHL1  H23A 6420   3.925   3.086   4.908  0.0665  1.5474 -0.0803
   71CHL1  H23B 6421   3.816   3.186   4.811  1.3571  1.3935  0.2349
   71CHL1   C24 6422   3.734   2.984   4.852  0.3446  0.1089 -0.0138
   71CHL1  H24A 6423   3.672   2.981   4.760 -1.3496 -1.9708  1.1209
   71CHL1  H24B 6424   3.771   2.883   4.877  1.3753 -0.0170 -1.8381
   71CHL1   C25 6425   3.635   3.032   4.964  0.5049 -0.2394 -0.2064
   71CHL1   H25 6426   3.539   2.978   4.952  0.4678  0.1898 -2.1109
   71CHL1   C26 6427   3.693   3.017   5.106 -0.0750 -0.3500  0.6184
   71CHL1  H26A 6428   3.746   2.920   5.118  2.5415  0.7414 -0.9967
   71CHL1  H26B 6429   3.769   3.091   5.139 -1.4323  0.6707  1.5847
   71CHL1  H26C 6430   3.614   3.034   5.182  0.2890  0.0219  0.9155
   71CHL1   C27 6431   3.588   3.173   4.943 -0.3649 -0.4574  0.2911
   71CHL1  H27A 6432   3.554   3.171   4.838 -0.0141 -1.5492  0.1834
   71CHL1  H27B 6433   3.495   3.190   5.001 -1.5124 -2.2909 -0.9141
   71CHL1  H27C 6434   3.676   3.240   4.943 -0.2909 -0.4404 -2.7888
   72CHL1    C3 6435   4.385   0.922   3.855  0.2857  0.2988  0.1592
   72CHL1    H3 6436   4.334   0.825   3.831  1.5408 -0.0426 -1.2784
   72CHL1    O3 6437   4.378   0.995   3.735  0.0466 -0.1868 -0.3539
   72CHL1   H3' 6438   4.401   0.929   3.670 -0.5234 -0.1598 -0.5908
   72CHL1    C4 6439   4.310   0.995   3.975  0.2123  0.3186  0.3611
   72CHL1   H4A 6440   4.354   1.097   3.981 -0.6170  0.6640  0.6987
   72CHL1   H4B 6441   4.205   1.008   3.940  0.8344 -1.2695 -2.4263
   72CHL1    C5 6442   4.323   0.912   4.098 -0.6382  0.1433 -0.0427
   72CHL1    C6 6443   4.221   0.872   4.164  0.9511  1.0269 -0.1587
   72CHL1    H6 6444   4.119   0.888   4.126  0.5472 -0.9124 -0.0225
   72CHL1    C7 6445   4.224   0.815   4.301  0.6850  0.0328 -0.2070
   72CHL1   H7A 6446   4.138   0.844   4.365  2.8826  0.6698  2.6542
   72CHL1   H7B 6447   4.201   0.706   4.294 -4.0199  0.8631 -1.1512
   72CHL1    C8 6448   4.359   0.836   4.375 -0.6847  0.4351  0.6374
   72CHL1    H8 6449   4.367   0.943   4.401  0.0266  0.6384 -0.3343
   72CHL1   C14 6450   4.370   0.752   4.501 -0.5181 -0.1102 -0.0458
   72CHL1   H14 6451   4.366   0.648   4.461 -0.0100 -0.1634  0.0397
   72CHL1   C15 6452   4.271   0.763   4.610 -0.3014  0.1157 -1.0539
   72CHL1  H15A 6453   4.246   0.867   4.641 -3.5185 -0.6600 -0.6327
   72CHL1  H15B 6454   4.170   0.720   4.592 -0.7945  0.8704 -0.2109
   72CHL1   C16 6455   4.338   0.696   4.733 -0.4264 -0.2876  0.3834
   72CHL1  H16A 6456   4.322   0.769   4.815 -1.2231  2.0896 -1.7700
   72CHL1  H16B 6457   4.294   0.599   4.767 -0.2943 -0.2962  0.5337
   72CHL1   C17 6458   4.484   0.670   4.692 -0.2842 -0.1252  0.0505
   72CHL1   H17 6459   4.487   0.567   4.651 -0.9732 -0.4770  0.8576
   72CHL1   C13 6460   4.504   0.758   4.571  0.0621  0.0151  0.0033
   72CHL1   C18 6461   4.532   0.898   4.622 -0.6987 -0.4561 -0.1741
   72CHL1  H18A 6462   4.542   0.969   4.538  0.7729 -1.0743 -0.5477
   72CHL1  H18B 6463   4.448   0.932   4.686 -0.4807  1.4496 -0.8419
   72CHL1  H18C 6464   4.627   0.897   4.680 -1.4394 -0.2802  1.0851
   72CHL1   C12 6465   4.612   0.706   4.468 -0.0116 -0.2724  0.5089
   72CHL1  H12A 6466   4.715   0.690   4.506  0.0619  0.0038  0.4283
   72CHL1  H12B 6467   4.587   0.606   4.427  0.6263  0.2373 -1.2117
   72CHL1   C11 6468   4.614   0.784   4.330  0.2643  0.1107  0.2671
   72CHL1  H11A 6469   4.643   0.887   4.360  1.6985 -0.0672 -0.4113
   72CHL1  H11B 6470   4.682   0.745   4.251 -0.4428 -1.1635  0.2721
   72CHL1    C9 6471   4.470   0.801   4.265  0.1441  0.0948  0.2233
   72CHL1    H9 6472   4.443   0.701   4.224 -0.3969  1.5043 -3.2380
   72CHL1   C10 6473   4.474   0.895   4.138  0.7942  0.3050  0.2394
   72CHL1   C19 6474   4.528   1.036   4.161  0.1280 -0.0747 -0.5564
   72CHL1  H19A 6475   4.533   1.099   4.070 -4.8324  0.7855 -0.4834
   72CHL1  H19B 6476   4.473   1.089   4.241  1.2595 -1.8093  1.4721
   72CHL1  H19C 6477   4.632   1.034   4.200 -0.9126 -1.0238  2.3957
   72CHL1    C1 6478   4.550   0.821   4.022 -0.3363  0.1319 -0.8549
   72CHL1   H1A 6479   4.658   0.814   4.047 -0.1780  1.5915 -1.0206
   72CHL1   H1B 6480   4.516   0.715   4.018  0.8604 -0.2941 -0.1589
   72CHL1    C2 6481   4.536   0.894   3.891 -0.0033 -0.3978 -0.4624
   72CHL1   H2A 6482   4.572   0.832   3.806  0.3280 -1.1644  0.2325
   72CHL1   H2B 6483   4.598   0.986   3.891  0.5524 -0.7652  0.0429
   72CHL1   C20 6484   4.569   0.683   4.816 -0.1831  0.1107 -0.4343
   72CHL1   H20 6485   4.566   0.790   4.846  0.9587 -0.1703  0.7344
   72CHL1   C21 6486   4.716   0.644   4.772  0.5983  0.9143  0.3480
   72CHL1  H21A 6487   4.757   0.700   4.685  0.3164 -0.6160 -0.8127
   72CHL1  H21B 6488   4.727   0.535   4.755  1.8543  0.7935  1.6935
   72CHL1  H21C 6489   4.781   0.670   4.859  0.7919  0.8330  0.2284
   72CHL1   C22 6490   4.529   0.603   4.939  0.0749 -0.1242  0.3269
   72CHL1  H22A 6491   4.422   0.610   4.965 -0.0197 -0.4227  0.0315
   72CHL1  H22B 6492   4.527   0.493   4.921 -1.1777  0.3964 -3.3883
   72CHL1   C23 6493   4.614   0.638   5.061 -0.3041 -0.1246 -0.2256
   72CHL1  H23A 6494   4.699   0.567   5.067 -1.5230 -1.5571  1.9210
   72CHL1  H23B 6495   4.643   0.745   5.063 -0.1260 -0.1767  0.5510
   72CHL1   C24 6496   4.540   0.603   5.182  0.1736 -0.2009 -0.1758
   72CHL1  H24A 6497   4.455   0.675   5.181 -0.9873 -1.3733  2.7177
   72CHL1  H24B 6498   4.520   0.494   5.186  2.9287 -0.7577  2.5341
   72CHL1   C25 6499   4.618   0.641   5.310 -0.0301  0.0694  0.0921
   72CHL1   H25 6500   4.665   0.741   5.294  2.1432 -1.1316 -1.5940
   72CHL1   C26 6501   4.518   0.663   5.425  0.1127  0.1947 -0.6104
   72CHL1  H26A 6502   4.459   0.575   5.458  1.0444  0.2893  1.4659
   72CHL1  H26B 6503   4.568   0.705   5.515  1.4025  1.6151 -1.9387
   72CHL1  H26C 6504   4.451   0.748   5.398 -2.6670 -0.1271  4.0878
   72CHL1   C27 6505   4.737   0.553   5.355  0.1339  0.7979 -0.2063
   72CHL1  H27A 6506   4.707   0.453   5.392  1.6787  0.9414  1.5792
   72CHL1  H27B 6507   4.812   0.542   5.273 -0.8037 -1.2422 -0.8631
   72CHL1  H27C 6508   4.784   0.605   5.441  0.0861 -0.1868  0.4269
   73CHL1    C3 6509   5.542   2.663   3.758  0.6260  0.0733  0.4226
   73CHL1    H3 6510   5.624   2.590   3.773  0.3224 -0.4687 -0.4702
   73CHL1    O3 6511   5.506   2.636   3.619  0.3849  0.5984 -0.2735
   73CHL1   H3' 6512   5.422   2.683   3.619  0.4283  0.6786 -0.0502
   73CHL1    C4 6513   5.424   2.626   3.838  0.1094 -0.1344  0.6139
   73CHL1   H4A 6514   5.330   2.676   3.809  0.9596  1.9201  1.2624
   73CHL1   H4B 6515   5.393   2.521   3.816 -0.5955  0.3577 -0.8503
   73CHL1    C5 6516   5.446   2.642   3.986  0.3482 -0.1690  0.7528
   73CHL1    C6 6517   5.436   2.537   4.071 -0.5219 -0.1218 -0.6150
   73CHL1    H6 6518   5.405   2.438   4.035 -1.5498  0.2516 -0.7670
   73CHL1    C7 6519   5.459   2.554   4.216 -0.1902 -0.1314 -0.6064
   73CHL1   H7A 6520   5.378   2.507   4.275 -0.6475  0.7544 -0.5265
   73CHL1   H7B 6521   5.555   2.509   4.250 -0.2613 -1.3687 -1.9786
   73CHL1    C8 6522   5.461   2.696   4.272 -0.3268 -0.1138  0.3716
   73CHL1    H8 6523   5.354   2.719   4.286 -0.5876 -1.4648  0.7797
   73CHL1   C14 6524   5.534   2.705   4.400 -0.0740 -0.4023  0.2505
   73CHL1   H14 6525   5.638   2.676   4.372  0.8516  0.3810  2.6103
   73CHL1   C15 6526   5.485   2.600   4.507  0.2390 -0.2669  0.1036
   73CHL1  H15A 6527   5.374   2.601   4.504  0.1766  2.0543  0.8838
   73CHL1  H15B 6528   5.518   2.497   4.485  1.2854  0.4875 -2.1148
   73CHL1   C16 6529   5.536   2.656   4.640  0.5335  0.4544  0.4413
   73CHL1  H16A 6530   5.453   2.675   4.711  0.9511  0.5516  0.9132
   73CHL1  H16B 6531   5.611   2.588   4.685  0.5324  1.3600  1.8579
   73CHL1   C17 6532   5.609   2.794   4.599  0.3274 -0.3097  0.1361
   73CHL1   H17 6533   5.713   2.769   4.569  0.4024  0.5566 -0.3649
   73CHL1   C13 6534   5.545   2.836   4.463 -0.6102 -0.1637 -0.5524
   73CHL1   C18 6535   5.404   2.894   4.476 -0.8356  0.4828  0.0977
   73CHL1  H18A 6536   5.396   2.966   4.560  0.2250  1.8557 -0.9297
   73CHL1  H18B 6537   5.365   2.947   4.386 -0.5995  1.5295  0.5949
   73CHL1  H18C 6538   5.338   2.811   4.509  1.0216 -0.7945  0.7096
   73CHL1   C12 6539   5.633   2.923   4.366  0.5433 -0.0268  0.1001
   73CHL1  H12A 6540   5.647   3.026   4.404  0.4783  0.9025 -2.2088
   73CHL1  H12B 6541   5.734   2.878   4.356  1.6799  2.4662 -0.3616
   73CHL1   C11 6542   5.572   2.927   4.229  0.3943  0.3558  0.7630
   73CHL1  H11A 6543   5.473   2.977   4.240 -0.5880 -1.5224  0.9079
   73CHL1  H11B 6544   5.637   2.988   4.161  2.0084 -2.7703 -0.7000
   73CHL1    C9 6545   5.535   2.787   4.174 -0.1639  0.1320  0.5112
   73CHL1    H9 6546   5.637   2.744   4.169 -0.1726  0.2103 -0.6889
   73CHL1   C10 6547   5.492   2.785   4.030  0.5955  0.8598 -0.3316
   73CHL1   C19 6548   5.366   2.874   4.014  1.2367 -0.2266 -0.3934
   73CHL1  H19A 6549   5.383   2.984   4.014 -2.5095  0.5050 -1.4038
   73CHL1  H19B 6550   5.325   2.858   3.912  1.4840  2.5163 -0.9894
   73CHL1  H19C 6551   5.295   2.854   4.097  0.1658  1.0324 -0.9566
   73CHL1    C1 6552   5.606   2.833   3.935 -0.1996  0.5176  0.1041
   73CHL1   H1A 6553   5.627   2.940   3.954  0.2115  0.5645 -0.5811
   73CHL1   H1B 6554   5.691   2.769   3.967 -0.5117  0.2567  0.4186
   73CHL1    C2 6555   5.577   2.810   3.783  1.4332 -0.4443 -0.1955
   73CHL1   H2A 6556   5.664   2.843   3.722  0.6205  1.7805 -0.2270
   73CHL1   H2B 6557   5.497   2.881   3.753  0.5489 -0.9430  0.9070
   73CHL1   C20 6558   5.630   2.893   4.713 -0.5052  1.2320  0.2982
   73CHL1   H20 6559   5.534   2.920   4.762 -1.8103  0.0276 -1.4512
   73CHL1   C21 6560   5.683   3.028   4.681  0.0509  0.2565 -0.1223
   73CHL1  H21A 6561   5.779   3.011   4.628 -1.0058 -2.4042 -1.3686
   73CHL1  H21B 6562   5.695   3.085   4.776  0.7639 -1.6787  1.0017
   73CHL1  H21C 6563   5.620   3.086   4.611  1.2440  1.8685  0.0943
   73CHL1   C22 6564   5.708   2.826   4.828  0.0118  0.3858 -0.0035
   73CHL1  H22A 6565   5.663   2.725   4.838 -0.9033  0.9506  2.0477
   73CHL1  H22B 6566   5.811   2.811   4.788  0.6660  3.1618  0.4312
   73CHL1   C23 6567   5.716   2.887   4.965  0.2834  0.3412 -0.1334
   73CHL1  H23A 6568   5.790   2.822   5.016  0.1570 -1.8701 -2.5732
   73CHL1  H23B 6569   5.757   2.991   4.961  4.3233 -1.0998 -1.1730
   73CHL1   C24 6570   5.579   2.872   5.026  0.5245 -0.3180 -0.6849
   73CHL1  H24A 6571   5.518   2.961   4.999 -2.8236 -2.6106 -1.3567
   73CHL1  H24B 6572   5.533   2.776   4.996 -1.0995  0.2546 -0.1541
   73CHL1   C25 6573   5.584   2.866   5.179 -0.3265 -0.9003  0.1629
   73CHL1   H25 6574   5.477   2.855   5.204 -0.5491  0.2698 -0.2058
   73CHL1   C26 6575   5.652   2.735   5.231  0.1908 -0.9109  0.5982
   73CHL1  H26A 6576   5.620   2.711   5.335  0.2807 -0.4995  0.7207
   73CHL1  H26B 6577   5.615   2.658   5.161 -3.3255  0.6746  0.5045
   73CHL1  H26C 6578   5.763   2.739   5.231  0.2997 -2.4316 -1.1704
   73CHL1   C27 6579   5.646   2.994   5.240  0.1529 -0.1089 -0.1209
   73CHL1  H27A 6580   5.653   2.982   5.350 -0.4877  0.9091  0.0424
   73CHL1  H27B 6581   5.747   3.019   5.201 -0.7000 -1.0525 -3.2047
   73CHL1  H27C 6582   5.582   3.084   5.228  2.6615  1.9157  0.6460
   74CHL1    C3 6583   5.033   2.599   3.787 -0.1065  0.9872  0.4454
   74CHL1    H3 6584   5.139   2.567   3.797 -0.6245 -1.3883 -0.9227
   74CHL1    O3 6585   5.022   2.597   3.647 -0.1016 -0.5820  0.1238
   74CHL1   H3' 6586   5.034   2.510   3.608 -1.7531 -0.4614 -0.7785
   74CHL1    C4 6587   4.966   2.480   3.839 -0.1050  0.0199 -0.7313
   74CHL1   H4A 6588   4.860   2.498   3.810 -0.3574  1.3005  0.7982
   74CHL1   H4B 6589   4.994   2.381   3.798  0.3799 -2.0479  4.0058
   74CHL1    C5 6590   4.984   2.471   3.990  0.2423 -0.3822 -0.1239
   74CHL1    C6 6591   5.037   2.360   4.048  0.5384 -0.7045 -0.4454
   74CHL1    H6 6592   5.074   2.274   3.990  0.4928  0.0020 -1.5525
   74CHL1    C7 6593   5.065   2.348   4.198  0.2522 -0.3136  0.0592
   74CHL1   H7A 6594   5.034   2.251   4.243 -1.2357  0.4071  0.6599
   74CHL1   H7B 6595   5.175   2.341   4.208  0.6609  2.7729 -1.2606
   74CHL1    C8 6596   5.015   2.465   4.282 -0.3116 -0.2317 -0.0634
   74CHL1    H8 6597   4.904   2.454   4.292 -0.5930  1.0077 -1.4124
   74CHL1   C14 6598   5.070   2.464   4.419  0.5446 -0.0829  0.5017
   74CHL1   H14 6599   5.181   2.475   4.412  0.5461 -0.9881 -3.3215
   74CHL1   C15 6600   5.062   2.330   4.494  0.9380 -0.6130 -0.1044
   74CHL1  H15A 6601   4.963   2.283   4.479  1.1255 -0.9583 -0.2672
   74CHL1  H15B 6602   5.141   2.256   4.467  1.3017 -0.1985 -0.1957
   74CHL1   C16 6603   5.073   2.366   4.642 -0.1482  0.4114  1.2494
   74CHL1  H16A 6604   4.986   2.324   4.696 -1.7265  0.5167 -1.0708
   74CHL1  H16B 6605   5.166   2.325   4.688  0.5555 -2.9084 -2.5809
   74CHL1   C17 6606   5.079   2.523   4.640  0.0870 -0.2047 -0.0085
   74CHL1   H17 6607   5.185   2.553   4.625  0.8818 -3.5780 -2.3874
   74CHL1   C13 6608   5.017   2.567   4.515  0.6406 -0.2237  0.6945
   74CHL1   C18 6609   4.856   2.559   4.542  1.1147  0.2997  0.3684
   74CHL1  H18A 6610   4.832   2.464   4.594  1.2844  0.1077  0.0965
   74CHL1  H18B 6611   4.814   2.649   4.592 -1.8264  0.3848 -1.9539
   74CHL1  H18C 6612   4.802   2.557   4.445  0.3732  2.1437  0.7023
   74CHL1   C12 6613   5.057   2.700   4.449  0.7310 -0.2797 -0.2623
   74CHL1  H12A 6614   5.015   2.784   4.508  0.0130 -0.9793  0.2532
   74CHL1  H12B 6615   5.168   2.702   4.446  0.7589 -0.4029  0.5234
   74CHL1   C11 6616   5.001   2.721   4.310 -0.6406  0.4927  0.3947
   74CHL1  H11A 6617   4.891   2.720   4.323 -0.7433  0.0627 -0.4162
   74CHL1  H11B 6618   5.026   2.818   4.262  0.6994 -0.5824 -1.2118
   74CHL1    C9 6619   5.034   2.605   4.209  0.5305 -0.0735 -0.2027
   74CHL1    H9 6620   5.145   2.608   4.199  0.6798 -1.6102  0.7445
   74CHL1   C10 6621   4.969   2.609   4.071  0.3012  0.5821 -0.0150
   74CHL1   C19 6622   4.817   2.635   4.079  0.7105  0.4172  0.2204
   74CHL1  H19A 6623   4.777   2.636   3.976 -0.4090  0.2941  0.6392
   74CHL1  H19B 6624   4.767   2.552   4.134  2.0521  0.3992  1.4752
   74CHL1  H19C 6625   4.784   2.730   4.126 -0.8513 -0.5974  1.2884
   74CHL1    C1 6626   5.041   2.730   3.994 -0.3554 -0.1209  0.1994
   74CHL1   H1A 6627   5.017   2.826   4.045  0.6627  0.6778 -0.7759
   74CHL1   H1B 6628   5.150   2.715   4.004 -0.6602 -1.6489  1.5506
   74CHL1    C2 6629   5.000   2.732   3.843 -0.0147  0.0017 -0.5750
   74CHL1   H2A 6630   5.071   2.804   3.797  0.0172  0.8246  0.7153
   74CHL1   H2B 6631   4.894   2.761   3.829 -0.1352  0.4484  1.0365
   74CHL1   C20 6632   5.029   2.602   4.762 -0.4525  0.1419 -0.0646
   74CHL1   H20 6633   4.951   2.675   4.731  0.6937  1.2606 -0.3901
   74CHL1   C21 6634   5.144   2.693   4.810  0.0414  0.5066  0.6346
   74CHL1  H21A 6635   5.230   2.632   4.845  0.2863 -1.0105 -2.3558
   74CHL1  H21B 6636   5.106   2.754   4.894 -0.3653  0.4743  0.4748
   74CHL1  H21C 6637   5.183   2.755   4.726  0.1966  3.0102  2.4475
   74CHL1   C22 6638   4.981   2.506   4.872 -0.7165 -0.2709  0.0822
   74CHL1  H22A 6639   4.900   2.445   4.827 -0.4745  0.4546 -1.3806
   74CHL1  H22B 6640   5.069   2.442   4.893 -1.1686 -0.7747  0.4601
   74CHL1   C23 6641   4.936   2.565   4.999 -0.5592 -0.0631 -0.4984
   74CHL1  H23A 6642   5.018   2.624   5.047 -1.6294 -0.5104  2.0717
   74CHL1  H23B 6643   4.849   2.633   5.001  0.0915  0.7788 -0.2497
   74CHL1   C24 6644   4.886   2.464   5.106 -0.8990  0.6265  0.4480
   74CHL1  H24A 6645   4.829   2.382   5.058 -1.6388  2.4384 -2.0089
   74CHL1  H24B 6646   4.979   2.420   5.147  0.1275  1.5351 -0.8051
   74CHL1   C25 6647   4.815   2.512   5.232  0.4784  0.3198  0.0076
   74CHL1   H25 6648   4.717   2.554   5.203  0.3455 -0.9448 -1.5101
   74CHL1   C26 6649   4.795   2.390   5.325 -0.3480 -0.0290  0.3194
   74CHL1  H26A 6650   4.745   2.313   5.262  0.5626 -0.0898 -0.3543
   74CHL1  H26B 6651   4.880   2.335   5.369 -2.5758 -3.4854  0.7195
   74CHL1  H26C 6652   4.717   2.417   5.399 -0.3084  2.1487 -0.3739
   74CHL1   C27 6653   4.889   2.626   5.307 -0.3303 -0.0626 -0.1656
   74CHL1  H27A 6654   4.899   2.720   5.249 -1.3217  0.5207  0.5699
   74CHL1  H27B 6655   4.831   2.650   5.399  1.2539 -0.8263  1.0730
   74CHL1  H27C 6656   4.984   2.586   5.347 -1.8598 -1.3276  2.4993
   75CHL1    C3 6657   5.945   1.865   3.908  0.1141  0.0635 -0.4646
   75CHL1    H3 6658   5.907   1.969   3.910 -1.5946 -0.5471  0.4647
   75CHL1    O3 6659   6.017   1.849   3.787 -0.2269  0.6360  0.1909
   75CHL1   H3' 6660   5.947   1.862   3.722 -0.3688 -0.4959  0.0858
   75CHL1    C4 6661   6.043   1.832   4.018  0.1521 -0.4849 -0.4674
   75CHL1   H4A 6662   6.095   1.735   4.003  1.7380  0.3828 -0.7566
   75CHL1   H4B 6663   6.120   1.911   4.010 -2.2299  1.9441 -0.9002
   75CHL1    C5 6664   5.974   1.828   4.157 -0.2389 -0.2094 -0.1809
   75CHL1    C6 6665   6.023   1.913   4.256 -0.0735 -0.0475  0.5808
   75CHL1    H6 6666   6.114   1.972   4.234 -0.7853  0.3036 -1.7044
   75CHL1    C7 6667   5.973   1.910   4.397 -0.2678 -0.5223 -0.3455
   75CHL1   H7A 6668   6.054   1.904   4.473  0.3773  0.3359 -0.9551
   75CHL1   H7B 6669   5.920   2.004   4.423  1.2328 -0.1957  1.7871
   75CHL1    C8 6670   5.882   1.786   4.428  0.1796 -0.1117 -0.0084
   75CHL1    H8 6671   5.945   1.695   4.431  0.4087 -0.1286 -2.8720
   75CHL1   C14 6672   5.793   1.806   4.556 -0.5097 -0.4565  0.0122
   75CHL1   H14 6673   5.723   1.891   4.545 -0.7460 -0.1944  2.9627
   75CHL1   C15 6674   5.882   1.853   4.678 -0.1992 -1.0039 -0.2375
   75CHL1  H15A 6675   5.979   1.802   4.695 -0.4725 -1.3340  0.4222
   75CHL1  H15B 6676   5.901   1.962   4.685 -0.9997 -0.9385  1.4128
   75CHL1   C16 6677   5.787   1.814   4.797 -0.1107  0.1796 -0.0183
   75CHL1  H16A 6678   5.835   1.744   4.869 -1.5559 -1.7898 -0.8839
   75CHL1  H16B 6679   5.749   1.907   4.844 -2.4751 -0.0209 -1.3825
   75CHL1   C17 6680   5.666   1.735   4.737 -0.2056  0.0961 -0.2426
   75CHL1   H17 6681   5.595   1.817   4.711 -1.1513 -1.2062 -1.9749
   75CHL1   C13 6682   5.708   1.684   4.601  0.0275  0.0907  1.0025
   75CHL1   C18 6683   5.789   1.554   4.624 -0.0385  0.0138 -0.2488
   75CHL1  H18A 6684   5.719   1.468   4.625 -0.2271  0.1700  0.5218
   75CHL1  H18B 6685   5.861   1.539   4.541 -0.5794 -1.6415 -0.4717
   75CHL1  H18C 6686   5.856   1.553   4.713  0.1880  0.9881 -0.4059
   75CHL1   C12 6687   5.612   1.663   4.480  0.5282 -0.0433  0.2357
   75CHL1  H12A 6688   5.541   1.583   4.509  1.5825 -1.2797 -0.4623
   75CHL1  H12B 6689   5.559   1.760   4.471  2.4819  1.1270  0.5865
   75CHL1   C11 6690   5.682   1.642   4.343 -0.4710  0.4737  0.4227
   75CHL1  H11A 6691   5.737   1.547   4.357 -1.0524 -0.1571 -1.3786
   75CHL1  H11B 6692   5.608   1.626   4.262  1.6850 -2.1265 -1.2242
   75CHL1    C9 6693   5.781   1.758   4.314 -0.6669  0.2214  0.0631
   75CHL1    H9 6694   5.724   1.851   4.297  0.6923  0.7872 -1.6831
   75CHL1   C10 6695   5.852   1.736   4.175 -0.0597 -0.5556 -0.9935
   75CHL1   C19 6696   5.917   1.602   4.166 -0.4152  0.7254 -0.2142
   75CHL1  H19A 6697   5.833   1.533   4.140 -1.6005  1.5725  1.2143
   75CHL1  H19B 6698   5.972   1.585   4.071 -0.8787 -1.1101 -0.1937
   75CHL1  H19C 6699   5.980   1.562   4.248  0.0447  0.4313 -0.7048
   75CHL1    C1 6700   5.755   1.760   4.055  0.3877  0.6004  0.2460
   75CHL1   H1A 6701   5.678   1.681   4.043  2.0539 -1.0291 -0.2625
   75CHL1   H1B 6702   5.706   1.859   4.063 -2.2219  0.1243 -5.1715
   75CHL1    C2 6703   5.827   1.767   3.914 -0.2025  0.6023  0.0229
   75CHL1   H2A 6704   5.752   1.812   3.845 -0.1700  0.3438 -0.1824
   75CHL1   H2B 6705   5.856   1.665   3.878  0.1638  0.3471  1.0133
   75CHL1   C20 6706   5.605   1.639   4.843 -0.2092 -0.1604 -0.1959
   75CHL1   H20 6707   5.686   1.565   4.858  0.6308  0.7355 -0.2185
   75CHL1   C21 6708   5.482   1.566   4.787  0.1248  0.1214 -0.2486
   75CHL1  H21A 6709   5.416   1.650   4.756  0.8746 -0.0911 -2.6702
   75CHL1  H21B 6710   5.435   1.511   4.872  1.2163  0.2915  0.4814
   75CHL1  H21C 6711   5.513   1.509   4.697  1.0150 -1.4187  1.0003
   75CHL1   C22 6712   5.571   1.708   4.976 -0.1488  0.2966 -0.8795
   75CHL1  H22A 6713   5.648   1.784   5.000  0.4932 -0.6249  0.0699
   75CHL1  H22B 6714   5.470   1.755   4.970 -0.9208 -0.8249  1.7815
   75CHL1   C23 6715   5.581   1.607   5.093 -0.3464 -0.2309 -0.4670
   75CHL1  H23A 6716   5.492   1.542   5.077  0.3034 -1.2863  0.0961
   75CHL1  H23B 6717   5.669   1.540   5.079  0.4134  0.2443  1.6550
   75CHL1   C24 6718   5.599   1.682   5.216  0.6272 -0.1741 -0.7216
   75CHL1  H24A 6719   5.607   1.612   5.302 -3.0039  2.0147  1.7322
   75CHL1  H24B 6720   5.688   1.748   5.221  1.1132 -0.8995  0.9793
   75CHL1   C25 6721   5.483   1.774   5.251  0.4474  0.3593  0.0309
   75CHL1   H25 6722   5.455   1.840   5.166 -0.2577  0.1174  0.0768
   75CHL1   C26 6723   5.357   1.702   5.289 -0.8166 -0.4625 -0.3188
   75CHL1  H26A 6724   5.278   1.775   5.315 -0.2889  1.0091 -2.5368
   75CHL1  H26B 6725   5.331   1.644   5.198 -0.0982  0.5216 -1.1718
   75CHL1  H26C 6726   5.377   1.633   5.374 -0.8467  0.7846  0.7223
   75CHL1   C27 6727   5.530   1.880   5.351  0.1079  0.3522 -0.2636
   75CHL1  H27A 6728   5.553   1.972   5.294 -1.3148  0.8246 -0.1308
   75CHL1  H27B 6729   5.451   1.906   5.425 -0.5173  1.4988 -1.2939
   75CHL1  H27C 6730   5.624   1.848   5.402  0.9229 -0.2313 -2.0671
   76CHL1    C3 6731   3.026   0.374   4.296  0.0675  0.1296 -0.0575
   76CHL1    H3 6732   2.922   0.392   4.331  0.4297  0.4072  0.8994
   76CHL1    O3 6733   3.033   0.297   4.174  0.2971 -0.3646  0.6471
   76CHL1   H3' 6734   3.124   0.309   4.147 -0.1883  2.3587 -0.0103
   76CHL1    C4 6735   3.093   0.507   4.255  0.9962 -0.2514  0.2324
   76CHL1   H4A 6736   3.199   0.497   4.223  1.6883  1.6734  1.7535
   76CHL1   H4B 6737   3.046   0.563   4.171 -1.8607  0.0276  1.8714
   76CHL1    C5 6738   3.085   0.590   4.379 -0.2117 -0.0894  0.0352
   76CHL1    C6 6739   3.016   0.707   4.384  0.3216  0.4303  0.5488
   76CHL1    H6 6740   2.968   0.750   4.295  1.9200  0.9173 -0.1240
   76CHL1    C7 6741   3.018   0.793   4.503 -0.2816 -0.9146 -0.4608
   76CHL1   H7A 6742   3.028   0.902   4.484 -0.6824 -0.6156  0.9251
   76CHL1   H7B 6743   2.918   0.788   4.552 -1.1106  0.7983 -1.8707
   76CHL1    C8 6744   3.127   0.770   4.608 -0.0372  0.8447  0.3326
   76CHL1    H8 6745   3.221   0.810   4.564  0.1431  1.5747  1.3433
   76CHL1   C14 6746   3.092   0.847   4.733  0.3862 -0.3455  0.1212
   76CHL1   H14 6747   2.995   0.803   4.765 -1.0544  2.2900 -0.3696
   76CHL1   C15 6748   3.060   1.000   4.723 -0.1018 -0.4042 -0.4292
   76CHL1  H15A 6749   3.143   1.044   4.664  0.2787 -2.0442 -1.1677
   76CHL1  H15B 6750   2.973   1.039   4.666 -1.2755  0.7363  1.9725
   76CHL1   C16 6751   3.061   1.038   4.878 -0.1332  1.4518  0.2018
   76CHL1  H16A 6752   3.112   1.135   4.896 -0.8785  1.9523 -0.3238
   76CHL1  H16B 6753   2.955   1.048   4.912 -0.4277  3.3002 -1.1017
   76CHL1   C17 6754   3.125   0.918   4.955  0.3406 -0.0725  0.0837
   76CHL1   H17 6755   3.041   0.868   5.007 -0.2327  1.2331  0.4618
   76CHL1   C13 6756   3.190   0.827   4.852 -0.0837 -0.4307  0.6905
   76CHL1   C18 6757   3.331   0.880   4.817  0.1568  0.0172  0.4478
   76CHL1  H18A 6758   3.332   0.986   4.786 -1.7129  0.3192  1.2755
   76CHL1  H18B 6759   3.389   0.882   4.912  0.4377  0.0913  0.2751
   76CHL1  H18C 6760   3.382   0.806   4.751 -0.4430 -1.9944  2.1120
   76CHL1   C12 6761   3.194   0.678   4.879  0.0834 -0.3650  0.0578
   76CHL1  H12A 6762   3.275   0.666   4.953 -0.0011  0.7614  0.3563
   76CHL1  H12B 6763   3.091   0.653   4.913 -0.2209 -0.3998 -0.8538
   76CHL1   C11 6764   3.226   0.595   4.754 -0.2228  0.1562  0.1695
   76CHL1  H11A 6765   3.330   0.621   4.727 -0.4696 -0.4845 -1.5181
   76CHL1  H11B 6766   3.222   0.487   4.780  0.0538 -0.2591 -1.4114
   76CHL1    C9 6767   3.134   0.619   4.631  0.0431  0.3645 -0.6416
   76CHL1    H9 6768   3.029   0.593   4.656  0.0527  0.9365  0.0253
   76CHL1   C10 6769   3.164   0.537   4.503  0.8588  0.9597  0.3166
   76CHL1   C19 6770   3.322   0.532   4.477  0.8991 -0.6001 -0.2863
   76CHL1  H19A 6771   3.378   0.619   4.516  1.4565 -0.6866 -0.8794
   76CHL1  H19B 6772   3.357   0.457   4.552 -0.9628 -1.9421 -0.6744
   76CHL1  H19C 6773   3.358   0.497   4.378  1.2591  0.3943 -0.5122
   76CHL1    C1 6774   3.111   0.390   4.527 -0.2195 -0.8379  0.0586
   76CHL1   H1A 6775   3.171   0.347   4.610  1.8702 -0.3904 -1.1647
   76CHL1   H1B 6776   3.007   0.385   4.568 -0.3463 -0.5676 -0.2252
   76CHL1    C2 6777   3.108   0.303   4.403 -0.2821  0.5576  0.0769
   76CHL1   H2A 6778   3.043   0.214   4.419 -4.0444  2.9589 -0.6263
   76CHL1   H2B 6779   3.212   0.275   4.375 -1.0551 -2.5173 -0.0459
   76CHL1   C20 6780   3.214   0.968   5.074 -0.8108 -0.5691 -0.0882
   76CHL1   H20 6781   3.297   1.029   5.032  0.0916 -0.1526  2.1923
   76CHL1   C21 6782   3.289   0.854   5.157  0.3314 -0.0555 -0.4236
   76CHL1  H21A 6783   3.368   0.806   5.095  1.5503  0.5704  0.5888
   76CHL1  H21B 6784   3.215   0.774   5.180  0.5617 -1.1050 -2.9377
   76CHL1  H21C 6785   3.325   0.892   5.255 -2.2461 -2.2929  1.5670
   76CHL1   C22 6786   3.141   1.065   5.175  0.8584 -0.1368  0.0751
   76CHL1  H22A 6787   3.228   1.101   5.234  0.8120  0.1537 -0.0351
   76CHL1  H22B 6788   3.092   1.149   5.122 -0.5074 -0.5223  0.6956
   76CHL1   C23 6789   3.048   0.990   5.271  0.3162  0.2924 -0.0916
   76CHL1  H23A 6790   2.977   0.931   5.210 -0.7005  1.5697 -0.1825
   76CHL1  H23B 6791   3.101   0.912   5.329  0.9866  0.4405 -0.4887
   76CHL1   C24 6792   2.964   1.079   5.364 -0.4088 -0.2412 -0.4709
   76CHL1  H24A 6793   2.907   1.147   5.298  0.2426  0.4452 -0.3340
   76CHL1  H24B 6794   2.886   1.027   5.423  0.2256 -0.4858  0.1724
   76CHL1   C25 6795   3.047   1.167   5.462  0.2217 -0.2891 -0.3944
   76CHL1   H25 6796   3.141   1.204   5.417  0.3504  1.6750  1.3344
   76CHL1   C26 6797   2.976   1.300   5.496  0.0287  0.3203 -0.3269
   76CHL1  H26A 6798   2.983   1.371   5.411 -2.7454 -0.4169 -1.2962
   76CHL1  H26B 6799   2.871   1.281   5.529  0.9190 -3.7821  0.6134
   76CHL1  H26C 6800   3.029   1.363   5.570 -0.8947  1.0498 -0.2550
   76CHL1   C27 6801   3.088   1.090   5.588  0.0359  0.5028  0.1795
   76CHL1  H27A 6802   3.142   0.999   5.556 -0.7568  0.1788 -0.2824
   76CHL1  H27B 6803   3.141   1.150   5.665 -2.0951  2.6913  0.0819
   76CHL1  H27C 6804   2.999   1.047   5.639 -1.6252 -0.4481 -3.2048
   77SOPE     N 6805   2.329   6.293   7.450  0.0056 -1.2201 -0.2219
   77SOPE   HN1 6806   2.332   6.379   7.391  1.0649 -0.6763  0.5931
   77SOPE   HN2 6807   2.238   6.297   7.499 -0.0544 -0.5555 -0.3724
   77SOPE   HN3 6808   2.399   6.307   7.526  0.7897 -3.1441 -0.5452
   77SOPE   C12 6809   2.359   6.175   7.361  0.3058  0.0071 -0.2266
   77SOPE  H12A 6810   2.293   6.182   7.272  0.2211  0.1952 -0.1491
   77SOPE  H12B 6811   2.340   6.084   7.423 -1.0792  0.8262  0.6200
   77SOPE   C11 6812   2.502   6.190   7.313 -0.2647 -0.1824  0.0572
   77SOPE  H11A 6813   2.518   6.284   7.255 -0.3431  0.1156  0.5131
   77SOPE  H11B 6814   2.508   6.113   7.233 -1.6898  0.4745 -0.7068
   77SOPE     P 6815   2.679   6.052   7.447 -0.2174 -0.0078  0.3793
   77SOPE   O13 6816   2.587   5.947   7.483  0.3963  0.3298 -0.2830
   77SOPE   O14 6817   2.789   6.075   7.540 -0.0676 -0.1462 -0.3067
   77SOPE   O12 6818   2.602   6.184   7.415  0.1008 -0.1194 -0.2622
   77SOPE   O11 6819   2.744   6.023   7.303  0.5327 -0.1235 -0.0513
   77SOPE    C1 6820   2.834   6.119   7.244 -0.0004 -0.3212 -0.5354
   77SOPE    HA 6821   2.928   6.115   7.304  1.0159 -0.2609 -2.0425
   77SOPE    HB 6822   2.800   6.224   7.248  0.2622 -0.2746  1.1034
   77SOPE    C2 6823   2.883   6.083   7.098  0.5938 -0.1206 -0.4230
   77SOPE    HS 6824   2.942   6.171   7.062  0.6998  0.4340  1.0169
   77SOPE   O21 6825   2.768   6.047   7.016 -0.1495  0.3224 -0.2874
   77SOPE   C21 6826   2.704   6.142   6.975  0.7310  0.2469  0.1785
   77SOPE   O22 6827   2.726   6.264   6.988 -0.3549  0.6682  0.3457
   77SOPE   C22 6828   2.573   6.096   6.920 -0.5671  0.3894 -0.7241
   77SOPE   H2R 6829   2.510   6.185   6.905 -2.4046 -0.3945  1.7388
   77SOPE   H2S 6830   2.515   6.038   6.995  2.2766 -1.3408  0.3137
   77SOPE    C3 6831   2.972   5.954   7.106  0.6216  0.1693  0.5932
   77SOPE    HX 6832   2.907   5.872   7.145 -2.7180  1.7489 -1.1965
   77SOPE    HY 6833   3.061   5.984   7.165 -1.2048  0.1482  3.5319
   77SOPE   O31 6834   3.020   5.920   6.971 -0.4625 -0.1991 -0.1999
   77SOPE   C31 6835   2.970   5.812   6.912 -0.1514  0.1934  0.7676
   77SOPE   O32 6836   2.871   5.752   6.952  0.2325 -0.1457 -0.2931
   77SOPE   C32 6837   3.047   5.770   6.790 -0.3933 -0.1050  0.6638
   77SOPE   H2X 6838   3.152   5.753   6.824  0.3567  1.0486 -0.9775
   77SOPE   H2Y 6839   3.059   5.857   6.723 -1.5865 -0.4247  0.0171
   77SOPE   C23 6840   2.592   6.001   6.803  0.3460 -0.2756  0.2470
   77SOPE   H3R 6841   2.492   5.970   6.766  0.4435  2.3832 -2.6796
   77SOPE   H3S 6842   2.647   5.908   6.830 -1.2857 -1.2604  0.2835
   77SOPE   C24 6843   2.667   6.044   6.678 -0.3078 -0.8155 -0.0899
   77SOPE   H4R 6844   2.642   6.145   6.638 -1.1434 -0.1316  1.9827
   77SOPE   H4S 6845   2.772   6.061   6.711 -0.0966 -2.5800  0.2297
   77SOPE   C25 6846   2.665   5.931   6.571 -0.4383 -0.2642  0.1634
   77SOPE   H5R 6847   2.693   5.835   6.619  1.1663 -1.1376 -2.3531
   77SOPE   H5S 6848   2.560   5.920   6.536 -0.3590 -0.5218  0.0052
   77SOPE   C26 6849   2.763   5.967   6.469  0.2974 -0.3306  0.3983
   77SOPE   H6R 6850   2.751   6.071   6.434  2.5037  0.2711  1.2394
   77SOPE   H6S 6851   2.859   5.959   6.525  1.0662  1.9609 -0.4780
   77SOPE   C27 6852   2.773   5.875   6.341 -0.0523  0.2463  0.2618
   77SOPE   H7R 6853   2.788   5.773   6.383  0.7299  0.5668  0.8084
   77SOPE   H7S 6854   2.680   5.881   6.281 -0.1052  1.8377  0.4480
   77SOPE   C28 6855   2.889   5.919   6.254  0.1253 -0.4287  0.2139
   77SOPE   H8R 6856   2.868   6.019   6.211  3.3606  1.6809  3.0028
   77SOPE   H8S 6857   2.977   5.948   6.316  0.0539  2.0377 -0.7245
   77SOPE   C29 6858   2.921   5.809   6.154 -0.0600  0.2553 -0.1709
   77SOPE   H91 6859   3.018   5.761   6.170 -1.1681 -1.9395  0.4231
   77SOPE  C210 6860   2.851   5.773   6.042  0.6374 -0.0539  0.6505
   77SOPE  H101 6861   2.901   5.703   5.974  0.0653  0.6068 -0.4866
   77SOPE  C211 6862   2.720   5.823   5.974 -0.1236 -0.6112 -0.3002
   77SOPE  H11R 6863   2.680   5.900   6.042 -0.1161 -2.0782  1.4524
   77SOPE  H11S 6864   2.644   5.741   5.977  2.2797 -2.9722  2.4039
   77SOPE  C212 6865   2.748   5.875   5.838  0.4845 -0.2108 -0.0196
   77SOPE  H12R 6866   2.656   5.910   5.787  0.6179  0.8632  0.4535
   77SOPE  H12S 6867   2.783   5.797   5.767  1.7098  2.2940 -2.3311
   77SOPE  C213 6868   2.853   5.985   5.838 -0.5375 -0.5492  1.4751
   77SOPE  H13R 6869   2.952   5.940   5.864  0.1187  0.5710  0.9610
   77SOPE  H13S 6870   2.834   6.051   5.925 -2.9656  0.4755  0.2400
   77SOPE  C214 6871   2.871   6.070   5.714 -0.3576  1.0027 -0.4248
   77SOPE  H14R 6872   2.865   5.997   5.630  1.3035 -0.5847  0.7424
   77SOPE  H14S 6873   2.970   6.117   5.728  0.9235 -1.9628  1.6301
   77SOPE  C215 6874   2.772   6.183   5.697  0.4018 -0.3654 -0.1126
   77SOPE  H15R 6875   2.805   6.260   5.625 -1.8655  0.3335 -0.5068
   77SOPE  H15S 6876   2.766   6.228   5.798  0.4916 -2.1831  0.7523
   77SOPE  C216 6877   2.627   6.152   5.653  0.6042  0.7643 -0.1994
   77SOPE  H16R 6878   2.572   6.248   5.648  0.7174  0.7958 -0.8430
   77SOPE  H16S 6879   2.579   6.097   5.737  0.4895 -1.4967 -1.6418
   77SOPE  C217 6880   2.604   6.078   5.525 -0.0059 -0.0698  0.9554
   77SOPE  H17R 6881   2.647   5.976   5.532  1.5897  0.5291  0.2209
   77SOPE  H17S 6882   2.656   6.139   5.449 -0.8878 -0.2783  0.1665
   77SOPE  C218 6883   2.452   6.073   5.508 -0.3988 -0.1191 -0.5200
   77SOPE  H18R 6884   2.406   6.168   5.542 -1.1127 -0.9045  0.7672
   77SOPE  H18S 6885   2.392   6.013   5.579  0.4495  1.8184  1.9532
   77SOPE  H18T 6886   2.423   6.064   5.401  0.3791  1.1831 -0.8616
   77SOPE   C33 6887   2.991   5.663   6.707 -0.1834  0.3442 -0.2406
   77SOPE   H3X 6888   2.894   5.699   6.668 -0.6022 -0.1233  0.3496
   77SOPE   H3Y 6889   2.968   5.572   6.767  0.2095 -0.8489 -1.8139
   77SOPE   C34 6890   3.085   5.620   6.603 -0.2677  0.3797  0.5741
   77SOPE   H4X 6891   3.138   5.532   6.646 -1.2759 -0.5887 -0.1263
   77SOPE   H4Y 6892   3.148   5.707   6.574  0.4149  1.0169  3.6738
   77SOPE   C35 6893   3.014   5.567   6.479 -0.2706  0.3816  0.2257
   77SOPE   H5X 6894   2.970   5.659   6.436  1.4408  1.3349  0.4466
   77SOPE   H5Y 6895   2.945   5.482   6.500 -0.7311  0.9402  1.0605
   77SOPE   C36 6896   3.114   5.513   6.380 -0.5583  0.4080  0.2574
   77SOPE   H6X 6897   3.176   5.429   6.419 -0.8993 -1.0980 -2.2106
   77SOPE   H6Y 6898   3.181   5.596   6.350 -0.5295  0.5245  0.6386
   77SOPE   C37 6899   3.053   5.451   6.245  0.2606 -0.0216  0.0366
   77SOPE   H7X 6900   2.989   5.537   6.215 -0.2482  0.0262  1.1982
   77SOPE   H7Y 6901   2.977   5.373   6.270 -0.8102  0.4723 -1.5097
   77SOPE   C38 6902   3.146   5.414   6.131  0.0903 -0.1544  0.4326
   77SOPE   H8X 6903   3.213   5.328   6.155 -1.9215 -2.1714 -0.7253
   77SOPE   H8Y 6904   3.211   5.499   6.103  1.7624 -1.3418  0.5932
   77SOPE   C39 6905   3.065   5.359   6.007  0.3724  0.5439  0.1881
   77SOPE   H9X 6906   2.985   5.430   5.978 -1.5549 -1.9737 -1.0004
   77SOPE   H9Y 6907   3.017   5.262   6.031  0.8363  0.4879  0.9395
   77SOPE  C310 6908   3.162   5.335   5.893 -0.3287 -0.2227  0.7680
   77SOPE  H10X 6909   3.266   5.301   5.913  0.3412  2.1336  1.6675
   77SOPE  H10Y 6910   3.182   5.440   5.866  1.8190 -0.4082  1.4387
   77SOPE  C311 6911   3.095   5.277   5.770  0.3793  0.7989  0.8270
   77SOPE  H11X 6912   3.002   5.332   5.743 -1.2451 -1.6524  1.1821
   77SOPE  H11Y 6913   3.055   5.177   5.795  2.5484 -0.5662 -0.8134
   77SOPE  C312 6914   3.191   5.272   5.646 -0.0766  0.0854  0.5903
   77SOPE  H12X 6915   3.286   5.232   5.686 -0.5346 -0.9086  0.7091
   77SOPE  H12Y 6916   3.214   5.377   5.617  0.1184  0.9276  3.5052
   77SOPE  C313 6917   3.136   5.191   5.530  0.5162  0.0329 -0.5648
   77SOPE  H13X 6918   3.027   5.211   5.522  0.4465 -0.5860 -1.3499
   77SOPE  H13Y 6919   3.133   5.088   5.571 -0.4654  0.3669  0.2434
   77SOPE  C314 6920   3.188   5.220   5.393  0.0905  0.2768  0.2323
   77SOPE  H14X 6921   3.122   5.164   5.324 -2.1273  0.8088  1.7849
   77SOPE  H14Y 6922   3.297   5.200   5.386  0.6990  3.4511 -0.9703
   77SOPE  C315 6923   3.189   5.366   5.354 -0.0394 -0.1319  0.1143
   77SOPE  H15X 6924   3.242   5.428   5.431 -0.5381 -1.2156  1.3717
   77SOPE  H15Y 6925   3.088   5.410   5.339  0.6155  0.9656 -1.2762
   77SOPE  C316 6926   3.268   5.384   5.224  0.5232  0.5107  0.0524
   77SOPE  H16X 6927   3.370   5.342   5.215 -0.2688 -1.4050 -0.4826
   77SOPE  H16Y 6928   3.276   5.494   5.204  0.3025  0.0870 -2.8742
   77SOPE  C317 6929   3.200   5.319   5.102  0.4248 -0.0927 -0.3424
   77SOPE  H17X 6930   3.108   5.381   5.091 -1.1513 -2.0189  1.1873
   77SOPE  H17Y 6931   3.158   5.222   5.136  0.5447  0.8101  2.7343
   77SOPE  C318 6932   3.281   5.313   4.976 -0.2995  0.2029  0.4469
   77SOPE  H18X 6933   3.297   5.413   4.931  0.6344 -0.0707  0.1456
   77SOPE  H18Y 6934   3.225   5.257   4.897 -0.4191 -1.8487  1.9009
   77SOPE  H18Z 6935   3.378   5.269   5.005 -0.7691 -0.2370  1.3826
   78SOPE     N 6936   2.878   5.138   7.442  0.1021 -0.3795 -0.8741
   78SOPE   HN1 6937   2.934   5.114   7.358 -2.0371 -2.1845 -1.8967
   78SOPE   HN2 6938   2.836   5.234   7.443  2.6067  0.8052 -0.8054
   78SOPE   HN3 6939   2.942   5.140   7.524  0.8408  1.2764 -1.4460
   78SOPE   C12 6940   2.761   5.053   7.477  0.4639  0.2153 -0.4368
   78SOPE  H12A 6941   2.714   5.100   7.566  0.5627 -0.7330  0.1406
   78SOPE  H12B 6942   2.795   4.947   7.485 -2.9499 -0.8974  1.1742
   78SOPE   C11 6943   2.657   5.068   7.358  0.0823  0.3862 -0.0281
   78SOPE  H11A 6944   2.560   5.034   7.399 -0.6907  1.1067 -1.2030
   78SOPE  H11B 6945   2.705   5.008   7.279  4.4985  1.1817  1.7066
   78SOPE     P 6946   2.508   5.270   7.270 -0.2094  0.0923  0.0825
   78SOPE   O13 6947   2.534   5.352   7.152 -0.4541 -0.1829 -0.2231
   78SOPE   O14 6948   2.455   5.349   7.379  0.7134  0.1944 -0.7737
   78SOPE   O12 6949   2.646   5.205   7.313  0.3492  0.2210  0.1137
   78SOPE   O11 6950   2.408   5.159   7.225  0.0582 -0.0808 -0.7495
   78SOPE    C1 6951   2.278   5.218   7.178  0.0381 -0.0222 -0.1501
   78SOPE    HA 6952   2.292   5.259   7.076  1.5503  0.0151  0.0415
   78SOPE    HB 6953   2.233   5.300   7.238  0.2325 -0.6363  0.8546
   78SOPE    C2 6954   2.154   5.117   7.160 -0.2643 -0.6420 -0.2293
   78SOPE    HS 6955   2.134   5.078   7.262 -0.1363  0.6749  0.3242
   78SOPE   O21 6956   2.200   5.010   7.067  0.6433 -0.5371 -0.5572
   78SOPE   C21 6957   2.130   4.895   7.082  1.3848  0.3438  0.3114
   78SOPE   O22 6958   2.058   4.872   7.173 -0.2672 -0.4955 -0.4776
   78SOPE   C22 6959   2.155   4.805   6.967 -0.1336 -0.4294 -0.0034
   78SOPE   H2R 6960   2.184   4.703   7.002 -2.6561 -0.3956  2.5448
   78SOPE   H2S 6961   2.237   4.859   6.916  0.2728 -1.2046 -0.1861
   78SOPE    C3 6962   2.031   5.193   7.114  0.5262 -0.0917 -0.4198
   78SOPE    HX 6963   2.002   5.269   7.190  1.5826 -1.1570  1.1089
   78SOPE    HY 6964   1.943   5.124   7.113 -0.3266  0.9767 -0.4336
   78SOPE   O31 6965   2.056   5.250   6.983  0.8384  0.0475 -0.4957
   78SOPE   C31 6966   1.983   5.203   6.880  0.2378  0.0241  0.2212
   78SOPE   O32 6967   1.902   5.115   6.885 -0.0233  0.0155 -0.2414
   78SOPE   C32 6968   2.028   5.276   6.752  0.4258 -0.4421  0.1144
   78SOPE   H2X 6969   2.137   5.297   6.751  0.2236  0.9261  2.1259
   78SOPE   H2Y 6970   1.968   5.368   6.738 -0.3279 -0.6186  1.8772
   78SOPE   C23 6971   2.032   4.794   6.875  0.7098  0.6402  0.0766
   78SOPE   H3R 6972   1.965   4.876   6.908 -0.1624 -0.6669  1.7438
   78SOPE   H3S 6973   1.976   4.702   6.901  2.6315 -0.9829 -1.2217
   78SOPE   C24 6974   2.065   4.788   6.727  0.2493 -0.1459  0.8249
   78SOPE   H4R 6975   2.117   4.880   6.691  0.9042 -1.1710 -1.0094
   78SOPE   H4S 6976   2.135   4.702   6.726  3.0114  1.9434  1.4254
   78SOPE   C25 6977   1.947   4.753   6.634 -0.1607  0.0656  0.2248
   78SOPE   H5R 6978   1.905   4.658   6.672 -1.9656  0.1753 -1.3506
   78SOPE   H5S 6979   1.866   4.829   6.637  0.3236  0.7752 -2.1382
   78SOPE   C26 6980   1.990   4.730   6.487  0.3707  0.5893  0.3060
   78SOPE   H6R 6981   2.003   4.826   6.433  1.1526 -0.4136 -1.3723
   78SOPE   H6S 6982   2.087   4.677   6.483  0.4883  0.8259 -0.0056
   78SOPE   C27 6983   1.878   4.651   6.408  0.1034  0.1736  0.6812
   78SOPE   H7R 6984   1.780   4.666   6.459 -1.1910 -3.2709 -0.5272
   78SOPE   H7S 6985   1.873   4.704   6.311  0.1196  1.3088  1.2732
   78SOPE   C28 6986   1.899   4.501   6.404  0.1880  0.6247 -0.4837
   78SOPE   H8R 6987   1.995   4.487   6.350 -1.7273 -0.5011 -3.9168
   78SOPE   H8S 6988   1.919   4.454   6.503  3.3656  0.9529 -0.8845
   78SOPE   C29 6989   1.788   4.431   6.330  0.3946 -0.1397  0.3524
   78SOPE   H91 6990   1.689   4.438   6.377 -0.7768  0.2378 -1.9912
   78SOPE  C210 6991   1.803   4.362   6.214 -0.1368  0.1821 -0.3026
   78SOPE  H101 6992   1.722   4.294   6.183 -1.8526  1.1593  1.8064
   78SOPE  C211 6993   1.924   4.365   6.130  1.0064 -0.8745  0.1608
   78SOPE  H11R 6994   1.966   4.262   6.125  0.8595 -0.9563  0.6198
   78SOPE  H11S 6995   1.998   4.440   6.165  0.1995 -0.0094  0.0692
   78SOPE  C212 6996   1.874   4.408   5.989 -0.5513  0.4707  0.5670
   78SOPE  H12R 6997   1.830   4.510   6.001 -3.0349 -0.7532  2.9158
   78SOPE  H12S 6998   1.793   4.342   5.954 -0.6947  1.8723 -1.9426
   78SOPE  C213 6999   1.974   4.387   5.876  0.4589  0.4617 -0.2274
   78SOPE  H13R 7000   2.006   4.281   5.884  0.7461  0.5872  0.3506
   78SOPE  H13S 7001   2.068   4.444   5.897  1.8964 -1.7761 -0.2422
   78SOPE  C214 7002   1.913   4.418   5.741  0.1048  0.0012  0.7309
   78SOPE  H14R 7003   1.849   4.507   5.761  1.3008  0.9766  0.4015
   78SOPE  H14S 7004   1.864   4.321   5.722 -0.7864  0.4134  0.8822
   78SOPE  C215 7005   2.009   4.447   5.624 -0.0186 -0.2969  0.8129
   78SOPE  H15R 7006   2.090   4.374   5.611  2.2781  2.0723  0.9826
   78SOPE  H15S 7007   2.063   4.543   5.640 -0.4483  0.4852 -1.8219
   78SOPE  C216 7008   1.930   4.463   5.496  0.1896 -0.8449  0.0688
   78SOPE  H16R 7009   1.998   4.518   5.428 -2.9660  2.9465 -0.4520
   78SOPE  H16S 7010   1.837   4.521   5.517  0.9789 -0.3284  2.3487
   78SOPE  C217 7011   1.889   4.326   5.437  0.8198 -0.0526 -0.0001
   78SOPE  H17R 7012   1.833   4.271   5.516  1.2029 -0.6875 -0.1650
   78SOPE  H17S 7013   1.979   4.263   5.420  0.0694 -1.0923 -0.2143
   78SOPE  C218 7014   1.793   4.331   5.318 -0.2091  0.0198 -0.3969
   78SOPE  H18R 7015   1.713   4.408   5.324  1.9730  2.3868  0.3661
   78SOPE  H18S 7016   1.743   4.235   5.295 -0.1571 -0.0538 -0.2093
   78SOPE  H18T 7017   1.851   4.352   5.226 -0.2937 -0.5374 -0.5821
   78SOPE   C33 7018   2.010   5.185   6.633 -0.0354 -0.1096 -0.1670
   78SOPE   H3X 7019   1.901   5.180   6.615  0.2844 -0.2148 -2.2575
   78SOPE   H3Y 7020   2.056   5.086   6.654  2.4612  0.4766 -2.3456
   78SOPE   C34 7021   2.084   5.231   6.510  0.0751 -0.3214  0.0253
   78SOPE   H4X 7022   2.193   5.218   6.528  0.0379  1.7599  2.2282
   78SOPE   H4Y 7023   2.065   5.340   6.503  0.5078 -0.1214  1.7143
   78SOPE   C35 7024   2.031   5.159   6.388 -0.5268 -0.3722  0.0017
   78SOPE   H5X 7025   1.921   5.168   6.393 -0.4220  1.0807 -0.0408
   78SOPE   H5Y 7026   2.053   5.051   6.402  3.0517  0.2937  0.6279
   78SOPE   C36 7027   2.087   5.208   6.255 -0.8343 -0.1273  0.4066
   78SOPE   H6X 7028   2.197   5.216   6.261 -0.7588 -1.5574  1.4318
   78SOPE   H6Y 7029   2.033   5.303   6.234  0.1696  0.0955 -1.3144
   78SOPE   C37 7030   2.043   5.119   6.140 -0.2650  0.3840 -0.1813
   78SOPE   H7X 7031   1.932   5.128   6.139 -0.6784 -3.1735  1.4663
   78SOPE   H7Y 7032   2.068   5.014   6.164 -2.1266  0.4225  2.4614
   78SOPE   C38 7033   2.094   5.166   6.000 -1.0037 -0.6864 -0.5280
   78SOPE   H8X 7034   2.205   5.158   6.002 -0.9038  0.2586  1.8994
   78SOPE   H8Y 7035   2.060   5.271   5.993  0.7535  0.0658  1.3257
   78SOPE   C39 7036   2.030   5.090   5.889 -0.8072  0.1381 -0.2411
   78SOPE   H9X 7037   1.933   5.142   5.879 -0.7236  0.0369 -1.9020
   78SOPE   H9Y 7038   2.011   4.986   5.923 -0.5967  0.0114 -0.4997
   78SOPE  C310 7039   2.110   5.102   5.761 -0.1464  0.3535  0.3871
   78SOPE  H10X 7040   2.184   5.021   5.774 -0.0071  0.2123 -1.0485
   78SOPE  H10Y 7041   2.160   5.200   5.745  1.4125 -0.5782 -0.7443
   78SOPE  C311 7042   2.021   5.075   5.635  0.5024 -0.2634 -0.6011
   78SOPE  H11X 7043   1.922   5.124   5.635 -0.5819 -2.2285  1.6183
   78SOPE  H11Y 7044   1.986   4.969   5.628  0.4670 -0.2121 -1.2184
   78SOPE  C312 7045   2.095   5.093   5.506 -0.0927 -0.4015 -0.2511
   78SOPE  H12X 7046   2.201   5.061   5.514 -0.2661 -0.5778  1.8322
   78SOPE  H12Y 7047   2.088   5.201   5.479 -0.4631  0.1917  2.0363
   78SOPE  C313 7048   2.040   5.024   5.384 -0.0468  0.6331 -0.5114
   78SOPE  H13X 7049   1.958   5.092   5.352 -0.0078  2.3937  2.6656
   78SOPE  H13Y 7050   2.009   4.919   5.401 -1.5319  1.1960  0.4638
   78SOPE  C314 7051   2.158   5.011   5.286  0.0439 -1.0060  0.4657
   78SOPE  H14X 7052   2.236   4.948   5.334  0.0915 -0.2519  1.4189
   78SOPE  H14Y 7053   2.194   5.115   5.272  0.5988 -1.5834 -3.4370
   78SOPE  C315 7054   2.118   4.951   5.150  0.1872  0.4839 -0.4333
   78SOPE  H15X 7055   2.217   4.937   5.101  0.7740  1.7412  0.3462
   78SOPE  H15Y 7056   2.059   5.029   5.097 -0.1351 -1.7245 -3.6645
   78SOPE  C316 7057   2.027   4.829   5.151  0.3495  0.2729 -0.1539
   78SOPE  H16X 7058   1.927   4.855   5.192  0.0992  0.4665 -0.8692
   78SOPE  H16Y 7059   2.073   4.758   5.223 -0.1790 -2.4291 -2.3131
   78SOPE  C317 7060   2.019   4.754   5.014  0.2052 -0.8110  0.2280
   78SOPE  H17X 7061   2.121   4.743   4.973 -0.1065 -2.5484 -0.1486
   78SOPE  H17Y 7062   1.959   4.821   4.948 -0.4498  1.4040  2.8511
   78SOPE  C318 7063   1.954   4.618   5.031  0.4516 -0.5367  0.3589
   78SOPE  H18X 7064   1.846   4.623   5.053  0.3695  0.2145 -0.1545
   78SOPE  H18Y 7065   2.004   4.549   5.102  1.5851  0.2072  0.3069
   78SOPE  H18Z 7066   1.953   4.569   4.931  1.8185  0.0914  0.0104
   79SOPE     N 7067   2.581   3.144   7.422  0.4980 -0.2291 -0.2956
   79SOPE   HN1 7068   2.536   3.237   7.431 -0.3187 -0.4779 -1.6115
   79SOPE   HN2 7069   2.523   3.078   7.366 -0.7459  0.6485 -0.0713
   79SOPE   HN3 7070   2.589   3.100   7.516  0.1385  0.0934 -0.1148
   79SOPE   C12 7071   2.708   3.166   7.349  0.0235 -0.0055  0.1140
   79SOPE  H12A 7072   2.771   3.235   7.409 -0.1157 -1.5073  2.0869
   79SOPE  H12B 7073   2.682   3.212   7.251 -0.0396  0.7264  0.4690
   79SOPE   C11 7074   2.785   3.033   7.319 -0.3646 -0.2381 -0.3593
   79SOPE  H11A 7075   2.823   2.985   7.412  2.8004  1.1349 -0.7958
   79SOPE  H11B 7076   2.878   3.064   7.265 -0.4445 -0.3973 -0.5896
   79SOPE     P 7077   2.749   2.809   7.191  0.2837 -0.1257 -0.0137
   79SOPE   O13 7078   2.635   2.758   7.109  0.9092 -0.2120 -0.6490
   79SOPE   O14 7079   2.790   2.728   7.306  0.1517 -0.5802  0.0274
   79SOPE   O12 7080   2.707   2.956   7.236  0.3833  0.2632  0.1318
   79SOPE   O11 7081   2.866   2.845   7.094  0.0344 -0.1276  0.3900
   79SOPE    C1 7082   2.839   2.940   6.992  0.0235 -0.3032  0.0584
   79SOPE    HA 7083   2.810   3.035   7.040 -0.1336 -0.6976  0.7672
   79SOPE    HB 7084   2.768   2.905   6.914 -0.4704 -0.6689  0.6578
   79SOPE    C2 7085   2.977   2.976   6.926  0.2368  0.6858  0.2461
   79SOPE    HS 7086   2.958   3.068   6.867  0.1140  1.7526  1.8896
   79SOPE   O21 7087   3.017   2.871   6.839  0.1140 -0.0970  0.1760
   79SOPE   C21 7088   2.974   2.880   6.719  0.1426 -0.1398 -0.5296
   79SOPE   O22 7089   2.913   2.971   6.663 -0.5257  0.5308 -0.8536
   79SOPE   C22 7090   3.032   2.769   6.636  0.5813  0.3089  1.1297
   79SOPE   H2R 7091   3.008   2.668   6.675 -1.1864 -1.4255 -3.6968
   79SOPE   H2S 7092   3.143   2.778   6.626  0.7126 -1.5298  0.5821
   79SOPE    C3 7093   3.088   3.001   7.024  0.0181  0.3205 -0.2501
   79SOPE    HX 7094   3.113   2.904   7.072  1.2366 -0.5754 -2.5474
   79SOPE    HY 7095   3.063   3.080   7.099  3.3887  1.6418 -0.3467
   79SOPE   O31 7096   3.196   3.059   6.959 -0.1279 -0.4653 -0.1689
   79SOPE   C31 7097   3.307   2.989   6.943 -0.2609 -0.9935  0.6181
   79SOPE   O32 7098   3.324   2.869   6.961  0.8743  0.0651  0.7477
   79SOPE   C32 7099   3.419   3.082   6.883  0.3120 -0.4100  0.0845
   79SOPE   H2X 7100   3.498   3.012   6.848  0.1854 -1.2964  1.5019
   79SOPE   H2Y 7101   3.459   3.139   6.969 -0.9770  1.4521 -0.4764
   79SOPE   C23 7102   2.968   2.751   6.490  0.2654  0.5359  0.0909
   79SOPE   H3R 7103   2.937   2.852   6.456  3.1618  0.7640 -2.2656
   79SOPE   H3S 7104   2.885   2.676   6.484  1.3871 -0.6470 -1.4205
   79SOPE   C24 7105   3.086   2.721   6.391 -0.7451  0.5068  1.0746
   79SOPE   H4R 7106   3.062   2.756   6.288 -0.3731  2.4832  1.6109
   79SOPE   H4S 7107   3.172   2.788   6.414 -0.3009 -0.1733  1.4085
   79SOPE   C25 7108   3.126   2.575   6.389 -0.4636  0.0509  0.3030
   79SOPE   H5R 7109   3.168   2.549   6.489 -1.1661  1.0605  0.8760
   79SOPE   H5S 7110   3.031   2.520   6.368 -1.8544  1.9274  1.3125
   79SOPE   C26 7111   3.244   2.540   6.302  0.2216  0.3491  0.4428
   79SOPE   H6R 7112   3.226   2.581   6.201 -0.8433 -0.2314  0.3833
   79SOPE   H6S 7113   3.333   2.591   6.345  1.7052 -2.9296  1.6244
   79SOPE   C27 7114   3.276   2.391   6.300  0.2196  0.7687  0.6757
   79SOPE   H7R 7115   3.307   2.354   6.400 -1.7469 -2.3271  0.2717
   79SOPE   H7S 7116   3.180   2.352   6.260  0.7487  0.9827 -0.8558
   79SOPE   C28 7117   3.397   2.364   6.212  0.2191  0.0614  0.4576
   79SOPE   H8R 7118   3.402   2.438   6.130 -1.3202 -0.4565 -0.1314
   79SOPE   H8S 7119   3.492   2.369   6.269  0.5513 -1.4841  0.0913
   79SOPE   C29 7120   3.402   2.222   6.156  0.2676 -0.0739  0.3115
   79SOPE   H91 7121   3.458   2.146   6.213 -0.0898 -0.6182 -0.0575
   79SOPE  C210 7122   3.348   2.193   6.033  0.4322 -0.6683 -0.3145
   79SOPE  H101 7123   3.354   2.087   6.005 -1.3086 -0.9346  0.1890
   79SOPE  C211 7124   3.267   2.285   5.937  0.8592  0.2508 -0.0782
   79SOPE  H11R 7125   3.242   2.379   5.991 -2.2827 -0.7845  0.4866
   79SOPE  H11S 7126   3.166   2.243   5.916  0.3661  0.2311  2.0957
   79SOPE  C212 7127   3.336   2.303   5.805 -0.3980  0.2012 -0.0641
   79SOPE  H12R 7128   3.292   2.371   5.729 -0.1156 -1.4170 -1.7405
   79SOPE  H12S 7129   3.336   2.210   5.744  1.1803  1.3495 -1.9608
   79SOPE  C213 7130   3.485   2.353   5.820  0.0641 -0.4293  0.2654
   79SOPE  H13R 7131   3.539   2.272   5.874  0.2126 -0.3243  0.2757
   79SOPE  H13S 7132   3.479   2.449   5.876 -1.0239  1.6649 -3.0966
   79SOPE  C214 7133   3.554   2.373   5.681 -0.2977 -0.1494  0.2746
   79SOPE  H14R 7134   3.524   2.472   5.640 -2.2791 -1.9056 -2.9015
   79SOPE  H14S 7135   3.518   2.299   5.607  0.0016  0.4380 -0.4698
   79SOPE  C215 7136   3.714   2.355   5.703  0.0892 -0.0854  0.2773
   79SOPE  H15R 7137   3.728   2.266   5.769 -0.3600  0.0403  0.5508
   79SOPE  H15S 7138   3.753   2.449   5.749 -0.0472  0.0532  0.1088
   79SOPE  C216 7139   3.801   2.343   5.577 -0.2992 -0.0813  0.2564
   79SOPE  H16R 7140   3.786   2.433   5.513 -1.7728 -0.1498  0.4713
   79SOPE  H16S 7141   3.768   2.258   5.513  0.8089 -0.2191 -0.1575
   79SOPE  C217 7142   3.947   2.299   5.596 -1.0698 -0.4064 -0.0635
   79SOPE  H17R 7143   3.948   2.210   5.662  2.1363 -0.0057  0.5968
   79SOPE  H17S 7144   4.000   2.378   5.654  0.9843 -3.1458  2.0756
   79SOPE  C218 7145   4.032   2.286   5.466  0.1372 -0.1760 -0.7362
   79SOPE  H18R 7146   4.056   2.388   5.432  0.3115 -0.1370 -0.5029
   79SOPE  H18S 7147   3.977   2.223   5.393  0.7925  0.3849 -1.7285
   79SOPE  H18T 7148   4.123   2.226   5.489  0.9102  0.9082 -0.8777
   79SOPE   C33 7149   3.373   3.178   6.770 -0.5677 -0.0058  0.5845
   79SOPE   H3X 7150   3.459   3.239   6.734 -0.3109  0.3862  1.8097
   79SOPE   H3Y 7151   3.313   3.264   6.806  0.0136  1.4745 -1.7244
   79SOPE   C34 7152   3.313   3.113   6.645  0.9405  0.6199 -0.0907
   79SOPE   H4X 7153   3.203   3.127   6.654  0.6278 -1.2228 -0.7456
   79SOPE   H4Y 7154   3.333   3.005   6.632 -0.1530  0.1157  1.9186
   79SOPE   C35 7155   3.354   3.181   6.513  0.1459 -0.3032  0.3285
   79SOPE   H5X 7156   3.451   3.136   6.481 -0.6624 -1.9751  0.0981
   79SOPE   H5Y 7157   3.359   3.291   6.523  1.3440 -0.2159 -0.9633
   79SOPE   C36 7158   3.250   3.133   6.408 -0.3844  0.1205  0.0726
   79SOPE   H6X 7159   3.149   3.171   6.435 -0.9732 -0.3959 -1.3331
   79SOPE   H6Y 7160   3.245   3.022   6.408 -1.7478  0.1108  2.3808
   79SOPE   C37 7161   3.282   3.200   6.273  0.6604  0.3450  0.2023
   79SOPE   H7X 7162   3.372   3.147   6.236 -0.1324 -0.7497 -0.2073
   79SOPE   H7Y 7163   3.300   3.306   6.304  1.6828 -0.1133  1.2521
   79SOPE   C38 7164   3.168   3.177   6.173 -0.3857 -0.2432  0.2811
   79SOPE   H8X 7165   3.078   3.234   6.206  0.9289  1.1397  1.6764
   79SOPE   H8Y 7166   3.135   3.071   6.176  1.2917 -0.7993  0.1049
   79SOPE   C39 7167   3.213   3.214   6.033 -0.3993  0.0461 -0.1196
   79SOPE   H9X 7168   3.316   3.187   6.003 -0.7664 -1.0201 -0.4587
   79SOPE   H9Y 7169   3.212   3.324   6.018  1.6477 -0.1973 -2.6485
   79SOPE  C310 7170   3.114   3.155   5.931  0.7313 -0.7474  0.6134
   79SOPE  H10X 7171   3.017   3.205   5.951  0.0505 -1.5944 -0.4404
   79SOPE  H10Y 7172   3.098   3.049   5.958 -1.9765 -0.0464  2.1322
   79SOPE  C311 7173   3.151   3.185   5.791  0.3794  0.2331  0.0763
   79SOPE  H11X 7174   3.246   3.131   5.772  0.6127  0.8198 -0.4886
   79SOPE  H11Y 7175   3.157   3.296   5.779  0.7414  0.3956  1.5651
   79SOPE  C312 7176   3.037   3.142   5.688 -0.2910  0.0767  0.6511
   79SOPE  H12X 7177   2.996   3.042   5.712 -3.7346  1.1714 -0.1546
   79SOPE  H12Y 7178   3.080   3.137   5.585 -0.4376  0.5137  0.5643
   79SOPE  C313 7179   2.927   3.242   5.679 -0.2560 -0.2937  0.3030
   79SOPE  H13X 7180   2.975   3.341   5.668  0.5401 -0.8342 -1.5395
   79SOPE  H13Y 7181   2.873   3.236   5.776 -1.7653 -0.9936 -0.5449
   79SOPE  C314 7182   2.823   3.224   5.567 -0.1778 -0.7873  0.3813
   79SOPE  H14X 7183   2.791   3.118   5.569  1.5444 -1.3475 -0.4139
   79SOPE  H14Y 7184   2.872   3.232   5.468 -1.4042 -2.6772 -0.4297
   79SOPE  C315 7185   2.705   3.323   5.579  0.3088  0.5824 -0.7174
   79SOPE  H15X 7186   2.747   3.424   5.599  1.4122 -0.1525  0.9459
   79SOPE  H15Y 7187   2.648   3.283   5.666  1.3999 -0.7103 -0.5622
   79SOPE  C316 7188   2.624   3.336   5.456  0.6210 -0.1470 -1.0541
   79SOPE  H16X 7189   2.585   3.238   5.420 -0.5015  0.2272 -0.8929
   79SOPE  H16Y 7190   2.689   3.370   5.372 -0.5075 -0.2993 -2.0088
   79SOPE  C317 7191   2.508   3.432   5.471 -0.1343 -0.2461 -0.1334
   79SOPE  H17X 7192   2.429   3.388   5.535  1.2537 -0.0636  1.7818
   79SOPE  H17Y 7193   2.449   3.428   5.377  1.5115  0.5696 -1.2498
   79SOPE  C318 7194   2.533   3.579   5.518 -0.2762  0.9178 -0.0558
   79SOPE  H18X 7195   2.436   3.623   5.550  0.1279  2.3681 -0.7206
   79SOPE  H18Y 7196   2.591   3.644   5.448  2.3975  0.3169  1.4645
   79SOPE  H18Z 7197   2.590   3.581   5.613  1.0966  1.1215 -0.8641
   80SOPE     N 7198   1.967   4.924   7.747 -0.4108  0.6633 -0.8084
   80SOPE   HN1 7199   1.940   4.914   7.647  2.5374  0.2096 -1.6565
   80SOPE   HN2 7200   2.024   4.839   7.769  0.5918 -0.0658 -5.2204
   80SOPE   HN3 7201   1.874   4.939   7.791 -0.4773 -1.5095 -0.0651
   80SOPE   C12 7202   2.053   5.036   7.770  0.0905  0.2893  0.5714
   80SOPE  H12A 7203   2.128   5.043   7.688 -1.7641  1.4891 -1.1337
   80SOPE  H12B 7204   2.098   5.041   7.871  2.5564  0.5101 -0.4802
   80SOPE   C11 7205   1.967   5.165   7.748  0.0010  0.1646  0.5118
   80SOPE  H11A 7206   2.019   5.263   7.758  0.4410 -0.1244  1.1253
   80SOPE  H11B 7207   1.888   5.165   7.826 -3.0018 -3.0991 -2.2013
   80SOPE     P 7208   1.957   5.236   7.487  0.0993  0.4261 -0.1496
   80SOPE   O13 7209   2.102   5.201   7.461 -0.9484 -0.8939  0.1502
   80SOPE   O14 7210   1.927   5.378   7.485  0.1567  0.0877 -0.0781
   80SOPE   O12 7211   1.907   5.168   7.617  0.4289 -0.2335  0.2327
   80SOPE   O11 7212   1.867   5.165   7.378 -0.2311  0.0564 -0.9769
   80SOPE    C1 7213   1.736   5.217   7.332 -0.3765  0.1064  0.3862
   80SOPE    HA 7214   1.747   5.288   7.246 -1.2183  1.1217  1.0913
   80SOPE    HB 7215   1.691   5.274   7.416  0.7796  2.4883 -0.4935
   80SOPE    C2 7216   1.628   5.112   7.280 -0.5124 -0.3517 -1.3389
   80SOPE    HS 7217   1.612   5.062   7.378  0.1073  2.4315  0.3032
   80SOPE   O21 7218   1.690   5.020   7.193 -0.5267  0.4192  0.0896
   80SOPE   C21 7219   1.634   4.899   7.190 -0.2524  0.5826  0.5188
   80SOPE   O22 7220   1.544   4.866   7.259 -0.6855  0.2713 -0.0437
   80SOPE   C22 7221   1.714   4.802   7.093  0.1943 -0.1347 -0.6194
   80SOPE   H2R 7222   1.806   4.771   7.148  1.6979 -0.1192 -2.9835
   80SOPE   H2S 7223   1.735   4.872   7.009  0.6252 -0.1644 -0.5403
   80SOPE    C3 7224   1.502   5.179   7.226  0.3673  0.9414 -0.2277
   80SOPE    HX 7225   1.446   5.217   7.314  0.8748  1.7797 -0.2579
   80SOPE    HY 7226   1.427   5.102   7.195 -1.4534  0.0949  5.1052
   80SOPE   O31 7227   1.523   5.268   7.120 -0.3828 -0.4236 -0.0599
   80SOPE   C31 7228   1.522   5.399   7.154 -0.4115  0.6714 -0.8183
   80SOPE   O32 7229   1.509   5.440   7.269 -0.3795 -0.8952 -0.0045
   80SOPE   C32 7230   1.538   5.489   7.041  0.4273 -0.6584  0.0268
   80SOPE   H2X 7231   1.635   5.541   7.058  0.4672 -0.5200 -0.6027
   80SOPE   H2Y 7232   1.457   5.565   7.049  2.2450  1.2305  1.6235
   80SOPE   C23 7233   1.629   4.677   7.040  0.2800 -1.0857  0.2915
   80SOPE   H3R 7234   1.522   4.703   7.031  0.7947  2.2959  2.3076
   80SOPE   H3S 7235   1.636   4.596   7.115 -0.6405 -1.5617 -0.1201
   80SOPE   C24 7236   1.671   4.613   6.901  0.0004  0.2977 -0.0231
   80SOPE   H4R 7237   1.703   4.683   6.821  2.0649  1.0900  1.4150
   80SOPE   H4S 7238   1.763   4.556   6.924 -0.4007  0.3014  1.7458
   80SOPE   C25 7239   1.571   4.506   6.850  0.0182  0.3436  0.1833
   80SOPE   H5R 7240   1.570   4.425   6.925  0.2619 -0.5399 -0.7466
   80SOPE   H5S 7241   1.466   4.543   6.854  0.5854  2.1526 -0.4112
   80SOPE   C26 7242   1.592   4.451   6.704 -0.7785  0.1171  0.0773
   80SOPE   H6R 7243   1.646   4.526   6.642 -0.6668  0.2238  0.3065
   80SOPE   H6S 7244   1.646   4.354   6.711 -1.1415 -0.1608 -0.7802
   80SOPE   C27 7245   1.453   4.404   6.647 -0.7372  0.0608 -0.3741
   80SOPE   H7R 7246   1.417   4.332   6.724 -0.0067 -0.2557 -0.3257
   80SOPE   H7S 7247   1.395   4.499   6.642 -1.4439 -0.3614 -0.3173
   80SOPE   C28 7248   1.459   4.328   6.508  0.0464 -0.6712 -0.8164
   80SOPE   H8R 7249   1.489   4.397   6.427  0.8359  0.6144  0.5109
   80SOPE   H8S 7250   1.538   4.250   6.517  0.2615 -0.4007 -0.2645
   80SOPE   C29 7251   1.329   4.257   6.470  0.7953  0.3570  0.6677
   80SOPE   H91 7252   1.271   4.219   6.555  0.6105 -0.7508  0.0740
   80SOPE  C210 7253   1.271   4.265   6.350 -0.4104  0.9144  0.9787
   80SOPE  H101 7254   1.177   4.213   6.330  0.1170  0.3882 -0.2271
   80SOPE  C211 7255   1.340   4.311   6.220 -0.4773  0.1514 -0.2284
   80SOPE  H11R 7256   1.451   4.308   6.218 -0.4898 -1.2778 -0.1336
   80SOPE  H11S 7257   1.314   4.413   6.185 -0.6125  0.7036  1.3708
   80SOPE  C212 7258   1.297   4.200   6.120 -0.1816  0.3268  0.1135
   80SOPE  H12R 7259   1.186   4.192   6.115 -0.0325 -4.2910  0.3573
   80SOPE  H12S 7260   1.326   4.100   6.159 -1.5566 -0.5840 -1.1093
   80SOPE  C213 7261   1.367   4.214   5.986  1.0242 -0.7647  0.2340
   80SOPE  H13R 7262   1.477   4.217   5.997  1.1234  5.1185  1.0410
   80SOPE  H13S 7263   1.335   4.311   5.941  1.7775 -0.0769  1.1481
   80SOPE  C214 7264   1.335   4.102   5.882  0.3075 -0.5864  0.2545
   80SOPE  H14R 7265   1.226   4.100   5.861  0.2627 -0.0879  0.4153
   80SOPE  H14S 7266   1.352   4.005   5.933  2.3327 -0.6587 -0.4824
   80SOPE  C215 7267   1.420   4.110   5.749 -0.4352  0.2488  0.1610
   80SOPE  H15R 7268   1.442   4.010   5.708 -2.1840 -0.1222  0.0455
   80SOPE  H15S 7269   1.515   4.161   5.776 -0.2088  1.7260 -3.0387
   80SOPE  C216 7270   1.357   4.191   5.636 -0.7399  0.5347  0.4952
   80SOPE  H16R 7271   1.295   4.268   5.687 -0.6403  0.6331  0.4696
   80SOPE  H16S 7272   1.282   4.127   5.584  0.6313  0.9877 -2.1879
   80SOPE  C217 7273   1.441   4.265   5.537 -1.0695  0.5698  0.7097
   80SOPE  H17R 7274   1.378   4.314   5.459  3.1242 -0.2768 -3.6002
   80SOPE  H17S 7275   1.511   4.193   5.491  0.6196  2.6163 -0.0835
   80SOPE  C218 7276   1.537   4.365   5.612  0.2820 -0.3069  0.0361
   80SOPE  H18R 7277   1.483   4.443   5.669  2.2832 -0.0829  1.6965
   80SOPE  H18S 7278   1.601   4.418   5.539  0.2367 -0.2588  0.0317
   80SOPE  H18T 7279   1.603   4.307   5.679  1.0908 -0.4238 -0.8374
   80SOPE   C33 7280   1.548   5.421   6.899  0.0908  0.3464  0.6566
   80SOPE   H3X 7281   1.458   5.358   6.881  0.3430  0.0770  0.3232
   80SOPE   H3Y 7282   1.643   5.364   6.910  0.4956  1.0832  1.0577
   80SOPE   C34 7283   1.579   5.514   6.780 -0.1323 -0.0819  0.2885
   80SOPE   H4X 7284   1.671   5.573   6.801 -0.7059  0.5784  0.9430
   80SOPE   H4Y 7285   1.498   5.582   6.746  3.0262  2.3093 -3.3401
   80SOPE   C35 7286   1.643   5.426   6.666 -0.1192 -0.1977 -1.1481
   80SOPE   H5X 7287   1.562   5.353   6.643 -0.0254 -0.8795  0.5274
   80SOPE   H5Y 7288   1.721   5.367   6.719 -0.5759  1.2792  1.2719
   80SOPE   C36 7289   1.683   5.503   6.538  0.5073  0.4771  0.3793
   80SOPE   H6X 7290   1.763   5.571   6.575  0.1973  1.5012 -0.7538
   80SOPE   H6Y 7291   1.605   5.578   6.512  3.0745  3.3837  0.5457
   80SOPE   C37 7292   1.706   5.418   6.410 -0.2358 -0.0108 -0.3986
   80SOPE   H7X 7293   1.635   5.334   6.398  0.8440 -0.6946 -2.5400
   80SOPE   H7Y 7294   1.810   5.377   6.413 -0.0816  0.4084  0.5521
   80SOPE   C38 7295   1.688   5.507   6.285 -0.4522  0.0015 -0.3465
   80SOPE   H8X 7296   1.760   5.590   6.290  0.7132 -0.9958 -0.1192
   80SOPE   H8Y 7297   1.587   5.554   6.280  0.6580  2.5147 -0.0172
   80SOPE   C39 7298   1.726   5.416   6.169  0.7412  0.2961 -0.8242
   80SOPE   H9X 7299   1.651   5.334   6.172  0.3792  0.6515  0.8993
   80SOPE   H9Y 7300   1.822   5.364   6.192 -0.0875 -1.1223 -0.4158
   80SOPE  C310 7301   1.734   5.483   6.030  0.2494 -0.0194  0.3094
   80SOPE  H10X 7302   1.818   5.554   6.020 -1.1706  1.6663 -0.0572
   80SOPE  H10Y 7303   1.639   5.536   6.007 -1.4423 -3.1594 -0.4899
   80SOPE  C311 7304   1.765   5.385   5.916 -1.0608  0.9549 -0.5487
   80SOPE  H11X 7305   1.687   5.306   5.925 -2.1176  1.8610 -1.4512
   80SOPE  H11Y 7306   1.863   5.336   5.934 -1.9860 -0.2782  1.4613
   80SOPE  C312 7307   1.757   5.453   5.779  0.6000  0.7608  0.5006
   80SOPE  H12X 7308   1.821   5.544   5.782  0.0824  1.1392  0.3908
   80SOPE  H12Y 7309   1.648   5.475   5.769  1.0312  2.6414 -0.5345
   80SOPE  C313 7310   1.815   5.362   5.664 -0.0206  0.1651  0.4152
   80SOPE  H13X 7311   1.760   5.266   5.657 -0.8467  0.6312  0.4704
   80SOPE  H13Y 7312   1.923   5.345   5.686  0.1177 -0.0137 -0.3637
   80SOPE  C314 7313   1.803   5.447   5.531  0.0725  0.1397  0.2274
   80SOPE  H14X 7314   1.866   5.538   5.538  0.6127 -0.2447  0.4499
   80SOPE  H14Y 7315   1.694   5.461   5.514  0.1435  1.6012  0.8294
   80SOPE  C315 7316   1.839   5.384   5.397 -0.0336 -0.2478 -0.0577
   80SOPE  H15X 7317   1.815   5.276   5.401  0.5979 -0.3636  2.6420
   80SOPE  H15Y 7318   1.949   5.378   5.380 -0.3133 -0.5370 -1.9690
   80SOPE  C316 7319   1.771   5.438   5.268 -0.8044  1.0240  0.2176
   80SOPE  H16X 7320   1.827   5.528   5.232 -1.2195  1.7455  1.2984
   80SOPE  H16Y 7321   1.669   5.470   5.298 -2.0045 -1.6029 -0.8564
   80SOPE  C317 7322   1.756   5.335   5.158 -0.0510 -0.7403 -0.1674
   80SOPE  H17X 7323   1.685   5.254   5.185 -2.3808  0.9569 -0.9152
   80SOPE  H17Y 7324   1.849   5.282   5.130 -0.8417 -2.1626 -0.1651
   80SOPE  C318 7325   1.695   5.394   5.034 -0.0346  0.4125  0.4475
   80SOPE  H18X 7326   1.745   5.493   5.024  1.0083 -0.1381  0.0517
   80SOPE  H18Y 7327   1.588   5.420   5.046  0.4237  1.4326  3.1421
   80SOPE  H18Z 7328   1.724   5.333   4.946  0.8903  0.7410  0.5074
   81SOPE     N 7329   5.019   2.000   7.534  0.0218 -0.2671 -0.6952
   81SOPE   HN1 7330   5.051   2.044   7.623  2.1504 -0.5588 -1.2552
   81SOPE   HN2 7331   5.085   2.033   7.461 -0.4661  2.5813  0.0087
   81SOPE   HN3 7332   4.927   2.043   7.512  1.1185  2.4132 -0.3911
   81SOPE   C12 7333   4.999   1.854   7.556  0.0161 -0.0422 -0.0345
   81SOPE  H12A 7334   4.908   1.841   7.618  0.2704 -0.7537  0.1949
   81SOPE  H12B 7335   5.089   1.824   7.614  0.9208  1.0440 -0.8176
   81SOPE   C11 7336   5.016   1.782   7.419  0.4303 -0.9851  0.3915
   81SOPE  H11A 7337   5.119   1.809   7.388 -0.7791  0.2741 -2.9283
   81SOPE  H11B 7338   4.953   1.828   7.340  0.1957 -0.9912  0.5722
   81SOPE     P 7339   4.845   1.579   7.440 -0.1069 -0.0989  0.0536
   81SOPE   O13 7340   4.771   1.630   7.558 -0.4146  0.3639 -0.1358
   81SOPE   O14 7341   4.866   1.435   7.430 -0.7327  0.0169  0.9149
   81SOPE   O12 7342   4.994   1.642   7.432 -0.4053  0.2801  0.3289
   81SOPE   O11 7343   4.797   1.642   7.309 -0.1037 -0.1143  0.1771
   81SOPE    C1 7344   4.658   1.643   7.276 -0.0597  0.1545  0.6770
   81SOPE    HA 7345   4.589   1.663   7.361 -1.0579 -1.6252  0.3455
   81SOPE    HB 7346   4.631   1.542   7.238  0.4004 -0.0673  0.9288
   81SOPE    C2 7347   4.627   1.747   7.161 -0.1985  0.0928 -0.0019
   81SOPE    HS 7348   4.519   1.744   7.136  0.3463 -0.8124 -2.5524
   81SOPE   O21 7349   4.721   1.721   7.049  0.6229 -0.1330 -0.0113
   81SOPE   C21 7350   4.672   1.614   6.985 -0.4101 -0.1607  0.7608
   81SOPE   O22 7351   4.562   1.565   7.005  0.0917 -0.1718 -0.2363
   81SOPE   C22 7352   4.772   1.572   6.873 -0.6453  0.5406  0.3896
   81SOPE   H2R 7353   4.803   1.465   6.879 -0.1983  0.6258 -0.2744
   81SOPE   H2S 7354   4.864   1.633   6.881  0.6751 -0.8167 -2.8373
   81SOPE    C3 7355   4.663   1.887   7.205  0.0053  0.9148  0.0896
   81SOPE    HX 7356   4.769   1.886   7.237  0.4222 -2.2392 -1.0314
   81SOPE    HY 7357   4.601   1.915   7.292 -1.3601 -0.6520 -0.3205
   81SOPE   O31 7358   4.642   1.976   7.090  0.1300  0.3542 -0.0304
   81SOPE   C31 7359   4.522   2.025   7.085 -0.3358 -0.2789  0.4393
   81SOPE   O32 7360   4.442   2.020   7.176 -0.2674 -0.3395 -0.3621
   81SOPE   C32 7361   4.490   2.071   6.937  0.1096 -0.1531 -0.4855
   81SOPE   H2X 7362   4.521   1.996   6.860 -1.0898 -2.0710  0.8047
   81SOPE   H2Y 7363   4.534   2.172   6.923 -1.4889  0.6075 -0.2486
   81SOPE   C23 7364   4.702   1.597   6.739 -0.6211 -1.0929  0.7053
   81SOPE   H3R 7365   4.681   1.704   6.721 -0.2845 -1.0752  0.4212
   81SOPE   H3S 7366   4.603   1.548   6.735 -0.3124 -1.8198  1.4976
   81SOPE   C24 7367   4.794   1.544   6.619 -0.5852  0.2778  0.1844
   81SOPE   H4R 7368   4.884   1.609   6.614  0.4839 -1.2454 -2.0979
   81SOPE   H4S 7369   4.830   1.439   6.628  0.7879  0.5423 -1.5936
   81SOPE   C25 7370   4.724   1.566   6.487  0.1979 -0.0172 -0.2097
   81SOPE   H5R 7371   4.644   1.490   6.477  0.8251 -0.7051 -0.0834
   81SOPE   H5S 7372   4.669   1.662   6.495  1.0597  0.3222  2.4274
   81SOPE   C26 7373   4.816   1.556   6.367  0.3273 -0.2709 -0.5610
   81SOPE   H6R 7374   4.886   1.643   6.370 -0.3139  0.2379  0.2573
   81SOPE   H6S 7375   4.870   1.459   6.364  0.4874 -0.1916 -0.2891
   81SOPE   C27 7376   4.732   1.560   6.244 -0.4883  0.4363 -0.3277
   81SOPE   H7R 7377   4.664   1.473   6.254  0.1880  0.0171  0.7566
   81SOPE   H7S 7378   4.666   1.649   6.239  0.6190  1.2258 -1.6696
   81SOPE   C28 7379   4.810   1.535   6.108 -0.1679  0.3977  0.4161
   81SOPE   H8R 7380   4.865   1.439   6.113 -0.1523  0.3952  0.1938
   81SOPE   H8S 7381   4.731   1.515   6.032 -0.1907  1.5762  0.1017
   81SOPE   C29 7382   4.912   1.648   6.079 -0.7798  0.2526  0.5482
   81SOPE   H91 7383   4.963   1.692   6.166  0.4825 -1.6049  0.7826
   81SOPE  C210 7384   4.924   1.712   5.957  0.2345  0.5681 -0.6484
   81SOPE  H101 7385   4.988   1.801   5.953  1.1595 -0.0104  0.6189
   81SOPE  C211 7386   4.841   1.686   5.829  0.1702  0.3067 -0.8823
   81SOPE  H11R 7387   4.740   1.728   5.846 -0.9756 -2.7183  0.6659
   81SOPE  H11S 7388   4.830   1.580   5.798  0.6768  0.4786 -1.7016
   81SOPE  C212 7389   4.916   1.746   5.709  0.5647 -0.4851 -0.2969
   81SOPE  H12R 7390   5.005   1.684   5.685  2.8292  1.7561  1.7159
   81SOPE  H12S 7391   4.940   1.851   5.737 -0.2657 -0.1081 -0.9703
   81SOPE  C213 7392   4.816   1.768   5.590 -0.9840  0.3335  0.6223
   81SOPE  H13R 7393   4.755   1.678   5.567  0.1166 -0.6167  1.3229
   81SOPE  H13S 7394   4.887   1.777   5.505 -1.0363 -2.3866  0.1925
   81SOPE  C214 7395   4.719   1.885   5.593  0.5732 -0.0578  0.2998
   81SOPE  H14R 7396   4.753   1.979   5.640  0.8137 -0.4082  0.8415
   81SOPE  H14S 7397   4.627   1.854   5.647  0.1504 -0.1616 -0.4713
   81SOPE  C215 7398   4.678   1.925   5.453 -0.1801 -0.1985  0.6038
   81SOPE  H15R 7399   4.652   1.832   5.399 -0.3607  0.6099 -0.7353
   81SOPE  H15S 7400   4.773   1.961   5.408  0.3967 -3.8378 -1.5495
   81SOPE  C216 7401   4.570   2.034   5.442  0.1519 -0.1304 -0.5140
   81SOPE  H16R 7402   4.468   1.994   5.455  0.0719 -0.0347 -0.8198
   81SOPE  H16S 7403   4.589   2.063   5.336  2.0220 -1.9820 -0.7760
   81SOPE  C217 7404   4.591   2.156   5.537 -0.6087  0.3781  0.0501
   81SOPE  H17R 7405   4.694   2.193   5.520  0.5062 -1.8038  1.6135
   81SOPE  H17S 7406   4.579   2.122   5.642 -1.1551  2.0743  0.5759
   81SOPE  C218 7407   4.486   2.262   5.516 -0.3645  0.3847  0.1001
   81SOPE  H18R 7408   4.449   2.252   5.412  0.9572 -2.6533 -0.1727
   81SOPE  H18S 7409   4.526   2.365   5.524 -0.8152  0.6728 -1.0380
   81SOPE  H18T 7410   4.398   2.257   5.584 -0.7775  0.6883 -0.4057
   81SOPE   C33 7411   4.341   2.097   6.913  0.1207 -0.0912 -0.2483
   81SOPE   H3X 7412   4.278   2.174   6.963 -2.7278 -1.3627 -1.6374
   81SOPE   H3Y 7413   4.285   2.007   6.949  0.9553 -0.4719  0.1157
   81SOPE   C34 7414   4.324   2.114   6.762 -0.1591  0.3215 -0.6869
   81SOPE   H4X 7415   4.365   2.022   6.716  1.3138 -0.4328  1.9290
   81SOPE   H4Y 7416   4.372   2.207   6.723  1.3304 -0.2673 -0.3269
   81SOPE   C35 7417   4.174   2.131   6.717  1.2285 -0.6402  0.0413
   81SOPE   H5X 7418   4.151   2.234   6.752  1.3787 -0.8005  0.6265
   81SOPE   H5Y 7419   4.115   2.054   6.772  0.8012 -0.4746 -0.1806
   81SOPE   C36 7420   4.152   2.109   6.569  0.5697 -0.6289  0.6963
   81SOPE   H6X 7421   4.043   2.113   6.552  1.0031  2.3801 -2.6168
   81SOPE   H6Y 7422   4.182   2.007   6.536 -0.7435 -0.8086 -0.0133
   81SOPE   C37 7423   4.202   2.228   6.490 -0.2940 -0.1655 -0.0708
   81SOPE   H7X 7424   4.311   2.246   6.505 -0.2717  0.3965 -0.8489
   81SOPE   H7Y 7425   4.140   2.315   6.519 -0.4571 -0.4517  0.4641
   81SOPE   C38 7426   4.186   2.193   6.340  0.5177  0.1183  0.0343
   81SOPE   H8X 7427   4.210   2.288   6.288 -2.2402  0.7716 -0.2274
   81SOPE   H8Y 7428   4.078   2.166   6.330 -0.2666  2.3244  1.6885
   81SOPE   C39 7429   4.287   2.089   6.294 -0.2143 -0.3137 -0.3956
   81SOPE   H9X 7430   4.275   2.000   6.360 -2.9248 -1.1048 -1.7985
   81SOPE   H9Y 7431   4.386   2.137   6.305  0.6818 -1.8505 -1.4109
   81SOPE  C310 7432   4.268   2.048   6.148  0.0453 -0.0124 -0.5933
   81SOPE  H10X 7433   4.228   2.135   6.092 -0.6853  0.1893  0.2091
   81SOPE  H10Y 7434   4.188   1.970   6.145  0.0695 -0.0686 -0.0184
   81SOPE  C311 7435   4.395   2.001   6.074 -0.0422 -0.1722  0.0166
   81SOPE  H11X 7436   4.410   1.892   6.093  0.0452 -0.1822 -0.1090
   81SOPE  H11Y 7437   4.486   2.055   6.108 -0.4234 -0.4524  1.5695
   81SOPE  C312 7438   4.394   2.022   5.924  0.4773 -0.1772  0.0470
   81SOPE  H12X 7439   4.491   1.996   5.876  0.5487 -0.9345  0.5906
   81SOPE  H12Y 7440   4.388   2.128   5.891 -1.8360 -0.9716 -2.4395
   81SOPE  C313 7441   4.276   1.953   5.853  0.1036 -0.0036 -0.3990
   81SOPE  H13X 7442   4.187   2.013   5.882  0.4086  0.8280 -1.1263
   81SOPE  H13Y 7443   4.264   1.853   5.900  0.8301 -0.3213 -0.8811
   81SOPE  C314 7444   4.286   1.943   5.701  0.2125 -0.4543  0.4296
   81SOPE  H14X 7445   4.361   1.869   5.666 -1.7981 -2.0147 -0.7316
   81SOPE  H14Y 7446   4.318   2.042   5.661  0.8119 -1.1473 -0.8832
   81SOPE  C315 7447   4.152   1.900   5.644  0.2702  0.1779 -0.5680
   81SOPE  H15X 7448   4.075   1.974   5.675 -0.1242  0.7764 -2.7740
   81SOPE  H15Y 7449   4.120   1.805   5.692  1.4118  0.9656  1.9170
   81SOPE  C316 7450   4.140   1.898   5.485  0.1717 -0.3726 -0.3298
   81SOPE  H16X 7451   4.210   1.824   5.441 -0.0643  0.3698 -2.0406
   81SOPE  H16Y 7452   4.142   2.002   5.445  1.4370 -0.1303  0.2964
   81SOPE  C317 7453   4.005   1.843   5.436  0.1260 -0.5289  0.4932
   81SOPE  H17X 7454   3.971   1.774   5.516  1.4539  0.1831  1.6933
   81SOPE  H17Y 7455   4.010   1.784   5.342 -0.0236  0.4634 -0.1548
   81SOPE  C318 7456   3.898   1.949   5.412 -0.2825 -0.7338 -0.1555
   81SOPE  H18X 7457   3.799   1.899   5.408  0.7537 -2.9299  0.0324
   81SOPE  H18Y 7458   3.919   2.007   5.320  1.5111  0.1151  0.7415
   81SOPE  H18Z 7459   3.900   2.021   5.496 -1.2529 -1.1171  0.2165
   82SOPE     N 7460   6.541   1.722   7.941 -0.2856  0.0135  1.0529
   82SOPE   HN1 7461   6.457   1.664   7.923  1.2926 -1.4819 -2.4645
   82SOPE   HN2 7462   6.599   1.681   8.017  0.0187 -2.7339 -0.5316
   82SOPE   HN3 7463   6.505   1.813   7.977 -0.9503 -0.0737  0.6316
   82SOPE   C12 7464   6.628   1.732   7.819 -0.2388  0.8586  0.0597
   82SOPE  H12A 7465   6.717   1.795   7.842  0.1646  0.2340  0.2261
   82SOPE  H12B 7466   6.563   1.770   7.738 -2.1601 -0.6122  0.8333
   82SOPE   C11 7467   6.665   1.592   7.766 -0.2349  0.3059 -0.1309
   82SOPE  H11A 7468   6.760   1.608   7.712 -1.2263  1.5955 -1.6015
   82SOPE  H11B 7469   6.581   1.555   7.703 -0.6226 -1.4616  1.3415
   82SOPE     P 7470   6.784   1.378   7.843  0.2049 -0.2041  0.1060
   82SOPE   O13 7471   6.727   1.268   7.920 -0.1475 -0.2250 -0.1946
   82SOPE   O14 7472   6.929   1.419   7.864  0.0156  0.3809 -0.5838
   82SOPE   O12 7473   6.691   1.509   7.870  0.1820  0.1445  0.0270
   82SOPE   O11 7474   6.768   1.352   7.688 -0.0148  0.7453  0.1807
   82SOPE    C1 7475   6.727   1.224   7.639 -0.2010  0.1188  0.3065
   82SOPE    HA 7476   6.626   1.204   7.679  0.7000 -0.9268  2.2031
   82SOPE    HB 7477   6.784   1.137   7.679 -0.7809  0.0666  1.0368
   82SOPE    C2 7478   6.729   1.217   7.480  0.7720  0.0625 -0.1809
   82SOPE    HS 7479   6.823   1.171   7.442  0.4785 -0.5410 -0.1892
   82SOPE   O21 7480   6.711   1.351   7.433  0.0435 -0.6967 -0.4000
   82SOPE   C21 7481   6.826   1.421   7.435 -0.4150 -0.4918 -0.6361
   82SOPE   O22 7482   6.929   1.379   7.483 -0.4814 -0.2313  0.1934
   82SOPE   C22 7483   6.789   1.567   7.415 -0.3408  0.0244 -0.1205
   82SOPE   H2R 7484   6.885   1.622   7.401 -0.2712  0.1071  0.6626
   82SOPE   H2S 7485   6.740   1.601   7.508  1.1306  0.2328  0.6198
   82SOPE    C3 7486   6.618   1.126   7.433  0.0459 -0.5576 -0.0622
   82SOPE    HX 7487   6.520   1.167   7.467  0.1832 -0.0794 -0.2398
   82SOPE    HY 7488   6.638   1.030   7.487 -2.2720 -0.4001  1.2379
   82SOPE   O31 7489   6.616   1.103   7.289  0.7770  0.2460 -0.2361
   82SOPE   C31 7490   6.514   1.144   7.226  0.3315  0.5348  0.9130
   82SOPE   O32 7491   6.418   1.201   7.269 -0.3847 -0.7325  0.4466
   82SOPE   C32 7492   6.521   1.099   7.079  0.3533 -0.3253 -0.2057
   82SOPE   H2X 7493   6.536   0.989   7.075 -1.0478 -0.5934  0.9554
   82SOPE   H2Y 7494   6.597   1.162   7.028 -1.4877  2.9048  0.7534
   82SOPE   C23 7495   6.692   1.600   7.298  0.3477  0.0946 -0.2667
   82SOPE   H3R 7496   6.659   1.705   7.313  1.4151  0.6208 -1.3786
   82SOPE   H3S 7497   6.609   1.527   7.294  0.3426  0.1448 -2.3808
   82SOPE   C24 7498   6.763   1.607   7.169  0.4694  0.5998 -0.0594
   82SOPE   H4R 7499   6.830   1.694   7.161  2.1061 -0.6772 -0.8256
   82SOPE   H4S 7500   6.816   1.512   7.147  0.9333  0.5787  1.0491
   82SOPE   C25 7501   6.658   1.601   7.053  0.2390  0.1477  0.0830
   82SOPE   H5R 7502   6.561   1.553   7.077  0.0206  1.1185  1.2087
   82SOPE   H5S 7503   6.627   1.699   7.010  0.2893 -0.0425 -0.3907
   82SOPE   C26 7504   6.714   1.512   6.928 -0.1418 -0.3070  0.5145
   82SOPE   H6R 7505   6.804   1.560   6.885  0.4135 -0.0010  1.9748
   82SOPE   H6S 7506   6.742   1.412   6.967  1.0680 -0.6530 -1.1578
   82SOPE   C27 7507   6.612   1.492   6.815 -0.8832  0.1789  0.1381
   82SOPE   H7R 7508   6.541   1.415   6.850  2.1292 -2.9867 -0.0782
   82SOPE   H7S 7509   6.554   1.583   6.790 -0.1741  0.6956  0.3365
   82SOPE   C28 7510   6.677   1.443   6.689  0.4300  0.4201  0.7893
   82SOPE   H8R 7511   6.746   1.521   6.650 -1.2731  2.2496  1.2414
   82SOPE   H8S 7512   6.743   1.356   6.708  0.9099  0.2381 -1.3989
   82SOPE   C29 7513   6.576   1.410   6.579  0.3047  0.6309  0.2662
   82SOPE   H91 7514   6.491   1.349   6.613 -2.6354  4.2012 -0.0947
   82SOPE  C210 7515   6.574   1.440   6.450 -0.1958  0.2972 -0.3018
   82SOPE  H101 7516   6.495   1.395   6.388  0.1302 -0.3994 -0.2094
   82SOPE  C211 7517   6.678   1.515   6.369 -0.7922 -0.5206 -0.0098
   82SOPE  H11R 7518   6.766   1.533   6.435  0.6225 -0.3483 -1.8546
   82SOPE  H11S 7519   6.640   1.613   6.334 -3.9231 -0.8954  1.9463
   82SOPE  C212 7520   6.726   1.432   6.249 -0.7006 -0.0328 -0.2995
   82SOPE  H12R 7521   6.794   1.350   6.281 -2.3189 -1.4807 -0.4304
   82SOPE  H12S 7522   6.800   1.503   6.206  2.5775 -2.8467  0.1937
   82SOPE  C213 7523   6.626   1.388   6.135  0.1432  0.1688 -0.2423
   82SOPE  H13R 7524   6.533   1.350   6.182  1.6807 -2.3123  1.0014
   82SOPE  H13S 7525   6.678   1.301   6.091  0.7782 -0.6531  1.9998
   82SOPE  C214 7526   6.612   1.496   6.030  0.1026  0.2846  0.6495
   82SOPE  H14R 7527   6.712   1.514   5.986  0.4831 -2.7106  0.0383
   82SOPE  H14S 7528   6.578   1.590   6.078  0.6816  2.0701 -2.1879
   82SOPE  C215 7529   6.515   1.471   5.915 -0.6533 -0.3026 -0.2835
   82SOPE  H15R 7530   6.458   1.562   5.891 -0.8878 -0.3940 -0.0754
   82SOPE  H15S 7531   6.442   1.393   5.945 -2.3640  1.3021 -0.1481
   82SOPE  C216 7532   6.574   1.411   5.782 -0.7107 -0.2596 -0.2665
   82SOPE  H16R 7533   6.646   1.333   5.816 -0.5635 -0.4975 -1.1052
   82SOPE  H16S 7534   6.646   1.489   5.748 -0.7749  1.1872  2.6133
   82SOPE  C217 7535   6.473   1.368   5.672 -0.5048  0.9211  0.1906
   82SOPE  H17R 7536   6.529   1.322   5.588  0.1971  2.0024  0.0422
   82SOPE  H17S 7537   6.415   1.455   5.634  0.2019  0.9866 -0.7696
   82SOPE  C218 7538   6.369   1.270   5.721  0.5310  0.3923 -0.4683
   82SOPE  H18R 7539   6.292   1.250   5.644 -0.5746 -2.3306  1.1786
   82SOPE  H18S 7540   6.310   1.312   5.805 -2.1955  0.3115 -2.2389
   82SOPE  H18T 7541   6.414   1.170   5.745 -1.5989 -0.4628  0.1793
   82SOPE   C33 7542   6.378   1.133   7.013  0.0460  0.4169 -0.3382
   82SOPE   H3X 7543   6.367   1.243   7.016 -0.6124  0.3530 -0.2915
   82SOPE   H3Y 7544   6.299   1.089   7.078  0.1631  3.1418  1.8622
   82SOPE   C34 7545   6.372   1.097   6.858 -0.0787 -0.6260 -0.0537
   82SOPE   H4X 7546   6.373   0.986   6.863  0.1453 -0.5812  1.7029
   82SOPE   H4Y 7547   6.461   1.147   6.813  0.6423 -2.2647 -0.5293
   82SOPE   C35 7548   6.248   1.159   6.790  0.5931 -0.3048  0.6995
   82SOPE   H5X 7549   6.248   1.270   6.785  0.6659 -0.2666  1.5175
   82SOPE   H5Y 7550   6.151   1.124   6.832 -0.1527  0.2464 -0.4857
   82SOPE   C36 7551   6.246   1.112   6.639 -0.5876  0.2995  0.1883
   82SOPE   H6X 7552   6.239   1.001   6.631  0.4398  0.0763  1.9476
   82SOPE   H6Y 7553   6.347   1.128   6.595 -0.2014 -3.5901 -0.7073
   82SOPE   C37 7554   6.157   1.190   6.553  0.6223 -1.0527  0.5733
   82SOPE   H7X 7555   6.159   1.301   6.555 -1.6366 -0.8762 -1.5549
   82SOPE   H7Y 7556   6.055   1.170   6.592 -0.1618  0.2107 -0.7269
   82SOPE   C38 7557   6.158   1.142   6.404 -0.1921  0.4404 -1.0306
   82SOPE   H8X 7558   6.158   1.033   6.387 -0.5547  0.6310 -2.3720
   82SOPE   H8Y 7559   6.251   1.181   6.358 -0.0943  0.2221 -1.0183
   82SOPE   C39 7560   6.042   1.191   6.327 -0.7751  0.8234  0.3898
   82SOPE   H9X 7561   6.032   1.301   6.339  0.2288  0.9618  0.0256
   82SOPE   H9Y 7562   5.948   1.146   6.365  0.7024 -0.9848  2.1215
   82SOPE  C310 7563   6.051   1.146   6.178 -1.0285  0.6380  0.1597
   82SOPE  H10X 7564   6.053   1.034   6.175 -0.5299  0.6469 -2.2631
   82SOPE  H10Y 7565   6.148   1.179   6.134 -0.5932 -1.3112 -0.4520
   82SOPE  C311 7566   5.946   1.210   6.095  0.2124 -0.6054  0.2085
   82SOPE  H11X 7567   5.960   1.320   6.097 -1.3556 -0.3968  2.3353
   82SOPE  H11Y 7568   5.845   1.169   6.114  0.2803 -1.5681 -1.3447
   82SOPE  C312 7569   5.974   1.175   5.948  0.2582 -0.2481 -0.7269
   82SOPE  H12X 7570   5.983   1.065   5.944 -1.1971 -0.4242  0.2215
   82SOPE  H12Y 7571   6.070   1.225   5.920  1.1551 -0.7994  1.2112
   82SOPE  C313 7572   5.860   1.221   5.859 -0.6420  0.5141 -0.3042
   82SOPE  H13X 7573   5.853   1.330   5.878 -0.4819  0.3435  0.7742
   82SOPE  H13Y 7574   5.765   1.177   5.895 -0.9071  0.4339 -1.0762
   82SOPE  C314 7575   5.885   1.195   5.712  0.3887  0.1435 -0.5844
   82SOPE  H14X 7576   5.896   1.086   5.697 -0.6594  0.0599 -0.8766
   82SOPE  H14Y 7577   5.974   1.254   5.682 -0.6909  2.2684  0.1677
   82SOPE  C315 7578   5.759   1.236   5.625  0.2449 -0.0193 -0.3511
   82SOPE  H15X 7579   5.754   1.345   5.608 -1.5742  0.0302  0.3354
   82SOPE  H15Y 7580   5.665   1.210   5.678 -0.7135 -0.7439 -2.2688
   82SOPE  C316 7581   5.752   1.177   5.492  0.1525  0.1133  0.2985
   82SOPE  H16X 7582   5.766   1.067   5.490 -0.3435  0.0522 -0.0147
   82SOPE  H16Y 7583   5.837   1.214   5.430  1.3714 -2.9234  0.0048
   82SOPE  C317 7584   5.623   1.224   5.412  0.7912  0.1272  0.1379
   82SOPE  H17X 7585   5.580   1.317   5.455  0.1720  0.3925 -0.9927
   82SOPE  H17Y 7586   5.540   1.151   5.428  0.2825  0.6824  0.0931
   82SOPE  C318 7587   5.635   1.252   5.262  0.1874  0.0497  0.6372
   82SOPE  H18X 7588   5.744   1.260   5.243  0.2748  0.5026  1.2888
   82SOPE  H18Y 7589   5.588   1.351   5.245  0.6950 -0.1120 -2.1773
   82SOPE  H18Z 7590   5.582   1.180   5.196 -0.6537 -0.6373  1.9955
   83SOPE     N 7591   5.993   0.011   3.008  0.0152 -0.6942 -0.3415
   83SOPE   HN1 7592   5.921  -0.061   3.023  0.0232 -0.5937  0.2050
   83SOPE   HN2 7593   5.939   0.086   2.960 -1.3065 -1.3547  0.0937
   83SOPE   HN3 7594   6.056  -0.023   2.933  1.2374 -0.2575  0.4381
   83SOPE   C12 7595   6.045   0.059   3.140 -0.4809  0.1498  0.5882
   83SOPE  H12A 7596   6.109   0.146   3.115  0.7359 -1.3626 -1.9145
   83SOPE  H12B 7597   6.118  -0.019   3.171  0.3689  0.6517 -0.1128
   83SOPE   C11 7598   5.931   0.096   3.239 -0.0257 -0.4042  0.2785
   83SOPE  H11A 7599   5.979   0.120   3.336 -2.0205 -1.1160  1.4984
   83SOPE  H11B 7600   5.872   0.003   3.252  0.7540 -0.7384  1.5778
   83SOPE     P 7601   5.901   0.352   3.223 -0.3220 -0.0958 -0.3080
   83SOPE   O13 7602   5.793   0.450   3.197 -1.1134 -0.1003  0.5555
   83SOPE   O14 7603   6.037   0.380   3.171 -0.0876  0.9289  0.4307
   83SOPE   O12 7604   5.851   0.205   3.189  0.1308 -0.1644  0.4157
   83SOPE   O11 7605   5.923   0.347   3.380  0.3997 -0.1185  0.6970
   83SOPE    C1 7606   5.833   0.316   3.485 -0.1337  0.1908 -0.0849
   83SOPE    HA 7607   5.875   0.240   3.554  0.9034  1.9967  1.3538
   83SOPE    HB 7608   5.741   0.277   3.435  0.9179 -0.6474 -1.4319
   83SOPE    C2 7609   5.798   0.435   3.572  0.5359  0.1540 -0.1813
   83SOPE    HS 7610   5.776   0.511   3.494  2.0783  0.5272 -0.2743
   83SOPE   O21 7611   5.907   0.471   3.644 -0.4959 -0.2214 -1.1594
   83SOPE   C21 7612   5.895   0.592   3.699 -1.0929  0.0572 -0.0481
   83SOPE   O22 7613   5.801   0.666   3.680  0.7501  0.3805 -0.1353
   83SOPE   C22 7614   6.015   0.614   3.788  0.3961  0.5057  0.2111
   83SOPE   H2R 7615   6.069   0.704   3.752  0.7213 -0.7159 -2.5762
   83SOPE   H2S 7616   6.075   0.524   3.767 -3.4327 -2.4369  0.6670
   83SOPE    C3 7617   5.672   0.402   3.656  0.0446  0.3913  0.3808
   83SOPE    HX 7618   5.590   0.386   3.583 -0.3148 -0.8557  1.0360
   83SOPE    HY 7619   5.642   0.491   3.715  2.0717  0.7749  0.8914
   83SOPE   O31 7620   5.682   0.287   3.741  0.9693  0.0460 -0.0429
   83SOPE   C31 7621   5.613   0.181   3.705 -0.2117 -0.3515 -0.5917
   83SOPE   O32 7622   5.546   0.170   3.606 -0.0977  0.2517 -0.4001
   83SOPE   C32 7623   5.618   0.067   3.811 -0.1723  0.1914 -0.0483
   83SOPE   H2X 7624   5.694  -0.007   3.779 -0.9613 -0.6031 -0.1193
   83SOPE   H2Y 7625   5.511   0.035   3.812 -0.3716  0.8012 -0.7254
   83SOPE   C23 7626   5.985   0.623   3.944  0.2209 -0.4199 -0.0092
   83SOPE   H3R 7627   5.935   0.720   3.967  2.6623  0.6576  1.0971
   83SOPE   H3S 7628   6.074   0.615   4.010  0.2096  1.7824  0.3377
   83SOPE   C24 7629   5.886   0.513   3.990 -0.0431 -0.0076 -0.0983
   83SOPE   H4R 7630   5.798   0.499   3.924 -0.6044  2.2989  0.0851
   83SOPE   H4S 7631   5.937   0.414   3.991 -0.6923 -0.4065  2.3590
   83SOPE   C25 7632   5.843   0.530   4.137  0.4479 -0.0030  0.0937
   83SOPE   H5R 7633   5.800   0.632   4.148 -0.4217 -0.2452 -0.7887
   83SOPE   H5S 7634   5.761   0.457   4.159  1.8948 -1.1154  2.0991
   83SOPE   C26 7635   5.959   0.484   4.231  0.0203 -0.8017 -1.1182
   83SOPE   H6R 7636   6.024   0.396   4.210  1.2057 -0.0587 -0.6739
   83SOPE   H6S 7637   6.017   0.578   4.243 -0.6581 -0.5735  0.7255
   83SOPE   C27 7638   5.899   0.471   4.376  0.5007  0.4857  0.5604
   83SOPE   H7R 7639   5.828   0.556   4.377  0.4892  0.5550 -1.7810
   83SOPE   H7S 7640   5.841   0.377   4.377 -0.2533  0.9483  0.9160
   83SOPE   C28 7641   5.994   0.460   4.495 -0.1236 -0.1278 -0.4422
   83SOPE   H8R 7642   6.058   0.371   4.481  0.0260  0.0058 -0.6204
   83SOPE   H8S 7643   6.067   0.543   4.484  1.9857 -2.0127 -1.3176
   83SOPE   C29 7644   5.935   0.467   4.632 -0.4149  0.1232 -0.1751
   83SOPE   H91 7645   5.851   0.536   4.648 -0.5874 -0.0264 -0.4177
   83SOPE  C210 7646   5.964   0.388   4.732 -0.2898  0.8225 -0.9763
   83SOPE  H101 7647   5.913   0.415   4.826  0.2597 -0.9447 -0.1097
   83SOPE  C211 7648   6.066   0.276   4.739 -0.0425 -0.6074  0.0690
   83SOPE  H11R 7649   6.107   0.254   4.638 -1.4916 -1.6000 -0.3265
   83SOPE  H11S 7650   6.016   0.182   4.770 -0.6487 -0.4921 -0.5491
   83SOPE  C212 7651   6.180   0.301   4.839  0.5161  0.1054  0.0328
   83SOPE  H12R 7652   6.254   0.372   4.796  0.2586  0.0799 -0.4667
   83SOPE  H12S 7653   6.243   0.210   4.850  1.9278  1.1474  0.8553
   83SOPE  C213 7654   6.130   0.341   4.981  0.0287 -0.8888 -0.1300
   83SOPE  H13R 7655   6.044   0.279   5.013 -2.3577  1.2278 -1.9823
   83SOPE  H13S 7656   6.079   0.439   4.969  0.8577 -0.4532 -0.2082
   83SOPE  C214 7657   6.239   0.335   5.091 -0.4104  0.6913  0.2681
   83SOPE  H14R 7658   6.323   0.405   5.072 -1.7358  3.8244  4.2419
   83SOPE  H14S 7659   6.273   0.230   5.099 -1.9541 -0.3287 -4.0600
   83SOPE  C215 7660   6.180   0.378   5.229  0.6856  0.1258  0.3138
   83SOPE  H15R 7661   6.110   0.303   5.271  1.9404 -1.8665 -0.9721
   83SOPE  H15S 7662   6.132   0.475   5.204  1.6320  0.3662 -0.6620
   83SOPE  C216 7663   6.269   0.405   5.351  0.3534 -0.0721 -0.0756
   83SOPE  H16R 7664   6.204   0.442   5.434  1.0753 -0.3179  0.6098
   83SOPE  H16S 7665   6.355   0.474   5.334 -0.1890  0.4310 -0.8493
   83SOPE  C217 7666   6.333   0.276   5.395  0.8802 -0.1721  0.1793
   83SOPE  H17R 7667   6.410   0.252   5.319  2.1061  0.6302  1.1218
   83SOPE  H17S 7668   6.270   0.186   5.410 -1.3039  1.0291 -1.2155
   83SOPE  C218 7669   6.404   0.279   5.528 -0.7030  0.0275  0.6594
   83SOPE  H18R 7670   6.489   0.350   5.520 -1.3667  0.6648 -1.6669
   83SOPE  H18S 7671   6.443   0.177   5.548 -0.9488  0.1129  1.6259
   83SOPE  H18T 7672   6.338   0.318   5.609 -1.2757  0.7781 -0.1412
   83SOPE   C33 7673   5.644   0.106   3.955  0.4470 -0.4092  0.3691
   83SOPE   H3X 7674   5.581   0.191   3.991  3.0704  0.3003  3.8101
   83SOPE   H3Y 7675   5.746   0.146   3.974 -0.2451  1.2719  0.7967
   83SOPE   C34 7676   5.640  -0.016   4.048  0.1968  0.4608  0.0099
   83SOPE   H4X 7677   5.712  -0.095   4.018 -0.6632 -1.9540  3.5629
   83SOPE   H4Y 7678   5.534  -0.047   4.043 -0.2808  2.1019 -0.6694
   83SOPE   C35 7679   5.660   0.020   4.198  0.3597 -0.8678  0.0099
   83SOPE   H5X 7680   5.766   0.047   4.218  1.0048 -1.8561 -1.8347
   83SOPE   H5Y 7681   5.632  -0.076   4.248 -0.6228 -0.5282  0.1387
   83SOPE   C36 7682   5.564   0.140   4.231 -0.3615 -0.2806  0.5305
   83SOPE   H6X 7683   5.481   0.146   4.158  1.2158  3.8598 -1.2076
   83SOPE   H6Y 7684   5.614   0.238   4.221  1.5560 -1.2678 -0.0648
   83SOPE   C37 7685   5.507   0.132   4.370 -0.0474 -0.7891  0.0285
   83SOPE   H7X 7686   5.470   0.029   4.386  0.3302 -1.0896 -0.9419
   83SOPE   H7Y 7687   5.410   0.186   4.371  0.2817 -0.1449 -0.9192
   83SOPE   C38 7688   5.616   0.171   4.476  1.0071  0.1951 -0.4019
   83SOPE   H8X 7689   5.634   0.278   4.456 -0.3964  0.7405  1.0529
   83SOPE   H8Y 7690   5.706   0.113   4.447  1.1909  0.4195 -0.2839
   83SOPE   C39 7691   5.577   0.139   4.624  0.4791 -1.1452  0.4955
   83SOPE   H9X 7692   5.577   0.030   4.648 -0.5612 -1.4034 -0.5584
   83SOPE   H9Y 7693   5.473   0.174   4.637  0.5266 -1.0914  0.7338
   83SOPE  C310 7694   5.672   0.206   4.728 -0.7595 -0.2872  0.0303
   83SOPE  H10X 7695   5.692   0.309   4.691  0.3743 -1.0444 -1.5986
   83SOPE  H10Y 7696   5.770   0.154   4.730  0.1964  1.4502  1.8871
   83SOPE  C311 7697   5.613   0.200   4.864  0.3596  0.2544 -0.1297
   83SOPE  H11X 7698   5.570   0.099   4.885  2.5684 -0.4799  1.1473
   83SOPE  H11Y 7699   5.523   0.265   4.856  0.1437  0.5325  3.1549
   83SOPE  C312 7700   5.692   0.270   4.977 -0.3152 -0.4336 -0.7532
   83SOPE  H12X 7701   5.734   0.363   4.934  0.6958 -0.7220 -0.4053
   83SOPE  H12Y 7702   5.774   0.204   5.011  0.3227  0.0427 -1.3481
   83SOPE  C313 7703   5.602   0.304   5.094  0.6643  0.0770 -0.0952
   83SOPE  H13X 7704   5.541   0.223   5.139  2.5669 -1.0079  0.6246
   83SOPE  H13Y 7705   5.525   0.378   5.063 -1.6551 -2.2902 -0.3760
   83SOPE  C314 7706   5.682   0.359   5.216 -0.2688  0.2071  0.5826
   83SOPE  H14X 7707   5.613   0.402   5.292 -2.0529 -0.3760 -0.6345
   83SOPE  H14Y 7708   5.741   0.446   5.178 -1.8327  1.2315  0.3809
   83SOPE  C315 7709   5.776   0.261   5.271  0.2486 -0.3266 -0.2442
   83SOPE  H15X 7710   5.865   0.268   5.205  0.3419 -2.7809 -0.4483
   83SOPE  H15Y 7711   5.740   0.157   5.258 -0.4697 -0.0052 -0.8762
   83SOPE  C316 7712   5.820   0.288   5.413 -0.1063 -0.1467 -0.4706
   83SOPE  H16X 7713   5.850   0.395   5.419  1.8087 -0.7174  0.8193
   83SOPE  H16Y 7714   5.910   0.229   5.440 -1.4148 -1.8293  0.3606
   83SOPE  C317 7715   5.708   0.251   5.508 -0.1979 -0.0816  0.1258
   83SOPE  H17X 7716   5.685   0.143   5.491 -1.6250  0.3763 -1.0210
   83SOPE  H17Y 7717   5.624   0.313   5.471 -1.0106 -1.1542  0.1217
   83SOPE  C318 7718   5.740   0.267   5.653 -0.8132  0.1177 -0.1746
   83SOPE  H18X 7719   5.765   0.370   5.688  1.7216 -0.4499 -0.0533
   83SOPE  H18Y 7720   5.838   0.216   5.664  0.7244  2.5061 -1.7984
   83SOPE  H18Z 7721   5.663   0.230   5.723 -0.3657 -1.1341 -0.3145
   84SOPE     N 7722   4.010   5.813   2.711 -0.4239  0.7629  0.1176
   84SOPE   HN1 7723   4.097   5.778   2.665 -1.7963 -2.5757 -0.2813
   84SOPE   HN2 7724   3.997   5.758   2.798  0.2653  0.6768  0.1692
   84SOPE   HN3 7725   3.937   5.796   2.639  2.0714 -0.5637 -2.3099
   84SOPE   C12 7726   4.029   5.955   2.749 -0.1432 -0.3922  0.4383
   84SOPE  H12A 7727   3.933   6.007   2.769  0.0886  0.3797 -0.4111
   84SOPE  H12B 7728   4.082   6.018   2.675 -0.8786  2.0588  1.8689
   84SOPE   C11 7729   4.103   5.972   2.889  0.6697  0.2775  0.0448
   84SOPE  H11A 7730   4.116   6.082   2.902  0.2252  0.5121 -1.3382
   84SOPE  H11B 7731   4.192   5.909   2.871  0.4634 -0.2190  0.7432
   84SOPE     P 7732   4.077   5.821   3.098  0.2566 -0.1782 -0.0611
   84SOPE   O13 7733   4.144   5.704   3.035  0.5887  0.4927 -0.1478
   84SOPE   O14 7734   3.973   5.792   3.198 -0.3278 -0.2840  0.1761
   84SOPE   O12 7735   4.016   5.914   2.981  0.7494  0.4520 -0.3050
   84SOPE   O11 7736   4.186   5.913   3.156 -0.3021  0.3023 -0.5353
   84SOPE    C1 7737   4.325   5.886   3.176  0.3318  0.1526 -0.1134
   84SOPE    HA 7738   4.384   5.980   3.185 -0.9143  1.5775 -4.4290
   84SOPE    HB 7739   4.363   5.831   3.088  1.4420 -1.1830  1.1340
   84SOPE    C2 7740   4.353   5.786   3.297  0.2241 -0.5668  0.4585
   84SOPE    HS 7741   4.280   5.704   3.282 -0.1393 -0.3025  0.7712
   84SOPE   O21 7742   4.337   5.872   3.418 -0.4589  0.0921  0.6967
   84SOPE   C21 7743   4.243   5.836   3.504  0.3501 -0.1356 -0.2438
   84SOPE   O22 7744   4.178   5.734   3.508  0.5705  0.0066  0.2879
   84SOPE   C22 7745   4.239   5.944   3.615 -0.0558 -0.1247  0.0539
   84SOPE   H2R 7746   4.160   6.014   3.580 -1.5673 -1.1542  1.2412
   84SOPE   H2S 7747   4.340   5.991   3.619  1.0931 -2.3500 -0.7933
   84SOPE    C3 7748   4.493   5.716   3.285  0.1049  0.1366  0.0481
   84SOPE    HX 7749   4.565   5.800   3.293 -0.1069  0.2867  0.4165
   84SOPE    HY 7750   4.499   5.655   3.193  1.2145  1.3908 -0.7592
   84SOPE   O31 7751   4.516   5.629   3.402 -0.1063  0.2962  0.0799
   84SOPE   C31 7752   4.438   5.517   3.405 -1.1234 -0.7967  0.1176
   84SOPE   O32 7753   4.363   5.482   3.316 -0.6492  0.3816 -0.0244
   84SOPE   C32 7754   4.492   5.430   3.520 -0.3457  0.3910  0.2096
   84SOPE   H2X 7755   4.602   5.445   3.524 -0.2027  1.9001 -3.8601
   84SOPE   H2Y 7756   4.472   5.326   3.488 -0.2648  1.0231 -2.1248
   84SOPE   C23 7757   4.190   5.907   3.753  0.5635 -0.1270 -0.2491
   84SOPE   H3R 7758   4.110   5.831   3.758 -0.8835  1.3134 -0.8162
   84SOPE   H3S 7759   4.133   5.997   3.784 -0.3988 -1.1166  0.9901
   84SOPE   C24 7760   4.307   5.857   3.845 -0.0776 -0.5713 -0.1667
   84SOPE   H4R 7761   4.351   5.780   3.778 -1.9809 -1.1527 -0.8120
   84SOPE   H4S 7762   4.375   5.941   3.870  0.9292 -1.5924  0.6465
   84SOPE   C25 7763   4.243   5.807   3.969  0.0921  0.5786  0.1606
   84SOPE   H5R 7764   4.167   5.875   4.012  0.2507  0.5302  0.5241
   84SOPE   H5S 7765   4.198   5.706   3.972  0.1764  0.5492  2.3378
   84SOPE   C26 7766   4.344   5.801   4.079  0.0613 -0.1693 -0.0963
   84SOPE   H6R 7767   4.447   5.774   4.049 -0.4107 -2.2228  0.0215
   84SOPE   H6S 7768   4.349   5.900   4.130 -1.7405 -0.0066 -0.1447
   84SOPE   C27 7769   4.297   5.702   4.188  0.1294 -0.0335 -0.4976
   84SOPE   H7R 7770   4.192   5.731   4.214 -0.6944 -1.7242 -1.7988
   84SOPE   H7S 7771   4.292   5.594   4.162 -1.4151 -0.2437  0.5171
   84SOPE   C28 7772   4.376   5.711   4.322 -0.4825 -0.2051 -0.9488
   84SOPE   H8R 7773   4.343   5.628   4.388  1.1050 -0.7922 -0.8341
   84SOPE   H8S 7774   4.484   5.693   4.302  0.1781  1.1294  1.1243
   84SOPE   C29 7775   4.357   5.843   4.395 -0.1612  0.6262  0.6057
   84SOPE   H91 7776   4.397   5.934   4.348 -0.1698  1.5156  2.2179
   84SOPE  C210 7777   4.290   5.852   4.513  0.5494 -0.8336 -0.1565
   84SOPE  H101 7778   4.297   5.946   4.570  0.2655 -0.5255 -0.6258
   84SOPE  C211 7779   4.222   5.744   4.593 -0.6465  0.3866 -0.8083
   84SOPE  H11R 7780   4.271   5.644   4.590 -0.7378  0.2065  1.5462
   84SOPE  H11S 7781   4.115   5.732   4.565 -1.0271 -0.5405  0.9033
   84SOPE  C212 7782   4.208   5.784   4.740 -0.1854 -0.2214  0.1565
   84SOPE  H12R 7783   4.167   5.887   4.754 -2.2899 -0.8369 -1.0883
   84SOPE  H12S 7784   4.311   5.786   4.783 -0.4024  0.3516  0.6865
   84SOPE  C213 7785   4.121   5.683   4.822 -0.1563 -0.9370  0.3808
   84SOPE  H13R 7786   4.157   5.586   4.781 -1.7838 -0.4656 -2.4193
   84SOPE  H13S 7787   4.018   5.693   4.782  0.9674 -0.2588 -2.5974
   84SOPE  C214 7788   4.143   5.685   4.966  0.6152  0.0010  0.1118
   84SOPE  H14R 7789   4.245   5.643   4.983  0.2402 -2.4019 -2.8579
   84SOPE  H14S 7790   4.079   5.608   5.013 -0.3525 -0.3669 -1.7637
   84SOPE  C215 7791   4.117   5.819   5.036 -0.3370 -0.7548 -0.7110
   84SOPE  H15R 7792   4.013   5.839   5.004 -0.4248 -0.5606 -0.3119
   84SOPE  H15S 7793   4.181   5.903   5.002 -0.3278  0.6902  2.5347
   84SOPE  C216 7794   4.118   5.809   5.192 -1.1621  0.3464 -0.1150
   84SOPE  H16R 7795   4.019   5.766   5.218 -0.3112 -2.1549 -0.7672
   84SOPE  H16S 7796   4.121   5.913   5.230  0.5348  0.2944 -0.0237
   84SOPE  C217 7797   4.226   5.716   5.256 -0.0224  0.0276 -0.9807
   84SOPE  H17R 7798   4.325   5.763   5.236  1.1220 -1.0788  1.6290
   84SOPE  H17S 7799   4.235   5.613   5.215  3.6159 -0.7257  1.2269
   84SOPE  C218 7800   4.201   5.710   5.410  0.0470  0.5139  0.1962
   84SOPE  H18R 7801   4.275   5.645   5.461  0.3904  0.1702 -0.7324
   84SOPE  H18S 7802   4.103   5.658   5.419  0.6362 -0.7216 -0.3184
   84SOPE  H18T 7803   4.208   5.812   5.455  3.1522  1.1182 -1.3767
   84SOPE   C33 7804   4.446   5.481   3.657  0.4415 -0.2559  0.2111
   84SOPE   H3X 7805   4.335   5.483   3.665  0.3205  1.9602 -1.1638
   84SOPE   H3Y 7806   4.463   5.590   3.664 -0.2438 -0.1981  1.1697
   84SOPE   C34 7807   4.511   5.408   3.777  0.3698  0.5397 -0.4765
   84SOPE   H4X 7808   4.622   5.406   3.763  0.5620  1.8034  0.7067
   84SOPE   H4Y 7809   4.479   5.302   3.784  0.7487  0.2971 -1.9420
   84SOPE   C35 7810   4.474   5.491   3.908 -0.2540 -0.4727 -0.1546
   84SOPE   H5X 7811   4.363   5.496   3.909 -0.2930  0.3062 -2.1185
   84SOPE   H5Y 7812   4.512   5.593   3.886  1.5137 -1.1357 -0.3257
   84SOPE   C36 7813   4.520   5.441   4.051 -0.0147  0.5674  0.8965
   84SOPE   H6X 7814   4.472   5.343   4.075 -2.3274  0.9349 -1.7594
   84SOPE   H6Y 7815   4.478   5.514   4.124  0.3902 -0.1552  1.8833
   84SOPE   C37 7816   4.673   5.431   4.078 -0.3438 -0.2245  0.2963
   84SOPE   H7X 7817   4.729   5.525   4.057  0.7409 -1.2071 -1.4414
   84SOPE   H7Y 7818   4.708   5.349   4.012 -0.6491 -1.3714  1.5011
   84SOPE   C38 7819   4.698   5.381   4.223  0.3036 -0.1169  0.1811
   84SOPE   H8X 7820   4.809   5.386   4.232  0.4448 -0.7969 -1.0151
   84SOPE   H8Y 7821   4.655   5.279   4.229 -1.5522  0.6000 -0.2351
   84SOPE   C39 7822   4.646   5.484   4.331 -0.2662 -0.2332 -0.2578
   84SOPE   H9X 7823   4.536   5.467   4.330 -0.5658  1.5915 -0.4294
   84SOPE   H9Y 7824   4.664   5.589   4.301 -2.8124 -0.4363 -2.9828
   84SOPE  C310 7825   4.706   5.452   4.470 -0.6666 -0.0665 -0.8217
   84SOPE  H10X 7826   4.815   5.473   4.466 -0.2914 -1.2456  1.3844
   84SOPE  H10Y 7827   4.698   5.342   4.482  1.2740 -0.0202  1.6781
   84SOPE  C311 7828   4.635   5.518   4.594  0.1378  0.7802 -0.5301
   84SOPE  H11X 7829   4.525   5.511   4.582  0.2052 -0.0157 -0.7455
   84SOPE  H11Y 7830   4.677   5.620   4.608 -1.0373  1.4476 -1.6991
   84SOPE  C312 7831   4.662   5.434   4.722  0.5318 -0.3708 -0.2624
   84SOPE  H12X 7832   4.770   5.446   4.742  0.2278  2.1094  0.1849
   84SOPE  H12Y 7833   4.640   5.325   4.713  1.8265 -0.5579 -1.4791
   84SOPE  C313 7834   4.587   5.506   4.837  0.4034 -0.7573 -0.5914
   84SOPE  H13X 7835   4.479   5.479   4.828  0.4957 -0.8717 -1.5204
   84SOPE  H13Y 7836   4.607   5.615   4.841  1.1061 -0.8400 -1.5825
   84SOPE  C314 7837   4.619   5.452   4.985  0.2710  0.0009 -0.0526
   84SOPE  H14X 7838   4.725   5.472   5.012  1.0186 -1.0910 -1.9955
   84SOPE  H14Y 7839   4.595   5.344   4.982  0.5767 -0.0466 -1.2214
   84SOPE  C315 7840   4.521   5.514   5.096  0.7288 -0.3007  0.1257
   84SOPE  H15X 7841   4.420   5.477   5.069  0.4608  1.6477 -1.8149
   84SOPE  H15Y 7842   4.525   5.624   5.107  0.1173 -0.2322 -0.2847
   84SOPE  C316 7843   4.546   5.442   5.230 -0.6798 -0.1572 -0.1621
   84SOPE  H16X 7844   4.545   5.334   5.206  0.9132 -0.2159 -0.0023
   84SOPE  H16Y 7845   4.463   5.474   5.296  0.0592 -0.1396  0.7682
   84SOPE  C317 7846   4.676   5.473   5.306 -0.6399  0.7056 -0.0107
   84SOPE  H17X 7847   4.672   5.584   5.315 -1.4899  0.8607 -1.9140
   84SOPE  H17Y 7848   4.768   5.441   5.253 -1.3083 -3.1655  0.8616
   84SOPE  C318 7849   4.659   5.412   5.447  0.2106  0.0482 -0.1408
   84SOPE  H18X 7850   4.756   5.423   5.499 -0.4088  1.7935  0.7190
   84SOPE  H18Y 7851   4.632   5.304   5.446  0.3774 -0.0944  2.6065
   84SOPE  H18Z 7852   4.584   5.463   5.511 -0.1555 -0.3643 -0.2416
   85SOPE     N 7853   1.119   0.652   2.953  0.6380  0.1994  0.3629
   85SOPE   HN1 7854   1.126   0.549   2.967 -3.3592 -0.3250 -0.1737
   85SOPE   HN2 7855   1.033   0.694   2.992 -0.2717  0.5757 -1.8541
   85SOPE   HN3 7856   1.120   0.672   2.851 -4.0055 -0.3838 -0.0338
   85SOPE   C12 7857   1.239   0.717   3.011  0.5662 -0.2605 -0.0006
   85SOPE  H12A 7858   1.325   0.661   2.969  1.8660  1.5230  0.1371
   85SOPE  H12B 7859   1.229   0.698   3.120 -1.5804 -1.1747 -0.3065
   85SOPE   C11 7860   1.247   0.858   2.964 -0.0420  0.1782  0.2907
   85SOPE  H11A 7861   1.259   0.857   2.853 -2.9229 -0.0525 -0.1056
   85SOPE  H11B 7862   1.337   0.900   3.013  0.0119  2.0334 -1.2502
   85SOPE     P 7863   1.112   1.027   3.109  0.3003  0.2108  0.0837
   85SOPE   O13 7864   0.981   1.102   3.110 -0.4752  0.1872 -0.1515
   85SOPE   O14 7865   1.234   1.110   3.093  0.3510 -0.1621 -0.4409
   85SOPE   O12 7866   1.124   0.927   2.988 -0.3061 -0.2311  0.4381
   85SOPE   O11 7867   1.128   0.931   3.238  0.4741  0.0465  0.0078
   85SOPE    C1 7868   1.014   0.861   3.288 -0.6908  0.4566  0.4187
   85SOPE    HA 7869   1.053   0.776   3.348 -0.7046  1.7004  2.2709
   85SOPE    HB 7870   0.944   0.826   3.208 -0.9120  1.5692  0.1126
   85SOPE    C2 7871   0.942   0.933   3.412  0.5286  0.4199  0.9246
   85SOPE    HS 7872   0.887   1.023   3.378 -1.2957  0.2559  3.1747
   85SOPE   O21 7873   1.039   0.972   3.507 -0.5405  0.8311 -0.5229
   85SOPE   C21 7874   1.006   1.075   3.584  0.6472  0.3212  0.0062
   85SOPE   O22 7875   0.900   1.142   3.578 -0.0725  0.5613 -0.1385
   85SOPE   C22 7876   1.122   1.109   3.680  0.2843 -0.0266 -0.6360
   85SOPE   H2R 7877   1.212   1.070   3.629  0.6722 -1.1369  0.8237
   85SOPE   H2S 7878   1.118   1.037   3.765  0.1406  0.5018 -0.1893
   85SOPE    C3 7879   0.841   0.842   3.479 -0.2061  0.0685 -0.0516
   85SOPE    HX 7880   0.790   0.786   3.397  0.1059  0.4270 -0.4954
   85SOPE    HY 7881   0.760   0.903   3.525  1.4244 -0.2536  3.5934
   85SOPE   O31 7882   0.895   0.738   3.560  0.0621  0.2896  0.3542
   85SOPE   C31 7883   0.918   0.772   3.685 -0.2154 -0.1182  0.2143
   85SOPE   O32 7884   0.864   0.866   3.738 -0.3970  0.3024 -0.6657
   85SOPE   C32 7885   1.013   0.671   3.744  0.5857 -0.1834  0.0943
   85SOPE   H2X 7886   1.120   0.701   3.738  0.8357 -0.7094  1.5131
   85SOPE   H2Y 7887   0.993   0.573   3.696  1.1470 -0.8417  1.1705
   85SOPE   C23 7888   1.129   1.255   3.722  0.1285 -0.0962  0.1725
   85SOPE   H3R 7889   1.031   1.291   3.761  0.6447  0.1552  1.2871
   85SOPE   H3S 7890   1.163   1.320   3.639  0.2873  0.7775  0.8973
   85SOPE   C24 7891   1.236   1.282   3.825  0.0354 -0.4075  0.5583
   85SOPE   H4R 7892   1.218   1.204   3.903 -1.8310 -0.9305 -0.3182
   85SOPE   H4S 7893   1.337   1.261   3.784  0.5028  1.2364  0.8336
   85SOPE   C25 7894   1.235   1.419   3.887 -0.3856  0.3475  0.1369
   85SOPE   H5R 7895   1.253   1.488   3.801  1.9057  0.2068  0.4425
   85SOPE   H5S 7896   1.134   1.447   3.924 -0.7249  1.3970 -1.4787
   85SOPE   C26 7897   1.335   1.438   3.998 -0.2627 -0.1012  0.1905
   85SOPE   H6R 7898   1.320   1.361   4.076 -0.6426  0.2242  0.4431
   85SOPE   H6S 7899   1.436   1.426   3.952 -0.3489 -0.2154  0.0322
   85SOPE   C27 7900   1.328   1.577   4.072 -0.0087 -0.1557 -0.1384
   85SOPE   H7R 7901   1.431   1.594   4.110  0.2811 -1.0098 -0.5174
   85SOPE   H7S 7902   1.293   1.646   3.992 -1.1354  0.5252  0.9002
   85SOPE   C28 7903   1.226   1.564   4.185  1.1291  0.1593 -0.1827
   85SOPE   H8R 7904   1.133   1.562   4.125 -0.0192  0.6183  1.4926
   85SOPE   H8S 7905   1.242   1.471   4.244 -0.9513 -0.0226  0.1886
   85SOPE   C29 7906   1.206   1.684   4.277 -0.0541 -0.3068 -0.4139
   85SOPE   H91 7907   1.151   1.769   4.233  1.3199  3.1202  3.7867
   85SOPE  C210 7908   1.226   1.690   4.405 -0.1798  0.3359  0.1925
   85SOPE  H101 7909   1.214   1.786   4.457 -0.6421  1.3639 -1.7034
   85SOPE  C211 7910   1.294   1.584   4.491  0.0223  0.1860  0.9863
   85SOPE  H11R 7911   1.400   1.589   4.458  0.3200  0.4577  1.9287
   85SOPE  H11S 7912   1.239   1.490   4.471  0.7080 -0.3249  1.4543
   85SOPE  C212 7913   1.285   1.621   4.637 -0.7092 -0.2296 -0.0385
   85SOPE  H12R 7914   1.301   1.730   4.653 -0.0474 -0.2174 -0.6812
   85SOPE  H12S 7915   1.370   1.566   4.684 -1.7584 -0.8181  1.2311
   85SOPE  C213 7916   1.158   1.593   4.709  0.8286  0.1685 -0.6404
   85SOPE  H13R 7917   1.118   1.494   4.678  2.9479 -0.7246 -0.7559
   85SOPE  H13S 7918   1.074   1.661   4.684 -0.2751 -0.1168  2.0176
   85SOPE  C214 7919   1.171   1.581   4.859 -0.2843  0.3964 -0.4511
   85SOPE  H14R 7920   1.192   1.675   4.915 -2.5848 -1.1644  3.4363
   85SOPE  H14S 7921   1.264   1.523   4.878 -0.3698 -0.4117 -2.3143
   85SOPE  C215 7922   1.053   1.521   4.929  0.2104 -0.3028  0.3470
   85SOPE  H15R 7923   1.012   1.436   4.871 -0.8162 -1.2098  2.3223
   85SOPE  H15S 7924   0.978   1.600   4.952  0.3922  0.3132 -1.0596
   85SOPE  C216 7925   1.087   1.475   5.067 -0.6039 -0.3380 -0.4686
   85SOPE  H16R 7926   1.120   1.559   5.131  2.2969 -2.5377  1.1263
   85SOPE  H16S 7927   1.173   1.405   5.060 -1.8716 -2.2891  2.0216
   85SOPE  C217 7928   0.975   1.400   5.137 -0.5106 -0.3954  0.1526
   85SOPE  H17R 7929   0.936   1.311   5.082 -0.1192  0.0875 -0.9398
   85SOPE  H17S 7930   0.889   1.468   5.154 -1.4695 -2.0187  2.2017
   85SOPE  C218 7931   1.024   1.334   5.274  0.3503 -0.7176 -0.3564
   85SOPE  H18R 7932   1.097   1.251   5.271 -0.0082 -1.1724  2.0858
   85SOPE  H18S 7933   0.935   1.306   5.334  0.1553  0.6903  0.0611
   85SOPE  H18T 7934   1.071   1.411   5.339 -1.5176  0.9491 -0.8694
   85SOPE   C33 7935   0.986   0.638   3.898 -0.1245 -0.5905 -0.1612
   85SOPE   H3X 7936   0.966   0.530   3.914 -1.2777 -0.3850 -0.1845
   85SOPE   H3Y 7937   0.894   0.691   3.931  0.0596  1.1146 -2.2068
   85SOPE   C34 7938   1.094   0.687   3.997  0.1484 -0.0131 -0.3437
   85SOPE   H4X 7939   1.183   0.620   3.994 -1.2701 -2.0073  0.2000
   85SOPE   H4Y 7940   1.052   0.672   4.099 -0.1778 -1.3544 -0.6446
   85SOPE   C35 7941   1.143   0.832   3.979  0.2534 -0.0905 -0.4860
   85SOPE   H5X 7942   1.050   0.889   3.997 -0.7405 -1.3469 -1.4151
   85SOPE   H5Y 7943   1.186   0.839   3.876  3.4835 -1.6243  0.6155
   85SOPE   C36 7944   1.261   0.862   4.077 -0.1120  0.4507  0.7085
   85SOPE   H6X 7945   1.350   0.799   4.053 -1.0415  0.0815 -2.2138
   85SOPE   H6Y 7946   1.227   0.830   4.178  0.0022  3.6755  1.8691
   85SOPE   C37 7947   1.308   1.007   4.082  0.0499 -0.2118  0.0208
   85SOPE   H7X 7948   1.220   1.075   4.091 -0.0674 -0.4123  0.3893
   85SOPE   H7Y 7949   1.346   1.024   3.979 -0.0338  1.0466  0.1828
   85SOPE   C38 7950   1.412   1.049   4.194  0.5836  0.1078  0.0104
   85SOPE   H8X 7951   1.452   1.149   4.167  0.6423 -0.0981 -0.6802
   85SOPE   H8Y 7952   1.500   0.982   4.196  1.4058  1.0527 -1.9293
   85SOPE   C39 7953   1.366   1.046   4.342 -0.4962  0.8321 -0.2443
   85SOPE   H9X 7954   1.450   1.082   4.405  1.0393 -0.2000 -1.6058
   85SOPE   H9Y 7955   1.335   0.941   4.362  0.6191  0.1885 -1.6380
   85SOPE  C310 7956   1.244   1.128   4.369  0.5341  0.0836  0.2465
   85SOPE  H10X 7957   1.154   1.096   4.312  2.0677  0.0171 -2.2819
   85SOPE  H10Y 7958   1.272   1.235   4.351 -0.7474  0.3790 -0.1134
   85SOPE  C311 7959   1.204   1.116   4.519 -0.8162  0.5506  0.0171
   85SOPE  H11X 7960   1.181   1.009   4.542  2.1947 -0.0494  0.5948
   85SOPE  H11Y 7961   1.101   1.155   4.539 -0.1019  0.9200  3.6932
   85SOPE  C312 7962   1.302   1.172   4.612 -0.8325  0.1748 -0.6851
   85SOPE  H12X 7963   1.352   1.259   4.563 -2.1352  1.3105 -0.0446
   85SOPE  H12Y 7964   1.393   1.109   4.628  0.9865  2.9124  0.5451
   85SOPE  C313 7965   1.243   1.217   4.746 -0.3706  0.2233 -0.6900
   85SOPE  H13X 7966   1.145   1.264   4.725 -1.1181 -0.6154  0.7347
   85SOPE  H13Y 7967   1.306   1.285   4.807 -0.3462 -2.2473  2.2863
   85SOPE  C314 7968   1.218   1.091   4.835  0.2992 -0.5507  0.5039
   85SOPE  H14X 7969   1.318   1.060   4.872 -0.2856 -1.8152  1.0732
   85SOPE  H14Y 7970   1.193   1.009   4.765  0.3334  1.4255 -1.9583
   85SOPE  C315 7971   1.110   1.107   4.943  0.1839  0.6118 -0.5854
   85SOPE  H15X 7972   1.036   1.181   4.907  0.0040  1.2096  0.9189
   85SOPE  H15Y 7973   1.159   1.162   5.027 -0.1363  2.1165 -1.3355
   85SOPE  C316 7974   1.034   0.971   4.968 -0.4559  0.1895  0.5354
   85SOPE  H16X 7975   1.112   0.892   4.980 -0.1666  0.3687 -0.1550
   85SOPE  H16Y 7976   0.988   0.946   4.870 -0.6388 -2.4665  1.2134
   85SOPE  C317 7977   0.937   0.969   5.086  0.0023 -0.3839  0.3841
   85SOPE  H17X 7978   0.861   1.044   5.057  1.3873  0.7442 -0.4877
   85SOPE  H17Y 7979   0.995   1.009   5.172  1.2582 -0.3695 -0.4362
   85SOPE  C318 7980   0.877   0.832   5.120 -0.3809 -0.4593  0.0047
   85SOPE  H18X 7981   0.792   0.848   5.190 -0.7572 -2.4129  0.0446
   85SOPE  H18Y 7982   0.955   0.762   5.157  2.0138  0.9922 -2.0046
   85SOPE  H18Z 7983   0.836   0.777   5.033  0.4886  0.4305 -0.9991
   86SOPE     N 7984   3.328   4.983   2.739  0.6191 -0.3333 -0.3375
   86SOPE   HN1 7985   3.311   4.901   2.677  0.9561 -0.3411 -0.4182
   86SOPE   HN2 7986   3.239   5.033   2.757  0.4481 -0.9261  0.5081
   86SOPE   HN3 7987   3.400   5.045   2.698 -0.1375  0.7012 -0.1340
   86SOPE   C12 7988   3.382   4.934   2.874 -0.0800  0.4010  0.0662
   86SOPE  H12A 7989   3.302   4.875   2.926  1.3911  0.5541  2.6541
   86SOPE  H12B 7990   3.399   5.029   2.930  0.9684  1.1578 -1.4890
   86SOPE   C11 7991   3.505   4.846   2.853  0.9222 -1.0787 -0.5811
   86SOPE  H11A 7992   3.535   4.806   2.952 -1.2849  0.4616  0.7718
   86SOPE  H11B 7993   3.575   4.927   2.823 -3.0874  2.7153 -0.6067
   86SOPE     P 7994   3.582   4.621   2.727 -0.5240 -0.2909  0.1914
   86SOPE   O13 7995   3.723   4.661   2.697  0.1305  0.9130  0.1609
   86SOPE   O14 7996   3.517   4.529   2.632  0.3090  0.0030  0.2184
   86SOPE   O12 7997   3.492   4.750   2.761  0.0855  0.2348 -0.4996
   86SOPE   O11 7998   3.591   4.545   2.867  0.2058 -0.1478 -0.1593
   86SOPE    C1 7999   3.478   4.510   2.949 -0.2648  0.0983  0.1821
   86SOPE    HA 8000   3.430   4.417   2.913  2.4350 -0.7255 -1.6028
   86SOPE    HB 8001   3.393   4.581   2.956 -1.6943 -1.6088  0.6093
   86SOPE    C2 8002   3.545   4.473   3.084 -0.0139 -0.0641  0.4667
   86SOPE    HS 8003   3.629   4.402   3.073  0.9095  1.0592  0.1124
   86SOPE   O21 8004   3.439   4.409   3.153 -0.4597  0.7598 -0.2907
   86SOPE   C21 8005   3.471   4.351   3.273 -0.0854 -0.1681 -0.3111
   86SOPE   O22 8006   3.582   4.320   3.316  0.4319 -0.1870  0.6753
   86SOPE   C22 8007   3.332   4.328   3.338 -0.5703 -0.1820 -0.4493
   86SOPE   H2R 8008   3.264   4.271   3.272 -2.6391  0.9422  0.6349
   86SOPE   H2S 8009   3.286   4.425   3.366 -1.5171 -1.0067  1.0235
   86SOPE    C3 8010   3.580   4.606   3.159 -1.0987  0.0484  0.0925
   86SOPE    HX 8011   3.477   4.650   3.164 -1.3471 -0.4408 -0.5868
   86SOPE    HY 8012   3.642   4.679   3.104  0.8892 -0.1903  1.8848
   86SOPE   O31 8013   3.636   4.582   3.293  0.2736 -0.2634  0.1107
   86SOPE   C31 8014   3.769   4.588   3.299 -0.0697 -0.2299  0.3597
   86SOPE   O32 8015   3.852   4.614   3.217 -0.2550 -0.1337 -0.6493
   86SOPE   C32 8016   3.807   4.554   3.447  0.3183  0.2671 -0.3937
   86SOPE   H2X 8017   3.716   4.499   3.479  0.1999 -0.6870 -2.2082
   86SOPE   H2Y 8018   3.822   4.650   3.501  3.2136  0.1729 -0.8629
   86SOPE   C23 8019   3.344   4.254   3.478  0.1854 -0.1094  0.4553
   86SOPE   H3R 8020   3.405   4.162   3.469  1.7841  1.0208 -1.1740
   86SOPE   H3S 8021   3.244   4.238   3.523 -1.4976  1.6334 -2.3368
   86SOPE   C24 8022   3.411   4.355   3.575  0.3166  0.0138 -0.2601
   86SOPE   H4R 8023   3.516   4.368   3.539 -0.0453 -1.7840 -2.1724
   86SOPE   H4S 8024   3.369   4.455   3.552  0.1049 -0.1494 -0.5870
   86SOPE   C25 8025   3.415   4.313   3.724 -0.8333 -0.8431  0.3643
   86SOPE   H5R 8026   3.312   4.284   3.754 -0.9523 -0.2129  0.5798
   86SOPE   H5S 8027   3.486   4.229   3.740 -0.3324 -0.8600 -1.6539
   86SOPE   C26 8028   3.466   4.426   3.817  0.3944 -0.4759 -0.3896
   86SOPE   H6R 8029   3.540   4.491   3.766 -2.7167  2.1465 -1.9020
   86SOPE   H6S 8030   3.391   4.506   3.829  0.4290 -0.5757  0.6072
   86SOPE   C27 8031   3.512   4.390   3.963 -0.7281 -0.5250 -0.2253
   86SOPE   H7R 8032   3.572   4.297   3.970 -0.5986 -0.3573  1.2068
   86SOPE   H7S 8033   3.581   4.471   3.995  1.2871 -1.8178 -1.0552
   86SOPE   C28 8034   3.396   4.378   4.070  0.0807  0.9599  0.1320
   86SOPE   H8R 8035   3.305   4.339   4.020 -1.6110  2.3630  1.9947
   86SOPE   H8S 8036   3.428   4.305   4.148  0.2479 -0.0994 -0.8947
   86SOPE   C29 8037   3.370   4.505   4.150  0.2643  0.2643 -0.8299
   86SOPE   H91 8038   3.290   4.568   4.106  0.2628 -0.7144 -2.3203
   86SOPE  C210 8039   3.436   4.556   4.254  0.2731 -0.6980 -0.8297
   86SOPE  H101 8040   3.402   4.651   4.298  3.4122  0.7178 -1.1197
   86SOPE  C211 8041   3.556   4.499   4.329  0.1335 -0.1215  0.3751
   86SOPE  H11R 8042   3.641   4.570   4.332  0.9739 -1.1028  0.3447
   86SOPE  H11S 8043   3.594   4.402   4.291 -2.0163 -0.9474  0.1691
   86SOPE  C212 8044   3.529   4.471   4.481  1.2203 -0.8172 -0.0496
   86SOPE  H12R 8045   3.580   4.382   4.524  1.5352  0.2131  1.8105
   86SOPE  H12S 8046   3.423   4.436   4.478  1.3395 -1.1105 -1.9142
   86SOPE  C213 8047   3.542   4.596   4.567  0.3089  0.2810 -0.5808
   86SOPE  H13R 8048   3.516   4.680   4.499  0.3816  1.0143  0.2828
   86SOPE  H13S 8049   3.651   4.599   4.586  0.6411 -0.9790 -2.0131
   86SOPE  C214 8050   3.463   4.599   4.698  0.1054 -0.4123  0.0132
   86SOPE  H14R 8051   3.517   4.517   4.751  3.7610  1.5465 -0.3918
   86SOPE  H14S 8052   3.357   4.567   4.683  0.4799 -0.6455 -2.7141
   86SOPE  C215 8053   3.472   4.723   4.793  0.0494 -0.3725 -0.5509
   86SOPE  H15R 8054   3.416   4.803   4.739 -1.9473 -0.4458  1.3031
   86SOPE  H15S 8055   3.576   4.763   4.793 -0.9171  2.3744 -1.5913
   86SOPE  C216 8056   3.415   4.696   4.926  0.3178 -0.1579 -0.2845
   86SOPE  H16R 8057   3.426   4.783   4.995  0.5827 -0.5086  0.1243
   86SOPE  H16S 8058   3.475   4.617   4.976  2.7726  1.0706 -1.1239
   86SOPE  C217 8059   3.261   4.673   4.916  0.0280 -0.6191 -0.0200
   86SOPE  H17R 8060   3.250   4.569   4.877 -2.8963 -0.1106 -0.7534
   86SOPE  H17S 8061   3.225   4.754   4.849  2.9746  2.4910  1.8633
   86SOPE  C218 8062   3.189   4.680   5.051  0.4278  0.4846 -0.7036
   86SOPE  H18R 8063   3.206   4.772   5.110 -2.3629 -0.9440  2.7192
   86SOPE  H18S 8064   3.209   4.594   5.119 -0.9683  2.1376  2.0189
   86SOPE  H18T 8065   3.081   4.678   5.023  0.0403  2.1508  0.5042
   86SOPE   C33 8066   3.940   4.472   3.459 -0.2656  0.2506 -0.6013
   86SOPE   H3X 8067   4.030   4.535   3.440 -0.4092  1.0130  1.0642
   86SOPE   H3Y 8068   3.934   4.396   3.378  0.6397 -1.1195  0.5671
   86SOPE   C34 8069   3.945   4.391   3.589  0.1929 -0.5081 -0.3811
   86SOPE   H4X 8070   4.021   4.311   3.581  0.6427 -0.1058 -0.2026
   86SOPE   H4Y 8071   3.843   4.355   3.613  0.5010  0.0829  2.1527
   86SOPE   C35 8072   3.987   4.472   3.712 -0.5116 -0.1547 -0.0428
   86SOPE   H5X 8073   3.918   4.559   3.708  0.1024  0.3387 -3.4729
   86SOPE   H5Y 8074   4.087   4.521   3.707 -1.2867  1.8633  2.2333
   86SOPE   C36 8075   3.972   4.401   3.848 -0.3241 -0.3508 -0.0433
   86SOPE   H6X 8076   4.015   4.299   3.848 -0.1216 -0.2950 -1.4673
   86SOPE   H6Y 8077   3.865   4.371   3.843 -0.2355 -0.4804 -1.7128
   86SOPE   C37 8078   4.000   4.479   3.978  0.0110 -0.1726  1.1882
   86SOPE   H7X 8079   3.943   4.574   3.968 -0.3371 -0.5279 -0.4792
   86SOPE   H7Y 8080   4.106   4.510   3.973  0.4512 -1.6086 -3.2573
   86SOPE   C38 8081   3.970   4.397   4.100  0.3187 -0.3241 -0.8536
   86SOPE   H8X 8082   4.024   4.301   4.096  0.9871 -0.0261  0.4620
   86SOPE   H8Y 8083   3.860   4.380   4.095  0.2484  0.2872 -1.5590
   86SOPE   C39 8084   4.002   4.488   4.227 -0.9367  0.2302 -0.5125
   86SOPE   H9X 8085   3.948   4.584   4.214 -0.8421  0.6441  1.7301
   86SOPE   H9Y 8086   4.107   4.523   4.234 -1.1676  0.6187  1.7051
   86SOPE  C310 8087   3.966   4.409   4.351  0.3571  0.0183 -0.0861
   86SOPE  H10X 8088   4.021   4.313   4.357  0.8933  0.2708 -0.7479
   86SOPE  H10Y 8089   3.860   4.378   4.357  0.8745 -1.5562  2.1873
   86SOPE  C311 8090   3.985   4.482   4.484  0.1893  0.3512 -0.0989
   86SOPE  H11X 8091   3.928   4.576   4.496 -0.2085 -0.1519  2.5469
   86SOPE  H11Y 8092   4.093   4.505   4.490  0.5881  0.1985 -4.0833
   86SOPE  C312 8093   3.931   4.393   4.600  0.4459 -0.5296  0.6317
   86SOPE  H12X 8094   3.987   4.297   4.600 -1.7367 -2.0785 -3.8697
   86SOPE  H12Y 8095   3.825   4.368   4.580  0.1278 -1.1611  2.8191
   86SOPE  C313 8096   3.952   4.466   4.733  0.5433  0.1357 -1.1710
   86SOPE  H13X 8097   3.887   4.556   4.735 -1.3882 -1.1608  1.5498
   86SOPE  H13Y 8098   4.058   4.498   4.740  0.2688  0.7332  1.3204
   86SOPE  C314 8099   3.919   4.384   4.853  0.0275 -0.1327 -0.0394
   86SOPE  H14X 8100   3.999   4.308   4.865 -0.9782 -1.1562  0.3248
   86SOPE  H14Y 8101   3.825   4.326   4.849 -0.0687 -0.0829  1.0822
   86SOPE  C315 8102   3.907   4.475   4.975  0.2244 -0.5232 -0.7918
   86SOPE  H15X 8103   3.836   4.558   4.954  2.2976  0.8468 -2.8316
   86SOPE  H15Y 8104   3.997   4.532   5.005 -1.0297  1.1585 -0.0438
   86SOPE  C316 8105   3.852   4.384   5.085  0.2928  0.0664 -0.9330
   86SOPE  H16X 8106   3.918   4.296   5.101  1.1530  0.6061 -1.4041
   86SOPE  H16Y 8107   3.751   4.342   5.071  0.7475 -2.8900  3.0722
   86SOPE  C317 8108   3.840   4.456   5.215  0.1751 -0.3110 -0.9501
   86SOPE  H17X 8109   3.939   4.501   5.236 -0.0852 -0.5323  0.8747
   86SOPE  H17Y 8110   3.823   4.381   5.295  0.5233 -0.5132 -1.0653
   86SOPE  C318 8111   3.731   4.565   5.220  0.3162 -0.3489  0.1064
   86SOPE  H18X 8112   3.631   4.525   5.195  1.1764 -1.5205 -1.7099
   86SOPE  H18Y 8113   3.751   4.637   5.137 -1.6407  0.9106  0.6698
   86SOPE  H18Z 8114   3.739   4.620   5.316  1.8043 -0.9487  0.3593
   87SOPE     N 8115   4.414   3.620   2.756 -0.0031  0.2391  0.2628
   87SOPE   HN1 8116   4.374   3.716   2.758  1.9956  1.1356 -0.3834
   87SOPE   HN2 8117   4.488   3.630   2.684  1.1829 -0.0515  1.4130
   87SOPE   HN3 8118   4.354   3.543   2.720  0.6537 -0.2162  0.1344
   87SOPE   C12 8119   4.476   3.604   2.893  0.5662 -0.0441 -0.6529
   87SOPE  H12A 8120   4.547   3.687   2.914  1.5591 -0.9390 -0.3588
   87SOPE  H12B 8121   4.528   3.505   2.897  1.0720  0.2623  1.9019
   87SOPE   C11 8122   4.371   3.622   3.005  0.4914  0.6778 -0.1558
   87SOPE  H11A 8123   4.333   3.726   2.999  0.1450  0.5413 -0.3680
   87SOPE  H11B 8124   4.416   3.606   3.105 -1.8189  0.4670  0.9073
   87SOPE     P 8125   4.228   3.396   3.042 -0.3523  0.0873  0.1003
   87SOPE   O13 8126   4.335   3.306   2.993  0.0862 -0.4474  0.1096
   87SOPE   O14 8127   4.085   3.349   3.010 -0.1713  0.3029 -0.2526
   87SOPE   O12 8128   4.255   3.536   2.986 -0.2647 -0.4041  0.1937
   87SOPE   O11 8129   4.243   3.423   3.194  0.1158  0.0214  0.1509
   87SOPE    C1 8130   4.233   3.310   3.287  0.4799  0.7049 -0.9835
   87SOPE    HA 8131   4.330   3.257   3.295 -0.3221 -0.7743 -0.7732
   87SOPE    HB 8132   4.163   3.234   3.248 -0.2893  0.9682 -0.1572
   87SOPE    C2 8133   4.186   3.358   3.427  0.0555  0.1485 -0.1881
   87SOPE    HS 8134   4.075   3.355   3.416  0.1542 -0.5020 -1.0933
   87SOPE   O21 8135   4.237   3.480   3.461 -0.1150  0.2178  0.2943
   87SOPE   C21 8136   4.161   3.567   3.525 -0.4000  0.2959 -0.6659
   87SOPE   O22 8137   4.041   3.564   3.547  0.3100  0.4768 -0.5040
   87SOPE   C22 8138   4.253   3.692   3.571  0.0381  0.4979  0.3980
   87SOPE   H2R 8139   4.238   3.780   3.504  0.3894  2.2436  2.4815
   87SOPE   H2S 8140   4.359   3.660   3.567  0.2922  1.0464  1.9867
   87SOPE    C3 8141   4.213   3.247   3.532 -0.4811 -0.3857 -0.1846
   87SOPE    HX 8142   4.322   3.225   3.535  0.1068  2.2117  0.5676
   87SOPE    HY 8143   4.147   3.168   3.492 -1.7267  0.6764 -0.3136
   87SOPE   O31 8144   4.159   3.290   3.667 -0.1581  0.4884 -0.2120
   87SOPE   C31 8145   4.249   3.302   3.756 -0.1995  0.4843  0.9773
   87SOPE   O32 8146   4.369   3.302   3.739 -0.2856  1.1133  0.0998
   87SOPE   C32 8147   4.171   3.327   3.886  0.3956  0.2475  0.0290
   87SOPE   H2X 8148   4.122   3.232   3.916 -0.1714  0.6695  0.4776
   87SOPE   H2Y 8149   4.092   3.400   3.859 -1.2189 -1.9541 -1.5097
   87SOPE   C23 8150   4.221   3.751   3.711  0.0474 -0.1314  0.4748
   87SOPE   H3R 8151   4.233   3.676   3.792  0.8011 -0.2885  0.2242
   87SOPE   H3S 8152   4.119   3.794   3.700 -0.3423 -1.0418  0.4507
   87SOPE   C24 8153   4.329   3.860   3.755  0.0279  0.0693  0.4796
   87SOPE   H4R 8154   4.414   3.803   3.798  0.4407  1.3860  1.4651
   87SOPE   H4S 8155   4.366   3.909   3.662 -0.5176 -3.1781 -1.6262
   87SOPE   C25 8156   4.282   3.961   3.860  0.0823  0.0455 -0.4288
   87SOPE   H5R 8157   4.362   4.033   3.886  1.7235 -2.7641  3.0961
   87SOPE   H5S 8158   4.196   4.020   3.822 -1.7054 -0.7105  2.1548
   87SOPE   C26 8159   4.241   3.901   4.000  0.1982  0.5212 -0.7306
   87SOPE   H6R 8160   4.157   3.830   3.989  1.1960 -0.7857 -0.2134
   87SOPE   H6S 8161   4.321   3.829   4.029 -0.4889 -0.7322 -1.8426
   87SOPE   C27 8162   4.202   4.001   4.109  0.5393 -0.0609 -0.3056
   87SOPE   H7R 8163   4.290   4.063   4.136  0.2117  0.0524  0.5347
   87SOPE   H7S 8164   4.119   4.063   4.069  2.1360  2.8327  0.6000
   87SOPE   C28 8165   4.172   3.925   4.238 -0.2537 -0.0514 -0.2136
   87SOPE   H8R 8166   4.082   3.861   4.229 -0.6530  0.4194  0.3430
   87SOPE   H8S 8167   4.254   3.858   4.272  0.8521  0.5108 -1.6068
   87SOPE   C29 8168   4.140   4.029   4.341 -0.5782  0.3523  0.7309
   87SOPE   H91 8169   4.051   4.089   4.318 -0.1010  1.1482  0.9243
   87SOPE  C210 8170   4.211   4.061   4.452 -0.1748  0.3628  0.3668
   87SOPE  H101 8171   4.168   4.144   4.510 -0.2335  0.4176  0.2454
   87SOPE  C211 8172   4.330   3.991   4.514 -0.4953 -0.8856 -0.0816
   87SOPE  H11R 8173   4.421   4.052   4.495 -0.7149 -0.7923 -0.8748
   87SOPE  H11S 8174   4.359   3.889   4.482  3.0556 -0.0169 -0.0248
   87SOPE  C212 8175   4.315   3.979   4.665 -0.1147 -0.4057  0.6661
   87SOPE  H12R 8176   4.296   4.080   4.706  1.6657 -0.0792  0.7786
   87SOPE  H12S 8177   4.409   3.934   4.704 -0.5331 -0.4622  1.6413
   87SOPE  C213 8178   4.203   3.881   4.705  0.3973  0.7195 -0.6036
   87SOPE  H13R 8179   4.203   3.794   4.636  2.5265  0.0760  0.1345
   87SOPE  H13S 8180   4.102   3.927   4.693 -0.7009 -0.3082  3.3433
   87SOPE  C214 8181   4.201   3.815   4.848  0.0151  0.2711  0.4435
   87SOPE  H14R 8182   4.295   3.758   4.857  0.9717  1.5565 -0.8315
   87SOPE  H14S 8183   4.121   3.738   4.850 -0.2072  0.3988 -1.3963
   87SOPE  C215 8184   4.183   3.915   4.959  0.1796 -0.1452 -0.0983
   87SOPE  H15R 8185   4.107   3.989   4.929 -1.0250 -1.0299  0.6464
   87SOPE  H15S 8186   4.277   3.975   4.963 -0.1705  0.4182  4.1689
   87SOPE  C216 8187   4.144   3.860   5.094  0.2302 -0.2300  0.1569
   87SOPE  H16R 8188   4.230   3.818   5.149 -0.4884 -1.6205  0.2598
   87SOPE  H16S 8189   4.069   3.779   5.080 -0.2680  0.1859  0.3989
   87SOPE  C217 8190   4.076   3.964   5.185  0.2760  0.3559  0.3840
   87SOPE  H17R 8191   4.014   4.045   5.140 -0.4567 -0.2022  0.3828
   87SOPE  H17S 8192   4.156   4.009   5.248 -1.2257  1.6580  1.4172
   87SOPE  C218 8193   3.983   3.899   5.289  0.5142  0.2871 -0.6280
   87SOPE  H18R 8194   4.016   3.804   5.336 -1.1914 -0.3654 -0.6898
   87SOPE  H18S 8195   3.887   3.883   5.236  1.8452 -0.7789 -2.8876
   87SOPE  H18T 8196   3.954   3.974   5.366 -2.7211 -0.7003 -0.7656
   87SOPE   C33 8197   4.265   3.356   4.006 -0.1237 -0.0576 -0.2045
   87SOPE   H3X 8198   4.332   3.442   3.989  2.2112 -2.2223 -2.9332
   87SOPE   H3Y 8199   4.334   3.270   4.016 -0.7676 -0.6818 -0.9802
   87SOPE   C34 8200   4.173   3.383   4.132  0.0693 -0.7763  0.0643
   87SOPE   H4X 8201   4.114   3.293   4.160  0.6090 -1.6570 -1.4997
   87SOPE   H4Y 8202   4.118   3.477   4.110  1.1597 -0.1753 -0.1660
   87SOPE   C35 8203   4.268   3.422   4.246  0.8960 -0.1049  0.1973
   87SOPE   H5X 8204   4.346   3.495   4.215  0.8216 -0.9492 -2.1293
   87SOPE   H5Y 8205   4.325   3.333   4.279  2.3981  0.4274 -0.8475
   87SOPE   C36 8206   4.190   3.495   4.358 -0.2607 -0.2637 -0.4852
   87SOPE   H6X 8207   4.095   3.440   4.376 -0.1192 -0.1580  0.6823
   87SOPE   H6Y 8208   4.170   3.602   4.337  0.2970 -0.3242 -1.3636
   87SOPE   C37 8209   4.251   3.483   4.499 -0.5671 -0.5343  0.1856
   87SOPE   H7X 8210   4.216   3.566   4.565 -0.6902 -1.6650  1.5821
   87SOPE   H7Y 8211   4.361   3.496   4.487 -0.2205 -0.6409  2.7004
   87SOPE   C38 8212   4.230   3.355   4.568  0.2782  0.7132  0.4006
   87SOPE   H8X 8213   4.269   3.271   4.505 -0.3146 -0.0473  1.0210
   87SOPE   H8Y 8214   4.119   3.356   4.574  0.0630  1.0692 -2.1770
   87SOPE   C39 8215   4.294   3.354   4.706  0.2730  0.2895 -0.0837
   87SOPE   H9X 8216   4.294   3.458   4.745  1.4343  0.5031 -0.6405
   87SOPE   H9Y 8217   4.399   3.325   4.687 -0.1823 -0.5726 -1.3624
   87SOPE  C310 8218   4.231   3.251   4.800 -0.8402 -1.1239  0.2590
   87SOPE  H10X 8219   4.253   3.147   4.767 -1.4848 -0.8400 -1.1491
   87SOPE  H10Y 8220   4.126   3.268   4.834  0.0452 -0.2644  2.6994
   87SOPE  C311 8221   4.306   3.261   4.934  0.0537 -0.1312  0.6360
   87SOPE  H11X 8222   4.308   3.366   4.968  0.4057  0.7378 -1.8840
   87SOPE  H11Y 8223   4.413   3.232   4.928 -0.3454 -1.6133  0.0572
   87SOPE  C312 8224   4.253   3.167   5.038 -0.2580 -0.2157  0.3150
   87SOPE  H12X 8225   4.254   3.062   5.001 -0.4822 -0.5090  1.1110
   87SOPE  H12Y 8226   4.149   3.196   5.064 -0.7196 -2.3165  1.0416
   87SOPE  C313 8227   4.331   3.176   5.170  0.0317 -0.8417 -0.4813
   87SOPE  H13X 8228   4.337   3.279   5.210  2.3069 -1.8818  2.1814
   87SOPE  H13Y 8229   4.437   3.147   5.154 -0.1244 -1.8194  0.1657
   87SOPE  C314 8230   4.291   3.073   5.276  0.4258  0.1838 -0.4082
   87SOPE  H14X 8231   4.286   2.968   5.239 -1.0286  0.3474 -0.7527
   87SOPE  H14Y 8232   4.189   3.108   5.304  0.6585 -1.2867  2.7887
   87SOPE  C315 8233   4.378   3.078   5.408  0.3300 -0.5290  0.0759
   87SOPE  H15X 8234   4.356   3.171   5.464 -0.3598 -1.3543  1.2273
   87SOPE  H15Y 8235   4.487   3.086   5.392  0.3442 -1.3092 -0.3047
   87SOPE  C316 8236   4.342   2.968   5.508  0.5195  0.4818  0.5973
   87SOPE  H16X 8237   4.233   2.959   5.531  0.7583  0.8641  1.9804
   87SOPE  H16Y 8238   4.381   2.993   5.609  0.0331  2.4175  0.3419
   87SOPE  C317 8239   4.400   2.829   5.471 -0.5358  0.2700  0.3334
   87SOPE  H17X 8240   4.363   2.799   5.370  0.0531 -0.4876  0.3387
   87SOPE  H17Y 8241   4.336   2.759   5.530 -0.5541  0.1514  0.1720
   87SOPE  C318 8242   4.552   2.808   5.494 -0.4254 -0.2098 -0.0634
   87SOPE  H18X 8243   4.581   2.708   5.454 -1.2703 -1.2333  1.7272
   87SOPE  H18Y 8244   4.560   2.793   5.604 -2.7833 -1.0146  0.0508
   87SOPE  H18Z 8245   4.614   2.886   5.446 -1.5119  0.2727 -0.7222
   88SOPE     N 8246   5.606   2.705   3.368 -0.1413  0.1945 -0.5325
   88SOPE   HN1 8247   5.577   2.655   3.454 -0.5103  1.1852 -0.0647
   88SOPE   HN2 8248   5.627   2.637   3.292 -3.0687 -0.9667 -0.4393
   88SOPE   HN3 8249   5.691   2.758   3.397 -0.5925  0.9553 -0.5809
   88SOPE   C12 8250   5.515   2.818   3.322 -0.0098  0.0860 -0.5735
   88SOPE  H12A 8251   5.411   2.785   3.342  0.8974 -3.0605 -0.5052
   88SOPE  H12B 8252   5.543   2.821   3.214 -1.1194 -0.1559 -0.8814
   88SOPE   C11 8253   5.553   2.952   3.390  0.3284 -0.2857 -0.1256
   88SOPE  H11A 8254   5.533   2.927   3.496 -2.7704  2.5724  0.1382
   88SOPE  H11B 8255   5.486   3.038   3.366 -0.7498 -0.3351  2.4265
   88SOPE     P 8256   5.743   3.064   3.263  0.3815 -0.4048 -0.1672
   88SOPE   O13 8257   5.686   3.026   3.136  0.2895  0.0728  0.4248
   88SOPE   O14 8258   5.890   3.078   3.271 -0.3289  0.5706 -0.3283
   88SOPE   O12 8259   5.696   2.969   3.374  0.3275  0.5930 -0.1377
   88SOPE   O11 8260   5.672   3.198   3.310 -0.3641 -0.1373  0.1134
   88SOPE    C1 8261   5.752   3.296   3.371  0.1740 -0.3935  0.2257
   88SOPE    HA 8262   5.690   3.388   3.371  0.0360 -0.4746 -1.1149
   88SOPE    HB 8263   5.847   3.322   3.319 -0.1498  0.3094 -0.0167
   88SOPE    C2 8264   5.783   3.266   3.526  0.9852  0.3573  0.2342
   88SOPE    HS 8265   5.832   3.166   3.534 -1.8397 -0.9621  3.7929
   88SOPE   O21 8266   5.652   3.261   3.585 -0.1628  0.0117 -0.4183
   88SOPE   C21 8267   5.655   3.198   3.705  0.2388  0.4356  0.1635
   88SOPE   O22 8268   5.753   3.134   3.747  0.3632  0.7805 -0.2007
   88SOPE   C22 8269   5.509   3.203   3.749  0.4610  0.2491  0.0531
   88SOPE   H2R 8270   5.497   3.104   3.798  3.1952  0.4791  1.3986
   88SOPE   H2S 8271   5.444   3.214   3.660  0.6745 -0.2399 -0.1682
   88SOPE    C3 8272   5.876   3.369   3.591  0.3681  0.1508 -1.0462
   88SOPE    HX 8273   5.969   3.370   3.530  0.4052 -1.2054 -1.0533
   88SOPE    HY 8274   5.902   3.323   3.689 -0.7218  1.1790 -0.2466
   88SOPE   O31 8275   5.813   3.500   3.589  0.9430 -0.1284 -0.2921
   88SOPE   C31 8276   5.899   3.598   3.609  0.3046  0.6107  0.7202
   88SOPE   O32 8277   6.016   3.587   3.633 -0.2774  0.2644 -0.1834
   88SOPE   C32 8278   5.830   3.734   3.578 -0.3274  0.0760  0.1498
   88SOPE   H2X 8279   5.832   3.742   3.467  0.2131  3.1977  0.3050
   88SOPE   H2Y 8280   5.895   3.814   3.620 -0.2632  0.7219 -1.1169
   88SOPE   C23 8281   5.486   3.313   3.848  0.3632 -1.7159 -0.3647
   88SOPE   H3R 8282   5.375   3.312   3.850  0.3737 -2.0292  1.3271
   88SOPE   H3S 8283   5.521   3.412   3.811  2.1541 -1.8902  0.6930
   88SOPE   C24 8284   5.536   3.300   3.995 -0.6459  0.3189  0.0256
   88SOPE   H4R 8285   5.503   3.199   4.027  0.2761 -0.1817 -0.5356
   88SOPE   H4S 8286   5.647   3.306   3.984 -0.3179  2.6993  3.2636
   88SOPE   C25 8287   5.506   3.409   4.100  0.0201  0.4187  0.9877
   88SOPE   H5R 8288   5.578   3.492   4.084  1.4514 -0.7297  1.3034
   88SOPE   H5S 8289   5.402   3.442   4.078 -0.0589 -0.7792 -0.6547
   88SOPE   C26 8290   5.535   3.350   4.248  0.2136  0.1842  0.6549
   88SOPE   H6R 8291   5.463   3.269   4.272  0.0913  0.6120  1.8123
   88SOPE   H6S 8292   5.634   3.299   4.242 -1.2459 -3.4379  3.5216
   88SOPE   C27 8293   5.531   3.454   4.361 -0.3042 -0.8625  0.3391
   88SOPE   H7R 8294   5.427   3.491   4.364 -0.4042 -0.9765 -1.1227
   88SOPE   H7S 8295   5.529   3.396   4.455 -1.3745  0.5594  1.2299
   88SOPE   C28 8296   5.631   3.569   4.359 -0.2161  0.5800  0.0731
   88SOPE   H8R 8297   5.642   3.621   4.262 -0.4963  0.1380 -0.1985
   88SOPE   H8S 8298   5.595   3.653   4.422  0.5517  0.8491  0.1694
   88SOPE   C29 8299   5.776   3.523   4.397 -0.4056  0.1378 -0.6184
   88SOPE   H91 8300   5.852   3.499   4.321 -0.8562 -0.1139 -0.9917
   88SOPE  C210 8301   5.822   3.499   4.526 -0.5002 -0.5972  0.4013
   88SOPE  H101 8302   5.922   3.453   4.528  0.7226  1.8883  0.0337
   88SOPE  C211 8303   5.743   3.522   4.651  0.1387  0.3342 -0.1537
   88SOPE  H11R 8304   5.654   3.589   4.641 -0.0324 -0.0303 -1.1416
   88SOPE  H11S 8305   5.809   3.576   4.723 -0.4104  0.6618  0.1146
   88SOPE  C212 8306   5.702   3.380   4.715 -0.0239 -0.5191  0.2942
   88SOPE  H12R 8307   5.782   3.303   4.714 -0.4809 -0.9971  0.2619
   88SOPE  H12S 8308   5.624   3.344   4.645  0.6019  0.1578 -0.7743
   88SOPE  C213 8309   5.633   3.379   4.856  0.4894 -0.3122  0.7214
   88SOPE  H13R 8310   5.545   3.311   4.860 -0.2505  0.5664 -0.0005
   88SOPE  H13S 8311   5.585   3.478   4.873  0.7363 -0.1087  0.2692
   88SOPE  C214 8312   5.734   3.344   4.975  0.1159  0.0602  0.4354
   88SOPE  H14R 8313   5.756   3.236   4.960  0.5365  0.3710 -1.5044
   88SOPE  H14S 8314   5.691   3.359   5.076  0.1337  0.7029  0.3516
   88SOPE  C215 8315   5.869   3.421   4.967  0.0454  0.3100 -0.1653
   88SOPE  H15R 8316   5.857   3.530   4.951  3.0801  0.9321  1.2708
   88SOPE  H15S 8317   5.928   3.382   4.882 -0.1300 -1.7871  0.5992
   88SOPE  C216 8318   5.954   3.392   5.096 -0.3014  0.4276  0.6229
   88SOPE  H16R 8319   6.056   3.405   5.054 -0.5829 -0.4170 -0.3630
   88SOPE  H16S 8320   5.942   3.288   5.131 -0.9969 -0.0179 -0.8563
   88SOPE  C217 8321   5.939   3.482   5.215  0.6491 -0.5640 -0.2464
   88SOPE  H17R 8322   5.842   3.456   5.262  0.3939 -0.0783 -0.4901
   88SOPE  H17S 8323   5.924   3.588   5.184  2.7127 -0.7724 -2.1790
   88SOPE  C218 8324   6.059   3.476   5.309  0.2056 -0.0897  0.6578
   88SOPE  H18R 8325   6.082   3.374   5.348  4.5692  0.8042  0.8738
   88SOPE  H18S 8326   6.049   3.545   5.396  1.0809 -0.3310  0.9602
   88SOPE  H18T 8327   6.150   3.509   5.256  0.3740  1.1490  1.6609
   88SOPE   C33 8328   5.690   3.743   3.641 -0.0866 -0.4296 -0.2086
   88SOPE   H3X 8329   5.626   3.659   3.605 -0.5741 -0.7051  1.2427
   88SOPE   H3Y 8330   5.641   3.838   3.611 -0.7674 -1.1463 -1.4763
   88SOPE   C34 8331   5.701   3.737   3.796 -0.8927  0.5123 -0.2223
   88SOPE   H4X 8332   5.806   3.761   3.820 -0.2444  0.9766 -3.1919
   88SOPE   H4Y 8333   5.676   3.637   3.839  0.9810 -1.1158 -2.6552
   88SOPE   C35 8334   5.637   3.859   3.869 -0.0162 -0.1489 -0.0498
   88SOPE   H5X 8335   5.544   3.891   3.816 -0.6165  2.6532  2.3798
   88SOPE   H5Y 8336   5.704   3.943   3.840  1.1752 -1.1176 -0.1658
   88SOPE   C36 8337   5.635   3.850   4.021  0.7713  1.0795 -0.0865
   88SOPE   H6X 8338   5.738   3.818   4.048 -0.3134 -3.9520 -1.0027
   88SOPE   H6Y 8339   5.581   3.756   4.042  0.7688  1.0859 -0.0627
   88SOPE   C37 8340   5.569   3.970   4.094 -0.0111 -0.1329 -0.1154
   88SOPE   H7X 8341   5.467   3.976   4.052 -0.6097  1.1291  1.4461
   88SOPE   H7Y 8342   5.629   4.058   4.062  1.0813 -1.7993 -3.1527
   88SOPE   C38 8343   5.556   3.949   4.250  0.7210 -0.5215 -0.0016
   88SOPE   H8X 8344   5.513   3.849   4.274 -0.8926  0.7663  2.9406
   88SOPE   H8Y 8345   5.480   4.026   4.275 -0.1624 -1.4595  0.2796
   88SOPE   C39 8346   5.677   3.972   4.326 -0.8686 -0.3187 -0.4513
   88SOPE   H9X 8347   5.731   4.063   4.292  0.3969 -1.1168 -0.6423
   88SOPE   H9Y 8348   5.748   3.889   4.307  0.0683  0.4482 -0.3774
   88SOPE  C310 8349   5.663   3.986   4.481 -0.4213 -0.2881  0.0806
   88SOPE  H10X 8350   5.619   4.085   4.507 -1.4956 -0.5459 -0.7012
   88SOPE  H10Y 8351   5.763   3.978   4.529 -1.4143 -1.0124  2.1608
   88SOPE  C311 8352   5.583   3.880   4.558 -0.6512  0.3127  0.8523
   88SOPE  H11X 8353   5.642   3.787   4.552  2.2934  2.1232 -0.8234
   88SOPE  H11Y 8354   5.482   3.850   4.522 -0.3766 -0.5225  0.7643
   88SOPE  C312 8355   5.554   3.915   4.701 -0.5854  1.0369 -0.9819
   88SOPE  H12X 8356   5.444   3.920   4.709 -0.5287 -0.1221  2.3707
   88SOPE  H12Y 8357   5.593   4.014   4.733 -0.2167  0.3518  0.8335
   88SOPE  C313 8358   5.602   3.826   4.817 -0.6511 -0.0047  0.1670
   88SOPE  H13X 8359   5.709   3.804   4.798 -0.9711  0.2379 -2.2679
   88SOPE  H13Y 8360   5.556   3.725   4.812  0.4245 -0.4864 -0.2129
   88SOPE  C314 8361   5.574   3.875   4.961 -0.3234 -0.1685  0.4894
   88SOPE  H14X 8362   5.469   3.911   4.968 -0.7544 -1.1346 -0.5825
   88SOPE  H14Y 8363   5.641   3.959   4.988  0.2299 -0.5900  0.4398
   88SOPE  C315 8364   5.600   3.768   5.066 -0.1884  0.5507 -1.0200
   88SOPE  H15X 8365   5.681   3.693   5.056 -1.2991 -0.9631  0.7581
   88SOPE  H15Y 8366   5.513   3.700   5.059  1.3737 -1.5188 -1.3262
   88SOPE  C316 8367   5.601   3.824   5.202 -0.0758 -0.1282 -0.6598
   88SOPE  H16X 8368   5.512   3.890   5.211 -0.0616 -0.0192 -1.2489
   88SOPE  H16Y 8369   5.692   3.885   5.220 -0.1450 -0.1128 -0.3654
   88SOPE  C317 8370   5.598   3.729   5.325  0.6974  0.1567  0.5236
   88SOPE  H17X 8371   5.608   3.795   5.415 -0.4032  0.2585  0.5853
   88SOPE  H17Y 8372   5.682   3.656   5.329 -0.3784 -1.1715 -0.2696
   88SOPE  C318 8373   5.461   3.663   5.334 -0.0226 -0.0618  0.2792
   88SOPE  H18X 8374   5.379   3.736   5.355  0.5424  1.0955 -1.3261
   88SOPE  H18Y 8375   5.466   3.580   5.407  1.1012  0.5502  0.9154
   88SOPE  H18Z 8376   5.422   3.605   5.247 -0.5173  2.0179 -0.9805
   89SAPC     N 8377   4.266   4.764   7.533 -0.2133  0.0336  0.7312
   89SAPC   C12 8378   4.243   4.614   7.504  0.1749  0.3457 -0.0440
   89SAPC  H12A 8379   4.329   4.551   7.525 -0.6233 -1.6113 -2.1967
   89SAPC  H12B 8380   4.221   4.596   7.400  0.2878  1.0847 -0.2001
   89SAPC   C13 8381   4.377   4.814   7.453  0.0375  0.8105  0.5350
   89SAPC  H13A 8382   4.404   4.917   7.467  0.6351  1.0243 -1.7925
   89SAPC  H13B 8383   4.464   4.757   7.484 -1.1864 -2.0793 -0.9112
   89SAPC  H13C 8384   4.360   4.807   7.346 -1.2104 -0.1303  0.7707
   89SAPC   C14 8385   4.146   4.842   7.502 -0.0046 -0.6430 -0.4063
   89SAPC  H14A 8386   4.156   4.948   7.519 -1.9524 -0.5985  0.7880
   89SAPC  H14B 8387   4.117   4.822   7.400  2.1206  0.7455 -1.3555
   89SAPC  H14C 8388   4.065   4.815   7.568  0.9213 -1.2414  0.5025
   89SAPC   C15 8389   4.297   4.791   7.675  1.4917 -0.7265 -0.0916
   89SAPC  H15A 8390   4.225   4.746   7.742  0.6772  0.3276 -0.2256
   89SAPC  H15B 8391   4.387   4.739   7.705  0.6713 -0.3351  3.4688
   89SAPC  H15C 8392   4.315   4.895   7.697  0.2454 -0.4802 -0.1385
   89SAPC   C11 8393   4.120   4.543   7.566 -0.5683 -0.3086 -0.1473
   89SAPC  H11A 8394   4.099   4.585   7.668  0.2590 -3.0807  1.2570
   89SAPC  H11B 8395   4.148   4.440   7.596  2.3559 -0.4147 -2.7659
   89SAPC     P 8396   3.865   4.551   7.546 -0.6388 -0.0280  0.3955
   89SAPC   O13 8397   3.829   4.416   7.594  0.1592 -0.7865 -0.5203
   89SAPC   O14 8398   3.840   4.668   7.638 -0.4167 -0.1962  0.2726
   89SAPC   O12 8399   4.009   4.551   7.484 -0.0195  0.3650 -0.0351
   89SAPC   O11 8400   3.779   4.581   7.411  0.2218  0.4903 -0.1322
   89SAPC    C1 8401   3.841   4.542   7.288  1.6619 -0.4628  0.2572
   89SAPC    HA 8402   3.885   4.440   7.294  0.8598 -0.7899  0.7978
   89SAPC    HB 8403   3.760   4.534   7.212  1.2046 -1.8850  0.8434
   89SAPC    C2 8404   3.934   4.647   7.226  0.9740  0.0154 -0.1824
   89SAPC    HS 8405   4.000   4.675   7.310  0.3851 -0.7611  0.5532
   89SAPC   O21 8406   3.848   4.754   7.179  0.3643  0.3613  0.0560
   89SAPC   C21 8407   3.904   4.867   7.157 -0.2519 -0.8323 -0.1283
   89SAPC   O22 8408   4.014   4.906   7.205  0.4938  0.2123 -0.1508
   89SAPC   C22 8409   3.815   4.963   7.079  1.0705  0.3637  0.2674
   89SAPC   H2R 8410   3.787   4.908   6.987  0.5966  0.9126  0.0752
   89SAPC   H2S 8411   3.722   4.991   7.134  0.1455 -0.1732 -0.9733
   89SAPC    C3 8412   4.025   4.585   7.119  0.5321  0.2661  0.4157
   89SAPC    HX 8413   4.083   4.497   7.155  0.8796  0.1293 -0.4435
   89SAPC    HY 8414   4.114   4.637   7.078  0.0285 -0.6152 -1.9484
   89SAPC   O31 8415   3.952   4.539   7.005  0.6550  0.6750 -0.3035
   89SAPC   C31 8416   3.931   4.412   6.993  0.3186  0.0657  0.5014
   89SAPC   O32 8417   3.955   4.326   7.079 -0.1548 -0.4967  0.2732
   89SAPC   C32 8418   3.874   4.378   6.854  0.6299 -0.3584  0.3083
   89SAPC   H2X 8419   3.950   4.401   6.777 -0.5621  0.7702 -0.5651
   89SAPC   H2Y 8420   3.781   4.435   6.832  1.4809 -0.3851 -4.4285
   89SAPC   C23 8421   3.891   5.094   7.038 -0.6316 -0.0883  0.4177
   89SAPC   H3R 8422   3.976   5.079   6.968 -0.9803  0.7574 -0.1938
   89SAPC   H3S 8423   3.942   5.129   7.130 -1.1808  1.5841  0.1152
   89SAPC   C24 8424   3.807   5.205   6.988 -0.7307 -0.0763  0.6351
   89SAPC   H4R 8425   3.863   5.291   6.945 -1.7932 -0.5047 -1.7786
   89SAPC   H4S 8426   3.750   5.246   7.075 -3.6633 -0.8717 -0.7769
   89SAPC   C25 8427   3.700   5.152   6.892  0.2889  0.8661 -0.6005
   89SAPC   H5R 8428   3.605   5.126   6.940  0.3660  1.5809 -0.0502
   89SAPC   C26 8429   3.706   5.146   6.760 -0.6659  0.1815  0.5963
   89SAPC   H6R 8430   3.627   5.097   6.701 -0.4151  0.6008 -0.1069
   89SAPC   C27 8431   3.822   5.214   6.680  0.7049  0.9977 -0.0489
   89SAPC   H7R 8432   3.909   5.224   6.749 -0.0198  0.4469  0.9812
   89SAPC   H7S 8433   3.807   5.323   6.666  1.0009  1.1106  0.4960
   89SAPC   C28 8434   3.877   5.135   6.560  0.5522 -1.1968  0.1831
   89SAPC   H8R 8435   3.823   5.143   6.465 -2.8506 -2.1150  1.8866
   89SAPC   C29 8436   3.978   5.046   6.562  0.7281 -0.7578  0.1563
   89SAPC   H9R 8437   4.016   5.013   6.464 -3.0077  0.5243 -1.9405
   89SAPC  C210 8438   4.059   5.012   6.679  0.0776 -0.0269  0.6694
   89SAPC  H10R 8439   4.052   5.093   6.754  1.4945  0.5732  0.1841
   89SAPC  H10S 8440   4.166   5.003   6.652  0.2865 -0.0768  1.4655
   89SAPC  C211 8441   4.004   4.889   6.746  0.3357 -0.0595  0.0825
   89SAPC  H11R 8442   3.912   4.911   6.803  0.1506 -1.2553  0.2738
   89SAPC  C212 8443   4.057   4.768   6.752  0.7635  0.4699  0.2507
   89SAPC  H12R 8444   3.990   4.693   6.795 -0.3511  1.4386  0.2676
   89SAPC  C213 8445   4.178   4.721   6.670 -0.4353  0.2559 -0.1125
   89SAPC  H13R 8446   4.217   4.794   6.597  1.2248  0.8876  1.3375
   89SAPC  H13S 8447   4.162   4.630   6.608  2.0793  0.8881 -1.8778
   89SAPC  C214 8448   4.298   4.693   6.759  0.5134 -0.9899 -0.7928
   89SAPC  H14R 8449   4.355   4.784   6.783 -1.1118 -0.2828  0.5694
   89SAPC  C215 8450   4.342   4.579   6.810  0.3410 -0.0301  0.2524
   89SAPC  H15R 8451   4.433   4.574   6.871 -0.3295  2.1627  1.5690
   89SAPC  C216 8452   4.281   4.444   6.788 -0.1198 -0.1510 -0.3826
   89SAPC  H16R 8453   4.185   4.448   6.732  0.8092 -1.1198 -2.1133
   89SAPC  H16S 8454   4.248   4.407   6.888 -1.1517 -0.1217 -0.6939
   89SAPC  C217 8455   4.380   4.337   6.731 -0.1254 -0.2518  0.1678
   89SAPC  H17R 8456   4.457   4.317   6.808  1.3132  3.7476  0.0475
   89SAPC  H17S 8457   4.433   4.388   6.647  1.5310  1.3399  2.0860
   89SAPC  C218 8458   4.304   4.220   6.677 -0.4649  0.2617  0.2906
   89SAPC  H18R 8459   4.309   4.192   6.570  2.6715 -1.1618  0.6859
   89SAPC  H18S 8460   4.197   4.222   6.708 -0.9248 -2.0359 -0.8786
   89SAPC  C219 8461   4.358   4.086   6.733  0.7664  0.0598  0.8260
   89SAPC  H19R 8462   4.469   4.090   6.731  0.8316  0.3888  2.9160
   89SAPC  H19S 8463   4.322   3.999   6.673 -0.9595  0.5138  1.1558
   89SAPC  C220 8464   4.321   4.082   6.880 -0.2696 -0.1925  0.0202
   89SAPC  H20R 8465   4.330   3.977   6.914 -1.7104 -1.3125 -2.7454
   89SAPC  H20S 8466   4.215   4.115   6.881 -0.3623 -0.4938  0.8118
   89SAPC  H20T 8467   4.380   4.155   6.939  1.4038 -0.0601 -1.7161
   89SAPC   C33 8468   3.848   4.226   6.836  0.1231  0.2873  0.7880
   89SAPC   H3X 8469   3.764   4.203   6.906 -0.6513  0.9047  0.0827
   89SAPC   H3Y 8470   3.935   4.161   6.858  0.8273  1.5866  2.0145
   89SAPC   C34 8471   3.801   4.182   6.687  0.1829 -0.5102 -0.0000
   89SAPC   H4X 8472   3.884   4.194   6.614 -1.6814  0.5869 -2.0601
   89SAPC   H4Y 8473   3.713   4.246   6.663  1.3195  0.5378 -1.6031
   89SAPC   C35 8474   3.769   4.030   6.688  0.4781  0.3295 -0.0336
   89SAPC   H5X 8475   3.677   4.020   6.749  1.1087  1.5565  1.1844
   89SAPC   H5Y 8476   3.859   3.988   6.739 -0.0414 -0.8960 -0.0959
   89SAPC   C36 8477   3.754   3.969   6.551  1.1555  0.1269  0.2415
   89SAPC   H6X 8478   3.704   4.041   6.483  0.6816  0.1667  0.6199
   89SAPC   H6Y 8479   3.680   3.887   6.563  2.2073 -0.8179  0.4229
   89SAPC   C37 8480   3.884   3.929   6.484  0.5485 -0.5638  0.9882
   89SAPC   H7X 8481   3.948   3.860   6.543  0.0800 -1.4805  0.4476
   89SAPC   H7Y 8482   3.943   4.023   6.479  0.7075 -0.6797  0.6500
   89SAPC   C38 8483   3.855   3.884   6.338  1.4269  0.8124  0.0654
   89SAPC   H8X 8484   3.819   3.971   6.279 -0.4419 -1.2547 -2.0769
   89SAPC   H8Y 8485   3.768   3.815   6.338  0.7221  1.5979 -2.1913
   89SAPC   C39 8486   3.976   3.828   6.260  0.1017 -0.1947  0.6375
   89SAPC   H9X 8487   3.999   3.726   6.297 -0.1735  0.1743  1.9052
   89SAPC   H9Y 8488   4.069   3.889   6.268  0.0541 -0.2140  1.4238
   89SAPC  C310 8489   3.937   3.810   6.108  0.2328 -0.8441 -0.7704
   89SAPC  H10X 8490   3.871   3.896   6.083  2.7488  1.7581  0.7987
   89SAPC  H10Y 8491   3.875   3.722   6.081  1.3355 -2.1322  0.6834
   89SAPC  C311 8492   4.058   3.791   6.018 -0.0642 -0.3242 -0.2433
   89SAPC  H11X 8493   4.118   3.700   6.038 -0.7605 -0.3478  1.9525
   89SAPC  H11Y 8494   4.117   3.882   6.041  0.1794 -1.2693  3.4928
   89SAPC  C312 8495   4.023   3.791   5.869 -0.0782 -0.3110 -0.8009
   89SAPC  H12X 8496   4.108   3.843   5.820 -0.6181  0.0279 -1.3979
   89SAPC  H12Y 8497   3.930   3.851   5.859 -0.1495  0.2725  2.4395
   89SAPC  C313 8498   4.000   3.651   5.809  0.0975  0.2029  0.7378
   89SAPC  H13X 8499   3.920   3.600   5.866 -1.3571  1.2760 -0.2701
   89SAPC  H13Y 8500   4.097   3.599   5.823  1.5210  1.3094 -3.4169
   89SAPC  C314 8501   3.971   3.638   5.656  0.0201 -0.0629 -0.8866
   89SAPC  H14X 8502   4.056   3.690   5.607  0.3992  2.2436  1.9783
   89SAPC  H14Y 8503   3.879   3.698   5.639  1.0897  3.3822  3.6275
   89SAPC  C315 8504   3.957   3.501   5.598 -0.5114 -0.5615  0.2251
   89SAPC  H15X 8505   3.917   3.513   5.495 -0.3264 -0.4931  0.1623
   89SAPC  H15Y 8506   3.886   3.442   5.661  0.8040 -2.9996 -0.4279
   89SAPC  C316 8507   4.082   3.409   5.576  0.1464  0.4309 -0.1817
   89SAPC  H16X 8508   4.125   3.397   5.677 -1.1217  2.0301  0.5901
   89SAPC  H16Y 8509   4.162   3.472   5.531  0.5845  0.2428  0.3299
   89SAPC  C317 8510   4.047   3.278   5.511 -0.3955  0.3505  0.0704
   89SAPC  H17X 8511   3.971   3.226   5.573  1.4828 -2.0914  0.4542
   89SAPC  H17Y 8512   4.138   3.216   5.505  1.5775  3.0597  0.2113
   89SAPC  C318 8513   3.977   3.299   5.375  0.8581 -0.8057 -0.0866
   89SAPC  H18X 8514   3.876   3.343   5.393  1.9561  1.4924  0.9323
   89SAPC  H18Y 8515   3.963   3.211   5.308 -0.6876 -0.6104 -0.0742
   89SAPC  H18Z 8516   4.042   3.372   5.321  5.0908 -1.8262  3.1432
   90SAPC     N 8517   0.640   1.220   7.810  0.1682  0.2689  1.3081
   90SAPC   C12 8518   0.589   1.249   7.665  0.0955 -0.2525  0.1670
   90SAPC  H12A 8519   0.495   1.302   7.676  0.3454  0.3247 -0.4141
   90SAPC  H12B 8520   0.574   1.161   7.604  1.2172  0.1246 -0.6892
   90SAPC   C13 8521   0.537   1.139   7.880 -0.2222  0.0103  0.1652
   90SAPC  H13A 8522   0.521   1.044   7.831 -1.5635  0.0612  0.4462
   90SAPC  H13B 8523   0.561   1.118   7.984 -3.2316 -0.5194  0.8658
   90SAPC  H13C 8524   0.441   1.188   7.871 -0.7032 -0.9852 -0.3329
   90SAPC   C14 8525   0.767   1.141   7.816  0.1525 -0.7457  0.2403
   90SAPC  H14A 8526   0.852   1.181   7.762  0.4429 -1.6365  0.0124
   90SAPC  H14B 8527   0.812   1.118   7.911 -0.1612 -0.7484  0.3865
   90SAPC  H14C 8528   0.744   1.047   7.767 -1.7638  0.1741 -0.7655
   90SAPC   C15 8529   0.667   1.350   7.875 -0.1703  0.5969  0.1595
   90SAPC  H15A 8530   0.569   1.396   7.878 -0.6451 -0.3963  0.3452
   90SAPC  H15B 8531   0.700   1.327   7.975  1.1547  0.0257 -0.4008
   90SAPC  H15C 8532   0.738   1.409   7.820  0.0059  0.2385  0.0071
   90SAPC   C11 8533   0.676   1.350   7.581  0.4345 -0.6379 -0.0406
   90SAPC  H11A 8534   0.662   1.455   7.616  2.5981 -0.4531  0.3942
   90SAPC  H11B 8535   0.625   1.326   7.486  1.4057 -1.1454 -0.4450
   90SAPC     P 8536   0.882   1.211   7.464  0.4447 -0.2866  0.3026
   90SAPC   O13 8537   1.027   1.214   7.479  0.2487 -0.0405  0.0001
   90SAPC   O14 8538   0.805   1.085   7.441 -0.5490  0.0490 -0.1073
   90SAPC   O12 8539   0.815   1.305   7.573  0.1538 -0.4536 -0.4173
   90SAPC   O11 8540   0.846   1.304   7.342  0.2151 -0.2991  0.7965
   90SAPC    C1 8541   0.937   1.395   7.280 -0.1258  0.0143  0.1365
   90SAPC    HA 8542   1.037   1.350   7.264  0.4929  0.7905  1.6813
   90SAPC    HB 8543   0.889   1.411   7.180  0.1328 -0.3040 -0.0414
   90SAPC    C2 8544   0.953   1.540   7.336 -0.1751 -0.2153 -0.3502
   90SAPC    HS 8545   0.991   1.532   7.440  0.9864  0.1305 -0.7348
   90SAPC   O21 8546   0.822   1.601   7.340 -0.7987  0.4461  0.1142
   90SAPC   C21 8547   0.807   1.709   7.405  0.4033 -0.1531 -0.5846
   90SAPC   O22 8548   0.894   1.760   7.472 -0.3793 -0.5164 -0.3297
   90SAPC   C22 8549   0.664   1.760   7.386 -0.6069  0.3315  0.0420
   90SAPC   H2R 8550   0.600   1.669   7.396  0.0144 -0.0081  1.0839
   90SAPC   H2S 8551   0.632   1.832   7.464  0.5997 -1.6413  2.5088
   90SAPC    C3 8552   1.063   1.625   7.260 -0.9462  0.7004 -0.0876
   90SAPC    HX 8553   1.159   1.570   7.261 -2.2063 -1.6662 -1.8487
   90SAPC    HY 8554   1.078   1.717   7.321  2.2514  1.6283 -2.0104
   90SAPC   O31 8555   1.007   1.658   7.130 -0.3499 -0.1170  0.6737
   90SAPC   C31 8556   1.066   1.592   7.028  0.2872  0.3103 -0.2959
   90SAPC   O32 8557   1.155   1.517   7.047 -0.5152  0.6682  0.7392
   90SAPC   C32 8558   0.992   1.631   6.891 -0.5302  0.1129  0.3441
   90SAPC   H2X 8559   0.930   1.724   6.896  0.5521  0.9881 -1.5282
   90SAPC   H2Y 8560   0.924   1.544   6.876  0.6771 -0.8032  0.0842
   90SAPC   C23 8561   0.636   1.821   7.250 -0.7272 -0.4235 -0.2402
   90SAPC   H3R 8562   0.528   1.832   7.226 -0.3259  0.6880 -1.6950
   90SAPC   H3S 8563   0.687   1.760   7.172  0.0637 -0.0018 -0.0667
   90SAPC   C24 8564   0.681   1.968   7.241  0.7209 -0.1371 -0.7724
   90SAPC   H4R 8565   0.673   2.013   7.342 -0.1473 -2.1779  0.1280
   90SAPC   H4S 8566   0.600   2.022   7.187 -0.1543  0.2323  0.8338
   90SAPC   C25 8567   0.824   1.980   7.198 -0.1241 -0.4990 -0.4177
   90SAPC   H5R 8568   0.902   1.920   7.247  0.6054  0.7635  0.0091
   90SAPC   C26 8569   0.871   2.052   7.097 -0.7755  0.6949 -0.0057
   90SAPC   H6R 8570   0.981   2.054   7.087 -0.5414 -0.1795  1.8580
   90SAPC   C27 8571   0.784   2.150   7.016 -0.0456 -0.7126 -0.5934
   90SAPC   H7R 8572   0.853   2.214   6.956 -0.0816  0.7474  0.8344
   90SAPC   H7S 8573   0.734   2.212   7.093  0.6452  0.5363 -1.1172
   90SAPC   C28 8574   0.665   2.100   6.936  0.6007  0.2599  0.0190
   90SAPC   H8R 8575   0.570   2.078   6.987  1.2294  0.7550  1.4292
   90SAPC   C29 8576   0.679   2.067   6.803 -0.3890 -0.4074  0.6720
   90SAPC   H9R 8577   0.595   2.029   6.744 -0.2620 -0.2599  0.3919
   90SAPC  C210 8578   0.811   2.084   6.725  1.3280  0.5959 -0.0443
   90SAPC  H10R 8579   0.899   2.044   6.779  0.7018  0.1119  0.6403
   90SAPC  H10S 8580   0.829   2.193   6.714  0.7534  0.8626  1.3408
   90SAPC  C211 8581   0.809   2.010   6.594  0.4643 -0.3933 -0.1975
   90SAPC  H11R 8582   0.821   1.901   6.600  1.4546 -0.2216  1.7136
   90SAPC  C212 8583   0.777   2.068   6.477  0.4023 -0.0753 -0.5820
   90SAPC  H12R 8584   0.791   1.998   6.394 -0.6553  0.5320 -1.3017
   90SAPC  C213 8585   0.746   2.204   6.440 -0.2348 -0.0919 -0.0100
   90SAPC  H13R 8586   0.720   2.269   6.526 -2.1457 -1.5616  0.5966
   90SAPC  H13S 8587   0.655   2.209   6.377 -0.2560 -1.7068 -0.1587
   90SAPC  C214 8588   0.866   2.268   6.378  0.0772 -0.1127  0.3300
   90SAPC  H14R 8589   0.961   2.247   6.429  0.6999 -0.1879 -0.8480
   90SAPC  C215 8590   0.876   2.334   6.265  0.4069 -0.3780  0.0887
   90SAPC  H15R 8591   0.974   2.376   6.236  0.3611  0.0824  0.5767
   90SAPC  C216 8592   0.768   2.362   6.162  0.4055 -0.0499  0.9729
   90SAPC  H16R 8593   0.764   2.470   6.137 -1.3243  0.2957  2.5072
   90SAPC  H16S 8594   0.666   2.339   6.201 -0.4625  0.4468 -0.9272
   90SAPC  C217 8595   0.808   2.277   6.031 -0.3963 -0.1837  0.3584
   90SAPC  H17R 8596   0.722   2.295   5.963 -1.5046 -0.0042  1.7669
   90SAPC  H17S 8597   0.799   2.168   6.045 -1.4443 -0.4894 -2.0945
   90SAPC  C218 8598   0.936   2.331   5.961 -0.1291  0.5197  0.5866
   90SAPC  H18R 8599   1.022   2.289   6.017 -1.3548  0.2121  2.3166
   90SAPC  H18S 8600   0.943   2.442   5.954  0.6116  0.3557 -2.9189
   90SAPC  C219 8601   0.955   2.285   5.815  0.2421 -0.1823 -0.6576
   90SAPC  H19R 8602   0.867   2.331   5.765  0.3791 -0.2866 -0.9967
   90SAPC  H19S 8603   0.941   2.175   5.805 -0.9505 -0.0826 -0.2333
   90SAPC  C220 8604   1.088   2.340   5.753 -0.0888  0.3803 -0.8363
   90SAPC  H20R 8605   1.074   2.304   5.649  0.8286 -0.0925 -0.8074
   90SAPC  H20S 8606   1.180   2.296   5.797 -1.9838 -0.3967  2.7283
   90SAPC  H20T 8607   1.100   2.450   5.763  0.0627  0.2545  0.5744
   90SAPC   C33 8608   1.076   1.657   6.762 -0.4878 -0.5308 -0.5014
   90SAPC   H3X 8609   1.143   1.573   6.733  0.7589  0.8293 -1.6868
   90SAPC   H3Y 8610   1.149   1.738   6.778 -2.7512  1.4386  0.4183
   90SAPC   C34 8611   1.005   1.677   6.624 -0.0948  0.3471 -0.5312
   90SAPC   H4X 8612   0.944   1.769   6.635  0.6199  0.8097 -0.4142
   90SAPC   H4Y 8613   0.933   1.592   6.616 -0.9029  0.6971  2.2233
   90SAPC   C35 8614   1.102   1.677   6.505  0.2171  0.0999 -0.3183
   90SAPC   H5X 8615   1.176   1.598   6.526  0.6098  0.6827  0.5171
   90SAPC   H5Y 8616   1.165   1.767   6.489  1.9706 -0.8581  0.9580
   90SAPC   C36 8617   1.018   1.658   6.376  0.0020  0.1205 -0.5060
   90SAPC   H6X 8618   0.920   1.614   6.404  0.9301 -0.4810  2.0582
   90SAPC   H6Y 8619   1.062   1.583   6.307  0.0901 -0.9651  0.6888
   90SAPC   C37 8620   1.001   1.794   6.297  0.4086 -0.2930  0.4966
   90SAPC   H7X 8621   1.096   1.841   6.261 -0.7514  1.8498  0.0830
   90SAPC   H7Y 8622   0.964   1.875   6.364 -1.3412  0.1276 -0.9277
   90SAPC   C38 8623   0.904   1.773   6.184  0.4448 -0.3834  0.0026
   90SAPC   H8X 8624   0.804   1.745   6.222  0.1776 -0.0904 -0.4726
   90SAPC   H8Y 8625   0.940   1.691   6.118 -1.1183 -3.3720  2.6195
   90SAPC   C39 8626   0.891   1.905   6.108  0.6304  0.0129  0.3898
   90SAPC   H9X 8627   0.991   1.954   6.110  0.4473  0.4322 -0.4508
   90SAPC   H9Y 8628   0.821   1.974   6.160  1.6096  0.0662  1.6941
   90SAPC  C310 8629   0.860   1.889   5.956  0.2333  0.1011 -0.5000
   90SAPC  H10X 8630   0.917   1.802   5.918  0.6736  0.5522 -0.8974
   90SAPC  H10Y 8631   0.910   1.966   5.893  0.0331  0.3732 -0.3323
   90SAPC  C311 8632   0.714   1.889   5.916  0.1279 -0.8811 -0.2582
   90SAPC  H11X 8633   0.676   1.986   5.954  0.7035  0.2541 -2.4179
   90SAPC  H11Y 8634   0.661   1.802   5.961  2.7148 -1.8507  1.1465
   90SAPC  C312 8635   0.690   1.886   5.757  0.1262 -0.1127 -0.2514
   90SAPC  H12X 8636   0.583   1.869   5.730  0.0730  1.4470 -1.1876
   90SAPC  H12Y 8637   0.743   1.802   5.707 -0.6950 -1.2251  0.6893
   90SAPC  C313 8638   0.742   2.009   5.683  0.4183 -0.1298 -0.5177
   90SAPC  H13X 8639   0.851   2.018   5.703 -0.0955  1.9450  1.9090
   90SAPC  H13Y 8640   0.711   2.105   5.731  0.3069 -0.1667 -0.5148
   90SAPC  C314 8641   0.698   2.006   5.532 -0.1478 -0.5183  0.4071
   90SAPC  H14X 8642   0.587   2.010   5.530 -0.2097 -1.6365  0.7890
   90SAPC  H14Y 8643   0.740   1.910   5.494  1.5662  0.5686 -0.5483
   90SAPC  C315 8644   0.758   2.124   5.463 -0.4297  0.4178  0.0165
   90SAPC  H15X 8645   0.868   2.131   5.481  0.5969 -3.9008 -2.8891
   90SAPC  H15Y 8646   0.707   2.216   5.496  0.0336  1.0882 -1.0939
   90SAPC  C316 8647   0.739   2.118   5.309  0.0278  0.1341 -0.0082
   90SAPC  H16X 8648   0.756   2.220   5.268  0.1939  0.1930  0.2012
   90SAPC  H16Y 8649   0.634   2.088   5.291 -0.3475  0.8894  0.7963
   90SAPC  C317 8650   0.838   2.032   5.242 -0.1186  0.2631  1.1735
   90SAPC  H17X 8651   0.823   1.926   5.273 -3.1003 -0.2015 -1.3142
   90SAPC  H17Y 8652   0.941   2.066   5.262  1.0138 -1.8780 -0.5483
   90SAPC  C318 8653   0.833   2.038   5.087  0.1917 -0.5602 -0.3543
   90SAPC  H18X 8654   0.742   2.000   5.037 -0.3192 -0.7684  0.7119
   90SAPC  H18Y 8655   0.925   1.991   5.047  0.4211 -0.2721 -0.1733
   90SAPC  H18Z 8656   0.836   2.147   5.066 -1.9382 -0.4601 -0.3515
   91SAPC     N 8657   4.589   2.122   7.876  0.0638  0.1700 -0.1484
   91SAPC   C12 8658   4.662   2.140   8.001 -0.4832  0.0007 -0.3732
   91SAPC  H12A 8659   4.756   2.087   7.987  0.2851  2.0385 -4.3627
   91SAPC  H12B 8660   4.616   2.089   8.085 -1.0080 -0.2694 -0.8181
   91SAPC   C13 8661   4.448   2.170   7.901 -0.2304 -0.6873 -0.5994
   91SAPC  H13A 8662   4.396   2.098   7.962  1.1076 -0.5545  0.7345
   91SAPC  H13B 8663   4.462   2.267   7.946 -1.1637 -0.0125 -1.6954
   91SAPC  H13C 8664   4.392   2.183   7.809 -0.0853 -1.4806 -0.8094
   91SAPC   C14 8665   4.652   2.206   7.773  0.5234 -0.2530 -0.6070
   91SAPC  H14A 8666   4.626   2.311   7.783 -0.0475 -0.3781 -0.7788
   91SAPC  H14B 8667   4.759   2.196   7.780  0.3237 -1.9677  0.6626
   91SAPC  H14C 8668   4.623   2.167   7.677 -0.5001 -2.2640  0.4605
   91SAPC   C15 8669   4.591   1.981   7.833 -0.0529  0.5401  0.3276
   91SAPC  H15A 8670   4.550   1.917   7.910  2.5533 -1.8536 -0.1208
   91SAPC  H15B 8671   4.549   1.964   7.735  1.2853 -2.1436  0.1300
   91SAPC  H15C 8672   4.692   1.943   7.822 -0.8044 -1.3522 -0.4952
   91SAPC   C11 8673   4.699   2.287   8.050  0.5651 -0.5341  0.1220
   91SAPC  H11A 8674   4.783   2.318   7.984  0.2941 -2.5360 -1.2361
   91SAPC  H11B 8675   4.744   2.275   8.150  2.2693 -1.0085 -0.6624
   91SAPC     P 8676   4.615   2.528   8.009 -0.0945 -0.0361  0.0425
   91SAPC   O13 8677   4.490   2.605   7.992  0.3554 -0.4444 -0.2730
   91SAPC   O14 8678   4.701   2.581   8.118  0.7050 -0.1194 -0.3152
   91SAPC   O12 8679   4.585   2.374   8.042  0.3373  0.3472 -0.7978
   91SAPC   O11 8680   4.696   2.522   7.866 -0.0834 -0.1263 -0.8293
   91SAPC    C1 8681   4.621   2.563   7.752 -0.6758  0.4956 -0.0713
   91SAPC    HA 8682   4.538   2.491   7.739  0.0760 -0.6321  1.0780
   91SAPC    HB 8683   4.582   2.666   7.763  2.0272  1.6428 -0.2748
   91SAPC    C2 8684   4.715   2.559   7.635 -0.3407 -0.3503 -0.3289
   91SAPC    HS 8685   4.752   2.455   7.632  2.2102  0.1526  4.3149
   91SAPC   O21 8686   4.817   2.663   7.643 -0.0520  0.2642 -0.2275
   91SAPC   C21 8687   4.930   2.614   7.606 -0.5615 -1.0933 -0.4514
   91SAPC   O22 8688   4.949   2.509   7.542  0.3882  0.1650 -0.0204
   91SAPC   C22 8689   5.045   2.716   7.636  0.0073  0.4558 -0.3208
   91SAPC   H2R 8690   4.991   2.777   7.711 -2.4069 -0.0215 -1.5809
   91SAPC   H2S 8691   5.131   2.656   7.672 -0.8063 -0.3911  0.2421
   91SAPC    C3 8692   4.624   2.584   7.505  0.0617 -0.4593  0.3193
   91SAPC    HX 8693   4.581   2.687   7.513 -0.2633 -0.6848  1.7077
   91SAPC    HY 8694   4.541   2.511   7.496 -1.1894  1.1339 -3.1091
   91SAPC   O31 8695   4.708   2.562   7.394  0.1057  0.3457  0.6985
   91SAPC   C31 8696   4.737   2.446   7.355  0.3878 -0.0433  0.0057
   91SAPC   O32 8697   4.682   2.343   7.395  0.0038  0.5162 -0.5925
   91SAPC   C32 8698   4.837   2.449   7.245 -0.1638 -0.6334  0.5673
   91SAPC   H2X 8699   4.931   2.502   7.271  0.9226 -1.5381 -1.2515
   91SAPC   H2Y 8700   4.795   2.485   7.148 -0.3850 -1.6428  0.2752
   91SAPC   C23 8701   5.085   2.814   7.519  0.0818 -0.1703  0.1135
   91SAPC   H3R 8702   5.108   2.749   7.431 -0.1650  0.1998 -0.2271
   91SAPC   H3S 8703   5.180   2.865   7.544  0.1314  1.0915 -2.3709
   91SAPC   C24 8704   4.983   2.924   7.477 -0.4346 -0.0113 -0.6503
   91SAPC   H4R 8705   5.041   2.990   7.410 -0.5756  0.7453 -0.0337
   91SAPC   H4S 8706   4.963   2.979   7.571  2.1836 -2.4342  1.5048
   91SAPC   C25 8707   4.854   2.889   7.412  0.0326 -0.2922 -0.0814
   91SAPC   H5R 8708   4.767   2.879   7.478  0.3505 -1.7379  0.1529
   91SAPC   C26 8709   4.833   2.859   7.279 -0.1798  0.2251 -0.0435
   91SAPC   H6R 8710   4.728   2.836   7.255 -0.2693 -1.9005  1.9635
   91SAPC   C27 8711   4.938   2.846   7.173  0.3943  0.2521  0.2780
   91SAPC   H7R 8712   4.921   2.740   7.144 -0.0884  0.2367  0.6046
   91SAPC   H7S 8713   5.040   2.845   7.217  0.1674  1.6051  0.9120
   91SAPC   C28 8714   4.915   2.935   7.058 -0.2076  0.3290  0.2588
   91SAPC   H8R 8715   4.995   3.008   7.037  0.1911 -0.0527  0.4344
   91SAPC   C29 8716   4.815   2.948   6.974  0.2068 -0.2852  0.5713
   91SAPC   H9R 8717   4.819   3.022   6.893  2.7370  0.6914  1.4912
   91SAPC  C210 8718   4.688   2.870   6.963 -0.2947  0.8654  0.5954
   91SAPC  H10R 8719   4.698   2.776   7.022 -0.2855  0.3223 -0.2554
   91SAPC  H10S 8720   4.681   2.837   6.857 -1.8444 -1.4619  1.3418
   91SAPC  C211 8721   4.565   2.949   6.995  0.1538  0.6116  0.8409
   91SAPC  H11R 8722   4.576   2.997   7.093 -0.0825 -0.7263  1.5556
   91SAPC  C212 8723   4.442   2.946   6.938 -0.0577  0.4314  0.8636
   91SAPC  H12R 8724   4.361   3.010   6.978 -0.8484  0.5999 -0.9196
   91SAPC  C213 8725   4.403   2.862   6.821  0.2894 -0.2215 -0.4055
   91SAPC  H13R 8726   4.309   2.812   6.850  0.6394 -1.5978 -1.5457
   91SAPC  H13S 8727   4.481   2.785   6.806  0.6654 -0.2563  1.4619
   91SAPC  C214 8728   4.366   2.937   6.694 -0.0796  0.1887 -0.2632
   91SAPC  H14R 8729   4.444   3.012   6.672  1.0994 -0.7936  0.4859
   91SAPC  C215 8730   4.268   2.919   6.606  0.0400 -0.1015 -0.7271
   91SAPC  H15R 8731   4.261   2.994   6.526  1.3352  2.3953  1.3700
   91SAPC  C216 8732   4.159   2.819   6.608  0.0486  0.2850  0.2162
   91SAPC  H16R 8733   4.060   2.868   6.614  0.2482  0.6209  0.8851
   91SAPC  H16S 8734   4.187   2.742   6.684  1.7135  1.6942  1.1200
   91SAPC  C217 8735   4.155   2.729   6.484  0.0027  0.4144  0.2459
   91SAPC  H17R 8736   4.090   2.643   6.508  0.1240  0.3387  0.3049
   91SAPC  H17S 8737   4.251   2.678   6.461 -1.5267 -1.1607 -3.5453
   91SAPC  C218 8738   4.116   2.809   6.363 -0.1240 -0.4217 -0.4961
   91SAPC  H18R 8739   4.152   2.914   6.363 -2.2245  0.3456 -0.2693
   91SAPC  H18S 8740   4.006   2.821   6.352  0.0146 -0.3764 -2.0209
   91SAPC  C219 8741   4.165   2.742   6.229  0.0466 -0.3957  0.3474
   91SAPC  H19R 8742   4.097   2.767   6.145  1.4556  0.5154 -0.5706
   91SAPC  H19S 8743   4.159   2.632   6.241  1.9489 -0.4985  0.7599
   91SAPC  C220 8744   4.317   2.762   6.196 -0.2714 -0.0393  0.2783
   91SAPC  H20R 8745   4.392   2.734   6.274  0.0401 -1.0187 -0.3612
   91SAPC  H20S 8746   4.328   2.870   6.174  1.7725 -0.1502  0.5034
   91SAPC  H20T 8747   4.344   2.705   6.105  2.5347  0.1934  0.8574
   91SAPC   C33 8748   4.888   2.300   7.212 -0.6991  0.2477  0.3026
   91SAPC   H3X 8749   4.816   2.231   7.163 -1.2214 -0.6709  2.2354
   91SAPC   H3Y 8750   4.930   2.247   7.301 -1.3069 -0.5824  0.1119
   91SAPC   C34 8751   5.015   2.295   7.124  0.0841  0.7175 -0.2596
   91SAPC   H4X 8752   5.046   2.188   7.125 -1.8357  0.1177 -0.6506
   91SAPC   H4Y 8753   5.092   2.358   7.173 -0.2428  0.9503 -0.0437
   91SAPC   C35 8754   5.005   2.341   6.975  0.1815  0.5988  0.1252
   91SAPC   H5X 8755   4.986   2.450   6.985 -0.2279  0.3980  1.9037
   91SAPC   H5Y 8756   4.912   2.290   6.944 -0.1913  1.2539  0.1539
   91SAPC   C36 8757   5.120   2.307   6.888 -0.6197  0.4312 -0.4827
   91SAPC   H6X 8758   5.134   2.196   6.890 -0.9726  0.3694 -1.1037
   91SAPC   H6Y 8759   5.218   2.347   6.920  0.4528 -2.6986  0.5788
   91SAPC   C37 8760   5.089   2.353   6.747 -0.2696  0.0029  0.1070
   91SAPC   H7X 8761   5.028   2.445   6.758  0.5845  0.6384 -0.4491
   91SAPC   H7Y 8762   5.030   2.269   6.703 -0.2098 -0.4563  0.8760
   91SAPC   C38 8763   5.206   2.390   6.659  0.4551 -0.5118  0.2508
   91SAPC   H8X 8764   5.275   2.304   6.668  0.6722 -0.5503 -1.4325
   91SAPC   H8Y 8765   5.266   2.473   6.703  1.1661 -0.0862 -1.4236
   91SAPC   C39 8766   5.174   2.428   6.515  0.0509 -0.6560 -0.4794
   91SAPC   H9X 8767   5.090   2.499   6.508 -0.4106 -1.1466  0.0144
   91SAPC   H9Y 8768   5.149   2.328   6.474  1.1821 -0.8978 -0.6197
   91SAPC  C310 8769   5.294   2.477   6.435  0.2278  0.0257 -0.0837
   91SAPC  H10X 8770   5.378   2.405   6.452  0.2439 -0.4515 -1.9677
   91SAPC  H10Y 8771   5.340   2.572   6.470 -2.2221  1.6186 -0.9707
   91SAPC  C311 8772   5.267   2.498   6.281  0.4770 -0.0640 -1.2229
   91SAPC  H11X 8773   5.255   2.398   6.235 -1.2818  0.1804 -1.3676
   91SAPC  H11Y 8774   5.362   2.544   6.247  1.6002 -1.1091  0.3251
   91SAPC  C312 8775   5.146   2.589   6.249 -0.2954  0.6075 -0.3930
   91SAPC  H12X 8776   5.176   2.655   6.165 -0.5714  1.0451 -0.1526
   91SAPC  H12Y 8777   5.130   2.661   6.332  1.6989 -0.4668  0.9863
   91SAPC  C313 8778   5.020   2.515   6.209  0.7829  0.4482  0.7042
   91SAPC  H13X 8779   4.968   2.476   6.299 -1.6823 -0.8732 -1.1734
   91SAPC  H13Y 8780   5.034   2.432   6.136 -1.8493  1.0360 -0.5860
   91SAPC  C314 8781   4.903   2.601   6.145 -0.2951  0.0237 -0.2694
   91SAPC  H14X 8782   4.889   2.689   6.211  2.2017  1.7640 -1.8597
   91SAPC  H14Y 8783   4.820   2.528   6.151 -1.7819  1.7060  0.7081
   91SAPC  C315 8784   4.943   2.662   6.007 -0.3685  0.0779  0.0201
   91SAPC  H15X 8785   5.053   2.669   5.994 -0.0994  0.0876  2.0737
   91SAPC  H15Y 8786   4.912   2.768   5.994  3.5529  1.3707 -0.0243
   91SAPC  C316 8787   4.880   2.594   5.891  0.2387 -0.2469  0.1535
   91SAPC  H16X 8788   4.907   2.655   5.802  0.8215 -0.4851  0.1606
   91SAPC  H16Y 8789   4.771   2.608   5.909  0.3712  0.4500  0.4601
   91SAPC  C317 8790   4.904   2.442   5.881 -0.4905 -0.7988 -0.0910
   91SAPC  H17X 8791   4.843   2.393   5.959  0.5197 -1.4238  0.3189
   91SAPC  H17Y 8792   5.011   2.431   5.906  0.0910 -2.9191 -3.0221
   91SAPC  C318 8793   4.877   2.387   5.748 -0.3700 -0.2423  0.1677
   91SAPC  H18X 8794   4.949   2.430   5.675  1.9821 -2.6016  0.9493
   91SAPC  H18Y 8795   4.774   2.400   5.707 -1.8367 -1.4423  3.1837
   91SAPC  H18Z 8796   4.900   2.278   5.746  0.9958  0.0058  0.9036
   92SAPC     N 8797   5.389   6.705   8.319  0.1745  0.3993  0.0133
   92SAPC   C12 8798   5.523   6.752   8.267 -0.5886  0.0515 -0.3488
   92SAPC  H12A 8799   5.589   6.667   8.267 -0.7326 -0.0638  0.4904
   92SAPC  H12B 8800   5.560   6.828   8.335  1.4023 -1.9728  0.9447
   92SAPC   C13 8801   5.307   6.822   8.357  0.2687 -0.0605 -0.6134
   92SAPC  H13A 8802   5.261   6.881   8.279 -0.5547 -0.2891 -0.3114
   92SAPC  H13B 8803   5.236   6.788   8.432 -0.8967  1.5665 -0.9393
   92SAPC  H13C 8804   5.360   6.890   8.421  1.1401  0.5227 -1.9143
   92SAPC   C14 8805   5.305   6.603   8.231 -0.3435  0.6960 -0.3379
   92SAPC  H14A 8806   5.200   6.625   8.239 -0.5893  0.2377 -1.9912
   92SAPC  H14B 8807   5.326   6.606   8.125  1.7318 -0.2393 -0.0065
   92SAPC  H14C 8808   5.320   6.501   8.264 -0.0335  0.1161 -2.1412
   92SAPC   C15 8809   5.415   6.643   8.454  0.3102 -0.0332 -0.8177
   92SAPC  H15A 8810   5.501   6.579   8.451  0.8963  0.7635 -2.7459
   92SAPC  H15B 8811   5.439   6.728   8.515  0.1548 -0.3303 -0.3398
   92SAPC  H15C 8812   5.333   6.586   8.494  1.0639 -2.5222 -2.5487
   92SAPC   C11 8813   5.515   6.818   8.129 -0.1275  0.4450 -0.1022
   92SAPC  H11A 8814   5.598   6.890   8.112 -0.0775  0.3165 -0.4022
   92SAPC  H11B 8815   5.422   6.877   8.115 -1.8340 -1.9964  0.3052
   92SAPC     P 8816   5.670   6.648   7.992  0.3435 -0.2170  0.0278
   92SAPC   O13 8817   5.755   6.648   8.111  0.7218  0.0023 -0.0459
   92SAPC   O14 8818   5.637   6.522   7.923 -0.3278 -0.3341  0.2879
   92SAPC   O12 8819   5.528   6.706   8.039  0.2030 -0.0806  0.3935
   92SAPC   O11 8820   5.716   6.756   7.889 -0.3587 -0.2955  0.0362
   92SAPC    C1 8821   5.640   6.822   7.790 -0.3174  0.1153  0.0704
   92SAPC    HA 8822   5.530   6.819   7.808 -0.0117  0.1396  2.2435
   92SAPC    HB 8823   5.668   6.929   7.782  0.9005 -0.3180 -2.7457
   92SAPC    C2 8824   5.652   6.759   7.654 -0.4664  0.3937  1.0773
   92SAPC    HS 8825   5.597   6.662   7.658  0.3693 -0.1865 -0.7053
   92SAPC   O21 8826   5.792   6.746   7.623 -0.7903 -0.5612 -0.2075
   92SAPC   C21 8827   5.827   6.640   7.550 -0.0484  0.6610  0.8227
   92SAPC   O22 8828   5.760   6.535   7.529 -0.1584 -0.2170 -0.6450
   92SAPC   C22 8829   5.966   6.647   7.484 -0.2854  0.2758  0.2412
   92SAPC   H2R 8830   6.040   6.682   7.559  0.6722  1.5467 -1.2422
   92SAPC   H2S 8831   5.987   6.542   7.457  0.7381  0.1508  1.4721
   92SAPC    C3 8832   5.600   6.843   7.537 -0.0632  0.6603  0.5141
   92SAPC    HX 8833   5.675   6.925   7.533 -1.0116  1.8690  4.1430
   92SAPC    HY 8834   5.503   6.889   7.568 -0.1215  1.3580 -0.6407
   92SAPC   O31 8835   5.602   6.762   7.414  0.2182  0.4644  0.0150
   92SAPC   C31 8836   5.491   6.686   7.391 -0.4039 -0.0507 -0.0661
   92SAPC   O32 8837   5.389   6.694   7.450  0.2026 -0.3387  0.0284
   92SAPC   C32 8838   5.524   6.598   7.269  0.5817 -0.2440  0.2228
   92SAPC   H2X 8839   5.606   6.526   7.290 -1.1390 -2.6427 -0.7481
   92SAPC   H2Y 8840   5.562   6.662   7.187  0.3969 -0.5668 -0.1210
   92SAPC   C23 8841   5.969   6.737   7.356 -0.1125  0.6779 -0.1802
   92SAPC   H3R 8842   5.954   6.846   7.375  0.6513  1.3104 -2.7836
   92SAPC   H3S 8843   5.890   6.688   7.295  1.5828 -2.0403 -0.3363
   92SAPC   C24 8844   6.099   6.713   7.278  0.0566  0.2333 -0.2803
   92SAPC   H4R 8845   6.083   6.743   7.172 -0.5797  3.0359  0.5298
   92SAPC   H4S 8846   6.111   6.602   7.271 -0.8524 -0.0216  1.5831
   92SAPC   C25 8847   6.212   6.783   7.349  0.2829 -0.0768  0.2091
   92SAPC   H5R 8848   6.217   6.766   7.458 -0.5790  0.5227  0.3501
   92SAPC   C26 8849   6.290   6.882   7.303  0.5204 -0.6022  0.1033
   92SAPC   H6R 8850   6.355   6.945   7.365  1.0484  0.6886 -1.6848
   92SAPC   C27 8851   6.279   6.943   7.167 -0.3696  0.0220 -0.7961
   92SAPC   H7R 8852   6.252   7.050   7.182  3.2751  1.1664 -1.3513
   92SAPC   H7S 8853   6.204   6.899   7.099 -0.2986 -2.7263  0.7559
   92SAPC   C28 8854   6.416   6.936   7.099 -0.5957  0.1293  0.0462
   92SAPC   H8R 8855   6.502   6.969   7.158  1.1573 -0.0567 -2.2807
   92SAPC   C29 8856   6.436   6.895   6.974 -0.1411  0.0838  0.0137
   92SAPC   H9R 8857   6.540   6.889   6.939  0.7097  1.8008  2.0158
   92SAPC  C210 8858   6.335   6.855   6.874  0.0953  0.3868  0.0345
   92SAPC  H10R 8859   6.327   6.923   6.787 -2.9773 -2.1665 -1.9145
   92SAPC  H10S 8860   6.230   6.855   6.912 -0.1471  0.1111 -0.6226
   92SAPC  C211 8861   6.358   6.716   6.815  0.7902 -0.4535  0.2303
   92SAPC  H11R 8862   6.286   6.641   6.853 -2.0954  1.7578 -0.4829
   92SAPC  C212 8863   6.454   6.673   6.736  0.0300 -0.5583 -0.5719
   92SAPC  H12R 8864   6.473   6.565   6.737 -0.2805 -0.6186 -1.0548
   92SAPC  C213 8865   6.568   6.752   6.671 -0.6692 -0.0261 -0.8349
   92SAPC  H13R 8866   6.660   6.734   6.731 -3.0082 -2.3641  2.4118
   92SAPC  H13S 8867   6.547   6.858   6.701  0.5428 -0.5156  2.1483
   92SAPC  C214 8868   6.595   6.738   6.517 -0.5581 -0.3553 -1.5745
   92SAPC  H14R 8869   6.682   6.675   6.492 -0.3949 -0.7608 -0.0793
   92SAPC  C215 8870   6.524   6.802   6.423 -0.4340  0.6355 -0.3649
   92SAPC  H15R 8871   6.543   6.780   6.316  1.7519 -0.3448  0.1726
   92SAPC  C216 8872   6.410   6.899   6.457 -0.2934 -0.6142  0.2153
   92SAPC  H16R 8873   6.400   6.922   6.565  2.5417 -1.2498  0.6974
   92SAPC  H16S 8874   6.309   6.869   6.424 -0.4032 -1.3509  1.1806
   92SAPC  C217 8875   6.446   7.039   6.392  0.2899 -0.1642 -0.0291
   92SAPC  H17R 8876   6.536   7.077   6.444 -1.2993 -0.8554  3.4737
   92SAPC  H17S 8877   6.373   7.120   6.410  0.4965 -0.2372  1.1935
   92SAPC  C218 8878   6.462   7.042   6.232 -0.7068  0.7618 -0.5435
   92SAPC  H18R 8879   6.360   7.010   6.202 -1.5172 -0.0824  2.7107
   92SAPC  H18S 8880   6.528   6.966   6.186  0.3262  2.0238 -1.2236
   92SAPC  C219 8881   6.495   7.178   6.181  0.3301  0.2258  0.0690
   92SAPC  H19R 8882   6.593   7.209   6.224  0.3255 -0.9056  0.9493
   92SAPC  H19S 8883   6.422   7.248   6.227 -0.1769 -0.3840  0.2023
   92SAPC  C220 8884   6.491   7.195   6.030  0.6681  0.4559  0.5880
   92SAPC  H20R 8885   6.503   7.304   6.007 -1.5791  0.9371  1.4814
   92SAPC  H20S 8886   6.390   7.169   5.993  0.7764 -0.7133  1.0992
   92SAPC  H20T 8887   6.568   7.136   5.976 -2.0525 -0.9233 -2.0254
   92SAPC   C33 8888   5.404   6.523   7.212  0.0573  0.5380 -0.1816
   92SAPC   H3X 8889   5.341   6.593   7.152  2.2997  0.2795 -3.0135
   92SAPC   H3Y 8890   5.331   6.486   7.288  1.4422 -0.4932  0.6752
   92SAPC   C34 8891   5.433   6.426   7.110 -0.5764  0.3235  0.8459
   92SAPC   H4X 8892   5.335   6.383   7.080 -1.5971  1.6394  2.0838
   92SAPC   H4Y 8893   5.510   6.352   7.141  0.3727  1.0831  0.3610
   92SAPC   C35 8894   5.502   6.492   6.988  0.4134  0.7466  0.1099
   92SAPC   H5X 8895   5.597   6.542   7.016  0.4409  0.1621  1.0896
   92SAPC   H5Y 8896   5.437   6.578   6.958 -0.7168  0.1358  0.7305
   92SAPC   C36 8897   5.524   6.403   6.862  0.4253  0.0295 -0.9596
   92SAPC   H6X 8898   5.428   6.359   6.828  0.5231 -0.9223 -0.0673
   92SAPC   H6Y 8899   5.586   6.315   6.887 -1.2530 -0.6785  1.0177
   92SAPC   C37 8900   5.592   6.466   6.737  0.0788  0.1575  0.3892
   92SAPC   H7X 8901   5.686   6.512   6.774 -0.2404 -1.4348  3.4783
   92SAPC   H7Y 8902   5.530   6.552   6.704  0.7518  0.2402 -0.7203
   92SAPC   C38 8903   5.619   6.364   6.625  0.0078 -0.1111 -0.8055
   92SAPC   H8X 8904   5.576   6.265   6.649 -2.0166  0.7083 -0.8027
   92SAPC   H8Y 8905   5.728   6.343   6.626  0.1075  0.3340  1.1941
   92SAPC   C39 8906   5.574   6.406   6.481 -0.4218  0.0088 -0.5723
   92SAPC   H9X 8907   5.634   6.489   6.439 -0.8367  0.3109 -0.5760
   92SAPC   H9Y 8908   5.468   6.434   6.497 -0.1278  0.4685  0.6965
   92SAPC  C310 8909   5.583   6.289   6.382 -0.3628  0.0346 -0.4457
   92SAPC  H10X 8910   5.518   6.200   6.395  1.0030 -0.6233  3.0453
   92SAPC  H10Y 8911   5.681   6.243   6.408 -0.3031  0.2710 -0.2467
   92SAPC  C311 8912   5.612   6.331   6.235 -0.0950  0.4308  0.8860
   92SAPC  H11X 8913   5.713   6.379   6.231  1.0870 -1.8758  1.1747
   92SAPC  H11Y 8914   5.527   6.396   6.208  0.5241  0.1238 -2.0919
   92SAPC  C312 8915   5.601   6.209   6.137 -0.1905  0.4572  0.2725
   92SAPC  H12X 8916   5.498   6.168   6.134 -0.8633  2.1215 -0.3066
   92SAPC  H12Y 8917   5.665   6.125   6.172 -1.1410  1.1315  4.0733
   92SAPC  C313 8918   5.640   6.257   5.994 -0.4248  0.0297 -0.1949
   92SAPC  H13X 8919   5.740   6.304   6.006 -1.2589  2.1654 -1.1022
   92SAPC  H13Y 8920   5.573   6.337   5.957 -1.4395  0.1111  1.6907
   92SAPC  C314 8921   5.638   6.150   5.893 -0.3129 -0.2815 -0.2046
   92SAPC  H14X 8922   5.545   6.089   5.900 -1.4165  1.4453  0.7350
   92SAPC  H14Y 8923   5.729   6.087   5.904 -0.9159 -0.9687  0.9969
   92SAPC  C315 8924   5.644   6.207   5.750  0.1693 -1.0108  0.1593
   92SAPC  H15X 8925   5.738   6.267   5.751  0.4375 -1.4125  1.9480
   92SAPC  H15Y 8926   5.565   6.281   5.726  1.1090  0.0551  0.2610
   92SAPC  C316 8927   5.659   6.107   5.635  0.1888  0.1230  0.0134
   92SAPC  H16X 8928   5.631   6.160   5.542 -0.7887 -1.0568 -0.3787
   92SAPC  H16Y 8929   5.578   6.031   5.642 -2.0045  2.2920 -0.5472
   92SAPC  C317 8930   5.797   6.052   5.600 -0.5005 -0.5068  0.2756
   92SAPC  H17X 8931   5.872   6.132   5.581 -0.4008 -0.6613  0.0092
   92SAPC  H17Y 8932   5.786   5.997   5.505 -4.5578 -0.1567  0.4000
   92SAPC  C318 8933   5.855   5.942   5.702  0.1323 -0.3118  0.0759
   92SAPC  H18X 8934   5.786   5.855   5.701 -0.6066  0.2687 -1.0434
   92SAPC  H18Y 8935   5.875   5.975   5.806 -0.4966  2.4485 -0.6094
   92SAPC  H18Z 8936   5.952   5.916   5.654  1.0522 -0.4330  1.8999
   93SAPC     N 8937   1.061   2.088   8.110  1.0431  0.0876  0.3417
   93SAPC   C12 8938   1.038   2.233   8.125 -0.1842  0.1720  0.1341
   93SAPC  H12A 8939   1.139   2.272   8.116  0.6667 -1.5865  1.3234
   93SAPC  H12B 8940   1.017   2.251   8.230 -0.0269 -0.2894  0.2474
   93SAPC   C13 8941   0.946   2.020   8.170  0.2938 -0.1603  0.6237
   93SAPC  H13A 8942   0.947   2.028   8.277 -0.2743  3.7374  0.4907
   93SAPC  H13B 8943   0.854   2.063   8.134  0.3721  0.0861  0.7193
   93SAPC  H13C 8944   0.941   1.914   8.151 -1.5807  0.0848 -0.5072
   93SAPC   C14 8945   1.077   2.059   7.967 -0.4554 -0.3039 -0.0183
   93SAPC  H14A 8946   1.075   1.952   7.948 -0.4860 -0.2174 -0.5087
   93SAPC  H14B 8947   0.999   2.106   7.909 -0.9034 -0.8271  0.1506
   93SAPC  H14C 8948   1.175   2.089   7.932  1.0088 -2.8707  1.5310
   93SAPC   C15 8949   1.184   2.053   8.186  0.1737  0.1520 -0.1592
   93SAPC  H15A 8950   1.164   2.066   8.292  0.7970 -0.8925  0.0964
   93SAPC  H15B 8951   1.208   1.949   8.169  1.3502  0.5085 -0.7693
   93SAPC  H15C 8952   1.271   2.113   8.164 -1.4236  2.4998 -0.4576
   93SAPC   C11 8953   0.933   2.312   8.041 -0.1875  0.2850 -0.0667
   93SAPC  H11A 8954   0.941   2.295   7.932 -1.2105 -0.5648 -0.0287
   93SAPC  H11B 8955   0.953   2.420   8.063 -0.2220  0.0622  1.1460
   93SAPC     P 8956   0.675   2.344   8.031  0.0038 -0.3971 -0.2514
   93SAPC   O13 8957   0.555   2.300   8.108 -0.4913 -0.1928 -0.4097
   93SAPC   O14 8958   0.698   2.495   8.019 -0.7948 -0.0935 -0.1596
   93SAPC   O12 8959   0.798   2.272   8.088 -0.2123 -0.6952  0.5098
   93SAPC   O11 8960   0.665   2.283   7.884  0.1111  0.6500  0.2150
   93SAPC    C1 8961   0.688   2.139   7.867 -0.0237 -0.1781 -0.8947
   93SAPC    HA 8962   0.798   2.128   7.870  0.0016  0.2529  1.0955
   93SAPC    HB 8963   0.644   2.086   7.954  1.3422 -1.4792 -0.9507
   93SAPC    C2 8964   0.622   2.076   7.743  0.5572  0.3532 -0.4096
   93SAPC    HS 8965   0.653   1.970   7.731 -1.3227 -0.4398  1.1401
   93SAPC   O21 8966   0.657   2.145   7.619 -0.4414  0.0468  0.3606
   93SAPC   C21 8967   0.785   2.159   7.583  0.3650  0.1518 -1.0764
   93SAPC   O22 8968   0.881   2.118   7.644 -0.4441 -0.0657 -0.4410
   93SAPC   C22 8969   0.800   2.239   7.452 -0.2704  0.2136 -0.4375
   93SAPC   H2R 8970   0.837   2.166   7.377 -0.4563 -2.1856  1.6545
   93SAPC   H2S 8971   0.706   2.289   7.421  0.8294  1.0848 -2.5969
   93SAPC    C3 8972   0.465   2.076   7.751  0.2392  0.1171 -0.3439
   93SAPC    HX 8973   0.431   2.178   7.782 -1.2026  0.4781 -2.8065
   93SAPC    HY 8974   0.428   2.008   7.830 -0.4769  0.9135  0.0277
   93SAPC   O31 8975   0.396   2.038   7.630  0.5409 -0.0600  0.3999
   93SAPC   C31 8976   0.363   2.134   7.552 -0.1356  0.3769 -0.5681
   93SAPC   O32 8977   0.398   2.254   7.567 -0.8188  0.1310  0.1528
   93SAPC   C32 8978   0.265   2.080   7.441  0.3981 -0.4545  0.0341
   93SAPC   H2X 8979   0.174   2.143   7.432  0.2915 -0.6653 -0.3582
   93SAPC   H2Y 8980   0.237   1.977   7.470  1.3821 -1.0433 -1.0395
   93SAPC   C23 8981   0.924   2.341   7.460  0.7909 -0.2639 -0.5555
   93SAPC   H3R 8982   1.011   2.288   7.503  1.1406 -0.7245 -1.7815
   93SAPC   H3S 8983   0.892   2.425   7.525 -0.2028 -0.6679 -0.5109
   93SAPC   C24 8984   0.971   2.385   7.318  0.1405  0.5929 -0.3587
   93SAPC   H4R 8985   0.883   2.411   7.255 -1.7975 -3.4616  0.3811
   93SAPC   H4S 8986   1.019   2.290   7.285 -2.2779 -0.9840  0.4707
   93SAPC   C25 8987   1.076   2.485   7.312  0.0168 -0.4305 -0.6375
   93SAPC   H5R 8988   1.120   2.516   7.408  0.0857 -0.8626 -0.5259
   93SAPC   C26 8989   1.105   2.564   7.201  0.2885 -0.4950 -0.6509
   93SAPC   H6R 8990   1.176   2.647   7.216  0.5926  0.1339 -4.5524
   93SAPC   C27 8991   1.059   2.549   7.058 -0.4611  1.0493  0.8076
   93SAPC   H7R 8992   0.971   2.483   7.049  0.5525 -0.3520  0.8361
   93SAPC   H7S 8993   1.145   2.495   7.013 -1.1600  0.7817 -0.2267
   93SAPC   C28 8994   1.038   2.675   6.984 -0.5701  0.3819 -1.1454
   93SAPC   H8R 8995   1.044   2.759   7.053 -0.6846 -0.7181  0.2521
   93SAPC   C29 8996   1.028   2.692   6.855  0.4218  0.1156 -0.1202
   93SAPC   H9R 8997   0.990   2.790   6.821  0.1717 -0.2267 -0.8402
   93SAPC  C210 8998   1.051   2.578   6.756  0.3007  0.2183  0.2692
   93SAPC  H10R 8999   1.037   2.479   6.805 -2.0187  1.7955  3.1360
   93SAPC  H10S 9000   1.157   2.588   6.725  1.1508 -1.3923  2.3439
   93SAPC  C211 9001   0.954   2.585   6.635 -1.0128 -0.1581 -0.2819
   93SAPC  H11R 9002   0.845   2.591   6.653 -0.7001  1.4408  1.3668
   93SAPC  C212 9003   0.990   2.570   6.513 -0.1405  0.5220  0.0696
   93SAPC  H12R 9004   0.917   2.600   6.437  0.4696 -0.1581 -0.8123
   93SAPC  C213 9005   1.132   2.556   6.463 -0.8457  0.0843  0.2210
   93SAPC  H13R 9006   1.125   2.507   6.363  3.1405  1.3061 -0.8379
   93SAPC  H13S 9007   1.199   2.494   6.526 -1.1096  1.5481  1.9881
   93SAPC  C214 9008   1.199   2.689   6.451 -0.5848  0.2300  0.1073
   93SAPC  H14R 9009   1.149   2.765   6.389 -0.2125  1.8652  1.7145
   93SAPC  C215 9010   1.327   2.724   6.480 -0.4754 -0.6752  0.3624
   93SAPC  H15R 9011   1.356   2.829   6.465  0.8105 -0.6593  2.4977
   93SAPC  C216 9012   1.434   2.645   6.550 -0.2737  0.1357 -0.5968
   93SAPC  H16R 9013   1.533   2.673   6.507  0.2097  0.4812  0.7173
   93SAPC  H16S 9014   1.426   2.535   6.538  0.1728 -0.0114  0.4211
   93SAPC  C217 9015   1.451   2.689   6.696  0.3685 -0.4442  0.1810
   93SAPC  H17R 9016   1.346   2.686   6.733  0.5377  1.6593  0.9505
   93SAPC  H17S 9017   1.479   2.796   6.699 -1.2458 -0.0130  0.7688
   93SAPC  C218 9018   1.544   2.604   6.778  0.0908  0.6690 -0.1179
   93SAPC  H18R 9019   1.649   2.620   6.744  0.6009  0.8708  1.4770
   93SAPC  H18S 9020   1.525   2.496   6.763  0.0220  0.9329 -2.2552
   93SAPC  C219 9021   1.540   2.630   6.932 -0.0342 -0.0360 -0.4221
   93SAPC  H19R 9022   1.558   2.734   6.965  0.2852 -0.5589  1.1570
   93SAPC  H19S 9023   1.619   2.562   6.972  0.0179 -1.5302 -2.8981
   93SAPC  C220 9024   1.405   2.576   6.996 -0.9139  0.0133  0.4287
   93SAPC  H20R 9025   1.322   2.613   6.932 -1.7048  1.1566  2.0369
   93SAPC  H20S 9026   1.382   2.611   7.099  0.2266 -0.2265  0.7762
   93SAPC  H20T 9027   1.408   2.465   7.001  3.7799  0.0028  2.7781
   93SAPC   C33 9028   0.327   2.075   7.305  0.2584 -0.3032 -0.1479
   93SAPC   H3X 9029   0.429   2.035   7.319  0.1389 -0.9800 -1.0891
   93SAPC   H3Y 9030   0.337   2.178   7.263 -2.0940  0.5599  1.1908
   93SAPC   C34 9031   0.246   1.995   7.201 -0.0269 -0.5705  0.0052
   93SAPC   H4X 9032   0.152   2.045   7.172  0.9053  1.1690 -0.1363
   93SAPC   H4Y 9033   0.236   1.887   7.225  1.6322 -0.9620 -0.9326
   93SAPC   C35 9034   0.313   1.986   7.057  0.9067  0.3553  0.7895
   93SAPC   H5X 9035   0.406   1.927   7.054 -0.1760 -1.4041 -0.6198
   93SAPC   H5Y 9036   0.329   2.088   7.015  2.3159 -1.0444 -2.4275
   93SAPC   C36 9037   0.211   1.895   6.971 -0.8079 -0.5529  0.0768
   93SAPC   H6X 9038   0.107   1.932   6.956 -1.5517 -2.0551  1.1778
   93SAPC   H6Y 9039   0.201   1.802   7.032  0.7245 -1.6884 -1.3133
   93SAPC   C37 9040   0.277   1.849   6.839 -0.0929 -0.1818  0.4291
   93SAPC   H7X 9041   0.207   1.775   6.796  0.8374 -0.4201 -0.7025
   93SAPC   H7Y 9042   0.381   1.810   6.845  0.0263 -0.1707 -1.2584
   93SAPC   C38 9043   0.278   1.971   6.747 -0.0955  0.3250  0.2050
   93SAPC   H8X 9044   0.345   2.047   6.792  1.7466 -1.5885  0.8298
   93SAPC   H8Y 9045   0.177   2.017   6.735  1.4508  3.3542 -2.9723
   93SAPC   C39 9046   0.333   1.929   6.604  0.7990 -0.1796 -0.4683
   93SAPC   H9X 9047   0.279   1.837   6.575  1.3120 -0.8292  0.5739
   93SAPC   H9Y 9048   0.438   1.892   6.599  0.2385 -1.9008 -0.1691
   93SAPC  C310 9049   0.309   2.043   6.511 -0.3731  0.3016 -0.2519
   93SAPC  H10X 9050   0.353   2.129   6.567 -0.0450 -0.5362  0.8114
   93SAPC  H10Y 9051   0.199   2.054   6.507 -0.9869 -1.1978  4.8585
   93SAPC  C311 9052   0.386   2.027   6.377 -0.4284  0.0858  0.1183
   93SAPC  H11X 9053   0.383   1.922   6.341  1.3450  0.1399 -0.3037
   93SAPC  H11Y 9054   0.491   2.051   6.407 -0.5934  0.3543  0.4827
   93SAPC  C312 9055   0.351   2.130   6.266 -0.8593 -0.0356 -0.8614
   93SAPC  H12X 9056   0.377   2.235   6.294 -1.6371  0.0883 -0.5933
   93SAPC  H12Y 9057   0.242   2.137   6.247 -0.8071  2.5397 -0.6316
   93SAPC  C313 9058   0.418   2.096   6.127 -0.0045 -0.8776  0.0142
   93SAPC  H13X 9059   0.392   1.992   6.097 -0.3871 -0.3225 -1.6620
   93SAPC  H13Y 9060   0.529   2.092   6.127  0.0099 -0.6852 -1.0405
   93SAPC  C314 9061   0.356   2.187   6.018 -0.0738 -0.7379 -0.1822
   93SAPC  H14X 9062   0.384   2.290   6.047 -1.3947 -1.1731  3.0956
   93SAPC  H14Y 9063   0.247   2.163   6.014 -0.0461 -0.8842 -0.0934
   93SAPC  C315 9064   0.432   2.164   5.882  0.4599  0.1035  0.0043
   93SAPC  H15X 9065   0.413   2.061   5.844  3.2127 -0.6083  0.3666
   93SAPC  H15Y 9066   0.540   2.187   5.891  0.3461  0.6863 -0.0848
   93SAPC  C316 9067   0.379   2.263   5.779  0.3272 -0.2768  0.0989
   93SAPC  H16X 9068   0.407   2.369   5.799 -0.3436 -0.2664  1.0753
   93SAPC  H16Y 9069   0.270   2.261   5.797  0.2856  0.9906  0.0785
   93SAPC  C317 9070   0.423   2.227   5.634 -0.0552 -0.2219  0.3597
   93SAPC  H17X 9071   0.439   2.118   5.625  1.9830 -0.0747  1.5489
   93SAPC  H17Y 9072   0.520   2.280   5.617 -0.3464  0.1971 -0.0157
   93SAPC  C318 9073   0.332   2.284   5.531 -0.2600 -0.2486  0.1403
   93SAPC  H18X 9074   0.344   2.236   5.432 -1.4854 -0.0290 -0.1286
   93SAPC  H18Y 9075   0.342   2.394   5.521  0.1757 -0.1383  1.5820
   93SAPC  H18Z 9076   0.226   2.268   5.560 -0.3627 -1.0873 -0.6766
   94SAPC     N 9077   6.624   5.785   7.726  0.0937 -0.5797  0.0639
   94SAPC   C12 9078   6.596   5.672   7.633  0.2596  0.1256  0.5496
   94SAPC  H12A 9079   6.494   5.642   7.654 -0.6436  1.7916 -1.1915
   94SAPC  H12B 9080   6.665   5.589   7.647  0.4596 -0.0033 -1.0423
   94SAPC   C13 9081   6.543   5.904   7.680 -0.8758 -0.4790  0.3898
   94SAPC  H13A 9082   6.442   5.866   7.685 -0.4270 -1.7718  0.0567
   94SAPC  H13B 9083   6.550   5.995   7.738  2.1224  0.1084 -0.6870
   94SAPC  H13C 9084   6.572   5.929   7.579  0.4895  2.4411  1.3766
   94SAPC   C14 9085   6.581   5.767   7.870 -0.8212 -0.1844  0.0344
   94SAPC  H14A 9086   6.474   5.766   7.883 -0.9030  3.1802  0.5624
   94SAPC  H14B 9087   6.631   5.679   7.908 -1.5267  0.5082  2.8741
   94SAPC  H14C 9088   6.611   5.851   7.932 -1.8123  1.5507 -1.7304
   94SAPC   C15 9089   6.767   5.831   7.711  0.1363  0.7026  0.1178
   94SAPC  H15A 9090   6.783   5.855   7.607 -2.5705 -1.8991 -1.0410
   94SAPC  H15B 9091   6.790   5.920   7.770 -1.7990  0.3754  1.4735
   94SAPC  H15C 9092   6.835   5.750   7.731 -1.2553 -1.0009 -1.7407
   94SAPC   C11 9093   6.622   5.688   7.485  0.2408  0.7491  1.0750
   94SAPC  H11A 9094   6.572   5.780   7.446  0.2070  0.2645 -0.0643
   94SAPC  H11B 9095   6.564   5.603   7.444 -3.5591  2.0961  3.1227
   94SAPC     P 9096   6.825   5.793   7.352  0.1617  0.3481  0.0587
   94SAPC   O13 9097   6.823   5.919   7.428 -0.4402  0.6563  0.1973
   94SAPC   O14 9098   6.955   5.735   7.310  0.4458 -0.6329  0.6246
   94SAPC   O12 9099   6.758   5.687   7.453  0.1308  0.3591  1.0363
   94SAPC   O11 9100   6.717   5.802   7.235 -0.0906 -0.0407  0.0887
   94SAPC    C1 9101   6.752   5.741   7.109 -0.2189  0.6028 -0.1101
   94SAPC    HA 9102   6.858   5.707   7.103 -0.4711 -0.1964 -0.1074
   94SAPC    HB 9103   6.694   5.647   7.097 -0.6753  0.8920 -0.1847
   94SAPC    C2 9104   6.700   5.829   6.993  0.5260 -0.7083  0.0314
   94SAPC    HS 9105   6.722   5.780   6.895  0.7227  0.8893 -0.7533
   94SAPC   O21 9106   6.762   5.965   6.991  0.1522 -0.2385  0.4117
   94SAPC   C21 9107   6.896   5.975   6.984 -0.4518 -0.0377 -0.0135
   94SAPC   O22 9108   6.976   5.884   6.972  0.8258  0.0077  0.0270
   94SAPC   C22 9109   6.927   6.128   6.990  0.5241 -0.0823  0.4930
   94SAPC   H2R 9110   6.878   6.172   6.900  1.3635  1.1891  0.6262
   94SAPC   H2S 9111   6.875   6.164   7.082 -0.6562  1.3247 -0.6689
   94SAPC    C3 9112   6.544   5.825   7.002 -0.2425  0.3265  0.3048
   94SAPC    HX 9113   6.515   5.928   7.033  1.4312  1.2578 -1.0702
   94SAPC    HY 9114   6.513   5.751   7.079 -0.4882  1.0164  0.8873
   94SAPC   O31 9115   6.499   5.811   6.869  0.5529  0.5049  0.5745
   94SAPC   C31 9116   6.366   5.809   6.866  0.3767 -0.0031  0.1186
   94SAPC   O32 9117   6.295   5.841   6.962 -0.3342  0.1763 -0.0052
   94SAPC   C32 9118   6.311   5.766   6.722 -0.4796 -0.3241 -0.3900
   94SAPC   H2X 9119   6.201   5.752   6.721 -0.2024 -2.9161 -0.8240
   94SAPC   H2Y 9120   6.360   5.667   6.715  2.8375  0.9796  1.7626
   94SAPC   C23 9121   7.076   6.162   6.981 -0.4293  0.2402 -0.8534
   94SAPC   H3R 9122   7.127   6.141   7.078 -3.9105 -1.7181  0.7310
   94SAPC   H3S 9123   7.088   6.272   6.972  0.7915  0.3137  0.9570
   94SAPC   C24 9124   7.152   6.097   6.861 -0.6824 -0.4077 -0.4866
   94SAPC   H4R 9125   7.102   6.130   6.767 -1.4706  2.0314  0.7197
   94SAPC   H4S 9126   7.159   5.986   6.868 -1.4377 -0.5556 -1.7613
   94SAPC   C25 9127   7.303   6.140   6.847  0.2543  0.6378 -0.0675
   94SAPC   H5R 9128   7.355   6.120   6.942 -1.8643 -0.9666  0.8381
   94SAPC   C26 9129   7.364   6.182   6.738  0.2022  0.2671 -0.1093
   94SAPC   H6R 9130   7.473   6.190   6.751 -0.0946  1.8565  1.7035
   94SAPC   C27 9131   7.312   6.200   6.602 -0.3779 -0.1368  0.0384
   94SAPC   H7R 9132   7.202   6.212   6.600 -0.3506  0.3253  0.9128
   94SAPC   H7S 9133   7.316   6.104   6.545 -1.3501 -0.6244  0.7747
   94SAPC   C28 9134   7.378   6.315   6.523  0.0157  0.6683 -0.0918
   94SAPC   H8R 9135   7.336   6.413   6.552  1.2208  0.8546  1.1155
   94SAPC   C29 9136   7.468   6.308   6.422 -0.2029 -0.4137  0.3858
   94SAPC   H9R 9137   7.495   6.402   6.371  0.0404 -1.4699 -1.5653
   94SAPC  C210 9138   7.535   6.181   6.377  0.0497  0.1004  0.2390
   94SAPC  H10R 9139   7.447   6.124   6.339 -0.7117 -0.0288  2.0899
   94SAPC  H10S 9140   7.558   6.133   6.475 -0.3570  0.1379  0.3561
   94SAPC  C211 9141   7.641   6.164   6.282  0.0710  0.1482 -0.4271
   94SAPC  H11R 9142   7.743   6.153   6.322 -1.4870 -0.2493  3.8655
   94SAPC  C212 9143   7.621   6.200   6.155 -0.1495  0.0405 -0.1264
   94SAPC  H12R 9144   7.702   6.186   6.082  0.2789  0.8538  0.1812
   94SAPC  C213 9145   7.492   6.247   6.092 -0.1881 -0.5786  0.7827
   94SAPC  H13R 9146   7.423   6.285   6.170  0.9326 -0.8965  1.9643
   94SAPC  H13S 9147   7.443   6.159   6.046  0.2309 -1.3031  1.6770
   94SAPC  C214 9148   7.513   6.352   5.983 -0.2705  0.1821 -1.0039
   94SAPC  H14R 9149   7.550   6.449   6.020 -2.8635  0.1577  2.1347
   94SAPC  C215 9150   7.533   6.332   5.852  0.5025 -0.0260  0.7113
   94SAPC  H15R 9151   7.572   6.415   5.790 -0.3449 -0.4056 -0.3591
   94SAPC  C216 9152   7.504   6.206   5.773 -0.1268  0.5159  0.2169
   94SAPC  H16R 9153   7.490   6.122   5.844  1.8124  1.3447  1.6862
   94SAPC  H16S 9154   7.594   6.173   5.717  0.2380 -0.6545  1.4236
   94SAPC  C217 9155   7.378   6.225   5.677 -0.9523  0.0399  0.2077
   94SAPC  H17R 9156   7.291   6.262   5.736  0.7492  1.6147  1.8981
   94SAPC  H17S 9157   7.348   6.126   5.638  0.1264 -0.2853  0.1592
   94SAPC  C218 9158   7.407   6.321   5.558  0.1715 -0.3152  0.0247
   94SAPC  H18R 9159   7.460   6.416   5.578  2.1690 -1.0233 -1.4869
   94SAPC  H18S 9160   7.307   6.345   5.515  0.1273 -2.0985 -0.9847
   94SAPC  C219 9161   7.489   6.255   5.442  0.2862 -0.0789  0.2423
   94SAPC  H19R 9162   7.447   6.156   5.414  0.8709 -0.4568  0.6839
   94SAPC  H19S 9163   7.585   6.238   5.495  1.0314  3.1931  0.1761
   94SAPC  C220 9164   7.521   6.336   5.314 -1.4181  0.1480 -0.1106
   94SAPC  H20R 9165   7.602   6.288   5.256  0.8483  1.6362  1.6190
   94SAPC  H20S 9166   7.543   6.442   5.340 -0.1743  0.0341 -0.6268
   94SAPC  H20T 9167   7.432   6.343   5.247 -1.7745  0.6902  0.4028
   94SAPC   C33 9168   6.357   5.859   6.610 -0.2110 -0.5887  1.1038
   94SAPC   H3X 9169   6.347   5.821   6.506  1.8710 -0.3545  0.7787
   94SAPC   H3Y 9170   6.465   5.885   6.616 -0.4630  0.7623  0.3095
   94SAPC   C34 9171   6.273   5.995   6.597 -0.0207 -0.4520  0.9023
   94SAPC   H4X 9172   6.283   6.053   6.691 -3.6623  0.2521  1.0000
   94SAPC   H4Y 9173   6.169   5.955   6.589  0.1603 -0.9516  0.9781
   94SAPC   C35 9174   6.311   6.085   6.475 -0.6915  0.0214 -0.8080
   94SAPC   H5X 9175   6.408   6.137   6.493 -0.0895 -0.1782 -3.1912
   94SAPC   H5Y 9176   6.241   6.171   6.465 -0.3440  0.2885 -0.9852
   94SAPC   C36 9177   6.300   6.023   6.340  0.7885  0.2095 -0.5969
   94SAPC   H6X 9178   6.227   5.939   6.332  2.1808 -0.8596 -3.1589
   94SAPC   H6Y 9179   6.399   5.982   6.311  0.4533 -0.4781 -0.7914
   94SAPC   C37 9180   6.265   6.123   6.231 -0.2926  0.3230  0.9564
   94SAPC   H7X 9181   6.332   6.211   6.218 -2.3083  1.9622  1.0394
   94SAPC   H7Y 9182   6.165   6.167   6.251 -1.2635 -1.5534  0.4020
   94SAPC   C38 9183   6.250   6.054   6.100 -0.1228 -0.3439 -1.1820
   94SAPC   H8X 9184   6.207   6.131   6.032 -1.1421  0.2656  0.1171
   94SAPC   H8Y 9185   6.176   5.971   6.095 -0.6852  0.1400 -0.8741
   94SAPC   C39 9186   6.385   6.002   6.051  0.1240 -0.5856 -0.3615
   94SAPC   H9X 9187   6.407   5.909   6.108 -1.4456  0.5224  2.2234
   94SAPC   H9Y 9188   6.460   6.075   6.087 -1.8158  1.4691 -0.2921
   94SAPC  C310 9189   6.382   5.978   5.895 -0.0476 -0.1248  0.5057
   94SAPC  H10X 9190   6.477   5.931   5.861 -0.0332 -0.1405  0.5687
   94SAPC  H10Y 9191   6.368   6.079   5.852  0.3606 -0.9300 -1.6699
   94SAPC  C311 9192   6.267   5.885   5.828  0.4932  0.9170 -0.9333
   94SAPC  H11X 9193   6.174   5.917   5.881  0.8535 -1.9787  1.7565
   94SAPC  H11Y 9194   6.285   5.777   5.847  2.3016  1.2849 -0.3265
   94SAPC  C312 9195   6.252   5.915   5.680 -0.4449 -0.2423  0.4027
   94SAPC  H12X 9196   6.227   6.023   5.672 -0.3421 -0.0670  2.1408
   94SAPC  H12Y 9197   6.171   5.863   5.624 -0.0528  0.4317 -0.8398
   94SAPC  C313 9198   6.382   5.876   5.604 -0.1134 -0.4974  0.0142
   94SAPC  H13X 9199   6.396   5.767   5.620 -1.2906 -0.4335  1.7775
   94SAPC  H13Y 9200   6.466   5.928   5.656  0.2107 -0.0708 -0.9135
   94SAPC  C314 9201   6.363   5.919   5.460 -0.1422 -0.7778 -0.8141
   94SAPC  H14X 9202   6.332   6.025   5.470 -2.8745 -1.4172 -1.7382
   94SAPC  H14Y 9203   6.279   5.865   5.412 -0.4813 -1.5500  0.6223
   94SAPC  C315 9204   6.491   5.909   5.376  0.1652  0.1243 -0.1192
   94SAPC  H15X 9205   6.568   5.960   5.438 -0.0429 -0.3631  0.5408
   94SAPC  H15Y 9206   6.474   5.968   5.283  1.0573 -0.3254 -0.5857
   94SAPC  C316 9207   6.546   5.771   5.347 -0.9968 -0.1113  1.0397
   94SAPC  H16X 9208   6.478   5.739   5.265  2.3618 -0.5348 -1.7840
   94SAPC  H16Y 9209   6.532   5.703   5.434 -2.7334  0.3124  1.1278
   94SAPC  C317 9210   6.693   5.764   5.298  0.1342  0.0070  0.4711
   94SAPC  H17X 9211   6.760   5.775   5.386 -0.0223 -1.8635  0.8558
   94SAPC  H17Y 9212   6.719   5.843   5.225 -2.5290  0.6447  0.0881
   94SAPC  C318 9213   6.719   5.625   5.229  0.0720 -0.0662 -0.6575
   94SAPC  H18X 9214   6.685   5.638   5.124  2.2791 -0.7039 -1.5184
   94SAPC  H18Y 9215   6.664   5.542   5.277 -0.8350  0.9786  0.1754
   94SAPC  H18Z 9216   6.825   5.592   5.227 -0.3267 -1.5261  0.6224
   95SAPC     N 9217   6.187   3.258   2.555 -0.9220  0.2245  0.3030
   95SAPC   C12 9218   6.197   3.339   2.681 -0.2304  0.5601  0.0769
   95SAPC  H12A 9219   6.098   3.358   2.719 -0.7313 -0.5460 -0.6423
   95SAPC  H12B 9220   6.240   3.437   2.662 -0.0393  0.6325  0.8472
   95SAPC   C13 9221   6.122   3.133   2.585 -0.5651 -1.0980 -0.4861
   95SAPC  H13A 9222   6.021   3.140   2.624  0.2554  3.2403  1.4257
   95SAPC  H13B 9223   6.138   3.064   2.504  0.6652  0.0597 -1.2703
   95SAPC  H13C 9224   6.185   3.082   2.657  1.0720 -0.4599 -1.4187
   95SAPC   C14 9225   6.098   3.325   2.463  0.0127 -0.4852 -0.3001
   95SAPC  H14A 9226   6.148   3.417   2.435  0.7477 -0.5605  0.7136
   95SAPC  H14B 9227   6.087   3.261   2.377  0.1035  0.1057 -0.7580
   95SAPC  H14C 9228   6.007   3.354   2.513  1.2947  0.0468  1.8763
   95SAPC   C15 9229   6.315   3.216   2.487 -0.0222 -0.1531  0.1093
   95SAPC  H15A 9230   6.363   3.296   2.431  1.6449 -0.9091  0.3893
   95SAPC  H15B 9231   6.379   3.166   2.558  1.7364 -0.1107 -1.3710
   95SAPC  H15C 9232   6.290   3.141   2.414 -1.7241 -0.0160  0.5053
   95SAPC   C11 9233   6.274   3.287   2.799  0.4929 -0.3364  0.1492
   95SAPC  H11A 9234   6.377   3.250   2.779  0.9870  1.0627 -0.0184
   95SAPC  H11B 9235   6.220   3.197   2.837 -1.3041  0.8167  0.4431
   95SAPC     P 9236   6.396   3.481   2.928 -0.1293 -0.1765  0.1733
   95SAPC   O13 9237   6.488   3.508   2.813 -0.2005  0.1370 -0.6796
   95SAPC   O14 9238   6.334   3.599   2.990  0.4437  0.3705 -0.3444
   95SAPC   O12 9239   6.269   3.392   2.894 -0.0448 -0.4633  0.4117
   95SAPC   O11 9240   6.475   3.405   3.040 -0.0570 -0.2296 -0.6926
   95SAPC    C1 9241   6.402   3.338   3.142 -0.2372  0.1354 -0.2428
   95SAPC    HA 9242   6.324   3.275   3.094 -1.1525  0.2662  1.0009
   95SAPC    HB 9243   6.472   3.267   3.190  0.2250  0.3673 -0.5615
   95SAPC    C2 9244   6.344   3.432   3.267 -0.2271  0.8466  0.5956
   95SAPC    HS 9245   6.246   3.466   3.228  1.5471  1.0370 -4.3437
   95SAPC   O21 9246   6.438   3.545   3.280  0.1575  0.0121 -0.2618
   95SAPC   C21 9247   6.418   3.625   3.377  0.1327  0.2174  0.1818
   95SAPC   O22 9248   6.319   3.630   3.450  0.3225 -0.3460 -0.2427
   95SAPC   C22 9249   6.532   3.723   3.386 -0.0549 -0.0729  0.1802
   95SAPC   H2R 9250   6.537   3.772   3.287  1.1520 -2.1255 -0.8194
   95SAPC   H2S 9251   6.512   3.803   3.462 -0.6821 -0.3943  0.3626
   95SAPC    C3 9252   6.325   3.341   3.393 -0.7834  0.2119  0.8635
   95SAPC    HX 9253   6.266   3.251   3.367  0.6832 -0.7362  0.6822
   95SAPC    HY 9254   6.251   3.389   3.460 -1.8479  1.7717 -1.2949
   95SAPC   O31 9255   6.452   3.313   3.462 -0.0375  0.2603  0.0007
   95SAPC   C31 9256   6.475   3.189   3.494  0.0016  0.5421 -0.1403
   95SAPC   O32 9257   6.420   3.090   3.455  0.4140  0.1326  0.7410
   95SAPC   C32 9258   6.599   3.174   3.591 -0.3091  0.4340 -0.2107
   95SAPC   H2X 9259   6.589   3.243   3.677  0.4438  2.0397 -1.3648
   95SAPC   H2Y 9260   6.687   3.212   3.535  1.5036 -2.2018  0.6338
   95SAPC   C23 9261   6.657   3.641   3.413 -0.2035 -0.0250  0.2581
   95SAPC   H3R 9262   6.740   3.714   3.417 -0.3172  0.0574  3.0496
   95SAPC   H3S 9263   6.689   3.568   3.337 -1.4815 -0.7826  0.4164
   95SAPC   C24 9264   6.659   3.569   3.553 -0.4960  0.1451 -0.6295
   95SAPC   H4R 9265   6.760   3.529   3.575  1.0292  3.2736 -1.3993
   95SAPC   H4S 9266   6.591   3.481   3.559 -0.4756  0.2358  1.8959
   95SAPC   C25 9267   6.639   3.662   3.672  0.0654 -0.8305  0.5042
   95SAPC   H5R 9268   6.704   3.749   3.688 -1.7451  0.7204 -0.0957
   95SAPC   C26 9269   6.542   3.648   3.758  0.1196 -0.2071 -0.5563
   95SAPC   H6R 9270   6.535   3.728   3.833  1.5055 -0.0796 -0.5336
   95SAPC   C27 9271   6.438   3.540   3.766 -0.0746  0.6477 -0.0120
   95SAPC   H7R 9272   6.497   3.447   3.785 -0.3411  0.3404 -0.6570
   95SAPC   H7S 9273   6.389   3.538   3.666 -0.8055  0.9739  0.3304
   95SAPC   C28 9274   6.330   3.549   3.870  0.2723  0.2858  0.6672
   95SAPC   H8R 9275   6.225   3.535   3.841  0.7920 -2.7749 -0.1170
   95SAPC   C29 9276   6.355   3.550   3.998 -0.9102 -0.1626 -0.3091
   95SAPC   H9R 9277   6.280   3.556   4.078  1.3738  0.7519  1.8766
   95SAPC  C210 9278   6.486   3.523   4.067 -0.3388  0.5812  0.4188
   95SAPC  H10R 9279   6.500   3.599   4.146 -0.0031  0.2239  0.7072
   95SAPC  H10S 9280   6.582   3.525   4.010  0.3969 -3.0654  1.2419
   95SAPC  C211 9281   6.482   3.384   4.123 -0.3165  0.3233 -0.1303
   95SAPC  H11R 9282   6.522   3.306   4.057  0.3996  1.3893 -0.9945
   95SAPC  C212 9283   6.418   3.333   4.229 -0.1865 -0.2503  0.5548
   95SAPC  H12R 9284   6.428   3.228   4.260 -2.7321 -0.8021 -0.2593
   95SAPC  C213 9285   6.353   3.410   4.344  0.0995  0.0658  0.7826
   95SAPC  H13R 9286   6.275   3.354   4.400 -3.0603 -0.7034 -3.7689
   95SAPC  H13S 9287   6.293   3.494   4.300 -0.0010 -1.1132 -1.4573
   95SAPC  C214 9288   6.453   3.462   4.441 -0.3458 -0.0111 -0.2256
   95SAPC  H14R 9289   6.556   3.484   4.410  0.6787  1.0040  3.4702
   95SAPC  C215 9290   6.432   3.504   4.572  0.6901  0.4904 -0.7242
   95SAPC  H15R 9291   6.512   3.537   4.639  1.9836 -0.0427 -1.9613
   95SAPC  C216 9292   6.300   3.507   4.645  0.3083 -0.0117 -0.4041
   95SAPC  H16R 9293   6.217   3.468   4.581  0.7366 -1.1734 -0.2878
   95SAPC  H16S 9294   6.267   3.611   4.665  1.7893  0.6242 -1.0826
   95SAPC  C217 9295   6.307   3.426   4.781  0.3047  0.3583  0.6049
   95SAPC  H17R 9296   6.345   3.325   4.753  0.0607  0.6965 -0.9949
   95SAPC  H17S 9297   6.206   3.436   4.826 -0.0342 -0.7296  0.1294
   95SAPC  C218 9298   6.417   3.486   4.873 -0.2796  0.3307 -0.2965
   95SAPC  H18R 9299   6.397   3.595   4.867 -0.5824  0.3398  0.7392
   95SAPC  H18S 9300   6.522   3.464   4.844  0.2746 -1.3542  2.6211
   95SAPC  C219 9301   6.404   3.420   5.013  0.4897  0.0502 -0.1007
   95SAPC  H19R 9302   6.447   3.321   4.988  0.1659 -0.7659  2.3433
   95SAPC  H19S 9303   6.296   3.426   5.038  0.6243  2.1167  0.1913
   95SAPC  C220 9304   6.487   3.480   5.123 -0.0986  0.3863  0.9414
   95SAPC  H20R 9305   6.499   3.407   5.206 -0.2475  1.1492  1.6389
   95SAPC  H20S 9306   6.452   3.580   5.156 -0.0049  0.2564  1.4446
   95SAPC  H20T 9307   6.584   3.501   5.073 -1.3536  1.1553 -1.2874
   95SAPC   C33 9308   6.623   3.026   3.633 -0.9574 -0.2183 -0.2914
   95SAPC   H3X 9309   6.723   3.022   3.680 -0.5910  0.6177 -0.9735
   95SAPC   H3Y 9310   6.628   2.963   3.542  1.5733 -0.3207 -0.1298
   95SAPC   C34 9311   6.527   2.956   3.732  0.7431 -0.2791  0.8240
   95SAPC   H4X 9312   6.554   2.851   3.756  1.4872 -0.4291 -0.5512
   95SAPC   H4Y 9313   6.429   2.958   3.680  1.6584 -1.2336 -1.0567
   95SAPC   C35 9314   6.490   3.016   3.866  0.4193 -0.1092 -0.3879
   95SAPC   H5X 9315   6.386   3.055   3.859  0.6016  0.4455 -0.0457
   95SAPC   H5Y 9316   6.557   3.104   3.879  2.7920 -1.7749 -0.5926
   95SAPC   C36 9317   6.505   2.917   3.980 -0.0966  0.9275  0.0851
   95SAPC   H6X 9318   6.598   2.860   3.961  2.0288  3.1486  2.9976
   95SAPC   H6Y 9319   6.414   2.852   3.984  0.1114  0.5526 -0.9972
   95SAPC   C37 9320   6.527   2.991   4.118  0.6367 -0.4523 -0.4857
   95SAPC   H7X 9321   6.439   3.057   4.135  1.4155  0.1658  1.4287
   95SAPC   H7Y 9322   6.618   3.055   4.115 -0.0315  0.4969 -2.0443
   95SAPC   C38 9323   6.544   2.890   4.238 -0.2594 -0.0807  0.0062
   95SAPC   H8X 9324   6.592   2.799   4.196  0.5996  1.3645 -2.3156
   95SAPC   H8Y 9325   6.443   2.871   4.281 -1.1683 -0.4350 -2.1421
   95SAPC   C39 9326   6.645   2.936   4.350 -0.3477  0.1300  0.1565
   95SAPC   H9X 9327   6.748   2.947   4.311 -0.0326 -2.3874  0.1352
   95SAPC   H9Y 9328   6.646   2.856   4.426  1.2198  0.0277  0.0534
   95SAPC  C310 9329   6.600   3.057   4.425  0.1065 -0.0417 -0.2027
   95SAPC  H10X 9330   6.494   3.050   4.458 -0.0825  2.2045 -0.1657
   95SAPC  H10Y 9331   6.612   3.144   4.357  0.9647  0.3071  0.3779
   95SAPC  C311 9332   6.694   3.087   4.545 -0.0584 -0.2207  0.1083
   95SAPC  H11X 9333   6.803   3.076   4.527 -0.2742 -0.2792 -1.2288
   95SAPC  H11Y 9334   6.670   3.007   4.619  0.1733 -0.4756 -0.0935
   95SAPC  C312 9335   6.657   3.221   4.611  0.5134 -0.5108  0.6238
   95SAPC  H12X 9336   6.546   3.221   4.619  0.0483  2.4038 -3.1903
   95SAPC  H12Y 9337   6.683   3.311   4.552  1.2012 -2.6234 -2.5035
   95SAPC  C313 9338   6.720   3.239   4.746 -0.2877  0.0516 -0.0619
   95SAPC  H13X 9339   6.656   3.181   4.817 -0.8668  2.6155  1.6535
   95SAPC  H13Y 9340   6.682   3.338   4.777 -2.7969 -0.7060 -0.4700
   95SAPC  C314 9341   6.873   3.234   4.778  0.3487  0.6021  0.0375
   95SAPC  H14X 9342   6.932   3.286   4.699 -0.4256 -2.2134 -2.6030
   95SAPC  H14Y 9343   6.901   3.127   4.769 -0.7480  0.2330  0.8562
   95SAPC  C315 9344   6.907   3.302   4.913 -0.2865 -0.0515  0.6857
   95SAPC  H15X 9345   6.930   3.232   4.996  0.5474 -1.1361 -0.4118
   95SAPC  H15Y 9346   6.825   3.368   4.949  1.2967  1.5181  1.5688
   95SAPC  C316 9347   7.026   3.385   4.885 -0.1203  0.3420 -0.1914
   95SAPC  H16X 9348   7.033   3.453   4.797  0.0539 -1.0262 -1.2697
   95SAPC  H16Y 9349   7.102   3.306   4.868 -1.5515 -1.1737  0.1498
   95SAPC  C317 9350   7.076   3.472   5.001 -0.6583  0.5076 -1.0566
   95SAPC  H17X 9351   7.033   3.436   5.097  0.3740 -1.1945 -1.1845
   95SAPC  H17Y 9352   7.055   3.577   4.972  0.7010  1.2175  0.3584
   95SAPC  C318 9353   7.231   3.474   5.013  0.4033  0.2241  0.2946
   95SAPC  H18X 9354   7.277   3.489   4.913  2.1163 -0.0408  1.0058
   95SAPC  H18Y 9355   7.263   3.376   5.055  0.7075 -0.6554 -1.8327
   95SAPC  H18Z 9356   7.264   3.546   5.091 -1.1538  2.0362 -0.6249
   96SAPC     N 9357   0.467   6.411   3.248  0.4511 -0.3143  0.7597
   96SAPC   C12 9358   0.598   6.484   3.202  0.4891  0.1740 -0.8235
   96SAPC  H12A 9359   0.600   6.588   3.232  0.7640  0.1843 -0.8711
   96SAPC  H12B 9360   0.599   6.477   3.095  1.6108  0.1394 -0.8285
   96SAPC   C13 9361   0.440   6.423   3.396  0.2976 -0.1043 -0.1634
   96SAPC  H13A 9362   0.340   6.385   3.414  0.2107  0.1270 -0.1639
   96SAPC  H13B 9363   0.506   6.360   3.453 -1.0828 -1.1487  0.3471
   96SAPC  H13C 9364   0.436   6.523   3.435 -0.8709 -1.3607  3.3062
   96SAPC   C14 9365   0.352   6.475   3.173  0.2471  0.0409  0.4551
   96SAPC  H14A 9366   0.335   6.577   3.205 -3.1786 -0.4362  0.5454
   96SAPC  H14B 9367   0.369   6.469   3.067 -0.2800 -0.1800  0.3809
   96SAPC  H14C 9368   0.253   6.442   3.203 -0.5867  2.6222  0.7540
   96SAPC   C15 9369   0.471   6.266   3.212  0.2196  0.0874 -0.2640
   96SAPC  H15A 9370   0.383   6.213   3.241 -0.5082  0.1702 -2.1430
   96SAPC  H15B 9371   0.479   6.261   3.104 -2.0252  2.6616 -0.6814
   96SAPC  H15C 9372   0.554   6.212   3.255 -0.0133 -0.4136 -0.4336
   96SAPC   C11 9373   0.734   6.439   3.265  0.1541 -0.6027  0.2597
   96SAPC  H11A 9374   0.817   6.475   3.201 -0.3183  1.5496  0.7751
   96SAPC  H11B 9375   0.743   6.329   3.283  0.6348 -0.3928  1.3996
   96SAPC     P 9376   0.868   6.521   3.476  0.0569 -0.0120 -0.0048
   96SAPC   O13 9377   0.961   6.598   3.394 -0.3455  0.4765  0.2377
   96SAPC   O14 9378   0.824   6.587   3.599  0.3167  0.2771  0.6000
   96SAPC   O12 9379   0.737   6.498   3.396  0.5097  0.4267 -0.4460
   96SAPC   O11 9380   0.928   6.374   3.504  0.0597  0.0163  0.2082
   96SAPC    C1 9381   0.834   6.268   3.554 -0.7975  0.0011 -0.7308
   96SAPC    HA 9382   0.744   6.308   3.605 -0.6166  1.3030 -1.3967
   96SAPC    HB 9383   0.796   6.210   3.467 -2.3978  0.2655 -0.2405
   96SAPC    C2 9384   0.903   6.175   3.657 -0.1325  0.5712  0.1398
   96SAPC    HS 9385   0.831   6.116   3.718  1.8957  0.6444  2.8215
   96SAPC   O21 9386   0.975   6.263   3.750  0.9611 -0.7538  0.6691
   96SAPC   C21 9387   0.910   6.338   3.838  0.3554  0.5105 -0.0987
   96SAPC   O22 9388   0.787   6.338   3.852 -0.0845  0.1545 -0.4231
   96SAPC   C22 9389   1.001   6.423   3.929  0.1285  0.0255  0.7033
   96SAPC   H2R 9390   1.072   6.351   3.974  1.1490  0.0904 -0.7283
   96SAPC   H2S 9391   1.059   6.493   3.864  1.7629  1.0411  3.1324
   96SAPC    C3 9392   1.003   6.078   3.594  0.3143 -0.1015 -0.0885
   96SAPC    HX 9393   1.086   6.118   3.532  2.0724 -0.7517  1.7129
   96SAPC    HY 9394   0.939   6.008   3.535 -0.5968 -0.2043  0.9872
   96SAPC   O31 9395   1.055   5.989   3.699  0.3284  0.0423  0.1933
   96SAPC   C31 9396   1.178   6.025   3.744  0.1023  0.6090  0.2145
   96SAPC   O32 9397   1.243   6.118   3.692  0.3186  0.2451 -0.2465
   96SAPC   C32 9398   1.231   5.929   3.849 -0.4239 -0.0815 -0.2936
   96SAPC   H2X 9399   1.340   5.950   3.852 -0.5052  0.2866  0.1701
   96SAPC   H2Y 9400   1.192   5.827   3.832 -0.1743  0.0295 -1.6097
   96SAPC   C23 9401   0.930   6.512   4.027 -0.8331 -1.0832  0.1705
   96SAPC   H3R 9402   0.835   6.552   3.985  0.1872 -0.9189 -2.1283
   96SAPC   H3S 9403   1.004   6.591   4.050 -0.8817 -1.6566  2.6102
   96SAPC   C24 9404   0.897   6.454   4.165  0.2808 -0.1655 -0.3602
   96SAPC   H4R 9405   0.988   6.430   4.225 -1.0707 -0.8652  1.4714
   96SAPC   H4S 9406   0.839   6.360   4.156 -1.5821  0.9745 -0.7338
   96SAPC   C25 9407   0.824   6.557   4.248 -0.0101  1.2075 -0.6053
   96SAPC   H5R 9408   0.715   6.547   4.248 -0.1689  2.7299 -0.2815
   96SAPC   C26 9409   0.879   6.642   4.339 -0.0674  0.4725  0.1494
   96SAPC   H6R 9410   0.816   6.715   4.392  2.0761  0.5392  2.8496
   96SAPC   C27 9411   1.028   6.662   4.376  0.0976  0.4486 -0.1704
   96SAPC   H7R 9412   1.046   6.770   4.395  0.4051  0.7719 -2.1425
   96SAPC   H7S 9413   1.088   6.635   4.287  0.8431  0.1721  0.4041
   96SAPC   C28 9414   1.072   6.603   4.507 -0.3144 -0.1583  0.6611
   96SAPC   H8R 9415   1.003   6.626   4.588  1.3894  2.1363  1.5766
   96SAPC   C29 9416   1.176   6.527   4.527  0.0184 -0.8147 -0.3230
   96SAPC   H9R 9417   1.183   6.479   4.625  0.3178 -2.9509 -1.3245
   96SAPC  C210 9418   1.279   6.485   4.426 -0.0360 -0.2234 -0.2820
   96SAPC  H10R 9419   1.368   6.455   4.487 -0.3957  0.8568  0.8104
   96SAPC  H10S 9420   1.304   6.574   4.364 -0.0619  0.8240  1.1647
   96SAPC  C211 9421   1.240   6.361   4.347 -0.9647  0.1795 -0.4041
   96SAPC  H11R 9422   1.158   6.301   4.388  0.4131 -0.2768  1.8593
   96SAPC  C212 9423   1.285   6.329   4.224  0.5387  0.4359 -0.0497
   96SAPC  H12R 9424   1.236   6.240   4.182 -1.8714  0.9187  1.5103
   96SAPC  C213 9425   1.380   6.419   4.143 -1.1176  0.6957 -0.7910
   96SAPC  H13R 9426   1.478   6.368   4.155 -0.9751  1.5237  2.8168
   96SAPC  H13S 9427   1.394   6.521   4.185  3.3547 -0.1490  0.3227
   96SAPC  C214 9428   1.327   6.422   4.000  0.5281  0.2266 -0.6060
   96SAPC  H14R 9429   1.246   6.495   3.985 -0.4025 -0.2655  1.6228
   96SAPC  C215 9430   1.372   6.341   3.901  0.5532 -0.2433 -0.4410
   96SAPC  H15R 9431   1.336   6.346   3.797  2.1306  2.3362 -0.9375
   96SAPC  C216 9432   1.475   6.237   3.918 -0.3200 -0.4316  0.4847
   96SAPC  H16R 9433   1.426   6.139   3.935 -0.7200 -0.1957  0.7107
   96SAPC  H16S 9434   1.541   6.261   4.004 -1.6160 -0.7695  1.6035
   96SAPC  C217 9435   1.574   6.197   3.800  0.3425  0.3291 -0.2584
   96SAPC  H17R 9436   1.617   6.289   3.756 -0.4658  0.9608  0.2617
   96SAPC  H17S 9437   1.512   6.146   3.723  1.1777  1.5326 -1.7690
   96SAPC  C218 9438   1.696   6.108   3.834 -0.3296  0.0341  0.1183
   96SAPC  H18R 9439   1.656   6.011   3.870  0.9947  0.5631  3.3514
   96SAPC  H18S 9440   1.758   6.161   3.909 -1.4616 -1.2702  2.0504
   96SAPC  C219 9441   1.763   6.055   3.706  0.0591  0.4728  0.1994
   96SAPC  H19R 9442   1.767   6.136   3.630 -0.7196 -0.5382 -0.9413
   96SAPC  H19S 9443   1.695   5.990   3.647  0.7519  1.8644 -2.2680
   96SAPC  C220 9444   1.890   5.972   3.720 -0.0870  0.1328 -0.4912
   96SAPC  H20R 9445   1.937   6.015   3.810 -3.2764 -0.0515  1.3807
   96SAPC  H20S 9446   1.951   5.994   3.629  0.8329  0.4394  0.1907
   96SAPC  H20T 9447   1.873   5.862   3.722 -1.2113  0.3167  0.3976
   96SAPC   C33 9448   1.179   5.987   3.986 -0.5773  0.0050  0.3843
   96SAPC   H3X 9449   1.178   6.098   3.990  0.7261  0.0763 -0.5096
   96SAPC   H3Y 9450   1.255   5.955   4.060 -1.0391  0.1104  0.9166
   96SAPC   C34 9451   1.038   5.923   4.023 -0.0970 -0.8529  0.4073
   96SAPC   H4X 9452   1.052   5.822   4.068 -1.8964 -2.3183 -2.0983
   96SAPC   H4Y 9453   0.967   5.909   3.939 -2.3853  0.4517  2.0304
   96SAPC   C35 9454   0.969   6.025   4.122 -0.4296  0.8851 -0.1017
   96SAPC   H5X 9455   0.981   6.130   4.087  1.3230  0.9747  0.6262
   96SAPC   H5Y 9456   1.031   6.018   4.214  1.3751  1.1279 -1.2473
   96SAPC   C36 9457   0.829   5.977   4.163 -0.4724  0.7930 -0.5425
   96SAPC   H6X 9458   0.844   5.879   4.214  2.5629  1.5607  0.2377
   96SAPC   H6Y 9459   0.767   5.950   4.075  1.1550  1.3636 -1.9374
   96SAPC   C37 9460   0.752   6.073   4.253 -0.9101 -0.5379 -0.0311
   96SAPC   H7X 9461   0.648   6.034   4.255 -1.7022  1.2330 -1.9648
   96SAPC   H7Y 9462   0.741   6.178   4.218  0.3682 -0.1163  0.7941
   96SAPC   C38 9463   0.795   6.069   4.401  0.1875  0.3093  0.0916
   96SAPC   H8X 9464   0.833   5.968   4.428  0.1920  0.7277  1.7452
   96SAPC   H8Y 9465   0.711   6.092   4.470  0.3017  0.4854  0.1746
   96SAPC   C39 9466   0.897   6.174   4.438  0.3148  0.0249 -0.1682
   96SAPC   H9X 9467   0.854   6.274   4.417  1.1218  0.0849 -1.6380
   96SAPC   H9Y 9468   0.983   6.163   4.369 -0.9833 -1.2351 -1.6688
   96SAPC  C310 9469   0.935   6.164   4.591 -0.4095  0.3189 -0.7868
   96SAPC  H10X 9470   1.027   6.226   4.603  0.9337 -1.3093 -2.1363
   96SAPC  H10Y 9471   0.975   6.063   4.612 -0.5592  0.5973  1.0030
   96SAPC  C311 9472   0.825   6.203   4.690  0.0627 -0.7413 -0.5082
   96SAPC  H11X 9473   0.744   6.128   4.677  0.0036 -0.6459 -0.6866
   96SAPC  H11Y 9474   0.780   6.297   4.652  0.5504 -0.3547 -0.1424
   96SAPC  C312 9475   0.865   6.213   4.835  0.4947  0.2188  0.3056
   96SAPC  H12X 9476   0.785   6.236   4.909  1.5224  1.0390  1.1930
   96SAPC  H12Y 9477   0.933   6.300   4.840 -0.7326  1.1669  0.8908
   96SAPC  C313 9478   0.917   6.075   4.880 -0.6854  0.1446 -0.3994
   96SAPC  H13X 9479   1.009   6.057   4.820  0.2637  2.7165  0.1257
   96SAPC  H13Y 9480   0.841   5.998   4.855 -1.9595 -0.2625  4.0134
   96SAPC  C314 9481   0.942   6.070   5.028  0.1061  0.2523 -0.1557
   96SAPC  H14X 9482   0.840   6.065   5.073 -1.1898 -0.0620 -2.9034
   96SAPC  H14Y 9483   0.993   6.164   5.058  1.2382  0.0780 -1.4502
   96SAPC  C315 9484   1.019   5.945   5.076 -1.0612  0.8366 -0.5218
   96SAPC  H15X 9485   1.119   5.945   5.027 -0.0108  0.1642  1.4985
   96SAPC  H15Y 9486   0.963   5.853   5.050 -0.6063  0.9638 -2.0224
   96SAPC  C316 9487   1.039   5.955   5.230 -0.7956 -0.5238 -0.4074
   96SAPC  H16X 9488   1.058   5.851   5.264  2.6121  0.2219  0.3554
   96SAPC  H16Y 9489   0.942   5.991   5.270  0.0809 -0.5629  1.9404
   96SAPC  C317 9490   1.148   6.055   5.266  0.1539  0.2817 -0.4531
   96SAPC  H17X 9491   1.120   6.152   5.220  1.9677 -0.0873 -2.4752
   96SAPC  H17Y 9492   1.242   6.033   5.211 -0.9327  0.6345 -2.5419
   96SAPC  C318 9493   1.188   6.071   5.417  0.0078  0.0162 -0.1061
   96SAPC  H18X 9494   1.196   5.970   5.462  1.3690  1.0474  2.1057
   96SAPC  H18Y 9495   1.110   6.129   5.473  0.2016  1.0160 -0.8377
   96SAPC  H18Z 9496   1.286   6.121   5.436  0.4872 -0.2924 -1.6680
   97SAPC     N 9497   6.506   2.396   2.995 -0.4679  0.2472  0.2188
   97SAPC   C12 9498   6.493   2.436   3.141  0.3792  0.0145  0.5157
   97SAPC  H12A 9499   6.433   2.363   3.193  1.0104  0.4801  1.9376
   97SAPC  H12B 9500   6.429   2.523   3.146  0.4341  0.1079 -0.2251
   97SAPC   C13 9501   6.529   2.514   2.903 -0.3306 -0.0597 -0.0236
   97SAPC  H13A 9502   6.583   2.486   2.814 -0.1485  2.2797 -0.7249
   97SAPC  H13B 9503   6.433   2.559   2.880 -0.1278  0.4057  0.0238
   97SAPC  H13C 9504   6.587   2.587   2.957  1.6999 -0.7236 -1.2226
   97SAPC   C14 9505   6.610   2.295   2.970 -0.2776 -0.1346  0.5547
   97SAPC  H14A 9506   6.617   2.248   2.873  1.6415  0.9336  0.1249
   97SAPC  H14B 9507   6.704   2.342   2.994  0.0981  0.0693 -1.1765
   97SAPC  H14C 9508   6.603   2.206   3.031 -0.3949  0.7939  1.9343
   97SAPC   C15 9509   6.372   2.329   2.958 -0.1388  0.4280 -0.3905
   97SAPC  H15A 9510   6.383   2.278   2.863  0.8037 -0.3097  0.0825
   97SAPC  H15B 9511   6.350   2.247   3.025  0.7866  1.4434  1.2351
   97SAPC  H15C 9512   6.287   2.394   2.956 -0.4867  0.0732  1.1819
   97SAPC   C11 9513   6.614   2.466   3.229 -0.1910  0.3024 -0.1361
   97SAPC  H11A 9514   6.683   2.380   3.234  0.4033  0.6878 -1.3655
   97SAPC  H11B 9515   6.590   2.475   3.338 -0.7407  1.2108 -0.3189
   97SAPC     P 9516   6.628   2.727   3.238 -0.1130  0.0956  0.1503
   97SAPC   O13 9517   6.702   2.836   3.176 -0.1437 -0.3500  0.6951
   97SAPC   O14 9518   6.484   2.743   3.241 -0.8348 -0.1893  0.2827
   97SAPC   O12 9519   6.666   2.581   3.171  1.1813 -0.5111 -0.0120
   97SAPC   O11 9520   6.676   2.700   3.388 -0.8247  0.6577  0.2585
   97SAPC    C1 9521   6.804   2.652   3.411 -0.7613  0.0092 -0.9032
   97SAPC    HA 9522   6.827   2.559   3.353  2.1729 -0.2124  0.4111
   97SAPC    HB 9523   6.882   2.726   3.381  2.7165 -2.6111  0.8442
   97SAPC    C2 9524   6.831   2.613   3.562  0.1718 -0.6572  0.0779
   97SAPC    HS 9525   6.941   2.606   3.575 -0.1347 -2.3322  2.2084
   97SAPC   O21 9526   6.770   2.483   3.591 -0.1976  0.5947  0.7556
   97SAPC   C21 9527   6.838   2.368   3.551  0.8955 -0.7810 -0.2440
   97SAPC   O22 9528   6.957   2.370   3.530 -0.3930 -0.6122  0.4385
   97SAPC   C22 9529   6.744   2.249   3.575  0.2387 -0.7942  0.0809
   97SAPC   H2R 9530   6.655   2.265   3.511  1.0086  1.0083 -0.6020
   97SAPC   H2S 9531   6.801   2.157   3.550  0.6035 -0.4771 -0.2760
   97SAPC    C3 9532   6.780   2.722   3.654 -0.9322 -0.1604 -1.0724
   97SAPC    HX 9533   6.672   2.735   3.635 -0.5739  2.6054 -1.6728
   97SAPC    HY 9534   6.833   2.814   3.623  0.4595 -0.0454  1.3402
   97SAPC   O31 9535   6.807   2.689   3.794  0.4359 -0.2889 -0.6827
   97SAPC   C31 9536   6.907   2.760   3.853 -0.3415  0.5002 -0.3526
   97SAPC   O32 9537   6.987   2.825   3.788 -0.1548 -0.0681  0.4268
   97SAPC   C32 9538   6.912   2.744   4.006  0.6219 -0.2104 -1.5339
   97SAPC   H2X 9539   6.910   2.637   4.034 -0.3701  0.2675  0.4088
   97SAPC   H2Y 9540   6.822   2.791   4.051  2.1895  1.1648  0.3377
   97SAPC   C23 9541   6.695   2.213   3.727 -0.2867  0.1328  0.2345
   97SAPC   H3R 9542   6.601   2.160   3.702  2.0478 -3.1392 -2.4917
   97SAPC   H3S 9543   6.672   2.298   3.796 -1.4339 -1.5706  2.0464
   97SAPC   C24 9544   6.790   2.119   3.803 -1.0005 -0.0846 -0.4824
   97SAPC   H4R 9545   6.813   2.037   3.732  1.7532 -0.0346  0.2600
   97SAPC   H4S 9546   6.733   2.059   3.878 -1.5237 -1.0049 -1.5748
   97SAPC   C25 9547   6.911   2.168   3.877  0.0617 -0.1885  0.3756
   97SAPC   H5R 9548   7.004   2.136   3.826 -0.2654 -2.1164  0.8951
   97SAPC   C26 9549   6.919   2.244   3.994  0.4310  0.5092 -0.6096
   97SAPC   H6R 9550   7.010   2.276   4.046 -0.5743  1.7622  0.4531
   97SAPC   C27 9551   6.796   2.283   4.071 -0.6512 -0.0282  0.7569
   97SAPC   H7R 9552   6.701   2.252   4.022 -0.4164 -1.4948  1.1593
   97SAPC   H7S 9553   6.804   2.393   4.086 -0.3766  0.1271 -0.4442
   97SAPC   C28 9554   6.797   2.212   4.202 -0.1132  0.1474 -0.1878
   97SAPC   H8R 9555   6.788   2.103   4.193 -0.2050  0.2169 -0.9603
   97SAPC   C29 9556   6.814   2.272   4.325  0.7081  0.1862  0.2810
   97SAPC   H9R 9557   6.802   2.204   4.411  1.9589 -0.8514 -0.3222
   97SAPC  C210 9558   6.833   2.417   4.351 -0.7402 -0.8259  0.6760
   97SAPC  H10R 9559   6.796   2.459   4.447 -2.7613 -0.0221 -0.3922
   97SAPC  H10S 9560   6.770   2.478   4.282  1.9873  0.9779 -0.4268
   97SAPC  C211 9561   6.983   2.446   4.329  0.4541 -0.5230 -0.6736
   97SAPC  H11R 9562   7.036   2.391   4.250 -1.9778 -1.4527 -1.7338
   97SAPC  C212 9563   7.052   2.534   4.411 -0.4112  0.2563 -0.4965
   97SAPC  H12R 9564   7.160   2.533   4.391 -0.6019  0.4707 -1.5901
   97SAPC  C213 9565   6.992   2.626   4.517  0.4170 -0.0703  0.0097
   97SAPC  H13R 9566   6.938   2.561   4.589  2.4165 -2.0121 -0.1014
   97SAPC  H13S 9567   6.918   2.698   4.477 -0.3880 -0.0819  1.4265
   97SAPC  C214 9568   7.084   2.730   4.562  0.0789  0.3904 -0.0114
   97SAPC  H14R 9569   7.141   2.785   4.486  0.9707 -0.4058  0.0506
   97SAPC  C215 9570   7.108   2.764   4.695  1.0478 -0.3500 -0.8850
   97SAPC  H15R 9571   7.159   2.859   4.717 -1.2795  0.6067  0.7284
   97SAPC  C216 9572   7.034   2.702   4.816 -0.8423  0.2467  0.2235
   97SAPC  H16R 9573   7.107   2.638   4.869 -0.8990  0.5410  0.6578
   97SAPC  H16S 9574   6.945   2.643   4.786 -0.6194 -0.2520  0.5388
   97SAPC  C217 9575   6.991   2.812   4.912 -0.1314  0.9251  0.1101
   97SAPC  H17R 9576   6.918   2.884   4.870 -0.0411  2.9856  3.1307
   97SAPC  H17S 9577   7.081   2.865   4.951 -2.0398  3.1543  1.7367
   97SAPC  C218 9578   6.923   2.750   5.035 -0.7414 -0.2298  0.4081
   97SAPC  H18R 9579   7.000   2.685   5.082  0.3111 -0.1795 -1.1355
   97SAPC  H18S 9580   6.848   2.677   4.998  0.2930  0.2276 -2.9993
   97SAPC  C219 9581   6.870   2.857   5.128  0.1086 -0.7206  0.4813
   97SAPC  H19R 9582   6.955   2.916   5.167 -0.3643  0.6265 -0.4499
   97SAPC  H19S 9583   6.819   2.808   5.213  0.6148 -1.6801  0.2486
   97SAPC  C220 9584   6.774   2.962   5.064 -0.4116  0.3707  0.2800
   97SAPC  H20R 9585   6.703   2.913   4.994 -2.0262  2.3600  0.4333
   97SAPC  H20S 9586   6.823   3.043   5.005  0.8153  0.5804  1.5215
   97SAPC  H20T 9587   6.711   3.014   5.139 -1.6549 -0.4091 -0.1971
   97SAPC   C33 9588   7.034   2.813   4.066  0.5634  0.1254  0.3603
   97SAPC   H3X 9589   7.110   2.808   3.985 -0.1172 -0.5372 -0.2532
   97SAPC   H3Y 9590   7.065   2.762   4.159 -0.5319 -0.3473  0.4772
   97SAPC   C34 9591   7.001   2.968   4.085  0.3260  0.4070 -0.4692
   97SAPC   H4X 9592   6.914   2.991   4.149  0.4033 -0.3355 -0.0870
   97SAPC   H4Y 9593   6.964   3.010   3.989  2.7264 -0.3955 -1.8563
   97SAPC   C35 9594   7.111   3.049   4.150  0.5013  0.8140  0.3611
   97SAPC   H5X 9595   7.151   3.121   4.075 -0.7834  2.4910  1.2126
   97SAPC   H5Y 9596   7.194   2.977   4.167  0.6638  0.4745 -1.5822
   97SAPC   C36 9597   7.079   3.114   4.291 -0.6237  0.6168  0.5121
   97SAPC   H6X 9598   7.076   3.028   4.361  0.1520 -0.1829 -0.4092
   97SAPC   H6Y 9599   6.980   3.166   4.292 -3.4197 -3.9603 -2.0174
   97SAPC   C37 9600   7.191   3.199   4.347 -0.3281  0.2011  0.0456
   97SAPC   H7X 9601   7.223   3.276   4.274  1.9518  0.3076  1.0582
   97SAPC   H7Y 9602   7.283   3.138   4.360 -1.1842 -0.9054  1.1605
   97SAPC   C38 9603   7.155   3.261   4.489 -0.5764  0.3826 -0.4688
   97SAPC   H8X 9604   7.123   3.181   4.559  0.6514  0.2730 -0.0189
   97SAPC   H8Y 9605   7.067   3.329   4.484 -1.7411 -1.1198 -1.4697
   97SAPC   C39 9606   7.269   3.343   4.548 -0.0292  0.0260  0.0840
   97SAPC   H9X 9607   7.233   3.414   4.626  1.2567 -0.1240  0.8491
   97SAPC   H9Y 9608   7.295   3.404   4.459 -0.0873 -0.2934 -0.1524
   97SAPC  C310 9609   7.392   3.274   4.611  0.1589  0.3219 -0.8557
   97SAPC  H10X 9610   7.416   3.192   4.540  1.7534 -0.3853  0.4511
   97SAPC  H10Y 9611   7.366   3.220   4.704  0.6433 -0.1814 -1.0059
   97SAPC  C311 9612   7.517   3.361   4.633  0.0481 -0.3540  0.3816
   97SAPC  H11X 9613   7.517   3.455   4.575 -0.6065 -0.5553  0.0410
   97SAPC  H11Y 9614   7.596   3.298   4.587  0.3688  2.8984 -4.1661
   97SAPC  C312 9615   7.549   3.386   4.785 -0.1463  0.6856  0.3511
   97SAPC  H12X 9616   7.540   3.291   4.843  1.3523 -0.6858 -1.5160
   97SAPC  H12Y 9617   7.482   3.465   4.824 -1.4588 -0.8175  1.3119
   97SAPC  C313 9618   7.699   3.431   4.812  0.5208  0.0361 -0.1472
   97SAPC  H13X 9619   7.706   3.539   4.789  1.1439  0.1519  0.5475
   97SAPC  H13Y 9620   7.769   3.377   4.745 -0.2755 -0.4511 -0.5991
   97SAPC  C314 9621   7.744   3.422   4.955 -0.3329 -0.1603  0.5109
   97SAPC  H14X 9622   7.771   3.320   4.991  0.2004  0.0043  0.5992
   97SAPC  H14Y 9623   7.669   3.468   5.022  0.7389  0.3763  1.3743
   97SAPC  C315 9624   7.867   3.513   4.979 -0.4305 -0.4557  0.0924
   97SAPC  H15X 9625   7.838   3.620   4.969  1.0859 -0.0487 -0.1357
   97SAPC  H15Y 9626   7.943   3.490   4.902 -0.4523  2.1404 -0.7911
   97SAPC  C316 9627   7.932   3.498   5.112  0.2035 -0.1712  0.3122
   97SAPC  H16X 9628   7.866   3.549   5.186 -0.9492 -0.8763 -0.2018
   97SAPC  H16Y 9629   8.025   3.559   5.118 -0.7080  1.2652  0.3018
   97SAPC  C317 9630   7.965   3.359   5.167  0.3486  0.3492  0.9079
   97SAPC  H17X 9631   8.025   3.308   5.088 -1.0910 -1.0449  0.6657
   97SAPC  H17Y 9632   7.873   3.297   5.174  2.2639 -2.5732  2.9193
   97SAPC  C318 9633   8.035   3.345   5.297 -1.0460  0.8104  0.5020
   97SAPC  H18X 9634   7.992   3.410   5.376 -1.3978  0.1802  0.8430
   97SAPC  H18Y 9635   8.140   3.378   5.288 -1.5803  2.8690  1.1005
   97SAPC  H18Z 9636   8.030   3.238   5.326  0.4804  0.1581 -1.4833
   98SAPC     N 9637   2.791   4.806   2.728  0.4525  0.1247 -0.0638
   98SAPC   C12 9638   2.745   4.942   2.692  0.1742 -0.3101 -0.4627
   98SAPC  H12A 9639   2.763   5.010   2.774  1.4221 -0.8947 -0.2254
   98SAPC  H12B 9640   2.639   4.958   2.689  0.5937  2.9593 -1.4216
   98SAPC   C13 9641   2.728   4.784   2.864 -0.4262  0.2458  0.5428
   98SAPC  H13A 9642   2.623   4.806   2.856 -0.1449  1.0118 -1.9577
   98SAPC  H13B 9643   2.744   4.680   2.887 -1.6100 -0.3434 -1.1406
   98SAPC  H13C 9644   2.769   4.855   2.934  0.0989  1.9104 -1.3468
   98SAPC   C14 9645   2.755   4.703   2.622 -0.1670  0.0419  0.4085
   98SAPC  H14A 9646   2.841   4.702   2.556 -0.5297 -0.1684 -0.0582
   98SAPC  H14B 9647   2.742   4.604   2.663  0.4744  0.4118  1.5648
   98SAPC  H14C 9648   2.666   4.728   2.567 -0.8348  0.0913  1.4844
   98SAPC   C15 9649   2.938   4.803   2.741 -0.1667  0.3440 -0.0362
   98SAPC  H15A 9650   2.975   4.857   2.827  1.3154 -1.3632  0.4640
   98SAPC  H15B 9651   2.982   4.704   2.736 -0.6195  0.0720  1.0841
   98SAPC  H15C 9652   2.980   4.854   2.655  2.4131  0.2645  1.0783
   98SAPC   C11 9653   2.794   5.010   2.560 -0.4374 -0.4308 -0.5744
   98SAPC  H11A 9654   2.727   5.091   2.526  0.4856  0.8280  0.5052
   98SAPC  H11B 9655   2.791   4.942   2.472  1.2584  1.1476 -1.9252
   98SAPC     P 9656   2.980   5.161   2.665  0.1034 -0.2063  0.0487
   98SAPC   O13 9657   3.095   5.113   2.740 -0.1858 -0.2348 -0.6481
   98SAPC   O14 9658   3.005   5.273   2.572 -0.0675 -0.2729 -0.5372
   98SAPC   O12 9659   2.927   5.050   2.569  0.3298 -0.1596  0.2402
   98SAPC   O11 9660   2.859   5.192   2.762  0.0607  0.5162  0.6009
   98SAPC    C1 9661   2.862   5.320   2.830 -0.6045 -0.0356  0.4935
   98SAPC    HA 9662   2.931   5.396   2.787  0.7138 -1.1089  0.6557
   98SAPC    HB 9663   2.759   5.359   2.813 -0.2790  0.4108 -0.5513
   98SAPC    C2 9664   2.861   5.299   2.983 -0.3851 -0.8870  0.6600
   98SAPC    HS 9665   2.844   5.402   3.023  0.0952 -0.2326 -0.7459
   98SAPC   O21 9666   2.992   5.256   3.031 -0.3519  0.3835  0.3724
   98SAPC   C21 9667   3.091   5.343   3.022 -1.0367  0.2983  0.0447
   98SAPC   O22 9668   3.090   5.453   2.974 -0.2047  0.8293  0.9267
   98SAPC   C22 9669   3.233   5.289   3.071 -0.1412  0.1200  0.1951
   98SAPC   H2R 9670   3.263   5.239   2.976  0.2418  1.0400 -0.1808
   98SAPC   H2S 9671   3.301   5.374   3.093 -0.4270  0.2252  0.6707
   98SAPC    C3 9672   2.753   5.204   3.026  0.0097 -0.3824 -0.0269
   98SAPC    HX 9673   2.762   5.111   2.966 -1.1334 -0.4187 -0.1703
   98SAPC    HY 9674   2.663   5.255   2.984  0.5422 -0.2499 -1.0353
   98SAPC   O31 9675   2.746   5.184   3.169 -0.5451 -0.5245 -0.2671
   98SAPC   C31 9676   2.792   5.070   3.218  1.4263 -0.1050  0.4980
   98SAPC   O32 9677   2.844   4.984   3.145 -0.4016  0.1180 -0.2607
   98SAPC   C32 9678   2.760   5.071   3.370  0.0796  0.0671 -0.1543
   98SAPC   H2X 9679   2.811   4.989   3.426  0.4868 -1.5549 -2.7486
   98SAPC   H2Y 9680   2.653   5.049   3.387  0.2496  0.5898  1.9443
   98SAPC   C23 9681   3.216   5.190   3.183 -0.3058  0.6433 -0.4184
   98SAPC   H3R 9682   3.294   5.112   3.170 -0.6887  0.2288 -0.2504
   98SAPC   H3S 9683   3.116   5.142   3.181  0.4197 -0.9961  0.5380
   98SAPC   C24 9684   3.251   5.238   3.323  0.5682  0.1262 -0.9173
   98SAPC   H4R 9685   3.356   5.274   3.330  1.8305 -3.4027  0.6091
   98SAPC   H4S 9686   3.261   5.147   3.386 -0.3903  0.8870  0.3874
   98SAPC   C25 9687   3.172   5.356   3.377  0.6435  0.4087  0.3243
   98SAPC   H5R 9688   3.144   5.432   3.302  0.1665  0.7735  0.8506
   98SAPC   C26 9689   3.154   5.392   3.505  0.1765 -0.0381  0.4454
   98SAPC   H6R 9690   3.084   5.473   3.530  0.2300 -0.5332  2.3888
   98SAPC   C27 9691   3.201   5.304   3.620 -0.5026 -0.8959  0.3611
   98SAPC   H7R 9692   3.218   5.201   3.582  0.7968  0.0064 -1.7095
   98SAPC   H7S 9693   3.118   5.284   3.691  0.1009 -2.0021  0.7814
   98SAPC   C28 9694   3.320   5.366   3.679 -0.7064  0.7058 -0.1654
   98SAPC   H8R 9695   3.400   5.401   3.613  1.1328 -0.3786  1.3827
   98SAPC   C29 9696   3.336   5.368   3.811 -0.5621 -0.4461 -0.3008
   98SAPC   H9R 9697   3.435   5.401   3.846 -1.1156  0.8445  0.1260
   98SAPC  C210 9698   3.247   5.313   3.918  0.1144 -0.2864  0.4574
   98SAPC  H10R 9699   3.221   5.206   3.904 -2.9609  0.2044  1.6549
   98SAPC  H10S 9700   3.164   5.387   3.913  2.2873  2.4678  2.1633
   98SAPC  C211 9701   3.301   5.307   4.061 -0.1187 -0.3503 -0.0355
   98SAPC  H11R 9702   3.275   5.399   4.117 -1.3851  0.6715 -2.1452
   98SAPC  C212 9703   3.356   5.210   4.129 -0.7594 -0.0502 -0.8979
   98SAPC  H12R 9704   3.378   5.230   4.235 -0.4554  0.1516 -0.9995
   98SAPC  C213 9705   3.403   5.072   4.083 -0.0490 -0.6368  0.2208
   98SAPC  H13R 9706   3.514   5.059   4.086  0.0254 -0.3407 -0.7009
   98SAPC  H13S 9707   3.379   5.053   3.976  1.7565 -1.5596 -0.0696
   98SAPC  C214 9708   3.335   4.957   4.154 -0.1804  0.0516 -0.0147
   98SAPC  H14R 9709   3.254   4.907   4.098 -1.8246  2.9095 -0.4097
   98SAPC  C215 9710   3.364   4.906   4.274  0.7985  0.3488  0.1710
   98SAPC  H15R 9711   3.305   4.818   4.302  0.0497  0.9402  0.4832
   98SAPC  C216 9712   3.469   4.950   4.370  0.0271 -0.3022 -0.5079
   98SAPC  H16R 9713   3.534   5.020   4.314 -0.1241  0.6581  0.4869
   98SAPC  H16S 9714   3.529   4.859   4.396 -0.2911 -0.4753 -0.3761
   98SAPC  C217 9715   3.425   5.003   4.506 -0.2721 -0.1939  0.3685
   98SAPC  H17R 9716   3.362   4.939   4.572  1.4992 -0.3958  1.9578
   98SAPC  H17S 9717   3.371   5.099   4.494 -2.4841 -1.2223  1.5395
   98SAPC  C218 9718   3.551   5.037   4.594 -0.3458  0.2399  0.0683
   98SAPC  H18R 9719   3.620   5.091   4.526  0.6316 -0.3949  0.5436
   98SAPC  H18S 9720   3.603   4.944   4.623 -3.1229 -0.8190  2.1572
   98SAPC  C219 9721   3.533   5.130   4.713  0.1389  0.0496 -0.6336
   98SAPC  H19R 9722   3.497   5.069   4.798 -3.7294  1.2857 -1.1984
   98SAPC  H19S 9723   3.454   5.207   4.700  1.2172  1.4239  0.6399
   98SAPC  C220 9724   3.661   5.209   4.751 -0.0674 -0.3120  0.3573
   98SAPC  H20R 9725   3.641   5.279   4.835 -1.0040 -0.0698 -0.0522
   98SAPC  H20S 9726   3.694   5.274   4.667 -0.4546 -0.5198  0.0431
   98SAPC  H20T 9727   3.745   5.140   4.777 -0.1779 -0.5676  0.0327
   98SAPC   C33 9728   2.774   5.210   3.443 -0.1887  0.0559  1.0910
   98SAPC   H3X 9729   2.697   5.283   3.409  0.9843  1.4298  1.2766
   98SAPC   H3Y 9730   2.869   5.258   3.411 -0.8267  0.4866 -0.2685
   98SAPC   C34 9731   2.781   5.201   3.596  0.3784  0.0324  0.0110
   98SAPC   H4X 9732   2.871   5.144   3.624  0.7153  0.1696 -0.7560
   98SAPC   H4Y 9733   2.698   5.146   3.647  1.3076  0.2906  1.8704
   98SAPC   C35 9734   2.802   5.340   3.668  0.3433  0.3533 -0.7763
   98SAPC   H5X 9735   2.718   5.414   3.670  1.4067  1.6391 -1.8112
   98SAPC   H5Y 9736   2.884   5.394   3.616 -0.8862  0.5329 -2.6326
   98SAPC   C36 9737   2.833   5.313   3.819 -0.4613  0.0168  0.5129
   98SAPC   H6X 9738   2.916   5.240   3.831 -1.1780 -1.4424 -2.2265
   98SAPC   H6Y 9739   2.748   5.255   3.861 -1.9718  0.9600 -1.1071
   98SAPC   C37 9740   2.866   5.444   3.892 -0.5303  0.0164 -0.6246
   98SAPC   H7X 9741   2.800   5.526   3.858 -0.4753  0.6408  0.7257
   98SAPC   H7Y 9742   2.966   5.478   3.856 -0.4068  0.4281  0.0996
   98SAPC   C38 9743   2.874   5.437   4.046  0.5619 -0.2476  0.1014
   98SAPC   H8X 9744   2.923   5.339   4.065  0.6973 -0.7452 -2.4431
   98SAPC   H8Y 9745   2.768   5.437   4.078  0.4991 -0.9067 -0.0915
   98SAPC   C39 9746   2.958   5.553   4.106  0.2377  0.7626 -0.3129
   98SAPC   H9X 9747   2.923   5.647   4.059  0.8485  0.0842 -2.1889
   98SAPC   H9Y 9748   3.062   5.532   4.074 -0.7569 -2.4808 -1.8579
   98SAPC  C310 9749   2.953   5.561   4.262  0.5030  0.0852  0.4383
   98SAPC  H10X 9750   2.982   5.469   4.317  0.7446 -0.4109 -0.4887
   98SAPC  H10Y 9751   2.846   5.586   4.277  0.0751 -2.1107  1.4980
   98SAPC  C311 9752   3.029   5.677   4.320 -0.3281 -0.2249  0.4806
   98SAPC  H11X 9753   2.977   5.767   4.282  0.3446 -0.3258 -0.7674
   98SAPC  H11Y 9754   3.136   5.673   4.287  0.0933 -1.5863  1.8880
   98SAPC  C312 9755   3.021   5.683   4.471 -0.1904 -0.3811  0.8862
   98SAPC  H12X 9756   3.073   5.594   4.513  1.9275  0.5495  0.3392
   98SAPC  H12Y 9757   2.919   5.701   4.513 -0.4300  2.7505 -0.7654
   98SAPC  C313 9758   3.097   5.799   4.538 -1.1682 -0.5107  0.1022
   98SAPC  H13X 9759   3.039   5.891   4.515  0.5948 -0.2240 -4.1667
   98SAPC  H13Y 9760   3.195   5.807   4.485 -1.5843  1.3524 -0.4557
   98SAPC  C314 9761   3.109   5.784   4.693 -0.3477 -0.4963  0.7509
   98SAPC  H14X 9762   3.173   5.871   4.720 -0.3883  0.8918 -3.0415
   98SAPC  H14Y 9763   3.155   5.685   4.715 -2.1962 -1.7853 -0.8353
   98SAPC  C315 9764   2.981   5.791   4.769  0.1553 -0.2280  0.2821
   98SAPC  H15X 9765   2.913   5.710   4.735 -0.6124  0.7164 -0.4896
   98SAPC  H15Y 9766   2.925   5.881   4.736  1.6604  0.4684 -0.4478
   98SAPC  C316 9767   2.995   5.792   4.922  0.1540 -0.5392 -0.5460
   98SAPC  H16X 9768   3.058   5.869   4.971 -0.8381 -0.1475  0.1478
   98SAPC  H16Y 9769   3.027   5.686   4.939  1.4159 -0.3182 -1.3726
   98SAPC  C317 9770   2.853   5.795   4.980  0.4164 -0.7384  0.0012
   98SAPC  H17X 9771   2.859   5.753   5.082 -1.5772  3.2988  1.9969
   98SAPC  H17Y 9772   2.794   5.719   4.924 -0.3075 -0.6145  0.5775
   98SAPC  C318 9773   2.792   5.932   4.977 -0.5219 -0.2009 -0.3658
   98SAPC  H18X 9774   2.862   6.005   5.025 -0.1478 -1.1577  0.5982
   98SAPC  H18Y 9775   2.697   5.935   5.033  0.3601 -2.3730  1.4145
   98SAPC  H18Z 9776   2.758   5.961   4.876 -0.2527  0.6982 -0.2111
   99SAPC     N 9777   1.553   2.493   2.566 -0.1739 -0.4815 -0.2775
   99SAPC   C12 9778   1.508   2.601   2.669  0.8927  0.0423 -0.0731
   99SAPC  H12A 9779   1.402   2.585   2.685  1.0774 -2.4401 -0.7982
   99SAPC  H12B 9780   1.514   2.702   2.631  3.1117 -0.1434 -0.3346
   99SAPC   C13 9781   1.696   2.541   2.539  0.2056  0.0580  0.0801
   99SAPC  H13A 9782   1.747   2.472   2.474  0.2135  0.0094  0.1374
   99SAPC  H13B 9783   1.690   2.646   2.515  0.0610  0.0655  0.1470
   99SAPC  H13C 9784   1.751   2.537   2.632  0.4232 -0.1251 -0.0563
   99SAPC   C14 9785   1.553   2.357   2.628 -0.3569  0.0826 -0.2765
   99SAPC  H14A 9786   1.448   2.335   2.644 -0.9253  1.0773 -2.2331
   99SAPC  H14B 9787   1.607   2.287   2.566  2.6692  0.0500  2.1514
   99SAPC  H14C 9788   1.598   2.367   2.725  1.9494  0.4806 -1.3206
   99SAPC   C15 9789   1.468   2.504   2.448  0.6828  0.4101  0.1448
   99SAPC  H15A 9790   1.362   2.507   2.465  0.5069  0.4581 -0.9178
   99SAPC  H15B 9791   1.492   2.592   2.390  1.6396  0.7425  1.0023
   99SAPC  H15C 9792   1.489   2.423   2.380 -2.6848 -1.2917  0.9313
   99SAPC   C11 9793   1.575   2.606   2.813  0.3834  0.5298  0.4497
   99SAPC  H11A 9794   1.523   2.685   2.872  1.5813  0.9318  1.0092
   99SAPC  H11B 9795   1.682   2.636   2.806  0.6666 -0.7897 -1.5848
   99SAPC     P 9796   1.678   2.451   2.993 -0.0568 -0.2122  0.1527
   99SAPC   O13 9797   1.610   2.451   3.127 -0.4388  0.0216 -0.0203
   99SAPC   O14 9798   1.743   2.328   2.937 -0.1317  0.3491  0.3051
   99SAPC   O12 9799   1.562   2.484   2.885 -0.0528  0.0507  0.0823
   99SAPC   O11 9800   1.778   2.572   2.995 -0.5478 -0.1785  0.5614
   99SAPC    C1 9801   1.914   2.554   3.037 -0.3121 -0.3509 -0.2298
   99SAPC    HA 9802   1.955   2.453   3.019 -3.0983 -1.5188 -0.4560
   99SAPC    HB 9803   1.969   2.620   2.966 -0.7570  0.0799 -0.1815
   99SAPC    C2 9804   1.939   2.615   3.183  0.4157 -0.4043 -0.2782
   99SAPC    HS 9805   2.049   2.612   3.201  1.0202 -0.0352 -3.3776
   99SAPC   O21 9806   1.868   2.538   3.285 -0.0511 -0.1986  0.1162
   99SAPC   C21 9807   1.910   2.423   3.323  0.1507  0.9252 -0.3755
   99SAPC   O22 9808   2.016   2.369   3.299 -0.3209 -0.0317  0.2460
   99SAPC   C22 9809   1.797   2.365   3.420  0.1562  0.4568  0.6561
   99SAPC   H2R 9810   1.694   2.396   3.391  0.4851  1.4060  0.4603
   99SAPC   H2S 9811   1.795   2.254   3.417  1.5320  0.4071  0.8341
   99SAPC    C3 9812   1.892   2.766   3.189  0.0332  0.0774 -0.2533
   99SAPC    HX 9813   1.782   2.758   3.183  0.1319 -2.6748  0.1467
   99SAPC    HY 9814   1.932   2.824   3.103 -1.6828  0.8766 -0.5421
   99SAPC   O31 9815   1.939   2.825   3.313 -0.1781  0.0248  0.2674
   99SAPC   C31 9816   1.844   2.830   3.407 -0.3547  0.2512 -1.0487
   99SAPC   O32 9817   1.728   2.808   3.403 -0.2211  0.1449  0.3175
   99SAPC   C32 9818   1.915   2.864   3.536 -0.1458 -0.1382  0.4087
   99SAPC   H2X 9819   2.017   2.903   3.514 -0.5945  1.1687  0.5162
   99SAPC   H2Y 9820   1.924   2.775   3.601 -1.9422 -0.0629  0.8125
   99SAPC   C23 9821   1.829   2.422   3.561  0.2940  0.6021 -0.2614
   99SAPC   H3R 9822   1.850   2.531   3.556  1.8712  0.3702  0.6493
   99SAPC   H3S 9823   1.927   2.376   3.587 -1.0147 -1.6726  1.0098
   99SAPC   C24 9824   1.739   2.386   3.679  0.3812 -0.7386 -0.5921
   99SAPC   H4R 9825   1.779   2.444   3.765  1.9598  0.3910 -2.0215
   99SAPC   H4S 9826   1.751   2.277   3.695  3.3261 -0.3956  0.1524
   99SAPC   C25 9827   1.591   2.414   3.657 -0.0387  1.1063  0.7848
   99SAPC   H5R 9828   1.562   2.414   3.551  0.2673 -0.0355  0.6917
   99SAPC   C26 9829   1.501   2.436   3.747  0.1486  0.1695  0.1411
   99SAPC   H6R 9830   1.396   2.462   3.727  0.6574  2.1322 -0.1436
   99SAPC   C27 9831   1.516   2.417   3.892  0.1097  1.0614 -0.0218
   99SAPC   H7R 9832   1.611   2.364   3.914 -0.6575  0.7384  2.7924
   99SAPC   H7S 9833   1.432   2.360   3.934  0.1403 -0.7481 -2.2102
   99SAPC   C28 9834   1.514   2.548   3.964  0.1983 -0.1312 -0.0616
   99SAPC   H8R 9835   1.465   2.635   3.919 -1.1186 -0.9429 -0.2577
   99SAPC   C29 9836   1.570   2.566   4.082 -0.8535 -0.0838  0.0830
   99SAPC   H9R 9837   1.573   2.666   4.127 -1.0757 -0.6274  1.3633
   99SAPC  C210 9838   1.647   2.471   4.167  0.0196  0.0220 -0.2592
   99SAPC  H10R 9839   1.744   2.463   4.114 -0.2439 -1.1490 -0.6070
   99SAPC  H10S 9840   1.606   2.368   4.163  2.1043 -0.8148 -1.6304
   99SAPC  C211 9841   1.674   2.517   4.313  0.5994 -0.3125 -0.3041
   99SAPC  H11R 9842   1.747   2.597   4.325 -0.6978  0.7621  0.7087
   99SAPC  C212 9843   1.617   2.463   4.425  0.2193 -0.4462 -0.0742
   99SAPC  H12R 9844   1.634   2.519   4.518  0.8401  0.2608 -0.6008
   99SAPC  C213 9845   1.526   2.341   4.417  0.1340  0.0452  0.4901
   99SAPC  H13R 9846   1.593   2.252   4.422 -0.6843 -0.7277 -1.3848
   99SAPC  H13S 9847   1.474   2.325   4.320 -1.1062  1.1744  0.9356
   99SAPC  C214 9848   1.430   2.312   4.532  0.5934 -0.5731 -1.2211
   99SAPC  H14R 9849   1.377   2.401   4.569  0.4763 -0.8008 -0.8295
   99SAPC  C215 9850   1.399   2.193   4.584 -0.0938  0.3687  0.6685
   99SAPC  H15R 9851   1.326   2.179   4.666  0.8922  2.2310  1.9551
   99SAPC  C216 9852   1.453   2.057   4.543  0.4842 -0.0968 -0.1323
   99SAPC  H16R 9853   1.524   2.057   4.458 -0.3946  0.4083 -0.8850
   99SAPC  H16S 9854   1.368   1.991   4.516 -0.7427  0.6102  1.7622
   99SAPC  C217 9855   1.528   1.994   4.661 -0.4158 -0.7464  0.7773
   99SAPC  H17R 9856   1.461   1.981   4.748  0.5454 -1.8033  1.3941
   99SAPC  H17S 9857   1.609   2.066   4.686 -0.8108  0.0099 -0.0649
   99SAPC  C218 9858   1.591   1.867   4.608 -0.2204  0.3901  0.3147
   99SAPC  H18R 9859   1.655   1.891   4.521 -1.0891 -1.1346 -0.7990
   99SAPC  H18S 9860   1.513   1.794   4.575 -0.6971  1.0740 -0.0967
   99SAPC  C219 9861   1.680   1.801   4.715 -0.5992 -0.1399  0.6432
   99SAPC  H19R 9862   1.765   1.869   4.739  0.6663 -1.3564 -0.1789
   99SAPC  H19S 9863   1.709   1.701   4.677 -2.7881 -0.4987 -0.2154
   99SAPC  C220 9864   1.613   1.782   4.846 -0.0063  0.1756  0.2534
   99SAPC  H20R 9865   1.506   1.759   4.825  0.1894 -1.2688  0.6983
   99SAPC  H20S 9866   1.606   1.875   4.906  0.1757  0.9265 -0.8465
   99SAPC  H20T 9867   1.653   1.705   4.915 -1.4571  1.6016  2.8031
   99SAPC   C33 9868   1.840   2.955   3.629  0.0458 -0.0629 -0.4381
   99SAPC   H3X 9869   1.794   3.041   3.576  1.1420  1.1140  0.4308
   99SAPC   H3Y 9870   1.914   2.996   3.702 -0.8370 -2.0428  1.7136
   99SAPC   C34 9871   1.723   2.883   3.699  0.9302  0.9089  0.3831
   99SAPC   H4X 9872   1.762   2.787   3.740 -2.2553 -0.8721 -0.4368
   99SAPC   H4Y 9873   1.642   2.845   3.633  2.1139 -0.6193 -0.2742
   99SAPC   C35 9874   1.668   2.956   3.816 -0.0564  0.4644  0.7576
   99SAPC   H5X 9875   1.656   3.059   3.777 -3.0845 -0.0078  0.2225
   99SAPC   H5Y 9876   1.740   2.963   3.901  0.6242 -1.0822  0.3558
   99SAPC   C36 9877   1.524   2.922   3.866 -0.8845 -0.3199  0.7587
   99SAPC   H6X 9878   1.531   2.817   3.904 -2.3718 -1.6152 -2.1755
   99SAPC   H6Y 9879   1.444   2.917   3.789 -1.1644  0.2375  1.0105
   99SAPC   C37 9880   1.472   3.007   3.974  0.0169  0.1452 -0.2646
   99SAPC   H7X 9881   1.370   2.979   4.006  0.1792  1.1293  1.2308
   99SAPC   H7Y 9882   1.485   3.109   3.934 -0.4921 -0.0589 -0.9569
   99SAPC   C38 9883   1.548   2.995   4.111 -0.6589 -0.2026 -0.0089
   99SAPC   H8X 9884   1.651   3.031   4.091 -1.6445  3.4645  0.8514
   99SAPC   H8Y 9885   1.540   2.887   4.138 -2.0750  0.1833  1.2650
   99SAPC   C39 9886   1.496   3.083   4.231  0.5264  0.0771  0.7045
   99SAPC   H9X 9887   1.393   3.044   4.241  0.0552 -0.0481 -3.1456
   99SAPC   H9Y 9888   1.475   3.186   4.195 -0.8050 -0.4294 -0.0280
   99SAPC  C310 9889   1.584   3.074   4.353  0.1674  0.0857  0.1328
   99SAPC  H10X 9890   1.533   3.125   4.438  1.6075 -0.6067  1.4668
   99SAPC  H10Y 9891   1.679   3.128   4.330  0.0321 -0.0163 -0.7039
   99SAPC  C311 9892   1.617   2.932   4.396  0.3064 -0.0335 -0.1455
   99SAPC  H11X 9893   1.672   2.889   4.309 -0.0732  0.4113 -0.6114
   99SAPC  H11Y 9894   1.521   2.881   4.417  0.6319 -0.4221  0.4595
   99SAPC  C312 9895   1.706   2.928   4.526 -0.0135 -0.2193  0.0854
   99SAPC  H12X 9896   1.654   2.991   4.602 -0.0457  1.7581 -1.4840
   99SAPC  H12Y 9897   1.806   2.974   4.509 -0.8517  1.1356 -1.4213
   99SAPC  C313 9898   1.729   2.787   4.594  0.0254  0.1159 -0.0277
   99SAPC  H13X 9899   1.783   2.729   4.516  0.6087 -1.9752  1.8099
   99SAPC  H13Y 9900   1.627   2.744   4.601  1.0785 -3.1225 -2.2691
   99SAPC  C314 9901   1.794   2.771   4.734 -0.1139  0.3410 -0.5728
   99SAPC  H14X 9902   1.747   2.848   4.798  0.3300 -2.5765  3.7007
   99SAPC  H14Y 9903   1.904   2.789   4.738 -0.3664  2.0067 -0.4919
   99SAPC  C315 9904   1.766   2.641   4.810  0.1440  0.1319  0.3207
   99SAPC  H15X 9905   1.837   2.645   4.895  3.8127 -0.3171 -2.4699
   99SAPC  H15Y 9906   1.783   2.556   4.741  3.3967  1.3225 -0.5124
   99SAPC  C316 9907   1.621   2.638   4.862  0.5188 -0.2422 -0.4496
   99SAPC  H16X 9908   1.559   2.619   4.773 -0.4794 -0.3681  0.2581
   99SAPC  H16Y 9909   1.584   2.730   4.911 -0.6866  0.1443 -2.0097
   99SAPC  C317 9910   1.586   2.517   4.946 -0.5446 -0.0867  0.1817
   99SAPC  H17X 9911   1.485   2.524   4.993  0.0856 -1.7777  1.9319
   99SAPC  H17Y 9912   1.666   2.509   5.023 -0.3839 -0.3698 -0.0124
   99SAPC  C318 9913   1.600   2.375   4.881  0.2729 -0.0505 -1.0875
   99SAPC  H18X 9914   1.701   2.341   4.850  1.0935  1.7896 -0.6197
   99SAPC  H18Y 9915   1.528   2.375   4.796  0.0169 -1.2537 -0.8759
   99SAPC  H18Z 9916   1.575   2.293   4.951  0.1371  0.2100 -0.8265
  100SAPC     N 9917   5.080   1.774   2.909  0.0991  0.0012  0.0563
  100SAPC   C12 9918   5.058   1.692   3.033 -0.5333 -0.5422  0.3286
  100SAPC  H12A 9919   5.046   1.751   3.123 -1.0566 -0.6392  0.3285
  100SAPC  H12B 9920   5.158   1.656   3.052 -0.0784  0.8664  0.6786
  100SAPC   C13 9921   4.947   1.831   2.864  0.7327  0.0661 -0.3852
  100SAPC  H13A 9922   4.957   1.888   2.773 -1.5954  0.5897 -0.3792
  100SAPC  H13B 9923   4.881   1.748   2.840  0.6177 -0.2001  0.8135
  100SAPC  H13C 9924   4.912   1.900   2.938 -0.8192 -1.9528  0.8832
  100SAPC   C14 9925   5.181   1.884   2.929 -0.1296  0.0809 -0.3838
  100SAPC  H14A 9926   5.190   1.944   2.840 -1.2450  0.0101 -0.5662
  100SAPC  H14B 9927   5.159   1.952   3.010 -0.6215  0.9995 -1.2680
  100SAPC  H14C 9928   5.274   1.837   2.958  0.4553 -1.5076 -4.2390
  100SAPC   C15 9929   5.137   1.695   2.798  0.4411 -0.4557  0.9074
  100SAPC  H15A 9930   5.132   1.743   2.702 -1.3582 -1.2067  0.5928
  100SAPC  H15B 9931   5.241   1.677   2.821  0.6405 -0.9382 -0.2823
  100SAPC  H15C 9932   5.072   1.610   2.780 -0.0849  0.1923 -0.3469
  100SAPC   C11 9933   4.965   1.572   3.032 -0.8781 -0.0316  0.1895
  100SAPC  H11A 9934   4.857   1.594   3.017 -1.8312 -1.4386  3.8451
  100SAPC  H11B 9935   4.965   1.539   3.138 -2.1589 -1.2375 -0.1584
  100SAPC     P 9936   5.141   1.385   2.994 -0.0912  0.0051 -0.0237
  100SAPC   O13 9937   5.166   1.283   2.889  0.0259 -0.6194 -0.2762
  100SAPC   O14 9938   5.257   1.482   3.018  0.2285  0.7821  0.0681
  100SAPC   O12 9939   5.016   1.474   2.946  0.4874  0.1693 -0.1601
  100SAPC   O11 9940   5.091   1.320   3.130 -0.6228 -0.8990  0.5031
  100SAPC    C1 9941   4.972   1.237   3.136 -0.5866  0.6689  0.1845
  100SAPC    HA 9942   4.886   1.306   3.153 -1.2277  0.0585 -0.5114
  100SAPC    HB 9943   4.960   1.173   3.046  1.6354 -0.8020  0.8554
  100SAPC    C2 9944   4.958   1.153   3.268 -0.0839  0.5958 -0.6816
  100SAPC    HS 9945   4.854   1.117   3.277  0.5462 -1.4111 -0.9602
  100SAPC   O21 9946   5.004   1.237   3.387 -0.3804 -0.0924 -0.2122
  100SAPC   C21 9947   4.928   1.347   3.412 -0.0841 -0.7604  0.4436
  100SAPC   O22 9948   4.833   1.378   3.346 -0.6010  0.1131 -0.6044
  100SAPC   C22 9949   4.994   1.426   3.532 -0.3230  0.5205  0.7351
  100SAPC   H2R 9950   5.036   1.349   3.600  1.5309  1.2780  0.5106
  100SAPC   H2S 9951   5.092   1.459   3.491 -0.4865 -0.4766 -0.5403
  100SAPC    C3 9952   5.040   1.024   3.269  0.7264 -0.3073 -0.1562
  100SAPC    HX 9953   5.148   1.048   3.256  1.1147 -1.4664  0.7054
  100SAPC    HY 9954   5.012   0.965   3.179  0.4469  0.8301 -0.8353
  100SAPC   O31 9955   5.030   0.952   3.396  0.3993 -0.2875 -0.1388
  100SAPC   C31 9956   4.926   0.866   3.402  0.3435 -0.0885 -0.2652
  100SAPC   O32 9957   4.838   0.858   3.315  0.3734  0.0762  0.2928
  100SAPC   C32 9958   4.942   0.779   3.525 -0.0443  0.0754  0.3889
  100SAPC   H2X 9959   4.918   0.844   3.612  1.8937  1.5315 -0.0959
  100SAPC   H2Y 9960   5.047   0.745   3.528  0.4069  1.3663 -0.2126
  100SAPC   C23 9961   4.919   1.541   3.595  0.7340  0.3473  0.0363
  100SAPC   H3R 9962   4.843   1.504   3.667  0.7467  0.2759  0.0135
  100SAPC   H3S 9963   4.865   1.602   3.519  0.2060 -2.1902 -1.7508
  100SAPC   C24 9964   5.025   1.624   3.678 -0.6677  0.3983 -0.1208
  100SAPC   H4R 9965   5.096   1.687   3.620  1.0518 -0.1591  1.2713
  100SAPC   H4S 9966   5.106   1.565   3.727  2.3472  2.4566 -2.2815
  100SAPC   C25 9967   4.959   1.710   3.782  0.0692 -0.4638 -0.0685
  100SAPC   H5R 9968   4.865   1.760   3.752 -0.4415 -0.7414  1.0221
  100SAPC   C26 9969   4.991   1.730   3.913  0.0704 -0.3958  0.0534
  100SAPC   H6R 9970   4.938   1.800   3.979  0.5955  1.4340 -1.3747
  100SAPC   C27 9971   5.113   1.671   3.985 -0.3184  0.5452 -0.0982
  100SAPC   H7R 9972   5.183   1.623   3.913  0.1327 -2.0561  1.9457
  100SAPC   H7S 9973   5.074   1.587   4.047  1.3601  0.1072  0.4264
  100SAPC   C28 9974   5.185   1.785   4.058  0.2963  0.2984 -0.5630
  100SAPC   H8R 9975   5.188   1.884   4.010  0.0216  1.0166  0.8421
  100SAPC   C29 9976   5.230   1.785   4.186 -0.6267 -0.4590  0.4010
  100SAPC   H9R 9977   5.281   1.874   4.226 -1.1187  0.0330 -0.0408
  100SAPC  C210 9978   5.232   1.669   4.280 -0.0403 -0.4673  0.4704
  100SAPC  H10R 9979   5.302   1.594   4.237  0.7490 -0.4231  1.6229
  100SAPC  H10S 9980   5.135   1.615   4.276 -0.3955  0.2305 -1.3440
  100SAPC  C211 9981   5.261   1.703   4.429  0.0236  0.4245  0.2404
  100SAPC  H11R 9982   5.359   1.675   4.471 -0.1472  1.2836  1.2542
  100SAPC  C212 9983   5.173   1.764   4.511 -0.0490 -0.0280  0.0707
  100SAPC  H12R 9984   5.197   1.776   4.618 -1.3910 -0.9404  0.4996
  100SAPC  C213 9985   5.033   1.813   4.484  0.1386 -0.1793  0.2125
  100SAPC  H13R 9986   4.963   1.730   4.506 -0.6502  0.2443 -0.6170
  100SAPC  H13S 9987   5.021   1.824   4.374  0.1208 -2.6831 -0.0896
  100SAPC  C214 9988   4.987   1.936   4.558  0.5011  0.1204  0.8093
  100SAPC  H14R 9989   5.013   2.029   4.505 -2.8379 -0.6174 -2.5268
  100SAPC  C215 9990   4.920   1.932   4.675  0.3325 -0.5302  0.4245
  100SAPC  H15R 9991   4.876   2.019   4.727  0.3649 -0.4004  0.2357
  100SAPC  C216 9992   4.896   1.809   4.753  0.2832  0.4845 -0.3394
  100SAPC  H16R 9993   4.946   1.720   4.708 -1.1787 -0.0179 -1.0559
  100SAPC  H16S 9994   4.790   1.778   4.762  0.4929 -0.6432 -1.5203
  100SAPC  C217 9995   4.939   1.835   4.900 -0.1736  0.5210  0.2316
  100SAPC  H17R 9996   5.035   1.890   4.908 -0.8539  1.8190 -0.2056
  100SAPC  H17S 9997   4.950   1.734   4.944 -0.6517  0.1159 -0.5587
  100SAPC  C218 9998   4.835   1.904   4.991  0.7038  0.0425 -0.2691
  100SAPC  H18R 9999   4.752   1.831   4.996  0.6405  0.1860  1.0829
  100SAPC  H18S10000   4.810   1.999   4.939  3.5854  0.3687 -1.2737
  100SAPC  C21910001   4.886   1.931   5.137 -0.2882  0.4261  0.0806
  100SAPC  H19R10002   4.937   1.841   5.179  0.6664  0.8530 -0.1357
  100SAPC  H19S10003   4.797   1.967   5.193  0.2425  1.2495  0.4218
  100SAPC  C22010004   4.987   2.046   5.156 -0.1284 -0.4634 -0.1379
  100SAPC  H20R10005   5.082   2.032   5.101  1.7577 -0.0001  2.8110
  100SAPC  H20S10006   5.001   2.074   5.262 -2.3208 -1.1792  0.4008
  100SAPC  H20T10007   4.946   2.137   5.105 -1.0163 -0.4470  0.5717
  100SAPC   C3310008   4.850   0.655   3.521 -0.6693  0.3218  0.1597
  100SAPC   H3X10009   4.886   0.602   3.430  2.3105  0.0124  1.4084
  100SAPC   H3Y10010   4.744   0.685   3.509 -1.0310 -0.3291  1.5406
  100SAPC   C3410011   4.862   0.573   3.651  0.3538 -0.2403  0.2976
  100SAPC   H4X10012   4.966   0.534   3.651  0.3048 -0.4250 -1.1479
  100SAPC   H4Y10013   4.793   0.485   3.645 -0.1087  0.2040 -1.6979
  100SAPC   C3510014   4.840   0.653   3.785  0.6957 -0.2103  1.1033
  100SAPC   H5X10015   4.772   0.740   3.776  0.1328 -0.5547  1.9523
  100SAPC   H5Y10016   4.934   0.701   3.819 -0.0979  0.2146  2.7929
  100SAPC   C3610017   4.787   0.564   3.897  0.5874  0.5601 -0.6944
  100SAPC   H6X10018   4.724   0.479   3.864 -0.2612  0.8386  0.1763
  100SAPC   H6Y10019   4.727   0.629   3.964  2.6843  1.5140  0.3480
  100SAPC   C3710020   4.901   0.504   3.983  0.6891 -0.3650  0.2095
  100SAPC   H7X10021   4.970   0.578   4.027  1.4521 -1.2279  0.5042
  100SAPC   H7Y10022   4.957   0.453   3.902  0.7453 -0.9083  0.5861
  100SAPC   C3810023   4.866   0.397   4.095  0.6086  0.0944 -0.0764
  100SAPC   H8X10024   4.962   0.355   4.134 -1.5667 -5.0721  0.5927
  100SAPC   H8Y10025   4.806   0.315   4.051  1.1571 -0.4371  0.1406
  100SAPC   C3910026   4.785   0.459   4.212 -0.9401 -0.3372  0.0776
  100SAPC   H9X10027   4.688   0.503   4.180 -0.5520  1.0169  0.6958
  100SAPC   H9Y10028   4.842   0.540   4.261 -0.2080 -0.0990 -1.1235
  100SAPC  C31010029   4.754   0.365   4.327  0.4685 -0.4048 -0.1292
  100SAPC  H10X10030   4.706   0.432   4.402  2.2464  0.8716 -0.0726
  100SAPC  H10Y10031   4.843   0.319   4.374  0.5637 -0.2468 -0.1560
  100SAPC  C31110032   4.659   0.253   4.298 -0.3541 -0.1231  0.0168
  100SAPC  H11X10033   4.707   0.175   4.236 -2.0345 -0.1727 -1.2990
  100SAPC  H11Y10034   4.567   0.281   4.243  0.1302  1.7739  0.0946
  100SAPC  C31210035   4.631   0.175   4.433 -0.0523 -0.5465  0.9923
  100SAPC  H12X10036   4.733   0.160   4.475 -0.1847  1.4807  2.1381
  100SAPC  H12Y10037   4.578   0.080   4.409 -0.0220 -1.0855  2.9070
  100SAPC  C31310038   4.544   0.248   4.534 -0.0807  0.0378 -0.0449
  100SAPC  H13X10039   4.439   0.224   4.507  0.2113 -2.7873  0.9620
  100SAPC  H13Y10040   4.552   0.358   4.547  2.6520 -0.2399  1.1574
  100SAPC  C31410041   4.540   0.192   4.683 -0.6500  0.0640 -0.3703
  100SAPC  H14X10042   4.494   0.091   4.680  0.9431 -0.7081 -0.1120
  100SAPC  H14Y10043   4.466   0.251   4.742  2.7213  1.8126  2.5362
  100SAPC  C31510044   4.670   0.188   4.760 -0.6417  0.6591 -0.9174
  100SAPC  H15X10045   4.739   0.270   4.732  0.1813 -0.6149 -2.8995
  100SAPC  H15Y10046   4.717   0.092   4.728 -0.9928 -0.3244  1.3177
  100SAPC  C31610047   4.651   0.189   4.908  0.1224 -0.8870 -0.1781
  100SAPC  H16X10048   4.587   0.101   4.931 -1.6097  0.2648 -0.3825
  100SAPC  H16Y10049   4.600   0.283   4.941  1.1739 -0.1211 -0.6877
  100SAPC  C31710050   4.777   0.177   4.992  0.4607 -0.4853 -0.3458
  100SAPC  H17X10051   4.859   0.245   4.960 -1.8357  2.5946 -0.1191
  100SAPC  H17Y10052   4.829   0.082   4.967  0.5746  0.0445 -2.3007
  100SAPC  C31810053   4.750   0.185   5.146 -0.4481  0.4320 -0.0720
  100SAPC  H18X10054   4.701   0.095   5.186 -0.4394 -0.6369 -2.3163
  100SAPC  H18Y10055   4.690   0.275   5.170 -0.3910  0.3933  0.2220
  100SAPC  H18Z10056   4.854   0.197   5.185 -0.6036  3.0744 -0.2479
  101OSM      N10057   3.563   4.582   7.922 -0.2571  0.1412  0.6231
  101OSM    C1510058   3.430   4.594   7.986 -0.7599  0.2960  0.1791
  101OSM   H15A10059   3.388   4.499   8.019 -1.9605  1.3577  1.8526
  101OSM   H15B10060   3.356   4.633   7.918 -0.6034  1.4038  0.6303
  101OSM   H15C10061   3.436   4.668   8.064 -0.7707  1.7149 -1.1341
  101OSM    C1410062   3.622   4.722   7.921  0.4994 -0.0829  0.7011
  101OSM   H14A10063   3.727   4.724   7.895 -0.0777  2.1219 -1.8634
  101OSM   H14B10064   3.614   4.764   8.021  0.6458  2.2249 -0.1854
  101OSM   H14C10065   3.576   4.788   7.849 -0.0891  0.1316  1.2599
  101OSM    C1310066   3.650   4.492   7.999  0.1395 -0.3096  0.7209
  101OSM   H13A10067   3.734   4.475   7.934 -0.9288 -0.6046 -0.6083
  101OSM   H13B10068   3.604   4.396   8.018 -1.8284  0.0070 -1.9710
  101OSM   H13C10069   3.676   4.534   8.095 -4.5674 -1.4194  2.7423
  101OSM    C1210070   3.553   4.523   7.780 -0.5386 -0.5224  0.0518
  101OSM   H12A10071   3.501   4.431   7.799 -1.4665  0.3154  1.8834
  101OSM   H12B10072   3.651   4.495   7.745 -1.2989 -1.3521 -1.5316
  101OSM    C1110073   3.480   4.610   7.676  0.5840  0.2224 -0.0097
  101OSM   H11A10074   3.509   4.577   7.574 -1.3374  1.7060 -1.0906
  101OSM   H11B10075   3.514   4.716   7.666 -1.7035  0.9031 -1.3771
  101OSM      P10076   3.250   4.499   7.665 -0.1927 -0.0180 -0.2416
  101OSM    O1310077   3.310   4.381   7.721  0.4808  0.4311  0.1981
  101OSM    O1410078   3.112   4.519   7.714 -0.2679  0.5118 -0.5570
  101OSM    O1110079   3.255   4.483   7.506  0.7134  0.1338 -0.6289
  101OSM    O1210080   3.343   4.628   7.687  0.4998  0.5599 -0.8815
  101OSM    C1S10081   3.242   4.587   7.409  0.5774 -0.6307  0.1663
  101OSM    H1S10082   3.335   4.646   7.392 -1.7056  3.4113  0.2517
  101OSM    H1T10083   3.160   4.661   7.425  1.8582  1.0345 -0.5590
  101OSM     NF10084   3.233   4.622   7.166 -0.3213  0.3905 -0.3576
  101OSM    HNF10085   3.162   4.685   7.138  0.9102  2.0157 -0.0027
  101OSM    C2S10086   3.204   4.529   7.270  0.1598  0.3215  0.6623
  101OSM    H2S10087   3.270   4.440   7.256  0.9118  1.0807 -0.9933
  101OSM    C3S10088   3.059   4.481   7.275  0.1629 -0.2902 -0.2548
  101OSM    H3S10089   3.006   4.578   7.285 -0.2566 -0.2936 -2.0754
  101OSM     O310090   3.027   4.396   7.384  0.1550  0.1904  0.8306
  101OSM    HO310091   3.100   4.403   7.446  1.3239  0.0301 -0.4936
  101OSM    C4S10092   3.005   4.437   7.140 -0.2640  0.2365  0.6824
  101OSM    H4S10093   2.993   4.525   7.076  0.8031 -0.5427 -0.6272
  101OSM    C5S10094   2.974   4.314   7.090  0.1423 -0.0719  0.1488
  101OSM    H5S10095   2.991   4.224   7.151  1.2481 -0.8352 -1.2235
  101OSM    C6S10096   2.931   4.299   6.944  0.9268 -0.3742 -1.0503
  101OSM    H6S10097   2.820   4.294   6.940  0.9324 -0.3612 -1.1962
  101OSM    H6T10098   2.955   4.196   6.910  2.1289  0.3687 -2.5340
  101OSM    C7S10099   2.969   4.403   6.844 -0.0107  0.3379 -0.1149
  101OSM    H7S10100   3.076   4.418   6.869  0.3365 -0.6506 -0.9264
  101OSM    H7T10101   2.924   4.502   6.865 -0.1902  0.4176 -0.8380
  101OSM    C8S10102   2.954   4.366   6.701 -0.3937  0.3553 -0.6195
  101OSM    H8S10103   2.859   4.311   6.685 -1.6344  1.1104  3.1703
  101OSM    H8T10104   3.029   4.286   6.683 -1.2590 -0.5599 -0.2488
  101OSM    C9S10105   2.955   4.487   6.603 -0.1330  0.4231 -1.1041
  101OSM    H9S10106   3.061   4.519   6.588 -0.0282  0.0633 -1.1328
  101OSM    H9T10107   2.901   4.571   6.652  0.2601 -0.9425  1.9028
  101OSM   C10S10108   2.896   4.456   6.463 -0.5477  0.0107 -0.1138
  101OSM   H10S10109   2.871   4.554   6.417 -3.9964 -0.0644  1.3505
  101OSM   H10T10110   2.799   4.403   6.465 -0.2117 -1.0582 -3.8986
  101OSM   C11S10111   2.993   4.377   6.379  0.1048  0.4332  0.2499
  101OSM   H11S10112   3.006   4.271   6.409 -2.9220 -0.3498 -0.7923
  101OSM   H11T10113   3.094   4.422   6.374  0.2446  0.0216 -1.2524
  101OSM   C12S10114   2.966   4.368   6.225 -0.1536 -0.2995 -0.1674
  101OSM   H12S10115   2.972   4.470   6.181  1.8089  0.2106  1.1319
  101OSM   H12T10116   2.863   4.329   6.214 -0.4012 -0.5710  2.5404
  101OSM   C13S10117   3.051   4.253   6.157 -0.1537  0.2637  0.3228
  101OSM   H13S10118   3.024   4.156   6.204 -1.7557 -0.3576 -1.7041
  101OSM   H13T10119   3.156   4.275   6.184 -0.7994  1.2152  2.1922
  101OSM   C14S10120   3.048   4.256   6.005 -0.2399  0.1680 -0.1376
  101OSM   H14S10121   3.070   4.356   5.963  0.4642  0.7613  1.6001
  101OSM   H14T10122   2.942   4.234   5.979 -0.0740  0.7249 -1.4004
  101OSM   C15S10123   3.149   4.155   5.942  0.2667 -0.5256 -0.8334
  101OSM   H15S10124   3.138   4.056   5.992  0.4792 -0.2726 -0.2765
  101OSM   H15T10125   3.254   4.181   5.963 -0.5511  2.8610 -0.3481
  101OSM   C16S10126   3.130   4.136   5.792 -0.1080  0.4928  0.1324
  101OSM   H16S10127   3.023   4.111   5.778  0.4908 -2.2538 -0.2754
  101OSM   H16T10128   3.187   4.045   5.762 -0.5448  0.5974 -1.0699
  101OSM   C17S10129   3.192   4.243   5.701 -0.1581 -0.2633 -0.4246
  101OSM   H17S10130   3.256   4.301   5.771 -2.9810  2.1429  0.3431
  101OSM   H17T10131   3.116   4.322   5.686  0.6252  0.4751 -0.5559
  101OSM   C18S10132   3.270   4.185   5.580  0.2845  0.2123  0.7068
  101OSM   H18S10133   3.375   4.156   5.602  0.2489 -0.1388  0.4057
  101OSM   H18T10134   3.273   4.261   5.499  0.5641 -0.7105 -0.1684
  101OSM   H18U10135   3.219   4.096   5.538  1.3574  0.0158 -0.2242
  101OSM    C1F10136   3.358   4.646   7.126  0.0621  0.3254  0.3011
  101OSM     OF10137   3.459   4.587   7.169  0.1904 -0.8594  0.3498
  101OSM    C2F10138   3.365   4.745   7.006  0.5284  0.1836  0.6709
  101OSM    H2F10139   3.350   4.853   7.030 -1.3343  0.5807 -1.8948
  101OSM    H2G10140   3.297   4.713   6.924  1.0750  0.6008  0.0450
  101OSM    C3F10141   3.514   4.731   6.950 -0.9061 -0.0099 -0.2814
  101OSM    H3F10142   3.537   4.623   6.942  1.7467  0.5227 -0.7932
  101OSM    H3G10143   3.595   4.776   7.011 -0.9908 -0.1843 -0.0405
  101OSM    C4F10144   3.519   4.788   6.808  0.1541 -0.7026 -0.1258
  101OSM    H4F10145   3.513   4.899   6.801  0.1449 -0.7427 -0.8142
  101OSM    H4G10146   3.427   4.762   6.752  0.4217 -1.1318 -0.3707
  101OSM    C5F10147   3.645   4.744   6.733 -0.7622 -0.0029  0.7297
  101OSM    H5F10148   3.658   4.633   6.726 -0.1998  0.1198 -0.5649
  101OSM    H5G10149   3.737   4.776   6.788 -2.3910  0.3282  3.4172
  101OSM    C6F10150   3.649   4.804   6.596  0.6373  0.8607  0.7066
  101OSM    H6F10151   3.668   4.914   6.603  2.7004  0.4597  1.9145
  101OSM    H6G10152   3.555   4.781   6.542  1.0557  0.4188  0.1511
  101OSM    C7F10153   3.765   4.744   6.506  0.6760  0.4945  0.0221
  101OSM    H7F10154   3.746   4.635   6.499  0.0991  0.4775  1.5687
  101OSM    H7G10155   3.861   4.768   6.558  0.8917 -0.4223  0.0533
  101OSM    C8F10156   3.755   4.828   6.374  0.0192  0.0384 -0.1400
  101OSM    H8F10157   3.792   4.929   6.402 -0.2321  0.8136 -2.4558
  101OSM    H8G10158   3.648   4.837   6.345 -0.1854  0.7817  0.8124
  101OSM    C9F10159   3.851   4.769   6.269  0.8294  0.1455  0.0016
  101OSM    H9F10160   3.938   4.720   6.316  0.2283 -1.2848 -0.3148
  101OSM   C10F10161   3.841   4.774   6.134 -0.5989  0.6007  0.0620
  101OSM   H10F10162   3.920   4.727   6.075 -2.2125 -0.4281 -1.3787
  101OSM   C11F10163   3.744   4.847   6.049 -0.1623  0.2094  0.1557
  101OSM   H11F10164   3.794   4.944   6.026 -2.8174  1.7405  0.3087
  101OSM   H11G10165   3.654   4.882   6.105 -1.2239  0.7077 -1.7613
  101OSM   C12F10166   3.686   4.794   5.914  0.2724  0.0739  0.0148
  101OSM   H12F10167   3.602   4.855   5.876  0.4782  0.0707 -0.4568
  101OSM   H12G10168   3.647   4.690   5.918 -0.0773  0.2430  2.1143
  101OSM   C13F10169   3.795   4.774   5.806  0.6217 -0.3171 -0.1350
  101OSM   H13F10170   3.885   4.738   5.859 -0.1762 -0.5515  1.1002
  101OSM   H13G10171   3.821   4.869   5.754  1.8667 -1.4637 -1.7222
  101OSM   C14F10172   3.757   4.667   5.694  0.6342 -0.5230  0.5569
  101OSM   H14F10173   3.682   4.710   5.625  1.4969  0.7616  0.3888
  101OSM   H14G10174   3.723   4.568   5.732  0.5513 -1.1045 -0.9679
  101OSM   C15F10175   3.883   4.635   5.618 -0.1304 -0.0879  0.6970
  101OSM   H15F10176   3.876   4.555   5.542 -1.6894 -0.0288  0.7429
  101OSM   H15G10177   3.952   4.609   5.702  0.4256 -0.6821  0.0677
  101OSM   C16F10178   3.930   4.766   5.546 -0.6200  0.5383  0.4185
  101OSM   H16F10179   3.974   4.835   5.620  1.5956 -0.9315  0.5868
  101OSM   H16G10180   3.844   4.814   5.496 -1.4687  1.5671  2.7380
  101OSM   C17F10181   4.033   4.738   5.433  0.3589 -0.8754 -0.2717
  101OSM   H17F10182   4.004   4.642   5.386 -1.3722 -0.9026  0.7831
  101OSM   H17G10183   4.134   4.719   5.474 -0.4727 -3.3803  0.7618
  101OSM   C18F10184   4.033   4.840   5.319 -0.2574  0.3737  0.0093
  101OSM   H18F10185   4.089   4.933   5.343  1.2861 -0.5007 -0.0747
  101OSM   H18G10186   3.934   4.881   5.287  0.3244  1.4667 -0.4312
  101OSM   H18H10187   4.082   4.786   5.235 -1.8819 -3.5328  1.3394
  102OSM      N10188   4.132   3.328   7.967 -0.4115  0.2515 -0.2096
  102OSM    C1510189   4.101   3.233   8.087 -0.3109  0.2204 -0.2728
  102OSM   H15A10190   4.166   3.254   8.170  1.1247 -0.8294 -1.0982
  102OSM   H15B10191   4.114   3.133   8.050  0.1567  0.1950 -0.0333
  102OSM   H15C10192   3.999   3.246   8.120 -0.3376  2.7519 -1.1006
  102OSM    C1410193   4.142   3.472   8.015 -0.1673  0.3165 -0.3716
  102OSM   H14A10194   4.052   3.489   8.073 -0.0251 -1.5351  0.4796
  102OSM   H14B10195   4.152   3.547   7.938 -2.4470  0.0111 -1.0494
  102OSM   H14C10196   4.228   3.472   8.080  0.9032 -3.7723 -1.5014
  102OSM    C1310197   4.266   3.294   7.911 -0.0515  0.4320  0.4875
  102OSM   H13A10198   4.289   3.359   7.828 -1.3036  0.3835  0.0788
  102OSM   H13B10199   4.256   3.197   7.866 -3.4807  1.9057 -2.4658
  102OSM   H13C10200   4.350   3.280   7.977 -0.5879 -2.6454  0.6535
  102OSM    C1210201   4.022   3.308   7.861  0.4968  0.1037  0.3349
  102OSM   H12A10202   3.921   3.303   7.899  0.1895 -2.4965 -0.6456
  102OSM   H12B10203   4.050   3.216   7.812  0.5822  1.0381 -1.4716
  102OSM    C1110204   4.027   3.397   7.730  0.2884  0.1907 -0.2465
  102OSM   H11A10205   3.948   3.358   7.662  1.7942 -2.2592 -0.6960
  102OSM   H11B10206   4.123   3.399   7.675 -0.0263  1.3290 -0.7928
  102OSM      P10207   3.867   3.589   7.799 -0.0274 -0.1360  0.1946
  102OSM    O1310208   3.794   3.490   7.879  0.2981 -0.4990  0.1622
  102OSM    O1410209   3.881   3.717   7.865 -0.2135  0.1557  0.3683
  102OSM    O1110210   3.798   3.612   7.656 -0.0286 -0.2358 -0.1128
  102OSM    O1210211   4.011   3.540   7.756 -0.3811  0.4853 -0.6494
  102OSM    C1S10212   3.874   3.622   7.535 -0.0720  0.1853  0.1449
  102OSM    H1S10213   3.916   3.524   7.502 -0.6780 -0.7162  1.9610
  102OSM    H1T10214   3.964   3.685   7.550 -1.0528  2.2350 -1.9919
  102OSM     NF10215   3.860   3.717   7.303  0.5920  0.3730 -0.0800
  102OSM    HNF10216   3.872   3.806   7.259 -0.3488 -0.7158 -2.6826
  102OSM    C2S10217   3.794   3.700   7.426  0.2347  0.2407  0.2217
  102OSM    H2S10218   3.703   3.639   7.408 -1.6557  3.0899 -0.5099
  102OSM    C3S10219   3.738   3.838   7.484  0.1009 -0.1557  0.1269
  102OSM    H3S10220   3.830   3.897   7.504  0.6142 -0.0733 -2.2661
  102OSM     O310221   3.664   3.828   7.610  0.1394 -0.0083 -0.2309
  102OSM    HO310222   3.710   3.757   7.656  1.0583  0.5325 -0.2837
  102OSM    C4S10223   3.645   3.911   7.380  0.1396 -0.4314  0.2415
  102OSM    H4S10224   3.690   4.000   7.333  1.0923 -1.0211  0.0004
  102OSM    C5S10225   3.512   3.897   7.366 -0.1510  0.1862 -0.6664
  102OSM    H5S10226   3.459   3.841   7.445  1.5050 -0.8808 -0.2662
  102OSM    C6S10227   3.426   3.984   7.278  0.0665  0.4592  0.1947
  102OSM    H6S10228   3.364   4.040   7.352  0.4516  0.3116  0.6331
  102OSM    H6T10229   3.353   3.920   7.225  0.7850 -0.4962  0.3330
  102OSM    C7S10230   3.501   4.047   7.163 -0.5167 -0.3367  0.2602
  102OSM    H7S10231   3.535   3.969   7.092  2.0688  1.3510 -0.5346
  102OSM    H7T10232   3.596   4.096   7.193  0.8277 -2.2306 -0.6821
  102OSM    C8S10233   3.421   4.152   7.088 -0.0099 -0.3276 -0.0300
  102OSM    H8S10234   3.384   4.224   7.165  0.9323  0.4496 -0.2765
  102OSM    H8T10235   3.329   4.100   7.055 -0.7367 -0.8845  2.6492
  102OSM    C9S10236   3.496   4.221   6.970 -0.5585 -0.3224 -0.8327
  102OSM    H9S10237   3.517   4.153   6.885  3.4019  0.7134 -0.8918
  102OSM    H9T10238   3.584   4.276   7.009  0.8749 -1.2329 -2.6438
  102OSM   C10S10239   3.397   4.320   6.906  0.5560  0.5606  0.4051
  102OSM   H10S10240   3.372   4.397   6.982  1.2717  0.8200  0.3884
  102OSM   H10T10241   3.302   4.266   6.886  1.0873 -0.3742  0.3740
  102OSM   C11S10242   3.452   4.383   6.779  0.5181 -0.4020 -0.0338
  102OSM   H11S10243   3.479   4.306   6.704  0.3943 -1.5858  1.0972
  102OSM   H11T10244   3.549   4.428   6.812  0.9585 -3.4479  3.5001
  102OSM   C12S10245   3.350   4.471   6.704 -0.5223 -0.0697  0.7308
  102OSM   H12S10246   3.313   4.560   6.760 -0.9830 -1.6199  3.0784
  102OSM   H12T10247   3.265   4.401   6.685 -0.5452  0.4992 -1.4420
  102OSM   C13S10248   3.411   4.521   6.574 -0.1094 -0.1492  0.4254
  102OSM   H13S10249   3.519   4.545   6.585  0.9794 -2.5671 -2.9974
  102OSM   H13T10250   3.355   4.610   6.539 -1.2648 -0.8822  0.3627
  102OSM   C14S10251   3.423   4.412   6.463 -0.5377  0.2103  0.5839
  102OSM   H14S10252   3.332   4.347   6.457  0.0727 -0.6335  0.2327
  102OSM   H14T10253   3.501   4.340   6.496 -0.7445 -0.2442  0.1005
  102OSM   C15S10254   3.472   4.477   6.331  0.4776  0.4052 -0.6421
  102OSM   H15S10255   3.569   4.525   6.356 -0.3730  1.4894  0.6929
  102OSM   H15T10256   3.397   4.551   6.297 -0.8553 -0.7143 -0.1924
  102OSM   C16S10257   3.500   4.366   6.219 -0.1262 -0.5637 -0.0366
  102OSM   H16S10258   3.406   4.307   6.209 -0.5952  0.3301 -1.2052
  102OSM   H16T10259   3.582   4.302   6.257  1.0086  1.0268  0.2991
  102OSM   C17S10260   3.536   4.435   6.088 -0.7431  0.0907 -0.3376
  102OSM   H17S10261   3.596   4.359   6.034  1.6301  0.5744  1.4607
  102OSM   H17T10262   3.606   4.519   6.111  0.0684 -0.7044  0.1815
  102OSM   C18S10263   3.413   4.498   6.015  0.0124  0.3205  0.1121
  102OSM   H18S10264   3.325   4.431   6.026  0.2079  0.0384 -0.0130
  102OSM   H18T10265   3.429   4.496   5.905  0.2148 -0.0848  0.1447
  102OSM   H18U10266   3.384   4.599   6.050 -0.1530  0.5571 -0.6761
  102OSM    C1F10267   3.890   3.608   7.235  0.1369 -0.1882 -1.0586
  102OSM     OF10268   3.842   3.499   7.275  0.2253 -0.6708  0.3443
  102OSM    C2F10269   3.980   3.618   7.118  0.2268  0.5538  0.5571
  102OSM    H2F10270   4.051   3.534   7.116  0.4302  0.7076 -1.9917
  102OSM    H2G10271   4.035   3.713   7.103 -1.5478  1.5248 -0.2075
  102OSM    C3F10272   3.891   3.598   6.993 -0.5975 -0.1268  0.1899
  102OSM    H3F10273   3.853   3.701   6.981 -1.8620 -0.7276 -1.4474
  102OSM    H3G10274   3.801   3.533   7.004 -0.7461  0.2737  1.4866
  102OSM    C4F10275   3.976   3.582   6.857  0.3088  0.4103  0.2017
  102OSM    H4F10276   4.049   3.500   6.864 -0.3156 -0.2936 -1.1618
  102OSM    H4G10277   4.039   3.674   6.854 -0.9452  1.3036  0.1874
  102OSM    C5F10278   3.887   3.563   6.737  0.0251 -0.4136  0.2405
  102OSM    H5F10279   3.818   3.649   6.732 -0.4588 -0.5935  2.7118
  102OSM    H5G10280   3.823   3.472   6.737 -2.3469  1.1600 -1.3665
  102OSM    C6F10281   3.972   3.547   6.610  0.1899  0.1037 -0.5374
  102OSM    H6F10282   4.027   3.639   6.580 -0.6365  0.1822 -1.8822
  102OSM    H6G10283   3.894   3.521   6.535 -2.7461  0.4197  2.1773
  102OSM    C7F10284   4.061   3.433   6.610  0.0911  0.4488  0.4742
  102OSM    H7F10285   4.017   3.361   6.683 -0.5822  1.6847  1.3329
  102OSM    H7G10286   4.153   3.461   6.665  0.3918 -0.7365  0.5963
  102OSM    C8F10287   4.087   3.389   6.465  0.5478  0.4466 -0.4994
  102OSM    H8F10288   4.097   3.483   6.407  1.6418  0.5319 -0.1948
  102OSM    H8G10289   4.003   3.329   6.424  1.3488 -1.6069  0.6735
  102OSM    C9F10290   4.219   3.310   6.463  0.1428 -0.8315  0.6904
  102OSM    H9F10291   4.252   3.288   6.565 -2.5174  1.5712  2.2413
  102OSM   C10F10292   4.258   3.254   6.345  0.6331 -0.3106 -0.7230
  102OSM   H10F10293   4.345   3.188   6.345  0.7052 -0.2200 -1.2872
  102OSM   C11F10294   4.205   3.290   6.210  0.3422  1.1307 -0.2668
  102OSM   H11F10295   4.290   3.308   6.142  0.8747  0.2154  0.1296
  102OSM   H11G10296   4.133   3.375   6.211  0.3200  1.1506  1.9017
  102OSM   C12F10297   4.129   3.170   6.160 -0.2378  0.4159  0.1173
  102OSM   H12F10298   4.045   3.151   6.231 -1.5463  0.5332 -1.3577
  102OSM   H12G10299   4.184   3.074   6.150 -0.8895  0.0726 -0.2016
  102OSM   C13F10300   4.067   3.194   6.026  0.4179  0.7532 -0.5324
  102OSM   H13F10301   4.135   3.250   5.958 -0.9195  3.2818  0.1059
  102OSM   H13G10302   3.981   3.258   6.053  0.4511 -0.2686  2.3326
  102OSM   C14F10303   4.006   3.058   5.969  0.0931  0.0557  0.0954
  102OSM   H14F10304   3.951   2.999   6.046 -1.0857 -0.2925 -0.9727
  102OSM   H14G10305   4.081   2.989   5.923 -2.8333 -2.8676 -0.6982
  102OSM   C15F10306   3.904   3.068   5.854  0.2569 -0.4358  0.2505
  102OSM   H15F10307   3.958   3.118   5.771  0.5477 -0.0476  0.6694
  102OSM   H15G10308   3.814   3.126   5.884  0.6054  0.9696 -1.3137
  102OSM   C16F10309   3.854   2.933   5.806  0.8963 -0.2405 -0.1414
  102OSM   H16F10310   3.827   2.865   5.889 -0.4431  1.2857  0.7258
  102OSM   H16G10311   3.936   2.877   5.756  2.1021  0.8435  0.5419
  102OSM   C17F10312   3.732   2.928   5.711  0.7264  0.3146 -0.4544
  102OSM   H17F10313   3.750   2.981   5.614  0.0337  0.4720 -0.4983
  102OSM   H17G10314   3.651   2.993   5.750 -1.2016 -1.7740 -0.8105
  102OSM   C18F10315   3.669   2.788   5.675 -0.1286  0.1204 -0.2217
  102OSM   H18F10316   3.739   2.706   5.652 -2.4507 -1.7196 -1.1933
  102OSM   H18G10317   3.593   2.790   5.593  0.3286  0.6193 -0.6424
  102OSM   H18H10318   3.608   2.762   5.764  0.9415 -0.3152  0.4031
  103OSM      N10319   2.858   5.709   7.569 -0.1041  0.1286 -0.6664
  103OSM    C1510320   2.802   5.757   7.703  0.3602 -0.1448  0.9173
  103OSM   H15A10321   2.864   5.769   7.791 -1.0410  0.9599  1.7958
  103OSM   H15B10322   2.724   5.686   7.726  0.6179 -0.5719  0.4946
  103OSM   H15C10323   2.746   5.846   7.683  1.3841  0.5252  0.9590
  103OSM    C1410324   2.915   5.573   7.594 -0.2496 -0.2474 -0.4567
  103OSM   H14A10325   2.845   5.492   7.613 -2.5295  1.2632 -1.9986
  103OSM   H14B10326   2.983   5.574   7.678  1.2933  0.5003 -1.6666
  103OSM   H14C10327   2.982   5.552   7.512  0.9271 -0.7805  0.6091
  103OSM    C1310328   2.742   5.681   7.476 -0.0285  0.4346 -0.3433
  103OSM   H13A10329   2.664   5.755   7.475 -1.1824 -0.7352 -0.5524
  103OSM   H13B10330   2.698   5.589   7.512  3.0216 -1.0190  0.0001
  103OSM   H13C10331   2.770   5.666   7.373  1.4590 -0.7877  0.2006
  103OSM    C1210332   2.962   5.800   7.517  0.5160  1.1420  0.0802
  103OSM   H12A10333   2.916   5.898   7.522  0.5617  1.2150 -0.7423
  103OSM   H12B10334   2.976   5.774   7.413 -1.7513 -1.5059  0.3135
  103OSM    C1110335   3.105   5.797   7.573  0.4509 -0.4865  0.3986
  103OSM   H11A10336   3.099   5.817   7.683 -0.8550  4.0243 -0.2580
  103OSM   H11B10337   3.157   5.887   7.534 -0.2509 -0.2343  0.0251
  103OSM      P10338   3.206   5.665   7.378  0.0941  0.1642  0.1053
  103OSM    O1310339   3.262   5.533   7.356  0.3682  1.1856  0.3415
  103OSM    O1410340   3.099   5.702   7.292  0.1175  0.2198 -0.2891
  103OSM    O1110341   3.322   5.777   7.360 -0.2480 -0.6668  0.4736
  103OSM    O1210342   3.175   5.683   7.531  0.4725 -0.3161 -0.2710
  103OSM    C1S10343   3.410   5.769   7.251  0.3553 -0.0068 -0.8130
  103OSM    H1S10344   3.446   5.665   7.235  1.1476 -0.1194  1.3600
  103OSM    H1T10345   3.507   5.811   7.285 -0.2422 -0.7688  2.1179
  103OSM     NF10346   3.440   5.795   7.006  0.2440 -0.5527  0.5225
  103OSM    HNF10347   3.527   5.841   6.992 -1.0707  1.4112 -2.0948
  103OSM    C2S10348   3.367   5.850   7.129  0.0500  0.0691 -0.4414
  103OSM    H2S10349   3.261   5.826   7.109  0.2724 -2.0046  0.5073
  103OSM    C3S10350   3.381   6.000   7.158  0.1107  0.1507  0.0447
  103OSM    H3S10351   3.485   6.023   7.187 -0.3439  1.0603  1.0179
  103OSM     O310352   3.293   6.038   7.264 -0.7905  0.5366  0.5300
  103OSM    HO310353   3.274   5.954   7.305 -0.9593  1.2572  1.9656
  103OSM    C4S10354   3.351   6.083   7.029 -0.1929 -0.4104 -0.5159
  103OSM    H4S10355   3.268   6.061   6.961  0.0587  0.2019 -1.0395
  103OSM    C5S10356   3.437   6.175   6.975 -0.0448 -0.6907 -0.1990
  103OSM    H5S10357   3.533   6.200   7.024  0.6210 -0.4792 -1.5624
  103OSM    C6S10358   3.434   6.233   6.844 -0.0083 -0.5347 -0.3189
  103OSM    H6S10359   3.521   6.290   6.805 -0.6567  0.1906 -0.7398
  103OSM    H6T10360   3.346   6.301   6.838 -1.3308 -2.0979  0.7532
  103OSM    C7S10361   3.408   6.131   6.738  0.5945  0.3759 -0.2385
  103OSM    H7S10362   3.305   6.099   6.765  0.8405  0.5679  0.9805
  103OSM    H7T10363   3.486   6.051   6.738  1.4342  1.0804 -3.0129
  103OSM    C8S10364   3.393   6.180   6.590 -0.1059 -0.0702 -0.2592
  103OSM    H8S10365   3.485   6.216   6.538  1.9144 -3.4261  0.7264
  103OSM    H8T10366   3.319   6.263   6.593  1.4356  1.3536  0.3790
  103OSM    C9S10367   3.344   6.069   6.496 -0.2971  0.8549 -0.7380
  103OSM    H9S10368   3.308   6.120   6.404 -1.8443  1.6497  0.2815
  103OSM    H9T10369   3.258   6.016   6.543 -0.2762  0.4549 -1.1378
  103OSM   C10S10370   3.449   5.956   6.472  0.1113 -0.0396  0.2871
  103OSM   H10S10371   3.483   5.912   6.568  0.9045  1.0319  0.5202
  103OSM   H10T10372   3.537   6.014   6.435 -0.1033  0.0598 -0.0729
  103OSM   C11S10373   3.395   5.850   6.374  0.9333 -0.2629  0.1035
  103OSM   H11S10374   3.337   5.773   6.428 -2.6710  2.1351  0.0081
  103OSM   H11T10375   3.483   5.806   6.323  1.1654  0.3949 -0.0787
  103OSM   C12S10376   3.311   5.916   6.260 -1.2840 -0.6616 -0.8178
  103OSM   H12S10377   3.386   5.996   6.238  0.2864 -1.7606  0.2907
  103OSM   H12T10378   3.217   5.960   6.299 -0.3885 -1.2935  2.3497
  103OSM   C13S10379   3.292   5.819   6.147  0.3675 -0.4989  0.8241
  103OSM   H13S10380   3.236   5.728   6.174 -0.0148 -0.1416  1.2592
  103OSM   H13T10381   3.394   5.796   6.109  0.9012  2.7437 -0.0299
  103OSM   C14S10382   3.225   5.870   6.017  0.0026 -0.0118 -0.6917
  103OSM   H14S10383   3.280   5.958   5.977 -0.7282  0.4484 -0.7055
  103OSM   H14T10384   3.122   5.904   6.041  0.9096  1.8622  0.9073
  103OSM   C15S10385   3.204   5.762   5.904  0.0904  0.1326  0.7004
  103OSM   H15S10386   3.123   5.689   5.929  0.5832 -0.3067  1.0321
  103OSM   H15T10387   3.292   5.695   5.902 -0.8357 -1.1314 -1.5410
  103OSM   C16S10388   3.193   5.814   5.760  0.1499  0.1499  0.5387
  103OSM   H16S10389   3.281   5.867   5.717 -0.2249 -0.9030 -1.6754
  103OSM   H16T10390   3.118   5.896   5.750 -2.1024 -2.0459 -1.9850
  103OSM   C17S10391   3.151   5.700   5.669  0.4818  0.3317  0.7165
  103OSM   H17S10392   3.061   5.650   5.709  0.4868 -1.1516 -0.9672
  103OSM   H17T10393   3.237   5.630   5.669  0.6527  0.5398  0.9321
  103OSM   C18S10394   3.113   5.737   5.524  0.7100  0.4622 -0.0721
  103OSM   H18S10395   3.126   5.643   5.466  0.6605  0.1653  0.3923
  103OSM   H18T10396   3.185   5.811   5.483 -0.4905  2.2209  0.8759
  103OSM   H18U10397   3.013   5.781   5.504 -0.4193 -1.9382 -0.0285
  103OSM    C1F10398   3.430   5.673   6.954  0.5285 -0.9387  0.1010
  103OSM     OF10399   3.347   5.588   6.990 -0.2269 -0.0581  0.2473
  103OSM    C2F10400   3.529   5.644   6.849 -0.0694 -0.3664  0.4839
  103OSM    H2F10401   3.617   5.586   6.883 -0.4312 -1.5415 -0.5029
  103OSM    H2G10402   3.561   5.746   6.815  3.2745 -1.2409  0.6323
  103OSM    C3F10403   3.463   5.567   6.735 -0.1261 -0.2352  0.4445
  103OSM    H3F10404   3.413   5.651   6.683 -2.1552 -0.3868  1.9942
  103OSM    H3G10405   3.386   5.494   6.766  0.0007 -0.0178  1.3022
  103OSM    C4F10406   3.547   5.491   6.637  0.1742 -0.3285 -0.0686
  103OSM    H4F10407   3.583   5.399   6.687  0.5824 -0.5714 -0.7957
  103OSM    H4G10408   3.643   5.545   6.620 -0.2581  1.3927  2.3683
  103OSM    C5F10409   3.472   5.462   6.509 -1.0690 -1.3560  0.3593
  103OSM    H5F10410   3.428   5.553   6.463  2.0557  0.4958  0.7880
  103OSM    H5G10411   3.398   5.380   6.524 -0.5168 -1.6318  1.6826
  103OSM    C6F10412   3.572   5.421   6.397 -0.1074  0.1727  0.3949
  103OSM    H6F10413   3.629   5.330   6.427  0.3201  0.6310  1.0166
  103OSM    H6G10414   3.640   5.509   6.389 -1.4145  1.1208 -0.7693
  103OSM    C7F10415   3.504   5.397   6.263  0.5153 -0.0189  0.8818
  103OSM    H7F10416   3.447   5.489   6.239  1.5254  0.4269  0.1180
  103OSM    H7G10417   3.423   5.321   6.267 -2.2182  2.5580 -0.9892
  103OSM    C8F10418   3.608   5.378   6.155 -0.2353 -0.1990 -0.2303
  103OSM    H8F10419   3.628   5.270   6.165 -1.2038 -0.5635 -1.7670
  103OSM    H8G10420   3.694   5.445   6.177 -1.1546  1.9103 -2.5312
  103OSM    C9F10421   3.556   5.410   6.015 -0.2725 -0.2663 -0.1715
  103OSM    H9F10422   3.519   5.514   6.016  1.1493  0.2704 -0.6940
  103OSM   C10F10423   3.529   5.334   5.903  0.1526 -0.2192 -0.3145
  103OSM   H10F10424   3.517   5.390   5.809 -0.6581  1.1796  0.5793
  103OSM   C11F10425   3.567   5.192   5.881  1.1019 -0.5242 -0.1373
  103OSM   H11F10426   3.497   5.134   5.818 -1.9265  0.7351  1.8210
  103OSM   H11G10427   3.563   5.153   5.985  0.3415  0.0085  0.0427
  103OSM   C12F10428   3.714   5.184   5.817 -0.0073  1.2426  0.3251
  103OSM   H12F10429   3.754   5.081   5.820  1.3802  1.7781  2.8662
  103OSM   H12G10430   3.788   5.253   5.864 -0.3123  2.5499 -1.0286
  103OSM   C13F10431   3.722   5.223   5.669  0.5223  0.4297  0.7208
  103OSM   H13F10432   3.825   5.235   5.629  0.3564 -1.0787 -0.2623
  103OSM   H13G10433   3.677   5.323   5.650  1.6357  0.6818 -0.7452
  103OSM   C14F10434   3.670   5.105   5.573 -0.0857  0.1602 -0.2772
  103OSM   H14F10435   3.561   5.097   5.557  0.0955 -0.4532 -1.3172
  103OSM   H14G10436   3.703   5.009   5.618  1.5718  0.4359 -0.8142
  103OSM   C15F10437   3.719   5.120   5.427 -0.6359  0.0889 -0.0964
  103OSM   H15F10438   3.825   5.087   5.420 -0.8549 -0.5467 -0.6160
  103OSM   H15G10439   3.714   5.229   5.405 -1.3206  0.0555 -0.1378
  103OSM   C16F10440   3.636   5.033   5.326 -0.0231  0.2763  0.0101
  103OSM   H16F10441   3.530   5.057   5.345  0.2552  1.5279  0.0562
  103OSM   H16G10442   3.656   4.927   5.354 -1.2675  0.5239  2.0187
  103OSM   C17F10443   3.677   5.071   5.183 -0.4569 -0.2207  0.4760
  103OSM   H17F10444   3.781   5.032   5.171 -0.5405 -0.3403  0.1318
  103OSM   H17G10445   3.669   5.181   5.173 -1.6509 -0.0190  3.1290
  103OSM   C18F10446   3.585   5.012   5.073 -0.7549  0.1499 -0.4208
  103OSM   H18F10447   3.587   4.901   5.075  0.0506  0.1600 -0.3955
  103OSM   H18G10448   3.615   5.064   4.979  0.9801  0.0769  0.0765
  103OSM   H18H10449   3.484   5.054   5.094 -0.1250  2.1752 -1.1310
  104OSM      N10450   3.621   5.582   7.554 -0.5984  0.0743 -0.0948
  104OSM    C1510451   3.489   5.554   7.621 -1.0091  0.2040 -0.3711
  104OSM   H15A10452   3.407   5.604   7.570 -0.9380 -1.3877 -2.1350
  104OSM   H15B10453   3.495   5.589   7.723  0.4034 -0.1225 -0.3250
  104OSM   H15C10454   3.472   5.448   7.626  1.1154 -0.1552  0.0454
  104OSM    C1410455   3.645   5.730   7.538 -0.0425  0.5051 -0.2548
  104OSM   H14A10456   3.558   5.761   7.482 -0.9833 -0.2750  0.7216
  104OSM   H14B10457   3.739   5.746   7.488 -0.7096  3.4638 -0.7623
  104OSM   H14C10458   3.652   5.772   7.638  1.2550 -1.4832  0.5441
  104OSM    C1310459   3.726   5.526   7.649  0.6505 -0.7367  0.4168
  104OSM   H13A10460   3.824   5.543   7.607 -0.4402  3.3908 -1.0230
  104OSM   H13B10461   3.706   5.422   7.667 -1.4170 -0.3893  0.4352
  104OSM   H13C10462   3.722   5.581   7.742 -1.6283  2.0614 -1.1663
  104OSM    C1210463   3.624   5.513   7.423  0.4063 -0.1731  0.1707
  104OSM   H12A10464   3.533   5.511   7.364  0.2568 -2.1741  0.3934
  104OSM   H12B10465   3.635   5.411   7.457 -3.6648 -0.0355  2.6703
  104OSM    C1110466   3.733   5.562   7.329  0.4378 -0.5450  0.5892
  104OSM   H11A10467   3.727   5.670   7.303  0.1259 -0.9081 -0.9281
  104OSM   H11B10468   3.706   5.516   7.232  0.9137  2.1432 -0.9312
  104OSM      P10469   3.951   5.419   7.339  0.2158 -0.6093 -0.2477
  104OSM    O1310470   4.061   5.428   7.427 -0.3130 -0.1028 -0.1320
  104OSM    O1410471   3.874   5.295   7.325 -0.2250  0.5337 -0.0972
  104OSM    O1110472   3.982   5.477   7.196  0.5823 -0.1776  0.8309
  104OSM    O1210473   3.857   5.535   7.385 -0.4035  0.7165 -0.7416
  104OSM    C1S10474   4.060   5.595   7.176 -0.2946  0.5568 -0.1363
  104OSM    H1S10475   4.160   5.572   7.220 -1.0963  0.1765  1.5314
  104OSM    H1T10476   4.027   5.683   7.234  0.9036  1.8881 -1.3939
  104OSM     NF10477   4.205   5.731   7.017  0.1751 -0.5542 -0.9029
  104OSM    HNF10478   4.194   5.824   6.982 -2.9099 -0.4317  0.1283
  104OSM    C2S10479   4.093   5.635   7.030  0.0882  0.0919  0.2133
  104OSM    H2S10480   4.118   5.542   6.975  1.6298  0.6074 -0.0084
  104OSM    C3S10481   3.961   5.687   6.964  0.6343  0.0644 -0.5219
  104OSM    H3S10482   3.934   5.785   7.009  1.4220  0.5661 -1.1142
  104OSM     O310483   3.847   5.608   6.979  0.4919  0.1563  0.4338
  104OSM    HO310484   3.872   5.542   7.044 -1.7637  0.0842  1.2947
  104OSM    C4S10485   3.978   5.711   6.815 -0.4902 -0.2764  0.4418
  104OSM    H4S10486   4.003   5.815   6.790  0.1313 -0.8691 -1.6675
  104OSM    C5S10487   3.949   5.632   6.712 -0.3249  0.0934 -0.7704
  104OSM    H5S10488   3.918   5.527   6.727  0.7944 -0.2547 -0.7467
  104OSM    C6S10489   3.953   5.663   6.570  0.1030  0.2468  0.3994
  104OSM    H6S10490   3.976   5.771   6.556 -2.9287  0.7790 -1.4309
  104OSM    H6T10491   3.846   5.647   6.542  0.2379 -0.4941  0.2893
  104OSM    C7S10492   4.048   5.575   6.485 -0.1614  0.2594  0.2233
  104OSM    H7S10493   4.019   5.468   6.487  0.5233  0.0740  0.4411
  104OSM    H7T10494   4.154   5.586   6.515  0.4827  0.6852 -1.9801
  104OSM    C8S10495   4.048   5.607   6.333  0.0206  0.5438  0.3132
  104OSM    H8S10496   4.117   5.553   6.264  0.4154  2.8374 -1.2118
  104OSM    H8T10497   4.072   5.715   6.319 -1.4578  0.7640 -0.6861
  104OSM    C9S10498   3.904   5.583   6.265  0.1599 -0.1416 -0.1049
  104OSM    H9S10499   3.827   5.629   6.330  1.0449 -1.2449  1.8079
  104OSM    H9T10500   3.893   5.472   6.263 -0.4199 -0.0825 -0.9640
  104OSM   C10S10501   3.889   5.631   6.118 -0.7893  0.4880  0.4444
  104OSM   H10S10502   3.907   5.740   6.113 -2.5418  0.8608  1.5585
  104OSM   H10T10503   3.789   5.620   6.071 -1.2800 -0.8353  1.7361
  104OSM   C11S10504   3.984   5.559   6.018  0.6028  0.2891  0.0072
  104OSM   H11S10505   3.958   5.453   6.040 -2.8010  0.7128 -1.3179
  104OSM   H11T10506   4.086   5.592   6.047  0.5248  0.7914 -0.2712
  104OSM   C12S10507   3.947   5.578   5.869  0.6199  0.1782  0.1229
  104OSM   H12S10508   3.837   5.568   5.857  0.6900 -3.4952  1.3093
  104OSM   H12T10509   3.995   5.497   5.809 -0.6021  0.5408 -1.4115
  104OSM   C13S10510   3.997   5.706   5.807  0.1837  0.0332  0.0754
  104OSM   H13S10511   4.107   5.724   5.811  0.1851 -0.0700  0.6034
  104OSM   H13T10512   3.955   5.785   5.873 -0.9416  0.2320 -0.8366
  104OSM   C14S10513   3.951   5.738   5.661  0.4181  0.3634 -0.2316
  104OSM   H14S10514   3.841   5.726   5.656  0.3600  1.0951 -3.3967
  104OSM   H14T10515   4.004   5.668   5.592 -0.0647  1.2735 -1.5791
  104OSM   C15S10516   3.977   5.879   5.611 -0.2668  0.8923 -0.0778
  104OSM   H15S10517   4.087   5.887   5.600 -0.0994  2.7853  2.1468
  104OSM   H15T10518   3.950   5.944   5.697  2.2054 -0.0041  1.4830
  104OSM   C16S10519   3.902   5.935   5.492 -0.3000  0.0470  0.5136
  104OSM   H16S10520   3.801   5.894   5.514  0.3798 -0.0764  3.9724
  104OSM   H16T10521   3.943   5.892   5.397  0.6779 -0.7152  1.2530
  104OSM   C17S10522   3.888   6.086   5.491  0.2232 -0.2320 -0.1119
  104OSM   H17S10523   3.981   6.134   5.454  0.5286 -0.5219  0.2863
  104OSM   H17T10524   3.858   6.126   5.590  0.9050 -2.0616  0.8724
  104OSM   C18S10525   3.783   6.124   5.396 -0.3907  0.1319 -0.0910
  104OSM   H18S10526   3.793   6.074   5.298  2.3033 -0.8649  0.6085
  104OSM   H18T10527   3.770   6.234   5.385  0.9496  0.1997 -1.1216
  104OSM   H18U10528   3.687   6.093   5.443  0.0055 -0.1737  0.5402
  104OSM    C1F10529   4.331   5.694   7.041  0.1138 -0.2720 -0.2310
  104OSM     OF10530   4.360   5.579   7.071 -0.0008  0.0389  0.0254
  104OSM    C2F10531   4.434   5.802   7.038  0.2670  0.5757 -0.0291
  104OSM    H2F10532   4.458   5.837   7.140  1.8827 -0.7884  0.1106
  104OSM    H2G10533   4.405   5.895   6.985  2.2252  0.9808 -0.4755
  104OSM    C3F10534   4.570   5.766   6.976  0.4968 -0.2855  0.0291
  104OSM    H3F10535   4.606   5.681   7.037 -1.5286 -0.6322  0.7981
  104OSM    H3G10536   4.635   5.856   6.980 -2.6512  2.2592 -1.1488
  104OSM    C4F10537   4.548   5.720   6.823 -0.3238 -0.2706 -0.2532
  104OSM    H4F10538   4.489   5.626   6.825  1.6230 -1.5294  1.4706
  104OSM    H4G10539   4.648   5.703   6.777 -0.5271  0.3558 -0.9497
  104OSM    C5F10540   4.468   5.829   6.757  0.3971  0.5550 -0.1586
  104OSM    H5F10541   4.510   5.929   6.780 -1.7875  1.3761  0.4809
  104OSM    H5G10542   4.363   5.828   6.792  0.0900  1.3610 -1.0275
  104OSM    C6F10543   4.498   5.824   6.603 -0.0286  0.4741 -0.1247
  104OSM    H6F10544   4.609   5.817   6.592 -0.0524  0.5008 -0.3776
  104OSM    H6G10545   4.469   5.916   6.547  0.8623  1.6167  1.2056
  104OSM    C7F10546   4.430   5.698   6.545 -0.5918 -0.3222 -0.1964
  104OSM    H7F10547   4.319   5.701   6.547 -0.7101 -1.7962 -1.9169
  104OSM    H7G10548   4.465   5.617   6.614  2.7344  1.8289  0.8810
  104OSM    C8F10549   4.475   5.683   6.395  0.2101 -0.2236  0.3813
  104OSM    H8F10550   4.480   5.573   6.386  1.8561 -0.0324 -1.9421
  104OSM    H8G10551   4.580   5.718   6.388  0.5683 -1.2603  0.4057
  104OSM    C9F10552   4.389   5.757   6.296 -0.0532  0.3625 -0.5680
  104OSM    H9F10553   4.352   5.856   6.328  2.8483  0.9954  1.1576
  104OSM   C10F10554   4.350   5.705   6.180 -0.2816 -0.1573 -0.1578
  104OSM   H10F10555   4.292   5.774   6.117 -0.1874  1.2944  1.2716
  104OSM   C11F10556   4.378   5.572   6.118 -0.1935  0.2192 -0.3757
  104OSM   H11F10557   4.280   5.523   6.099 -0.0389 -0.7335  1.1029
  104OSM   H11G10558   4.422   5.495   6.185  1.2109 -0.3959 -1.9289
  104OSM   C12F10559   4.454   5.582   5.988 -0.5908 -0.7912  0.2280
  104OSM   H12F10560   4.560   5.611   6.003 -0.4246  0.9924 -3.1711
  104OSM   H12G10561   4.410   5.674   5.944  1.2896  0.6203  1.1867
  104OSM   C13F10562   4.438   5.458   5.892 -0.8234 -0.5292 -0.6531
  104OSM   H13F10563   4.462   5.365   5.948  0.1214 -0.6089 -1.1563
  104OSM   H13G10564   4.523   5.474   5.822 -0.1597 -0.8804  0.0608
  104OSM   C14F10565   4.301   5.458   5.821  0.3330 -0.9224  0.4287
  104OSM   H14F10566   4.277   5.553   5.769 -1.0030 -0.9903  0.8774
  104OSM   H14G10567   4.220   5.444   5.895 -0.6621  0.9001 -0.2608
  104OSM   C15F10568   4.297   5.346   5.723  0.2791 -0.0005  0.0527
  104OSM   H15F10569   4.320   5.248   5.772  0.6050 -1.2662 -2.4691
  104OSM   H15G10570   4.382   5.358   5.652  1.5423  0.6623  1.6085
  104OSM   C16F10571   4.162   5.318   5.654  0.6014 -0.4798  0.0658
  104OSM   H16F10572   4.137   5.407   5.591  0.1749 -0.5552  0.1234
  104OSM   H16G10573   4.079   5.313   5.728  0.9036 -1.4649  0.3478
  104OSM   C17F10574   4.165   5.186   5.581 -0.1977  0.4222 -0.5693
  104OSM   H17F10575   4.065   5.174   5.534 -0.0895 -2.0358 -0.2933
  104OSM   H17G10576   4.180   5.111   5.662 -0.4891  0.0917 -0.8206
  104OSM   C18F10577   4.268   5.173   5.465  0.2226  0.5131 -0.0092
  104OSM   H18F10578   4.238   5.242   5.383  1.5345  0.2430 -0.7582
  104OSM   H18G10579   4.289   5.067   5.439  2.6518  0.8099  0.5088
  104OSM   H18H10580   4.365   5.215   5.501  1.8431 -2.4698 -0.5596
  105OSM      N10581   5.490   4.944   8.120  0.3482  0.3155 -0.2424
  105OSM    C1510582   5.621   4.975   8.175 -0.0976  0.1514  0.2964
  105OSM   H15A10583   5.690   5.013   8.100  0.2383  0.9791  1.0042
  105OSM   H15B10584   5.663   4.884   8.216 -4.2784 -2.6286 -0.9957
  105OSM   H15C10585   5.605   5.057   8.244  0.2153  0.4143  0.0642
  105OSM    C1410586   5.517   4.821   8.041  0.1518  0.2315  0.1854
  105OSM   H14A10587   5.612   4.843   7.994  0.8953 -0.1157  1.4736
  105OSM   H14B10588   5.437   4.805   7.970  1.3563  2.2663 -1.7744
  105OSM   H14C10589   5.533   4.733   8.101 -1.9871  0.8238  1.7600
  105OSM    C1310590   5.400   4.913   8.238 -0.0109 -0.2207 -0.0340
  105OSM   H13A10591   5.461   4.858   8.309  0.5771  1.7762  1.0837
  105OSM   H13B10592   5.311   4.854   8.220  0.7804 -2.5419  2.7665
  105OSM   H13C10593   5.371   5.005   8.287  1.9568  1.9128 -2.5782
  105OSM    C1210594   5.430   5.054   8.035 -0.1866  0.1881  0.2811
  105OSM   H12A10595   5.399   5.135   8.100 -0.4406  0.6986 -0.4647
  105OSM   H12B10596   5.336   5.030   7.987 -0.5801 -0.2610  1.2393
  105OSM    C1110597   5.512   5.105   7.920 -0.5203 -0.6922 -0.5752
  105OSM   H11A10598   5.447   5.170   7.858 -1.1779 -1.3247 -0.5674
  105OSM   H11B10599   5.546   5.022   7.855  0.8900 -0.1451 -0.5582
  105OSM      P10600   5.610   5.322   8.038  0.2163 -0.3455 -0.2565
  105OSM    O1310601   5.483   5.332   8.113  0.9307 -0.0243 -0.0448
  105OSM    O1410602   5.731   5.355   8.120  0.2676 -0.1348  0.4910
  105OSM    O1110603   5.604   5.412   7.907 -0.3774  0.2225  0.2437
  105OSM    O1210604   5.628   5.175   7.969 -0.6270 -0.0063  0.4264
  105OSM    C1S10605   5.697   5.396   7.800  0.0773  0.0070 -0.1039
  105OSM    H1S10606   5.704   5.289   7.771 -1.7951  0.1600 -1.2325
  105OSM    H1T10607   5.797   5.429   7.836  0.6087 -0.6544 -0.9163
  105OSM     NF10608   5.723   5.482   7.554  0.1531 -0.0935 -0.1708
  105OSM    HNF10609   5.770   5.560   7.513 -0.4160  1.5231  2.0113
  105OSM    C2S10610   5.649   5.492   7.684 -0.0326 -0.9356  0.4837
  105OSM    H2S10611   5.544   5.475   7.652 -0.4310  0.1636  1.1550
  105OSM    C3S10612   5.648   5.641   7.741  0.4009  0.0948 -0.6102
  105OSM    H3S10613   5.755   5.671   7.745 -0.3095  2.7372  0.7162
  105OSM     O310614   5.588   5.660   7.870 -0.8036  0.0963  0.4425
  105OSM    HO310615   5.577   5.572   7.907  0.3080 -0.2942 -0.1058
  105OSM    C4S10616   5.580   5.731   7.640 -0.2381 -0.1102  0.1484
  105OSM    H4S10617   5.472   5.712   7.628 -0.6498  1.6916  0.6981
  105OSM    C5S10618   5.644   5.832   7.576  0.2313 -0.0057 -0.0589
  105OSM    H5S10619   5.749   5.853   7.602  0.4549  2.1011 -2.2307
  105OSM    C6S10620   5.578   5.912   7.469 -0.6782 -0.3294  0.1783
  105OSM    H6S10621   5.556   6.014   7.505  0.0948 -0.8102  2.1353
  105OSM    H6T10622   5.480   5.872   7.434 -0.7859  0.6887 -0.7216
  105OSM    C7S10623   5.674   5.943   7.354 -0.1054 -0.0741  0.3664
  105OSM    H7S10624   5.758   5.998   7.402  1.9648 -3.5917  1.1228
  105OSM    H7T10625   5.611   5.999   7.281  0.6054 -0.2135 -0.3809
  105OSM    C8S10626   5.715   5.818   7.279  0.0757  0.1563 -0.5116
  105OSM    H8S10627   5.619   5.767   7.256 -1.4210  1.4741  2.2496
  105OSM    H8T10628   5.764   5.749   7.351 -1.0905 -0.9844 -0.7748
  105OSM    C9S10629   5.813   5.841   7.160  0.0993 -0.0451 -0.2277
  105OSM    H9S10630   5.834   5.745   7.109 -2.0390  0.9607 -3.3255
  105OSM    H9T10631   5.903   5.884   7.210  0.0870  1.5902 -1.5010
  105OSM   C10S10632   5.764   5.937   7.048  0.3208 -0.2855  0.6948
  105OSM   H10S10633   5.757   6.040   7.091  0.6292 -0.7609  1.9280
  105OSM   H10T10634   5.667   5.895   7.015  0.5150  0.0705 -0.3749
  105OSM   C11S10635   5.859   5.951   6.925 -0.6546 -0.1915 -0.3821
  105OSM   H11S10636   5.957   5.994   6.952 -0.4035 -1.1839  0.3118
  105OSM   H11T10637   5.807   6.031   6.868 -0.3472  1.2026  1.2460
  105OSM   C12S10638   5.870   5.828   6.832  0.1281  0.2923  0.0879
  105OSM   H12S10639   5.773   5.774   6.830  0.5405 -0.5410 -2.9914
  105OSM   H12T10640   5.942   5.763   6.887  1.2735  0.3203 -1.3168
  105OSM   C13S10641   5.920   5.858   6.688 -0.2614  0.2745 -0.3341
  105OSM   H13S10642   5.927   5.753   6.652 -0.3894  0.6632 -1.5100
  105OSM   H13T10643   6.021   5.903   6.696 -0.4359  0.4913  0.9579
  105OSM   C14S10644   5.820   5.929   6.592 -0.6627 -0.0356  0.0027
  105OSM   H14S10645   5.804   6.031   6.633  1.3483  1.0160 -1.6612
  105OSM   H14T10646   5.721   5.879   6.600 -1.2216  1.3022  2.6877
  105OSM   C15S10647   5.876   5.954   6.449 -0.0708 -0.8311 -1.0943
  105OSM   H15S10648   5.975   6.003   6.464  0.1192 -2.2651  5.9596
  105OSM   H15T10649   5.805   6.023   6.400 -0.1449  0.1224  0.2990
  105OSM   C16S10650   5.881   5.826   6.360  0.0506  0.2594  0.3802
  105OSM   H16S10651   5.787   5.769   6.373 -1.1325  2.1487  0.5276
  105OSM   H16T10652   5.960   5.762   6.406 -1.4991 -3.0668 -1.2150
  105OSM   C17S10653   5.913   5.867   6.211 -0.9165  0.1386  0.4584
  105OSM   H17S10654   6.009   5.922   6.206  0.3490 -2.0913 -1.3274
  105OSM   H17T10655   5.833   5.925   6.161  0.3066  1.2091 -0.2962
  105OSM   C18S10656   5.935   5.743   6.122 -0.3735 -0.8504  0.0003
  105OSM   H18S10657   5.995   5.672   6.182 -1.1949  1.0531  3.3506
  105OSM   H18T10658   5.996   5.769   6.034  0.4847 -2.9085 -0.0712
  105OSM   H18U10659   5.845   5.681   6.099 -0.3342 -1.7435  2.0377
  105OSM    C1F10660   5.708   5.376   7.474  0.8357  0.2180 -0.2245
  105OSM     OF10661   5.629   5.284   7.496 -0.4030 -1.0005  0.1149
  105OSM    C2F10662   5.796   5.378   7.353 -0.3152  0.3539 -0.1244
  105OSM    H2F10663   5.896   5.390   7.401 -0.7090  1.9325  0.3633
  105OSM    H2G10664   5.774   5.467   7.291 -0.2352  0.1679 -0.4210
  105OSM    C3F10665   5.780   5.251   7.267 -0.1220 -0.9439 -0.3503
  105OSM    H3F10666   5.684   5.259   7.211 -0.8345 -1.5075  0.7509
  105OSM    H3G10667   5.771   5.165   7.337 -2.3189 -0.4319  0.0965
  105OSM    C4F10668   5.896   5.238   7.170 -0.8483 -0.1431 -0.1430
  105OSM    H4F10669   5.878   5.144   7.114 -0.1122 -0.6167  0.3837
  105OSM    H4G10670   5.992   5.229   7.226 -1.8580 -0.5615  1.5878
  105OSM    C5F10671   5.903   5.358   7.066  0.0567  0.7124 -0.2165
  105OSM    H5F10672   5.915   5.463   7.100 -0.6801  0.5157  0.6833
  105OSM    H5G10673   5.801   5.362   7.023 -0.6267  0.8173  1.3415
  105OSM    C6F10674   5.998   5.335   6.952  0.5038  0.7121  0.3636
  105OSM    H6F10675   5.965   5.243   6.899 -2.1834  1.4062  0.6988
  105OSM    H6G10676   6.103   5.323   6.988  0.6876 -0.0615 -0.3849
  105OSM    C7F10677   5.985   5.451   6.859  0.0286  0.5403  0.0703
  105OSM    H7F10678   6.045   5.534   6.904  1.0478 -0.0164 -0.2333
  105OSM    H7G10679   5.877   5.469   6.843  0.3042  1.3159 -1.0211
  105OSM    C8F10680   6.050   5.426   6.722 -0.4258  0.9399  0.2537
  105OSM    H8F10681   6.157   5.398   6.730 -0.5725  0.2376 -0.1331
  105OSM    H8G10682   6.047   5.519   6.663 -1.1823 -0.4165 -1.9610
  105OSM    C9F10683   5.967   5.320   6.644 -0.6003 -0.3539  0.5296
  105OSM    H9F10684   5.988   5.218   6.679  1.8595  0.1919  0.7922
  105OSM   C10F10685   5.871   5.334   6.545 -0.8116 -0.0631  0.4818
  105OSM   H10F10686   5.814   5.250   6.502 -1.0504  0.6197 -0.5661
  105OSM   C11F10687   5.830   5.465   6.494  0.0968 -0.7169 -0.5882
  105OSM   H11F10688   5.920   5.526   6.472  1.1316 -1.2711  1.8198
  105OSM   H11G10689   5.772   5.518   6.572  2.1735 -0.9310  1.1731
  105OSM   C12F10690   5.758   5.445   6.362  0.7434  0.0860 -0.1340
  105OSM   H12F10691   5.747   5.548   6.321  1.2363  0.1071 -0.2310
  105OSM   H12G10692   5.653   5.411   6.374  0.2386  1.9116  1.0036
  105OSM   C13F10693   5.826   5.353   6.261  0.4742 -0.0053  0.2305
  105OSM   H13F10694   5.849   5.254   6.306 -0.7877 -0.8968 -1.0008
  105OSM   H13G10695   5.919   5.408   6.236 -0.5717  3.6661  3.4579
  105OSM   C14F10696   5.726   5.345   6.137 -0.3892  0.1742  0.1090
  105OSM   H14F10697   5.696   5.451   6.124  0.2061  0.6880  2.4269
  105OSM   H14G10698   5.631   5.294   6.162 -1.6487  0.8820 -2.8201
  105OSM   C15F10699   5.786   5.273   6.009  0.5606  0.5281  0.2629
  105OSM   H15F10700   5.698   5.257   5.943  1.8216 -0.5949 -1.2241
  105OSM   H15G10701   5.819   5.169   6.031  1.6541  0.7830 -0.0672
  105OSM   C16F10702   5.898   5.353   5.927 -0.0387 -0.2379 -0.6320
  105OSM   H16F10703   5.936   5.295   5.841 -0.7725  0.2035 -1.2631
  105OSM   H16G10704   5.985   5.382   5.991 -0.8032  0.7557 -0.0129
  105OSM   C17F10705   5.844   5.483   5.865  0.5195 -0.2235 -0.0559
  105OSM   H17F10706   5.800   5.548   5.944  0.4082  1.5725 -1.5321
  105OSM   H17G10707   5.770   5.465   5.783 -1.3242  0.4383  1.3815
  105OSM   C18F10708   5.958   5.559   5.806 -0.6605 -0.5093 -0.4442
  105OSM   H18F10709   6.024   5.493   5.746  1.7214  1.2508  0.1046
  105OSM   H18G10710   6.024   5.589   5.890  1.7977 -1.9018 -1.7737
  105OSM   H18H10711   5.930   5.658   5.766 -3.0063 -0.9437 -0.0153
  106OSM      N10712   3.389   2.765   7.539 -0.0387 -0.7728 -0.6113
  106OSM    C1510713   3.469   2.648   7.572  0.5817 -0.0547 -0.0693
  106OSM   H15A10714   3.557   2.651   7.509  0.9187  3.6075  0.3782
  106OSM   H15B10715   3.420   2.554   7.551 -0.6975  1.1186 -2.9320
  106OSM   H15C10716   3.511   2.657   7.671  2.0000  4.5014 -0.8457
  106OSM    C1410717   3.284   2.794   7.646  0.4785  0.7928 -0.3057
  106OSM   H14A10718   3.324   2.811   7.745 -1.2652  1.6373  0.3038
  106OSM   H14B10719   3.216   2.709   7.648  0.2844  0.9521  1.7660
  106OSM   H14C10720   3.217   2.873   7.615 -1.1638  0.7989  2.8283
  106OSM    C1310721   3.482   2.884   7.536 -0.4530 -0.4080 -0.1212
  106OSM   H13A10722   3.443   2.985   7.533  2.0236  0.9422  4.2039
  106OSM   H13B10723   3.552   2.872   7.455 -1.3773  0.1235 -1.0271
  106OSM   H13C10724   3.533   2.885   7.631 -0.3515 -1.4551 -0.1601
  106OSM    C1210725   3.321   2.744   7.409 -0.4423  1.0575  0.9892
  106OSM   H12A10726   3.244   2.668   7.418  0.8376 -0.3372  0.6099
  106OSM   H12B10727   3.394   2.713   7.336 -0.6478  1.6176  0.5339
  106OSM    C1110728   3.247   2.865   7.338  0.0191 -0.0958  0.3515
  106OSM   H11A10729   3.190   2.825   7.251  2.7682 -2.4252 -0.5191
  106OSM   H11B10730   3.325   2.930   7.293 -0.0073  0.3455  0.9280
  106OSM      P10731   3.170   3.092   7.448 -0.1673  0.3234  0.0351
  106OSM    O1310732   3.042   3.141   7.502 -0.1512  0.3272 -0.5429
  106OSM    O1410733   3.291   3.142   7.523  0.2149  0.0061 -0.2668
  106OSM    O1110734   3.170   3.163   7.302  0.2646 -0.1921  0.0135
  106OSM    O1210735   3.163   2.934   7.425 -0.2050 -0.4302 -0.0877
  106OSM    C1S10736   3.227   3.294   7.292  0.8517 -0.1872  0.5225
  106OSM    H1S10737   3.336   3.285   7.312  1.4711  3.3096 -0.6754
  106OSM    H1T10738   3.181   3.362   7.366 -1.1476 -1.6067  0.6583
  106OSM     NF10739   3.275   3.483   7.138  0.4042  0.3861 -0.9075
  106OSM    HNF10740   3.222   3.568   7.135 -0.6741 -0.2301 -0.0829
  106OSM    C2S10741   3.198   3.362   7.157 -0.8228  0.7665 -0.6785
  106OSM    H2S10742   3.223   3.288   7.078 -0.1594  1.8878 -1.5567
  106OSM    C3S10743   3.048   3.391   7.147  0.0509 -0.4252 -0.3364
  106OSM    H3S10744   3.027   3.468   7.223 -0.4261 -0.0628 -0.8264
  106OSM     O310745   2.953   3.288   7.184 -0.7941  0.1118 -0.1005
  106OSM    HO310746   3.006   3.219   7.223 -2.2729 -1.1807 -0.3080
  106OSM    C4S10747   3.018   3.458   7.017 -0.1660 -0.8364  0.1267
  106OSM    H4S10748   2.998   3.565   7.023  1.9076 -0.2923 -1.4472
  106OSM    C5S10749   2.984   3.398   6.902 -0.5970 -0.5818  0.2191
  106OSM    H5S10750   2.981   3.289   6.888 -0.1266 -0.9113  2.3023
  106OSM    C6S10751   2.941   3.476   6.782  0.2680 -0.3616  0.0546
  106OSM    H6S10752   2.934   3.586   6.795 -1.0258 -0.4874  0.5535
  106OSM    H6T10753   2.844   3.439   6.743  0.9064 -0.8958 -1.0774
  106OSM    C7S10754   3.043   3.455   6.669  0.2174 -0.5219 -0.9533
  106OSM    H7S10755   3.060   3.347   6.652 -1.3128 -0.7719 -1.0143
  106OSM    H7T10756   3.142   3.501   6.694 -0.2535  1.1012 -1.8890
  106OSM    C8S10757   2.992   3.518   6.539  0.2055  1.1279  0.4278
  106OSM    H8S10758   2.964   3.624   6.558 -0.4621  1.5374 -2.4068
  106OSM    H8T10759   2.903   3.463   6.500  3.0723 -0.5771 -4.5515
  106OSM    C9S10760   3.093   3.519   6.428  0.6050 -0.0647  0.5991
  106OSM    H9S10761   3.120   3.412   6.419 -2.3054 -0.8295 -0.2712
  106OSM    H9T10762   3.181   3.584   6.450  1.5053 -0.9379 -0.3526
  106OSM   C10S10763   3.042   3.572   6.291  1.0925 -0.9754  0.9514
  106OSM   H10S10764   2.999   3.674   6.297  0.7862 -0.9183 -1.2175
  106OSM   H10T10765   2.953   3.515   6.258  1.9162 -2.0970  0.6081
  106OSM   C11S10766   3.134   3.568   6.172 -0.2605 -0.5330 -0.3168
  106OSM   H11S10767   3.160   3.461   6.158  0.1701 -0.6261  1.0850
  106OSM   H11T10768   3.227   3.621   6.201 -1.6922  2.0969 -0.1890
  106OSM   C12S10769   3.077   3.639   6.055 -0.1226 -0.3326 -0.3250
  106OSM   H12S10770   3.059   3.737   6.104 -0.6515 -1.7156  2.4508
  106OSM   H12T10771   2.979   3.599   6.022 -0.9424  0.7332  0.7364
  106OSM   C13S10772   3.171   3.638   5.936 -0.9670  0.3329  1.1561
  106OSM   H13S10773   3.228   3.543   5.935 -0.9252  0.3577  0.8979
  106OSM   H13T10774   3.244   3.722   5.937 -0.4088 -0.0027 -1.6471
  106OSM   C14S10775   3.103   3.635   5.809  0.0933 -0.0831  0.0096
  106OSM   H14S10776   3.041   3.727   5.804  1.1256  0.5563 -1.8549
  106OSM   H14T10777   3.031   3.551   5.803 -0.5715  0.4527  0.3615
  106OSM   C15S10778   3.202   3.636   5.692  0.0135  0.2809 -0.6175
  106OSM   H15S10779   3.290   3.577   5.726  0.5761  0.1560 -2.1950
  106OSM   H15T10780   3.237   3.739   5.674 -0.9843  1.0771  1.6155
  106OSM   C16S10781   3.152   3.569   5.569 -0.4276 -0.7590  0.6674
  106OSM   H16S10782   3.125   3.464   5.592  1.4780 -0.7136  3.6586
  106OSM   H16T10783   3.246   3.560   5.511 -1.3519 -1.7963 -0.7497
  106OSM   C17S10784   3.043   3.655   5.500  0.3833 -0.5860  0.1857
  106OSM   H17S10785   3.082   3.758   5.487  3.5442 -1.9471 -2.6106
  106OSM   H17T10786   2.965   3.657   5.580  1.0409 -2.4032  0.9453
  106OSM   C18S10787   2.971   3.606   5.378  0.0819 -0.2344 -0.9146
  106OSM   H18S10788   2.934   3.502   5.387 -0.9103  0.2310  1.2066
  106OSM   H18T10789   3.021   3.621   5.280 -2.8216  0.2158 -2.4572
  106OSM   H18U10790   2.874   3.657   5.358  0.0792  0.3468  0.4061
  106OSM    C1F10791   3.406   3.483   7.128 -0.3577  0.4600 -0.1865
  106OSM     OF10792   3.469   3.380   7.133  0.4000  0.2978  0.1919
  106OSM    C2F10793   3.468   3.617   7.099 -0.3148  0.2703 -0.6065
  106OSM    H2F10794   3.578   3.601   7.100 -0.2532  0.6699  0.2378
  106OSM    H2G10795   3.426   3.688   7.173 -0.4910 -0.2840 -0.1596
  106OSM    C3F10796   3.443   3.670   6.948  0.2357  0.7270 -0.1091
  106OSM    H3F10797   3.483   3.773   6.940 -1.4648  1.3396 -1.2200
  106OSM    H3G10798   3.333   3.677   6.938  0.1654 -1.1707 -1.3967
  106OSM    C4F10799   3.489   3.579   6.826 -0.4511 -0.6207 -0.3167
  106OSM    H4F10800   3.440   3.479   6.831 -1.1703 -0.2977 -0.6547
  106OSM    H4G10801   3.597   3.557   6.831 -0.1631  0.7705  0.0993
  106OSM    C5F10802   3.468   3.636   6.688  0.2750  0.6311 -0.3336
  106OSM    H5F10803   3.485   3.745   6.671  0.4146  0.6789  0.1062
  106OSM    H5G10804   3.360   3.626   6.665  0.3860  1.6848 -1.4812
  106OSM    C6F10805   3.546   3.551   6.584 -0.3161 -0.2762  0.1130
  106OSM    H6F10806   3.556   3.451   6.631  0.0940 -0.0761  0.4550
  106OSM    H6G10807   3.652   3.584   6.590 -0.8765  1.9251 -1.1789
  106OSM    C7F10808   3.501   3.546   6.436  0.9306 -0.4660 -0.6856
  106OSM    H7F10809   3.513   3.651   6.404 -1.1646  0.3976  1.1060
  106OSM    H7G10810   3.394   3.521   6.451  0.7914  0.1371 -0.6679
  106OSM    C8F10811   3.560   3.438   6.340 -0.6359 -0.1891 -0.2396
  106OSM    H8F10812   3.498   3.451   6.248 -1.6861 -1.0388  0.3352
  106OSM    H8G10813   3.558   3.336   6.381 -1.1349 -0.2734 -0.4637
  106OSM    C9F10814   3.695   3.473   6.314 -0.0759  0.4287  0.9324
  106OSM    H9F10815   3.764   3.465   6.400  0.6067  2.0090  0.5676
  106OSM   C10F10816   3.754   3.520   6.204 -0.1018  0.4286 -0.3909
  106OSM   H10F10817   3.863   3.528   6.197  0.1337 -2.4924 -1.5805
  106OSM   C11F10818   3.681   3.527   6.066 -0.2620 -0.7590 -0.4893
  106OSM   H11F10819   3.718   3.596   5.987  0.0076  1.2415  1.2770
  106OSM   H11G10820   3.577   3.562   6.082 -0.0958  0.0278 -1.0787
  106OSM   C12F10821   3.670   3.389   5.995 -0.1863 -0.2171 -0.4682
  106OSM   H12F10822   3.614   3.323   6.064 -1.2513  3.1556  2.1829
  106OSM   H12G10823   3.775   3.362   5.967 -0.6642 -1.8896 -0.7137
  106OSM   C13F10824   3.582   3.407   5.872 -0.5743  0.2590  0.5021
  106OSM   H13F10825   3.646   3.474   5.811 -0.1021  0.3813  1.1250
  106OSM   H13G10826   3.494   3.469   5.902  0.6339  1.9774  0.6544
  106OSM   C14F10827   3.543   3.274   5.802 -0.7371  0.1706 -0.2270
  106OSM   H14F10828   3.467   3.201   5.835  1.4639 -2.3954 -0.4652
  106OSM   H14G10829   3.639   3.219   5.788  0.0542  1.5600 -0.4076
  106OSM   C15F10830   3.500   3.308   5.656  0.3934 -0.3362  0.1759
  106OSM   H15F10831   3.588   3.356   5.609  0.4586 -1.0790 -0.4780
  106OSM   H15G10832   3.413   3.378   5.656  1.3150  0.8773 -1.6808
  106OSM   C16F10833   3.465   3.189   5.567  0.5726  0.3345  0.6427
  106OSM   H16F10834   3.394   3.128   5.626 -0.0891 -0.0435 -0.5129
  106OSM   H16G10835   3.546   3.116   5.548  1.7226  1.4971  0.8710
  106OSM   C17F10836   3.377   3.228   5.451  0.7230 -0.6171  1.1129
  106OSM   H17F10837   3.421   3.301   5.380 -0.5321 -0.5353  0.3954
  106OSM   H17G10838   3.294   3.293   5.487 -0.5410 -1.6124  0.1019
  106OSM   C18F10839   3.309   3.116   5.371  0.6301  0.5578  0.9085
  106OSM   H18F10840   3.227   3.158   5.308 -0.3714  0.6463  2.2305
  106OSM   H18G10841   3.252   3.059   5.447  0.2985 -0.3584  0.0028
  106OSM   H18H10842   3.378   3.049   5.316 -1.0056 -1.7245  1.5083
  107OSM      N10843   3.258   0.934   7.656 -0.0051 -0.6517  0.6762
  107OSM    C1510844   3.330   0.824   7.590 -0.0026 -0.1930 -0.2380
  107OSM   H15A10845   3.262   0.760   7.535 -0.3513  1.0346 -1.2959
  107OSM   H15B10846   3.372   0.754   7.661 -1.9760  0.1591  1.3556
  107OSM   H15C10847   3.408   0.857   7.524  1.2567  0.3310  1.4360
  107OSM    C1410848   3.168   0.880   7.767  0.1236 -0.3512  0.1978
  107OSM   H14A10849   3.218   0.831   7.849 -0.6954 -0.2187  0.7920
  107OSM   H14B10850   3.093   0.813   7.727 -0.5460  0.6980 -0.3455
  107OSM   H14C10851   3.116   0.962   7.815 -1.6981 -2.0311  1.2273
  107OSM    C1310852   3.353   1.024   7.723 -0.6283  0.7916 -0.4013
  107OSM   H13A10853   3.403   1.090   7.654 -0.7264  2.1831  0.7961
  107OSM   H13B10854   3.425   0.962   7.774  1.9749  2.6860 -1.5738
  107OSM   H13C10855   3.300   1.084   7.796  0.3650 -1.0133  1.9453
  107OSM    C1210856   3.176   1.013   7.554  0.0892 -0.6568  0.2376
  107OSM   H12A10857   3.127   1.089   7.613 -0.0781 -1.2964  0.9446
  107OSM   H12B10858   3.100   0.946   7.516  0.7191 -0.4065 -1.5516
  107OSM    C1110859   3.249   1.079   7.441 -0.5323 -0.6500  0.5079
  107OSM   H11A10860   3.179   1.128   7.370  1.3349  0.5959 -0.5437
  107OSM   H11B10861   3.306   1.004   7.383 -0.3671 -0.6500  0.6697
  107OSM      P10862   3.402   1.292   7.411  0.0471 -0.1389 -0.3589
  107OSM    O1310863   3.303   1.402   7.403 -0.5331 -0.7245 -0.0384
  107OSM    O1410864   3.529   1.323   7.479 -0.1485  0.1283 -0.2018
  107OSM    O1110865   3.424   1.227   7.273  0.7874  0.2213 -0.0462
  107OSM    O1210866   3.324   1.177   7.496 -0.4473  0.3827  0.1262
  107OSM    C1S10867   3.507   1.299   7.165  0.7147 -0.1693  0.2173
  107OSM    H1S10868   3.612   1.296   7.203  0.2852  3.2281  2.1294
  107OSM    H1T10869   3.482   1.405   7.146 -1.3636 -0.7141 -0.2550
  107OSM     NF10870   3.607   1.285   6.945  0.2546 -0.1530 -0.2180
  107OSM    HNF10871   3.579   1.336   6.865  0.6727 -0.7190 -0.7319
  107OSM    C2S10872   3.511   1.220   7.035  0.5125 -0.2007  0.7282
  107OSM    H2S10873   3.550   1.118   7.054  0.2956 -0.7729 -1.5299
  107OSM    C3S10874   3.362   1.210   6.984  0.4952  0.2311  0.0540
  107OSM    H3S10875   3.324   1.314   6.975 -1.6495 -0.3506  1.5710
  107OSM     O310876   3.270   1.139   7.068  0.0293  0.0123  0.2662
  107OSM    HO310877   3.310   1.139   7.155 -0.8190  0.1175  0.6651
  107OSM    C4S10878   3.364   1.135   6.854  0.4220 -0.2268  0.0489
  107OSM    H4S10879   3.430   1.047   6.851 -0.2487 -0.7732  0.8706
  107OSM    C5S10880   3.306   1.185   6.744 -0.3240  1.0452  0.5364
  107OSM    H5S10881   3.240   1.271   6.758 -1.0949  0.2321  2.2512
  107OSM    C6S10882   3.309   1.117   6.609  0.1893  0.5359  0.0080
  107OSM    H6S10883   3.297   1.008   6.624  1.2298  0.2894 -0.8665
  107OSM    H6T10884   3.404   1.138   6.556  0.6734 -1.3787  0.0427
  107OSM    C7S10885   3.196   1.158   6.517 -0.0274  0.4893 -0.1505
  107OSM    H7S10886   3.187   1.268   6.527  0.5165  0.5567 -0.3945
  107OSM    H7T10887   3.096   1.120   6.547  0.4831 -1.9984 -1.2941
  107OSM    C8S10888   3.224   1.117   6.375  0.5086 -0.6833 -0.4042
  107OSM    H8S10889   3.243   1.008   6.375 -0.0627 -0.7857 -0.3598
  107OSM    H8T10890   3.313   1.173   6.339 -0.1593 -1.0144 -2.7127
  107OSM    C9S10891   3.099   1.150   6.296  0.3258  0.4517  0.5525
  107OSM    H9S10892   3.069   1.255   6.315 -1.4202 -0.0897  1.0298
  107OSM    H9T10893   3.013   1.088   6.329  2.0032 -0.5476  3.4871
  107OSM   C10S10894   3.118   1.110   6.150 -0.1222  0.0270  0.0250
  107OSM   H10S10895   3.210   1.160   6.112 -0.1421  1.2027  1.4613
  107OSM   H10T10896   3.035   1.154   6.092  0.5722  1.3515 -0.0013
  107OSM   C11S10897   3.118   0.957   6.113 -0.3110 -0.1514 -0.1211
  107OSM   H11S10898   3.029   0.902   6.151  0.7126 -1.3075  0.6624
  107OSM   H11T10899   3.208   0.921   6.168  0.1400  2.4414  0.9787
  107OSM   C12S10900   3.136   0.924   5.954  0.2768 -0.2947 -0.2538
  107OSM   H12S10901   3.236   0.971   5.940 -0.4502  1.7506  0.9733
  107OSM   H12T10902   3.065   0.987   5.897 -1.5500 -0.6146  1.5546
  107OSM   C13S10903   3.133   0.769   5.923 -0.6067 -0.4914  0.2497
  107OSM   H13S10904   3.031   0.735   5.950  0.3441 -1.8382  2.4637
  107OSM   H13T10905   3.203   0.728   5.998  0.7764  0.8482 -0.2610
  107OSM   C14S10906   3.172   0.731   5.782  0.3292  0.6214 -0.1608
  107OSM   H14S10907   3.283   0.735   5.776  0.3706 -1.0146 -1.1780
  107OSM   H14T10908   3.130   0.796   5.703  0.5557  1.3591  0.3174
  107OSM   C15S10909   3.129   0.588   5.752 -0.1555 -0.2421  0.1284
  107OSM   H15S10910   3.020   0.576   5.769 -0.2837  0.6843  0.0483
  107OSM   H15T10911   3.172   0.516   5.825  0.7233 -0.6926 -0.8034
  107OSM   C16S10912   3.184   0.535   5.616  0.7074 -0.3469 -0.0066
  107OSM   H16S10913   3.295   0.534   5.610  0.7322  0.8043  0.0796
  107OSM   H16T10914   3.151   0.610   5.541 -0.4679  0.4064  1.2129
  107OSM   C17S10915   3.133   0.395   5.574  0.4434 -0.0868 -1.0483
  107OSM   H17S10916   3.024   0.413   5.566  0.4528 -0.0049 -0.9921
  107OSM   H17T10917   3.148   0.326   5.661 -1.5405  0.8568  0.1073
  107OSM   C18S10918   3.184   0.327   5.452 -0.3191  0.3443  0.5190
  107OSM   H18S10919   3.190   0.383   5.357 -1.3477 -0.8734 -0.3037
  107OSM   H18T10920   3.118   0.238   5.438 -0.4982  0.4908  0.4372
  107OSM   H18U10921   3.290   0.294   5.463 -0.5522 -1.8674 -2.4873
  107OSM    C1F10922   3.739   1.296   6.965 -0.1626 -0.2514 -0.1972
  107OSM     OF10923   3.792   1.250   7.066 -0.4734 -0.3393  0.2730
  107OSM    C2F10924   3.828   1.355   6.859  0.2180  0.0047 -0.1970
  107OSM    H2F10925   3.895   1.426   6.912 -0.9436  0.1979  1.0807
  107OSM    H2G10926   3.763   1.406   6.784 -1.3920  1.8946  2.2822
  107OSM    C3F10927   3.919   1.239   6.806  0.4671 -0.4635 -0.8061
  107OSM    H3F10928   3.870   1.149   6.763  0.6128 -0.1262 -1.6952
  107OSM    H3G10929   3.965   1.193   6.896 -0.4179 -2.3636 -1.2749
  107OSM    C4F10930   4.028   1.280   6.713  0.1249  0.0491  0.0690
  107OSM    H4F10931   4.097   1.194   6.697 -0.5587 -0.4103 -0.4933
  107OSM    H4G10932   4.081   1.368   6.755  1.2053 -0.6042  0.1171
  107OSM    C5F10933   3.976   1.324   6.571 -0.4988 -0.2966  0.1547
  107OSM    H5F10934   4.062   1.319   6.501 -0.6166  0.4387 -0.0493
  107OSM    H5G10935   3.945   1.430   6.570  3.3500  0.9960 -0.2092
  107OSM    C6F10936   3.870   1.232   6.505 -0.0789  0.2059 -0.9027
  107OSM    H6F10937   3.771   1.244   6.555 -0.4852 -3.8112 -0.3858
  107OSM    H6G10938   3.891   1.126   6.533 -0.7274 -0.3077 -2.2512
  107OSM    C7F10939   3.849   1.233   6.358 -0.1540  0.8802  0.3728
  107OSM    H7F10940   3.941   1.192   6.311 -1.3703 -1.0125 -0.4809
  107OSM    H7G10941   3.844   1.340   6.330  2.1569  1.3970  1.6582
  107OSM    C8F10942   3.717   1.156   6.318  0.1028  0.4753 -0.3929
  107OSM    H8F10943   3.637   1.198   6.381 -0.3685  0.3924 -0.9284
  107OSM    H8G10944   3.744   1.052   6.347  2.4712  0.5411 -1.9978
  107OSM    C9F10945   3.703   1.183   6.166 -0.2544 -0.4112 -0.3633
  107OSM    H9F10946   3.733   1.285   6.140 -0.2011 -0.3726 -0.1513
  107OSM   C10F10947   3.649   1.095   6.079  0.0875  0.3835 -0.4160
  107OSM   H10F10948   3.643   1.123   5.973  0.7640 -2.3877 -1.2728
  107OSM   C11F10949   3.586   0.967   6.110  0.5848  0.8649 -0.8801
  107OSM   H11F10950   3.476   0.972   6.124  0.4480  0.2882 -1.6605
  107OSM   H11G10951   3.620   0.936   6.212  0.5799  0.9088 -0.8651
  107OSM   C12F10952   3.621   0.859   6.017  0.4611 -0.7649  0.6007
  107OSM   H12F10953   3.582   0.763   6.056 -2.4423 -0.2984 -0.9382
  107OSM   H12G10954   3.727   0.834   5.995  0.5534 -0.8781  1.1618
  107OSM   C13F10955   3.565   0.870   5.874  0.0782 -0.4677 -0.5831
  107OSM   H13F10956   3.589   0.974   5.844  0.0719 -0.5055 -0.7197
  107OSM   H13G10957   3.454   0.871   5.875  0.0587  1.3686  0.9413
  107OSM   C14F10958   3.641   0.773   5.782 -0.4199  0.0505 -0.1814
  107OSM   H14F10959   3.748   0.801   5.794 -0.8731  1.6168  0.5322
  107OSM   H14G10960   3.606   0.790   5.678  1.1334 -0.5075 -0.8311
  107OSM   C15F10961   3.611   0.628   5.810  0.9750 -0.0231 -0.6969
  107OSM   H15F10962   3.504   0.604   5.793  0.7712  0.8871 -0.7718
  107OSM   H15G10963   3.648   0.611   5.913  1.2289  0.0671 -0.7740
  107OSM   C16F10964   3.669   0.524   5.721 -0.5834  0.0857 -0.0069
  107OSM   H16F10965   3.630   0.426   5.756 -0.9234  0.2745  0.1503
  107OSM   H16G10966   3.780   0.527   5.728 -0.4385 -2.4934 -0.3877
  107OSM   C17F10967   3.630   0.523   5.575  0.9124 -0.5479 -0.1362
  107OSM   H17F10968   3.670   0.612   5.522 -0.7278 -0.8434 -1.9614
  107OSM   H17G10969   3.520   0.516   5.562  0.9752 -2.2227 -0.0082
  107OSM   C18F10970   3.682   0.396   5.507  0.2259 -0.2119 -0.2820
  107OSM   H18F10971   3.785   0.373   5.543 -0.8021 -0.6570  2.6516
  107OSM   H18G10972   3.674   0.397   5.396 -1.0277 -0.2678 -0.2017
  107OSM   H18H10973   3.619   0.311   5.542  0.9721 -0.1570  1.3009
  108OSM      N10974   6.354   1.275   8.114  0.0091 -0.2084  0.3543
  108OSM    C1510975   6.216   1.329   8.105 -0.4893 -1.2358  0.0859
  108OSM   H15A10976   6.156   1.287   8.183  0.6067 -0.8824  1.1611
  108OSM   H15B10977   6.171   1.304   8.010  0.6739 -1.8663 -0.3192
  108OSM   H15C10978   6.206   1.436   8.117  1.2435 -1.2440  2.1719
  108OSM    C1410979   6.420   1.316   8.236  0.0145  0.6336 -0.7016
  108OSM   H14A10980   6.376   1.270   8.323  2.9513  0.5917  0.8981
  108OSM   H14B10981   6.420   1.424   8.246 -0.2829  0.4746  1.4410
  108OSM   H14C10982   6.522   1.282   8.235  0.6311  2.2398 -3.7166
  108OSM    C1310983   6.349   1.119   8.105 -0.1034 -0.0823 -0.3858
  108OSM   H13A10984   6.287   1.072   8.180 -0.2760  1.0937  0.2304
  108OSM   H13B10985   6.447   1.074   8.108 -0.5594 -1.1248 -0.9019
  108OSM   H13C10986   6.306   1.089   8.010 -0.5180 -1.9202  0.3342
  108OSM    C1210987   6.437   1.324   7.996 -0.5582 -0.4504  0.8358
  108OSM   H12A10988   6.536   1.291   8.020  0.4831  2.0588  0.3343
  108OSM   H12B10989   6.440   1.431   8.008  0.0182 -0.2097 -1.1409
  108OSM    C1110990   6.394   1.294   7.848  0.5591  0.0464 -0.5267
  108OSM   H11A10991   6.393   1.184   7.832  0.4263  0.2088 -1.7704
  108OSM   H11B10992   6.465   1.332   7.771  0.2560  0.7521 -0.4599
  108OSM      P10993   6.248   1.495   7.769  0.1071 -0.1230  0.2141
  108OSM    O1310994   6.106   1.526   7.744 -0.6833  0.2944 -0.3310
  108OSM    O1410995   6.318   1.590   7.857 -0.3208 -0.5695  0.1238
  108OSM    O1110996   6.324   1.493   7.629  0.3329 -0.7498 -0.0010
  108OSM    O1210997   6.264   1.354   7.825  0.4866  1.2559  0.1880
  108OSM    C1S10998   6.281   1.399   7.530  0.0112  1.2444  0.0894
  108OSM    H1S10999   6.207   1.331   7.577  0.4325  0.1746 -0.7494
  108OSM    H1T11000   6.370   1.336   7.505  0.2299  1.7301 -0.3807
  108OSM     NF11001   6.182   1.353   7.310  0.1354 -0.4295 -0.0904
  108OSM    HNF11002   6.261   1.312   7.264 -0.4169 -1.0900 -0.4707
  108OSM    C2S11003   6.215   1.459   7.401 -0.4372  0.5821  0.1719
  108OSM    H2S11004   6.125   1.512   7.439 -0.5721  0.0279  0.6514
  108OSM    C3S11005   6.303   1.570   7.344  0.2145 -0.4612 -0.4098
  108OSM    H3S11006   6.400   1.526   7.312  1.1414 -1.0316  2.8309
  108OSM     O311007   6.335   1.676   7.435 -0.3737 -0.4521 -0.1781
  108OSM    HO311008   6.310   1.646   7.522 -2.1156  0.5732 -0.2835
  108OSM    C4S11009   6.234   1.635   7.229 -0.1585  0.4797 -0.0810
  108OSM    H4S11010   6.131   1.667   7.248 -0.5672 -1.1460  0.5936
  108OSM    C5S11011   6.291   1.673   7.111  0.1495  0.0065 -0.2321
  108OSM    H5S11012   6.400   1.668   7.102  0.0981 -0.6974 -0.5283
  108OSM    C6S11013   6.212   1.736   6.991  0.6249 -0.1246  0.2262
  108OSM    H6S11014   6.215   1.847   6.979 -0.4649 -0.2439 -1.4762
  108OSM    H6T11015   6.111   1.692   6.994  1.0877 -1.8030 -3.4743
  108OSM    C7S11016   6.274   1.690   6.856  0.8432  1.0129 -0.5819
  108OSM    H7S11017   6.292   1.580   6.857  0.5562  0.9394 -1.6339
  108OSM    H7T11018   6.377   1.727   6.837  1.1204 -0.8316 -3.2429
  108OSM    C8S11019   6.195   1.714   6.731  0.1086  0.7150  0.2028
  108OSM    H8S11020   6.192   1.824   6.718  0.2492  0.5003 -2.1247
  108OSM    H8T11021   6.085   1.700   6.740  0.3762 -0.1400  2.8844
  108OSM    C9S11022   6.251   1.638   6.604 -0.2732 -0.1583 -0.2405
  108OSM    H9S11023   6.268   1.533   6.636  1.5458  0.4101  0.7459
  108OSM    H9T11024   6.354   1.673   6.581  0.3021 -0.8571  1.1819
  108OSM   C10S11025   6.156   1.640   6.487  0.5856 -0.8080 -0.3848
  108OSM   H10S11026   6.117   1.743   6.472 -1.3828 -1.1915  1.6828
  108OSM   H10T11027   6.065   1.587   6.521 -1.2655  1.9430 -0.7421
  108OSM   C11S11028   6.223   1.585   6.361 -0.4822 -0.5667 -0.8122
  108OSM   H11S11029   6.237   1.476   6.377  0.6759 -0.1510  1.5213
  108OSM   H11T11030   6.325   1.631   6.355 -0.8611  0.6194  0.8780
  108OSM   C12S11031   6.138   1.613   6.239  0.0158  0.0905 -0.3171
  108OSM   H12S11032   6.102   1.718   6.244  2.1095  0.7676  2.9421
  108OSM   H12T11033   6.043   1.559   6.260  0.2205 -0.0232  0.3373
  108OSM   C13S11034   6.196   1.578   6.104 -0.1700  0.1585 -0.3735
  108OSM   H13S11035   6.224   1.471   6.115 -0.3679  0.0981 -0.4581
  108OSM   H13T11036   6.285   1.638   6.077 -0.8212  0.6977 -1.3945
  108OSM   C14S11037   6.092   1.607   5.994 -0.7534 -0.2227  0.6434
  108OSM   H14S11038   6.069   1.715   6.001  0.2216 -0.0532  1.4673
  108OSM   H14T11039   6.004   1.539   6.000 -0.0551 -1.5456 -2.3000
  108OSM   C15S11040   6.150   1.579   5.852  0.0808  0.1202 -0.2344
  108OSM   H15S11041   6.163   1.470   5.837 -2.2787 -0.1472 -0.5957
  108OSM   H15T11042   6.253   1.622   5.855  0.5460 -0.8349 -1.5221
  108OSM   C16S11043   6.079   1.673   5.749  0.7592 -0.1050  0.2448
  108OSM   H16S11044   6.149   1.681   5.663  1.4385  3.5344  0.9664
  108OSM   H16T11045   6.079   1.776   5.791 -0.5157 -0.4202  1.0709
  108OSM   C17S11046   5.941   1.625   5.696  0.0908  0.4507  0.1483
  108OSM   H17S11047   5.865   1.628   5.777 -1.3871  0.3539 -1.1911
  108OSM   H17T11048   5.936   1.525   5.648  1.9643  0.4258 -0.0534
  108OSM   C18S11049   5.896   1.713   5.579  0.1559 -0.9715 -0.1208
  108OSM   H18S11050   5.953   1.705   5.483  1.2012  0.8227  0.2968
  108OSM   H18T11051   5.907   1.818   5.614  0.2357 -0.8698 -0.4442
  108OSM   H18U11052   5.788   1.692   5.566  0.2474 -2.7551  1.6085
  108OSM    C1F11053   6.080   1.280   7.330 -0.3973  0.2433  0.1303
  108OSM     OF11054   6.001   1.323   7.416 -0.1998  0.5479  0.0017
  108OSM    C2F11055   6.068   1.154   7.257 -0.1101  0.6407  0.0855
  108OSM    H2F11056   6.094   1.069   7.324 -1.5958 -1.1334 -1.4644
  108OSM    H2G11057   6.144   1.156   7.176  2.6967  0.3261  2.5339
  108OSM    C3F11058   5.932   1.124   7.194  0.1146  0.7987  0.0377
  108OSM    H3F11059   5.854   1.122   7.272  1.2752  3.1637  1.3609
  108OSM    H3G11060   5.947   1.021   7.156  2.7573  1.2849 -0.4613
  108OSM    C4F11061   5.894   1.220   7.082 -0.2033 -0.2404 -0.6280
  108OSM    H4F11062   5.970   1.209   7.001 -1.8044  0.7031 -2.3479
  108OSM    H4G11063   5.895   1.325   7.117 -2.2646 -0.9664  1.9154
  108OSM    C5F11064   5.761   1.205   7.020  0.0238 -0.1325 -0.0950
  108OSM    H5F11065   5.682   1.215   7.098 -0.7435 -1.0637 -0.7293
  108OSM    H5G11066   5.743   1.114   6.960 -0.0845  0.9505 -1.7755
  108OSM    C6F11067   5.749   1.298   6.901  0.5794 -0.0695 -0.0586
  108OSM    H6F11068   5.832   1.276   6.831 -1.4921 -0.5220 -2.5620
  108OSM    H6G11069   5.751   1.408   6.922  1.5993  0.0106 -0.5409
  108OSM    C7F11070   5.618   1.270   6.821  0.4309  0.2334 -0.2998
  108OSM    H7F11071   5.522   1.300   6.868  0.0470  2.0900 -2.1443
  108OSM    H7G11072   5.621   1.162   6.797  0.5110 -0.0641  0.9726
  108OSM    C8F11073   5.623   1.347   6.686  0.9340 -0.3811 -0.2425
  108OSM    H8F11074   5.722   1.338   6.637  1.2708  0.4028  0.2735
  108OSM    H8G11075   5.621   1.456   6.707  2.2544 -0.2696 -0.6017
  108OSM    C9F11076   5.512   1.302   6.589 -0.0253 -1.0537  0.1797
  108OSM    H9F11077   5.413   1.284   6.633 -1.3625  0.4873 -2.0254
  108OSM   C10F11078   5.529   1.258   6.466 -0.4055  0.2901  0.4363
  108OSM   H10F11079   5.452   1.224   6.395  0.0357 -0.1700  0.1707
  108OSM   C11F11080   5.665   1.248   6.390  0.1816 -0.2098 -0.0920
  108OSM   H11F11081   5.663   1.166   6.314  3.8758  1.4795 -2.2923
  108OSM   H11G11082   5.758   1.222   6.444 -0.4286 -0.4397  0.8693
  108OSM   C12F11083   5.675   1.381   6.313  0.1544 -0.1478  0.3290
  108OSM   H12F11084   5.779   1.386   6.273 -0.2762 -1.4531 -1.0591
  108OSM   H12G11085   5.663   1.471   6.375 -1.9614 -0.6085  0.6693
  108OSM   C13F11086   5.589   1.392   6.187  0.4911  0.4799 -0.0053
  108OSM   H13F11087   5.487   1.421   6.220 -0.2654 -0.0432 -1.7756
  108OSM   H13G11088   5.582   1.287   6.152 -4.2052  0.8061 -0.6189
  108OSM   C14F11089   5.639   1.483   6.079  0.0315  0.1724  0.9304
  108OSM   H14F11090   5.745   1.473   6.047 -0.2797  0.9345 -0.4079
  108OSM   H14G11091   5.641   1.581   6.131 -1.8984 -0.1555  1.7149
  108OSM   C15F11092   5.538   1.482   5.964  0.3433  0.4582 -0.4206
  108OSM   H15F11093   5.433   1.493   5.998  0.2556  1.0388 -0.8711
  108OSM   H15G11094   5.548   1.389   5.905 -1.0468 -0.0777  0.1463
  108OSM   C16F11095   5.577   1.598   5.871 -0.5317  0.1429 -0.1104
  108OSM   H16F11096   5.669   1.573   5.814  0.9372  0.6678  1.9055
  108OSM   H16G11097   5.586   1.689   5.935  0.2462  0.5366 -0.7615
  108OSM   C17F11098   5.463   1.628   5.768 -0.4299 -0.3221  0.2304
  108OSM   H17F11099   5.463   1.733   5.733  0.4612 -0.1156  0.8115
  108OSM   H17G11100   5.368   1.630   5.826 -0.4085 -0.5808  0.2796
  108OSM   C18F11101   5.448   1.529   5.657  0.6564 -0.4651 -0.5892
  108OSM   H18F11102   5.460   1.426   5.697  0.2781 -0.0591  0.6025
  108OSM   H18G11103   5.513   1.549   5.570 -1.5354 -0.3551 -2.2980
  108OSM   H18H11104   5.344   1.549   5.622 -0.4656  0.4497  2.8724
  109OSM      N11105   3.345   3.550   7.772 -0.1530 -0.0605  0.4480
  109OSM    C1511106   3.371   3.421   7.840 -0.3286  0.3990 -0.2167
  109OSM   H15A11107   3.442   3.438   7.920  0.3350  2.8598 -1.2485
  109OSM   H15B11108   3.414   3.351   7.770 -2.8689 -1.3646 -0.1521
  109OSM   H15C11109   3.284   3.371   7.878  0.1326 -1.0801 -1.0156
  109OSM    C1411110   3.286   3.640   7.881 -0.3070 -0.4203 -0.1091
  109OSM   H14A11111   3.280   3.743   7.848 -1.5829 -0.8181 -1.2282
  109OSM   H14B11112   3.330   3.622   7.978 -1.4989 -1.4144  0.2823
  109OSM   H14C11113   3.180   3.619   7.893 -0.4611  0.5283  0.3160
  109OSM    C1311114   3.475   3.604   7.725 -0.1187 -0.3891  0.0319
  109OSM   H13A11115   3.479   3.708   7.698  3.4423 -0.4573 -0.1311
  109OSM   H13B11116   3.508   3.543   7.643  0.3121 -2.7930  1.8717
  109OSM   H13C11117   3.554   3.599   7.798 -0.2856  1.8814  0.4295
  109OSM    C1211118   3.239   3.531   7.664 -0.2589 -0.3600  0.0277
  109OSM   H12A11119   3.142   3.498   7.699 -0.2459 -0.2998  0.1202
  109OSM   H12B11120   3.271   3.449   7.601 -1.0420 -0.5924 -0.0758
  109OSM    C1111121   3.199   3.648   7.574 -0.1643  0.6549 -0.0366
  109OSM   H11A11122   3.121   3.624   7.498  1.4866 -1.3683 -1.2130
  109OSM   H11B11123   3.294   3.672   7.520  0.1279  0.6083  0.4538
  109OSM      P11124   3.027   3.820   7.683  0.2135  0.3351 -0.0558
  109OSM    O1311125   2.976   3.764   7.810 -0.1416  0.0002  0.1361
  109OSM    O1411126   3.031   3.967   7.676 -0.4849 -0.1840  0.1154
  109OSM    O1111127   2.938   3.765   7.563  0.1010 -0.0787 -0.0444
  109OSM    O1211128   3.168   3.764   7.650 -0.6612  0.3541  0.1858
  109OSM    C1S11129   2.934   3.828   7.438  0.6549  0.1254  0.1672
  109OSM    H1S11130   3.022   3.891   7.412 -0.5153  2.4434  1.4282
  109OSM    H1T11131   2.850   3.900   7.426  1.1665  0.8112  0.6184
  109OSM     NF11132   2.908   3.782   7.188  0.1818 -0.0814 -0.1127
  109OSM    HNF11133   2.824   3.818   7.150  0.3545  0.6218  0.1606
  109OSM    C2S11134   2.890   3.722   7.327  0.8420  0.6491 -0.1281
  109OSM    H2S11135   2.953   3.632   7.339 -0.0980 -0.5483 -3.1870
  109OSM    C3S11136   2.744   3.673   7.361  0.6200  0.2275 -0.0169
  109OSM    H3S11137   2.672   3.753   7.386 -0.7612 -0.8048 -0.5268
  109OSM     O311138   2.731   3.572   7.460  0.4347 -0.1230 -0.4828
  109OSM    HO311139   2.822   3.549   7.483  0.5068  0.4774 -0.1243
  109OSM    C4S11140   2.680   3.607   7.241 -0.0082 -0.3186  0.0829
  109OSM    H4S11141   2.751   3.566   7.168 -0.9992  1.1486 -1.7922
  109OSM    C5S11142   2.547   3.595   7.222 -0.1901  0.4979  0.0146
  109OSM    H5S11143   2.473   3.632   7.295  0.7037 -1.6501  2.1228
  109OSM    C6S11144   2.478   3.538   7.090 -0.1450 -0.1639 -0.1324
  109OSM    H6S11145   2.478   3.622   7.017 -1.7904 -1.0551 -1.2086
  109OSM    H6T11146   2.378   3.492   7.101 -0.1860  0.0204  0.3228
  109OSM    C7S11147   2.560   3.431   7.010  0.0503 -0.2565 -0.2175
  109OSM    H7S11148   2.548   3.337   7.067  1.2187  0.0134  0.5209
  109OSM    H7T11149   2.669   3.455   7.009  0.1640 -0.6947  0.7682
  109OSM    C8S11150   2.511   3.416   6.863 -0.0824 -0.2681  1.0747
  109OSM    H8S11151   2.520   3.514   6.813  0.2284 -0.2836  1.1021
  109OSM    H8T11152   2.404   3.387   6.869 -0.3117  0.8245  3.0540
  109OSM    C9S11153   2.593   3.310   6.788  0.5214  0.5533 -0.5511
  109OSM    H9S11154   2.552   3.208   6.803 -2.0238  1.4431 -0.9220
  109OSM    H9T11155   2.700   3.312   6.820  0.0577  1.7415  1.0546
  109OSM   C10S11156   2.605   3.325   6.637  0.1872  0.0222  0.2326
  109OSM   H10S11157   2.650   3.423   6.611  1.0665 -0.6284 -0.7996
  109OSM   H10T11158   2.506   3.322   6.587  0.8498 -3.0584 -1.1160
  109OSM   C11S11159   2.694   3.212   6.567  0.6189  0.0067  0.2698
  109OSM   H11S11160   2.646   3.115   6.595 -1.1278  0.6270 -0.4218
  109OSM   H11T11161   2.795   3.216   6.613  0.0413  0.1994  1.5577
  109OSM   C12S11162   2.700   3.224   6.415  0.9299 -0.2913 -0.4257
  109OSM   H12S11163   2.757   3.313   6.380  1.2014 -1.5396 -3.4479
  109OSM   H12T11164   2.595   3.239   6.381  0.6574  1.5463  1.0047
  109OSM   C13S11165   2.754   3.104   6.356 -0.9814  0.1297  0.9688
  109OSM   H13S11166   2.703   3.011   6.388  0.3693 -1.2792 -0.7668
  109OSM   H13T11167   2.862   3.098   6.383  0.1792  0.0045 -3.0926
  109OSM   C14S11168   2.753   3.105   6.204 -0.4315  0.3694 -0.1593
  109OSM   H14S11169   2.822   3.182   6.164  0.0131 -0.5459 -1.2031
  109OSM   H14T11170   2.650   3.127   6.167 -0.7342  0.9274  0.9527
  109OSM   C15S11171   2.790   2.961   6.150  0.1209 -0.0941  0.2292
  109OSM   H15S11172   2.725   2.884   6.196 -1.2165  1.8178  1.7052
  109OSM   H15T11173   2.880   2.932   6.209  0.2550  3.4700  2.0665
  109OSM   C16S11174   2.825   2.944   5.996 -0.4546 -0.3447  0.8958
  109OSM   H16S11175   2.911   2.875   5.989  0.5695  0.9513  0.3203
  109OSM   H16T11176   2.843   3.043   5.949 -2.0388 -0.0165  0.9202
  109OSM   C17S11177   2.717   2.868   5.921 -0.0445  0.4509  0.3055
  109OSM   H17S11178   2.617   2.868   5.969 -1.6732 -3.7484 -2.4793
  109OSM   H17T11179   2.732   2.759   5.939  1.3356  0.4153 -0.8992
  109OSM   C18S11180   2.720   2.894   5.771 -0.1686 -0.2857 -0.5842
  109OSM   H18S11181   2.725   3.004   5.758 -0.3315 -0.2656 -0.4690
  109OSM   H18T11182   2.629   2.859   5.718 -0.4209  1.0221 -1.0567
  109OSM   H18U11183   2.810   2.847   5.725  0.5511  0.3286  0.1800
  109OSM    C1F11184   3.025   3.799   7.140 -0.3834 -0.4710 -0.1357
  109OSM     OF11185   3.118   3.723   7.161  0.0410  0.1336  0.0470
  109OSM    C2F11186   3.044   3.917   7.043 -0.1630  0.5743  0.0073
  109OSM    H2F11187   3.128   3.974   7.089  1.2445 -0.6599 -0.9364
  109OSM    H2G11188   2.951   3.977   7.049  0.1565  0.9878  1.2044
  109OSM    C3F11189   3.071   3.864   6.894 -0.8769 -0.0729  0.2639
  109OSM    H3F11190   2.999   3.786   6.859  0.1844 -1.7442  1.6341
  109OSM    H3G11191   3.170   3.814   6.885 -1.3228 -0.8470 -0.4965
  109OSM    C4F11192   3.076   3.982   6.789 -0.1874  0.7186 -0.2427
  109OSM    H4F11193   3.159   4.055   6.804  0.7262 -0.1284 -1.0402
  109OSM    H4G11194   2.973   4.023   6.800 -0.7897 -1.4032  3.4486
  109OSM    C5F11195   3.097   3.908   6.658 -0.1719  0.0921 -0.8673
  109OSM    H5F11196   3.013   3.837   6.643 -0.7753  1.4462 -4.9742
  109OSM    H5G11197   3.195   3.856   6.661  0.1666  0.6650 -1.7074
  109OSM    C6F11198   3.097   4.010   6.547 -0.0282 -0.5118 -0.0023
  109OSM    H6F11199   3.158   4.100   6.571 -1.4433  0.4503  0.1338
  109OSM    H6G11200   3.003   4.066   6.525  1.7709  1.9719 -2.1022
  109OSM    C7F11201   3.142   3.952   6.412  0.1373  0.0960  0.5049
  109OSM    H7F11202   3.118   4.027   6.333  1.4166  1.5006  1.3842
  109OSM    H7G11203   3.075   3.869   6.382 -0.5318  0.7493  0.1774
  109OSM    C8F11204   3.286   3.900   6.400 -0.3824  0.5137 -0.5970
  109OSM    H8F11205   3.287   3.832   6.312 -0.6282 -0.1546 -0.0852
  109OSM    H8G11206   3.314   3.833   6.484  0.5211  2.0501  0.3824
  109OSM    C9F11207   3.390   3.998   6.380 -0.1126 -1.2069  0.1711
  109OSM    H9F11208   3.383   4.076   6.456  1.6287 -0.7469 -0.0942
  109OSM   C10F11209   3.490   4.007   6.292 -0.4486  0.7064 -0.3292
  109OSM   H10F11210   3.571   4.080   6.309  0.1301 -0.4430  2.3996
  109OSM   C11F11211   3.527   3.897   6.193 -0.0463  0.2239 -0.2760
  109OSM   H11F11212   3.483   3.798   6.219 -0.3989  0.0623 -1.4292
  109OSM   H11G11213   3.635   3.899   6.171  0.4134 -2.0289  1.4753
  109OSM   C12F11214   3.475   3.935   6.052  0.0573  0.3074 -0.3743
  109OSM   H12F11215   3.515   4.036   6.031  1.0131  0.2579  1.0475
  109OSM   H12G11216   3.365   3.941   6.061  0.2704  1.0509  2.8235
  109OSM   C13F11217   3.518   3.834   5.943 -0.0928  0.3715  0.1230
  109OSM   H13F11218   3.476   3.738   5.981  0.4367  0.5998  1.3310
  109OSM   H13G11219   3.629   3.828   5.945 -0.1185 -1.8842 -1.2590
  109OSM   C14F11220   3.475   3.879   5.808 -0.7413  0.5696  0.8682
  109OSM   H14F11221   3.510   3.984   5.806  0.3638  0.3524  3.6317
  109OSM   H14G11222   3.365   3.871   5.795 -0.5651 -1.6573  0.3587
  109OSM   C15F11223   3.537   3.783   5.700  0.6458  0.8772 -0.7371
  109OSM   H15F11224   3.500   3.680   5.717  0.0519  0.8042 -2.2672
  109OSM   H15G11225   3.645   3.792   5.726  0.7442 -0.9735 -0.3865
  109OSM   C16F11226   3.534   3.839   5.559 -0.3257  0.1279  0.9371
  109OSM   H16F11227   3.570   3.943   5.567 -1.4655  0.7010 -0.8610
  109OSM   H16G11228   3.428   3.841   5.526  0.5075 -0.4693 -2.0863
  109OSM   C17F11229   3.621   3.751   5.457  0.3093 -0.2651 -0.4436
  109OSM   H17F11230   3.728   3.781   5.449 -0.0838  1.9272  1.5023
  109OSM   H17G11231   3.575   3.768   5.358 -2.6149 -3.8694  0.0692
  109OSM   C18F11232   3.596   3.600   5.478  0.0342  0.1840  0.0182
  109OSM   H18F11233   3.665   3.568   5.559 -0.6037  1.1423  0.9772
  109OSM   H18G11234   3.623   3.534   5.394  0.8798  2.2668 -1.4190
  109OSM   H18H11235   3.498   3.565   5.518  0.3054 -0.4722  0.1212
  110OSM      N11236   5.427   0.678   8.031  0.4673  0.4600 -0.7041
  110OSM    C1511237   5.368   0.597   7.918 -0.5018 -1.0566 -0.5976
  110OSM   H15A11238   5.262   0.581   7.930 -0.7556 -0.8955 -2.4223
  110OSM   H15B11239   5.411   0.501   7.891  1.5373 -0.4724  0.4046
  110OSM   H15C11240   5.374   0.666   7.835  0.2784 -0.7713 -0.3116
  110OSM    C1411241   5.398   0.617   8.170  0.2756  0.1639  0.2672
  110OSM   H14A11242   5.399   0.691   8.248 -0.0009 -0.3180  0.7307
  110OSM   H14B11243   5.464   0.535   8.195  0.2517  0.6069  1.8706
  110OSM   H14C11244   5.301   0.571   8.182 -0.0582  0.6950 -0.2879
  110OSM    C1311245   5.583   0.698   8.020  0.3858 -0.7386  0.6117
  110OSM   H13A11246   5.618   0.746   8.110 -0.4651  0.2988  0.4082
  110OSM   H13B11247   5.602   0.760   7.934 -2.2095  0.8215  1.0455
  110OSM   H13C11248   5.629   0.601   8.008  0.7290 -0.5642  0.5183
  110OSM    C1211249   5.364   0.814   8.034 -0.2379  0.3880 -0.0547
  110OSM   H12A11250   5.400   0.880   7.956 -0.9730 -1.2694 -1.8994
  110OSM   H12B11251   5.394   0.863   8.125 -0.1029  1.7061 -0.7861
  110OSM    C1111252   5.208   0.823   8.021  0.6261  0.2512  0.3862
  110OSM   H11A11253   5.155   0.787   8.112 -2.1871 -0.6689 -1.4889
  110OSM   H11B11254   5.172   0.752   7.943 -1.6805 -1.6735  3.0089
  110OSM      P11255   5.053   0.999   7.910  0.2696  0.1122  0.1445
  110OSM    O1311256   4.945   0.898   7.929 -0.4665  0.4007  0.2212
  110OSM    O1411257   5.015   1.139   7.933 -0.2322 -0.1330  0.5861
  110OSM    O1111258   5.122   0.982   7.761  0.0226  0.5568  0.4205
  110OSM    O1211259   5.173   0.964   8.004  0.1745 -0.2089 -0.4177
  110OSM    C1S11260   5.054   0.904   7.658 -0.1590 -0.8593  0.3040
  110OSM    H1S11261   4.959   0.953   7.629  0.2561  1.2135  2.1578
  110OSM    H1T11262   5.034   0.801   7.694 -2.2396 -0.6154 -0.0224
  110OSM     NF11263   5.074   0.850   7.414  0.0883  0.2555  0.8916
  110OSM    HNF11264   5.089   0.762   7.369 -0.2974  1.1242 -1.0515
  110OSM    C2S11265   5.154   0.891   7.529  0.6078 -0.3443  0.1211
  110OSM    H2S11266   5.194   0.990   7.498 -2.1593  0.9174  0.2619
  110OSM    C3S11267   5.276   0.801   7.577  1.1810 -0.1438  0.6192
  110OSM    H3S11268   5.237   0.700   7.606  1.5492 -0.9336 -1.4562
  110OSM     O311269   5.334   0.842   7.700  0.0635  0.3019 -0.4435
  110OSM    HO311270   5.266   0.896   7.741 -1.4413 -0.8560 -1.3320
  110OSM    C4S11271   5.383   0.770   7.471 -0.0427  0.3107 -0.3011
  110OSM    H4S11272   5.419   0.862   7.423  1.1799  0.5043  0.9263
  110OSM    C5S11273   5.420   0.648   7.427  0.8735 -0.5047  0.4580
  110OSM    H5S11274   5.379   0.557   7.473 -0.1606 -0.0757  0.4028
  110OSM    C6S11275   5.505   0.622   7.305  0.1340 -0.2936 -0.0473
  110OSM    H6S11276   5.427   0.587   7.234 -1.6281  0.6130  1.3492
  110OSM    H6T11277   5.572   0.533   7.307 -1.2930 -1.4077  0.3033
  110OSM    C7S11278   5.578   0.741   7.242  0.4881  0.3164  0.2076
  110OSM    H7S11279   5.669   0.771   7.300  1.3669  1.4494 -1.6701
  110OSM    H7T11280   5.506   0.825   7.232 -2.2527 -2.0182 -1.1773
  110OSM    C8S11281   5.624   0.700   7.097  0.2861 -0.5808  0.3642
  110OSM    H8S11282   5.528   0.678   7.045 -0.1547 -0.5909  1.1651
  110OSM    H8T11283   5.685   0.608   7.091  1.6935  0.4208 -3.2737
  110OSM    C9S11284   5.688   0.811   7.023 -0.2142  0.8800 -0.5895
  110OSM    H9S11285   5.767   0.846   7.091  0.5679 -0.1266 -0.9557
  110OSM    H9T11286   5.615   0.891   6.998 -1.7411 -1.1731 -3.4110
  110OSM   C10S11287   5.755   0.767   6.894 -0.6504 -0.6983 -0.3992
  110OSM   H10S11288   5.689   0.712   6.824 -0.0568 -1.1746 -0.6006
  110OSM   H10T11289   5.834   0.692   6.916  1.2332  1.7934  2.1127
  110OSM   C11S11290   5.813   0.883   6.820 -0.0842 -0.1068 -0.7251
  110OSM   H11S11291   5.904   0.931   6.863 -0.0118 -0.1794 -0.7976
  110OSM   H11T11292   5.740   0.967   6.825 -0.0672 -0.1026  3.6203
  110OSM   C12S11293   5.837   0.857   6.674 -0.0476 -0.6023 -0.0137
  110OSM   H12S11294   5.827   0.958   6.628 -1.6193 -1.0090 -0.6489
  110OSM   H12T11295   5.744   0.807   6.641  0.4281 -1.6810  0.2338
  110OSM   C13S11296   5.971   0.788   6.650  0.2654  0.3830  0.2243
  110OSM   H13S11297   5.985   0.695   6.709  2.4757  1.1280  0.9887
  110OSM   H13T11298   6.048   0.860   6.687  0.4809  0.3089 -0.0786
  110OSM   C14S11299   5.993   0.759   6.500 -0.8309 -0.1305 -0.1008
  110OSM   H14S11300   5.986   0.858   6.450 -0.1350 -0.1776 -0.3034
  110OSM   H14T11301   5.921   0.684   6.462  1.6886 -2.5317 -0.5137
  110OSM   C15S11302   6.129   0.697   6.470  0.2556  0.0078  0.5705
  110OSM   H15S11303   6.143   0.597   6.517 -0.4828 -0.9340 -1.1088
  110OSM   H15T11304   6.199   0.769   6.516 -1.4680  1.4848  0.9917
  110OSM   C16S11305   6.163   0.677   6.322 -0.1152 -0.2334 -0.3219
  110OSM   H16S11306   6.266   0.635   6.318 -0.0373  0.0698 -1.9483
  110OSM   H16T11307   6.173   0.774   6.270  0.9526 -0.2530 -0.1702
  110OSM   C17S11308   6.072   0.595   6.235 -0.4197  0.4553  0.1886
  110OSM   H17S11309   5.976   0.639   6.199 -0.7677  0.3206  0.9311
  110OSM   H17T11310   6.036   0.510   6.298  1.9334 -1.1471 -0.4912
  110OSM   C18S11311   6.145   0.529   6.114  0.1963 -0.5451 -0.2139
  110OSM   H18S11312   6.070   0.466   6.062 -0.9372  0.8476 -0.3476
  110OSM   H18T11313   6.232   0.472   6.152  2.2879  0.3499 -3.2990
  110OSM   H18U11314   6.190   0.592   6.033 -2.0906 -1.8477 -2.6464
  110OSM    C1F11315   4.988   0.937   7.361 -0.4701 -0.4811  0.4385
  110OSM     OF11316   4.990   1.057   7.386  0.0477  0.7236 -0.5211
  110OSM    C2F11317   4.873   0.886   7.276  1.0458  0.1513  0.5958
  110OSM    H2F11318   4.781   0.917   7.331 -0.9788 -1.7665 -1.4515
  110OSM    H2G11319   4.874   0.775   7.278  0.5747  0.1434  0.6502
  110OSM    C3F11320   4.855   0.945   7.134 -0.0396  0.1633 -0.4358
  110OSM    H3F11321   4.940   0.904   7.076  1.6390  0.5604  1.6128
  110OSM    H3G11322   4.864   1.055   7.143 -0.0875  0.2107 -0.9303
  110OSM    C4F11323   4.729   0.903   7.066 -0.9407 -0.6352  0.1678
  110OSM    H4F11324   4.669   0.845   7.140 -3.1056  0.7005 -0.4316
  110OSM    H4G11325   4.747   0.839   6.977 -0.6283 -1.8029  1.0481
  110OSM    C5F11326   4.654   1.028   7.009  0.4269  0.3807 -0.7644
  110OSM    H5F11327   4.621   1.097   7.089  1.3961  1.2885 -1.1104
  110OSM    H5G11328   4.570   0.979   6.956  0.4550  1.2842 -1.6762
  110OSM    C6F11329   4.731   1.107   6.905 -0.3766 -0.4946  0.5627
  110OSM    H6F11330   4.749   1.028   6.829 -2.3792 -0.5605  0.0947
  110OSM    H6G11331   4.833   1.139   6.934 -0.0967 -0.0814 -0.7874
  110OSM    C7F11332   4.658   1.232   6.839  0.3172 -0.7233 -0.2126
  110OSM    H7F11333   4.725   1.261   6.755  0.2442 -1.3395 -0.4918
  110OSM    H7G11334   4.656   1.307   6.920  0.7998 -1.8551  0.8774
  110OSM    C8F11335   4.519   1.207   6.782  0.4152 -0.5752 -0.7871
  110OSM    H8F11336   4.481   1.305   6.745  0.3226  0.0418  0.8384
  110OSM    H8G11337   4.451   1.177   6.865  2.1444  1.2946  1.4478
  110OSM    C9F11338   4.525   1.097   6.684 -0.2627 -0.0010 -0.0605
  110OSM    H9F11339   4.573   1.006   6.723 -0.2462 -0.9270 -2.1173
  110OSM   C10F11340   4.451   1.089   6.566 -0.0535  0.7175 -0.4948
  110OSM   H10F11341   4.480   1.007   6.499  1.9951  0.6747  0.3785
  110OSM   C11F11342   4.356   1.185   6.505 -0.0632  0.0361 -0.5616
  110OSM   H11F11343   4.345   1.259   6.587  1.8537 -0.6501  0.3863
  110OSM   H11G11344   4.253   1.152   6.481 -0.1494 -1.5214  1.5733
  110OSM   C12F11345   4.425   1.250   6.376  0.5074 -0.7439 -1.0974
  110OSM   H12F11346   4.530   1.280   6.396  0.5906 -1.7463  0.1179
  110OSM   H12G11347   4.373   1.342   6.343  2.3920  0.8545  0.1083
  110OSM   C13F11348   4.438   1.171   6.253  0.1661  0.2624  0.0215
  110OSM   H13F11349   4.342   1.142   6.206  1.2460 -2.8237 -0.5497
  110OSM   H13G11350   4.475   1.072   6.289  0.4152  1.1457  2.3989
  110OSM   C14F11351   4.522   1.233   6.136 -0.2011  0.0703 -1.1893
  110OSM   H14F11352   4.628   1.253   6.163 -0.6037 -0.9528  1.5558
  110OSM   H14G11353   4.473   1.331   6.117  0.9795  0.7162 -0.9683
  110OSM   C15F11354   4.520   1.148   6.007  0.5490 -0.1330 -0.5180
  110OSM   H15F11355   4.432   1.173   5.945 -1.9062 -2.3390  1.8176
  110OSM   H15G11356   4.520   1.039   6.027  0.2291  0.0212  0.3672
  110OSM   C16F11357   4.653   1.176   5.930  0.5514 -0.4409 -0.4067
  110OSM   H16F11358   4.744   1.148   5.988  1.9456  0.2155 -2.1614
  110OSM   H16G11359   4.657   1.286   5.916  0.2989 -0.3159  0.4751
  110OSM   C17F11360   4.650   1.098   5.804 -0.3867  0.2585 -0.0605
  110OSM   H17F11361   4.556   1.132   5.756 -1.5967 -0.1822  1.9071
  110OSM   H17G11362   4.633   0.989   5.818 -2.0902  0.2381 -1.8982
  110OSM   C18F11363   4.775   1.113   5.715 -0.9051 -0.0971 -0.3407
  110OSM   H18F11364   4.765   1.067   5.614  0.0492 -1.9265  0.3709
  110OSM   H18G11365   4.864   1.075   5.769 -0.8176 -0.1730 -0.5336
  110OSM   H18H11366   4.795   1.221   5.694  0.4985 -0.1498  0.6156
  111OSM      N11367   1.133   5.920   7.899  0.0155 -0.8448 -0.4528
  111OSM    C1511368   1.245   5.821   7.895  0.8311  0.1356 -0.0345
  111OSM   H15A11369   1.335   5.878   7.908  1.5416 -1.4717  3.1953
  111OSM   H15B11370   1.246   5.776   7.797  0.8968 -1.6318  0.7473
  111OSM   H15C11371   1.242   5.748   7.974  1.9780 -0.2687 -0.3520
  111OSM    C1411372   0.999   5.859   7.888  0.0119 -0.2580  0.3978
  111OSM   H14A11373   0.991   5.824   7.787  2.7250 -0.4665  0.1756
  111OSM   H14B11374   0.925   5.930   7.922 -1.0519  0.1168 -2.4781
  111OSM   H14C11375   0.998   5.766   7.942 -0.1901 -0.9963 -0.8398
  111OSM    C1311376   1.138   5.997   8.030  0.1309  0.3408  0.0255
  111OSM   H13A11377   1.141   5.925   8.110 -1.4751 -0.8348 -0.8999
  111OSM   H13B11378   1.050   6.060   8.043 -0.7664 -0.4054 -1.9195
  111OSM   H13C11379   1.224   6.062   8.022  0.1221  0.3718  0.1877
  111OSM    C1211380   1.151   6.025   7.795  0.8086 -0.1921 -0.1573
  111OSM   H12A11381   1.253   6.060   7.801 -0.3684  3.5299  1.2642
  111OSM   H12B11382   1.087   6.108   7.824 -0.6115 -1.4761  0.5092
  111OSM    C1111383   1.109   5.994   7.649  0.1728 -0.3569 -0.5528
  111OSM   H11A11384   1.121   6.091   7.595  0.7589 -0.3129 -0.3582
  111OSM   H11B11385   1.003   5.963   7.642 -0.0874  0.8905 -3.0182
  111OSM      P11386   1.128   5.788   7.485  0.1376  0.1521 -0.3920
  111OSM    O1311387   1.229   5.753   7.382  0.7036  0.6424 -0.3599
  111OSM    O1411388   1.066   5.679   7.558 -0.1057 -0.5074  0.1872
  111OSM    O1111389   1.022   5.868   7.414 -0.4918  0.5320  0.0093
  111OSM    O1211390   1.189   5.892   7.592  0.6103 -0.6912  0.5545
  111OSM    C1S11391   1.036   5.974   7.320 -0.3567 -0.1386  0.3640
  111OSM    H1S11392   1.144   5.987   7.298 -0.3423  0.6291  0.8475
  111OSM    H1T11393   0.992   6.067   7.362 -3.0372 -0.8563 -0.6367
  111OSM     NF11394   0.956   6.065   7.106 -0.2939  0.0813  0.4227
  111OSM    HNF11395   0.879   6.128   7.105  0.3386  0.9186  1.9279
  111OSM    C2S11396   0.953   5.941   7.194  0.5914  0.2359  0.1728
  111OSM    H2S11397   1.004   5.858   7.141  1.7436  0.6867  0.5494
  111OSM    C3S11398   0.808   5.894   7.238  0.1698  0.4602 -1.0603
  111OSM    H3S11399   0.776   5.987   7.288 -1.1568  0.0901 -1.1873
  111OSM     O311400   0.795   5.783   7.325  0.1483 -0.3697 -0.1754
  111OSM    HO311401   0.886   5.756   7.342 -0.3257 -1.2997  0.9724
  111OSM    C4S11402   0.729   5.882   7.114 -0.0898 -0.5222  0.4632
  111OSM    H4S11403   0.667   5.971   7.093 -4.4057 -3.2305  0.5509
  111OSM    C5S11404   0.711   5.775   7.031 -0.8330  0.7682  0.1204
  111OSM    H5S11405   0.746   5.674   7.057 -0.3179  0.5077 -1.4617
  111OSM    C6S11406   0.625   5.787   6.909 -0.1195  0.5537 -0.2720
  111OSM    H6S11407   0.538   5.855   6.922  0.3529  1.2209 -0.5734
  111OSM    H6T11408   0.594   5.684   6.881  2.1206 -0.2843  0.1849
  111OSM    C7S11409   0.707   5.835   6.781 -0.3671 -0.4622  0.1947
  111OSM    H7S11410   0.803   5.780   6.771  0.6963  1.2978  0.2393
  111OSM    H7T11411   0.735   5.941   6.797  1.1198 -0.9695  1.2494
  111OSM    C8S11412   0.627   5.816   6.651  0.2428 -0.0872 -0.3596
  111OSM    H8S11413   0.552   5.897   6.656  1.0286  0.5834  1.2563
  111OSM    H8T11414   0.573   5.719   6.650 -1.9005  1.0426 -0.2185
  111OSM    C9S11415   0.704   5.828   6.526 -0.0291  0.0631 -0.0408
  111OSM    H9S11416   0.788   5.756   6.523 -1.7176 -2.0299 -1.7928
  111OSM    H9T11417   0.752   5.927   6.512 -1.0314  0.6456  0.5184
  111OSM   C10S11418   0.617   5.804   6.397  0.4622  0.7647  0.3648
  111OSM   H10S11419   0.530   5.872   6.394  0.5294  0.8415  0.0572
  111OSM   H10T11420   0.563   5.707   6.397  2.3559 -0.3658 -0.4382
  111OSM   C11S11421   0.683   5.806   6.255  0.0329  0.5729  0.1181
  111OSM   H11S11422   0.766   5.733   6.257 -0.0052  0.5445  0.9614
  111OSM   H11T11423   0.735   5.905   6.252  1.3377 -0.1043 -0.4414
  111OSM   C12S11424   0.588   5.786   6.144 -0.5882  0.8385  1.1134
  111OSM   H12S11425   0.493   5.844   6.143  0.6161  2.9046  0.1845
  111OSM   H12T11426   0.564   5.677   6.136  0.8668  0.5945 -0.4239
  111OSM   C13S11427   0.645   5.824   6.004  0.7529 -0.6468  0.0390
  111OSM   H13S11428   0.737   5.768   5.978  0.8747 -0.7412  0.6446
  111OSM   H13T11429   0.659   5.934   5.999  0.6110 -0.5170  1.8917
  111OSM   C14S11430   0.539   5.790   5.894  1.2930  0.0189  0.4544
  111OSM   H14S11431   0.443   5.838   5.924  1.6378  2.4695 -2.0033
  111OSM   H14T11432   0.521   5.680   5.885 -0.5436  0.3782 -1.0450
  111OSM   C15S11433   0.570   5.861   5.760  0.6539  0.5441  0.4294
  111OSM   H15S11434   0.562   5.971   5.772 -1.7866  0.3062  1.6074
  111OSM   H15T11435   0.481   5.835   5.699 -0.2796  1.5711  1.3084
  111OSM   C16S11436   0.693   5.813   5.680 -0.6941 -0.2425 -0.4586
  111OSM   H16S11437   0.699   5.703   5.669  0.5354 -0.1713 -0.6448
  111OSM   H16T11438   0.789   5.840   5.729  0.9080 -0.4499 -3.2590
  111OSM   C17S11439   0.713   5.879   5.540  0.2900 -0.3966 -0.1445
  111OSM   H17S11440   0.727   5.988   5.555  0.9833 -0.3296 -1.1757
  111OSM   H17T11441   0.618   5.869   5.485 -0.0928 -0.1195  0.4521
  111OSM   C18S11442   0.837   5.838   5.460 -1.5721  0.3014  0.6891
  111OSM   H18S11443   0.930   5.895   5.483  0.7214 -3.0674  0.4653
  111OSM   H18T11444   0.825   5.871   5.355  2.5960  0.6769  0.1538
  111OSM   H18U11445   0.873   5.734   5.472  3.1666  1.5955 -0.1259
  111OSM    C1F11446   1.065   6.102   7.041  0.0341 -0.2608 -0.1424
  111OSM     OF11447   1.162   6.033   7.033 -0.3824 -0.1390  0.1249
  111OSM    C2F11448   1.064   6.239   6.986  0.0456 -0.5507  0.0596
  111OSM    H2F11449   1.154   6.294   7.022  1.0431 -3.7057  2.8288
  111OSM    H2G11450   0.977   6.294   7.027  0.6704 -0.1836  0.9413
  111OSM    C3F11451   1.043   6.232   6.842  0.5073  0.0607 -0.4827
  111OSM    H3F11452   0.966   6.157   6.813 -1.8717  1.3571  2.0212
  111OSM    H3G11453   1.137   6.197   6.795  0.6566 -0.4659  0.1891
  111OSM    C4F11454   1.009   6.368   6.779  0.0669  0.0241 -0.7666
  111OSM    H4F11455   1.054   6.454   6.832  0.2331 -0.6226  0.1791
  111OSM    H4G11456   0.899   6.385   6.785  0.0778  0.7183 -2.1611
  111OSM    C5F11457   1.042   6.372   6.631 -0.5012 -0.7065  0.4488
  111OSM    H5F11458   0.992   6.289   6.577 -0.8998  0.7081 -1.4674
  111OSM    H5G11459   1.149   6.341   6.631 -1.0458 -2.9652 -2.1916
  111OSM    C6F11460   1.004   6.498   6.564 -0.2739  0.0207  0.1755
  111OSM    H6F11461   1.058   6.586   6.606  0.7426 -0.8201  0.6752
  111OSM    H6G11462   0.896   6.508   6.590 -0.0766  1.7868  0.4831
  111OSM    C7F11463   1.027   6.509   6.406  0.2804 -0.3863 -0.4774
  111OSM    H7F11464   1.005   6.407   6.368  3.0511 -1.2336 -0.0973
  111OSM    H7G11465   1.138   6.522   6.404  0.0869  1.6578  0.2456
  111OSM    C8F11466   0.946   6.610   6.340  0.3354 -0.1748  0.5411
  111OSM    H8F11467   0.965   6.715   6.371 -1.4996 -0.3616  2.5771
  111OSM    H8G11468   0.839   6.596   6.368  0.5014  0.5660  1.5751
  111OSM    C9F11469   0.956   6.604   6.190  0.0326 -0.1732 -1.0629
  111OSM    H9F11470   0.886   6.527   6.154 -0.7005 -1.2426  2.3366
  111OSM   C10F11471   1.024   6.678   6.105 -0.7583 -0.3859 -0.1996
  111OSM   H10F11472   1.016   6.649   6.000  0.8085  0.0722 -0.4656
  111OSM   C11F11473   1.118   6.785   6.145 -0.7697 -0.9151  0.0880
  111OSM   H11F11474   1.185   6.781   6.233 -0.6600  2.4726  0.2852
  111OSM   H11G11475   1.073   6.887   6.153 -0.5435 -0.9180  1.8031
  111OSM   C12F11476   1.216   6.783   6.032  0.8309  0.3690  0.5912
  111OSM   H12F11477   1.266   6.688   6.006 -2.8606 -1.3333 -1.0452
  111OSM   H12G11478   1.294   6.860   6.049  0.4566  1.4550 -2.1052
  111OSM   C13F11479   1.165   6.830   5.890 -0.2610 -0.4022  0.1890
  111OSM   H13F11480   1.092   6.913   5.903 -3.0144 -2.1617 -2.6864
  111OSM   H13G11481   1.113   6.755   5.827  0.4159  0.0652 -0.9558
  111OSM   C14F11482   1.274   6.868   5.793  0.1733  0.1140 -0.0138
  111OSM   H14F11483   1.337   6.777   5.792 -0.7603 -0.5423 -0.2976
  111OSM   H14G11484   1.327   6.963   5.816  0.1108  0.8687 -2.7002
  111OSM   C15F11485   1.234   6.893   5.647 -0.2582  0.0088  0.1687
  111OSM   H15F11486   1.157   6.972   5.651  0.7460  1.0596 -0.5051
  111OSM   H15G11487   1.188   6.796   5.616  0.8815 -0.8833  1.1604
  111OSM   C16F11488   1.354   6.938   5.554 -0.5307 -0.3751 -0.0364
  111OSM   H16F11489   1.414   6.851   5.518  3.3792  2.0883 -0.0517
  111OSM   H16G11490   1.422   7.007   5.609 -0.1322 -0.8820  0.1137
  111OSM   C17F11491   1.311   7.013   5.428 -0.6154 -0.4886 -0.1376
  111OSM   H17F11492   1.392   7.087   5.408 -0.0721 -0.8867  0.5096
  111OSM   H17G11493   1.222   7.075   5.451 -0.1684  0.6847 -1.4856
  111OSM   C18F11494   1.284   6.933   5.302  0.1165  0.7582  0.2017
  111OSM   H18F11495   1.196   6.865   5.309  1.0816 -0.5024  0.2786
  111OSM   H18G11496   1.376   6.880   5.273  0.5251  0.7348  1.4714
  111OSM   H18H11497   1.260   6.997   5.214 -2.0651  0.2528  0.3681
  112OSM      N11498   3.955   1.600   7.634 -0.1218  0.0207 -0.1705
  112OSM    C1511499   3.952   1.642   7.490 -0.7391 -0.8041  0.6837
  112OSM   H15A11500   3.938   1.749   7.487  0.0624 -0.7182 -1.1945
  112OSM   H15B11501   3.877   1.588   7.434 -1.1329 -0.7987  1.1985
  112OSM   H15C11502   4.051   1.639   7.447 -1.1136  1.1533 -0.4748
  112OSM    C1411503   3.820   1.606   7.696  0.0394  0.4669 -0.3135
  112OSM   H14A11504   3.746   1.555   7.636  0.8405 -1.6851  0.4294
  112OSM   H14B11505   3.786   1.708   7.700  1.4267  0.9415 -0.1550
  112OSM   H14C11506   3.827   1.571   7.798  1.3034 -0.5316 -0.7197
  112OSM    C1311507   3.998   1.453   7.645  0.1725  0.2524 -0.3574
  112OSM   H13A11508   4.093   1.420   7.605  0.5106  1.3361 -0.4577
  112OSM   H13B11509   3.931   1.386   7.592  1.0885 -0.4427 -0.6705
  112OSM   H13C11510   4.007   1.420   7.747 -0.0289 -0.7733 -0.6550
  112OSM    C1211511   4.048   1.692   7.710  0.4061 -0.1799 -0.4774
  112OSM   H12A11512   4.145   1.706   7.666  1.6323 -0.9486  1.8052
  112OSM   H12B11513   4.065   1.647   7.807  0.3186  0.0980 -0.3327
  112OSM    C1111514   4.001   1.833   7.737 -0.7066 -0.3843  0.0494
  112OSM   H11A11515   4.067   1.885   7.810  0.8816 -1.4998 -0.5632
  112OSM   H11B11516   3.898   1.826   7.778 -0.8305 -0.8507 -0.3382
  112OSM      P11517   4.063   2.043   7.586 -0.3034  0.3358  0.4972
  112OSM    O1311518   3.946   2.126   7.608  0.0519  0.2843 -0.4228
  112OSM    O1411519   4.181   2.068   7.673  0.3347  0.0829 -0.5364
  112OSM    O1111520   4.121   2.050   7.432  0.1440  0.2752  0.2909
  112OSM    O1211521   4.014   1.901   7.619 -0.2816 -0.3460  0.6062
  112OSM    C1S11522   4.021   2.043   7.323 -0.1908 -0.6729 -0.5164
  112OSM    H1S11523   3.999   2.148   7.297  0.5423 -0.8836 -2.0962
  112OSM    H1T11524   3.922   2.007   7.360  0.1654 -0.7676  0.3637
  112OSM     NF11525   3.970   1.982   7.083  0.3713 -0.0989 -0.3090
  112OSM    HNF11526   3.917   1.898   7.074 -0.7545  0.3898  1.3480
  112OSM    C2S11527   4.063   1.965   7.196 -0.7671 -0.3132  0.7192
  112OSM    H2S11528   4.157   2.021   7.177 -2.4810  3.5365  2.5008
  112OSM    C3S11529   4.101   1.819   7.219 -0.0223 -0.5948 -0.0919
  112OSM    H3S11530   4.012   1.762   7.255 -0.8636  0.7323  0.0385
  112OSM     O311531   4.192   1.803   7.320 -0.1278 -0.2222 -0.8546
  112OSM    HO311532   4.203   1.885   7.369  2.5622 -1.2723  0.4996
  112OSM    C4S11533   4.161   1.762   7.090 -0.7890 -0.6026 -0.0263
  112OSM    H4S11534   4.241   1.818   7.039  0.1088 -0.6232  1.3184
  112OSM    C5S11535   4.124   1.651   7.022 -0.7900 -0.1298  0.2218
  112OSM    H5S11536   4.042   1.584   7.051 -2.3420  2.0416  1.1676
  112OSM    C6S11537   4.208   1.606   6.902  0.3194  0.2845  0.4174
  112OSM    H6S11538   4.197   1.496   6.893 -1.5205  0.5809 -2.3750
  112OSM    H6T11539   4.317   1.610   6.927  0.7005  2.2973 -1.2690
  112OSM    C7S11540   4.198   1.674   6.769 -0.4507  0.0955  0.2360
  112OSM    H7S11541   4.193   1.782   6.795 -2.7754 -0.1790  1.1866
  112OSM    H7T11542   4.101   1.651   6.718  0.3137 -1.0903 -0.7433
  112OSM    C8S11543   4.313   1.649   6.673 -1.4033 -0.4834 -0.2122
  112OSM    H8S11544   4.323   1.542   6.642  2.3484 -0.1504 -0.6777
  112OSM    H8T11545   4.408   1.674   6.725 -1.7154  0.1879  0.0426
  112OSM    C9S11546   4.319   1.732   6.545 -0.0759 -0.3202  0.3226
  112OSM    H9S11547   4.400   1.809   6.539  1.6284 -2.0657 -0.0453
  112OSM    H9T11548   4.225   1.791   6.547  0.3893  0.4477 -0.1084
  112OSM   C10S11549   4.318   1.645   6.419  0.0115 -0.1454 -0.3551
  112OSM   H10S11550   4.243   1.566   6.444 -0.3421 -0.1309 -1.3304
  112OSM   H10T11551   4.413   1.588   6.412  0.6969  0.4194  2.7278
  112OSM   C11S11552   4.282   1.715   6.292  0.1912  0.8117  0.6049
  112OSM   H11S11553   4.361   1.782   6.254  2.7910 -2.3896 -0.1259
  112OSM   H11T11554   4.182   1.764   6.293 -1.8620 -2.8206 -1.8935
  112OSM   C12S11555   4.253   1.614   6.184  0.3311 -0.0339  0.3742
  112OSM   H12S11556   4.337   1.543   6.176  0.1843 -0.3440  1.4124
  112OSM   H12T11557   4.237   1.672   6.091 -0.4127  1.8421  1.5930
  112OSM   C13S11558   4.128   1.522   6.196 -0.6393 -0.7084  0.0955
  112OSM   H13S11559   4.039   1.585   6.215 -0.4896 -0.8116  1.2160
  112OSM   H13T11560   4.135   1.459   6.287 -0.8228 -0.3517  0.3617
  112OSM   C14S11561   4.088   1.433   6.074  0.3625 -0.6472 -0.5917
  112OSM   H14S11562   4.008   1.364   6.107  0.2669  0.7926  2.5605
  112OSM   H14T11563   4.168   1.361   6.045  1.2505  0.2138 -0.3319
  112OSM   C15S11564   4.037   1.514   5.951 -0.4234 -0.3652 -0.0883
  112OSM   H15S11565   4.119   1.583   5.918  0.4451  0.0333  2.6669
  112OSM   H15T11566   3.954   1.581   5.982  0.4227  0.1793  1.0747
  112OSM   C16S11567   3.982   1.420   5.849  0.1108  0.2489 -0.2992
  112OSM   H16S11568   3.902   1.350   5.883  1.8410 -1.3646  0.6725
  112OSM   H16T11569   4.066   1.358   5.810  2.1338  1.9315  1.1567
  112OSM   C17S11570   3.939   1.505   5.730 -0.0596 -0.2483 -0.1192
  112OSM   H17S11571   4.022   1.560   5.681 -0.1700  1.4043  1.4508
  112OSM   H17T11572   3.870   1.577   5.778 -0.1981 -1.2447  1.2643
  112OSM   C18S11573   3.851   1.436   5.627  0.6004 -0.2857 -0.3063
  112OSM   H18S11574   3.818   1.513   5.553  0.9272  0.1870  0.0316
  112OSM   H18T11575   3.754   1.409   5.674  0.3516  2.0904  0.6799
  112OSM   H18U11576   3.907   1.354   5.578  1.4420 -0.7027  1.3029
  112OSM    C1F11577   3.927   2.102   7.043 -0.3066  0.2071  0.1979
  112OSM     OF11578   3.967   2.208   7.084 -0.7945  0.3553  0.3545
  112OSM    C2F11579   3.804   2.095   6.957  1.1735 -0.3568  0.1461
  112OSM    H2F11580   3.715   2.099   7.024  0.1428 -1.3687 -1.1058
  112OSM    H2G11581   3.794   2.001   6.899 -3.0650 -0.6725  1.0886
  112OSM    C3F11582   3.787   2.212   6.854 -0.4910 -1.1568  0.0435
  112OSM    H3F11583   3.876   2.224   6.788  0.1481 -0.1823  1.0466
  112OSM    H3G11584   3.796   2.306   6.912  1.4910 -2.7691  2.5609
  112OSM    C4F11585   3.647   2.231   6.782 -0.6399  0.9511 -0.1186
  112OSM    H4F11586   3.640   2.333   6.738 -0.9373  1.1458  0.3681
  112OSM    H4G11587   3.580   2.229   6.871  1.2325 -0.3359  1.3544
  112OSM    C5F11588   3.633   2.126   6.673  0.4821  0.2842 -0.2037
  112OSM    H5F11589   3.629   2.025   6.718  0.7750  1.4115  2.5402
  112OSM    H5G11590   3.714   2.128   6.597  2.3724  3.2948  1.6782
  112OSM    C6F11591   3.495   2.147   6.605  0.3173  0.8783 -0.2930
  112OSM    H6F11592   3.504   2.195   6.505  1.0513  0.5951 -0.3699
  112OSM    H6G11593   3.433   2.219   6.663 -0.8163  0.9437 -1.5363
  112OSM    C7F11594   3.417   2.013   6.574 -0.2265 -0.2684 -0.4428
  112OSM    H7F11595   3.392   1.955   6.665 -0.8288  0.5858 -0.0540
  112OSM    H7G11596   3.469   1.945   6.503 -0.7892 -0.1302 -0.9985
  112OSM    C8F11597   3.277   2.042   6.511  0.0087  0.3966  0.4665
  112OSM    H8F11598   3.304   2.082   6.411  0.0172 -0.6104  0.0545
  112OSM    H8G11599   3.226   2.122   6.569  0.0114  1.2932 -0.7186
  112OSM    C9F11600   3.192   1.918   6.502 -0.0554  0.2390  0.2292
  112OSM    H9F11601   3.146   1.894   6.599  0.7184  0.6647  0.7177
  112OSM   C10F11602   3.176   1.846   6.391  0.5196 -0.3465 -0.3322
  112OSM   H10F11603   3.117   1.754   6.399  1.8396 -1.2416 -0.5232
  112OSM   C11F11604   3.219   1.863   6.250  0.0571 -0.3687 -0.0905
  112OSM   H11F11605   3.293   1.784   6.224 -0.3983 -0.5277 -0.9479
  112OSM   H11G11606   3.272   1.959   6.238  0.7368 -0.3143  2.6129
  112OSM   C12F11607   3.097   1.882   6.151 -0.1551  0.0789  0.5766
  112OSM   H12F11608   3.032   1.792   6.154  0.4061 -0.3700 -0.2428
  112OSM   H12G11609   3.136   1.884   6.047 -0.7031 -1.1743  0.3365
  112OSM   C13F11610   3.025   2.013   6.179  0.1355  0.2646  0.9145
  112OSM   H13F11611   3.104   2.090   6.196  0.3984  0.7874 -2.0153
  112OSM   H13G11612   2.970   2.026   6.274  0.0548  0.3824  0.8524
  112OSM   C14F11613   2.944   2.059   6.062  0.3283  0.8956  0.2610
  112OSM   H14F11614   2.999   2.087   5.970  0.1269 -0.3877 -0.2575
  112OSM   H14G11615   2.893   2.157   6.076 -1.6478  0.0904 -1.0209
  112OSM   C15F11616   2.823   1.968   6.018  0.8509 -0.0464  0.5339
  112OSM   H15F11617   2.754   1.956   6.104 -1.0545  2.4793 -0.4965
  112OSM   H15G11618   2.860   1.868   5.987 -0.5539 -0.0208 -1.4115
  112OSM   C16F11619   2.750   2.032   5.900 -0.5317  0.0687 -0.0097
  112OSM   H16F11620   2.833   2.039   5.826 -1.0687 -3.7795 -1.2054
  112OSM   H16G11621   2.727   2.134   5.937  1.5237  0.9189 -0.9069
  112OSM   C17F11622   2.627   1.958   5.845 -0.4258  0.2330 -0.6927
  112OSM   H17F11623   2.551   1.959   5.925  1.4672  0.6357  1.2013
  112OSM   H17G11624   2.656   1.853   5.820 -0.6944  0.1380 -0.5998
  112OSM   C18F11625   2.577   2.029   5.717  0.4787 -0.2667  0.1070
  112OSM   H18F11626   2.638   2.001   5.629  3.1031  2.4221  0.8929
  112OSM   H18G11627   2.594   2.139   5.727 -0.9921 -0.0428  0.4322
  112OSM   H18H11628   2.468   2.016   5.700  0.6594 -0.5371 -0.9040
  113OSM      N11629   0.732   3.347   8.191 -0.6316 -0.6644  0.0014
  113OSM    C1511630   0.853   3.266   8.151 -0.2537  0.0718  0.3333
  113OSM   H15A11631   0.829   3.178   8.094 -0.9201 -1.1804  2.4250
  113OSM   H15B11632   0.899   3.218   8.236 -2.1457 -1.0632  0.7792
  113OSM   H15C11633   0.913   3.340   8.099  0.3046 -0.3673  0.3467
  113OSM    C1411634   0.619   3.262   8.229 -0.5102  0.3673 -0.1580
  113OSM   H14A11635   0.658   3.199   8.307  0.1433  0.8064 -0.1203
  113OSM   H14B11636   0.583   3.195   8.152  0.9393 -0.5759 -0.0494
  113OSM   H14C11637   0.533   3.321   8.259 -2.2102 -0.7855 -2.4426
  113OSM    C1311638   0.775   3.426   8.312  0.4964 -0.2566 -0.9491
  113OSM   H13A11639   0.856   3.491   8.282  1.6293 -0.0596  2.1389
  113OSM   H13B11640   0.807   3.351   8.383  1.3599 -0.4672 -1.5421
  113OSM   H13C11641   0.691   3.480   8.352  2.5767  0.6488  2.7108
  113OSM    C1211642   0.704   3.442   8.077  0.1749 -0.3782  0.7305
  113OSM   H12A11643   0.789   3.506   8.053 -2.1390  3.3278  1.5915
  113OSM   H12B11644   0.626   3.511   8.104  0.3336 -0.3983  1.2494
  113OSM    C1111645   0.676   3.380   7.932 -0.1453 -0.3084 -0.2914
  113OSM   H11A11646   0.771   3.348   7.886  0.7480  1.3453  0.3152
  113OSM   H11B11647   0.641   3.469   7.875  2.7191  0.9888 -0.1948
  113OSM      P11648   0.437   3.280   7.906 -0.1387 -0.1124  0.2336
  113OSM    O1311649   0.373   3.156   7.951 -0.0174  0.0783 -0.1148
  113OSM    O1411650   0.381   3.397   7.971 -0.4105 -0.1388 -0.2291
  113OSM    O1111651   0.428   3.289   7.747 -0.0606  0.1064  0.0589
  113OSM    O1211652   0.591   3.265   7.939  0.2995 -0.4988  0.0229
  113OSM    C1S11653   0.502   3.200   7.653 -0.3423 -0.1094 -0.3717
  113OSM    H1S11654   0.497   3.093   7.683 -1.8380  0.5467  2.0242
  113OSM    H1T11655   0.611   3.216   7.651 -0.2198 -0.9248 -0.6536
  113OSM     NF11656   0.487   3.109   7.417  0.4427  0.2395 -0.5699
  113OSM    HNF11657   0.558   3.119   7.348  0.0602 -1.5638 -1.2816
  113OSM    C2S11658   0.451   3.217   7.505 -0.2590 -0.2398 -0.5240
  113OSM    H2S11659   0.340   3.217   7.511 -0.2504  0.6416 -0.2892
  113OSM    C3S11660   0.475   3.363   7.449 -0.1305  0.1886  0.3850
  113OSM    H3S11661   0.584   3.384   7.446 -0.5106  2.3464 -0.1976
  113OSM     O311662   0.438   3.467   7.528  0.6286 -0.1012  0.1492
  113OSM    HO311663   0.425   3.430   7.615  3.8162  0.2830  0.8991
  113OSM    C4S11664   0.412   3.392   7.317 -0.6259  0.1663 -0.1545
  113OSM    H4S11665   0.302   3.387   7.314 -0.5883 -0.1428 -1.5165
  113OSM    C5S11666   0.468   3.422   7.200 -0.0961 -0.4657  0.9426
  113OSM    H5S11667   0.577   3.430   7.196 -0.0967 -0.5538  0.7193
  113OSM    C6S11668   0.390   3.442   7.077  0.2172  0.1101  0.5898
  113OSM    H6S11669   0.410   3.544   7.039  2.5630  0.1849  1.8339
  113OSM    H6T11670   0.282   3.441   7.101  0.1792  3.2743  0.9724
  113OSM    C7S11671   0.446   3.343   6.972 -0.4718  0.2541 -0.7773
  113OSM    H7S11672   0.446   3.238   7.010 -0.5580  0.3153 -0.6047
  113OSM    H7T11673   0.551   3.365   6.945  0.7196 -1.9763  1.5976
  113OSM    C8S11674   0.363   3.332   6.841 -0.6174  0.5474  0.6424
  113OSM    H8S11675   0.359   3.437   6.803  2.0610  0.0376 -1.2732
  113OSM    H8T11676   0.256   3.305   6.855 -1.0125  1.1651 -1.0135
  113OSM    C9S11677   0.421   3.231   6.739  0.6114 -0.8985 -0.4365
  113OSM    H9S11678   0.402   3.132   6.785 -1.5677 -0.0952  0.5176
  113OSM    H9T11679   0.531   3.250   6.736  0.6779 -0.6922  1.7951
  113OSM   C10S11680   0.354   3.241   6.598 -0.0094  0.2897 -1.0922
  113OSM   H10S11681   0.368   3.348   6.572  2.4225  0.7136  1.4473
  113OSM   H10T11682   0.247   3.216   6.610 -0.5319  2.7796  0.2375
  113OSM   C11S11683   0.429   3.168   6.478 -1.1473 -0.5254 -0.1844
  113OSM   H11S11684   0.450   3.060   6.496  1.1363 -0.2709 -0.9327
  113OSM   H11T11685   0.527   3.219   6.468 -0.0200 -2.8633 -2.5015
  113OSM   C12S11686   0.351   3.171   6.344 -0.2740 -0.1549 -0.6706
  113OSM   H12S11687   0.300   3.268   6.327 -1.0413 -0.3021  0.6713
  113OSM   H12T11688   0.270   3.098   6.364  0.8789 -1.3930 -0.3597
  113OSM   C13S11689   0.427   3.135   6.214  0.5797  0.3224 -0.0003
  113OSM   H13S11690   0.454   3.028   6.200  1.4671  0.3629  1.2721
  113OSM   H13T11691   0.519   3.192   6.192  0.6353 -0.6540 -2.5953
  113OSM   C14S11692   0.342   3.181   6.090  0.2053  0.7390 -0.0582
  113OSM   H14S11693   0.320   3.290   6.088 -2.7076  0.2304 -0.8431
  113OSM   H14T11694   0.237   3.147   6.101  0.4410 -0.1658 -0.5399
  113OSM   C15S11695   0.396   3.129   5.952 -0.4287 -0.4019 -0.1778
  113OSM   H15S11696   0.314   3.070   5.905 -1.4014  0.8479 -0.1138
  113OSM   H15T11697   0.479   3.058   5.975 -0.4156  0.2816  2.0910
  113OSM   C16S11698   0.441   3.240   5.867  0.2441 -0.3605  0.9044
  113OSM   H16S11699   0.504   3.309   5.928  1.6865 -2.8787  2.4114
  113OSM   H16T11700   0.344   3.287   5.841  0.5221  0.4835  1.3433
  113OSM   C17S11701   0.516   3.187   5.746  0.5215 -0.2797  0.1350
  113OSM   H17S11702   0.619   3.160   5.778  1.0683 -2.7245 -3.1217
  113OSM   H17T11703   0.524   3.273   5.675 -0.3984 -1.1639 -1.0705
  113OSM   C18S11704   0.461   3.067   5.671  0.5634 -0.5620 -0.0848
  113OSM   H18S11705   0.451   2.979   5.738  0.0260 -0.3400  0.1243
  113OSM   H18T11706   0.534   3.039   5.591 -2.1571 -4.0638 -1.6135
  113OSM   H18U11707   0.365   3.100   5.625  0.3854 -1.0111 -0.0373
  113OSM    C1F11708   0.442   2.980   7.437  0.5066 -0.4030 -1.1390
  113OSM     OF11709   0.370   2.948   7.535  0.2658  0.9207 -0.4652
  113OSM    C2F11710   0.480   2.884   7.321 -0.1360  0.6879 -0.5087
  113OSM    H2F11711   0.590   2.887   7.303 -0.2557  0.1295 -1.3948
  113OSM    H2G11712   0.439   2.930   7.228  1.6405 -0.5487 -1.9989
  113OSM    C3F11713   0.430   2.736   7.329 -0.6731 -0.0485  0.5842
  113OSM    H3F11714   0.323   2.737   7.299 -0.5195  1.9770 -0.0325
  113OSM    H3G11715   0.448   2.699   7.432 -2.0063 -3.0782 -0.1529
  113OSM    C4F11716   0.510   2.649   7.230 -0.1263  0.0052 -0.2296
  113OSM    H4F11717   0.476   2.544   7.243  0.1630 -0.5839 -3.3349
  113OSM    H4G11718   0.620   2.656   7.247 -0.1009 -1.8687  0.6587
  113OSM    C5F11719   0.499   2.687   7.085 -0.0980  0.3809 -0.4136
  113OSM    H5F11720   0.491   2.793   7.054  1.9068  0.5427 -0.5441
  113OSM    H5G11721   0.401   2.643   7.057  0.5692 -1.1127 -0.4921
  113OSM    C6F11722   0.591   2.600   6.985  0.2099 -1.1726 -0.6331
  113OSM    H6F11723   0.636   2.523   7.051  1.2341  0.6921  0.9826
  113OSM    H6G11724   0.682   2.661   6.966  0.1690 -1.0228 -0.3614
  113OSM    C7F11725   0.511   2.545   6.862 -0.2670 -0.2159  0.4348
  113OSM    H7F11726   0.465   2.620   6.795  1.1752  0.4747  0.1714
  113OSM    H7G11727   0.420   2.493   6.898 -1.6213  2.1624  0.6271
  113OSM    C8F11728   0.600   2.439   6.778 -0.4460  0.5306 -0.3557
  113OSM    H8F11729   0.636   2.363   6.851  1.5347  1.5040 -0.2604
  113OSM    H8G11730   0.685   2.496   6.735 -1.1017 -0.8645 -3.8089
  113OSM    C9F11731   0.511   2.379   6.669  0.2466  0.5034 -0.9256
  113OSM    H9F11732   0.454   2.291   6.701  1.5637 -0.8272 -2.0386
  113OSM   C10F11733   0.495   2.418   6.536 -0.0556 -0.1310 -0.0335
  113OSM   H10F11734   0.420   2.369   6.472  0.4776 -0.9926  0.0013
  113OSM   C11F11735   0.551   2.539   6.461 -0.3284  0.0802 -0.1829
  113OSM   H11F11736   0.645   2.516   6.406  0.8349  0.6107  1.4710
  113OSM   H11G11737   0.582   2.617   6.534  1.6818  0.0837 -0.9575
  113OSM   C12F11738   0.456   2.599   6.359  0.6381 -0.8810 -0.1215
  113OSM   H12F11739   0.480   2.707   6.348 -0.8998 -0.4047  0.7809
  113OSM   H12G11740   0.350   2.592   6.392  0.5695 -1.2659 -0.4221
  113OSM   C13F11741   0.463   2.568   6.211 -0.0909 -0.2303  0.6678
  113OSM   H13F11742   0.432   2.462   6.200  0.5513 -0.4055  0.5323
  113OSM   H13G11743   0.565   2.592   6.175 -0.5030 -0.3902 -0.6482
  113OSM   C14F11744   0.362   2.640   6.119  0.2702  0.2363  0.4415
  113OSM   H14F11745   0.383   2.749   6.127  0.8112  0.1099  0.7441
  113OSM   H14G11746   0.262   2.621   6.165 -0.1104  0.7972 -0.1253
  113OSM   C15F11747   0.356   2.591   5.972  0.2055 -0.7369  0.5754
  113OSM   H15F11748   0.328   2.483   5.963 -2.8401  0.0001  0.0110
  113OSM   H15G11749   0.457   2.587   5.926  1.0802  0.6061  2.2657
  113OSM   C16F11750   0.255   2.679   5.894  0.7405 -0.3268  0.7027
  113OSM   H16F11751   0.300   2.780   5.893  0.5723 -0.2514  0.7320
  113OSM   H16G11752   0.155   2.678   5.941 -0.5980  0.6603 -1.9202
  113OSM   C17F11753   0.251   2.631   5.739  0.2548 -0.4244 -0.6159
  113OSM   H17F11754   0.244   2.521   5.752 -1.6669 -0.2981 -0.3244
  113OSM   H17G11755   0.352   2.650   5.698  0.6334  0.5540  0.6889
  113OSM   C18F11756   0.147   2.689   5.651  0.6824 -0.3083  0.1303
  113OSM   H18F11757   0.170   2.795   5.629  0.0950  0.1759  1.6931
  113OSM   H18G11758   0.051   2.701   5.707  0.3607 -1.0558 -0.2515
  113OSM   H18H11759   0.130   2.634   5.556 -1.5176 -0.2083  0.4005
  114OSM      N11760   6.060   2.361   7.845  0.4955  0.0856  0.2184
  114OSM    C1511761   6.033   2.224   7.887  0.2432 -0.2943  0.5878
  114OSM   H15A11762   6.113   2.159   7.854  0.0361  0.4820 -1.5785
  114OSM   H15B11763   5.943   2.196   7.834 -1.3802  2.7468  1.4757
  114OSM   H15C11764   6.021   2.202   7.992  1.1536  1.4830  1.1036
  114OSM    C1411765   6.044   2.376   7.696  0.1339 -0.2411 -0.3955
  114OSM   H14A11766   6.052   2.478   7.663 -2.0176  0.1936  0.2750
  114OSM   H14B11767   5.949   2.333   7.667  0.6040 -1.9871  0.4792
  114OSM   H14C11768   6.122   2.314   7.654 -0.3383  0.2719 -2.1017
  114OSM    C1311769   5.959   2.444   7.902  0.1425 -0.3291  0.3981
  114OSM   H13A11770   5.862   2.414   7.865  0.6182 -0.1654 -1.0552
  114OSM   H13B11771   5.969   2.545   7.866 -1.4308 -0.0720  0.6232
  114OSM   H13C11772   5.964   2.454   8.010 -1.7630  0.5685  0.4387
  114OSM    C1211773   6.196   2.409   7.895 -0.9882  0.5168  0.3262
  114OSM   H12A11774   6.204   2.403   8.003  1.4013 -2.2465  0.1301
  114OSM   H12B11775   6.208   2.508   7.854 -2.4221  0.2125 -0.9334
  114OSM    C1111776   6.320   2.317   7.855  0.3905  0.1304 -0.8005
  114OSM   H11A11777   6.413   2.375   7.875 -0.1111  0.5042  0.6009
  114OSM   H11B11778   6.321   2.291   7.747 -1.3028  1.8145 -1.2870
  114OSM      P11779   6.453   2.106   7.925 -0.5536  0.6468 -0.1897
  114OSM    O1311780   6.561   2.181   7.987 -0.3109  0.1958  0.0467
  114OSM    O1411781   6.423   1.970   7.979 -0.7231 -0.1020  0.3629
  114OSM    O1111782   6.464   2.084   7.769 -0.8825 -0.1961  0.6566
  114OSM    O1211783   6.317   2.197   7.928 -0.4971  0.1937 -0.2449
  114OSM    C1S11784   6.358   2.011   7.703  0.2227 -0.3591  0.5351
  114OSM    H1S11785   6.261   2.062   7.721  2.7813  4.6488  2.0436
  114OSM    H1T11786   6.356   1.904   7.733 -1.2240 -0.2887  0.7862
  114OSM     NF11787   6.270   1.961   7.479 -0.4942 -0.1920 -0.2223
  114OSM    HNF11788   6.289   1.878   7.428 -0.4991 -0.9042  0.8935
  114OSM    C2S11789   6.379   2.017   7.549  0.7217 -0.1760  0.6001
  114OSM    H2S11790   6.385   2.125   7.524  0.2682 -0.3922 -0.5148
  114OSM    C3S11791   6.520   1.958   7.503 -0.9929 -0.4867  0.3577
  114OSM    H3S11792   6.526   1.848   7.518 -0.0658 -0.4178  0.5510
  114OSM     O311793   6.634   2.004   7.582  0.4938  0.7492  0.3610
  114OSM    HO311794   6.594   2.051   7.655  3.4242  2.6589  0.9213
  114OSM    C4S11795   6.538   1.982   7.350 -0.1558  0.2023 -0.0935
  114OSM    H4S11796   6.521   1.897   7.282  3.1330 -0.1149 -0.6790
  114OSM    C5S11797   6.583   2.091   7.288 -0.2418 -0.2607 -1.3532
  114OSM    H5S11798   6.614   2.180   7.345  3.7637 -2.7343  0.8285
  114OSM    C6S11799   6.606   2.112   7.140  0.3764 -0.1015  0.4509
  114OSM    H6S11800   6.705   2.162   7.135  0.3629 -0.2195 -1.4052
  114OSM    H6T11801   6.537   2.190   7.100  0.4234 -1.2405 -2.0010
  114OSM    C7S11802   6.618   1.988   7.044  0.3907  0.3604  0.3446
  114OSM    H7S11803   6.516   1.946   7.036  0.4385  0.5185 -1.3826
  114OSM    H7T11804   6.683   1.905   7.081  0.8035  0.4153 -0.2475
  114OSM    C8S11805   6.653   2.030   6.900  0.6087  0.5916 -0.1570
  114OSM    H8S11806   6.760   2.059   6.888  1.3677 -0.6855  2.6778
  114OSM    H8T11807   6.590   2.118   6.872 -0.1858  1.5358  3.9114
  114OSM    C9S11808   6.618   1.918   6.799 -0.6592  0.0377 -0.5138
  114OSM    H9S11809   6.512   1.887   6.800 -0.5351 -0.4231 -0.9531
  114OSM    H9T11810   6.682   1.830   6.823  1.1796  1.5816  0.5945
  114OSM   C10S11811   6.666   1.956   6.657 -0.2246 -0.1388  0.0772
  114OSM   H10S11812   6.767   2.003   6.658 -0.7624  1.1431 -1.6165
  114OSM   H10T11813   6.596   2.031   6.616  0.4744  0.2924 -0.3473
  114OSM   C11S11814   6.674   1.832   6.563 -0.0005  0.2692  0.3311
  114OSM   H11S11815   6.573   1.786   6.558 -0.9474  2.0111  2.3092
  114OSM   H11T11816   6.745   1.759   6.606  1.0940  0.4949 -1.0045
  114OSM   C12S11817   6.716   1.873   6.418 -0.3048 -0.0475 -0.1639
  114OSM   H12S11818   6.734   1.777   6.365  0.5782  1.0781 -1.9718
  114OSM   H12T11819   6.813   1.923   6.441 -0.2888  0.6995 -1.7765
  114OSM   C13S11820   6.618   1.960   6.339  0.3166  0.6763 -0.9337
  114OSM   H13S11821   6.589   2.048   6.400  0.5623 -0.1817  0.4757
  114OSM   H13T11822   6.532   1.899   6.304  0.9453 -1.4729  0.9738
  114OSM   C14S11823   6.679   1.992   6.209 -0.1784  0.5111  0.3289
  114OSM   H14S11824   6.779   2.036   6.226 -0.5847  0.8463  1.9658
  114OSM   H14T11825   6.623   2.059   6.139 -2.2557 -1.5250 -0.0738
  114OSM   C15S11826   6.711   1.879   6.112  0.4653  0.4643  0.1078
  114OSM   H15S11827   6.621   1.819   6.086  1.5046 -0.9445 -0.4246
  114OSM   H15T11828   6.795   1.814   6.146  2.7803  2.4227 -1.5513
  114OSM   C16S11829   6.747   1.924   5.962  0.2535  0.3777  0.9913
  114OSM   H16S11830   6.844   1.978   5.963  0.9881 -0.8899  2.4708
  114OSM   H16T11831   6.672   1.988   5.911 -0.5392  0.3646  2.0958
  114OSM   C17S11832   6.774   1.794   5.882 -0.4154 -0.6065  0.2236
  114OSM   H17S11833   6.675   1.744   5.870  0.0309 -1.5160  0.2850
  114OSM   H17T11834   6.837   1.733   5.950  0.1705 -1.4069 -1.0192
  114OSM   C18S11835   6.851   1.816   5.749  0.8046  0.7563  0.5173
  114OSM   H18S11836   6.955   1.850   5.768  1.3373 -0.3537 -0.3125
  114OSM   H18T11837   6.801   1.887   5.680  1.2885  0.6631  0.0598
  114OSM   H18U11838   6.861   1.717   5.699 -1.9075  0.3170  0.7049
  114OSM    C1F11839   6.155   2.025   7.461  0.6897 -0.2594  0.1235
  114OSM     OF11840   6.137   2.143   7.498 -0.2542 -0.2545  1.0066
  114OSM    C2F11841   6.042   1.952   7.400  0.6456  0.5175  0.6572
  114OSM    H2F11842   5.960   1.917   7.466 -2.1400 -0.3932 -2.9391
  114OSM    H2G11843   6.078   1.855   7.359  0.5024 -0.0043  1.7449
  114OSM    C3F11844   5.976   2.027   7.283  0.1817 -0.2757  0.2262
  114OSM    H3F11845   5.950   2.131   7.314 -0.6826 -0.0235 -1.2772
  114OSM    H3G11846   5.877   1.980   7.264  0.1746  0.5579 -2.1447
  114OSM    C4F11847   6.057   2.044   7.156  0.2941  0.7028 -0.4262
  114OSM    H4F11848   6.085   1.944   7.115  1.6965  1.3688 -1.1695
  114OSM    H4G11849   6.153   2.095   7.176 -1.0193  2.3439  2.1955
  114OSM    C5F11850   5.981   2.123   7.051  0.1348 -0.1664  0.1915
  114OSM    H5F11851   6.000   2.229   7.077 -2.3562  0.7550 -1.3792
  114OSM    H5G11852   5.871   2.125   7.040 -0.0737 -0.5886  1.8901
  114OSM    C6F11853   6.031   2.117   6.911 -0.5846 -0.1642  0.2240
  114OSM    H6F11854   5.976   2.181   6.839 -0.9204 -0.9424 -0.2215
  114OSM    H6G11855   6.019   2.010   6.885 -0.8398 -0.3795  1.1973
  114OSM    C7F11856   6.183   2.147   6.902 -1.0953  0.8691  0.1083
  114OSM    H7F11857   6.244   2.071   6.956 -1.2917  1.9508  1.9105
  114OSM    H7G11858   6.208   2.251   6.930  1.5236 -0.2177  2.2838
  114OSM    C8F11859   6.234   2.138   6.754  0.6492  0.7410 -0.4356
  114OSM    H8F11860   6.223   2.030   6.728  2.7345  0.0991  1.0781
  114OSM    H8G11861   6.343   2.162   6.756  1.2463 -1.6733  0.3884
  114OSM    C9F11862   6.179   2.242   6.664  0.1873  0.2172 -0.0956
  114OSM    H9F11863   6.175   2.345   6.704 -1.9885 -0.4254  1.5464
  114OSM   C10F11864   6.116   2.226   6.546 -0.8033 -0.1717  0.1271
  114OSM   H10F11865   6.078   2.314   6.493 -0.2375 -0.6260 -1.0756
  114OSM   C11F11866   6.104   2.098   6.465 -0.3466 -0.1502 -0.6089
  114OSM   H11F11867   6.009   2.046   6.490  0.6061 -1.6994 -0.0814
  114OSM   H11G11868   6.187   2.030   6.494  0.2022  0.1774 -1.3504
  114OSM   C12F11869   6.113   2.124   6.317  0.3328 -1.0114  0.3553
  114OSM   H12F11870   6.050   2.211   6.292  1.1700 -0.6375 -0.5529
  114OSM   H12G11871   6.054   2.039   6.275 -3.0506  0.9367  0.8339
  114OSM   C13F11872   6.257   2.130   6.266  0.7198  0.3509 -0.3910
  114OSM   H13F11873   6.305   2.030   6.275 -0.7275 -0.5349 -2.0071
  114OSM   H13G11874   6.300   2.217   6.321 -2.0362  1.0092  0.8758
  114OSM   C14F11875   6.270   2.158   6.115 -0.4554 -0.4904 -0.4728
  114OSM   H14F11876   6.346   2.239   6.109  1.1820 -1.9086  0.1316
  114OSM   H14G11877   6.174   2.203   6.080 -0.1254  1.5436  1.0532
  114OSM   C15F11878   6.316   2.041   6.025 -0.0033 -0.3277  0.2270
  114OSM   H15F11879   6.258   1.951   6.053  1.0944 -1.0066  0.3572
  114OSM   H15G11880   6.420   2.006   6.038  1.4008  2.9702 -0.9385
  114OSM   C16F11881   6.279   2.081   5.881 -0.5950 -0.1638 -0.5430
  114OSM   H16F11882   6.285   2.191   5.867 -1.3369 -0.1346 -0.7032
  114OSM   H16G11883   6.172   2.064   5.853  0.0121 -1.4987 -2.2617
  114OSM   C17F11884   6.365   2.012   5.775 -0.2823 -0.1450  0.4040
  114OSM   H17F11885   6.363   1.904   5.802  1.1450  0.1009  1.6169
  114OSM   H17G11886   6.469   2.049   5.792  0.0581  0.1424 -1.9253
  114OSM   C18F11887   6.342   2.043   5.626 -0.0497 -0.3496  0.8255
  114OSM   H18F11888   6.257   1.990   5.578 -0.2940  1.0664 -0.3905
  114OSM   H18G11889   6.433   2.019   5.568 -1.0112  2.9447 -2.4360
  114OSM   H18H11890   6.330   2.153   5.616  1.1580 -0.2114  0.7502
  115OSM      N11891   5.093   5.210   7.578 -0.4035  0.2226  0.1993
  115OSM    C1511892   4.982   5.261   7.668 -0.0505  0.2154 -0.2323
  115OSM   H15A11893   4.885   5.256   7.621 -0.0461 -0.9911 -0.1216
  115OSM   H15B11894   4.999   5.367   7.686  1.2008 -0.1166  0.6239
  115OSM   H15C11895   4.972   5.204   7.759 -2.0542  1.5093  0.4346
  115OSM    C1411896   5.060   5.077   7.546  0.1031  0.8893 -0.3394
  115OSM   H14A11897   4.966   5.074   7.493 -1.2172 -0.6611  1.9386
  115OSM   H14B11898   5.051   5.019   7.636 -2.1761  0.8225 -0.5466
  115OSM   H14C11899   5.142   5.031   7.493  0.4099 -0.1368  0.9885
  115OSM    C1311900   5.099   5.289   7.453 -0.4772 -0.3911  0.2017
  115OSM   H13A11901   5.187   5.254   7.401 -0.7474 -0.7761 -0.0010
  115OSM   H13B11902   5.099   5.395   7.473  1.5897 -0.4762  0.8328
  115OSM   H13C11903   5.012   5.289   7.389 -0.7616  2.6133  0.4744
  115OSM    C1211904   5.228   5.217   7.656  0.6002 -0.6324  0.2099
  115OSM   H12A11905   5.209   5.167   7.750 -1.8689  0.0429  0.1272
  115OSM   H12B11906   5.245   5.322   7.675 -1.7992 -0.0938 -0.3279
  115OSM    C1111907   5.348   5.155   7.582  0.4000 -0.4425  0.0582
  115OSM   H11A11908   5.438   5.175   7.645  0.8464  0.3476 -0.8004
  115OSM   H11B11909   5.373   5.202   7.484 -0.3283 -0.9632 -0.3931
  115OSM      P11910   5.379   4.930   7.437 -0.1485  0.0950  0.1840
  115OSM    O1311911   5.523   4.933   7.427 -0.0432 -0.2686  0.3218
  115OSM    O1411912   5.322   4.795   7.453 -0.1080 -0.6213  0.0652
  115OSM    O1111913   5.308   5.019   7.320  0.0575 -0.6753  0.3416
  115OSM    O1211914   5.334   5.015   7.566 -0.0186  0.1850  0.7928
  115OSM    C1S11915   5.385   5.095   7.225  0.6962  0.0119 -0.6907
  115OSM    H1S11916   5.494   5.072   7.223  1.0373  1.5534 -1.3229
  115OSM    H1T11917   5.378   5.205   7.239  0.9994  0.0419 -0.7606
  115OSM     NF11918   5.463   5.099   7.007  0.1387 -0.3354 -0.0675
  115OSM    HNF11919   5.466   5.198   7.013 -0.9778 -0.3698  3.1930
  115OSM    C2S11920   5.349   5.054   7.079 -0.6745 -0.1531  1.1841
  115OSM    H2S11921   5.340   4.944   7.071 -0.7355 -0.1944  1.7844
  115OSM    C3S11922   5.213   5.124   7.046  0.0454 -0.3232 -0.2150
  115OSM    H3S11923   5.209   5.228   7.083 -1.0135 -0.2767 -0.4351
  115OSM     O311924   5.103   5.062   7.110  0.1891 -0.0099 -0.0775
  115OSM    HO311925   5.152   5.011   7.175 -1.4372 -1.4595  0.0940
  115OSM    C4S11926   5.169   5.132   6.899 -0.3138  0.2883  0.6747
  115OSM    H4S11927   5.207   5.223   6.851 -2.7941  1.0604  0.0360
  115OSM    C5S11928   5.089   5.065   6.815  0.9838  0.9488 -0.4244
  115OSM    H5S11929   5.024   4.986   6.855  2.4090  0.0820  0.2796
  115OSM    C6S11930   5.071   5.104   6.670  0.5869  0.0971 -0.4346
  115OSM    H6S11931   5.092   5.019   6.602  0.3535 -1.9963  1.9770
  115OSM    H6T11932   5.144   5.180   6.634  0.2431 -0.7435 -3.1508
  115OSM    C7S11933   4.932   5.167   6.639 -0.0820 -0.3505 -0.2425
  115OSM    H7S11934   4.894   5.241   6.712 -1.4612 -1.3010  0.0360
  115OSM    H7T11935   4.855   5.088   6.625 -0.4617 -0.8102  3.4946
  115OSM    C8S11936   4.933   5.242   6.508 -0.3572 -0.2919  0.1051
  115OSM    H8S11937   4.955   5.178   6.420  1.7378  0.4578  0.0122
  115OSM    H8T11938   5.005   5.327   6.500 -1.0183  0.1035 -2.2433
  115OSM    C9S11939   4.794   5.309   6.479  0.7972 -0.1866 -0.4150
  115OSM    H9S11940   4.769   5.354   6.577 -0.9629 -0.6868 -0.6117
  115OSM    H9T11941   4.718   5.231   6.457  1.5100 -1.4897  1.4994
  115OSM   C10S11942   4.788   5.419   6.368 -0.2453  0.0472  0.3711
  115OSM   H10S11943   4.864   5.493   6.399  1.1461 -0.5565 -1.4368
  115OSM   H10T11944   4.679   5.438   6.359 -0.3997 -0.9498 -0.0210
  115OSM   C11S11945   4.813   5.364   6.225 -0.0425 -0.5600 -0.1919
  115OSM   H11S11946   4.724   5.307   6.190  0.6970 -2.0128  0.2105
  115OSM   H11T11947   4.900   5.295   6.222  1.7722  1.6111 -2.9258
  115OSM   C12S11948   4.835   5.483   6.127 -0.2799 -0.7020 -0.5543
  115OSM   H12S11949   4.932   5.530   6.154  1.1587 -2.5047 -2.3237
  115OSM   H12T11950   4.772   5.573   6.146  3.1840  1.7650  0.1696
  115OSM   C13S11951   4.837   5.447   5.978  0.7575  0.1030 -0.3774
  115OSM   H13S11952   4.757   5.384   5.933  1.7574 -2.2440  0.9523
  115OSM   H13T11953   4.928   5.386   5.958 -0.4612 -1.2499 -2.0318
  115OSM   C14S11954   4.842   5.584   5.898 -0.2444 -0.3773  0.3031
  115OSM   H14S11955   4.919   5.649   5.944 -0.1631 -1.2801  1.4683
  115OSM   H14T11956   4.750   5.639   5.927  0.0153  0.7215 -0.8851
  115OSM   C15S11957   4.876   5.573   5.749 -0.3046  0.4372 -1.0154
  115OSM   H15S11958   4.793   5.521   5.698  0.7985 -2.1530 -0.2928
  115OSM   H15T11959   4.961   5.502   5.748 -1.9273 -1.7788  2.1496
  115OSM   C16S11960   4.907   5.700   5.680 -0.1693 -0.2017 -0.2813
  115OSM   H16S11961   5.004   5.731   5.723  0.5156  0.3920 -2.1467
  115OSM   H16T11962   4.831   5.777   5.706  1.0329  0.8723  0.1742
  115OSM   C17S11963   4.944   5.687   5.533 -0.2009  1.1215  0.2632
  115OSM   H17S11964   4.869   5.621   5.485  0.5876  0.7342 -0.4699
  115OSM   H17T11965   5.046   5.643   5.537 -1.1529 -1.1585  1.4373
  115OSM   C18S11966   4.942   5.814   5.446  0.4282 -0.6858 -0.0547
  115OSM   H18S11967   4.961   5.799   5.338 -1.6116  0.2473 -0.5931
  115OSM   H18T11968   5.006   5.901   5.473 -1.3600  0.4464  0.7556
  115OSM   H18U11969   4.842   5.860   5.456  0.9137 -0.0127  2.3061
  115OSM    C1F11970   5.579   5.029   6.986  0.2797 -0.2291 -0.9564
  115OSM     OF11971   5.601   4.918   7.031  0.4921 -0.1854 -0.0686
  115OSM    C2F11972   5.684   5.099   6.904  0.1545  0.2558  0.2731
  115OSM    H2F11973   5.774   5.120   6.965  0.7503  4.9650 -1.8443
  115OSM    H2G11974   5.640   5.196   6.876 -1.3529 -0.5677 -0.3255
  115OSM    C3F11975   5.731   5.020   6.779 -0.2459 -0.4197  0.3125
  115OSM    H3F11976   5.766   4.919   6.810 -0.5733 -1.2015 -1.6968
  115OSM    H3G11977   5.817   5.077   6.738  0.9130 -1.0835  1.7365
  115OSM    C4F11978   5.629   5.008   6.668  0.1323  0.1509 -0.0508
  115OSM    H4F11979   5.586   5.111   6.674  2.3309  1.0234  2.4477
  115OSM    H4G11980   5.548   4.943   6.708 -0.3358  1.7548  1.7673
  115OSM    C5F11981   5.701   4.964   6.538  0.1790 -0.1707 -0.3315
  115OSM    H5F11982   5.767   4.880   6.566  0.0478 -0.6428 -1.3826
  115OSM    H5G11983   5.770   5.043   6.503  0.8881  0.4038  2.2090
  115OSM    C6F11984   5.609   4.935   6.422  0.1120  0.0962 -0.5581
  115OSM    H6F11985   5.540   5.021   6.404 -0.9289 -0.4437  0.6884
  115OSM    H6G11986   5.546   4.847   6.447  0.1725  0.5512  1.3591
  115OSM    C7F11987   5.690   4.922   6.294  0.1087 -0.2994 -0.6039
  115OSM    H7F11988   5.731   4.823   6.265 -0.9379 -0.1965 -2.6962
  115OSM    H7G11989   5.765   5.004   6.294 -1.8317  1.6983 -3.8115
  115OSM    C8F11990   5.604   4.952   6.170  0.6522  0.0372  0.0800
  115OSM    H8F11991   5.668   4.955   6.080 -1.9356  0.7725 -1.8585
  115OSM    H8G11992   5.552   5.050   6.174  0.8496  0.0990  1.8668
  115OSM    C9F11993   5.490   4.847   6.146 -0.2017  1.3892 -0.3884
  115OSM    H9F11994   5.418   4.830   6.227 -0.5544  1.4410 -0.6900
  115OSM   C10F11995   5.464   4.783   6.029  0.0722  0.7361  0.2529
  115OSM   H10F11996   5.377   4.718   6.018  1.3432 -0.9699 -0.1943
  115OSM   C11F11997   5.532   4.812   5.899  0.6151 -0.0450 -0.1255
  115OSM   H11F11998   5.543   4.922   5.904 -3.3774  0.4675  1.1705
  115OSM   H11G11999   5.469   4.787   5.811 -2.0015  0.6005  1.4637
  115OSM   C12F12000   5.668   4.745   5.883  0.4274 -0.5869 -0.4038
  115OSM   H12F12001   5.660   4.636   5.865 -2.3581 -0.3608 -1.1381
  115OSM   H12G12002   5.733   4.778   5.966  0.7619  0.4123 -1.0389
  115OSM   C13F12003   5.748   4.792   5.766  0.1990  0.4467  0.3285
  115OSM   H13F12004   5.849   4.745   5.769 -0.4715 -1.0541  0.5849
  115OSM   H13G12005   5.755   4.902   5.761 -1.2251  0.5096 -2.3291
  115OSM   C14F12006   5.682   4.771   5.629  0.4528  0.3255  0.1907
  115OSM   H14F12007   5.594   4.839   5.631 -1.5628 -2.1198 -0.5466
  115OSM   H14G12008   5.636   4.671   5.618  0.5457  0.4182 -1.1268
  115OSM   C15F12009   5.771   4.784   5.507  0.3537 -0.5649 -0.3282
  115OSM   H15F12010   5.872   4.737   5.516  0.7419  0.2378 -0.3336
  115OSM   H15G12011   5.785   4.895   5.505 -1.5074 -0.1971  2.4375
  115OSM   C16F12012   5.718   4.744   5.370  0.3902  0.2376  0.9818
  115OSM   H16F12013   5.722   4.633   5.361 -0.3535  0.1608  1.5201
  115OSM   H16G12014   5.787   4.790   5.296  0.4887  0.8862  1.4671
  115OSM   C17F12015   5.580   4.802   5.336  0.0383 -0.1306  0.3378
  115OSM   H17F12016   5.575   4.912   5.348 -3.0464 -0.0396 -0.8004
  115OSM   H17G12017   5.512   4.749   5.406 -0.3132 -2.4736 -1.6123
  115OSM   C18F12018   5.540   4.775   5.192  0.3856  0.5357  0.4150
  115OSM   H18F12019   5.600   4.829   5.115 -1.1877  1.9089  0.0989
  115OSM   H18G12020   5.436   4.810   5.176 -0.3434 -1.5479  0.2925
  115OSM   H18H12021   5.535   4.671   5.156 -0.3086  0.7112 -0.0057
  116OSM      N12022   1.438   1.221   7.893  1.1300 -0.5129  0.5783
  116OSM    C1512023   1.327   1.195   7.984  0.7994  0.5085  0.2651
  116OSM   H15A12024   1.329   1.091   8.013  3.2201  0.1619 -0.8231
  116OSM   H15B12025   1.234   1.228   7.941  0.6039 -0.7136 -0.2925
  116OSM   H15C12026   1.328   1.246   8.079  1.4623  1.3324 -0.1746
  116OSM    C1412027   1.563   1.211   7.972  0.8986  0.7438 -0.5506
  116OSM   H14A12028   1.649   1.210   7.906  0.7793  0.3139 -0.6996
  116OSM   H14B12029   1.560   1.129   8.042 -1.8609  2.4249  1.5184
  116OSM   H14C12030   1.556   1.294   8.041  0.1638  0.0964  0.1739
  116OSM    C1312031   1.440   1.113   7.787  1.0224  0.4824 -0.4837
  116OSM   H13A12032   1.509   1.144   7.710  1.2941  0.9285 -0.0709
  116OSM   H13B12033   1.340   1.112   7.746  0.8023  0.9067  0.0207
  116OSM   H13C12034   1.465   1.016   7.825  1.4575  0.1081 -1.6941
  116OSM    C1212035   1.416   1.362   7.827  0.1165  0.6780  0.1402
  116OSM   H12A12036   1.324   1.381   7.773  0.6565 -1.4110 -1.6309
  116OSM   H12B12037   1.485   1.373   7.745  0.7059 -0.0875  0.5228
  116OSM    C1112038   1.426   1.482   7.925  0.0478 -0.7408  0.1578
  116OSM   H11A12039   1.351   1.475   8.006  0.3027 -1.4281  0.3385
  116OSM   H11B12040   1.393   1.577   7.877 -2.2390 -1.4079  0.2723
  116OSM      P12041   1.677   1.550   7.880  0.2838  0.2639  0.1461
  116OSM    O1312042   1.784   1.613   7.957  0.3345  0.2952 -0.3824
  116OSM    O1412043   1.724   1.435   7.797  0.1571 -0.1814 -0.9308
  116OSM    O1112044   1.602   1.656   7.780  0.6456  0.0748 -0.3423
  116OSM    O1212045   1.560   1.494   7.972 -0.0018 -0.1343 -0.4464
  116OSM    C1S12046   1.612   1.635   7.641  1.3088 -0.1662 -0.1145
  116OSM    H1S12047   1.583   1.535   7.602 -0.0928  0.0123  0.4023
  116OSM    H1T12048   1.712   1.646   7.595  0.7866  0.2325 -1.1978
  116OSM     NF12049   1.554   1.731   7.420 -0.1917 -0.2889  0.6138
  116OSM    HNF12050   1.606   1.804   7.376 -1.3929 -0.6596 -1.5948
  116OSM    C2S12051   1.533   1.748   7.565  0.1203  0.4549  0.3166
  116OSM    H2S12052   1.424   1.735   7.584  0.0043  1.3029  0.2713
  116OSM    C3S12053   1.574   1.882   7.625 -0.0790 -0.5953  0.1542
  116OSM    H3S12054   1.681   1.899   7.598 -0.1925  0.0209  0.0813
  116OSM     O312055   1.564   1.897   7.764  0.0300 -0.0205 -0.1117
  116OSM    HO312056   1.556   1.807   7.798  2.5005 -0.3466 -0.2677
  116OSM    C4S12057   1.499   2.002   7.562 -0.0657 -0.4168 -0.2396
  116OSM    H4S12058   1.543   2.046   7.472 -1.4991  0.1032 -0.7239
  116OSM    C5S12059   1.381   2.055   7.598 -0.4422 -0.1102  0.0413
  116OSM    H5S12060   1.324   1.999   7.673  1.5125  0.8223  2.3699
  116OSM    C6S12061   1.312   2.178   7.547 -0.7888  0.4075  0.1766
  116OSM    H6S12062   1.339   2.254   7.623 -0.8503 -0.1476  0.7605
  116OSM    H6T12063   1.202   2.172   7.543 -0.7772 -0.1082 -4.1393
  116OSM    C7S12064   1.352   2.209   7.405 -0.2681 -0.5030 -0.3463
  116OSM    H7S12065   1.462   2.224   7.400 -0.4895  0.9268 -1.8766
  116OSM    H7T12066   1.298   2.302   7.378 -2.4909 -1.0730  1.7690
  116OSM    C8S12067   1.314   2.107   7.295 -0.6679  0.3094 -0.4892
  116OSM    H8S12068   1.205   2.084   7.291 -1.4853  3.7170 -0.4780
  116OSM    H8T12069   1.371   2.015   7.320 -0.5478  0.8382  1.3361
  116OSM    C9S12070   1.356   2.148   7.157  0.6996  0.1974 -0.7698
  116OSM    H9S12071   1.452   2.098   7.131  0.6250  0.3171 -1.2837
  116OSM    H9T12072   1.375   2.258   7.153  0.4595  0.2754  0.0195
  116OSM   C10S12073   1.253   2.102   7.053  0.8594 -0.5229  0.0238
  116OSM   H10S12074   1.154   2.147   7.076  1.1516 -0.2177  0.7105
  116OSM   H10T12075   1.232   1.993   7.052 -0.8978 -0.2161 -0.7862
  116OSM   C11S12076   1.276   2.150   6.906  0.1424  0.6382 -0.0746
  116OSM   H11S12077   1.376   2.105   6.884 -0.4414 -0.7686  0.0426
  116OSM   H11T12078   1.282   2.261   6.915  2.5615  0.8390 -2.5844
  116OSM   C12S12079   1.169   2.115   6.810 -0.7187 -0.1035 -0.4709
  116OSM   H12S12080   1.071   2.146   6.853 -0.3442 -0.4853  0.7103
  116OSM   H12T12081   1.163   2.004   6.810  0.7086 -0.2450  1.6722
  116OSM   C13S12082   1.183   2.168   6.669 -0.0879 -0.5679 -0.0869
  116OSM   H13S12083   1.179   2.279   6.668 -0.2303 -0.5369  1.3583
  116OSM   H13T12084   1.092   2.132   6.616 -0.0824 -1.0872  0.2491
  116OSM   C14S12085   1.324   2.138   6.614 -0.2301 -0.0911 -0.4521
  116OSM   H14S12086   1.342   2.030   6.630  0.2360 -0.4121 -2.6906
  116OSM   H14T12087   1.399   2.196   6.673  1.1260 -1.3585 -0.8549
  116OSM   C15S12088   1.336   2.167   6.462  0.3298 -0.6194  0.0642
  116OSM   H15S12089   1.432   2.123   6.429  1.5766  2.4322 -0.7792
  116OSM   H15T12090   1.339   2.277   6.445 -3.3670 -0.4612 -0.2885
  116OSM   C16S12091   1.222   2.118   6.378 -0.2399 -0.5314 -0.3691
  116OSM   H16S12092   1.130   2.166   6.417 -1.5073 -2.6779 -0.5971
  116OSM   H16T12093   1.205   2.011   6.401 -0.8601  0.0544  2.2414
  116OSM   C17S12094   1.246   2.146   6.232  0.6150  0.6740  0.8022
  116OSM   H17S12095   1.157   2.110   6.176  1.0873 -1.5741  1.3757
  116OSM   H17T12096   1.330   2.078   6.207 -0.5754 -0.4562 -0.2659
  116OSM   C18S12097   1.289   2.290   6.190  0.0332  0.0587  0.2161
  116OSM   H18S12098   1.277   2.302   6.080 -1.7922 -3.5742 -0.1299
  116OSM   H18T12099   1.393   2.303   6.228 -0.1284  0.6428  0.4751
  116OSM   H18U12100   1.227   2.371   6.235  1.4330  2.0508 -1.2189
  116OSM    C1F12101   1.507   1.634   7.338  0.0166  0.1457 -0.5902
  116OSM     OF12102   1.433   1.543   7.380  0.0539  0.0036 -0.0863
  116OSM    C2F12103   1.556   1.649   7.197 -0.0467 -0.1773 -0.0101
  116OSM    H2F12104   1.640   1.579   7.177  1.2264  2.1203 -3.7533
  116OSM    H2G12105   1.585   1.755   7.180  1.4663 -0.3057  1.5029
  116OSM    C3F12106   1.453   1.607   7.098  0.1980  0.0133  0.2269
  116OSM    H3F12107   1.369   1.679   7.102 -1.3024 -1.6376 -0.0884
  116OSM    H3G12108   1.412   1.506   7.123  0.1887 -0.3511 -1.2085
  116OSM    C4F12109   1.500   1.582   6.956  0.2354  0.4191 -0.3832
  116OSM    H4F12110   1.416   1.544   6.893  0.5429  0.5593 -0.8807
  116OSM    H4G12111   1.575   1.501   6.964 -1.5435 -1.1452  1.8661
  116OSM    C5F12112   1.553   1.710   6.898 -0.8728  0.8383  0.1855
  116OSM    H5F12113   1.655   1.704   6.940 -1.4847  0.0991  1.6324
  116OSM    H5G12114   1.507   1.800   6.944 -0.4079  0.5294  1.3003
  116OSM    C6F12115   1.574   1.710   6.741 -0.1579 -0.4309 -0.1420
  116OSM    H6F12116   1.617   1.615   6.702 -1.0404 -1.1118  0.5075
  116OSM    H6G12117   1.647   1.793   6.728  0.1762 -0.6612  0.2731
  116OSM    C7F12118   1.442   1.745   6.675 -0.3148 -0.6158 -0.4425
  116OSM    H7F12119   1.407   1.844   6.711  1.3217  0.3333 -1.3288
  116OSM    H7G12120   1.366   1.665   6.691 -0.9309  0.3515  1.8721
  116OSM    C8F12121   1.461   1.775   6.521  0.3261  0.5182 -0.8548
  116OSM    H8F12122   1.543   1.851   6.520  0.3670  0.7515  2.9949
  116OSM    H8G12123   1.372   1.827   6.479 -2.1636 -0.6259  2.5351
  116OSM    C9F12124   1.482   1.648   6.447  0.2347 -0.5572 -0.3920
  116OSM    H9F12125   1.522   1.574   6.517  0.1409  0.0820  0.3503
  116OSM   C10F12126   1.454   1.613   6.320  0.7794 -0.1177 -0.1614
  116OSM   H10F12127   1.485   1.516   6.277  0.4482  0.2499 -1.2443
  116OSM   C11F12128   1.398   1.716   6.223 -0.0535 -0.7026 -0.7143
  116OSM   H11F12129   1.427   1.818   6.258  0.5484 -1.2270  0.3891
  116OSM   H11G12130   1.288   1.717   6.213 -0.1274  1.2022 -0.1572
  116OSM   C12F12131   1.448   1.706   6.075 -0.3629  0.1290 -0.2565
  116OSM   H12F12132   1.431   1.605   6.033 -0.0267  0.4522 -1.1987
  116OSM   H12G12133   1.559   1.700   6.088 -0.4666 -2.1780 -0.0097
  116OSM   C13F12134   1.404   1.819   5.989 -0.4735  0.2910  0.0024
  116OSM   H13F12135   1.426   1.920   6.029  0.3639 -0.5055  1.6828
  116OSM   H13G12136   1.293   1.809   5.986 -0.4788  0.3273  0.0886
  116OSM   C14F12137   1.464   1.798   5.847  0.3300 -0.0692 -0.0587
  116OSM   H14F12138   1.460   1.695   5.807  0.4337  0.3228 -1.1241
  116OSM   H14G12139   1.570   1.825   5.865  0.1204  1.1425 -0.5424
  116OSM   C15F12140   1.408   1.899   5.747  0.3271 -0.0913 -0.4161
  116OSM   H15F12141   1.476   1.885   5.660  1.1790  1.1045  0.0313
  116OSM   H15G12142   1.428   2.006   5.772 -1.8370  0.3481 -0.3979
  116OSM   C16F12143   1.261   1.874   5.712 -0.1226  0.5651  0.0731
  116OSM   H16F12144   1.192   1.868   5.799 -1.5632 -1.7572 -1.1327
  116OSM   H16G12145   1.264   1.771   5.673  0.4847  0.1283  1.2185
  116OSM   C17F12146   1.213   1.981   5.608 -0.4057 -0.0379  0.3307
  116OSM   H17F12147   1.299   1.980   5.539 -2.4482 -2.6470 -2.4388
  116OSM   H17G12148   1.205   2.080   5.658 -0.0144  0.2543 -0.1773
  116OSM   C18F12149   1.086   1.944   5.528  0.0531 -0.4472  0.1370
  116OSM   H18F12150   1.109   1.869   5.450  0.9244  1.0100 -1.0433
  116OSM   H18G12151   1.058   2.034   5.470 -4.0095 -0.7274  1.3547
  116OSM   H18H12152   0.997   1.911   5.586  0.9612 -0.3956  1.6098
  117OSM      N12153   6.681   4.600   7.291 -0.3875  0.5214  0.2527
  117OSM    C1512154   6.733   4.477   7.354  0.2863 -0.4503 -0.0414
  117OSM   H15A12155   6.684   4.387   7.321  2.1605 -0.9963 -1.5152
  117OSM   H15B12156   6.718   4.478   7.461 -1.2537 -0.4110 -0.2398
  117OSM   H15C12157   6.836   4.462   7.323  0.0609  0.7827 -1.4827
  117OSM    C1412158   6.668   4.583   7.143  0.3889  0.8890  0.7878
  117OSM   H14A12159   6.760   4.535   7.112  0.7226  0.2390  2.6858
  117OSM   H14B12160   6.663   4.679   7.095 -1.3752 -0.0197 -0.9956
  117OSM   H14C12161   6.585   4.521   7.111  0.2564  0.7578  1.3779
  117OSM    C1312162   6.543   4.619   7.342  0.0159  0.0027 -0.2982
  117OSM   H13A12163   6.546   4.611   7.450 -0.0911  1.3994 -0.1657
  117OSM   H13B12164   6.466   4.548   7.316 -0.1507  0.4986 -1.1976
  117OSM   H13C12165   6.511   4.721   7.326  3.0552  1.2661  0.7811
  117OSM    C1212166   6.779   4.712   7.325 -0.6967  0.1569  0.4934
  117OSM   H12A12167   6.763   4.731   7.430  1.1877 -0.1899  0.8911
  117OSM   H12B12168   6.753   4.801   7.271 -1.6316 -0.0056  0.6663
  117OSM    C1112169   6.934   4.680   7.326 -0.6318  0.3185  0.2410
  117OSM   H11A12170   6.956   4.600   7.400  0.0314  0.2074 -0.0673
  117OSM   H11B12171   6.996   4.768   7.356 -0.5122  1.8446 -3.8771
  117OSM      P12172   7.013   4.712   7.078  0.1676 -0.0994 -0.3704
  117OSM    O1312173   7.154   4.748   7.090  0.3587  0.1945  0.1938
  117OSM    O1412174   6.964   4.641   6.963 -0.0132  0.2366  0.3553
  117OSM    O1112175   6.916   4.834   7.112 -0.0523 -0.2717 -0.3529
  117OSM    O1212176   6.981   4.626   7.211 -0.4794 -0.3265  0.5291
  117OSM    C1S12177   6.967   4.963   7.111 -0.0412 -0.1515  0.4230
  117OSM    H1S12178   7.072   4.974   7.146  0.5632  1.2022 -1.6556
  117OSM    H1T12179   6.896   5.027   7.169 -1.0179 -0.6796 -0.1592
  117OSM     NF12180   7.039   5.149   6.962  0.1278  0.1275 -1.2725
  117OSM    HNF12181   6.984   5.232   6.968 -0.4141 -0.2728 -0.4232
  117OSM    C2S12182   6.960   5.027   6.970  0.4840 -0.3263  0.1501
  117OSM    H2S12183   6.997   4.951   6.897 -0.1080  1.0288 -1.6433
  117OSM    C3S12184   6.805   5.043   6.929 -0.3961  0.1540  0.8091
  117OSM    H3S12185   6.766   5.130   6.986  0.1120  0.4991  0.6401
  117OSM     O312186   6.727   4.928   6.958 -0.2508  0.0652 -0.5325
  117OSM    HO312187   6.782   4.869   7.010 -0.0570 -1.5100 -2.3899
  117OSM    C4S12188   6.800   5.078   6.778 -0.1348  0.0218  0.0100
  117OSM    H4S12189   6.799   5.188   6.775 -1.5492  0.2556  3.8368
  117OSM    C5S12190   6.784   4.999   6.664  0.7243 -0.0070  0.5684
  117OSM    H5S12191   6.778   4.890   6.677 -0.7851 -0.1089 -0.6012
  117OSM    C6S12192   6.766   5.057   6.525 -0.0899 -0.6928 -0.2205
  117OSM    H6S12193   6.666   5.076   6.482  0.2659 -1.0892 -1.2626
  117OSM    H6T12194   6.820   4.998   6.448 -0.6780 -0.3207 -0.9305
  117OSM    C7S12195   6.818   5.204   6.515  0.1415  0.2258 -0.0552
  117OSM    H7S12196   6.919   5.206   6.561  0.1687  0.6744 -0.1360
  117OSM    H7T12197   6.755   5.269   6.579  0.0421  0.8124 -0.7456
  117OSM    C8S12198   6.843   5.263   6.379  0.7257 -0.5902  0.0552
  117OSM    H8S12199   6.898   5.200   6.305  0.5493  1.0582 -1.5483
  117OSM    H8T12200   6.895   5.361   6.386 -1.1864  0.3806  1.6628
  117OSM    C9S12201   6.715   5.295   6.296  0.5988 -0.7606 -0.4147
  117OSM    H9S12202   6.668   5.386   6.340  0.9366  0.6834 -2.8397
  117OSM    H9T12203   6.648   5.208   6.315  1.1811 -0.6390  2.9082
  117OSM   C10S12204   6.719   5.343   6.147  0.2149 -0.2750 -1.1481
  117OSM   H10S12205   6.769   5.442   6.136  1.9859 -0.9991 -0.0863
  117OSM   H10T12206   6.611   5.353   6.122  0.0848  3.4843  0.2992
  117OSM   C11S12207   6.781   5.238   6.051  0.4773 -0.9464 -0.2146
  117OSM   H11S12208   6.747   5.141   6.093 -0.3948 -0.3066  0.5979
  117OSM   H11T12209   6.892   5.249   6.054  0.4816 -0.4843 -1.3483
  117OSM   C12S12210   6.718   5.238   5.910  0.5986  0.1003 -0.3797
  117OSM   H12S12211   6.772   5.321   5.860  1.5327  1.6602  2.9185
  117OSM   H12T12212   6.608   5.253   5.905  0.5007 -1.0354 -3.6245
  117OSM   C13S12213   6.751   5.099   5.844 -0.3834 -0.8439  0.1797
  117OSM   H13S12214   6.731   5.014   5.912 -1.7017  0.0755  0.9889
  117OSM   H13T12215   6.851   5.093   5.795 -2.0707 -0.5940 -3.6913
  117OSM   C14S12216   6.660   5.069   5.723  0.1381 -0.2928 -0.3598
  117OSM   H14S12217   6.648   5.164   5.667  2.3729 -0.9563 -2.0798
  117OSM   H14T12218   6.562   5.049   5.772  0.9278  0.2320  1.5435
  117OSM   C15S12219   6.709   4.955   5.638 -0.0682 -0.0208 -0.1214
  117OSM   H15S12220   6.755   4.866   5.686  0.6763 -0.2944 -1.3149
  117OSM   H15T12221   6.787   4.996   5.569 -0.1357 -0.2287 -0.3181
  117OSM   C16S12222   6.590   4.914   5.552 -0.8561 -0.5195  0.1309
  117OSM   H16S12223   6.573   4.989   5.472  1.2042 -1.3905 -1.2187
  117OSM   H16T12224   6.495   4.901   5.607 -1.1664  1.3120  0.0789
  117OSM   C17S12225   6.620   4.777   5.479  0.3536  0.5333 -0.0461
  117OSM   H17S12226   6.665   4.708   5.554 -0.9719  0.1421  0.4215
  117OSM   H17T12227   6.701   4.804   5.407  0.5552 -0.2303 -0.1181
  117OSM   C18S12228   6.511   4.702   5.403  0.0600  0.3732 -0.4332
  117OSM   H18S12229   6.545   4.610   5.352 -2.3784 -0.7155 -0.2576
  117OSM   H18T12230   6.448   4.762   5.333 -0.1329 -0.9302 -1.4148
  117OSM   H18U12231   6.451   4.663   5.488  1.1604  1.1031  0.7208
  117OSM    C1F12232   7.166   5.160   6.975  0.0264  0.8796  0.5171
  117OSM     OF12233   7.235   5.060   6.992 -0.0790 -0.4317  0.4964
  117OSM    C2F12234   7.226   5.300   6.987 -0.0511  0.3018  0.2890
  117OSM    H2F12235   7.296   5.305   7.073 -1.1046  0.1831  1.1650
  117OSM    H2G12236   7.145   5.376   6.996  1.0149  2.1186 -3.3001
  117OSM    C3F12237   7.300   5.332   6.848  0.3213  0.1063  0.4686
  117OSM    H3F12238   7.381   5.256   6.835  2.3913  1.6866  3.0935
  117OSM    H3G12239   7.344   5.431   6.869 -0.1970  0.3001  0.6507
  117OSM    C4F12240   7.210   5.317   6.722 -0.5378 -0.5848  0.4641
  117OSM    H4F12241   7.114   5.373   6.732 -1.2055 -1.7920  1.0370
  117OSM    H4G12242   7.179   5.211   6.708  1.4809 -1.0059 -1.4188
  117OSM    C5F12243   7.286   5.364   6.597  0.2637  0.5078 -0.5344
  117OSM    H5F12244   7.375   5.299   6.586  0.9281  1.6115 -2.0284
  117OSM    H5G12245   7.343   5.458   6.610  0.3630  0.8464 -3.0080
  117OSM    C6F12246   7.200   5.350   6.469 -0.0436  0.3278 -0.4631
  117OSM    H6F12247   7.146   5.447   6.468  3.0644  2.1892  0.2027
  117OSM    H6G12248   7.131   5.263   6.478  2.8416 -1.9890  1.0123
  117OSM    C7F12249   7.284   5.332   6.344  0.2117 -0.2050 -0.8037
  117OSM    H7F12250   7.350   5.244   6.357 -0.2636 -0.6317 -1.2211
  117OSM    H7G12251   7.341   5.427   6.339  0.4947 -0.2440  1.1124
  117OSM    C8F12252   7.213   5.313   6.211 -0.8159 -0.1415  0.0312
  117OSM    H8F12253   7.163   5.214   6.215 -1.8729  0.2515 -2.0420
  117OSM    H8G12254   7.295   5.298   6.137  0.5802 -0.0398  1.5102
  117OSM    C9F12255   7.113   5.416   6.174 -0.0835  0.1725  0.0665
  117OSM    H9F12256   7.057   5.447   6.264  0.5686 -0.1713  0.6000
  117OSM   C10F12257   7.115   5.485   6.059  0.5580 -0.3825  0.0994
  117OSM   H10F12258   7.041   5.566   6.051  1.3002  0.7125  3.1069
  117OSM   C11F12259   7.191   5.447   5.939 -0.8872 -0.2097  0.0810
  117OSM   H11F12260   7.211   5.337   5.935 -1.2336 -0.2438 -1.1759
  117OSM   H11G12261   7.294   5.489   5.946 -1.0962  0.3397 -0.1201
  117OSM   C12F12262   7.145   5.498   5.799 -0.2867 -0.6089  0.2650
  117OSM   H12F12263   7.131   5.609   5.799  1.9326 -0.2834 -0.7443
  117OSM   H12G12264   7.050   5.454   5.763  1.0199 -0.6017 -3.6946
  117OSM   C13F12265   7.248   5.475   5.684  0.2402  0.4188 -0.1178
  117OSM   H13F12266   7.268   5.366   5.685  0.8814  0.5272 -0.5756
  117OSM   H13G12267   7.338   5.537   5.707  0.4867  0.1521 -0.3678
  117OSM   C14F12268   7.192   5.513   5.541 -0.2756 -0.5832  0.2601
  117OSM   H14F12269   7.275   5.515   5.467 -0.9993 -2.4659 -0.6466
  117OSM   H14G12270   7.148   5.615   5.534 -1.4049 -0.9781  1.2873
  117OSM   C15F12271   7.080   5.420   5.505  0.2159  0.4458 -0.4512
  117OSM   H15F12272   6.991   5.429   5.571 -0.1551 -0.9208 -0.7445
  117OSM   H15G12273   7.120   5.317   5.513 -3.3076 -1.0392 -0.1344
  117OSM   C16F12274   7.024   5.450   5.367 -1.1546  0.3837  0.0819
  117OSM   H16F12275   7.105   5.426   5.295  0.8113  1.0928  1.9467
  117OSM   H16G12276   7.000   5.558   5.355 -1.4974  0.2414 -0.5898
  117OSM   C17F12277   6.899   5.364   5.346 -0.2086 -0.4854  0.0392
  117OSM   H17F12278   6.863   5.372   5.241 -2.0425 -3.0062  0.4039
  117OSM   H17G12279   6.815   5.399   5.409  0.6111 -1.9209  2.0062
  117OSM   C18F12280   6.911   5.210   5.373  0.6430 -0.2636 -0.0550
  117OSM   H18F12281   6.988   5.162   5.309 -1.0001 -1.3389 -1.2943
  117OSM   H18G12282   6.812   5.165   5.351 -0.4773  1.0064  1.9986
  117OSM   H18H12283   6.930   5.207   5.483  1.1533 -1.2726 -0.1610
  118OSM      N12284   0.456   3.856   7.409  0.5585 -0.1087 -0.2329
  118OSM    C1512285   0.510   3.759   7.314 -0.6465 -0.4059 -0.4006
  118OSM   H15A12286   0.570   3.818   7.247 -0.5074  0.3080  0.3341
  118OSM   H15B12287   0.434   3.694   7.273 -1.0026 -1.6873  2.0771
  118OSM   H15C12288   0.570   3.691   7.373  3.5964  1.1500 -2.5571
  118OSM    C1412289   0.566   3.930   7.469 -0.5994 -0.4081  0.5875
  118OSM   H14A12290   0.627   3.984   7.398 -3.6295  1.1742 -1.0193
  118OSM   H14B12291   0.626   3.860   7.524 -0.4423  0.2181  1.2320
  118OSM   H14C12292   0.527   4.002   7.540  2.0011  1.9973 -0.2160
  118OSM    C1312293   0.390   3.961   7.325  0.1742  0.4194 -0.3511
  118OSM   H13A12294   0.335   4.028   7.390 -0.8489 -0.9577  0.2496
  118OSM   H13B12295   0.324   3.915   7.253  0.4935  1.4195 -1.3127
  118OSM   H13C12296   0.465   4.015   7.268  0.1529  2.9211  1.7820
  118OSM    C1212297   0.359   3.791   7.508  0.3841 -0.2468 -0.7122
  118OSM   H12A12298   0.324   3.868   7.576 -1.5066 -2.9779  1.6533
  118OSM   H12B12299   0.409   3.725   7.577 -0.0590  2.3650  2.3322
  118OSM    C1112300   0.233   3.723   7.450  0.0643  0.2127  0.1201
  118OSM   H11A12301   0.177   3.673   7.533  2.0809 -0.4493  1.1646
  118OSM   H11B12302   0.259   3.645   7.376 -2.9838 -0.8148 -0.0031
  118OSM      P12303   0.041   3.898   7.450  0.3617  0.0730  0.1300
  118OSM    O1312304  -0.075   3.809   7.471 -0.0350 -0.0485  0.2738
  118OSM    O1412305   0.099   3.961   7.571  0.3130  0.3608  0.2477
  118OSM    O1112306   0.005   4.011   7.349 -0.2483  0.6657  1.0472
  118OSM    O1212307   0.155   3.821   7.378 -0.1864 -0.0615  0.4453
  118OSM    C1S12308   0.065   4.047   7.225 -0.2808  0.2446  0.6048
  118OSM    H1S12309   0.144   3.976   7.194 -0.1346  1.7753 -3.1277
  118OSM    H1T12310   0.121   4.143   7.226  0.0595  0.0388  1.3664
  118OSM     NF12311   0.011   4.085   6.984  0.3963  0.2685 -0.3078
  118OSM    HNF12312   0.013   4.183   6.966  0.0518 -0.0344 -2.2238
  118OSM    C2S12313  -0.044   4.057   7.118  0.3708 -0.1687 -0.1142
  118OSM    H2S12314  -0.092   3.957   7.106 -0.5777  0.3856 -1.1350
  118OSM    C3S12315  -0.147   4.168   7.171 -0.5526 -0.4881 -0.4264
  118OSM    H3S12316  -0.097   4.268   7.170  0.4721 -0.9920 -0.3932
  118OSM     O312317  -0.199   4.159   7.308  0.0093  0.3295  0.0826
  118OSM    HO312318  -0.125   4.116   7.350 -1.5803 -1.7068  0.9423
  118OSM    C4S12319  -0.262   4.180   7.077  0.9956 -0.2407  0.5449
  118OSM    H4S12320  -0.238   4.239   6.987 -0.8937  0.5253  0.4995
  118OSM    C5S12321  -0.379   4.118   7.088  0.2299  0.1332  0.8230
  118OSM    H5S12322  -0.390   4.057   7.179  1.0054 -0.0563  0.7973
  118OSM    C6S12323  -0.494   4.110   6.990  0.4015  0.1948 -0.3265
  118OSM    H6S12324  -0.597   4.132   7.026  0.7291  1.1655  0.0624
  118OSM    H6T12325  -0.503   4.004   6.958 -2.8930 -0.1266  1.2660
  118OSM    C7S12326  -0.474   4.196   6.864 -0.0989 -0.0778 -0.2307
  118OSM    H7S12327  -0.385   4.173   6.802 -0.4831  1.1529 -1.2779
  118OSM    H7T12328  -0.474   4.303   6.895  0.4236 -0.4548  1.1242
  118OSM    C8S12329  -0.600   4.173   6.772 -0.1945  0.3493 -0.0041
  118OSM    H8S12330  -0.685   4.222   6.825  0.8310  1.2333  0.8713
  118OSM    H8T12331  -0.624   4.065   6.768 -2.7087  0.7103  2.0940
  118OSM    C9S12332  -0.585   4.247   6.636 -0.5789 -0.2275  0.1820
  118OSM    H9S12333  -0.496   4.199   6.590 -0.3346  0.6217 -0.2425
  118OSM    H9T12334  -0.558   4.349   6.669 -1.0479 -0.3069  0.8246
  118OSM   C10S12335  -0.710   4.241   6.548 -0.1741  0.5141 -0.3636
  118OSM   H10S12336  -0.779   4.307   6.605  0.7959  1.3974 -0.1671
  118OSM   H10T12337  -0.735   4.134   6.555  1.0372  0.1486 -1.3162
  118OSM   C11S12338  -0.696   4.292   6.407 -0.2402  0.4283  0.1593
  118OSM   H11S12339  -0.655   4.394   6.393 -1.9266  1.8373  4.0653
  118OSM   H11T12340  -0.801   4.318   6.383  0.0472  1.8147  0.3602
  118OSM   C12S12341  -0.617   4.198   6.313  0.1828 -0.3448  0.5600
  118OSM   H12S12342  -0.671   4.103   6.289 -1.0064  0.5882 -0.5999
  118OSM   H12T12343  -0.515   4.185   6.356  0.9508  0.7753 -0.8579
  118OSM   C13S12344  -0.590   4.275   6.177  0.6245  0.5591  0.1877
  118OSM   H13S12345  -0.503   4.233   6.123 -1.4580 -2.0918 -1.4426
  118OSM   H13T12346  -0.577   4.380   6.208 -0.7400  0.0908  2.6299
  118OSM   C14S12347  -0.702   4.241   6.080 -0.3046  0.1691  0.0599
  118OSM   H14S12348  -0.789   4.305   6.105 -0.8851 -0.6702  0.2108
  118OSM   H14T12349  -0.732   4.135   6.089 -1.5657  0.4226 -0.8587
  118OSM   C15S12350  -0.678   4.269   5.926  0.6078  0.3166 -0.2990
  118OSM   H15S12351  -0.771   4.238   5.875 -0.3496 -1.8467  2.4617
  118OSM   H15T12352  -0.598   4.199   5.893 -1.4195 -2.3082  0.0153
  118OSM   C16S12353  -0.660   4.414   5.903 -0.3944  0.5470  0.1799
  118OSM   H16S12354  -0.566   4.452   5.949 -0.1475 -0.6903  0.7450
  118OSM   H16T12355  -0.746   4.467   5.948 -0.8929  0.6157 -0.8325
  118OSM   C17S12356  -0.645   4.449   5.758 -0.2750 -0.0883 -0.6395
  118OSM   H17S12357  -0.555   4.393   5.723 -0.7586 -2.7131  1.8753
  118OSM   H17T12358  -0.624   4.558   5.754  4.3291 -0.7870 -1.0972
  118OSM   C18S12359  -0.774   4.422   5.681  0.1622 -0.3288 -0.3935
  118OSM   H18S12360  -0.777   4.468   5.580 -1.8555 -1.2381 -0.7988
  118OSM   H18T12361  -0.864   4.453   5.738  0.7299  0.1314  0.2611
  118OSM   H18U12362  -0.782   4.314   5.655  0.7862 -0.5518  0.3038
  118OSM    C1F12363   0.085   4.003   6.911 -0.2284  0.5836  0.3021
  118OSM     OF12364   0.122   3.894   6.957 -0.5149 -0.1786  0.1557
  118OSM    C2F12365   0.118   4.054   6.781  0.7843 -0.0135  0.0378
  118OSM    H2F12366   0.218   4.104   6.782  0.3228  0.9619 -0.9218
  118OSM    H2G12367   0.048   4.133   6.748  0.2644 -0.1979  0.6901
  118OSM    C3F12368   0.129   3.947   6.672  0.2072 -0.4472 -0.2993
  118OSM    H3F12369   0.033   3.892   6.667  0.3132 -0.7884  1.1708
  118OSM    H3G12370   0.198   3.864   6.696 -1.0208 -1.1102  1.0788
  118OSM    C4F12371   0.150   4.000   6.527  0.3030  0.2315 -0.0367
  118OSM    H4F12372   0.239   4.066   6.514  0.6314 -0.6441 -2.7960
  118OSM    H4G12373   0.066   4.065   6.497  1.3232  1.4959 -0.2449
  118OSM    C5F12374   0.169   3.887   6.424  0.7127  0.0016 -0.5130
  118OSM    H5F12375   0.133   3.789   6.461  0.9966  0.1976  0.2873
  118OSM    H5G12376   0.278   3.887   6.404  0.7947  3.1980 -0.5444
  118OSM    C6F12377   0.113   3.916   6.284 -0.5048 -0.4110  0.2141
  118OSM    H6F12378   0.175   3.997   6.238 -1.9273  0.7270  0.2296
  118OSM    H6G12379   0.008   3.951   6.290 -0.0892  1.3157 -1.4562
  118OSM    C7F12380   0.116   3.789   6.199  0.1147 -0.1783  0.5422
  118OSM    H7F12381   0.043   3.798   6.116 -1.2098 -1.2539  1.5424
  118OSM    H7G12382   0.085   3.700   6.258 -0.5342 -0.1521  0.2479
  118OSM    C8F12383   0.257   3.767   6.131 -0.5045  0.6571 -0.4978
  118OSM    H8F12384   0.329   3.731   6.207 -1.4659  1.0278  0.6235
  118OSM    H8G12385   0.304   3.858   6.088 -0.4771 -0.4694 -3.0005
  118OSM    C9F12386   0.260   3.660   6.025  0.8824 -0.3408 -0.2910
  118OSM    H9F12387   0.282   3.562   6.069  1.2876  0.8942  2.4845
  118OSM   C10F12388   0.241   3.686   5.893 -0.5628 -0.1433 -0.0009
  118OSM   H10F12389   0.253   3.598   5.827 -0.0386 -0.6014  0.6862
  118OSM   C11F12390   0.210   3.817   5.828 -0.5344  0.4254  0.1836
  118OSM   H11F12391   0.188   3.892   5.907 -2.2953 -1.0606  1.1830
  118OSM   H11G12392   0.117   3.812   5.766 -0.2321 -1.2415 -0.1644
  118OSM   C12F12393   0.330   3.873   5.735  0.4045  0.2565 -0.5388
  118OSM   H12F12394   0.427   3.882   5.789  1.5382 -1.5892 -2.1490
  118OSM   H12G12395   0.303   3.975   5.702  0.7185  0.4212 -0.2957
  118OSM   C13F12396   0.356   3.791   5.603  0.0829  0.1832 -0.0959
  118OSM   H13F12397   0.376   3.687   5.635 -0.1077  0.2966  0.4022
  118OSM   H13G12398   0.447   3.828   5.552  1.3067 -1.7962  0.5494
  118OSM   C14F12399   0.228   3.800   5.517  0.9977  0.4057  0.2210
  118OSM   H14F12400   0.183   3.902   5.517 -1.1697 -0.5053  0.2927
  118OSM   H14G12401   0.152   3.736   5.565  0.8241  0.0073 -0.5808
  118OSM   C15F12402   0.241   3.762   5.363 -0.5520  0.4641 -0.9768
  118OSM   H15F12403   0.142   3.724   5.331 -0.0030 -2.0976  0.1234
  118OSM   H15G12404   0.309   3.674   5.366  0.2151  1.0431  1.1308
  118OSM   C16F12405   0.291   3.879   5.284  0.8757  0.6711 -0.3401
  118OSM   H16F12406   0.390   3.914   5.322  0.9335  0.1730 -0.0298
  118OSM   H16G12407   0.214   3.959   5.288  0.0391 -0.1852  2.2031
  118OSM   C17F12408   0.296   3.832   5.140 -0.7735  0.6698 -0.0571
  118OSM   H17F12409   0.206   3.777   5.105 -1.6136  2.3214 -0.6277
  118OSM   H17G12410   0.376   3.756   5.128  0.3366  2.1244 -2.9521
  118OSM   C18F12411   0.338   3.949   5.048  0.2617 -0.6815 -0.3541
  118OSM   H18F12412   0.426   4.004   5.088  1.3438 -1.9538 -0.9060
  118OSM   H18G12413   0.252   4.019   5.037  0.6367  0.0879  1.2640
  118OSM   H18H12414   0.379   3.910   4.953 -0.1723 -0.6314 -0.5630
  119OSM      N12415   2.860   0.685   8.195  0.2362  0.0090  0.0860
  119OSM    C1512416   2.985   0.628   8.251  0.3976 -0.3205 -0.1450
  119OSM   H15A12417   3.003   0.530   8.211  0.0436  1.2584 -4.8956
  119OSM   H15B12418   2.973   0.626   8.358  0.7576  1.2695 -0.0427
  119OSM   H15C12419   3.063   0.701   8.234 -0.5466  1.4163  2.3921
  119OSM    C1412420   2.755   0.589   8.216 -0.1296 -0.5349  0.5395
  119OSM   H14A12421   2.762   0.496   8.161  1.2561 -0.0170 -0.2015
  119OSM   H14B12422   2.656   0.619   8.185  0.2406 -2.6184 -3.2589
  119OSM   H14C12423   2.749   0.543   8.314 -0.4383 -2.8498 -0.4930
  119OSM    C1312424   2.836   0.811   8.272 -0.2318 -0.1328  0.8530
  119OSM   H13A12425   2.801   0.786   8.371 -3.7954  0.8250 -0.0432
  119OSM   H13B12426   2.757   0.871   8.230 -1.9955 -1.6994  1.7934
  119OSM   H13C12427   2.927   0.870   8.273 -0.6180  0.5049 -0.1647
  119OSM    C1212428   2.888   0.719   8.047 -0.2269  0.2147  0.0524
  119OSM   H12A12429   2.927   0.641   7.984 -2.8879 -0.9213 -0.2986
  119OSM   H12B12430   2.967   0.792   8.058 -0.8475  0.9775 -0.4483
  119OSM    C1112431   2.783   0.790   7.962 -0.3004 -0.4462 -0.5106
  119OSM   H11A12432   2.698   0.719   7.964  0.6698 -1.6093  0.9139
  119OSM   H11B12433   2.812   0.800   7.855 -1.4004  2.9044 -0.6142
  119OSM      P12434   2.756   1.043   7.948 -0.0887 -0.3867  0.4004
  119OSM    O1312435   2.682   1.145   8.023 -0.3906  0.3809 -0.0498
  119OSM    O1412436   2.900   1.078   7.922  0.2552 -0.1071  0.9169
  119OSM    O1112437   2.683   0.997   7.811 -0.4133 -0.6115 -0.0193
  119OSM    O1212438   2.746   0.915   8.020 -0.0395  0.2641 -0.4066
  119OSM    C1S12439   2.565   1.069   7.777  0.4079  0.5825  0.1439
  119OSM    H1S12440   2.597   1.172   7.754 -0.6875  0.8569 -0.2087
  119OSM    H1T12441   2.490   1.071   7.858  0.8873 -1.7884  0.7471
  119OSM     NF12442   2.401   1.093   7.574  0.6514  0.7783 -0.2612
  119OSM    HNF12443   2.315   1.046   7.555  1.5801 -2.5854  2.6652
  119OSM    C2S12444   2.510   1.017   7.633  0.0543  0.3464 -0.7052
  119OSM    H2S12445   2.591   1.024   7.558 -0.6647  0.4043 -1.4940
  119OSM    C3S12446   2.463   0.874   7.659  0.1854  0.0953 -0.0522
  119OSM    H3S12447   2.369   0.887   7.718  1.2737 -1.4377  2.1444
  119OSM     O312448   2.545   0.799   7.744  0.3592  0.0784  0.2566
  119OSM    HO312449   2.603   0.867   7.779 -0.7438  1.8636 -1.1821
  119OSM    C4S12450   2.433   0.803   7.528 -0.2135  0.8205 -0.1571
  119OSM    H4S12451   2.325   0.809   7.511 -0.6268 -1.0911  1.3473
  119OSM    C5S12452   2.517   0.740   7.437 -0.6055 -0.4940  0.0171
  119OSM    H5S12453   2.625   0.737   7.454 -0.7538 -0.1376  1.0483
  119OSM    C6S12454   2.471   0.704   7.301  0.3605 -0.0616  0.7609
  119OSM    H6S12455   2.436   0.792   7.243  2.1432  0.3858  0.2871
  119OSM    H6T12456   2.378   0.644   7.301  0.5560 -0.4375 -0.9007
  119OSM    C7S12457   2.585   0.629   7.224 -0.1577 -0.0168 -0.1779
  119OSM    H7S12458   2.622   0.541   7.282  0.9483 -0.3725 -1.3644
  119OSM    H7T12459   2.673   0.695   7.211 -0.6954  0.8116  0.3210
  119OSM    C8S12460   2.545   0.563   7.093  0.2995  0.5325 -0.2617
  119OSM    H8S12461   2.636   0.544   7.032  0.6249 -2.9619  1.0391
  119OSM    H8T12462   2.479   0.622   7.027  1.6921  1.3299 -0.9902
  119OSM    C9S12463   2.472   0.428   7.109 -1.5189 -0.9046  0.2378
  119OSM    H9S12464   2.390   0.433   7.183 -0.4353  1.0239  1.3764
  119OSM    H9T12465   2.541   0.350   7.148  2.3178  2.4764  0.8629
  119OSM   C10S12466   2.439   0.371   6.969  0.3039 -0.3287  0.0845
  119OSM   H10S12467   2.528   0.396   6.907  2.2254 -1.8439  2.0869
  119OSM   H10T12468   2.349   0.420   6.927  1.3182  0.9060 -0.7250
  119OSM   C11S12469   2.422   0.221   6.965 -0.0615  0.4534 -0.3311
  119OSM   H11S12470   2.338   0.198   7.034  1.1224  0.4479  1.1606
  119OSM   H11T12471   2.516   0.174   7.001  0.5781  0.9257 -1.3298
  119OSM   C12S12472   2.369   0.174   6.831 -0.2195  0.5291 -0.3321
  119OSM   H12S12473   2.271   0.218   6.800 -1.2245 -2.2533 -1.4203
  119OSM   H12T12474   2.347   0.065   6.835  0.9456  0.2940 -0.0607
  119OSM   C13S12475   2.476   0.191   6.717 -0.4053 -0.1958 -0.5541
  119OSM   H13S12476   2.567   0.142   6.756 -0.9419 -0.3777  0.4993
  119OSM   H13T12477   2.485   0.300   6.697 -0.3896 -0.5176 -2.5008
  119OSM   C14S12478   2.433   0.136   6.583  0.2929 -1.0120  0.1919
  119OSM   H14S12479   2.338   0.185   6.554  1.0167 -0.0147 -0.5791
  119OSM   H14T12480   2.407   0.028   6.590 -1.8017 -0.6962 -1.8894
  119OSM   C15S12481   2.539   0.166   6.477  0.3337 -0.2631  0.0519
  119OSM   H15S12482   2.639   0.170   6.525  0.6916  0.2644 -0.7147
  119OSM   H15T12483   2.523   0.270   6.439  1.2944 -0.5041 -1.0632
  119OSM   C16S12484   2.541   0.059   6.366  1.0584  0.1064 -0.1813
  119OSM   H16S12485   2.576  -0.041   6.400 -0.0618 -0.0100  0.6599
  119OSM   H16T12486   2.614   0.092   6.290  1.8715  1.1772  1.0306
  119OSM   C17S12487   2.409   0.062   6.290  0.7894  0.5188  0.3790
  119OSM   H17S12488   2.401   0.164   6.246  0.9663  1.0757  1.5978
  119OSM   H17T12489   2.319   0.062   6.354 -0.5224  1.2356 -1.3942
  119OSM   C18S12490   2.393  -0.040   6.179 -0.4298 -0.0229 -0.0793
  119OSM   H18S12491   2.289  -0.036   6.141 -0.8936 -0.8186  1.0427
  119OSM   H18T12492   2.417  -0.145   6.208  0.5119 -0.1160 -1.1203
  119OSM   H18U12493   2.469  -0.018   6.101  0.9490  0.6379  1.3806
  119OSM    C1F12494   2.406   1.218   7.546  0.9975 -0.2205 -0.2376
  119OSM     OF12495   2.506   1.281   7.582  0.1020 -0.7940  0.3608
  119OSM    C2F12496   2.280   1.281   7.479  0.6233 -0.8289  0.1740
  119OSM    H2F12497   2.275   1.387   7.512  1.2646 -0.4636 -0.8575
  119OSM    H2G12498   2.184   1.235   7.510  0.5067  0.7538  2.3739
  119OSM    C3F12499   2.305   1.271   7.322 -0.2010 -0.5246 -0.4327
  119OSM    H3F12500   2.219   1.312   7.265 -0.1229  0.5847  0.2090
  119OSM    H3G12501   2.320   1.166   7.288  0.4786 -0.5103 -0.2043
  119OSM    C4F12502   2.431   1.346   7.284 -0.6300  0.0085 -0.1996
  119OSM    H4F12503   2.518   1.294   7.331 -3.3678 -3.5463  1.4520
  119OSM    H4G12504   2.432   1.451   7.318  0.7356  1.3001 -3.8379
  119OSM    C5F12505   2.459   1.349   7.130 -0.7749  0.1318 -0.1580
  119OSM    H5F12506   2.485   1.246   7.097 -1.2496 -0.3176  0.8373
  119OSM    H5G12507   2.552   1.409   7.117  0.3856 -1.1428  1.8061
  119OSM    C6F12508   2.359   1.419   7.037  0.7795  0.7014 -0.1262
  119OSM    H6F12509   2.382   1.524   7.065 -0.8883  0.5526  1.9953
  119OSM    H6G12510   2.256   1.391   7.066 -0.3792  3.2002 -1.5111
  119OSM    C7F12511   2.394   1.385   6.894  0.3479 -0.2593 -0.5656
  119OSM    H7F12512   2.423   1.278   6.902  0.8059 -0.2276 -1.5482
  119OSM    H7G12513   2.491   1.439   6.881 -0.9443  1.5896 -3.7206
  119OSM    C8F12514   2.291   1.401   6.785  0.1620 -0.5096  0.7527
  119OSM    H8F12515   2.191   1.374   6.825  0.2298  0.1536  1.3976
  119OSM    H8G12516   2.311   1.334   6.699 -1.4982  1.6069 -1.4360
  119OSM    C9F12517   2.289   1.546   6.745  0.0605  0.3592  0.6847
  119OSM    H9F12518   2.246   1.617   6.817  0.5771  0.8985  0.4728
  119OSM   C10F12519   2.309   1.599   6.627 -0.4798  0.4103 -0.6265
  119OSM   H10F12520   2.326   1.707   6.620  3.8879 -0.0623 -0.4945
  119OSM   C11F12521   2.359   1.520   6.508 -0.5718 -0.2012 -0.1206
  119OSM   H11F12522   2.402   1.421   6.534  0.6023  0.6909  1.5252
  119OSM   H11G12523   2.450   1.572   6.471  0.1231 -2.7187 -2.1840
  119OSM   C12F12524   2.269   1.498   6.389  0.5415 -0.1787 -0.4513
  119OSM   H12F12525   2.235   1.591   6.338 -2.1209  0.4269  2.1275
  119OSM   H12G12526   2.172   1.457   6.426  0.7511 -0.9156 -0.7028
  119OSM   C13F12527   2.332   1.406   6.289  0.1219 -0.1558 -0.5809
  119OSM   H13F12528   2.354   1.308   6.335  0.3309 -0.6809 -1.7471
  119OSM   H13G12529   2.428   1.450   6.253  1.3396 -2.5521 -0.4328
  119OSM   C14F12530   2.251   1.371   6.166 -0.0788 -0.3059  0.1269
  119OSM   H14F12531   2.206   1.461   6.119  2.4182  1.2218  0.5021
  119OSM   H14G12532   2.164   1.309   6.197  0.2345 -0.2749  1.1279
  119OSM   C15F12533   2.336   1.290   6.067 -0.5552  0.7570  0.6452
  119OSM   H15F12534   2.389   1.207   6.117  1.8214  2.2147  0.7040
  119OSM   H15G12535   2.423   1.353   6.038 -0.8494  0.8876  0.0190
  119OSM   C16F12536   2.260   1.241   5.938  0.2817 -0.3223  0.0873
  119OSM   H16F12537   2.220   1.316   5.866  0.7418 -0.1195  0.0429
  119OSM   H16G12538   2.170   1.190   5.979 -1.5185  0.1121 -3.0014
  119OSM   C17F12539   2.337   1.140   5.858  0.0313  0.0335  0.4881
  119OSM   H17F12540   2.367   1.064   5.933 -0.4903 -1.7588 -1.0468
  119OSM   H17G12541   2.429   1.185   5.814 -0.6118 -0.5686 -1.5906
  119OSM   C18F12542   2.258   1.060   5.755  0.3126 -0.1809 -0.3875
  119OSM   H18F12543   2.332   0.989   5.714  0.9343  0.2251  0.0134
  119OSM   H18G12544   2.210   1.127   5.680 -0.4389 -1.0208 -0.6777
  119OSM   H18H12545   2.186   0.992   5.805  1.4095 -2.1179 -1.3264
  120OSM      N12546   4.354   6.666   7.881  0.0683 -0.2581  1.1673
  120OSM    C1512547   4.311   6.700   8.018  0.2321  0.2963  0.0829
  120OSM   H15A12548   4.366   6.783   8.059  0.0780  0.2256  0.4389
  120OSM   H15B12549   4.314   6.614   8.084 -1.2499  0.3710  0.2747
  120OSM   H15C12550   4.211   6.740   8.027  0.2950  0.4462  0.1178
  120OSM    C1412551   4.266   6.549   7.839  0.4982 -0.2177  0.6994
  120OSM   H14A12552   4.282   6.457   7.893 -1.2224 -0.5688  0.6774
  120OSM   H14B12553   4.276   6.519   7.736 -0.1716  0.6683  0.3602
  120OSM   H14C12554   4.159   6.565   7.845  0.1821 -0.4846 -2.6367
  120OSM    C1312555   4.345   6.787   7.792 -0.5286  0.2150  0.2117
  120OSM   H13A12556   4.399   6.864   7.845  4.0937 -2.3231 -0.3556
  120OSM   H13B12557   4.240   6.807   7.777 -0.3685  0.1336 -1.0834
  120OSM   H13C12558   4.389   6.775   7.695  0.3846  1.7817  0.3984
  120OSM    C1212559   4.493   6.616   7.885 -0.7572 -0.3689  0.8209
  120OSM   H12A12560   4.504   6.553   7.972 -0.1363 -0.3201  0.7780
  120OSM   H12B12561   4.562   6.696   7.905  0.7565 -1.4636  0.2215
  120OSM    C1112562   4.563   6.560   7.752 -0.0325  0.3175  0.1955
  120OSM   H11A12563   4.501   6.468   7.743  0.0448  0.1698  1.0817
  120OSM   H11B12564   4.667   6.526   7.769 -0.0463 -0.7337 -1.6091
  120OSM      P12565   4.658   6.762   7.613  0.5808 -0.3329 -0.3638
  120OSM    O1312566   4.591   6.883   7.663  0.5756  0.1107  0.0322
  120OSM    O1412567   4.779   6.737   7.694 -0.3697  0.1384  0.4454
  120OSM    O1112568   4.681   6.768   7.459  0.2365 -0.1916  0.2998
  120OSM    O1212569   4.554   6.647   7.632  0.3636  0.2462  0.1476
  120OSM    C1S12570   4.729   6.659   7.384 -0.0093 -0.1938 -1.3164
  120OSM    H1S12571   4.652   6.578   7.381  0.1889 -0.4865  0.4562
  120OSM    H1T12572   4.819   6.616   7.432 -1.2435 -1.7654 -0.2935
  120OSM     NF12573   4.764   6.604   7.153  0.1407  0.0002 -0.5102
  120OSM    HNF12574   4.843   6.544   7.137  0.7655  0.2173  1.4236
  120OSM    C2S12575   4.774   6.717   7.243  0.8401 -0.7999 -0.2897
  120OSM    H2S12576   4.699   6.796   7.221  1.2904 -0.4438 -0.5511
  120OSM    C3S12577   4.913   6.787   7.245 -0.2294 -0.6204 -0.5406
  120OSM    H3S12578   4.987   6.716   7.288 -1.2820 -0.0390  2.4682
  120OSM     O312579   4.923   6.895   7.342 -0.1496  0.7028 -0.0125
  120OSM    HO312580   4.866   6.877   7.417  0.9264  0.2435  0.7230
  120OSM    C4S12581   4.949   6.839   7.115 -0.1186 -0.2226 -0.1127
  120OSM    H4S12582   4.873   6.904   7.067 -0.4789  1.5210  2.6031
  120OSM    C5S12583   5.070   6.827   7.061  0.2523 -0.0342 -0.7287
  120OSM    H5S12584   5.149   6.779   7.120 -0.8005  0.2419  0.9813
  120OSM    C6S12585   5.107   6.878   6.927  0.3902  0.2302  0.0046
  120OSM    H6S12586   5.192   6.950   6.929 -0.1623  1.0312 -2.0771
  120OSM    H6T12587   5.021   6.923   6.872  1.4718  1.4825 -0.7299
  120OSM    C7S12588   5.157   6.772   6.816  0.0033  0.0617 -0.3536
  120OSM    H7S12589   5.087   6.691   6.784 -0.1648  0.6484 -1.5078
  120OSM    H7T12590   5.245   6.717   6.855  0.4320 -0.0572 -1.4364
  120OSM    C8S12591   5.205   6.853   6.690  0.0283  0.2605  0.5201
  120OSM    H8S12592   5.277   6.932   6.721  1.1931 -0.1520 -1.0334
  120OSM    H8T12593   5.115   6.908   6.654 -0.0830  0.2983  0.8548
  120OSM    C9S12594   5.270   6.763   6.581 -0.2613 -0.4035  0.4640
  120OSM    H9S12595   5.200   6.683   6.548  0.5680 -0.3658 -1.5158
  120OSM    H9T12596   5.361   6.712   6.619  2.0250  1.8074 -1.6650
  120OSM   C10S12597   5.308   6.848   6.457  0.0008 -0.1547 -0.5051
  120OSM   H10S12598   5.356   6.943   6.489 -1.6672 -0.4048  3.3226
  120OSM   H10T12599   5.213   6.881   6.410 -0.3261  1.4277  1.1528
  120OSM   C11S12600   5.389   6.757   6.351  0.3798 -0.2182  0.6376
  120OSM   H11S12601   5.308   6.684   6.335 -1.1041  1.8904 -2.4140
  120OSM   H11T12602   5.483   6.714   6.393  1.9278  1.6112 -0.7459
  120OSM   C12S12603   5.412   6.808   6.208  0.2151 -0.7928  0.2215
  120OSM   H12S12604   5.466   6.905   6.217  0.8723 -1.3020  2.1144
  120OSM   H12T12605   5.319   6.830   6.152  1.7145  0.3858 -1.9736
  120OSM   C13S12606   5.494   6.723   6.105  0.2327  0.8926 -0.3631
  120OSM   H13S12607   5.435   6.633   6.079 -1.4489  1.5999  0.8439
  120OSM   H13T12608   5.588   6.687   6.153 -0.4915  0.7386  1.0163
  120OSM   C14S12609   5.540   6.793   5.977 -0.0147 -0.8370  0.8849
  120OSM   H14S12610   5.633   6.849   6.004 -0.3934  0.4627 -0.3906
  120OSM   H14T12611   5.463   6.863   5.939  0.7429  0.4012  1.5468
  120OSM   C15S12612   5.573   6.695   5.861 -0.4160 -0.3802 -0.1950
  120OSM   H15S12613   5.634   6.618   5.914  0.6507  0.8364  0.3873
  120OSM   H15T12614   5.636   6.754   5.791  0.0623  0.4396  0.9123
  120OSM   C16S12615   5.455   6.638   5.781 -0.2858 -0.6914 -0.2790
  120OSM   H16S12616   5.403   6.731   5.748  0.3096  0.2836  1.4177
  120OSM   H16T12617   5.397   6.578   5.854 -0.2492 -0.3395  0.0430
  120OSM   C17S12618   5.506   6.563   5.652 -1.0437  0.7737 -0.2698
  120OSM   H17S12619   5.563   6.471   5.673  1.6015  1.9789 -1.6609
  120OSM   H17T12620   5.592   6.626   5.620  0.6573 -1.0570  0.4904
  120OSM   C18S12621   5.394   6.545   5.552 -0.6209 -0.3548  0.0682
  120OSM   H18S12622   5.430   6.580   5.452 -1.7412  0.5014 -0.0597
  120OSM   H18T12623   5.303   6.603   5.577  0.2113  1.5245 -1.0180
  120OSM   H18U12624   5.363   6.439   5.556 -1.7313 -0.1166 -1.1752
  120OSM    C1F12625   4.646   6.569   7.102  0.2266  0.3105 -0.7039
  120OSM     OF12626   4.548   6.643   7.121  0.0464  0.3449 -0.3614
  120OSM    C2F12627   4.643   6.441   7.022  0.3568 -0.0411 -0.3500
  120OSM    H2F12628   4.605   6.362   7.090 -1.3269  2.8658  2.3732
  120OSM    H2G12629   4.736   6.416   6.967  0.0355  2.1478 -2.0520
  120OSM    C3F12630   4.538   6.447   6.915  0.4154 -0.3072  0.3558
  120OSM    H3F12631   4.574   6.528   6.848 -0.8874  0.3859  0.4749
  120OSM    H3G12632   4.434   6.471   6.943  0.6803 -0.8515  1.8842
  120OSM    C4F12633   4.535   6.325   6.821 -0.0109 -0.3157  0.1823
  120OSM    H4F12634   4.528   6.239   6.890  1.1574  2.3274  3.9271
  120OSM    H4G12635   4.631   6.327   6.765  0.1051  0.6748  0.3914
  120OSM    C5F12636   4.412   6.311   6.732 -0.4725  0.4488 -0.4673
  120OSM    H5F12637   4.399   6.411   6.686  1.1664  0.4624 -0.9898
  120OSM    H5G12638   4.322   6.295   6.795 -0.0274  0.8077  0.2802
  120OSM    C6F12639   4.434   6.198   6.622  0.0647 -0.6625  0.0877
  120OSM    H6F12640   4.354   6.212   6.546  1.5015  1.3354 -1.1733
  120OSM    H6G12641   4.430   6.095   6.661  0.6911 -1.1377 -1.0486
  120OSM    C7F12642   4.565   6.215   6.543 -0.4181 -0.0720 -0.3861
  120OSM    H7F12643   4.567   6.128   6.474  1.3071 -1.1423  0.9442
  120OSM    H7G12644   4.657   6.205   6.605  0.5032  2.1754 -1.2706
  120OSM    C8F12645   4.584   6.353   6.458 -0.2336  0.1906 -0.0132
  120OSM    H8F12646   4.692   6.371   6.440 -0.0286 -0.1479  0.8259
  120OSM    H8G12647   4.547   6.440   6.515 -0.3535  0.7638 -0.9441
  120OSM    C9F12648   4.513   6.346   6.324  0.3559 -0.2219  0.2085
  120OSM    H9F12649   4.419   6.403   6.322  0.3733 -0.2127 -0.4584
  120OSM   C10F12650   4.557   6.277   6.216  0.6348 -0.1506 -0.0773
  120OSM   H10F12651   4.497   6.269   6.124 -1.0196  1.6844  0.7657
  120OSM   C11F12652   4.685   6.206   6.205 -0.7459  0.0035  0.3104
  120OSM   H11F12653   4.750   6.214   6.294 -0.4386 -1.0913  0.1916
  120OSM   H11G12654   4.746   6.243   6.119 -0.9033 -2.1817 -0.8057
  120OSM   C12F12655   4.672   6.063   6.173  0.2879  0.7212 -0.2828
  120OSM   H12F12656   4.623   6.018   6.263  2.5033 -0.9436  0.1857
  120OSM   H12G12657   4.774   6.020   6.173  0.4289  1.0092  1.0696
  120OSM   C13F12658   4.597   6.004   6.048  0.4925  0.0650  0.3679
  120OSM   H13F12659   4.487   6.018   6.053  0.5233 -0.0800  1.7546
  120OSM   H13G12660   4.617   5.896   6.062  0.4533  0.0479  0.2882
  120OSM   C14F12661   4.653   6.056   5.919  0.3302 -0.2341  0.2856
  120OSM   H14F12662   4.763   6.036   5.921  0.3170 -0.2603  1.7342
  120OSM   H14G12663   4.624   6.163   5.913  3.4779  0.6892 -0.3553
  120OSM   C15F12664   4.584   5.998   5.786  0.8939  0.0164 -0.5160
  120OSM   H15F12665   4.477   6.023   5.801  0.1095 -2.6368 -1.2372
  120OSM   H15G12666   4.605   5.889   5.778  1.3793  0.0587  0.0416
  120OSM   C16F12667   4.635   6.070   5.655  0.0590 -0.5695  0.1448
  120OSM   H16F12668   4.741   6.047   5.632 -0.1750 -0.1783 -1.4336
  120OSM   H16G12669   4.640   6.178   5.678 -0.6443 -0.5706  0.3326
  120OSM   C17F12670   4.537   6.053   5.532  0.6015 -0.4350  0.2364
  120OSM   H17F12671   4.574   6.127   5.457  2.0164 -3.3831 -2.1720
  120OSM   H17G12672   4.431   6.070   5.558  0.6308 -1.4214  1.0399
  120OSM   C18F12673   4.555   5.911   5.476 -0.4534 -0.8066 -0.0540
  120OSM   H18F12674   4.477   5.844   5.519 -1.0585  0.6772  1.2589
  120OSM   H18G12675   4.654   5.877   5.514 -1.0226 -0.9604  1.3689
  120OSM   H18H12676   4.563   5.910   5.365  0.6001 -0.8069  0.0156
  121OSM      N12677   6.069   3.091   8.035  0.6130 -0.0070 -0.6150
  121OSM    C1512678   6.075   3.198   7.931 -0.0374  0.3101  0.9530
  121OSM   H15A12679   6.071   3.295   7.980 -0.2713  0.7952 -0.0069
  121OSM   H15B12680   5.977   3.202   7.886  0.4508 -0.0844 -0.1676
  121OSM   H15C12681   6.161   3.207   7.867 -1.7641  3.2329 -1.2333
  121OSM    C1412682   6.203   3.089   8.092  0.5894  0.4781 -0.5312
  121OSM   H14A12683   6.275   3.055   8.019 -0.3041 -1.5015 -0.5755
  121OSM   H14B12684   6.212   3.019   8.175  2.7818  1.5584  0.1979
  121OSM   H14C12685   6.233   3.190   8.114  2.1066  0.9742 -4.2396
  121OSM    C1312686   5.979   3.135   8.146  0.6850  0.1603  0.5677
  121OSM   H13A12687   5.983   3.063   8.226  0.7031 -0.7466 -0.2299
  121OSM   H13B12688   5.877   3.147   8.112 -0.2051 -1.3237  2.5706
  121OSM   H13C12689   6.009   3.232   8.182  3.3446 -0.6049  0.5855
  121OSM    C1212690   6.030   2.964   7.960 -0.1248  0.0933  0.4285
  121OSM   H12A12691   6.065   2.883   8.022  2.3371  2.4530  2.3299
  121OSM   H12B12692   6.086   2.957   7.868 -0.0908  1.4590  0.3357
  121OSM    C1112693   5.880   2.947   7.939 -1.0504  0.7011  0.3343
  121OSM   H11A12694   5.812   2.979   8.021 -2.5144 -0.5228 -0.3545
  121OSM   H11B12695   5.859   2.839   7.922 -1.3500  0.9543 -1.0408
  121OSM      P12696   5.872   3.003   7.679  0.2531 -0.2019  0.0531
  121OSM    O1312697   5.822   3.118   7.599  0.7637  0.1328  0.3772
  121OSM    O1412698   6.014   2.955   7.674  0.4165 -1.1319  0.4534
  121OSM    O1112699   5.788   2.873   7.646 -1.0331 -0.5809 -0.1988
  121OSM    O1212700   5.834   3.031   7.832  0.2235 -0.5707 -0.2418
  121OSM    C1S12701   5.653   2.888   7.592  0.0707  0.3769 -0.6633
  121OSM    H1S12702   5.594   2.976   7.625 -0.4338 -0.7414  1.5704
  121OSM    H1T12703   5.600   2.797   7.627  0.5123  0.5488  0.4937
  121OSM     NF12704   5.519   2.916   7.385  0.0182 -0.0774 -0.3937
  121OSM    HNF12705   5.461   2.851   7.337 -2.1704  1.9614 -0.7336
  121OSM    C2S12706   5.647   2.877   7.434 -0.5490 -0.3834 -0.3646
  121OSM    H2S12707   5.719   2.947   7.388  1.6465 -2.5890 -0.4408
  121OSM    C3S12708   5.700   2.732   7.398 -0.5001 -0.2137  0.3267
  121OSM    H3S12709   5.631   2.655   7.438  1.9836 -1.9114  1.5969
  121OSM     O312710   5.815   2.682   7.464  0.9358  0.1015  0.5492
  121OSM    HO312711   5.821   2.722   7.551 -1.3308 -3.2093  2.4509
  121OSM    C4S12712   5.712   2.717   7.248  0.2394  0.2203  0.4457
  121OSM    H4S12713   5.642   2.642   7.209 -1.6287  1.1731  1.7847
  121OSM    C5S12714   5.777   2.798   7.162 -0.2287 -0.6887  0.6922
  121OSM    H5S12715   5.844   2.877   7.200 -0.0130 -0.8887  0.7298
  121OSM    C6S12716   5.775   2.796   7.010 -0.2682 -0.3145  0.5859
  121OSM    H6S12717   5.878   2.769   6.975  0.3786  0.1169  2.0724
  121OSM    H6T12718   5.765   2.899   6.971  2.5556 -0.6414 -1.3729
  121OSM    C7S12719   5.670   2.709   6.945  0.2008  0.2006 -0.1930
  121OSM    H7S12720   5.575   2.755   6.979  0.8326  1.1917  0.3004
  121OSM    H7T12721   5.674   2.603   6.978  1.4829  0.6714  1.3357
  121OSM    C8S12722   5.673   2.710   6.791  0.4159  0.1287 -0.5912
  121OSM    H8S12723   5.617   2.627   6.743  1.5847 -0.5753 -0.7795
  121OSM    H8T12724   5.781   2.710   6.765  0.4622 -1.1392 -0.4558
  121OSM    C9S12725   5.626   2.838   6.727  0.1344 -0.0272  0.1614
  121OSM    H9S12726   5.707   2.909   6.699 -0.0282  0.6595  1.4006
  121OSM    H9T12727   5.557   2.895   6.793 -1.3202 -0.8256 -0.6179
  121OSM   C10S12728   5.549   2.816   6.597 -0.1699 -0.8470  0.7515
  121OSM   H10S12729   5.506   2.916   6.572  1.1328 -0.4770 -0.1119
  121OSM   H10T12730   5.475   2.738   6.626  1.1450 -1.5995  2.1887
  121OSM   C11S12731   5.629   2.774   6.474  0.7146  0.0709 -0.2136
  121OSM   H11S12732   5.564   2.762   6.385  0.2023  0.9929  0.0235
  121OSM   H11T12733   5.689   2.682   6.489  0.1064 -0.2605  0.2406
  121OSM   C12S12734   5.728   2.885   6.431 -0.6084  0.0366  0.1186
  121OSM   H12S12735   5.795   2.880   6.519 -1.8582  0.8825  1.1594
  121OSM   H12T12736   5.683   2.985   6.414 -0.6969 -0.0359 -0.0808
  121OSM   C13S12737   5.793   2.839   6.302 -0.0583 -0.5098  0.0109
  121OSM   H13S12738   5.719   2.846   6.220  0.1117  0.1960 -0.0910
  121OSM   H13T12739   5.820   2.732   6.315  0.8080 -0.3129 -0.1000
  121OSM   C14S12740   5.914   2.924   6.252 -0.0557  0.1984 -0.2629
  121OSM   H14S12741   5.985   2.917   6.338  1.4814 -1.3400 -1.5854
  121OSM   H14T12742   5.877   3.028   6.246 -1.1591  0.0025  2.0793
  121OSM   C15S12743   5.972   2.868   6.126 -0.2824  0.4362  0.8381
  121OSM   H15S12744   5.955   2.759   6.121  1.0840  0.2434 -0.5023
  121OSM   H15T12745   6.081   2.886   6.143 -0.6304  0.8462  2.8063
  121OSM   C16S12746   5.922   2.941   5.996  0.2700  0.0525  0.8051
  121OSM   H16S12747   5.950   3.048   6.004 -1.4431  0.6987 -0.9686
  121OSM   H16T12748   5.811   2.937   5.989  0.3198 -1.7350  0.3427
  121OSM   C17S12749   5.987   2.881   5.864  0.7508 -0.8075 -1.0635
  121OSM   H17S12750   5.972   2.772   5.847 -0.1986 -1.0124  0.8209
  121OSM   H17T12751   6.096   2.904   5.858  0.5354  0.3517 -0.6946
  121OSM   C18S12752   5.927   2.945   5.735  0.3278 -0.5686  0.6789
  121OSM   H18S12753   5.818   2.923   5.735  0.3191 -0.5426  0.1322
  121OSM   H18T12754   5.969   2.892   5.647  0.6232  2.5327 -1.2160
  121OSM   H18U12755   5.966   3.049   5.725  0.1904 -0.5283  0.5638
  121OSM    C1F12756   5.464   3.035   7.402  0.2864 -0.6156  0.1524
  121OSM     OF12757   5.530   3.125   7.451  0.3015  0.2751  0.4812
  121OSM    C2F12758   5.315   3.044   7.377  0.0668  0.4448 -0.4710
  121OSM    H2F12759   5.261   3.049   7.474  1.2157  1.0686  0.1675
  121OSM    H2G12760   5.276   2.960   7.317 -0.5833  0.5407 -0.1936
  121OSM    C3F12761   5.272   3.173   7.287 -0.5470  0.2749  0.4306
  121OSM    H3F12762   5.315   3.263   7.334  1.1188  0.2515 -0.9308
  121OSM    H3G12763   5.161   3.178   7.284 -0.5320  1.9598  1.6414
  121OSM    C4F12764   5.325   3.143   7.145  0.2736 -0.6931  0.4686
  121OSM    H4F12765   5.283   3.047   7.109  2.4285 -0.7749 -2.0796
  121OSM    H4G12766   5.434   3.138   7.161  0.6992  1.4438 -1.2048
  121OSM    C5F12767   5.300   3.266   7.046  0.2958  0.1518 -0.0598
  121OSM    H5F12768   5.339   3.355   7.100  0.2676  0.0294  0.1624
  121OSM    H5G12769   5.192   3.289   7.050  0.4365  1.0271 -0.9996
  121OSM    C6F12770   5.365   3.238   6.911  0.5441  0.0925 -0.4807
  121OSM    H6F12771   5.330   3.143   6.867  1.0092 -0.1604 -0.3209
  121OSM    H6G12772   5.474   3.229   6.932  0.5042 -2.2227 -1.1107
  121OSM    C7F12773   5.346   3.343   6.801  0.1511  0.1802  0.0591
  121OSM    H7F12774   5.397   3.314   6.707  0.0546 -0.6699  0.2558
  121OSM    H7G12775   5.399   3.434   6.837  2.1780 -0.4189 -1.2356
  121OSM    C8F12776   5.196   3.380   6.783 -0.8434  0.3126 -0.0922
  121OSM    H8F12777   5.202   3.481   6.736  1.3837 -1.0315 -3.0289
  121OSM    H8G12778   5.139   3.377   6.878 -1.8580  0.5079 -0.6744
  121OSM    C9F12779   5.134   3.289   6.676  0.4973  0.3046 -0.7209
  121OSM    H9F12780   5.163   3.184   6.690 -0.8714 -0.1456 -1.1053
  121OSM   C10F12781   5.073   3.330   6.566 -0.4806 -0.1067 -0.7595
  121OSM   H10F12782   5.046   3.253   6.493  0.0599 -0.3898 -0.6711
  121OSM   C11F12783   5.028   3.477   6.536 -0.2192  0.9189  0.1458
  121OSM   H11F12784   5.030   3.542   6.625 -1.4518  2.1122 -0.6563
  121OSM   H11G12785   4.922   3.466   6.503 -0.6807 -3.7513  2.3633
  121OSM   C12F12786   5.113   3.552   6.434 -0.2024  0.5985 -0.3563
  121OSM   H12F12787   5.210   3.578   6.481 -0.4476  0.9850 -0.0590
  121OSM   H12G12788   5.064   3.646   6.401 -0.0063  1.0546  0.6316
  121OSM   C13F12789   5.124   3.461   6.307  0.3202 -0.8086 -0.2095
  121OSM   H13F12790   5.037   3.392   6.311  0.3924 -0.8345  2.0692
  121OSM   H13G12791   5.215   3.397   6.317  0.2932 -0.5240  2.7842
  121OSM   C14F12792   5.114   3.537   6.174  0.1527 -0.1258 -0.0909
  121OSM   H14F12793   5.206   3.599   6.165  1.1579 -1.3789  1.1692
  121OSM   H14G12794   5.020   3.595   6.167  0.0506 -0.4208 -1.3490
  121OSM   C15F12795   5.105   3.441   6.050 -0.1361  0.5740 -0.0541
  121OSM   H15F12796   5.041   3.355   6.076  1.1107 -0.1637  0.7030
  121OSM   H15G12797   5.211   3.406   6.046 -0.3655 -0.9879  3.5916
  121OSM   C16F12798   5.061   3.507   5.922 -0.0779 -0.2641  0.1381
  121OSM   H16F12799   5.131   3.589   5.895 -0.4649 -0.3700 -1.2919
  121OSM   H16G12800   4.960   3.550   5.940  0.0859  1.7608 -2.9143
  121OSM   C17F12801   5.051   3.422   5.796 -0.0864 -0.0227 -0.7686
  121OSM   H17F12802   4.975   3.343   5.812 -2.6865  2.2173 -1.2379
  121OSM   H17G12803   5.151   3.383   5.767  0.2825  1.7811 -2.1171
  121OSM   C18F12804   4.991   3.501   5.680  0.2876  0.7755  0.9049
  121OSM   H18F12805   4.986   3.436   5.589 -0.8843 -0.1984  1.6447
  121OSM   H18G12806   5.055   3.586   5.647 -0.7957  1.0899 -0.4782
  121OSM   H18H12807   4.887   3.533   5.698 -0.3920 -0.4664 -0.5447
  122OSM      N12808   5.886   5.679   8.246 -0.1368 -0.3871 -0.4795
  122OSM    C1512809   5.939   5.819   8.266 -0.2705  0.0782 -0.1876
  122OSM   H15A12810   6.034   5.817   8.318  0.6000 -2.0191 -1.7108
  122OSM   H15B12811   5.866   5.882   8.314 -0.0969  1.4603 -1.6278
  122OSM   H15C12812   5.955   5.862   8.168 -0.4663 -0.2176 -0.3519
  122OSM    C1412813   5.876   5.612   8.382 -0.3886  0.6940  0.7799
  122OSM   H14A12814   5.795   5.648   8.443 -2.1956  1.4646 -1.8857
  122OSM   H14B12815   5.964   5.629   8.442 -0.8161  2.1110  1.0456
  122OSM   H14C12816   5.856   5.508   8.361  0.6479  0.1694  2.2393
  122OSM    C1312817   5.760   5.679   8.182 -0.0555 -0.7124  0.9278
  122OSM   H13A12818   5.725   5.578   8.163 -2.9734  0.4514 -0.5611
  122OSM   H13B12819   5.757   5.726   8.085  0.9349 -0.6628  0.9174
  122OSM   H13C12820   5.683   5.721   8.245 -1.1770 -0.4612 -0.5546
  122OSM    C1212821   5.992   5.610   8.156  0.2262 -0.8500  0.5189
  122OSM   H12A12822   5.978   5.503   8.163  1.4735 -1.2353 -1.8492
  122OSM   H12B12823   6.087   5.639   8.198 -0.7614  0.4956  1.9615
  122OSM    C1112824   5.999   5.660   8.006 -0.0418 -0.5272 -0.0065
  122OSM   H11A12825   5.905   5.632   7.954 -1.2117  1.4267  0.9218
  122OSM   H11B12826   6.076   5.596   7.959  0.9358 -0.6780  1.7153
  122OSM      P12827   6.160   5.865   7.965 -0.0181  0.4186 -0.2567
  122OSM    O1312828   6.192   5.954   8.079  0.4584  0.5664  0.7217
  122OSM    O1412829   6.264   5.763   7.934  0.3192  0.4899 -0.2080
  122OSM    O1112830   6.141   5.949   7.825 -0.1828  0.0035  0.1891
  122OSM    O1212831   6.020   5.804   7.990 -0.1675  0.0233  0.4825
  122OSM    C1S12832   6.142   5.869   7.705  0.3822 -0.1164  0.1284
  122OSM    H1S12833   6.083   5.776   7.716  0.5228 -0.5763 -2.4104
  122OSM    H1T12834   6.247   5.847   7.676  0.1731  0.1858 -0.9217
  122OSM     NF12835   6.103   5.849   7.460 -0.1224  0.0089 -0.5270
  122OSM    HNF12836   6.153   5.883   7.381  0.3640 -1.5505 -0.9266
  122OSM    C2S12837   6.082   5.941   7.575 -0.3246  0.1560  0.4803
  122OSM    H2S12838   5.973   5.943   7.596 -0.7162 -1.4772 -1.1384
  122OSM    C3S12839   6.135   6.090   7.559 -0.3117 -0.0087  0.2984
  122OSM    H3S12840   6.246   6.085   7.552 -0.2845  1.0694 -0.1543
  122OSM     O312841   6.118   6.166   7.680  0.0611  0.2821  0.3866
  122OSM    HO312842   6.120   6.102   7.752  1.3489  0.4670  0.5385
  122OSM    C4S12843   6.076   6.157   7.433 -0.6324  0.4221  0.3109
  122OSM    H4S12844   6.151   6.158   7.352 -0.7725 -2.5368  0.0484
  122OSM    C5S12845   5.965   6.229   7.424  0.8138 -0.2542  0.1709
  122OSM    H5S12846   5.907   6.243   7.516  2.1513  0.1209  0.9925
  122OSM    C6S12847   5.913   6.306   7.299  0.2719 -1.4950  0.1499
  122OSM    H6S12848   5.905   6.417   7.309 -0.5791 -1.5356 -0.0509
  122OSM    H6T12849   5.809   6.283   7.269  0.3939  1.2530 -3.0413
  122OSM    C7S12850   6.000   6.285   7.179 -0.5340 -0.0501  0.4149
  122OSM    H7S12851   5.986   6.182   7.141  0.5687 -0.6550  1.5772
  122OSM    H7T12852   6.108   6.299   7.199 -0.0344 -1.2570 -1.2930
  122OSM    C8S12853   5.958   6.372   7.060  0.2033 -1.0356 -0.1057
  122OSM    H8S12854   5.970   6.473   7.104 -0.9582 -1.7192  1.9259
  122OSM    H8T12855   5.848   6.370   7.044  0.4351 -0.0986 -2.0967
  122OSM    C9S12856   6.027   6.340   6.924 -0.4538 -0.2815 -0.5319
  122OSM    H9S12857   6.029   6.232   6.895  0.3726  0.1931 -2.3840
  122OSM    H9T12858   6.136   6.359   6.938 -0.3144 -1.4536  0.1579
  122OSM   C10S12859   5.965   6.412   6.807  0.3747 -0.6001 -0.7169
  122OSM   H10S12860   5.932   6.515   6.832  0.7443  0.2858 -3.5420
  122OSM   H10T12861   5.878   6.352   6.774 -0.6515  0.7755 -0.5593
  122OSM   C11S12862   6.063   6.426   6.685  0.2518 -0.1872  0.4097
  122OSM   H11S12863   6.117   6.332   6.659  0.5932  0.3178 -0.7209
  122OSM   H11T12864   6.138   6.507   6.698  0.0403  0.2833 -1.1981
  122OSM   C12S12865   5.982   6.458   6.560 -0.1981 -0.7784 -0.3629
  122OSM   H12S12866   5.915   6.543   6.583 -2.5313 -2.2331 -1.4411
  122OSM   H12T12867   5.926   6.366   6.534  0.3946 -1.2094 -0.1569
  122OSM   C13S12868   6.061   6.478   6.433 -0.3806 -0.2936  0.7205
  122OSM   H13S12869   6.116   6.385   6.406  0.8121  1.2443 -2.7902
  122OSM   H13T12870   6.132   6.562   6.446 -0.6715 -0.1611  1.5404
  122OSM   C14S12871   5.988   6.500   6.299  0.3128 -0.6860  0.0202
  122OSM   H14S12872   5.938   6.599   6.300  1.7526  0.0621  0.5524
  122OSM   H14T12873   5.906   6.425   6.291  0.2663 -0.9381  2.2846
  122OSM   C15S12874   6.081   6.495   6.184 -0.0620  0.0877 -0.3318
  122OSM   H15S12875   6.144   6.404   6.191 -0.1565 -0.0035 -0.6360
  122OSM   H15T12876   6.135   6.591   6.167 -3.9055  2.2352 -1.5100
  122OSM   C16S12877   6.003   6.500   6.046 -0.3107 -0.5481 -0.6797
  122OSM   H16S12878   5.966   6.605   6.041  1.5600  0.1556 -0.6262
  122OSM   H16T12879   5.915   6.433   6.048 -1.3491  0.7650  0.9589
  122OSM   C17S12880   6.078   6.473   5.915  0.2158 -0.0445 -0.1561
  122OSM   H17S12881   6.132   6.377   5.908 -0.9932 -0.7083 -0.7349
  122OSM   H17T12882   6.153   6.553   5.901  0.0078  0.4755  1.5144
  122OSM   C18S12883   5.986   6.444   5.797 -0.6098  0.1360  0.1542
  122OSM   H18S12884   5.922   6.531   5.772  1.8574  2.1144  0.3598
  122OSM   H18T12885   5.910   6.366   5.819  0.8730 -1.6678 -0.8091
  122OSM   H18U12886   6.036   6.405   5.705 -0.7796 -2.0636  0.9317
  122OSM    C1F12887   6.030   5.740   7.446  0.1451 -0.7612 -0.1946
  122OSM     OF12888   5.941   5.699   7.520 -0.3051 -0.1056 -0.1783
  122OSM    C2F12889   6.057   5.669   7.324 -0.0318 -0.3754  0.3815
  122OSM    H2F12890   6.080   5.723   7.231  0.1209 -1.2716 -0.1157
  122OSM    H2G12891   5.966   5.609   7.302 -1.2957  1.7736 -0.5697
  122OSM    C3F12892   6.168   5.552   7.348  0.2376  0.0147  0.1453
  122OSM    H3F12893   6.130   5.481   7.425  0.4911  0.6856  0.9059
  122OSM    H3G12894   6.254   5.610   7.386  0.1512  0.8717 -0.9214
  122OSM    C4F12895   6.220   5.476   7.218 -0.2343  0.3715  0.0264
  122OSM    H4F12896   6.217   5.550   7.135 -0.0194  0.4609  0.0975
  122OSM    H4G12897   6.146   5.399   7.189  0.6596 -0.0205 -1.3303
  122OSM    C5F12898   6.361   5.424   7.241  0.0510  0.2021  0.2602
  122OSM    H5F12899   6.352   5.375   7.340 -2.1169 -2.0111 -0.9328
  122OSM    H5G12900   6.426   5.510   7.268  0.5367 -0.0195 -0.1714
  122OSM    C6F12901   6.418   5.338   7.129 -0.1518 -0.3611 -0.6111
  122OSM    H6F12902   6.344   5.266   7.089  1.3152 -1.3536 -1.6020
  122OSM    H6G12903   6.508   5.277   7.149 -1.4219 -1.9685  0.4624
  122OSM    C7F12904   6.465   5.435   7.015  0.2108 -0.1277 -0.8373
  122OSM    H7F12905   6.543   5.504   7.054 -1.3931  0.1116  2.3324
  122OSM    H7G12906   6.382   5.503   6.988  0.1216  0.2993  0.4309
  122OSM    C8F12907   6.507   5.359   6.885 -0.6108 -0.3115  0.3354
  122OSM    H8F12908   6.420   5.298   6.854 -1.6929  0.6366  1.4180
  122OSM    H8G12909   6.583   5.282   6.911 -0.0150 -0.2221 -1.0545
  122OSM    C9F12910   6.561   5.446   6.773 -0.5108 -0.7610 -0.0716
  122OSM    H9F12911   6.646   5.513   6.796 -0.4775 -0.9436  0.3479
  122OSM   C10F12912   6.526   5.444   6.645 -0.2647 -0.9384  0.4865
  122OSM   H10F12913   6.580   5.512   6.577 -0.7448 -0.9348  0.1070
  122OSM   C11F12914   6.413   5.352   6.601 -0.2096  0.5938  0.0402
  122OSM   H11F12915   6.319   5.356   6.660  0.8224 -1.0781  1.9355
  122OSM   H11G12916   6.451   5.248   6.608 -2.1056 -0.1808 -0.4799
  122OSM   C12F12917   6.373   5.393   6.455 -0.6913 -0.0046 -0.1974
  122OSM   H12F12918   6.299   5.322   6.412  0.6638 -0.9092 -1.1248
  122OSM   H12G12919   6.462   5.388   6.388  0.7529  2.1387  1.4093
  122OSM   C13F12920   6.306   5.537   6.448  0.1762  0.7568 -0.0561
  122OSM   H13F12921   6.384   5.614   6.462 -1.3350  2.8818 -2.4831
  122OSM   H13G12922   6.226   5.532   6.525 -0.3967 -0.8523 -0.6980
  122OSM   C14F12923   6.259   5.562   6.309 -0.2928  0.5203  0.3617
  122OSM   H14F12924   6.181   5.641   6.311  0.3935  1.3858 -2.3552
  122OSM   H14G12925   6.204   5.471   6.279  1.4798 -1.3576  2.4609
  122OSM   C15F12926   6.370   5.601   6.207  0.1721  0.9652 -0.4692
  122OSM   H15F12927   6.462   5.563   6.258  0.1890  0.4983 -0.8346
  122OSM   H15G12928   6.381   5.710   6.221  0.1577  1.0418 -1.0464
  122OSM   C16F12929   6.339   5.564   6.065 -0.1795  0.7525  0.0663
  122OSM   H16F12930   6.240   5.608   6.040 -1.0836  0.0878  2.2267
  122OSM   H16G12931   6.349   5.453   6.058  1.2409  0.8478  0.1381
  122OSM   C17F12932   6.448   5.616   5.971  0.3219 -0.2120  0.2342
  122OSM   H17F12933   6.538   5.577   6.024 -1.4383 -1.5375  2.4132
  122OSM   H17G12934   6.444   5.727   5.965 -1.5339 -0.1859  1.2855
  122OSM   C18F12935   6.445   5.546   5.831  0.7749  0.1583 -1.3700
  122OSM   H18F12936   6.543   5.568   5.784  0.7526  3.0236 -0.2700
  122OSM   H18G12937   6.359   5.588   5.775 -0.6902 -0.4569  0.3176
  122OSM   H18H12938   6.424   5.438   5.846 -0.9275  0.6790  0.3205
  123OSM      N12939   6.623   4.589   2.998  0.9219  0.1976 -0.8702
  123OSM    C1512940   6.704   4.674   2.905  0.1591  0.7318 -0.0408
  123OSM   H15A12941   6.757   4.614   2.832 -0.1758 -0.0539  0.3507
  123OSM   H15B12942   6.766   4.742   2.961  0.5547  0.4231 -0.0935
  123OSM   H15C12943   6.634   4.743   2.862 -1.5577  0.0680  1.5619
  123OSM    C1412944   6.535   4.501   2.914  0.0111 -0.4488  0.3359
  123OSM   H14A12945   6.587   4.470   2.825  0.7898 -0.3232  0.7444
  123OSM   H14B12946   6.448   4.557   2.883  1.3295  3.5181  3.0460
  123OSM   H14C12947   6.508   4.413   2.970 -0.8603  0.3589  1.2216
  123OSM    C1312948   6.717   4.497   3.077  0.2415 -0.2303  0.3234
  123OSM   H13A12949   6.776   4.554   3.148  0.7878  0.4115 -0.6328
  123OSM   H13B12950   6.782   4.439   3.014  1.4008  1.1729  0.1792
  123OSM   H13C12951   6.655   4.428   3.132 -2.9407  0.7147 -1.7969
  123OSM    C1212952   6.540   4.667   3.103 -0.2196  0.5999  0.5925
  123OSM   H12A12953   6.493   4.598   3.171 -3.0495  0.9103 -0.9086
  123OSM   H12B12954   6.465   4.715   3.042 -0.4200 -0.4619 -0.0195
  123OSM    C1112955   6.611   4.772   3.190 -0.4736  0.2792  0.2497
  123OSM   H11A12956   6.689   4.720   3.250  0.3610  2.6937  1.3883
  123OSM   H11B12957   6.537   4.818   3.259 -2.0009 -1.8406  0.1045
  123OSM      P12958   6.717   5.017   3.171 -0.0050  0.2926 -0.0426
  123OSM    O1312959   6.864   5.011   3.194  0.7654  0.4477 -0.4937
  123OSM    O1412960   6.670   5.124   3.084 -0.5735  0.1546  0.2319
  123OSM    O1112961   6.642   5.021   3.305 -0.2151  0.5616  0.5377
  123OSM    O1212962   6.672   4.877   3.116 -0.0656  0.2374 -0.2265
  123OSM    C1S12963   6.659   5.131   3.400  0.0845  0.3168  0.1955
  123OSM    H1S12964   6.581   5.208   3.378 -0.2408 -0.4369 -1.5304
  123OSM    H1T12965   6.764   5.165   3.397  0.0265  0.4527 -0.8705
  123OSM     NF12966   6.629   5.190   3.641 -0.0060  0.3823  0.5353
  123OSM    HNF12967   6.711   5.209   3.693 -0.6372 -0.8233  2.0329
  123OSM    C2S12968   6.638   5.076   3.545  0.0621 -0.5868 -0.2275
  123OSM    H2S12969   6.538   5.029   3.548  0.2386 -1.0500 -1.0645
  123OSM    C3S12970   6.741   4.967   3.577 -0.0721 -0.1315  0.0146
  123OSM    H3S12971   6.845   5.006   3.570 -0.5189  0.8726 -1.5762
  123OSM     O312972   6.736   4.860   3.482  0.0476 -0.1361  0.1040
  123OSM    HO312973   6.678   4.889   3.411  0.7820  0.7773 -0.1400
  123OSM    C4S12974   6.719   4.907   3.710 -0.4194 -0.6863  0.7922
  123OSM    H4S12975   6.623   4.931   3.758 -2.3495 -3.6404 -1.2305
  123OSM    C5S12976   6.813   4.830   3.776  0.6154  0.2999 -0.0985
  123OSM    H5S12977   6.905   4.799   3.724 -0.1099 -0.1225 -1.1699
  123OSM    C6S12978   6.795   4.778   3.910 -0.6959 -0.1746 -0.0920
  123OSM    H6S12979   6.884   4.775   3.977 -1.3330 -0.2163  0.7699
  123OSM    H6T12980   6.763   4.672   3.917  2.1529 -1.0324  3.6365
  123OSM    C7S12981   6.683   4.846   4.001  0.4702 -0.3737 -0.2551
  123OSM    H7S12982   6.590   4.837   3.941  1.1802  1.1062 -1.6534
  123OSM    H7T12983   6.700   4.956   4.009 -2.9434  0.1279  3.6016
  123OSM    C8S12984   6.656   4.787   4.145  0.0850 -0.8302 -0.2903
  123OSM    H8S12985   6.637   4.678   4.152  1.3869 -0.9852  1.6851
  123OSM    H8T12986   6.570   4.843   4.187  1.1900 -0.8465  2.2125
  123OSM    C9S12987   6.771   4.806   4.248 -0.1117  0.2249  0.8760
  123OSM    H9S12988   6.799   4.912   4.265 -1.7759  0.6523  1.1768
  123OSM    H9T12989   6.853   4.736   4.222 -1.8114 -1.4215 -0.3105
  123OSM   C10S12990   6.719   4.763   4.393 -0.4438 -0.0628  0.3120
  123OSM   H10S12991   6.694   4.655   4.391  0.9458 -0.4024 -1.2561
  123OSM   H10T12992   6.626   4.818   4.417  1.1063  1.4812  3.5021
  123OSM   C11S12993   6.826   4.787   4.502 -0.1788 -0.5555  0.5669
  123OSM   H11S12994   6.856   4.894   4.496  1.8039 -1.1062 -0.0032
  123OSM   H11T12995   6.915   4.724   4.481  0.3440  0.6403 -1.1020
  123OSM   C12S12996   6.782   4.760   4.647 -0.7662 -0.5083 -0.3462
  123OSM   H12S12997   6.788   4.650   4.658  1.9891 -0.1714  3.2695
  123OSM   H12T12998   6.679   4.799   4.664  0.0818  0.5860  2.8268
  123OSM   C13S12999   6.886   4.816   4.751  0.3964 -0.0879  0.5911
  123OSM   H13S13000   6.891   4.927   4.747  0.6799 -0.1300 -1.8548
  123OSM   H13T13001   6.983   4.781   4.711 -0.3378  0.2526 -1.6897
  123OSM   C14S13002   6.843   4.758   4.886 -0.1634 -0.3309 -0.2376
  123OSM   H14S13003   6.913   4.686   4.933 -0.5997  0.5906  1.9614
  123OSM   H14T13004   6.745   4.706   4.878 -0.2268 -0.1361 -0.7913
  123OSM   C15S13005   6.834   4.872   5.001  0.2065  1.0002  0.3993
  123OSM   H15S13006   6.920   4.941   4.992 -0.7521  2.2478  0.4565
  123OSM   H15T13007   6.848   4.810   5.092  0.3891 -0.2686 -0.4695
  123OSM   C16S13008   6.692   4.939   5.011 -0.7068 -0.2818  0.3746
  123OSM   H16S13009   6.617   4.860   5.026 -1.6859  0.1764 -1.7279
  123OSM   H16T13010   6.685   5.000   4.919 -1.3610 -0.1191  0.5308
  123OSM   C17S13011   6.691   5.025   5.140  0.4342  0.4390  0.5789
  123OSM   H17S13012   6.779   5.093   5.132  0.3174  0.4496 -0.7100
  123OSM   H17T13013   6.683   4.956   5.227  0.4738 -0.9678 -0.5108
  123OSM   C18S13014   6.577   5.119   5.145  0.0371  0.0372  0.2764
  123OSM   H18S13015   6.482   5.062   5.147  0.0389 -0.0110 -0.5623
  123OSM   H18T13016   6.571   5.177   5.050 -2.5836  0.7576  0.8117
  123OSM   H18U13017   6.572   5.188   5.233 -2.3577  0.2763  0.0092
  123OSM    C1F13018   6.521   5.268   3.628  0.1011 -0.2637 -0.2789
  123OSM     OF13019   6.430   5.250   3.545 -0.2783 -0.4620 -0.0362
  123OSM    C2F13020   6.509   5.379   3.719  0.2657 -0.4394 -0.7342
  123OSM    H2F13021   6.479   5.466   3.655 -1.5687  1.1905  2.1227
  123OSM    H2G13022   6.608   5.399   3.766 -0.2401  0.7106 -0.1055
  123OSM    C3F13023   6.397   5.366   3.820  0.0127 -0.3435  0.2772
  123OSM    H3F13024   6.428   5.288   3.893 -1.7697 -0.0312  1.4157
  123OSM    H3G13025   6.300   5.336   3.776 -0.5570  2.0380 -0.2625
  123OSM    C4F13026   6.377   5.504   3.888 -0.6249 -0.6950  0.2242
  123OSM    H4F13027   6.301   5.563   3.832 -0.0381 -0.9423 -0.8558
  123OSM    H4G13028   6.465   5.572   3.893 -1.4394  0.5832 -1.6015
  123OSM    C5F13029   6.296   5.490   4.020  0.8993 -0.4448 -0.0568
  123OSM    H5F13030   6.237   5.396   4.026  2.7698 -1.6078  1.2715
  123OSM    H5G13031   6.232   5.579   4.035  1.5071 -0.3749  2.5195
  123OSM    C6F13032   6.385   5.464   4.141 -0.1753  0.1678  0.3936
  123OSM    H6F13033   6.462   5.544   4.137 -0.6420  0.6012 -0.0091
  123OSM    H6G13034   6.433   5.369   4.109  0.4721  1.2273 -1.9947
  123OSM    C7F13035   6.325   5.454   4.282  0.2811 -0.0252  0.3245
  123OSM    H7F13036   6.249   5.373   4.282 -0.3442  0.5500 -0.6573
  123OSM    H7G13037   6.275   5.547   4.317  0.2860 -0.3054  1.1200
  123OSM    C8F13038   6.428   5.418   4.389  0.0372 -0.3495 -0.2588
  123OSM    H8F13039   6.487   5.327   4.365  0.9572  0.0405  0.5049
  123OSM    H8G13040   6.357   5.399   4.472 -1.2918  3.6563 -0.2590
  123OSM    C9F13041   6.530   5.526   4.408 -0.4047 -0.3710 -0.8133
  123OSM    H9F13042   6.607   5.534   4.330  0.9915 -1.4962  0.3880
  123OSM   C10F13043   6.546   5.599   4.520  0.1653 -0.4901 -0.5996
  123OSM   H10F13044   6.600   5.694   4.508 -0.7493  0.3874  1.6412
  123OSM   C11F13045   6.446   5.597   4.634  0.7395  0.1603  0.3010
  123OSM   H11F13046   6.344   5.576   4.597 -0.2717  2.2374  1.7170
  123OSM   H11G13047   6.440   5.695   4.687  0.7078 -0.2399  1.0374
  123OSM   C12F13048   6.465   5.495   4.749  0.3665  0.6039  0.5156
  123OSM   H12F13049   6.570   5.503   4.784  0.2593 -0.4258  1.0852
  123OSM   H12G13050   6.439   5.395   4.711  0.2308  1.0895 -0.7155
  123OSM   C13F13051   6.380   5.541   4.861 -0.1544 -0.3471 -0.9484
  123OSM   H13F13052   6.271   5.549   4.839 -0.5967  0.8261  1.2818
  123OSM   H13G13053   6.416   5.639   4.900  0.0491 -0.9348  0.4196
  123OSM   C14F13054   6.386   5.450   4.983 -0.7757 -0.2655 -0.5393
  123OSM   H14F13055   6.495   5.432   4.994 -0.8673 -0.0188  0.9690
  123OSM   H14G13056   6.336   5.351   4.970 -0.5539 -0.6395  1.2901
  123OSM   C15F13057   6.348   5.517   5.118  0.3277  0.3062 -0.2730
  123OSM   H15F13058   6.241   5.540   5.098  0.4135 -0.1628 -1.3225
  123OSM   H15G13059   6.405   5.607   5.148  0.9547 -0.3283  0.4871
  123OSM   C16F13060   6.350   5.417   5.231  0.0516  0.5225  0.8362
  123OSM   H16F13061   6.450   5.377   5.257 -1.6941 -3.6979  1.9882
  123OSM   H16G13062   6.295   5.321   5.220  0.7331  0.0574  1.3572
  123OSM   C17F13063   6.280   5.480   5.352  0.9062  0.1264  0.5473
  123OSM   H17F13064   6.179   5.433   5.353  1.8891 -2.1052  1.1805
  123OSM   H17G13065   6.282   5.591   5.343  0.8521  0.0611 -0.3449
  123OSM   C18F13066   6.334   5.439   5.490 -0.2466  0.3868  0.1865
  123OSM   H18F13067   6.376   5.336   5.492 -0.1092  0.3547 -1.8753
  123OSM   H18G13068   6.262   5.447   5.574 -0.0842  3.0101  0.1593
  123OSM   H18H13069   6.428   5.494   5.516 -0.6692  0.0974  2.5912
  124OSM      N13070   6.295   0.944   2.880  0.3939  0.2348  0.2434
  124OSM    C1513071   6.330   0.964   2.737 -0.7050 -0.2727  0.2920
  124OSM   H15A13072   6.418   1.025   2.724 -0.0617 -1.3035 -0.3791
  124OSM   H15B13073   6.254   1.008   2.674  0.2955  1.0598 -0.0221
  124OSM   H15C13074   6.369   0.870   2.701  1.3678  0.6870 -0.1003
  124OSM    C1413075   6.182   0.847   2.873  0.5290 -0.2673  0.4349
  124OSM   H14A13076   6.154   0.814   2.972 -0.6810  1.3987  0.6848
  124OSM   H14B13077   6.187   0.760   2.809  0.2917  0.2535 -0.2949
  124OSM   H14C13078   6.097   0.904   2.839  1.0116  0.4716  0.4445
  124OSM    C1313079   6.414   0.878   2.942 -0.1744  0.0202  0.5249
  124OSM   H13A13080   6.399   0.878   3.049 -2.5766 -0.9308  0.2447
  124OSM   H13B13081   6.499   0.941   2.921  0.6734 -0.5642  2.0623
  124OSM   H13C13082   6.440   0.780   2.903  2.5806  1.5972 -2.0607
  124OSM    C1213083   6.265   1.073   2.955 -0.2037 -0.3281  0.3393
  124OSM   H12A13084   6.177   1.125   2.921 -0.9446 -0.7461  1.5460
  124OSM   H12B13085   6.345   1.138   2.924 -2.2192  0.9307 -2.6152
  124OSM    C1113086   6.260   1.065   3.110  0.1428 -0.7744  0.5220
  124OSM   H11A13087   6.191   0.981   3.133 -0.1353 -0.9334 -0.8038
  124OSM   H11B13088   6.213   1.160   3.142  1.8878  0.7193 -1.1442
  124OSM      P13089   6.487   1.176   3.182  0.2451 -0.1184 -0.4263
  124OSM    O1313090   6.623   1.123   3.192  0.3881  0.4031 -0.8856
  124OSM    O1413091   6.465   1.286   3.088 -0.1387  0.0115 -0.1655
  124OSM    O1113092   6.456   1.223   3.326 -0.0354 -0.5943 -0.2058
  124OSM    O1213093   6.388   1.057   3.163  0.3127 -0.1937 -0.1923
  124OSM    C1S13094   6.446   1.120   3.427 -0.2248  0.0873  0.5751
  124OSM    H1S13095   6.540   1.060   3.433  0.7744  1.4891 -0.5277
  124OSM    H1T13096   6.362   1.056   3.394  0.9052 -1.8899  1.3479
  124OSM     NF13097   6.407   1.054   3.674 -0.0916  0.2837  0.5769
  124OSM    HNF13098   6.318   1.024   3.707 -0.8853 -2.0324 -3.1031
  124OSM    C2S13099   6.406   1.160   3.574 -0.7059  0.7359  0.3822
  124OSM    H2S13100   6.484   1.223   3.620 -1.5908  0.3671  2.4949
  124OSM    C3S13101   6.270   1.244   3.577 -0.5396  1.0138  0.7663
  124OSM    H3S13102   6.190   1.186   3.527  1.5205 -2.2436  0.9635
  124OSM     O313103   6.262   1.363   3.491 -0.8501  0.2044 -0.8136
  124OSM    HO313104   6.335   1.358   3.429 -0.5570  4.4478 -1.0822
  124OSM    C4S13105   6.230   1.278   3.722 -0.0538  0.6918 -0.0562
  124OSM    H4S13106   6.145   1.210   3.742  3.4538 -4.6428 -1.2043
  124OSM    C5S13107   6.280   1.373   3.807  0.1189 -0.0056  0.1271
  124OSM    H5S13108   6.366   1.435   3.775 -1.4052  3.4857  2.1964
  124OSM    C6S13109   6.218   1.411   3.937 -0.3125  0.0973 -0.8155
  124OSM    H6S13110   6.142   1.335   3.963  0.5771 -0.9768 -1.2874
  124OSM    H6T13111   6.171   1.511   3.922 -1.4112 -0.6916 -2.9877
  124OSM    C7S13112   6.322   1.407   4.054  0.0992  0.3617 -0.4943
  124OSM    H7S13113   6.421   1.442   4.016  0.7211 -0.3413  0.4480
  124OSM    H7T13114   6.343   1.302   4.081 -0.3375  0.7044  1.3003
  124OSM    C8S13115   6.278   1.476   4.186 -0.1479 -0.5754 -1.2896
  124OSM    H8S13116   6.176   1.434   4.198  0.2659 -1.3920 -0.5075
  124OSM    H8T13117   6.272   1.582   4.155 -1.2084  0.5706  2.4189
  124OSM    C9S13118   6.369   1.462   4.312 -0.3184 -0.0464  0.8532
  124OSM    H9S13119   6.472   1.501   4.292 -0.0459 -1.2834 -0.3566
  124OSM    H9T13120   6.388   1.357   4.341 -0.6546 -0.4621 -0.3679
  124OSM   C10S13121   6.304   1.526   4.433 -0.5382  0.1585 -0.0166
  124OSM   H10S13122   6.216   1.467   4.465 -1.1521  1.3665  0.5777
  124OSM   H10T13123   6.260   1.621   4.397  1.7414  1.9173  1.5843
  124OSM   C11S13124   6.391   1.542   4.554  0.0137  0.1727  0.3948
  124OSM   H11S13125   6.490   1.581   4.520  0.2424 -1.1009 -0.4616
  124OSM   H11T13126   6.406   1.442   4.600 -2.0312 -1.3529 -2.0189
  124OSM   C12S13127   6.332   1.639   4.656  0.9669  0.3841  0.0878
  124OSM   H12S13128   6.292   1.728   4.603  1.1435 -0.5921 -1.7848
  124OSM   H12T13129   6.410   1.669   4.729  1.7862 -1.4823  0.0396
  124OSM   C13S13130   6.220   1.576   4.739  1.0759  0.6397 -0.4884
  124OSM   H13S13131   6.173   1.498   4.675  1.9761  1.5716 -2.3423
  124OSM   H13T13132   6.144   1.650   4.772 -0.4657 -0.7904 -0.7086
  124OSM   C14S13133   6.268   1.496   4.865 -0.1918  0.4619 -0.0815
  124OSM   H14S13134   6.305   1.572   4.936  0.9771 -1.8354  1.9304
  124OSM   H14T13135   6.342   1.417   4.837 -2.0751 -1.5874  0.4062
  124OSM   C15S13136   6.150   1.423   4.934  0.4401 -0.6290  1.0540
  124OSM   H15S13137   6.110   1.338   4.876 -1.8052  1.2354 -0.2785
  124OSM   H15T13138   6.076   1.505   4.946  0.6047 -0.4773  1.0349
  124OSM   C16S13139   6.185   1.374   5.075  0.0839  0.8688 -0.0833
  124OSM   H16S13140   6.107   1.315   5.127 -0.8798  1.6299 -0.6280
  124OSM   H16T13141   6.189   1.468   5.135  0.5492 -0.4136  1.9914
  124OSM   C17S13142   6.316   1.303   5.083 -0.2138 -0.4568  0.0928
  124OSM   H17S13143   6.401   1.361   5.043  0.2352 -1.6091 -0.6792
  124OSM   H17T13144   6.303   1.218   5.013 -1.6664  0.7899 -1.2127
  124OSM   C18S13145   6.352   1.264   5.222  0.3657 -0.1109 -0.2995
  124OSM   H18S13146   6.453   1.218   5.220  0.2842 -0.2753 -1.1212
  124OSM   H18T13147   6.280   1.195   5.270  0.7115 -0.4524 -0.2637
  124OSM   H18U13148   6.364   1.351   5.290 -0.7938 -0.0716 -0.1338
  124OSM    C1F13149   6.509   0.979   3.713  0.0932 -0.4672 -0.0375
  124OSM     OF13150   6.615   1.001   3.658 -0.4017 -0.5053  0.7096
  124OSM    C2F13151   6.486   0.885   3.823 -0.3450  0.8924  0.3707
  124OSM    H2F13152   6.581   0.830   3.840 -2.0024 -1.7672  1.6304
  124OSM    H2G13153   6.413   0.810   3.785  2.3181 -1.9611  0.5007
  124OSM    C3F13154   6.430   0.939   3.951 -0.0906  0.3617 -0.2921
  124OSM    H3F13155   6.336   0.994   3.930 -1.1574 -1.0256  0.6478
  124OSM    H3G13156   6.499   1.007   4.004  1.0760  0.0007 -1.3154
  124OSM    C4F13157   6.364   0.815   4.025 -0.7601  0.8880  0.3127
  124OSM    H4F13158   6.444   0.745   4.056 -1.4080  0.5325  1.2173
  124OSM    H4G13159   6.282   0.774   3.962  1.5588 -0.9103 -1.7478
  124OSM    C5F13160   6.303   0.871   4.155  0.0887  0.2395 -0.6106
  124OSM    H5F13161   6.244   0.793   4.207 -0.9073  1.5000  0.2316
  124OSM    H5G13162   6.233   0.955   4.134 -0.3779 -0.1210 -0.5200
  124OSM    C6F13163   6.405   0.909   4.259 -0.1577 -0.1463 -0.7585
  124OSM    H6F13164   6.481   0.985   4.228  0.9349  0.6177  3.1991
  124OSM    H6G13165   6.470   0.827   4.296  0.8184  0.7070 -0.5135
  124OSM    C7F13166   6.350   0.972   4.384 -0.4524 -0.3893 -0.5059
  124OSM    H7F13167   6.271   0.912   4.434 -0.1514 -0.9029 -0.6388
  124OSM    H7G13168   6.288   1.054   4.340  2.1113  1.1305 -1.4990
  124OSM    C8F13169   6.454   1.034   4.480  0.4351  0.4290  0.0038
  124OSM    H8F13170   6.540   1.067   4.419  0.6779 -0.8124 -0.3382
  124OSM    H8G13171   6.492   0.953   4.545  0.1886  0.0587 -0.3130
  124OSM    C9F13172   6.394   1.146   4.563  1.1934 -0.2777 -0.1268
  124OSM    H9F13173   6.354   1.231   4.506  0.9311 -0.0613  0.3677
  124OSM   C10F13174   6.379   1.153   4.696  0.4981  0.3580 -0.4747
  124OSM   H10F13175   6.325   1.236   4.744  0.2318 -0.4619  0.6992
  124OSM   C11F13176   6.410   1.040   4.798 -0.0008 -0.4012  0.9358
  124OSM   H11F13177   6.474   1.094   4.870 -0.6518  1.2741  0.3036
  124OSM   H11G13178   6.472   0.962   4.748 -0.5944  0.4591 -1.2478
  124OSM   C12F13179   6.286   0.969   4.852  0.4798 -0.1901 -0.6509
  124OSM   H12F13180   6.234   0.925   4.764  0.5756  0.2579 -0.9323
  124OSM   H12G13181   6.230   1.042   4.915  0.4705 -0.3897 -0.4298
  124OSM   C13F13182   6.324   0.847   4.932 -0.2140  0.0164  0.2264
  124OSM   H13F13183   6.362   0.764   4.870 -3.5214 -1.8064  0.3991
  124OSM   H13G13184   6.228   0.804   4.969 -0.3638 -0.2396 -0.4518
  124OSM   C14F13185   6.396   0.892   5.067 -0.4508 -0.3026  0.4638
  124OSM   H14F13186   6.324   0.953   5.125 -1.8596  1.5166 -2.8608
  124OSM   H14G13187   6.484   0.953   5.036 -0.9234  0.6495  0.9743
  124OSM   C15F13188   6.434   0.774   5.159 -0.2975  0.1510 -0.0262
  124OSM   H15F13189   6.534   0.739   5.128 -0.3428 -0.6384  0.6874
  124OSM   H15G13190   6.361   0.691   5.158 -1.3983  0.9635  2.5730
  124OSM   C16F13191   6.449   0.812   5.309  0.2007  0.3442 -0.2164
  124OSM   H16F13192   6.519   0.736   5.350  1.9554  0.4620 -2.7586
  124OSM   H16G13193   6.354   0.806   5.366  0.7339 -4.8387  0.5601
  124OSM   C17F13194   6.521   0.947   5.330 -0.1282  0.7840 -0.0592
  124OSM   H17F13195   6.485   1.025   5.260 -0.2190  0.4568 -0.3761
  124OSM   H17G13196   6.628   0.939   5.300 -0.0860  2.1870 -0.3492
  124OSM   C18F13197   6.499   0.996   5.472  0.4515 -0.1288 -0.0461
  124OSM   H18F13198   6.562   1.085   5.493 -0.2077  0.4362 -0.4791
  124OSM   H18G13199   6.528   0.910   5.537  0.7719 -1.7828 -2.2449
  124OSM   H18H13200   6.391   1.021   5.477 -0.2158 -2.5650 -0.8312
  125OSM      N13201   6.801   3.637   3.006  0.1436  0.2121  0.3581
  125OSM    C1513202   6.683   3.666   3.080  0.1687 -0.0058  0.0421
  125OSM   H15A13203   6.710   3.710   3.175 -1.0072 -0.3497  0.5601
  125OSM   H15B13204   6.623   3.577   3.091  0.8824 -0.6191 -0.8886
  125OSM   H15C13205   6.624   3.746   3.036 -0.0136  0.8018  1.6793
  125OSM    C1413206   6.869   3.507   3.049  0.1477 -0.7036 -0.5756
  125OSM   H14A13207   6.900   3.499   3.152 -3.4203  0.4459  0.7485
  125OSM   H14B13208   6.949   3.482   2.982 -2.9700 -0.6142 -4.7423
  125OSM   H14C13209   6.790   3.435   3.035 -0.8403  0.3847 -0.8117
  125OSM    C1313210   6.762   3.609   2.866  0.1140 -0.1270 -0.0525
  125OSM   H13A13211   6.742   3.699   2.809 -1.3330  0.9145  1.9755
  125OSM   H13B13212   6.676   3.544   2.864 -0.2999  0.4181 -0.1862
  125OSM   H13C13213   6.834   3.552   2.808 -0.3396 -0.9837  0.2067
  125OSM    C1213214   6.902   3.750   3.004  0.2783  0.0740 -1.0157
  125OSM   H12A13215   6.860   3.832   2.948 -3.1641 -1.0668 -0.3445
  125OSM   H12B13216   6.987   3.714   2.948  0.5458 -0.3032 -0.3812
  125OSM    C1113217   6.958   3.804   3.141 -0.5644  0.1971 -0.4226
  125OSM   H11A13218   7.047   3.865   3.113  1.6173 -0.8435  3.5737
  125OSM   H11B13219   7.006   3.716   3.187 -0.8986  0.5561  0.6278
  125OSM      P13220   6.792   3.998   3.201 -0.4646 -0.3518 -0.1590
  125OSM    O1313221   6.876   4.085   3.116 -0.0311 -0.0859  0.2239
  125OSM    O1413222   6.655   3.971   3.155  0.2189 -0.7290 -0.0397
  125OSM    O1113223   6.787   4.059   3.348 -0.0154  0.0255  0.4547
  125OSM    O1213224   6.873   3.864   3.230 -0.3596 -0.3646  0.4332
  125OSM    C1S13225   6.687   4.036   3.448  0.2770  0.3896  0.3207
  125OSM    H1S13226   6.718   3.962   3.525 -0.1249 -0.5989 -0.4542
  125OSM    H1T13227   6.604   3.985   3.395  2.4507  0.7891 -3.9329
  125OSM     NF13228   6.550   4.141   3.635 -0.7329 -0.6212  0.8016
  125OSM    HNF13229   6.454   4.167   3.627 -0.4219  0.5059  0.6509
  125OSM    C2S13230   6.642   4.167   3.521  0.0079  0.0299  0.4118
  125OSM    H2S13231   6.741   4.192   3.564  1.1953  0.3244 -2.3090
  125OSM    C3S13232   6.605   4.285   3.427  0.2317  0.3011  0.1929
  125OSM    H3S13233   6.516   4.254   3.369  2.1063 -0.9588 -2.2086
  125OSM     O313234   6.695   4.328   3.324  0.2195 -0.0847  0.5797
  125OSM    HO313235   6.766   4.263   3.319  3.0381  2.4921  2.8187
  125OSM    C4S13236   6.581   4.415   3.509  0.6030 -0.3460  0.3569
  125OSM    H4S13237   6.656   4.449   3.581  0.7471 -1.3182  0.6780
  125OSM    C5S13238   6.463   4.478   3.482  0.3810  0.2677 -0.0856
  125OSM    H5S13239   6.401   4.429   3.406  1.8697 -1.3705 -0.3005
  125OSM    C6S13240   6.401   4.606   3.533  0.1278 -0.2979 -0.5501
  125OSM    H6S13241   6.290   4.612   3.531  0.1436  0.2557 -0.1350
  125OSM    H6T13242   6.446   4.693   3.480  0.0145 -0.9382 -1.7147
  125OSM    C7S13243   6.438   4.630   3.688 -0.3004  0.0344  0.1517
  125OSM    H7S13244   6.398   4.730   3.717 -1.1664 -0.6100  1.2958
  125OSM    H7T13245   6.548   4.623   3.701 -0.6256 -1.5107  2.7910
  125OSM    C8S13246   6.362   4.532   3.784  0.6080 -0.0061  0.4827
  125OSM    H8S13247   6.397   4.427   3.773  1.9893  0.3116  1.5132
  125OSM    H8T13248   6.257   4.549   3.753  0.8875  0.5679 -0.1765
  125OSM    C9S13249   6.383   4.566   3.934 -0.3638  0.0516 -0.2612
  125OSM    H9S13250   6.402   4.675   3.950  0.1872 -0.0630 -0.0940
  125OSM    H9T13251   6.476   4.518   3.972  0.0283  1.1247  0.1849
  125OSM   C10S13252   6.272   4.526   4.033 -0.3981 -0.7122  1.1339
  125OSM   H10S13253   6.285   4.416   4.042 -0.1127 -1.0626 -2.3560
  125OSM   H10T13254   6.169   4.549   3.996  0.2138 -2.4708 -2.0717
  125OSM   C11S13255   6.292   4.592   4.175 -0.3127 -0.2374 -0.2132
  125OSM   H11S13256   6.276   4.701   4.163  2.2269  0.1288 -0.8593
  125OSM   H11T13257   6.400   4.584   4.200 -0.8070 -2.8519  1.5557
  125OSM   C12S13258   6.212   4.534   4.283  0.1410 -0.5206 -0.1258
  125OSM   H12S13259   6.229   4.427   4.309 -1.8509 -0.9104 -0.2477
  125OSM   H12T13260   6.109   4.540   4.241 -0.3897 -1.2005  1.0011
  125OSM   C13S13261   6.221   4.616   4.410 -0.0384 -0.0951  0.3737
  125OSM   H13S13262   6.208   4.725   4.391 -1.5035 -0.5382 -1.4820
  125OSM   H13T13263   6.325   4.615   4.448  0.0587 -0.2041  0.1052
  125OSM   C14S13264   6.128   4.578   4.521 -0.1597 -0.1651  0.7131
  125OSM   H14S13265   6.159   4.476   4.553  0.3442 -0.6511 -1.2408
  125OSM   H14T13266   6.027   4.578   4.474 -0.1025  4.4716  0.1425
  125OSM   C15S13267   6.136   4.683   4.631  0.3868  0.3102  0.1420
  125OSM   H15S13268   6.101   4.778   4.585  1.3514  1.1537  1.1062
  125OSM   H15T13269   6.242   4.707   4.651  1.3170 -3.5859  0.7657
  125OSM   C16S13270   6.071   4.648   4.760 -0.3521  0.4903  0.1776
  125OSM   H16S13271   6.134   4.572   4.812 -2.0774 -1.0498  0.1627
  125OSM   H16T13272   5.975   4.593   4.747  0.5583 -0.8836 -1.0404
  125OSM   C17S13273   6.053   4.757   4.872 -0.1036  1.2641  0.8681
  125OSM   H17S13274   6.005   4.849   4.833 -0.1492  2.0808  2.7492
  125OSM   H17T13275   6.151   4.785   4.916  0.7740  2.0374 -1.4140
  125OSM   C18S13276   5.961   4.722   4.989 -0.1500  0.3298  0.1943
  125OSM   H18S13277   5.853   4.722   4.964 -0.4263 -4.3715  0.5088
  125OSM   H18T13278   5.973   4.786   5.079  0.5368  0.0846  0.2828
  125OSM   H18U13279   5.985   4.620   5.027 -0.8703  0.2632  0.4807
  125OSM    C1F13280   6.587   4.068   3.737  0.4126 -0.5589 -0.3223
  125OSM     OF13281   6.703   4.029   3.746  0.5958 -0.1809  0.5608
  125OSM    C2F13282   6.477   4.030   3.834  0.7443 -0.5973  0.1566
  125OSM    H2F13283   6.440   3.926   3.826  0.7409 -0.7455  1.8051
  125OSM    H2G13284   6.394   4.102   3.813  2.0561  1.9597  2.9389
  125OSM    C3F13285   6.511   4.054   3.979 -0.3880 -0.7516  0.4485
  125OSM    H3F13286   6.611   4.006   3.991  0.8255  1.4426 -0.2600
  125OSM    H3G13287   6.433   4.012   4.045  1.1220 -0.3409  2.6066
  125OSM    C4F13288   6.526   4.200   4.033 -0.3348 -0.4748  0.2822
  125OSM    H4F13289   6.428   4.252   4.029  0.3195  0.7428 -0.7500
  125OSM    H4G13290   6.590   4.267   3.972 -0.0938 -0.1375  0.8990
  125OSM    C5F13291   6.562   4.201   4.184  0.2730 -0.5190 -0.7488
  125OSM    H5F13292   6.667   4.167   4.185  0.2072 -1.0139 -3.2239
  125OSM    H5G13293   6.490   4.134   4.238  0.0110 -0.2979 -0.8207
  125OSM    C6F13294   6.554   4.340   4.244 -0.2232  0.5664 -0.6020
  125OSM    H6F13295   6.453   4.382   4.260  0.3431  1.3870  1.1077
  125OSM    H6G13296   6.604   4.413   4.177  0.3070  2.1140  1.3940
  125OSM    C7F13297   6.631   4.339   4.384 -0.1611 -0.0875  0.3026
  125OSM    H7F13298   6.638   4.445   4.417  0.1522  0.0706 -0.2456
  125OSM    H7G13299   6.737   4.304   4.384 -0.2981 -0.5114  0.2648
  125OSM    C8F13300   6.553   4.271   4.502 -0.2325 -0.4244 -0.4920
  125OSM    H8F13301   6.620   4.269   4.590 -1.1495  0.0876  0.2282
  125OSM    H8G13302   6.531   4.163   4.486  0.5302 -0.8214  0.9701
  125OSM    C9F13303   6.424   4.341   4.533 -0.3430  0.7742  0.4077
  125OSM    H9F13304   6.349   4.332   4.452  0.4100 -2.3650 -0.0742
  125OSM   C10F13305   6.407   4.403   4.651  0.1689  0.3305  0.5166
  125OSM   H10F13306   6.313   4.453   4.678  0.9732  1.7710  0.7501
  125OSM   C11F13307   6.521   4.432   4.749 -0.7108  0.4483 -0.1031
  125OSM   H11F13308   6.613   4.462   4.694 -1.5353  1.4667 -0.9653
  125OSM   H11G13309   6.545   4.342   4.810 -2.4571  1.7981  2.7684
  125OSM   C12F13310   6.486   4.546   4.842  0.8698  0.1841 -0.1116
  125OSM   H12F13311   6.436   4.628   4.786 -2.0823 -0.3371  1.5669
  125OSM   H12G13312   6.583   4.586   4.880  1.2656  0.6646 -1.5734
  125OSM   C13F13313   6.397   4.500   4.950  0.7777  0.3116  0.5073
  125OSM   H13F13314   6.439   4.405   4.989  1.3132  0.2932 -0.0885
  125OSM   H13G13315   6.296   4.477   4.909  1.6254  0.1109 -1.5810
  125OSM   C14F13316   6.379   4.591   5.070 -0.2267  0.5754  0.0625
  125OSM   H14F13317   6.352   4.693   5.036 -1.0156  1.3706  2.7588
  125OSM   H14G13318   6.480   4.591   5.116 -1.6114  0.0126  3.4155
  125OSM   C15F13319   6.265   4.549   5.169 -0.0656  0.1639 -0.2736
  125OSM   H15F13320   6.172   4.553   5.108 -0.8754 -0.5844  0.8868
  125OSM   H15G13321   6.256   4.627   5.247  0.6375 -1.2203  1.2379
  125OSM   C16F13322   6.284   4.416   5.248 -0.0344  0.0784 -0.4942
  125OSM   H16F13323   6.375   4.440   5.306 -1.4557  5.0445  0.0879
  125OSM   H16G13324   6.302   4.331   5.179  1.4277 -0.4634  0.5042
  125OSM   C17F13325   6.161   4.374   5.338 -0.3973  0.3941  0.3384
  125OSM   H17F13326   6.131   4.472   5.381  2.0038  0.2681  2.5698
  125OSM   H17G13327   6.188   4.290   5.407 -0.5812 -1.9035 -2.2179
  125OSM   C18F13328   6.043   4.329   5.251  0.3542 -0.7654 -0.0188
  125OSM   H18F13329   6.058   4.237   5.192 -1.2898 -1.6274  0.8405
  125OSM   H18G13330   6.010   4.410   5.182  2.7083 -0.2783 -0.6762
  125OSM   H18H13331   5.956   4.322   5.321 -0.3164  1.2061 -0.5896
  126OSM      N13332   4.666   5.135   2.888  0.7913  0.0385  0.6829
  126OSM    C1513333   4.550   5.223   2.859 -0.0700  0.0648  0.1894
  126OSM   H15A13334   4.584   5.296   2.787 -2.6154 -0.0032 -1.2081
  126OSM   H15B13335   4.523   5.273   2.951  2.5105  1.6712  0.1875
  126OSM   H15C13336   4.466   5.173   2.814  0.2507  0.8730 -1.3571
  126OSM    C1413337   4.754   5.224   2.963  0.3880  0.2386 -0.1887
  126OSM   H14A13338   4.758   5.322   2.918 -0.2497  0.9686  1.2904
  126OSM   H14B13339   4.854   5.182   2.967  1.4173  2.4586 -1.0765
  126OSM   H14C13340   4.725   5.243   3.065  2.3412 -0.8208  0.6085
  126OSM    C1313341   4.624   5.015   2.968 -0.4688 -1.2013  0.2295
  126OSM   H13A13342   4.710   4.955   2.996 -0.4092 -0.6652  1.2127
  126OSM   H13B13343   4.557   4.946   2.918 -0.7957  0.5942 -1.9571
  126OSM   H13C13344   4.587   5.049   3.063  0.1041  1.6963 -0.4865
  126OSM    C1213345   4.734   5.097   2.754 -0.2093 -0.0490  0.4566
  126OSM   H12A13346   4.757   5.188   2.700 -1.4685  0.0314  0.0169
  126OSM   H12B13347   4.663   5.048   2.690  0.6936 -0.2466 -0.4372
  126OSM    C1113348   4.859   5.010   2.763 -0.2408 -0.2545 -0.0918
  126OSM   H11A13349   4.886   4.964   2.665 -0.0188  0.0455 -0.1739
  126OSM   H11B13350   4.837   4.923   2.828 -2.4336  0.3900  0.1296
  126OSM      P13351   5.097   5.120   2.748  0.0767 -0.2952 -0.2658
  126OSM    O1313352   5.131   5.007   2.658 -0.5238 -0.2342  0.4168
  126OSM    O1413353   5.061   5.249   2.679  1.0052 -0.4031 -0.0022
  126OSM    O1113354   5.205   5.141   2.853  0.0412 -0.6349 -0.2322
  126OSM    O1213355   4.971   5.077   2.826 -0.4461 -0.0180 -0.1750
  126OSM    C1S13356   5.203   5.239   2.952  0.3796  0.0530 -0.4233
  126OSM    H1S13357   5.136   5.326   2.939 -1.7254 -0.8102  3.2225
  126OSM    H1T13358   5.307   5.277   2.951  0.2872  0.3585  0.7692
  126OSM     NF13359   5.199   5.280   3.184 -0.0664  0.3865 -0.7620
  126OSM    HNF13360   5.285   5.304   3.229 -1.9787  3.6772  1.5834
  126OSM    C2S13361   5.197   5.172   3.087 -0.0095 -0.3962 -0.3978
  126OSM    H2S13362   5.098   5.123   3.101  0.4812 -1.1540  0.6532
  126OSM    C3S13363   5.314   5.071   3.103  0.4539  0.2493  0.5723
  126OSM    H3S13364   5.414   5.113   3.082 -0.0283  1.9325  1.4296
  126OSM     O313365   5.314   4.956   3.012  0.3807 -0.1262  0.4421
  126OSM    HO313366   5.253   4.969   2.939  0.6245 -2.5558 -0.2927
  126OSM    C4S13367   5.296   5.021   3.247 -0.0617 -0.4469  0.0922
  126OSM    H4S13368   5.213   4.954   3.271  0.3714 -0.8883  0.3843
  126OSM    C5S13369   5.384   5.054   3.348  0.5171  0.3080  0.1239
  126OSM    H5S13370   5.475   5.104   3.312 -0.3370  2.2245  0.4738
  126OSM    C6S13371   5.389   5.006   3.491  0.1576  0.2761  0.0321
  126OSM    H6S13372   5.398   5.098   3.552  0.7285 -0.1416  0.5939
  126OSM    H6T13373   5.462   4.926   3.513 -0.2815 -0.0355  0.3879
  126OSM    C7S13374   5.250   4.950   3.540 -0.4783 -0.1148  0.0305
  126OSM    H7S13375   5.224   4.850   3.498 -0.6037  0.0733 -0.3510
  126OSM    H7T13376   5.179   5.031   3.511  0.4651  0.7496  0.0814
  126OSM    C8S13377   5.230   4.933   3.687  0.9802  0.5992  0.6581
  126OSM    H8S13378   5.128   4.894   3.709  1.2094 -1.3928 -1.4325
  126OSM    H8T13379   5.240   5.033   3.735 -0.6344 -0.3930  3.2997
  126OSM    C9S13380   5.329   4.842   3.754  0.2256  0.6743  0.5520
  126OSM    H9S13381   5.425   4.898   3.756  1.1679 -0.8727  0.3990
  126OSM    H9T13382   5.341   4.753   3.690 -2.6220  0.8959 -0.4414
  126OSM   C10S13383   5.288   4.809   3.897 -0.1411  0.0432  0.1723
  126OSM   H10S13384   5.190   4.757   3.909  0.1908 -0.3855  1.0594
  126OSM   H10T13385   5.276   4.905   3.953  1.3375  0.8060 -0.7493
  126OSM   C11S13386   5.398   4.730   3.963 -0.4012 -0.3121 -0.2089
  126OSM   H11S13387   5.487   4.779   3.918 -0.1697  0.6116  1.1871
  126OSM   H11T13388   5.397   4.621   3.939 -0.2574 -0.3373 -0.0970
  126OSM   C12S13389   5.404   4.749   4.109  0.4972 -0.4164 -0.5081
  126OSM   H12S13390   5.417   4.858   4.127  0.9629 -0.0640 -2.6906
  126OSM   H12T13391   5.498   4.705   4.149  1.8617  3.7969  1.6690
  126OSM   C13S13392   5.293   4.685   4.190  0.3167  0.4508  0.2260
  126OSM   H13S13393   5.298   4.574   4.177  0.9150  0.6543 -1.3818
  126OSM   H13T13394   5.199   4.715   4.138  1.3954  3.0158 -0.3791
  126OSM   C14S13395   5.302   4.747   4.328  0.0515  0.3198 -0.8155
  126OSM   H14S13396   5.284   4.856   4.318 -0.3878  0.9690  4.2203
  126OSM   H14T13397   5.407   4.747   4.365  0.7200  0.4300 -2.6161
  126OSM   C15S13398   5.211   4.687   4.430  0.3322 -0.6585 -0.1098
  126OSM   H15S13399   5.188   4.581   4.403 -1.6794 -0.1343 -0.6170
  126OSM   H15T13400   5.123   4.754   4.432  0.9906  0.3209 -1.7338
  126OSM   C16S13401   5.278   4.670   4.561  0.6548 -0.2172  0.4392
  126OSM   H16S13402   5.331   4.766   4.578 -1.2608  1.1000 -0.6857
  126OSM   H16T13403   5.361   4.596   4.549  1.6245  0.9969 -0.6897
  126OSM   C17S13404   5.191   4.644   4.692 -0.6359 -0.3930 -0.1958
  126OSM   H17S13405   5.137   4.547   4.687 -0.9925 -0.1366 -1.9554
  126OSM   H17T13406   5.106   4.715   4.697 -1.5239 -1.4607  0.3005
  126OSM   C18S13407   5.276   4.672   4.824 -0.3103 -0.5189  0.3080
  126OSM   H18S13408   5.325   4.772   4.826  0.1803 -0.6341 -2.1170
  126OSM   H18T13409   5.361   4.604   4.842  0.9477  1.0430  0.4472
  126OSM   H18U13410   5.207   4.659   4.910 -1.9471 -2.3201 -1.1710
  126OSM    C1F13411   5.094   5.359   3.198 -0.1853 -0.4209  0.3010
  126OSM     OF13412   4.987   5.323   3.143  0.1477 -0.5659 -0.2420
  126OSM    C2F13413   5.114   5.479   3.283 -0.6691 -0.3498  0.0953
  126OSM    H2F13414   5.171   5.549   3.217 -2.1639 -0.9228 -1.9001
  126OSM    H2G13415   5.171   5.436   3.368 -1.1050 -1.4673 -0.1616
  126OSM    C3F13416   4.989   5.546   3.346  0.6654 -0.5233  0.0612
  126OSM    H3F13417   4.921   5.473   3.395  0.3523 -1.7459 -2.0700
  126OSM    H3G13418   4.929   5.582   3.260  0.2369 -1.5560 -0.0788
  126OSM    C4F13419   5.025   5.662   3.436  0.0000 -0.4440 -0.3623
  126OSM    H4F13420   4.933   5.706   3.480  1.0841 -0.2288  1.7760
  126OSM    H4G13421   5.073   5.744   3.377  0.5818 -0.0573  0.6277
  126OSM    C5F13422   5.117   5.624   3.555 -0.3913 -0.2880 -0.6412
  126OSM    H5F13423   5.218   5.598   3.514 -0.4194  0.5032 -1.2309
  126OSM    H5G13424   5.067   5.534   3.596  1.3660 -0.5402  1.1371
  126OSM    C6F13425   5.124   5.735   3.663 -0.3782 -0.2003 -0.1183
  126OSM    H6F13426   5.026   5.758   3.710 -0.2689 -0.3303  0.1683
  126OSM    H6G13427   5.141   5.827   3.602 -0.3657 -0.3033 -0.2701
  126OSM    C7F13428   5.218   5.717   3.783  0.2630 -0.1622 -0.3565
  126OSM    H7F13429   5.238   5.814   3.834 -0.9666 -0.1021  0.0617
  126OSM    H7G13430   5.320   5.679   3.759 -0.2200 -1.0678 -1.0430
  126OSM    C8F13431   5.163   5.629   3.898 -0.4167 -0.2621 -0.3311
  126OSM    H8F13432   5.129   5.531   3.858 -1.1389 -0.1119 -0.1077
  126OSM    H8G13433   5.073   5.680   3.939  0.1830 -0.5200  1.3925
  126OSM    C9F13434   5.254   5.613   4.022  0.3399  0.4328  0.4020
  126OSM    H9F13435   5.363   5.614   4.003  0.2501 -1.9066 -0.5975
  126OSM   C10F13436   5.213   5.586   4.144 -0.0980  0.5542  0.7136
  126OSM   H10F13437   5.286   5.541   4.214 -0.7470 -1.7651  0.0042
  126OSM   C11F13438   5.072   5.548   4.174 -0.0300  0.4792  0.2042
  126OSM   H11F13439   5.068   5.438   4.184  0.0626  0.1359 -2.7354
  126OSM   H11G13440   4.998   5.584   4.100  0.4184  1.0282  0.0179
  126OSM   C12F13441   5.019   5.627   4.299  0.3060 -0.6543 -0.4197
  126OSM   H12F13442   4.910   5.605   4.299  0.0141  0.6717 -0.8164
  126OSM   H12G13443   5.038   5.735   4.281  0.2304 -0.6383 -0.4024
  126OSM   C13F13444   5.088   5.586   4.433  0.9319  0.3957  0.2478
  126OSM   H13F13445   5.197   5.596   4.420  1.3593 -1.6261  1.7198
  126OSM   H13G13446   5.071   5.479   4.456  1.6022 -0.0095 -1.0977
  126OSM   C14F13447   5.036   5.667   4.557  0.4095 -0.1152  0.2505
  126OSM   H14F13448   4.928   5.653   4.579  0.5039 -1.6032 -0.0884
  126OSM   H14G13449   5.054   5.773   4.532 -0.5897 -0.0571 -0.2353
  126OSM   C15F13450   5.127   5.612   4.678  0.4158 -0.6003  0.6178
  126OSM   H15F13451   5.228   5.653   4.660  0.1575 -0.4654 -0.6437
  126OSM   H15G13452   5.140   5.502   4.683 -1.8802 -1.0727 -1.6649
  126OSM   C16F13453   5.092   5.685   4.808  0.5345 -0.5469  0.5423
  126OSM   H16F13454   4.991   5.656   4.842 -1.8172  0.4106 -4.6452
  126OSM   H16G13455   5.078   5.792   4.782 -3.7417 -0.9195  0.6413
  126OSM   C17F13456   5.206   5.668   4.912  0.5638 -0.3816  0.5534
  126OSM   H17F13457   5.292   5.719   4.865  1.0814  2.4580  4.0968
  126OSM   H17G13458   5.229   5.563   4.942 -0.6257 -0.9666 -0.4943
  126OSM   C18F13459   5.175   5.740   5.041 -0.0852 -0.1991 -0.4427
  126OSM   H18F13460   5.114   5.682   5.112 -0.3977  1.6797  0.8986
  126OSM   H18G13461   5.113   5.829   5.017  1.5130  0.8676 -0.7831
  126OSM   H18H13462   5.278   5.766   5.075  0.1504 -0.9720 -0.5383
  127OSM      N13463   5.939   6.145   2.878  0.1232  0.1092  0.6052
  127OSM    C1513464   5.888   6.030   2.799  0.1216  0.2486  0.1199
  127OSM   H15A13465   5.927   6.040   2.699  0.5947 -0.0210  0.2757
  127OSM   H15B13466   5.781   6.020   2.789 -0.0472  1.3332  0.6578
  127OSM   H15C13467   5.927   5.935   2.832 -2.1889 -2.0580 -3.0734
  127OSM    C1413468   5.903   6.136   3.024 -0.6463  0.1077  0.6253
  127OSM   H14A13469   5.800   6.112   3.046 -0.7519  0.5022  0.5669
  127OSM   H14B13470   5.940   6.227   3.068  0.4885  0.8272 -1.6648
  127OSM   H14C13471   5.961   6.053   3.062 -1.2282 -0.7124 -0.2451
  127OSM    C1313472   6.090   6.132   2.868 -0.2297  0.3672 -0.1104
  127OSM   H13A13473   6.131   6.227   2.897 -1.6687  0.3322  2.2785
  127OSM   H13B13474   6.109   6.114   2.763  0.2250 -1.2268  0.2143
  127OSM   H13C13475   6.121   6.045   2.924  0.0218 -0.4986 -1.5393
  127OSM    C1213476   5.890   6.275   2.813  0.0860  0.0086 -0.7512
  127OSM   H12A13477   5.784   6.273   2.833  0.7022  0.0939  3.1364
  127OSM   H12B13478   5.905   6.265   2.706 -1.1427 -1.8135 -0.8085
  127OSM    C1113479   5.939   6.409   2.877 -0.6637 -0.4307  0.0264
  127OSM   H11A13480   5.917   6.503   2.822 -0.6846  0.6478  1.8168
  127OSM   H11B13481   6.049   6.411   2.892 -0.9759  0.1705  2.6740
  127OSM      P13482   5.749   6.476   3.030  0.0987 -0.0884  0.1247
  127OSM    O1313483   5.781   6.625   3.052 -0.4189 -0.0172  0.0641
  127OSM    O1413484   5.653   6.443   2.920  0.8148 -0.0811 -0.2911
  127OSM    O1113485   5.695   6.403   3.169 -0.3369 -0.2167 -0.2279
  127OSM    O1213486   5.888   6.410   3.008 -0.7974  0.4327 -0.2576
  127OSM    C1S13487   5.778   6.393   3.283 -0.4693 -0.1827  0.1635
  127OSM    H1S13488   5.793   6.490   3.336 -0.3811  1.6963 -3.0519
  127OSM    H1T13489   5.874   6.344   3.259 -0.3724  1.0483 -2.1894
  127OSM     NF13490   5.811   6.280   3.499 -0.9044 -0.3662  0.7393
  127OSM    HNF13491   5.889   6.224   3.474 -1.2948 -0.4153 -0.4418
  127OSM    C2S13492   5.719   6.288   3.390  0.9097 -0.1988  0.2021
  127OSM    H2S13493   5.620   6.319   3.431  0.6622  0.8965 -1.1751
  127OSM    C3S13494   5.690   6.147   3.327  0.1589  0.8501 -0.1891
  127OSM    H3S13495   5.787   6.101   3.298 -0.9354 -0.8934 -1.2414
  127OSM     O313496   5.606   6.145   3.209  0.1722 -0.3322 -0.8299
  127OSM    HO313497   5.635   6.227   3.168  1.5592  0.9798  2.4019
  127OSM    C4S13498   5.631   6.049   3.428 -0.2425 -0.2124  0.7644
  127OSM    H4S13499   5.521   6.051   3.440 -0.3579 -0.5552 -0.2186
  127OSM    C5S13500   5.703   5.962   3.504  0.3931 -0.2885  0.1590
  127OSM    H5S13501   5.813   5.959   3.502  0.4219 -0.3476  1.2851
  127OSM    C6S13502   5.633   5.878   3.612 -0.0520 -0.0414 -0.2108
  127OSM    H6S13503   5.688   5.783   3.626  0.9062  0.5764  0.3256
  127OSM    H6T13504   5.532   5.854   3.572  0.8277 -0.2254 -2.4842
  127OSM    C7S13505   5.633   5.938   3.746  0.6770 -0.2904 -0.3687
  127OSM    H7S13506   5.586   6.038   3.733 -0.6164 -0.9455 -0.7818
  127OSM    H7T13507   5.738   5.957   3.778  1.1282 -4.9744  1.6196
  127OSM    C8S13508   5.558   5.866   3.856 -0.6393  0.0798 -0.2241
  127OSM    H8S13509   5.605   5.765   3.865 -0.4352  0.2759  1.1155
  127OSM    H8T13510   5.452   5.845   3.829 -0.9031 -0.0176  0.8190
  127OSM    C9S13511   5.573   5.922   3.997 -0.0675 -0.3147  0.3808
  127OSM    H9S13512   5.519   6.019   4.000 -0.1119 -0.3421  0.4753
  127OSM    H9T13513   5.682   5.940   4.015 -0.2027 -0.8133  1.8553
  127OSM   C10S13514   5.518   5.837   4.108  0.0034  0.0169 -0.1436
  127OSM   H10S13515   5.547   5.732   4.086 -0.0903  0.4879 -2.9737
  127OSM   H10T13516   5.408   5.839   4.124  0.3675 -0.7255  3.2290
  127OSM   C11S13517   5.590   5.869   4.241  0.1599  0.0330  0.9174
  127OSM   H11S13518   5.591   5.974   4.275  0.2159  0.3844 -0.1505
  127OSM   H11T13519   5.699   5.845   4.240 -0.1228 -1.4705 -1.4070
  127OSM   C12S13520   5.538   5.782   4.356 -0.3924 -0.6309 -0.9274
  127OSM   H12S13521   5.565   5.674   4.352 -3.7794 -1.7872  1.9836
  127OSM   H12T13522   5.427   5.788   4.365 -0.2506  0.2458  0.5793
  127OSM   C13S13523   5.594   5.835   4.492 -0.0128  0.2690 -0.1548
  127OSM   H13S13524   5.523   5.913   4.524 -1.7232 -0.9359 -0.8874
  127OSM   H13T13525   5.699   5.866   4.471 -0.0270  1.0537  0.8895
  127OSM   C14S13526   5.592   5.718   4.604 -0.1247 -0.6881 -0.0334
  127OSM   H14S13527   5.639   5.628   4.560 -0.6642 -1.0013  0.0104
  127OSM   H14T13528   5.486   5.689   4.622 -1.6932  1.7620 -3.9756
  127OSM   C15S13529   5.660   5.763   4.733  0.3916  0.1412  0.5851
  127OSM   H15S13530   5.767   5.782   4.707  0.2245  0.5702  0.1735
  127OSM   H15T13531   5.650   5.675   4.799  0.8285  0.2330  0.7783
  127OSM   C16S13532   5.605   5.891   4.797  0.3353  0.7094  0.1431
  127OSM   H16S13533   5.496   5.894   4.820  0.1930  1.7678 -0.5914
  127OSM   H16T13534   5.630   5.982   4.738 -0.1014  1.0701  0.5060
  127OSM   C17S13535   5.673   5.907   4.928  0.4092 -0.0639 -0.1106
  127OSM   H17S13536   5.654   6.014   4.951 -1.3733 -0.9873  3.1991
  127OSM   H17T13537   5.782   5.886   4.929  1.4264  4.1585 -0.3503
  127OSM   C18S13538   5.611   5.819   5.039  0.1962  0.1829  0.4002
  127OSM   H18S13539   5.651   5.847   5.139 -1.2719 -0.7450  1.2849
  127OSM   H18T13540   5.625   5.712   5.011 -0.7586  0.0854  0.2563
  127OSM   H18U13541   5.503   5.843   5.038  0.5865  2.0899  0.8912
  127OSM    C1F13542   5.837   6.379   3.590 -0.0338 -1.0559 -0.2344
  127OSM     OF13543   5.765   6.478   3.602 -0.9255 -0.0606  0.2747
  127OSM    C2F13544   5.966   6.362   3.669 -0.1376  0.0131 -0.3834
  127OSM    H2F13545   5.971   6.445   3.743  0.2762 -0.2117 -0.1523
  127OSM    H2G13546   6.050   6.380   3.600  1.4391  2.4295  1.9724
  127OSM    C3F13547   5.982   6.225   3.739  0.1493  0.3541  0.5838
  127OSM    H3F13548   6.084   6.206   3.779 -0.3139 -1.2210  1.0787
  127OSM    H3G13549   5.958   6.145   3.665  0.8521 -0.3858  1.1346
  127OSM    C4F13550   5.875   6.200   3.842  0.5468 -0.1458  0.0350
  127OSM    H4F13551   5.894   6.102   3.891 -0.1754 -1.9501 -3.0501
  127OSM    H4G13552   5.780   6.201   3.784 -0.1082 -1.3344  1.0322
  127OSM    C5F13553   5.863   6.309   3.959 -0.3807 -0.1367  0.2691
  127OSM    H5F13554   5.826   6.405   3.916  1.1842 -0.1636 -1.2474
  127OSM    H5G13555   5.961   6.320   4.009 -0.3794 -3.0155  1.0423
  127OSM    C6F13556   5.774   6.251   4.060 -0.0362 -0.1547 -0.7854
  127OSM    H6F13557   5.802   6.147   4.089 -0.5402  0.3403  1.6998
  127OSM    H6G13558   5.669   6.257   4.025  0.0117  0.9766 -0.7515
  127OSM    C7F13559   5.758   6.334   4.187  0.3620  0.3307 -0.5162
  127OSM    H7F13560   5.696   6.280   4.263  0.6820  0.8065  0.0928
  127OSM    H7G13561   5.713   6.434   4.168 -1.2805 -0.1435  0.6545
  127OSM    C8F13562   5.888   6.344   4.267 -0.1244 -0.2575 -0.5694
  127OSM    H8F13563   5.965   6.393   4.204  0.8259  0.2954  0.9658
  127OSM    H8G13564   5.927   6.242   4.287 -0.2332 -0.3460 -0.8103
  127OSM    C9F13565   5.876   6.415   4.398 -0.5000  0.2593 -0.5406
  127OSM    H9F13566   5.861   6.523   4.392 -0.2917  0.3415  0.2998
  127OSM   C10F13567   5.874   6.352   4.519 -0.3020  0.3870 -1.4175
  127OSM   H10F13568   5.871   6.424   4.602 -1.8916  0.7183 -1.7221
  127OSM   C11F13569   5.878   6.204   4.552  0.4382  0.5042  0.1369
  127OSM   H11F13570   5.982   6.166   4.539 -0.3469 -1.5754 -0.4773
  127OSM   H11G13571   5.824   6.159   4.466  0.8857  1.9869 -0.9628
  127OSM   C12F13572   5.829   6.183   4.689  0.1810 -0.8408  0.5441
  127OSM   H12F13573   5.837   6.075   4.715  2.0217 -0.8767 -0.0502
  127OSM   H12G13574   5.730   6.233   4.694  0.4885 -0.2263  0.5226
  127OSM   C13F13575   5.928   6.249   4.792  0.1300  0.1351 -0.3078
  127OSM   H13F13576   5.963   6.353   4.775  0.2271  0.1437 -0.0629
  127OSM   H13G13577   6.025   6.195   4.783  0.6034  0.6378  1.3465
  127OSM   C14F13578   5.886   6.235   4.938 -0.6804 -0.8158 -0.4497
  127OSM   H14F13579   5.872   6.128   4.965 -0.7110 -0.5493  0.6388
  127OSM   H14G13580   5.790   6.287   4.957  0.8637  2.2952 -0.6239
  127OSM   C15F13581   5.986   6.298   5.043  0.8430 -0.3519  0.2794
  127OSM   H15F13582   5.985   6.407   5.023 -2.0444 -0.2356  0.5678
  127OSM   H15G13583   6.088   6.254   5.043  1.2090  0.1694  3.9869
  127OSM   C16F13584   5.939   6.270   5.183 -0.2176 -0.3311 -0.3175
  127OSM   H16F13585   5.922   6.160   5.182 -0.9679 -0.2244 -0.0915
  127OSM   H16G13586   5.838   6.313   5.202 -0.1211  0.7647 -2.0570
  127OSM   C17F13587   6.038   6.302   5.292  0.3467  0.3825  0.0383
  127OSM   H17F13588   5.994   6.266   5.387 -0.0651 -0.8802 -0.6060
  127OSM   H17G13589   6.062   6.410   5.300  2.7385 -0.1442  1.1084
  127OSM   C18F13590   6.163   6.218   5.273  0.2514  0.0866 -0.4866
  127OSM   H18F13591   6.223   6.220   5.366  0.3633 -1.8575 -0.4614
  127OSM   H18G13592   6.231   6.261   5.196  0.1708 -0.1434 -0.6881
  127OSM   H18H13593   6.145   6.114   5.237  0.4900  0.8052 -2.9068
  128OSM      N13594   6.553   5.659   2.804 -0.2020 -0.2590 -0.5601
  128OSM    C1513595   6.546   5.510   2.762  0.0122 -0.1364  0.8346
  128OSM   H15A13596   6.537   5.459   2.857 -1.9742 -0.6607  0.4203
  128OSM   H15B13597   6.640   5.477   2.722 -1.4169 -2.2867 -1.0294
  128OSM   H15C13598   6.472   5.490   2.685  1.4377 -1.3615 -0.2821
  128OSM    C1413599   6.648   5.684   2.918 -0.2720  0.7721 -0.0455
  128OSM   H14A13600   6.638   5.787   2.949 -0.9178  0.5843  0.3902
  128OSM   H14B13601   6.750   5.661   2.892  1.4412  5.3057  1.7034
  128OSM   H14C13602   6.622   5.640   3.013 -1.1245  0.3916 -0.4460
  128OSM    C1313603   6.617   5.733   2.688 -0.1732 -0.1998 -0.2986
  128OSM   H13A13604   6.710   5.686   2.658  0.6439 -1.2356  3.3177
  128OSM   H13B13605   6.644   5.836   2.706  0.3973  0.0601 -2.3860
  128OSM   H13C13606   6.551   5.716   2.605 -0.0485 -0.2547 -0.3870
  128OSM    C1213607   6.412   5.714   2.829  0.1127 -0.8228 -1.0542
  128OSM   H12A13608   6.340   5.696   2.751 -1.0297 -2.4477  0.3076
  128OSM   H12B13609   6.423   5.822   2.827 -2.8293 -0.4347 -0.1967
  128OSM    C1113610   6.354   5.677   2.961 -0.1186 -0.0068  0.3576
  128OSM   H11A13611   6.413   5.715   3.047 -0.4841  1.1112  0.1208
  128OSM   H11B13612   6.355   5.566   2.969 -2.2421 -0.0674  0.3132
  128OSM      P13613   6.095   5.621   2.981  0.2133 -0.3754 -0.0798
  128OSM    O1313614   5.994   5.690   3.063 -0.4301  0.1488  0.2993
  128OSM    O1413615   6.054   5.584   2.845  0.0053 -0.7308 -0.1168
  128OSM    O1113616   6.151   5.496   3.062  0.1650 -0.2505 -0.0054
  128OSM    O1213617   6.216   5.720   2.969 -0.6481 -0.3696  0.2970
  128OSM    C1S13618   6.169   5.507   3.201  0.0342 -0.2133 -0.0981
  128OSM    H1S13619   6.070   5.535   3.243 -0.4015  1.3146 -1.9979
  128OSM    H1T13620   6.249   5.577   3.234  0.6062 -1.0095  0.2483
  128OSM     NF13621   6.163   5.354   3.412 -0.3489 -0.6193  0.2330
  128OSM    HNF13622   6.228   5.297   3.462  1.3538  1.9072  1.0545
  128OSM    C2S13623   6.188   5.362   3.265 -0.6928  0.7861 -0.6440
  128OSM    H2S13624   6.101   5.311   3.220 -0.0179  1.0316 -2.3054
  128OSM    C3S13625   6.321   5.292   3.217  0.1603 -1.0392 -0.1403
  128OSM    H3S13626   6.409   5.342   3.262  0.5836 -1.6461 -0.2769
  128OSM     O313627   6.331   5.300   3.076 -0.1148 -0.0706  0.0241
  128OSM    HO313628   6.266   5.361   3.041  1.2382 -0.0166 -2.6824
  128OSM    C4S13629   6.330   5.152   3.255 -0.7401  0.1736 -0.1044
  128OSM    H4S13630   6.420   5.130   3.314 -0.6757 -0.8779 -0.5677
  128OSM    C5S13631   6.237   5.059   3.234  0.2591 -0.0329  0.5734
  128OSM    H5S13632   6.141   5.091   3.191 -0.7599 -2.2120  1.1053
  128OSM    C6S13633   6.242   4.911   3.267 -0.1495 -0.1067 -0.1029
  128OSM    H6S13634   6.345   4.875   3.285  0.1859  1.9156  2.5831
  128OSM    H6T13635   6.194   4.858   3.182 -0.9388  1.1366 -0.4587
  128OSM    C7S13636   6.164   4.894   3.398  0.2961 -0.2407  0.9262
  128OSM    H7S13637   6.156   4.787   3.424  0.1766  0.1474  2.5523
  128OSM    H7T13638   6.061   4.935   3.392  1.1793  1.9279 -2.3250
  128OSM    C8S13639   6.243   4.954   3.513 -0.3001 -0.0869 -0.3197
  128OSM    H8S13640   6.246   5.064   3.495 -0.4869 -0.0253  0.0162
  128OSM    H8T13641   6.346   4.914   3.519 -0.6899 -1.1095 -0.3202
  128OSM    C9S13642   6.172   4.936   3.646 -0.2500  0.0985  1.2135
  128OSM    H9S13643   6.162   4.826   3.658  0.3386  0.1372  2.1821
  128OSM    H9T13644   6.072   4.984   3.643  1.0717  3.0613  1.1714
  128OSM   C10S13645   6.254   4.988   3.759  0.1606 -0.4377 -0.3219
  128OSM   H10S13646   6.288   5.091   3.734 -0.1032 -0.5131 -1.0044
  128OSM   H10T13647   6.350   4.936   3.744  0.2994 -0.4308  0.4901
  128OSM   C11S13648   6.195   4.953   3.898 -0.2314  0.0496  0.7855
  128OSM   H11S13649   6.164   4.847   3.908 -0.0686 -0.2251 -1.1834
  128OSM   H11T13650   6.107   5.019   3.914  0.4555  1.2965 -0.3407
  128OSM   C12S13651   6.285   4.996   4.015 -0.1929 -0.1825  0.3708
  128OSM   H12S13652   6.310   5.103   4.003  1.1137 -0.4431  0.6550
  128OSM   H12T13653   6.385   4.949   4.007  0.0334  0.3827 -0.1347
  128OSM   C13S13654   6.221   4.969   4.149 -1.0526  0.2802 -0.0328
  128OSM   H13S13655   6.166   4.872   4.146 -1.2101  0.1840  2.8742
  128OSM   H13T13656   6.141   5.044   4.163  1.2698  2.7806  0.6464
  128OSM   C14S13657   6.319   4.973   4.264  0.2808  0.2249  0.1692
  128OSM   H14S13658   6.408   5.034   4.239 -1.7083  2.3993 -2.2337
  128OSM   H14T13659   6.360   4.870   4.275  0.7399  0.2457 -1.1355
  128OSM   C15S13660   6.262   5.032   4.402 -0.1003  0.1276 -0.2965
  128OSM   H15S13661   6.166   4.980   4.423  0.7091 -1.3003 -0.0839
  128OSM   H15T13662   6.243   5.140   4.383  0.2766 -0.2101 -2.9996
  128OSM   C16S13663   6.366   5.014   4.514 -0.4657 -0.0127  0.3651
  128OSM   H16S13664   6.442   5.094   4.504 -0.2274 -0.5016 -2.7711
  128OSM   H16T13665   6.409   4.913   4.498 -0.6943 -0.3779  1.9278
  128OSM   C17S13666   6.309   5.008   4.656  0.6328  0.1245  0.2302
  128OSM   H17S13667   6.381   4.950   4.716  1.2204 -1.1448 -1.6107
  128OSM   H17T13668   6.213   4.952   4.666 -0.0592  0.9846 -1.1181
  128OSM   C18S13669   6.294   5.149   4.715 -0.0129 -0.1449  0.6253
  128OSM   H18S13670   6.393   5.195   4.733  0.7200 -1.2478 -0.4394
  128OSM   H18T13671   6.234   5.143   4.809 -0.7436  3.1039  0.4804
  128OSM   H18U13672   6.248   5.211   4.635  1.5445 -0.2631 -0.3849
  128OSM    C1F13673   6.041   5.373   3.466 -0.7878  0.7018  0.3061
  128OSM     OF13674   5.947   5.392   3.386 -0.2098  0.1001 -0.3041
  128OSM    C2F13675   6.018   5.352   3.616 -0.9157  0.0620  0.1861
  128OSM    H2F13676   6.103   5.296   3.660 -1.1143 -0.2638  0.1494
  128OSM    H2G13677   5.924   5.299   3.641 -1.1085  0.9624  1.5005
  128OSM    C3F13678   6.012   5.498   3.663  0.5014  0.0543 -0.2750
  128OSM    H3F13679   5.937   5.566   3.616  0.6633  0.3907 -0.0552
  128OSM    H3G13680   6.112   5.545   3.647 -1.0008  3.8196  0.2723
  128OSM    C4F13681   5.976   5.489   3.813 -0.3152 -0.6283 -0.2453
  128OSM    H4F13682   6.042   5.426   3.875  0.2001  1.1471  1.0748
  128OSM    H4G13683   5.872   5.454   3.832 -0.5853  1.2085  2.1299
  128OSM    C5F13684   5.964   5.627   3.886 -0.5448 -0.0440  0.4144
  128OSM    H5F13685   5.918   5.692   3.809 -1.4639  0.9785  1.7710
  128OSM    H5G13686   6.068   5.660   3.907 -0.1629  0.4094 -1.9000
  128OSM    C6F13687   5.884   5.629   4.017  0.6311  0.6088 -0.3777
  128OSM    H6F13688   5.778   5.616   3.989  1.3795 -0.0122 -3.1752
  128OSM    H6G13689   5.901   5.726   4.068 -0.3633  0.8001 -0.3909
  128OSM    C7F13690   5.922   5.513   4.118  0.4337 -0.2941  0.1585
  128OSM    H7F13691   6.032   5.523   4.133  0.6164 -0.4665 -0.9829
  128OSM    H7G13692   5.910   5.419   4.061  1.6804 -0.8004  0.6912
  128OSM    C8F13693   5.845   5.517   4.242 -0.0033 -0.2079 -0.1278
  128OSM    H8F13694   5.741   5.543   4.211  1.0013  3.2517 -1.0335
  128OSM    H8G13695   5.883   5.602   4.304  0.0200 -0.3502  0.0522
  128OSM    C9F13696   5.847   5.382   4.311 -0.8508 -0.0134  0.7475
  128OSM    H9F13697   5.783   5.303   4.269 -2.0804  2.0821 -1.6111
  128OSM   C10F13698   5.918   5.358   4.426  0.0109  0.4717 -0.4361
  128OSM   H10F13699   5.926   5.259   4.473  1.9072 -0.5934 -2.7879
  128OSM   C11F13700   6.011   5.463   4.495  0.1338 -0.7763 -0.2759
  128OSM   H11F13701   6.014   5.556   4.434  1.8364 -1.0221 -0.6105
  128OSM   H11G13702   6.109   5.416   4.515  1.7122  1.8692 -1.2453
  128OSM   C12F13703   5.956   5.518   4.629  0.0658 -0.0685 -0.5004
  128OSM   H12F13704   5.852   5.558   4.624 -0.1845 -0.2560  2.0203
  128OSM   H12G13705   6.027   5.597   4.664 -0.7923  0.5415 -0.0922
  128OSM   C13F13706   5.965   5.414   4.744  0.0950 -0.3260 -0.1208
  128OSM   H13F13707   6.067   5.370   4.756 -1.7048 -5.1581 -0.3046
  128OSM   H13G13708   5.911   5.320   4.722 -3.0298  0.7385  2.2512
  128OSM   C14F13709   5.924   5.465   4.878  0.1300  0.0254 -0.2158
  128OSM   H14F13710   5.815   5.485   4.890 -0.0208 -1.3226  0.9180
  128OSM   H14G13711   5.959   5.570   4.886 -2.0190  0.6712  2.2384
  128OSM   C15F13712   5.978   5.382   4.996  0.3344 -0.0710  0.6282
  128OSM   H15F13713   5.948   5.436   5.089  0.4621  0.5109  0.3335
  128OSM   H15G13714   6.088   5.367   5.006  0.2203 -1.4614 -0.0120
  128OSM   C16F13715   5.910   5.237   5.000  0.3261 -0.9346  0.1486
  128OSM   H16F13716   5.922   5.185   4.902  0.7912 -0.1925 -0.1968
  128OSM   H16G13717   5.800   5.246   5.014 -0.0671  1.9547 -3.2204
  128OSM   C17F13718   5.963   5.152   5.118 -0.3066 -0.8214  0.0266
  128OSM   H17F13719   5.949   5.198   5.218  1.4782 -0.9300  0.3580
  128OSM   H17G13720   6.071   5.133   5.099 -0.2784 -0.5195 -0.1202
  128OSM   C18F13721   5.885   5.018   5.129 -0.2401 -0.9519  0.0319
  128OSM   H18F13722   5.936   4.955   5.206  1.4356  1.1145  0.7083
  128OSM   H18G13723   5.892   4.967   5.031 -1.0210  0.0068 -0.5355
  128OSM   H18H13724   5.778   5.028   5.156  0.2769  2.2807  1.3121
  129OSM      N13725   0.409   2.806   3.173  0.6491 -0.2192  0.1105
  129OSM    C1513726   0.382   2.956   3.138  0.1922  0.9215 -0.7698
  129OSM   H15A13727   0.365   2.967   3.032 -0.5925 -0.0636 -0.7637
  129OSM   H15B13728   0.474   3.006   3.164  0.5129  1.0834 -2.1225
  129OSM   H15C13729   0.302   2.995   3.198  0.3942 -0.9713  0.8210
  129OSM    C1413730   0.276   2.734   3.159  0.1504 -0.1485 -0.0673
  129OSM   H14A13731   0.229   2.749   3.063 -2.0259 -0.6324  0.8722
  129OSM   H14B13732   0.207   2.771   3.233  0.6830 -0.7232  0.7332
  129OSM   H14C13733   0.274   2.628   3.177 -0.7723 -0.2660 -0.7853
  129OSM    C1313734   0.494   2.753   3.064 -0.9236 -0.6760  0.8963
  129OSM   H13A13735   0.598   2.785   3.067 -0.4117 -1.6863 -2.4464
  129OSM   H13B13736   0.458   2.793   2.970  0.0412 -3.2997 -0.6848
  129OSM   H13C13737   0.485   2.646   3.056 -0.9393 -0.6332  0.3123
  129OSM    C1213738   0.461   2.790   3.316 -0.6901 -0.7799 -0.3906
  129OSM   H12A13739   0.478   2.685   3.339  2.2776 -0.4611 -0.6833
  129OSM   H12B13740   0.392   2.835   3.385  0.7754  1.0537 -0.0346
  129OSM    C1113741   0.606   2.856   3.335 -0.1040  0.7229  0.1745
  129OSM   H11A13742   0.670   2.813   3.255 -0.0834  0.2061  0.4603
  129OSM   H11B13743   0.651   2.812   3.426 -1.4454 -0.6619  0.2091
  129OSM      P13744   0.545   3.085   3.449 -0.0756  0.1242  0.0760
  129OSM    O1313745   0.611   3.215   3.442 -0.1892  0.0009 -0.0224
  129OSM    O1413746   0.396   3.087   3.455  0.4258  0.3972 -0.3851
  129OSM    O1113747   0.596   3.010   3.581 -0.6678 -0.3731  0.6629
  129OSM    O1213748   0.598   3.002   3.332  0.3001 -0.0698 -0.0810
  129OSM    C1S13749   0.738   3.008   3.613  0.1110  0.8532 -0.6368
  129OSM    H1S13750   0.790   3.094   3.568  0.2209  1.0069 -0.2202
  129OSM    H1T13751   0.793   2.918   3.577  0.6288  0.7526  0.3576
  129OSM     NF13752   0.899   3.032   3.779  0.4042 -0.5012  0.2989
  129OSM    HNF13753   0.938   2.943   3.801 -0.4152 -0.7848  0.6059
  129OSM    C2S13754   0.760   3.026   3.766 -0.1328  0.5505  0.9095
  129OSM    H2S13755   0.711   3.120   3.801 -1.4266 -0.6408  2.4173
  129OSM    C3S13756   0.698   2.911   3.843  0.2249  1.0972  0.4011
  129OSM    H3S13757   0.751   2.815   3.822 -0.9562  0.7869 -1.4062
  129OSM     O313758   0.557   2.888   3.827  0.3721  0.2591  0.3835
  129OSM    HO313759   0.520   2.968   3.788 -2.3880 -0.2876  1.6535
  129OSM    C4S13760   0.737   2.940   3.987  0.2087  0.9041  0.7030
  129OSM    H4S13761   0.829   2.888   4.020 -1.5198 -1.4110  2.2137
  129OSM    C5S13762   0.666   3.002   4.078  0.4374  0.7316  0.2638
  129OSM    H5S13763   0.567   3.037   4.046 -0.1266 -1.4697 -0.5416
  129OSM    C6S13764   0.698   3.023   4.226  0.2314 -0.0688  0.4844
  129OSM    H6S13765   0.630   2.962   4.290  0.3945  0.3724  1.0833
  129OSM    H6T13766   0.679   3.127   4.259  0.6048 -0.4502  1.9393
  129OSM    C7S13767   0.835   2.986   4.271 -0.0163  0.2659  0.0624
  129OSM    H7S13768   0.912   3.043   4.214 -0.5783 -0.8293 -1.8895
  129OSM    H7T13769   0.850   2.878   4.249 -0.1674  0.7444 -2.8337
  129OSM    C8S13770   0.848   3.017   4.421 -0.4817  0.0919 -0.4642
  129OSM    H8S13771   0.780   2.958   4.486  2.5529 -0.6077  2.3336
  129OSM    H8T13772   0.857   3.124   4.451  4.2202 -0.2781  0.3320
  129OSM    C9S13773   0.986   2.964   4.471  0.0543 -0.0783  0.2085
  129OSM    H9S13774   1.068   2.977   4.397  0.5157 -2.5852  0.2015
  129OSM    H9T13775   0.971   2.854   4.475  0.3821 -0.1231  0.2531
  129OSM   C10S13776   1.040   3.020   4.608  0.5264 -0.2066 -0.4946
  129OSM   H10S13777   1.035   3.130   4.594 -1.2370 -0.1091  0.6585
  129OSM   H10T13778   1.142   2.980   4.626  0.4184 -0.2095  0.1420
  129OSM   C11S13779   0.943   2.980   4.718 -0.0232 -0.3721  0.0567
  129OSM   H11S13780   0.938   2.869   4.708 -0.3036 -0.4401  0.8861
  129OSM   H11T13781   0.838   3.015   4.708 -0.1474  1.5522  5.1858
  129OSM   C12S13782   0.994   3.024   4.856 -0.0601 -0.8106 -0.0990
  129OSM   H12S13783   0.978   3.133   4.870  2.0633 -0.6202  1.2054
  129OSM   H12T13784   1.097   2.987   4.871 -0.1177 -0.0526  2.6911
  129OSM   C13S13785   0.911   2.959   4.970 -0.7007  0.4785 -0.2647
  129OSM   H13S13786   0.968   2.974   5.064 -2.3536  0.5130  0.7575
  129OSM   H13T13787   0.913   2.848   4.971 -0.3820  0.4368  2.3677
  129OSM   C14S13788   0.764   2.995   4.990 -0.0012  0.1205 -0.3280
  129OSM   H14S13789   0.694   2.999   4.904 -0.8630 -2.4976  0.1749
  129OSM   H14T13790   0.758   3.099   5.029  0.9076  0.4997 -1.1529
  129OSM   C15S13791   0.701   2.890   5.084 -0.1940  0.0649  0.0120
  129OSM   H15S13792   0.766   2.865   5.170 -0.8388 -2.4941 -0.1633
  129OSM   H15T13793   0.691   2.789   5.038 -0.5616  0.4068 -0.6752
  129OSM   C16S13794   0.564   2.946   5.129  0.2267 -0.3467  0.0292
  129OSM   H16S13795   0.521   2.858   5.181  2.0208 -0.9047  0.6162
  129OSM   H16T13796   0.498   2.960   5.040 -0.6836  1.3638  0.9152
  129OSM   C17S13797   0.578   3.063   5.221 -0.5622 -0.4038 -0.0850
  129OSM   H17S13798   0.587   3.152   5.155 -2.2119  0.6191  0.9820
  129OSM   H17T13799   0.663   3.061   5.292 -0.4328 -0.3275 -0.2395
  129OSM   C18S13800   0.440   3.088   5.293 -0.2253  0.7331  0.5361
  129OSM   H18S13801   0.435   3.171   5.366 -0.0437  3.7013 -2.5946
  129OSM   H18T13802   0.407   2.993   5.341  0.0282  0.5103  0.2750
  129OSM   H18U13803   0.353   3.113   5.228 -0.1743  1.0643  0.5946
  129OSM    C1F13804   0.979   3.133   3.755 -0.1543  0.3002 -0.2242
  129OSM     OF13805   0.930   3.241   3.717  0.4111 -0.6349  0.2668
  129OSM    C2F13806   1.125   3.123   3.782 -0.0505  0.0505 -0.4640
  129OSM    H2F13807   1.180   3.083   3.694 -0.3022 -1.1057 -0.1059
  129OSM    H2G13808   1.136   3.041   3.856  0.7531  1.1835  0.7208
  129OSM    C3F13809   1.191   3.252   3.831 -0.5429  0.2111  0.4252
  129OSM    H3F13810   1.186   3.336   3.759 -1.7632  0.9257  1.2850
  129OSM    H3G13811   1.299   3.231   3.841 -0.0333  1.3263 -1.9640
  129OSM    C4F13812   1.149   3.314   3.962 -0.1706 -0.0001  0.3751
  129OSM    H4F13813   1.049   3.361   3.953  0.9439  2.2957 -0.8398
  129OSM    H4G13814   1.229   3.386   3.988 -0.9387  1.0506 -0.0740
  129OSM    C5F13815   1.139   3.209   4.074  0.0024 -0.1302 -0.5552
  129OSM    H5F13816   1.225   3.142   4.096 -0.3612 -1.0228 -1.7717
  129OSM    H5G13817   1.049   3.149   4.050 -1.6767  1.8373  0.4413
  129OSM    C6F13818   1.101   3.277   4.205 -0.6364 -0.1418 -0.1969
  129OSM    H6F13819   1.078   3.202   4.284  0.0228 -0.2135 -0.0629
  129OSM    H6G13820   1.002   3.323   4.185 -1.0187 -1.3509 -1.2402
  129OSM    C7F13821   1.190   3.375   4.266 -0.2449 -0.5468  0.1794
  129OSM    H7F13822   1.196   3.458   4.192  0.9241 -1.0481 -0.3159
  129OSM    H7G13823   1.292   3.332   4.271 -0.3243 -1.0465 -1.5632
  129OSM    C8F13824   1.135   3.429   4.405  0.5733 -0.2687 -0.2971
  129OSM    H8F13825   1.147   3.357   4.489 -2.3985  0.1090  0.5619
  129OSM    H8G13826   1.027   3.452   4.403  0.6278  0.0911  0.5553
  129OSM    C9F13827   1.215   3.546   4.450 -0.4904  0.0703  0.0353
  129OSM    H9F13828   1.175   3.643   4.416 -0.9773  0.1789  0.8897
  129OSM   C10F13829   1.322   3.553   4.538  0.7735  0.4358  0.2017
  129OSM   H10F13830   1.363   3.651   4.565 -0.4610  1.0284  0.0069
  129OSM   C11F13831   1.390   3.427   4.588 -0.3247 -0.6828 -0.3894
  129OSM   H11F13832   1.499   3.447   4.603 -0.0575 -1.8129 -0.7220
  129OSM   H11G13833   1.380   3.343   4.516  0.7800  0.1290 -1.5231
  129OSM   C12F13834   1.322   3.364   4.711 -0.0420  0.1658  0.2522
  129OSM   H12F13835   1.212   3.352   4.701  0.2037 -0.4927 -2.0765
  129OSM   H12G13836   1.344   3.439   4.791  1.4752 -0.6095  0.6131
  129OSM   C13F13837   1.391   3.225   4.749 -0.7387  0.4436 -0.1096
  129OSM   H13F13838   1.499   3.224   4.724 -0.1486  0.4519  2.2705
  129OSM   H13G13839   1.351   3.146   4.681  0.6068  0.1494 -0.5842
  129OSM   C14F13840   1.398   3.193   4.901  0.0651  0.5158 -0.4046
  129OSM   H14F13841   1.293   3.169   4.928  0.5529 -0.3167  0.8688
  129OSM   H14G13842   1.425   3.284   4.961 -2.3268  0.9745  0.0712
  129OSM   C15F13843   1.484   3.075   4.938  0.0051  0.1189  0.8132
  129OSM   H15F13844   1.589   3.103   4.917 -0.1455  1.1520  1.3270
  129OSM   H15G13845   1.453   2.997   4.866 -0.7396  0.7669  0.4090
  129OSM   C16F13846   1.468   3.022   5.080 -0.5043 -0.4765 -0.7051
  129OSM   H16F13847   1.472   3.104   5.155 -0.5714 -0.4650 -0.7135
  129OSM   H16G13848   1.552   2.951   5.095 -0.1747 -0.4269 -2.1977
  129OSM   C17F13849   1.331   2.945   5.097 -0.6360  0.2484 -0.2315
  129OSM   H17F13850   1.343   2.846   5.048 -2.5119 -0.0111 -0.2533
  129OSM   H17G13851   1.251   3.006   5.048 -0.4035  0.6142 -0.1587
  129OSM   C18F13852   1.301   2.921   5.244  0.2732  0.5025  0.5131
  129OSM   H18F13853   1.391   2.895   5.304  1.9527 -2.1217 -2.7195
  129OSM   H18G13854   1.211   2.856   5.251 -0.0180  0.8301 -0.1488
  129OSM   H18H13855   1.260   3.013   5.290 -0.3810  1.0633 -1.1092
  130OSM      N13856   6.513   0.733   3.367  0.6917  0.1204  0.5197
  130OSM    C1513857   6.495   0.738   3.511 -0.0627  0.5043 -0.5050
  130OSM   H15A13858   6.534   0.830   3.551 -0.7176  0.8528 -0.6660
  130OSM   H15B13859   6.556   0.664   3.560  3.6087  3.3808 -0.3160
  130OSM   H15C13860   6.394   0.719   3.545 -0.1409  2.7237  0.6705
  130OSM    C1413861   6.396   0.799   3.304  0.0211 -0.1846  0.1724
  130OSM   H14A13862   6.303   0.763   3.347 -0.3092 -0.0287 -0.3943
  130OSM   H14B13863   6.380   0.775   3.200 -0.8410  1.1169 -0.0127
  130OSM   H14C13864   6.400   0.906   3.315 -0.9309  0.0831 -1.7109
  130OSM    C1313865   6.643   0.805   3.330  0.4758  0.0464 -0.8113
  130OSM   H13A13866   6.717   0.790   3.406 -0.8723  0.9913  0.7657
  130OSM   H13B13867   6.627   0.912   3.322 -0.0389  0.0892  0.5075
  130OSM   H13C13868   6.676   0.768   3.234  3.8388 -0.7092  0.5344
  130OSM    C1213869   6.521   0.590   3.326 -0.0612 -0.0323 -0.1572
  130OSM   H12A13870   6.427   0.538   3.344 -2.8075  3.6276 -2.5876
  130OSM   H12B13871   6.590   0.538   3.391  0.0442  1.1685  0.7287
  130OSM    C1113872   6.545   0.567   3.170 -0.4586 -0.7874 -0.0680
  130OSM   H11A13873   6.481   0.636   3.110  3.3863  1.1103 -2.3977
  130OSM   H11B13874   6.508   0.467   3.139 -2.3382 -0.1394 -0.0559
  130OSM      P13875   6.789   0.493   3.134 -0.0363 -0.1096  0.0729
  130OSM    O1313876   6.758   0.385   3.039 -0.4439 -0.3608  0.2463
  130OSM    O1413877   6.922   0.559   3.110  0.3215 -0.4326  0.2538
  130OSM    O1113878   6.774   0.433   3.281  0.2105 -0.2222 -0.1861
  130OSM    O1213879   6.680   0.607   3.130 -0.7071  0.0908  0.5688
  130OSM    C1S13880   6.867   0.479   3.379 -0.8627  0.1031 -0.0924
  130OSM    H1S13881   6.847   0.583   3.411  0.0502  0.2519  0.0061
  130OSM    H1T13882   6.967   0.493   3.334 -0.4549  1.5067  1.1862
  130OSM     NF13883   6.937   0.464   3.617  0.4359 -0.3652  0.1347
  130OSM    HNF13884   7.020   0.432   3.661  0.2496  0.5703  1.2003
  130OSM    C2S13885   6.889   0.387   3.501  0.1294  0.0548 -0.0739
  130OSM    H2S13886   6.797   0.345   3.546  1.0090 -0.0645  1.7221
  130OSM    C3S13887   6.974   0.264   3.475 -0.7941  0.2989 -0.3963
  130OSM    H3S13888   7.077   0.297   3.452 -0.3270  1.0170  2.3388
  130OSM     O313889   6.908   0.184   3.372  0.5274  0.2174 -0.6250
  130OSM    HO313890   6.837   0.239   3.339 -1.2336 -0.3380  1.9515
  130OSM    C4S13891   6.984   0.174   3.595  0.2769  0.0420 -0.2350
  130OSM    H4S13892   6.902   0.101   3.591 -2.6420  3.0080  0.6388
  130OSM    C5S13893   7.081   0.166   3.694  0.7701  0.0601  0.1369
  130OSM    H5S13894   7.168   0.233   3.693 -0.1451  1.2740  0.4335
  130OSM    C6S13895   7.060   0.067   3.813 -0.4171  0.0281 -0.6416
  130OSM    H6S13896   7.151   0.003   3.815  0.3827  1.1673  0.2790
  130OSM    H6T13897   6.978  -0.004   3.786 -0.2543  0.1139 -1.3910
  130OSM    C7S13898   7.024   0.146   3.937 -0.1926  0.0910  0.2633
  130OSM    H7S13899   6.996   0.079   4.022 -1.3970  2.1175  1.5290
  130OSM    H7T13900   6.929   0.203   3.924 -0.1485  0.4163  1.2345
  130OSM    C8S13901   7.137   0.231   3.995  0.5147  0.2880 -0.7654
  130OSM    H8S13902   7.171   0.302   3.918 -0.8828  1.8573 -0.0018
  130OSM    H8T13903   7.227   0.169   4.016  0.2343  0.0056 -0.3827
  130OSM    C9S13904   7.099   0.301   4.123 -0.5677 -0.4396  0.3625
  130OSM    H9S13905   6.999   0.350   4.118 -0.6463 -0.4975  1.3301
  130OSM    H9T13906   7.161   0.389   4.148 -1.1249  0.4058 -1.1013
  130OSM   C10S13907   7.097   0.216   4.254  0.6860 -0.1072 -0.7066
  130OSM   H10S13908   7.143   0.116   4.244  1.7436  0.1752  1.0511
  130OSM   H10T13909   6.988   0.203   4.276  0.9350  0.4655  1.0256
  130OSM   C11S13910   7.156   0.292   4.373  0.3194 -0.1846 -0.0827
  130OSM   H11S13911   7.111   0.392   4.390 -1.8567 -1.1170 -0.1050
  130OSM   H11T13912   7.265   0.310   4.360  0.6303 -0.8245  1.3550
  130OSM   C12S13913   7.149   0.205   4.499  0.0517 -0.4278 -0.1221
  130OSM   H12S13914   7.203   0.108   4.499  1.9273  0.5812  0.6837
  130OSM   H12T13915   7.045   0.165   4.509 -0.4670  0.4118 -1.8000
  130OSM   C13S13916   7.189   0.289   4.618  0.1493 -1.2413  0.5532
  130OSM   H13S13917   7.130   0.383   4.609 -0.2903 -1.4688  0.9798
  130OSM   H13T13918   7.292   0.330   4.605 -0.3535 -0.2773 -0.6619
  130OSM   C14S13919   7.173   0.231   4.756  0.1268  0.6760 -0.2258
  130OSM   H14S13920   7.247   0.150   4.773  1.8713  2.5124  1.5653
  130OSM   H14T13921   7.069   0.197   4.776 -0.0270  1.1320 -0.2453
  130OSM   C15S13922   7.212   0.333   4.868  0.2645  0.7426 -0.6386
  130OSM   H15S13923   7.138   0.415   4.875 -0.0035  0.4411  0.2968
  130OSM   H15T13924   7.310   0.383   4.850  1.8052 -2.0848 -0.7590
  130OSM   C16S13925   7.243   0.268   5.006  0.0944  0.0873 -0.4276
  130OSM   H16S13926   7.346   0.296   5.036  0.1672  0.1128 -0.6966
  130OSM   H16T13927   7.240   0.157   4.997 -0.9681 -0.1109  1.8258
  130OSM   C17S13928   7.150   0.315   5.116 -0.1119 -0.7075  0.4831
  130OSM   H17S13929   7.045   0.282   5.103 -0.5154  0.2947  1.0252
  130OSM   H17T13930   7.136   0.424   5.098 -2.1550 -1.2018 -1.3178
  130OSM   C18S13931   7.204   0.306   5.265 -0.2544  0.2889 -0.5722
  130OSM   H18S13932   7.213   0.202   5.304 -0.2980  1.4123  2.7080
  130OSM   H18T13933   7.122   0.340   5.331  0.8380 -0.3185  1.1753
  130OSM   H18U13934   7.297   0.362   5.289 -0.2334 -0.2216  0.5742
  130OSM    C1F13935   6.859   0.560   3.669  0.0745 -0.2077 -0.1741
  130OSM     OF13936   6.744   0.573   3.645 -0.3925  0.2454  0.4978
  130OSM    C2F13937   6.933   0.637   3.773 -0.1366  0.0339  0.2357
  130OSM    H2F13938   7.043   0.631   3.768 -0.0410  1.6014 -0.0124
  130OSM    H2G13939   6.903   0.588   3.868  1.1052 -1.6995 -0.2104
  130OSM    C3F13940   6.902   0.791   3.757  0.6550 -0.0431  0.3503
  130OSM    H3F13941   6.794   0.812   3.736 -0.1378 -2.5360  1.5354
  130OSM    H3G13942   6.953   0.831   3.667 -0.4057  0.9677  0.1698
  130OSM    C4F13943   6.951   0.876   3.870  0.6320  0.3289 -0.1428
  130OSM    H4F13944   6.978   0.978   3.836 -1.1807  1.4125  1.4461
  130OSM    H4G13945   7.048   0.828   3.897 -0.2569 -1.6790 -0.3475
  130OSM    C5F13946   6.852   0.887   3.988 -0.3455 -0.2124 -0.2181
  130OSM    H5F13947   6.802   0.789   4.002  2.5399 -1.9786 -1.4311
  130OSM    H5G13948   6.770   0.961   3.974  0.3156  0.8205  1.1013
  130OSM    C6F13949   6.922   0.927   4.109 -0.6605  0.2463  0.3299
  130OSM    H6F13950   6.953   1.033   4.098 -0.8913  0.1823 -1.1194
  130OSM    H6G13951   7.007   0.855   4.110 -1.1735 -0.4132 -0.9485
  130OSM    C7F13952   6.839   0.899   4.233  0.2540  0.2789  0.5458
  130OSM    H7F13953   6.821   0.790   4.238  2.1008 -0.0855  0.0978
  130OSM    H7G13954   6.744   0.954   4.217  1.2024  1.4213 -1.6294
  130OSM    C8F13955   6.912   0.936   4.361 -0.0296  0.0824 -0.0379
  130OSM    H8F13956   6.925   1.046   4.359 -1.3528  0.2929  1.1447
  130OSM    H8G13957   7.009   0.883   4.364 -0.2522 -0.3993 -1.0559
  130OSM    C9F13958   6.819   0.909   4.473 -0.0885  0.0118 -1.3032
  130OSM    H9F13959   6.714   0.887   4.447 -0.0127 -2.4835  0.1718
  130OSM   C10F13960   6.866   0.919   4.603  0.1136 -0.1479 -0.0305
  130OSM   H10F13961   6.792   0.890   4.679  0.4726  1.5591  1.0181
  130OSM   C11F13962   6.996   0.959   4.658  0.2406 -0.2676 -0.2498
  130OSM   H11F13963   7.038   1.039   4.593  0.0761 -0.6540 -0.8293
  130OSM   H11G13964   7.079   0.885   4.658  1.9327  1.4747  1.2276
  130OSM   C12F13965   6.996   1.024   4.797 -0.1864  0.1099 -0.4059
  130OSM   H12F13966   6.922   1.107   4.795 -0.4901 -0.1182  0.5916
  130OSM   H12G13967   7.091   1.078   4.818  0.1018 -0.9156  1.0865
  130OSM   C13F13968   6.974   0.916   4.898 -0.1007 -0.1992 -0.6124
  130OSM   H13F13969   6.897   0.840   4.871 -0.1995 -0.2442 -0.2051
  130OSM   H13G13970   6.936   0.965   4.990  1.3621 -0.1920  0.0102
  130OSM   C14F13971   7.102   0.840   4.935  0.2302  0.6384  0.4882
  130OSM   H14F13972   7.148   0.801   4.841 -2.2523  1.5249 -1.1917
  130OSM   H14G13973   7.079   0.763   5.012  2.9491  1.6724  2.4688
  130OSM   C15F13974   7.208   0.929   4.989  0.4780 -0.4022 -0.0376
  130OSM   H15F13975   7.163   0.996   5.065  1.0482  1.2794 -1.1012
  130OSM   H15G13976   7.254   0.997   4.914  1.3956 -0.7236  0.2314
  130OSM   C16F13977   7.344   0.858   5.025 -0.3507  0.5193  0.3368
  130OSM   H16F13978   7.399   0.925   5.094  1.0337 -1.4686  1.2426
  130OSM   H16G13979   7.395   0.844   4.928  1.3514 -1.3739  1.4289
  130OSM   C17F13980   7.332   0.709   5.076  0.1817 -0.3359 -0.6139
  130OSM   H17F13981   7.430   0.664   5.101 -0.8040 -1.9510  0.5185
  130OSM   H17G13982   7.277   0.647   5.003 -2.9502  0.0456  1.2245
  130OSM   C18F13983   7.246   0.689   5.204  0.2247 -0.4394 -0.1995
  130OSM   H18F13984   7.144   0.732   5.197  0.6056  0.4214 -0.6659
  130OSM   H18G13985   7.305   0.741   5.283 -2.7897  0.6379  1.5189
  130OSM   H18H13986   7.238   0.580   5.223 -1.2946 -0.7108 -2.0879
  131OSM      N13987   5.570   4.872   2.620 -0.0932 -0.4826 -0.5234
  131OSM    C1513988   5.516   4.743   2.559 -0.2469  0.5982  0.0885
  131OSM   H15A13989   5.459   4.767   2.471  1.5035  1.1700 -0.9341
  131OSM   H15B13990   5.464   4.690   2.638  0.9264 -1.3104 -0.3500
  131OSM   H15C13991   5.605   4.688   2.533  0.4223  1.7450 -0.1048
  131OSM    C1413992   5.613   4.841   2.755  0.0232 -0.5601 -0.2399
  131OSM   H14A13993   5.649   4.921   2.818 -0.0433 -0.3707 -0.4433
  131OSM   H14B13994   5.690   4.765   2.757  1.2351  0.6526  0.7301
  131OSM   H14C13995   5.531   4.805   2.816  0.7131  0.6818  1.5041
  131OSM    C1313996   5.678   4.924   2.535 -0.1067  0.7050 -0.4194
  131OSM   H13A13997   5.766   4.863   2.546 -1.0772 -1.2964 -2.9252
  131OSM   H13B13998   5.703   5.024   2.569 -0.4337  0.5016  0.4524
  131OSM   H13C13999   5.658   4.932   2.429  1.1595 -0.8837 -0.8079
  131OSM    C1214000   5.451   4.967   2.631 -0.4416  0.1310  0.7677
  131OSM   H12A14001   5.369   4.924   2.685 -0.2250  1.4904  2.2436
  131OSM   H12B14002   5.414   4.989   2.532 -0.2018 -1.9300  0.1691
  131OSM    C1114003   5.483   5.102   2.708 -0.2647  0.6007 -0.5322
  131OSM   H11A14004   5.512   5.069   2.810  1.0136 -0.7185 -1.2858
  131OSM   H11B14005   5.395   5.170   2.713  1.6374  3.2050  0.0018
  131OSM      P14006   5.668   5.288   2.726  0.2214  0.2175 -0.4456
  131OSM    O1314007   5.804   5.264   2.678 -0.0365 -0.5546 -0.0556
  131OSM    O1414008   5.604   5.420   2.711 -0.2371  0.3563  0.9385
  131OSM    O1114009   5.665   5.238   2.880 -0.1202  0.0342 -0.3863
  131OSM    O1214010   5.588   5.175   2.646 -0.8072 -0.0811  0.8061
  131OSM    C1S14011   5.686   5.335   2.989 -0.5040  0.4457  0.1075
  131OSM    H1S14012   5.594   5.396   3.005 -0.5226  1.3597 -2.7918
  131OSM    H1T14013   5.773   5.403   2.977 -0.3564 -0.0587 -2.0767
  131OSM     NF14014   5.696   5.361   3.231  0.4029 -0.2346  0.1358
  131OSM    HNF14015   5.781   5.394   3.272  0.3310  0.2160 -0.0688
  131OSM    C2S14016   5.695   5.258   3.129 -0.3160  0.3240  0.0634
  131OSM    H2S14017   5.600   5.201   3.140  1.0793 -2.6857 -1.9895
  131OSM    C3S14018   5.813   5.154   3.126  0.3940 -0.0044 -0.6643
  131OSM    H3S14019   5.911   5.206   3.131  1.6467 -1.9050 -3.2760
  131OSM     O314020   5.830   5.069   3.009 -0.1933  0.3193 -0.3298
  131OSM    HO314021   5.768   5.104   2.945  0.0374  0.7458 -0.3159
  131OSM    C4S14022   5.810   5.075   3.256  0.2965  0.2095  1.1014
  131OSM    H4S14023   5.848   5.144   3.333 -0.3698  0.3386  1.3214
  131OSM    C5S14024   5.762   4.952   3.282 -0.3209  0.6086 -0.4136
  131OSM    H5S14025   5.738   4.884   3.199 -0.1946 -2.0770  1.5847
  131OSM    C6S14026   5.754   4.899   3.425  0.1212  0.0392 -0.4301
  131OSM    H6S14027   5.828   4.816   3.432 -0.0131 -0.2667 -2.0721
  131OSM    H6T14028   5.654   4.854   3.439  0.7705 -1.2396  0.2795
  131OSM    C7S14029   5.792   4.977   3.551 -0.5249  0.1857 -0.9847
  131OSM    H7S14030   5.727   5.065   3.568 -0.1569  0.7527 -2.3791
  131OSM    H7T14031   5.898   5.010   3.537 -0.7597  0.8606 -1.2095
  131OSM    C8S14032   5.780   4.887   3.671 -0.5731  0.4381 -0.1504
  131OSM    H8S14033   5.834   4.790   3.664 -0.9458  0.0159  2.0518
  131OSM    H8T14034   5.672   4.872   3.694 -0.4055  1.0828  1.1536
  131OSM    C9S14035   5.813   4.949   3.810 -0.6282 -0.1909 -0.1666
  131OSM    H9S14036   5.736   5.020   3.847 -0.2262 -0.6437  1.6762
  131OSM    H9T14037   5.909   5.003   3.795 -1.6727  2.1720  1.0770
  131OSM   C10S14038   5.824   4.840   3.923 -0.2097  0.4200  0.0946
  131OSM   H10S14039   5.916   4.785   3.893 -1.3260 -0.5062 -1.8372
  131OSM   H10T14040   5.737   4.772   3.914  0.1533 -0.3941  2.1705
  131OSM   C11S14041   5.840   4.894   4.068 -0.2933  1.0935  0.1174
  131OSM   H11S14042   5.769   4.977   4.086  0.3534  1.9748 -1.1839
  131OSM   H11T14043   5.943   4.929   4.089  1.2027 -2.3016 -0.8523
  131OSM   C12S14044   5.831   4.779   4.170  0.5256 -0.4042 -0.7272
  131OSM   H12S14045   5.863   4.682   4.126  1.6843 -2.0012  3.2343
  131OSM   H12T14046   5.721   4.770   4.185  0.3340  2.2204  0.0352
  131OSM   C13S14047   5.909   4.788   4.302  0.5761  0.0035 -0.1846
  131OSM   H13S14048   6.015   4.796   4.273  0.6145  0.8785  0.1696
  131OSM   H13T14049   5.891   4.702   4.371  0.2956  0.2367  0.0380
  131OSM   C14S14050   5.883   4.919   4.384  0.1020  0.5789 -0.6059
  131OSM   H14S14051   5.866   5.002   4.312 -3.2646 -1.1355 -2.0250
  131OSM   H14T14052   5.967   4.932   4.456 -0.4837 -2.4144  0.7575
  131OSM   C15S14053   5.761   4.902   4.484 -0.7483  0.1195  1.1493
  131OSM   H15S14054   5.677   4.853   4.429  1.5579 -4.1313  0.9970
  131OSM   H15T14055   5.732   5.005   4.515  1.6888  2.4483 -3.2514
  131OSM   C16S14056   5.784   4.814   4.604 -0.5801 -0.3805  0.2174
  131OSM   H16S14057   5.861   4.861   4.669 -0.4971  2.0895 -1.5269
  131OSM   H16T14058   5.840   4.726   4.564  1.3502  0.7912  0.2220
  131OSM   C17S14059   5.656   4.770   4.673  0.2527  0.2336  0.3347
  131OSM   H17S14060   5.687   4.709   4.761 -0.6271 -0.4716  0.1688
  131OSM   H17T14061   5.607   4.705   4.598  0.5245  0.5290 -0.1019
  131OSM   C18S14062   5.589   4.897   4.721  0.2121 -0.0529 -0.3489
  131OSM   H18S14063   5.665   4.978   4.724  1.4591 -1.1933  0.9768
  131OSM   H18T14064   5.533   4.873   4.814 -0.2195 -0.4450 -0.7083
  131OSM   H18U14065   5.520   4.918   4.637  0.7274 -1.0460 -1.0466
  131OSM    C1F14066   5.587   5.421   3.276  0.3161  0.6609  0.5215
  131OSM     OF14067   5.477   5.398   3.220 -0.5303  0.1619  0.4552
  131OSM    C2F14068   5.592   5.519   3.395  0.5693  0.0295 -0.2231
  131OSM    H2F14069   5.555   5.616   3.357  1.5025  0.2076 -0.7273
  131OSM    H2G14070   5.698   5.538   3.424  0.2113  0.5021  0.7876
  131OSM    C3F14071   5.507   5.463   3.511  0.0667 -0.3459 -0.8093
  131OSM    H3F14072   5.541   5.358   3.520  0.4846 -0.1791 -0.4019
  131OSM    H3G14073   5.397   5.461   3.498 -0.2527  1.0128  1.2614
  131OSM    C4F14074   5.535   5.536   3.643 -0.1529 -0.2432 -0.7605
  131OSM    H4F14075   5.502   5.641   3.639 -4.8449 -1.5140 -1.2862
  131OSM    H4G14076   5.645   5.554   3.649 -0.4284  2.0496 -1.7326
  131OSM    C5F14077   5.486   5.456   3.771  0.5946 -0.4760  1.2939
  131OSM    H5F14078   5.382   5.426   3.749  0.5182  1.4000 -1.4754
  131OSM    H5G14079   5.495   5.529   3.854 -0.4738 -1.2501  2.1070
  131OSM    C6F14080   5.577   5.332   3.788 -0.0001 -0.4316 -0.7624
  131OSM    H6F14081   5.682   5.358   3.815 -0.1834 -1.5001  1.1201
  131OSM    H6G14082   5.594   5.273   3.695 -0.7546 -0.2384 -1.0244
  131OSM    C7F14083   5.518   5.231   3.888 -0.2199  0.2797  0.3329
  131OSM    H7F14084   5.564   5.131   3.875 -1.8899 -0.4857 -0.0455
  131OSM    H7G14085   5.409   5.215   3.872 -0.0442  0.4235 -1.2173
  131OSM    C8F14086   5.565   5.256   4.035  0.2230  0.1402  0.8563
  131OSM    H8F14087   5.518   5.351   4.068 -2.0568  0.1188 -1.9839
  131OSM    H8G14088   5.674   5.275   4.025 -0.1632  1.8435 -0.8803
  131OSM    C9F14089   5.539   5.149   4.134  0.0998  0.5006 -0.2035
  131OSM    H9F14090   5.584   5.053   4.105  2.0819  1.6947 -1.3558
  131OSM   C10F14091   5.452   5.153   4.237  0.0352 -0.4770  0.5115
  131OSM   H10F14092   5.448   5.067   4.305  1.8475 -1.4493 -0.5434
  131OSM   C11F14093   5.378   5.271   4.289  0.8566 -0.0261  0.2696
  131OSM   H11F14094   5.283   5.247   4.343 -0.6664  2.9610 -0.8567
  131OSM   H11G14095   5.343   5.334   4.204  0.2399 -3.8431 -2.5695
  131OSM   C12F14096   5.464   5.334   4.403  0.3113 -0.1847 -0.7753
  131OSM   H12F14097   5.421   5.435   4.417  0.1833 -0.2588 -0.6308
  131OSM   H12G14098   5.567   5.359   4.369  0.6532 -0.0922  0.2834
  131OSM   C13F14099   5.461   5.259   4.540 -0.4138 -1.0458  0.7672
  131OSM   H13F14100   5.522   5.166   4.532  1.0867 -0.0656  0.2788
  131OSM   H13G14101   5.357   5.230   4.565 -0.3981 -0.9799  0.9084
  131OSM   C14F14102   5.510   5.339   4.660 -0.1397  0.8444  0.0317
  131OSM   H14F14103   5.464   5.440   4.666 -0.6090  0.6042  0.5862
  131OSM   H14G14104   5.620   5.352   4.649 -0.4779  3.2282 -1.2821
  131OSM   C15F14105   5.473   5.269   4.794 -0.1526 -0.4682 -0.1004
  131OSM   H15F14106   5.545   5.190   4.826  0.9486  0.7587  0.5081
  131OSM   H15G14107   5.373   5.223   4.778 -0.4846  0.6418 -1.4138
  131OSM   C16F14108   5.469   5.373   4.907  0.3416  0.2978 -0.1611
  131OSM   H16F14109   5.371   5.423   4.890 -3.2362 -4.6439  3.0634
  131OSM   H16G14110   5.555   5.443   4.896 -0.2428  1.0131 -0.2384
  131OSM   C17F14111   5.463   5.310   5.041  0.5199 -0.3104 -0.3930
  131OSM   H17F14112   5.471   5.392   5.114  2.6060  0.0476 -0.9517
  131OSM   H17G14113   5.553   5.246   5.053  1.6898  0.9877 -1.7978
  131OSM   C18F14114   5.343   5.216   5.065 -0.2088 -0.2900 -0.8651
  131OSM   H18F14115   5.345   5.117   5.015 -0.3277 -0.9214  0.3552
  131OSM   H18G14116   5.251   5.272   5.039  0.0066  0.8303  0.6821
  131OSM   H18H14117   5.346   5.202   5.175  3.9013 -2.6425 -1.0872
  132OSM      N14118   3.461   5.532   2.504  0.6911 -0.4795 -0.2804
  132OSM    C1514119   3.604   5.554   2.475 -0.0280  0.1914  0.0068
  132OSM   H15A14120   3.672   5.471   2.487 -0.5709 -0.2022  0.3835
  132OSM   H15B14121   3.633   5.621   2.554 -5.9740  1.2665  1.8170
  132OSM   H15C14122   3.617   5.590   2.374  0.5567  0.2846  0.1149
  132OSM    C1414123   3.392   5.648   2.447  0.1687  0.4761 -0.9645
  132OSM   H14A14124   3.410   5.648   2.340  0.5662  0.1320 -0.8995
  132OSM   H14B14125   3.428   5.738   2.493  0.8691 -0.6604  0.7839
  132OSM   H14C14126   3.290   5.653   2.483  0.8446  0.7095  0.9922
  132OSM    C1314127   3.410   5.403   2.438 -0.4652  0.1001  0.0132
  132OSM   H13A14128   3.447   5.318   2.493  0.9434  1.3392  1.0517
  132OSM   H13B14129   3.442   5.397   2.335 -0.9031  0.6820 -0.1594
  132OSM   H13C14130   3.302   5.412   2.438 -0.5088 -0.1337  1.6342
  132OSM    C1214131   3.423   5.533   2.657 -0.6567 -0.3787  0.1799
  132OSM   H12A14132   3.318   5.559   2.655 -0.6988 -0.5745 -0.7628
  132OSM   H12B14133   3.470   5.620   2.700  0.2621 -0.0271 -1.4189
  132OSM    C1114134   3.461   5.406   2.734 -0.0795  0.4433 -0.2752
  132OSM   H11A14135   3.383   5.335   2.699 -1.4396  1.7993 -0.1035
  132OSM   H11B14136   3.431   5.419   2.840 -1.1735 -1.1784 -0.3412
  132OSM      P14137   3.637   5.210   2.738 -0.1145  0.2989  0.5403
  132OSM    O1314138   3.544   5.122   2.661  0.1011 -0.3501 -0.2229
  132OSM    O1414139   3.778   5.203   2.704  0.2823  0.1439 -0.0468
  132OSM    O1114140   3.629   5.182   2.897  0.0853 -0.1029  0.6415
  132OSM    O1214141   3.595   5.362   2.729 -0.0284  0.0323 -0.3844
  132OSM    C1S14142   3.698   5.274   2.986 -0.1185  0.0639 -0.4654
  132OSM    H1S14143   3.657   5.376   2.968 -0.9746  0.3811  2.7212
  132OSM    H1T14144   3.808   5.271   2.967 -0.5540 -1.3928 -3.3489
  132OSM     NF14145   3.679   5.334   3.229  0.2903 -0.3633 -0.2613
  132OSM    HNF14146   3.758   5.337   3.290 -0.2206 -0.6431  0.4293
  132OSM    C2S14147   3.666   5.227   3.128 -0.2305 -0.1151  0.4656
  132OSM    H2S14148   3.560   5.196   3.128 -0.9223  1.9977 -1.0012
  132OSM    C3S14149   3.750   5.097   3.163  0.1090 -0.1988  0.1081
  132OSM    H3S14150   3.854   5.134   3.156 -0.1845  0.6541  0.2334
  132OSM     O314151   3.733   4.993   3.067 -0.0281  0.3802 -0.1247
  132OSM    HO314152   3.690   5.039   2.995 -0.9692 -1.1610 -0.5907
  132OSM    C4S14153   3.715   5.041   3.301  0.6101 -0.5506 -1.0152
  132OSM    H4S14154   3.785   5.079   3.377 -1.8908 -1.7001  2.1429
  132OSM    C5S14155   3.618   4.946   3.328 -0.8013  0.6493  0.2852
  132OSM    H5S14156   3.565   4.902   3.242  1.2404  1.0581 -1.2584
  132OSM    C6S14157   3.595   4.877   3.458  0.5786 -0.0089 -0.8481
  132OSM    H6S14158   3.631   4.772   3.460  1.7308  0.3357  2.2252
  132OSM    H6T14159   3.488   4.879   3.487  1.0985 -3.0803  1.9871
  132OSM    C7S14160   3.672   4.936   3.583  0.0732  0.5467  0.0877
  132OSM    H7S14161   3.625   5.036   3.600 -1.6084 -0.7030  3.7845
  132OSM    H7T14162   3.779   4.930   3.554 -0.3871  0.7177 -1.7793
  132OSM    C8S14163   3.653   4.848   3.706  0.4572 -0.0981 -1.1561
  132OSM    H8S14164   3.678   4.741   3.691  1.2269  0.0607 -1.0606
  132OSM    H8T14165   3.543   4.855   3.720  0.5862  1.4364 -0.7172
  132OSM    C9S14166   3.720   4.905   3.830 -0.1036 -0.1052 -0.0819
  132OSM    H9S14167   3.693   5.013   3.842  1.4553  0.2957 -0.0194
  132OSM    H9T14168   3.830   4.902   3.816  0.0573 -2.6679  1.2159
  132OSM   C10S14169   3.685   4.820   3.955 -0.2731 -0.0520  0.5701
  132OSM   H10S14170   3.706   4.711   3.946 -0.1145  0.0555 -0.4478
  132OSM   H10T14171   3.579   4.843   3.980 -0.1717  1.6983 -0.4718
  132OSM   C11S14172   3.784   4.870   4.063  0.2857 -0.7120  0.6940
  132OSM   H11S14173   3.746   4.972   4.086 -0.2048 -1.1401  1.8410
  132OSM   H11T14174   3.893   4.880   4.042  0.4131 -1.1001  1.1572
  132OSM   C12S14175   3.769   4.799   4.200 -0.5931 -0.1461 -0.0043
  132OSM   H12S14176   3.766   4.688   4.197 -0.3341 -0.2102  1.4925
  132OSM   H12T14177   3.665   4.829   4.221 -0.8071 -1.4435  0.9268
  132OSM   C13S14178   3.879   4.844   4.296 -0.1424 -0.5249 -0.3671
  132OSM   H13S14179   3.929   4.939   4.269  0.5668 -0.8686 -0.2666
  132OSM   H13T14180   3.955   4.764   4.289 -0.9666 -1.4824  0.9677
  132OSM   C14S14181   3.830   4.854   4.442 -0.4397  0.2033 -0.5979
  132OSM   H14S14182   3.770   4.764   4.466 -2.2536  1.5354  0.1593
  132OSM   H14T14183   3.761   4.939   4.461 -2.6464 -1.9566  1.7421
  132OSM   C15S14184   3.957   4.862   4.536  0.4798 -0.0609 -0.1390
  132OSM   H15S14185   4.025   4.950   4.524 -0.3234  0.6921  0.6932
  132OSM   H15T14186   4.022   4.773   4.525  3.5837  1.9876  0.1738
  132OSM   C16S14187   3.909   4.876   4.687 -0.5086  0.3104  0.5422
  132OSM   H16S14188   3.833   4.797   4.707  0.1319  0.6091  5.2728
  132OSM   H16T14189   3.856   4.972   4.696 -1.2197 -0.1035  0.8408
  132OSM   C17S14190   4.010   4.861   4.798  0.2337 -0.2159 -0.5077
  132OSM   H17S14191   4.104   4.918   4.780  1.0234 -1.7248 -1.3333
  132OSM   H17T14192   4.049   4.757   4.801  2.1263  0.4875  0.7774
  132OSM   C18S14193   3.942   4.885   4.932  0.4338 -0.1898 -0.3373
  132OSM   H18S14194   3.861   4.814   4.958 -1.0232  1.1955 -0.9341
  132OSM   H18T14195   3.887   4.981   4.936  0.1604 -0.2927 -1.2752
  132OSM   H18U14196   4.023   4.878   5.008  2.1679  0.7483 -1.9758
  132OSM    C1F14197   3.597   5.441   3.240 -1.5851 -0.2704  0.9595
  132OSM     OF14198   3.520   5.478   3.150  0.1794  0.0018 -0.4925
  132OSM    C2F14199   3.608   5.520   3.369  0.0154 -0.3286  0.0852
  132OSM    H2F14200   3.712   5.555   3.383 -0.1540  0.9982 -1.7033
  132OSM    H2G14201   3.573   5.456   3.453  1.6121 -0.6790  0.5156
  132OSM    C3F14202   3.516   5.645   3.383 -1.1726 -0.0541 -1.1239
  132OSM    H3F14203   3.411   5.622   3.354 -1.8437  1.8922 -0.4405
  132OSM    H3G14204   3.557   5.721   3.313  0.4742 -0.0126 -0.1394
  132OSM    C4F14205   3.510   5.698   3.530 -0.1365 -0.7570 -1.6773
  132OSM    H4F14206   3.432   5.643   3.586  1.3419 -0.3956  0.8760
  132OSM    H4G14207   3.464   5.797   3.510 -2.0595 -1.7480 -2.4395
  132OSM    C5F14208   3.652   5.715   3.590  0.2935  0.6311 -0.1938
  132OSM    H5F14209   3.704   5.797   3.537  1.3225 -0.2353 -0.5682
  132OSM    H5G14210   3.708   5.621   3.570  1.8320  1.5364 -0.3275
  132OSM    C6F14211   3.651   5.739   3.740 -0.2446 -0.5802  0.1155
  132OSM    H6F14212   3.578   5.669   3.787 -0.8155  1.2906  2.1915
  132OSM    H6G14213   3.614   5.843   3.747  1.9601  0.2341  0.1261
  132OSM    C7F14214   3.787   5.729   3.795  0.3925  0.6039 -0.8935
  132OSM    H7F14215   3.864   5.787   3.740  2.5615  1.9826  3.1554
  132OSM    H7G14216   3.813   5.621   3.782 -2.8011 -0.4752  0.4817
  132OSM    C8F14217   3.796   5.742   3.948 -0.1765  0.3371  1.0633
  132OSM    H8F14218   3.906   5.727   3.963 -0.0297  0.4301  0.1299
  132OSM    H8G14219   3.746   5.657   3.998 -0.6989  1.2389  2.1058
  132OSM    C9F14220   3.751   5.872   4.004  0.5751  0.1125  0.0741
  132OSM    H9F14221   3.660   5.905   3.951 -0.4288 -2.3488  0.1474
  132OSM   C10F14222   3.805   5.956   4.096 -0.0819  0.3414  0.1534
  132OSM   H10F14223   3.760   6.054   4.119  0.3223  1.2431 -2.5267
  132OSM   C11F14224   3.939   5.918   4.158 -0.0436 -0.4083 -0.1746
  132OSM   H11F14225   4.006   6.007   4.158 -0.6502  0.0866  1.3252
  132OSM   H11G14226   3.992   5.834   4.108  0.4118 -0.9200  1.1136
  132OSM   C12F14227   3.932   5.867   4.309  0.1702  0.8089  0.0624
  132OSM   H12F14228   4.031   5.824   4.338  0.4754  0.9670 -0.6933
  132OSM   H12G14229   3.858   5.784   4.304 -0.1452  0.9686  1.6283
  132OSM   C13F14230   3.878   5.977   4.402  0.3343  0.2751 -0.0996
  132OSM   H13F14231   3.772   5.985   4.370 -0.2077 -1.9889  0.9283
  132OSM   H13G14232   3.934   6.071   4.383 -1.1928  1.4659  1.0265
  132OSM   C14F14233   3.877   5.939   4.548  0.0316  0.1570  0.1039
  132OSM   H14F14234   3.985   5.954   4.571 -0.0738 -1.6411  1.9751
  132OSM   H14G14235   3.857   5.832   4.566  0.3718  0.1864  0.6838
  132OSM   C15F14236   3.796   6.018   4.651 -0.1197 -0.9417  0.2273
  132OSM   H15F14237   3.685   6.013   4.642 -0.2059  0.9493 -0.2237
  132OSM   H15G14238   3.821   6.125   4.634 -1.5238 -0.9437 -2.4450
  132OSM   C16F14239   3.829   5.980   4.799 -0.8181 -0.0408 -0.3129
  132OSM   H16F14240   3.929   6.021   4.822  0.2042 -2.3093 -0.3724
  132OSM   H16G14241   3.820   5.869   4.803 -2.2568  0.0914  1.3118
  132OSM   C17F14242   3.737   6.047   4.898  0.9470  0.0398  0.0343
  132OSM   H17F14243   3.634   6.017   4.872  1.1285  2.4423 -4.4025
  132OSM   H17G14244   3.736   6.158   4.900 -0.4220  0.0446  1.6768
  132OSM   C18F14245   3.760   6.007   5.045  0.0206  0.3968  0.6904
  132OSM   H18F14246   3.689   6.065   5.108 -0.5191  0.4541  0.0474
  132OSM   H18G14247   3.866   6.024   5.072  0.0992 -0.6835  1.1254
  132OSM   H18H14248   3.733   5.900   5.060  1.2115 -0.4035 -2.0914
  133OSM      N14249   3.262   3.898   2.653  0.6641 -0.4174 -0.4492
  133OSM    C1514250   3.295   3.764   2.597  0.7773  0.0539  0.2785
  133OSM   H15A14251   3.336   3.703   2.677  1.3947  0.0944 -0.0044
  133OSM   H15B14252   3.371   3.761   2.520  0.0682  0.1194 -0.4380
  133OSM   H15C14253   3.208   3.715   2.555  1.4666 -0.3568 -0.7017
  133OSM    C1414254   3.384   3.975   2.683 -0.5362 -0.6133 -0.3725
  133OSM   H14A14255   3.370   4.071   2.730  0.4065 -1.0621  0.8819
  133OSM   H14B14256   3.433   3.983   2.587 -1.5535 -0.0652 -0.8596
  133OSM   H14C14257   3.458   3.925   2.743  0.0457 -0.9067 -1.3064
  133OSM    C1314258   3.176   3.980   2.557 -0.1198  0.0869 -0.2491
  133OSM   H13A14259   3.244   4.021   2.483  0.7655  1.4405  1.2525
  133OSM   H13B14260   3.119   4.055   2.609 -0.3594  0.6348 -1.2792
  133OSM   H13C14261   3.110   3.911   2.506 -1.1916  0.3198  0.7939
  133OSM    C1214262   3.187   3.864   2.783 -0.0115  0.3382 -0.4316
  133OSM   H12A14263   3.247   3.797   2.844 -0.8376  2.1864  2.6729
  133OSM   H12B14264   3.098   3.806   2.768 -0.0041 -0.5698  2.4300
  133OSM    C1114265   3.155   3.981   2.881 -0.9092 -0.3892 -0.0069
  133OSM   H11A14266   3.249   4.040   2.886 -0.0890 -1.7055  0.9561
  133OSM   H11B14267   3.139   3.928   2.977  1.8486  1.6286  1.6960
  133OSM      P14268   2.894   3.987   2.863 -0.4714  0.2570  0.2825
  133OSM    O1314269   2.797   4.073   2.797  0.3941 -0.8124  0.0641
  133OSM    O1414270   2.895   3.842   2.826 -0.4083 -0.5051 -0.3118
  133OSM    O1114271   2.851   3.986   3.008 -0.3957 -0.2021  0.0646
  133OSM    O1214272   3.037   4.051   2.838  0.0226 -0.1750 -0.1930
  133OSM    C1S14273   2.893   4.089   3.103  0.5602  1.2434 -0.6840
  133OSM    H1S14274   2.941   4.177   3.057 -0.1894  2.5561  0.9300
  133OSM    H1T14275   2.971   4.040   3.166 -0.8593 -2.4993 -1.5587
  133OSM     NF14276   2.814   4.255   3.279  0.4941  0.2626  0.2903
  133OSM    HNF14277   2.864   4.225   3.360 -2.9258 -1.7461  1.9088
  133OSM    C2S14278   2.775   4.146   3.193 -0.4612  0.0942  0.4638
  133OSM    H2S14279   2.701   4.186   3.120  0.4211  0.8722 -0.0419
  133OSM    C3S14280   2.702   4.034   3.262 -0.3954  0.0493  0.2516
  133OSM    H3S14281   2.784   3.983   3.316 -0.3126 -0.6256 -0.4969
  133OSM     O314282   2.656   3.931   3.173  0.2005  0.7253 -0.1888
  133OSM    HO314283   2.699   3.947   3.088  0.2077 -1.3870 -0.6345
  133OSM    C4S14284   2.594   4.081   3.354  0.1933 -0.7234  0.1556
  133OSM    H4S14285   2.634   4.107   3.453 -0.4947 -0.1521  0.2856
  133OSM    C5S14286   2.465   4.121   3.335 -0.2194 -0.5602  0.0669
  133OSM    H5S14287   2.415   4.107   3.238  0.6474 -0.9854 -0.3255
  133OSM    C6S14288   2.374   4.160   3.443  0.4670  0.8362 -1.2857
  133OSM    H6S14289   2.287   4.091   3.439  1.6171 -0.7854  0.3974
  133OSM    H6T14290   2.333   4.261   3.420 -1.2874  0.0024 -1.9461
  133OSM    C7S14291   2.421   4.163   3.589 -0.0692 -0.3758 -0.1349
  133OSM    H7S14292   2.520   4.213   3.597 -0.2586  0.3531 -1.8981
  133OSM    H7T14293   2.435   4.059   3.627  0.2769 -0.4317 -0.4111
  133OSM    C8S14294   2.322   4.240   3.675  0.2391 -0.1574  0.0816
  133OSM    H8S14295   2.220   4.218   3.638  0.1715 -2.3231  1.3892
  133OSM    H8T14296   2.347   4.347   3.659  1.6735 -0.5474 -0.5513
  133OSM    C9S14297   2.325   4.194   3.821 -0.3550 -0.6964  0.3594
  133OSM    H9S14298   2.339   4.083   3.821  1.8048 -0.4763 -0.2876
  133OSM    H9T14299   2.223   4.222   3.854  0.8411  0.7921  3.0773
  133OSM   C10S14300   2.427   4.270   3.912 -0.2943  0.1130 -0.2901
  133OSM   H10S14301   2.448   4.368   3.863 -0.3429  0.3770  0.2011
  133OSM   H10T14302   2.517   4.206   3.912 -1.0844 -1.0187 -0.4102
  133OSM   C11S14303   2.407   4.288   4.063 -0.0862 -0.1714  0.0857
  133OSM   H11S14304   2.475   4.366   4.104 -0.4028 -0.3244  0.9231
  133OSM   H11T14305   2.443   4.192   4.105  0.1468 -1.8235 -3.4833
  133OSM   C12S14306   2.266   4.318   4.105 -0.4385  0.0522 -0.4836
  133OSM   H12S14307   2.205   4.226   4.097 -2.8635  1.7093 -2.1267
  133OSM   H12T14308   2.213   4.400   4.052 -0.8844  1.0548  1.4369
  133OSM   C13S14309   2.245   4.347   4.256 -0.0076 -0.5059 -0.2185
  133OSM   H13S14310   2.136   4.337   4.273 -0.6348  2.6028 -1.7624
  133OSM   H13T14311   2.281   4.450   4.274 -0.3284 -0.2622 -0.9528
  133OSM   C14S14312   2.319   4.259   4.353  0.5322  0.4490  0.3629
  133OSM   H14S14313   2.428   4.269   4.331  0.7210 -0.3818  0.9022
  133OSM   H14T14314   2.296   4.156   4.319 -0.7725  0.6618  0.5812
  133OSM   C15S14315   2.275   4.272   4.501  0.0083  0.2463  0.4371
  133OSM   H15S14316   2.261   4.171   4.545 -0.2547  0.2680  0.4094
  133OSM   H15T14317   2.176   4.323   4.506  0.2422  0.6133  1.5239
  133OSM   C16S14318   2.369   4.356   4.588 -0.2743  0.5000  0.2144
  133OSM   H16S14319   2.383   4.458   4.546 -1.6085  1.3792  1.7756
  133OSM   H16T14320   2.467   4.305   4.581  1.0598  2.9999 -0.4235
  133OSM   C17S14321   2.326   4.365   4.737 -0.5916  0.1823  0.3945
  133OSM   H17S14322   2.408   4.411   4.797 -1.2838  0.8633  0.8430
  133OSM   H17T14323   2.322   4.258   4.766  1.9433  0.0551  0.4839
  133OSM   C18S14324   2.196   4.432   4.747  0.1921 -0.1860  0.3857
  133OSM   H18S14325   2.107   4.368   4.730 -1.7180  2.1786  0.9123
  133OSM   H18T14326   2.178   4.505   4.665 -1.5828 -0.1719  0.7550
  133OSM   H18U14327   2.170   4.482   4.843  1.5053 -2.8280  2.2421
  133OSM    C1F14328   2.848   4.364   3.216 -0.0090  0.1988  0.2814
  133OSM     OF14329   2.797   4.401   3.111 -0.2594  0.0698  0.0363
  133OSM    C2F14330   2.968   4.438   3.268  0.4822 -0.2879 -0.2044
  133OSM    H2F14331   3.055   4.370   3.277  2.1829  1.7033 -0.6244
  133OSM    H2G14332   2.933   4.481   3.365 -0.1003  0.3908 -0.7024
  133OSM    C3F14333   3.000   4.555   3.174 -0.0893 -0.0073  0.8744
  133OSM    H3F14334   2.910   4.621   3.177 -0.0614  0.0075  1.4849
  133OSM    H3G14335   3.005   4.522   3.068 -2.1680  0.8810  0.4459
  133OSM    C4F14336   3.119   4.639   3.212 -0.4327  0.2004 -0.5588
  133OSM    H4F14337   3.118   4.723   3.140  1.1554 -1.3333 -2.4944
  133OSM    H4G14338   3.210   4.576   3.198 -1.6929 -1.9735  0.5346
  133OSM    C5F14339   3.104   4.697   3.355 -0.0225  0.1736 -0.4873
  133OSM    H5F14340   3.109   4.616   3.431  0.5971 -0.4335 -1.1622
  133OSM    H5G14341   3.007   4.752   3.353  0.2311  0.6153 -0.7047
  133OSM    C6F14342   3.218   4.793   3.385  0.2734 -0.2146 -0.3628
  133OSM    H6F14343   3.252   4.836   3.289 -0.9088 -3.0017 -2.1668
  133OSM    H6G14344   3.305   4.736   3.425  1.1397  1.9148  0.9529
  133OSM    C7F14345   3.184   4.894   3.503 -0.4579  0.3189 -0.8090
  133OSM    H7F14346   3.098   4.950   3.462 -1.3351 -0.7961 -0.5418
  133OSM    H7G14347   3.273   4.957   3.523  0.8160 -1.1304 -1.6240
  133OSM    C8F14348   3.150   4.826   3.644  0.7686 -0.2015 -0.2412
  133OSM    H8F14349   3.160   4.906   3.720 -0.5265 -1.5000  1.3659
  133OSM    H8G14350   3.224   4.749   3.675 -0.4475 -1.9043 -1.3754
  133OSM    C9F14351   3.005   4.769   3.656  0.4632  1.1448  0.2128
  133OSM    H9F14352   2.984   4.675   3.603  1.9384  1.8011 -1.6986
  133OSM   C10F14353   2.913   4.820   3.746  0.2932  0.2877  0.6836
  133OSM   H10F14354   2.821   4.761   3.762  2.3544 -2.7668  2.3773
  133OSM   C11F14355   2.908   4.941   3.838  0.3044  0.5186 -0.0035
  133OSM   H11F14356   2.831   5.017   3.812 -1.7084 -1.2235  0.5120
  133OSM   H11G14357   3.009   4.984   3.823  1.1784 -2.3234 -3.4547
  133OSM   C12F14358   2.903   4.908   3.994 -1.0675 -0.0140  1.0807
  133OSM   H12F14359   2.970   4.820   4.008 -0.8542  0.2615  1.8346
  133OSM   H12G14360   2.802   4.873   4.024 -0.7989 -2.5644 -0.6756
  133OSM   C13F14361   2.947   5.020   4.081 -0.1976  1.2271  0.7551
  133OSM   H13F14362   2.875   5.101   4.058  0.0406  0.9868 -0.9795
  133OSM   H13G14363   3.048   5.060   4.055  0.1343  1.5972  2.4833
  133OSM   C14F14364   2.965   4.977   4.232 -0.1462 -0.9642  0.9649
  133OSM   H14F14365   3.061   4.922   4.245  1.6790  1.7119 -0.2786
  133OSM   H14G14366   2.877   4.910   4.241 -2.4657  1.8148  0.2463
  133OSM   C15F14367   2.935   5.086   4.339 -0.2132 -0.6834 -0.2411
  133OSM   H15F14368   2.902   5.035   4.433 -2.8037  0.3343 -0.5089
  133OSM   H15G14369   2.850   5.150   4.306 -0.1119 -0.6737 -0.4820
  133OSM   C16F14370   3.055   5.184   4.363 -0.1123 -0.8828  0.3548
  133OSM   H16F14371   3.072   5.241   4.269 -0.5167 -0.3462  0.6039
  133OSM   H16G14372   3.141   5.114   4.374  2.2302  2.0436  1.9551
  133OSM   C17F14373   3.049   5.264   4.489 -0.1302 -0.2413 -0.1419
  133OSM   H17F14374   2.971   5.236   4.563 -0.9351  0.5073 -0.6864
  133OSM   H17G14375   3.033   5.369   4.455 -1.9489 -0.6159 -0.5197
  133OSM   C18F14376   3.175   5.263   4.574  0.1023  0.7018 -0.5370
  133OSM   H18F14377   3.171   5.317   4.671  2.6471 -0.4187  0.2931
  133OSM   H18G14378   3.261   5.310   4.522  0.4259 -0.6068 -1.2405
  133OSM   H18H14379   3.201   5.159   4.603 -1.7184  0.1634 -0.7125
  134OSM      N14380   2.780   1.741   2.710  0.4872 -0.3622 -0.5626
  134OSM    C1514381   2.850   1.822   2.601 -0.1930 -0.1471  0.3468
  134OSM   H15A14382   2.876   1.749   2.526 -1.2470 -1.3356  1.0838
  134OSM   H15B14383   2.934   1.876   2.640  0.2392 -1.0467  0.7051
  134OSM   H15C14384   2.786   1.896   2.555 -0.3460 -0.2249  0.4309
  134OSM    C1414385   2.660   1.669   2.657 -0.1558  0.1818 -0.5539
  134OSM   H14A14386   2.622   1.602   2.733  1.7378 -0.3735 -0.0441
  134OSM   H14B14387   2.666   1.605   2.570  0.3727 -0.4830 -0.0445
  134OSM   H14C14388   2.589   1.750   2.653 -0.8049 -0.3596 -0.2396
  134OSM    C1314389   2.882   1.652   2.775 -0.0207 -0.4832  0.4598
  134OSM   H13A14390   2.967   1.702   2.819 -1.6068  1.7674  1.1087
  134OSM   H13B14391   2.929   1.581   2.707  0.3258 -2.4660  2.6546
  134OSM   H13C14392   2.849   1.583   2.850 -0.2865 -0.7779  0.0786
  134OSM    C1214393   2.737   1.840   2.822  0.1938  0.1290 -0.2094
  134OSM   H12A14394   2.647   1.884   2.783 -0.1228  1.1384  1.5256
  134OSM   H12B14395   2.804   1.925   2.828  1.6789 -1.0553  0.7965
  134OSM    C1114396   2.700   1.792   2.964 -0.3848  0.1503 -0.0024
  134OSM   H11A14397   2.692   1.872   3.040  0.0818  0.8321 -0.6651
  134OSM   H11B14398   2.780   1.737   3.019 -1.5983 -0.9197  0.7605
  134OSM      P14399   2.446   1.802   2.954  0.1260 -0.0591  0.1475
  134OSM    O1314400   2.443   1.892   2.835 -0.0794  0.4300  0.1089
  134OSM    O1414401   2.332   1.718   2.972 -0.5001  0.1514  0.2208
  134OSM    O1114402   2.465   1.883   3.083  0.2930 -0.6444 -0.0077
  134OSM    O1214403   2.586   1.712   2.948  0.5090  0.3259  0.0015
  134OSM    C1S14404   2.360   1.940   3.160 -0.6450  0.3825 -0.0709
  134OSM    H1S14405   2.276   1.963   3.091 -0.2832 -1.3348 -1.1310
  134OSM    H1T14406   2.405   2.034   3.201 -0.2899 -0.0091  0.4554
  134OSM     NF14407   2.202   1.911   3.328 -1.1855  0.2469 -0.3281
  134OSM    HNF14408   2.220   1.982   3.396 -1.2958  0.5951 -0.6574
  134OSM    C2S14409   2.320   1.849   3.279 -0.1916  0.1974  0.0188
  134OSM    H2S14410   2.292   1.746   3.246  0.7656  0.5784 -2.1601
  134OSM    C3S14411   2.436   1.829   3.384  0.3163 -0.3766 -0.3033
  134OSM    H3S14412   2.464   1.926   3.430 -1.8868  0.0115  0.3280
  134OSM     O314413   2.558   1.789   3.330 -0.0264 -0.3760 -0.4418
  134OSM    HO314414   2.540   1.807   3.238  0.0295 -1.0171 -0.5861
  134OSM    C4S14415   2.398   1.750   3.507 -0.4031  0.6357  0.4821
  134OSM    H4S14416   2.360   1.821   3.582 -0.4914 -0.8351  1.8813
  134OSM    C5S14417   2.397   1.621   3.535  0.2650 -0.1881 -0.5611
  134OSM    H5S14418   2.429   1.559   3.450  1.1556 -1.7055  0.8079
  134OSM    C6S14419   2.348   1.561   3.668  0.1659  0.1781  0.8309
  134OSM    H6S14420   2.400   1.463   3.681 -1.8923 -0.9226  1.3023
  134OSM    H6T14421   2.242   1.528   3.658  0.1965  0.3984 -0.3737
  134OSM    C7S14422   2.362   1.648   3.799  0.1089  0.4564 -0.1034
  134OSM    H7S14423   2.319   1.751   3.795 -2.7285 -0.5325  1.9835
  134OSM    H7T14424   2.472   1.658   3.815  0.2670 -1.1242 -0.0933
  134OSM    C8S14425   2.291   1.593   3.921  0.5356 -0.1187 -0.2054
  134OSM    H8S14426   2.293   1.482   3.922  2.9419 -0.1289 -0.3991
  134OSM    H8T14427   2.181   1.608   3.910  0.5996 -1.0625 -3.2720
  134OSM    C9S14428   2.353   1.653   4.045  0.5728 -0.4592  0.6974
  134OSM    H9S14429   2.352   1.764   4.035  0.6347 -0.4642  0.6380
  134OSM    H9T14430   2.456   1.620   4.068  0.7450 -0.1405  0.4059
  134OSM   C10S14431   2.267   1.608   4.163  0.6173 -0.0499  0.4775
  134OSM   H10S14432   2.264   1.497   4.160  1.0344 -0.0381 -0.5371
  134OSM   H10T14433   2.165   1.648   4.149  0.3023 -0.5741  1.2244
  134OSM   C11S14434   2.326   1.657   4.287 -0.1575 -0.0079  0.3058
  134OSM   H11S14435   2.312   1.768   4.283  2.0636  0.2777 -0.8446
  134OSM   H11T14436   2.434   1.635   4.284 -0.3346 -0.9424  0.6611
  134OSM   C12S14437   2.260   1.604   4.415  0.9030 -0.4614 -0.3121
  134OSM   H12S14438   2.321   1.625   4.506 -1.1109  1.5424  0.6966
  134OSM   H12T14439   2.242   1.494   4.405  3.2498 -1.1555  2.0371
  134OSM   C13S14440   2.125   1.675   4.437 -0.8576 -0.3620  0.5759
  134OSM   H13S14441   2.078   1.682   4.336  0.2394  0.6292  0.1028
  134OSM   H13T14442   2.130   1.784   4.459 -2.5654  0.7241 -3.4467
  134OSM   C14S14443   2.044   1.593   4.531 -0.2401  0.5565 -0.5937
  134OSM   H14S14444   2.040   1.491   4.489  0.9531  0.5106 -0.6065
  134OSM   H14T14445   1.939   1.629   4.539 -0.5294 -0.0298 -1.7075
  134OSM   C15S14446   2.098   1.583   4.674  0.0702  0.0746 -0.9189
  134OSM   H15S14447   2.202   1.545   4.665 -0.2573 -1.3356  0.6004
  134OSM   H15T14448   2.044   1.502   4.728 -0.9188 -0.2569 -2.3276
  134OSM   C16S14449   2.096   1.723   4.732  0.3830 -0.3652 -1.2281
  134OSM   H16S14450   1.995   1.768   4.721  0.3071 -0.2842 -0.3311
  134OSM   H16T14451   2.163   1.790   4.674  0.5814  1.0253  0.4969
  134OSM   C17S14452   2.129   1.718   4.879  1.0247 -0.1476  0.0760
  134OSM   H17S14453   2.190   1.805   4.910 -2.8325  3.2956 -1.1499
  134OSM   H17T14454   2.185   1.625   4.902  0.4429 -0.2705  1.0218
  134OSM   C18S14455   1.998   1.723   4.962 -0.3576 -0.0895 -0.0077
  134OSM   H18S14456   2.024   1.711   5.069 -0.0797  0.3619 -0.0184
  134OSM   H18T14457   1.937   1.638   4.926 -0.2990  0.5268 -1.6517
  134OSM   H18U14458   1.936   1.809   4.927 -1.3100 -0.2520  1.2022
  134OSM    C1F14459   2.095   1.908   3.255  1.0606 -0.7734  0.0073
  134OSM     OF14460   2.070   1.824   3.170 -0.0807  0.5130 -0.5338
  134OSM    C2F14461   1.992   2.019   3.276  0.3769 -0.6250  0.5282
  134OSM    H2F14462   1.962   2.063   3.179  1.4679 -0.0843  0.4276
  134OSM    H2G14463   2.037   2.104   3.332 -1.8182  1.2725 -0.3988
  134OSM    C3F14464   1.856   1.986   3.347  0.9598  0.0035  0.9103
  134OSM    H3F14465   1.816   1.891   3.308  2.1304  0.0836 -0.5563
  134OSM    H3G14466   1.784   2.068   3.327  0.4260 -0.4521  0.9280
  134OSM    C4F14467   1.872   1.981   3.497 -0.6862  0.6688  0.3086
  134OSM    H4F14468   1.926   2.071   3.532 -2.5513  1.2708  1.8160
  134OSM    H4G14469   1.939   1.894   3.513 -1.0691  0.5916  1.6199
  134OSM    C5F14470   1.741   1.958   3.581 -0.0377  0.5048 -0.1270
  134OSM    H5F14471   1.695   1.863   3.546 -2.8857  0.6746  2.6490
  134OSM    H5G14472   1.655   2.025   3.558 -1.3839 -0.0976  2.7333
  134OSM    C6F14473   1.751   1.959   3.734 -0.1502  0.4534 -0.0503
  134OSM    H6F14474   1.783   2.062   3.759  2.4024  0.2679 -2.0862
  134OSM    H6G14475   1.835   1.894   3.767  1.6511  2.1487 -1.0996
  134OSM    C7F14476   1.627   1.912   3.807  0.9568 -0.1518  0.4969
  134OSM    H7F14477   1.656   1.830   3.877  1.9712 -1.8308 -1.7746
  134OSM    H7G14478   1.561   1.863   3.733  2.6282 -1.5203 -0.1432
  134OSM    C8F14479   1.560   2.026   3.888 -0.2877  0.1973 -0.0324
  134OSM    H8F14480   1.462   1.980   3.915 -0.2694  0.3650  0.3160
  134OSM    H8G14481   1.550   2.117   3.825 -0.0721 -0.0537 -0.4358
  134OSM    C9F14482   1.641   2.068   4.011 -0.0261 -0.5919  0.2163
  134OSM    H9F14483   1.714   2.146   3.986 -1.8362  0.9031 -0.7496
  134OSM   C10F14484   1.632   2.026   4.137  0.2341 -0.0658 -0.2825
  134OSM   H10F14485   1.707   2.059   4.211 -1.0598  1.6847  0.3130
  134OSM   C11F14486   1.534   1.923   4.190 -0.6156  0.0297 -0.3540
  134OSM   H11F14487   1.461   1.880   4.118 -3.0162  0.1789  1.8542
  134OSM   H11G14488   1.468   1.968   4.268  0.1837 -1.1184  1.0240
  134OSM   C12F14489   1.599   1.788   4.250  0.3919  0.4290 -0.0578
  134OSM   H12F14490   1.529   1.730   4.316  0.7604 -1.5495 -1.3288
  134OSM   H12G14491   1.683   1.820   4.316 -0.5624  0.8592  0.9971
  134OSM   C13F14492   1.672   1.704   4.140  0.6655  0.0128  0.2492
  134OSM   H13F14493   1.763   1.762   4.114  1.7452 -1.8919 -0.3820
  134OSM   H13G14494   1.607   1.695   4.050  0.8976  1.5549 -0.1060
  134OSM   C14F14495   1.727   1.567   4.175 -0.6495 -0.5229  0.5034
  134OSM   H14F14496   1.647   1.490   4.160 -2.2295  1.0967  0.3001
  134OSM   H14G14497   1.749   1.573   4.284  0.3445  1.0133  0.2492
  134OSM   C15F14498   1.851   1.545   4.084  0.7426 -0.5808 -0.9541
  134OSM   H15F14499   1.882   1.440   4.104 -1.5270 -0.7392  2.6816
  134OSM   H15G14500   1.933   1.613   4.115  0.7567 -0.3958 -1.3983
  134OSM   C16F14501   1.812   1.551   3.936  0.1284 -0.0609 -0.4166
  134OSM   H16F14502   1.738   1.633   3.918  0.7719  0.5294 -0.4001
  134OSM   H16G14503   1.759   1.459   3.902  0.0953  0.2826 -1.3369
  134OSM   C17F14504   1.930   1.577   3.838  0.4611  0.0841  0.2047
  134OSM   H17F14505   1.988   1.482   3.846  0.7579  0.1854 -0.6644
  134OSM   H17G14506   1.986   1.661   3.885  0.4273 -0.1555  0.6771
  134OSM   C18F14507   1.895   1.601   3.688  0.3734  0.0898  0.5061
  134OSM   H18F14508   1.971   1.653   3.626  0.2926  0.4635  0.7183
  134OSM   H18G14509   1.805   1.664   3.674  0.3502 -0.0585 -0.0196
  134OSM   H18H14510   1.855   1.508   3.643 -2.1477  2.6867 -3.2066
  135OSM      N14511   3.744   6.258   3.120 -0.4332  0.1760 -0.3812
  135OSM    C1514512   3.625   6.185   3.056 -0.1524  0.0448 -1.0923
  135OSM   H15A14513   3.626   6.077   3.061  0.6065  0.0801  0.2100
  135OSM   H15B14514   3.620   6.213   2.952  2.1285  2.5318 -0.6534
  135OSM   H15C14515   3.535   6.214   3.109 -0.4498 -2.0250 -0.3624
  135OSM    C1414516   3.869   6.202   3.051  0.5293  0.8618 -0.2552
  135OSM   H14A14517   3.861   6.095   3.066  4.1769  0.6269  0.9417
  135OSM   H14B14518   3.964   6.231   3.093  0.5799  0.6415 -0.2171
  135OSM   H14C14519   3.869   6.220   2.945  2.2427  0.9387 -0.2648
  135OSM    C1314520   3.742   6.405   3.104 -0.4255  0.7875  0.0766
  135OSM   H13A14521   3.745   6.441   3.002  1.1212 -0.1240 -0.2272
  135OSM   H13B14522   3.833   6.445   3.146 -0.6791  0.1317  1.2800
  135OSM   H13C14523   3.651   6.444   3.149 -1.5940 -1.6003 -0.0776
  135OSM    C1214524   3.750   6.228   3.271 -0.4991 -0.0402  0.4858
  135OSM   H12A14525   3.841   6.269   3.311 -0.9143  0.8910  0.4932
  135OSM   H12B14526   3.774   6.123   3.282  3.4085  0.6629  0.0727
  135OSM    C1114527   3.626   6.270   3.361 -0.1536  0.6524 -0.0510
  135OSM   H11A14528   3.612   6.378   3.343 -2.3260  0.0172 -2.9923
  135OSM   H11B14529   3.642   6.255   3.470 -1.5835  1.1255  0.2496
  135OSM      P14530   3.493   6.054   3.382 -0.2094  0.2538  0.1081
  135OSM    O1314531   3.375   5.994   3.309 -0.3241 -0.8864  0.4280
  135OSM    O1414532   3.623   5.984   3.388  0.4437 -0.3625 -0.1596
  135OSM    O1114533   3.447   6.085   3.530 -0.0155  0.2063  0.0013
  135OSM    O1214534   3.504   6.200   3.318 -0.2704 -0.4972  0.2884
  135OSM    C1S14535   3.373   6.201   3.567 -0.4887 -0.0745 -0.1919
  135OSM    H1S14536   3.280   6.213   3.507 -1.0570 -0.2881  0.6277
  135OSM    H1T14537   3.440   6.290   3.556  0.7523 -0.8158  1.0532
  135OSM     NF14538   3.261   6.330   3.747 -0.1999 -0.3584  0.0461
  135OSM    HNF14539   3.307   6.410   3.784 -2.0607  1.5478 -1.4977
  135OSM    C2S14540   3.343   6.212   3.721  0.3629  0.1992 -0.0346
  135OSM    H2S14541   3.285   6.121   3.748 -1.0567  1.5283  1.6700
  135OSM    C3S14542   3.476   6.206   3.799  0.6086  0.4338  0.0271
  135OSM    H3S14543   3.533   6.300   3.780  0.5765  1.6376  4.7257
  135OSM     O314544   3.556   6.094   3.759 -0.3704  0.6029 -0.3644
  135OSM    HO314545   3.525   6.079   3.669 -1.3547  1.8020 -0.2497
  135OSM    C4S14546   3.439   6.213   3.947 -0.0577  0.0607  0.2346
  135OSM    H4S14547   3.398   6.310   3.978  0.7016  0.3906  0.2369
  135OSM    C5S14548   3.439   6.113   4.045 -0.3334 -0.5551 -0.7567
  135OSM    H5S14549   3.469   6.013   4.011 -0.0849 -0.0256 -2.1934
  135OSM    C6S14550   3.404   6.132   4.191 -0.6787  0.6328 -0.3238
  135OSM    H6S14551   3.449   6.224   4.233  0.8628 -0.3309  0.2577
  135OSM    H6T14552   3.446   6.057   4.262 -0.3031  1.5960  0.4832
  135OSM    C7S14553   3.254   6.141   4.225  0.3456  0.5056 -0.0960
  135OSM    H7S14554   3.212   6.047   4.184  0.9678 -0.4646  1.3879
  135OSM    H7T14555   3.208   6.223   4.167  1.3331 -0.7670 -2.8429
  135OSM    C8S14556   3.216   6.159   4.378 -1.3868 -0.3221  0.1680
  135OSM    H8S14557   3.255   6.076   4.440 -3.4445 -1.1760  0.3984
  135OSM    H8T14558   3.106   6.148   4.389 -1.5360  0.7456 -0.1355
  135OSM    C9S14559   3.263   6.291   4.439 -0.1347 -0.4725 -0.6252
  135OSM    H9S14560   3.192   6.372   4.409 -0.8912 -0.8685  0.0571
  135OSM    H9T14561   3.356   6.327   4.390 -1.2020  1.2378 -1.5316
  135OSM   C10S14562   3.257   6.301   4.590 -0.1230  0.6735  0.1924
  135OSM   H10S14563   3.212   6.401   4.607 -3.0008  0.1252 -3.1654
  135OSM   H10T14564   3.357   6.299   4.638  0.4899 -0.1542 -1.0743
  135OSM   C11S14565   3.179   6.190   4.659 -0.7065  0.5453 -0.3959
  135OSM   H11S14566   3.244   6.101   4.641  0.5458  1.6595 -1.5800
  135OSM   H11T14567   3.078   6.177   4.613 -2.0553  2.2780  1.8769
  135OSM   C12S14568   3.167   6.212   4.812  0.1365  0.6612 -0.4860
  135OSM   H12S14569   3.076   6.157   4.845 -0.1492 -0.2946 -2.6955
  135OSM   H12T14570   3.174   6.320   4.834  1.3050  0.6745 -0.8488
  135OSM   C13S14571   3.283   6.141   4.896 -0.0728  0.2094  0.6798
  135OSM   H13S14572   3.371   6.198   4.857 -1.6879  1.4754 -1.3335
  135OSM   H13T14573   3.290   6.040   4.850 -0.0928 -0.7399  2.6994
  135OSM   C14S14574   3.272   6.145   5.053  0.0929 -0.0055 -0.2720
  135OSM   H14S14575   3.169   6.110   5.074  1.0087 -0.3580  4.7193
  135OSM   H14T14576   3.279   6.248   5.092  1.0448  0.2160 -0.9707
  135OSM   C15S14577   3.368   6.051   5.112 -0.4667  0.2619 -0.6644
  135OSM   H15S14578   3.467   6.096   5.090 -0.9255  0.4002 -2.6453
  135OSM   H15T14579   3.361   5.954   5.058  0.6910 -1.0611  1.4324
  135OSM   C16S14580   3.357   6.028   5.266  0.8841 -0.2615  0.4546
  135OSM   H16S14581   3.419   5.942   5.298  1.9165  1.0326  2.1662
  135OSM   H16T14582   3.254   6.001   5.298  1.3064 -0.6758  1.5276
  135OSM   C17S14583   3.396   6.150   5.352 -0.6909  0.0462 -0.1611
  135OSM   H17S14584   3.319   6.228   5.335  0.0443  0.3391 -2.6436
  135OSM   H17T14585   3.494   6.193   5.321  0.3769 -0.2649  2.4971
  135OSM   C18S14586   3.404   6.114   5.503 -0.6687 -0.4182  0.3019
  135OSM   H18S14587   3.487   6.045   5.531  0.5428  0.7200 -0.3378
  135OSM   H18T14588   3.307   6.070   5.532 -0.1239 -1.6075  0.3938
  135OSM   H18U14589   3.423   6.204   5.565  0.6958  0.2106 -0.9682
  135OSM    C1F14590   3.127   6.346   3.705 -0.3238 -0.3021  0.3816
  135OSM     OF14591   3.075   6.267   3.626  0.6267 -0.0089 -0.3795
  135OSM    C2F14592   3.062   6.467   3.764  0.1370  0.5603 -0.5034
  135OSM    H2F14593   2.975   6.497   3.702 -1.3782 -0.6931  0.9329
  135OSM    H2G14594   3.127   6.557   3.758 -0.1041  0.7456 -0.3799
  135OSM    C3F14595   3.019   6.448   3.913 -0.4078 -0.3075  0.1839
  135OSM    H3F14596   3.119   6.460   3.960  0.5091 -0.3199 -1.6940
  135OSM    H3G14597   2.981   6.348   3.944  0.2352 -0.5347  0.2513
  135OSM    C4F14598   2.927   6.552   3.973 -0.3774  0.2014  0.0522
  135OSM    H4F14599   2.827   6.507   3.956  0.2016 -3.0570  3.8676
  135OSM    H4G14600   2.944   6.651   3.925  0.4063 -1.2144 -2.8375
  135OSM    C5F14601   2.957   6.565   4.125 -0.5914  0.3987  0.2377
  135OSM    H5F14602   3.059   6.609   4.135 -0.2684 -0.5509  1.4216
  135OSM    H5G14603   2.962   6.462   4.167 -3.4976  0.2921  0.5129
  135OSM    C6F14604   2.850   6.647   4.204  0.5559 -0.2482  0.1187
  135OSM    H6F14605   2.745   6.619   4.182  0.7612 -1.3605  0.4852
  135OSM    H6G14606   2.861   6.756   4.191 -0.6614 -0.0691  0.4698
  135OSM    C7F14607   2.857   6.612   4.356 -0.2401 -0.2970  0.3583
  135OSM    H7F14608   2.947   6.554   4.384  0.4488  0.7559  0.3761
  135OSM    H7G14609   2.772   6.548   4.388 -0.9300  1.4472  2.1860
  135OSM    C8F14610   2.866   6.736   4.440 -0.3257 -0.9872  0.3248
  135OSM    H8F14611   2.936   6.804   4.388  0.5093 -1.5678  0.6715
  135OSM    H8G14612   2.908   6.716   4.541  0.0228  1.8537  0.8549
  135OSM    C9F14613   2.732   6.799   4.452  0.4661  0.3853 -0.7059
  135OSM    H9F14614   2.670   6.795   4.361  1.9498  3.0439 -1.9620
  135OSM   C10F14615   2.683   6.861   4.562 -0.3520  0.4318  0.0412
  135OSM   H10F14616   2.585   6.911   4.554 -0.7189 -0.4436 -1.2428
  135OSM   C11F14617   2.746   6.867   4.702 -0.1406  0.2498  0.5815
  135OSM   H11F14618   2.728   6.967   4.747  1.2525  0.9575 -0.3631
  135OSM   H11G14619   2.857   6.862   4.691 -0.0454  0.1377  1.5254
  135OSM   C12F14620   2.703   6.760   4.804 -0.2843  0.6356  0.1377
  135OSM   H12F14621   2.766   6.781   4.894 -2.4302  0.9293  1.6443
  135OSM   H12G14622   2.725   6.657   4.768 -2.4393  0.1401  0.0884
  135OSM   C13F14623   2.561   6.780   4.871 -0.4643  0.0074 -0.3817
  135OSM   H13F14624   2.481   6.741   4.805 -2.6604 -0.6266  2.4418
  135OSM   H13G14625   2.557   6.890   4.887 -1.3707  0.1177 -1.2870
  135OSM   C14F14626   2.549   6.710   5.004 -0.1548  0.5427 -0.2026
  135OSM   H14F14627   2.641   6.661   5.041 -0.6324  0.2129  0.5613
  135OSM   H14G14628   2.478   6.625   4.999  0.6932 -0.2755  1.0419
  135OSM   C15F14629   2.504   6.792   5.122  0.8715  0.2399  0.1392
  135OSM   H15F14630   2.479   6.716   5.198 -1.3654 -1.2671 -1.9375
  135OSM   H15G14631   2.407   6.845   5.109 -1.0796 -2.7625  1.4713
  135OSM   C16F14632   2.617   6.879   5.164  0.3730 -0.4117 -0.2025
  135OSM   H16F14633   2.651   6.945   5.081  0.1594 -1.0780 -0.8310
  135OSM   H16G14634   2.702   6.816   5.199  0.6676  1.5378  2.9353
  135OSM   C17F14635   2.570   6.971   5.287 -0.1355 -0.1530  0.2394
  135OSM   H17F14636   2.522   6.912   5.368  1.8925 -2.2750 -0.0319
  135OSM   H17G14637   2.499   7.048   5.247  0.5116 -0.7223 -2.1479
  135OSM   C18F14638   2.688   7.036   5.360 -0.4945 -0.1113 -0.0036
  135OSM   H18F14639   2.650   7.096   5.446  0.4962  1.4115 -0.5878
  135OSM   H18G14640   2.746   7.101   5.291 -0.1525  0.1587  0.5313
  135OSM   H18H14641   2.764   6.961   5.392  0.3057  0.1345 -1.2699
  136OSM      N14642   1.215   2.538   3.063  0.3932 -0.0400  0.5275
  136OSM    C1514643   1.285   2.459   3.164  0.6349 -0.0818 -0.4010
  136OSM   H15A14644   1.250   2.489   3.262  0.2597  2.6843 -1.2923
  136OSM   H15B14645   1.387   2.494   3.164  0.8504 -0.4818  2.6062
  136OSM   H15C14646   1.271   2.352   3.156  0.9548 -0.0264 -1.9339
  136OSM    C1414647   1.265   2.499   2.920  0.2754 -0.2083  0.0040
  136OSM   H14A14648   1.226   2.399   2.912  1.2076 -0.4539 -2.1670
  136OSM   H14B14649   1.371   2.496   2.901  0.0334  0.8264 -1.6839
  136OSM   H14C14650   1.218   2.557   2.842 -2.7467 -1.3757  0.7975
  136OSM    C1314651   1.063   2.503   3.064 -0.5899  0.4366 -0.9588
  136OSM   H13A14652   1.027   2.553   3.152  1.1463 -2.4556  1.5633
  136OSM   H13B14653   1.053   2.397   3.078  0.3972 -0.0435 -3.2903
  136OSM   H13C14654   1.023   2.541   2.971  1.1915  5.3975 -0.0224
  136OSM    C1214655   1.235   2.688   3.073  0.4080 -0.0288 -0.3767
  136OSM   H12A14656   1.163   2.727   3.002 -2.3914  0.1070  2.3128
  136OSM   H12B14657   1.336   2.717   3.048 -0.2492  0.0418 -3.2476
  136OSM    C1114658   1.206   2.761   3.206  0.4439  0.0310 -1.0035
  136OSM   H11A14659   1.227   2.868   3.183 -0.6294 -0.2728 -3.8893
  136OSM   H11B14660   1.278   2.722   3.281  0.3521  0.6431 -0.5944
  136OSM      P14661   0.991   2.837   3.337  0.1041  0.2340  0.0550
  136OSM    O1314662   1.085   2.904   3.426 -0.1275 -0.7693 -0.4879
  136OSM    O1414663   0.921   2.919   3.238  0.3714 -0.2537  0.0434
  136OSM    O1114664   0.895   2.733   3.408 -1.1442  0.1603 -0.5334
  136OSM    O1214665   1.078   2.738   3.257 -0.4287 -0.5744 -0.1244
  136OSM    C1S14666   0.951   2.637   3.488 -0.2509  0.3704 -0.4343
  136OSM    H1S14667   1.038   2.678   3.544 -0.6571  0.3359  0.2404
  136OSM    H1T14668   0.979   2.543   3.436 -0.6082  0.3537 -0.5988
  136OSM     NF14669   0.908   2.571   3.717  0.3368  0.3422 -0.2591
  136OSM    HNF14670   0.922   2.473   3.727 -1.7419  0.0314  0.0586
  136OSM    C2S14671   0.847   2.615   3.601  1.3342  0.2091 -0.3939
  136OSM    H2S14672   0.805   2.716   3.616  0.8837 -0.1100  0.5984
  136OSM    C3S14673   0.737   2.517   3.551  1.1601  0.0777 -0.2531
  136OSM    H3S14674   0.790   2.423   3.525  0.6624 -0.0498 -0.8310
  136OSM     O314675   0.683   2.555   3.421 -0.3774 -0.2884 -0.2940
  136OSM    HO314676   0.747   2.622   3.396  0.4853 -0.3481  1.5851
  136OSM    C4S14677   0.632   2.500   3.650 -0.3822  0.2472 -0.2443
  136OSM    H4S14678   0.658   2.413   3.712 -1.1978  2.0583  2.8119
  136OSM    C5S14679   0.517   2.569   3.672 -0.5540  0.5395 -0.7462
  136OSM    H5S14680   0.470   2.638   3.600  0.0980  0.6827 -1.0400
  136OSM    C6S14681   0.415   2.497   3.767  0.2637 -0.4723  0.0868
  136OSM    H6S14682   0.365   2.416   3.709 -2.0886 -0.1007  1.4357
  136OSM    H6T14683   0.331   2.566   3.791  0.9352  0.7731 -1.0392
  136OSM    C7S14684   0.482   2.459   3.899  0.0765  0.7405 -0.1183
  136OSM    H7S14685   0.554   2.374   3.897 -0.2701  0.3667  1.6418
  136OSM    H7T14686   0.398   2.409   3.952 -1.0069  2.2500 -0.3638
  136OSM    C8S14687   0.539   2.573   3.984 -0.6208  0.1110  0.0919
  136OSM    H8S14688   0.461   2.651   3.967  0.5190  1.3399  0.3241
  136OSM    H8T14689   0.632   2.609   3.937 -0.8758 -1.0528 -1.3743
  136OSM    C9S14690   0.573   2.550   4.135  0.1432 -0.0438  0.3405
  136OSM    H9S14691   0.483   2.497   4.174  0.2551 -2.5367 -2.4212
  136OSM    H9T14692   0.596   2.649   4.178  0.3983  0.5278 -1.0660
  136OSM   C10S14693   0.691   2.456   4.161  0.3167  0.6706 -0.4103
  136OSM   H10S14694   0.786   2.497   4.120  1.1761 -1.8851 -1.1458
  136OSM   H10T14695   0.663   2.361   4.111  1.0593  1.1185 -1.7218
  136OSM   C11S14696   0.736   2.426   4.310 -0.4362  0.0476  0.8515
  136OSM   H11S14697   0.839   2.385   4.299 -0.7137 -0.0713 -1.8367
  136OSM   H11T14698   0.675   2.352   4.367 -0.3384 -0.8987 -0.2457
  136OSM   C12S14699   0.741   2.555   4.396  0.0235 -0.0011  0.4617
  136OSM   H12S14700   0.642   2.606   4.394 -0.3296 -0.6816 -0.6541
  136OSM   H12T14701   0.819   2.620   4.353  0.9988 -1.0183  0.6518
  136OSM   C13S14702   0.773   2.537   4.544 -0.7040 -0.0601  0.0366
  136OSM   H13S14703   0.805   2.640   4.569 -2.6158  0.6010 -0.0672
  136OSM   H13T14704   0.854   2.462   4.557  0.6116  1.5816  1.8215
  136OSM   C14S14705   0.651   2.494   4.625  0.1719  0.3068  0.0670
  136OSM   H14S14706   0.599   2.401   4.591  2.7263 -0.4184 -2.2050
  136OSM   H14T14707   0.584   2.582   4.613  1.0579  1.2619  1.8432
  136OSM   C15S14708   0.667   2.480   4.780  0.4506 -1.1058  0.0688
  136OSM   H15S14709   0.679   2.572   4.840  3.2463 -1.0962 -0.3723
  136OSM   H15T14710   0.763   2.428   4.801  1.0547 -0.1237 -0.2222
  136OSM   C16S14711   0.567   2.375   4.835  0.3689 -0.8561  0.3823
  136OSM   H16S14712   0.588   2.280   4.781 -0.3406 -0.4133 -0.6970
  136OSM   H16T14713   0.462   2.407   4.817  0.7185 -0.7906 -1.7735
  136OSM   C17S14714   0.578   2.346   4.988 -0.4519 -0.4470 -0.6189
  136OSM   H17S14715   0.686   2.356   5.015 -0.0822 -0.9865 -1.8322
  136OSM   H17T14716   0.545   2.242   5.005  1.5522 -0.8209  1.6586
  136OSM   C18S14717   0.501   2.450   5.078 -0.3755  0.0978  0.6347
  136OSM   H18S14718   0.533   2.550   5.041 -0.7316 -1.4570 -4.8387
  136OSM   H18T14719   0.511   2.433   5.187 -2.3049 -1.1456  0.6578
  136OSM   H18U14720   0.393   2.462   5.057  0.0328  1.4457 -0.9983
  136OSM    C1F14721   0.986   2.647   3.794  0.8094 -0.4029 -0.1299
  136OSM     OF14722   1.007   2.767   3.776 -0.0056  0.1702 -0.2257
  136OSM    C2F14723   1.043   2.584   3.915  0.4321  0.2592  0.6497
  136OSM    H2F14724   1.135   2.527   3.888 -0.2845  0.3687 -2.4281
  136OSM    H2G14725   0.971   2.516   3.965 -0.2178 -0.5285 -1.2445
  136OSM    C3F14726   1.071   2.686   4.034 -0.2197  0.4410  0.3348
  136OSM    H3F14727   0.979   2.731   4.076 -0.7640 -1.3162  1.1067
  136OSM    H3G14728   1.132   2.774   4.002 -0.0215  0.6401  1.2287
  136OSM    C4F14729   1.149   2.607   4.139  0.1912 -0.4678  0.0784
  136OSM    H4F14730   1.244   2.563   4.102 -0.7262 -0.1282 -2.9123
  136OSM    H4G14731   1.087   2.522   4.175 -2.8060  0.8464 -1.5807
  136OSM    C5F14732   1.185   2.698   4.267 -0.0946 -0.4677 -0.2121
  136OSM    H5F14733   1.087   2.728   4.309 -1.1940 -3.8611 -0.0053
  136OSM    H5G14734   1.236   2.792   4.236 -0.1541  0.2510  1.7410
  136OSM    C6F14735   1.252   2.633   4.386  0.4327 -0.4766 -0.0408
  136OSM    H6F14736   1.355   2.610   4.353 -0.0281 -4.0690  0.5738
  136OSM    H6G14737   1.199   2.539   4.413 -2.6277  1.0709 -0.2222
  136OSM    C7F14738   1.255   2.722   4.506 -0.3196 -0.1972 -0.7358
  136OSM    H7F14739   1.150   2.753   4.522 -0.4746 -0.5406 -1.0932
  136OSM    H7G14740   1.314   2.816   4.504 -2.1306  0.9823 -0.6649
  136OSM    C8F14741   1.284   2.633   4.630  0.1200 -0.7818  0.2860
  136OSM    H8F14742   1.393   2.609   4.632  0.7028  1.3029 -2.1224
  136OSM    H8G14743   1.222   2.541   4.620  0.2879 -1.0680  1.7127
  136OSM    C9F14744   1.252   2.703   4.761 -0.2271  0.4366 -1.0391
  136OSM    H9F14745   1.304   2.798   4.778  1.2691 -0.5955  0.5109
  136OSM   C10F14746   1.156   2.663   4.850 -0.4402 -0.2433 -0.5834
  136OSM   H10F14747   1.141   2.725   4.940 -3.0709 -1.8429  0.2074
  136OSM   C11F14748   1.053   2.555   4.833 -0.5262  0.4021 -0.2107
  136OSM   H11F14749   1.021   2.541   4.727  0.7831 -0.2743 -0.5486
  136OSM   H11G14750   0.964   2.589   4.889  0.0532  1.6163  0.0011
  136OSM   C12F14751   1.111   2.414   4.885  0.1126 -0.2391  0.0635
  136OSM   H12F14752   1.189   2.368   4.820  1.0829 -0.7173  1.4965
  136OSM   H12G14753   1.019   2.354   4.899 -0.1597  0.2194  0.2587
  136OSM   C13F14754   1.171   2.418   5.028  0.2205 -0.1262 -0.1822
  136OSM   H13F14755   1.240   2.503   5.042  0.6109 -0.1820 -1.6964
  136OSM   H13G14756   1.237   2.330   5.043 -0.1156 -0.4534 -0.5751
  136OSM   C14F14757   1.068   2.418   5.138 -0.1350  0.2253  0.5475
  136OSM   H14F14758   1.025   2.317   5.157  1.3582 -0.4870  0.2930
  136OSM   H14G14759   0.991   2.494   5.115  1.7116  2.8747  2.5037
  136OSM   C15F14760   1.125   2.457   5.279  0.6087 -0.1185  0.0980
  136OSM   H15F14761   1.030   2.447   5.337 -0.4128  2.9308 -0.8641
  136OSM   H15G14762   1.148   2.565   5.291  0.3830 -0.0240 -0.3260
  136OSM   C16F14763   1.231   2.365   5.329 -0.2681  0.4476  1.2565
  136OSM   H16F14764   1.314   2.353   5.255 -0.7172 -0.6375  0.9068
  136OSM   H16G14765   1.180   2.267   5.340  1.5615 -1.1137 -2.2973
  136OSM   C17F14766   1.312   2.407   5.458 -0.1172 -0.4301 -0.5945
  136OSM   H17F14767   1.241   2.438   5.538  0.2102  0.7329 -0.7318
  136OSM   H17G14768   1.363   2.505   5.441  1.9752 -0.9834  1.7653
  136OSM   C18F14769   1.415   2.306   5.507 -0.4376 -0.2477 -0.4268
  136OSM   H18F14770   1.361   2.212   5.530 -1.3343  0.2804 -0.3366
  136OSM   H18G14771   1.473   2.338   5.596 -1.7981  0.0635  0.3697
  136OSM   H18H14772   1.485   2.281   5.424 -0.5026  0.9756 -0.8740
  137OSM      N14773   3.065   6.648   3.277  0.0622  0.6137 -0.3550
  137OSM    C1514774   3.105   6.517   3.219  0.1768 -0.1583 -0.1846
  137OSM   H15A14775   3.210   6.499   3.234  0.7065 -0.0556 -3.1809
  137OSM   H15B14776   3.081   6.518   3.114 -1.3366  1.9500  0.1188
  137OSM   H15C14777   3.046   6.434   3.257 -1.7438  1.2035 -0.0426
  137OSM    C1414778   3.129   6.756   3.199 -0.4353  0.2452 -0.3758
  137OSM   H14A14779   3.236   6.744   3.212 -0.5913 -0.1802  0.6290
  137OSM   H14B14780   3.101   6.855   3.232 -0.5759  0.8614 -2.2487
  137OSM   H14C14781   3.101   6.738   3.097 -0.9101 -4.0446  0.3093
  137OSM    C1314782   2.918   6.662   3.264 -0.4640 -0.0198 -0.2991
  137OSM   H13A14783   2.896   6.768   3.260  0.4444  0.2316  0.8994
  137OSM   H13B14784   2.860   6.618   3.344 -2.3409  0.6875 -1.2098
  137OSM   H13C14785   2.884   6.599   3.183  0.9545 -1.7190  0.3568
  137OSM    C1214786   3.104   6.669   3.424  0.0755  0.6807 -0.1317
  137OSM   H12A14787   3.034   6.609   3.480  1.1643 -1.5268 -0.9876
  137OSM   H12B14788   3.089   6.772   3.452 -2.9930  0.0347  0.9940
  137OSM    C1114789   3.247   6.629   3.468  0.0074 -0.2280 -0.2970
  137OSM   H11A14790   3.269   6.523   3.442  0.3941 -0.6344  1.4886
  137OSM   H11B14791   3.240   6.653   3.577 -1.5653 -0.5313 -0.3102
  137OSM      P14792   3.472   6.660   3.353  0.7403  0.1357  0.1815
  137OSM    O1314793   3.438   6.562   3.248  0.0994 -0.3078 -0.5753
  137OSM    O1414794   3.546   6.777   3.315 -0.7094 -0.6156  0.0518
  137OSM    O1114795   3.541   6.601   3.480  0.2446 -0.2329 -0.5286
  137OSM    O1214796   3.332   6.718   3.409 -0.2873  0.3374 -0.4141
  137OSM    C1S14797   3.547   6.667   3.608  0.2120 -0.4273  0.2737
  137OSM    H1S14798   3.445   6.694   3.643  0.7159  1.2432  0.5493
  137OSM    H1T14799   3.605   6.761   3.599  1.2527 -1.0690  0.0751
  137OSM     NF14800   3.580   6.664   3.846  0.3305  0.4051 -0.5228
  137OSM    HNF14801   3.644   6.732   3.882 -1.4034  1.4832  0.6390
  137OSM    C2S14802   3.610   6.585   3.717  0.3100 -0.7249 -0.0963
  137OSM    H2S14803   3.571   6.481   3.717  0.3504 -0.8056 -2.9971
  137OSM    C3S14804   3.765   6.578   3.690  0.6751 -0.9360 -0.2820
  137OSM    H3S14805   3.805   6.681   3.697  1.4414 -1.0909 -1.9634
  137OSM     O314806   3.794   6.546   3.553  0.5018 -0.1009 -0.1197
  137OSM    HO314807   3.714   6.564   3.502  1.1045  1.3794 -0.5903
  137OSM    C4S14808   3.842   6.496   3.793  0.3022  0.1522 -0.1053
  137OSM    H4S14809   3.861   6.550   3.887  0.7493 -0.5396  0.2105
  137OSM    C5S14810   3.863   6.364   3.797  0.0853  0.0769  0.4198
  137OSM    H5S14811   3.827   6.306   3.711  0.2360  3.0313 -1.8254
  137OSM    C6S14812   3.913   6.284   3.916 -0.0173  0.0980 -0.0477
  137OSM    H6S14813   4.018   6.256   3.897  0.1994  0.0940  1.0486
  137OSM    H6T14814   3.846   6.198   3.935 -1.4506  1.5064  1.7126
  137OSM    C7S14815   3.923   6.353   4.051 -0.2918  0.5700 -0.0941
  137OSM    H7S14816   3.986   6.444   4.045  2.7602 -1.3949 -0.0620
  137OSM    H7T14817   3.985   6.282   4.109 -2.0676 -2.2772 -1.4220
  137OSM    C8S14818   3.789   6.370   4.125 -0.7622  0.2663 -0.1572
  137OSM    H8S14819   3.755   6.267   4.152 -1.8061  0.2742 -1.3783
  137OSM    H8T14820   3.710   6.418   4.063 -1.0221  0.4895  0.3421
  137OSM    C9S14821   3.808   6.445   4.256  0.5405 -0.9907  0.2190
  137OSM    H9S14822   3.849   6.546   4.237 -1.2560 -0.2635  0.1302
  137OSM    H9T14823   3.881   6.389   4.319 -1.3605 -0.6003  2.9553
  137OSM   C10S14824   3.682   6.456   4.332  0.3385 -0.3983 -0.1868
  137OSM   H10S14825   3.621   6.365   4.349 -1.0377  0.6586  0.8009
  137OSM   H10T14826   3.608   6.521   4.281  0.9558  0.1209 -0.4375
  137OSM   C11S14827   3.720   6.499   4.480  0.5817  0.7591  0.3101
  137OSM   H11S14828   3.794   6.582   4.474  0.2935  1.0088  0.2125
  137OSM   H11T14829   3.769   6.412   4.528  0.0229  0.1684 -0.1740
  137OSM   C12S14830   3.598   6.542   4.560  0.0244 -0.0265 -0.2487
  137OSM   H12S14831   3.515   6.468   4.562  0.2081 -0.2831 -1.2860
  137OSM   H12T14832   3.548   6.625   4.505 -0.0142 -0.4768 -0.9122
  137OSM   C13S14833   3.643   6.569   4.704 -0.4158  0.1969  0.5772
  137OSM   H13S14834   3.739   6.625   4.701 -0.4951  0.2671 -0.9935
  137OSM   H13T14835   3.661   6.480   4.768 -2.3126  0.1809  1.1342
  137OSM   C14S14836   3.547   6.654   4.785 -0.1203 -0.3399 -0.1124
  137OSM   H14S14837   3.460   6.600   4.828  0.6562  0.8894  3.3706
  137OSM   H14T14838   3.531   6.744   4.722  2.5268  1.2997  1.3480
  137OSM   C15S14839   3.606   6.730   4.908 -0.6644 -0.1437 -0.1013
  137OSM   H15S14840   3.528   6.801   4.942  0.2390 -0.0879  2.0342
  137OSM   H15T14841   3.698   6.786   4.880 -0.0029 -0.9966  0.3182
  137OSM   C16S14842   3.647   6.640   5.029  0.0037 -0.4966  0.0337
  137OSM   H16S14843   3.602   6.539   5.017  0.7680 -0.6646 -1.8684
  137OSM   H16T14844   3.609   6.686   5.122 -0.1693 -0.0206 -0.2714
  137OSM   C17S14845   3.799   6.611   5.039 -0.0850 -0.1767 -0.2251
  137OSM   H17S14846   3.853   6.707   5.053 -0.0995 -0.0425 -1.0068
  137OSM   H17T14847   3.841   6.557   4.951  1.9958 -1.2128  1.3391
  137OSM   C18S14848   3.839   6.533   5.165 -0.2216 -0.1982  0.1324
  137OSM   H18S14849   3.949   6.518   5.167  0.0003  1.1363 -0.9391
  137OSM   H18T14850   3.795   6.431   5.161  0.1429 -0.4803  2.2502
  137OSM   H18U14851   3.818   6.581   5.263 -0.4713 -1.4075  0.6947
  137OSM    C1F14852   3.459   6.654   3.902 -0.1364 -0.3148  0.1472
  137OSM     OF14853   3.380   6.561   3.871  0.3849  0.1989 -0.4455
  137OSM    C2F14854   3.434   6.739   4.021  0.5473  0.2672 -0.2079
  137OSM    H2F14855   3.380   6.833   3.994  0.4039  0.1982 -0.1658
  137OSM    H2G14856   3.530   6.762   4.071  1.1448 -1.4166 -0.5323
  137OSM    C3F14857   3.344   6.668   4.128 -0.0245  0.3161 -0.2338
  137OSM    H3F14858   3.383   6.568   4.156 -1.7433 -0.0284  1.1260
  137OSM    H3G14859   3.245   6.646   4.081  0.9037 -1.7212 -1.3822
  137OSM    C4F14860   3.338   6.744   4.254 -0.1199  0.0799 -0.5335
  137OSM    H4F14861   3.303   6.849   4.244 -0.5261  0.1628  1.3624
  137OSM    H4G14862   3.440   6.774   4.287 -0.2989  2.1917 -1.7673
  137OSM    C5F14863   3.277   6.680   4.376  0.4823 -0.1772 -0.0153
  137OSM    H5F14864   3.341   6.601   4.422  0.1160  0.8508  2.4430
  137OSM    H5G14865   3.184   6.627   4.346  0.5726  0.3696 -1.3045
  137OSM    C6F14866   3.239   6.777   4.489  0.0130 -0.0360  0.1274
  137OSM    H6F14867   3.157   6.844   4.456  0.0278  1.0581  2.1481
  137OSM    H6G14868   3.327   6.842   4.511 -0.6517  0.5366  1.2126
  137OSM    C7F14869   3.202   6.710   4.624  0.1678 -0.1856  1.1372
  137OSM    H7F14870   3.286   6.647   4.658 -0.3526 -1.4501  0.1524
  137OSM    H7G14871   3.120   6.642   4.594  0.6960 -0.0003 -0.8948
  137OSM    C8F14872   3.153   6.807   4.729 -0.2807  0.3430  0.1063
  137OSM    H8F14873   3.054   6.850   4.702 -0.5286 -0.3457 -0.1085
  137OSM    H8G14874   3.220   6.894   4.744 -1.5520  1.4881 -0.6877
  137OSM    C9F14875   3.114   6.718   4.846  0.4291  0.6916  0.4608
  137OSM    H9F14876   3.063   6.625   4.817  0.2369  0.8264  0.3656
  137OSM   C10F14877   3.158   6.729   4.974  0.3740  0.2326  0.1257
  137OSM   H10F14878   3.114   6.658   5.046 -1.0415 -0.8017 -1.6844
  137OSM   C11F14879   3.248   6.838   5.032  0.4987 -0.6837  0.6074
  137OSM   H11F14880   3.319   6.870   4.953 -1.3350  1.4778 -0.2697
  137OSM   H11G14881   3.309   6.798   5.116  2.0273 -1.0882 -0.6414
  137OSM   C12F14882   3.181   6.965   5.095  0.8118 -0.1235 -0.1620
  137OSM   H12F14883   3.258   7.040   5.125 -0.8762  1.2842  0.8752
  137OSM   H12G14884   3.115   6.935   5.179 -2.0876  0.2024 -2.1754
  137OSM   C13F14885   3.113   7.039   4.984 -0.5335 -0.7423  0.0267
  137OSM   H13F14886   3.020   6.988   4.949 -1.3408 -0.5211  1.7867
  137OSM   H13G14887   3.180   7.063   4.899  0.8045  0.1056  1.2871
  137OSM   C14F14888   3.072   7.182   5.034  0.9553  0.0227  0.4929
  137OSM   H14F14889   3.017   7.228   4.949 -1.7612  0.4427  2.3538
  137OSM   H14G14890   3.159   7.248   5.056  1.7404 -0.5345 -0.7912
  137OSM   C15F14891   2.963   7.190   5.142 -0.2011 -0.4433 -0.3010
  137OSM   H15F14892   2.996   7.141   5.236 -1.4135  1.6609  1.3357
  137OSM   H15G14893   2.870   7.141   5.108  0.0968  0.0990 -2.0035
  137OSM   C16F14894   2.940   7.341   5.170  0.1139 -0.1993  0.3236
  137OSM   H16F14895   2.895   7.393   5.083 -0.0335  0.5902  0.8630
  137OSM   H16G14896   3.028   7.398   5.206 -0.1937  0.0487  0.6922
  137OSM   C17F14897   2.856   7.361   5.302  0.3119 -0.3639  0.0180
  137OSM   H17F14898   2.874   7.273   5.368  1.5202 -0.2220 -0.1178
  137OSM   H17G14899   2.745   7.369   5.293  0.1580 -1.0434  1.1556
  137OSM   C18F14900   2.899   7.488   5.376 -0.0592 -0.2523  0.0114
  137OSM   H18F14901   2.887   7.583   5.320  1.8657 -0.8437 -1.5311
  137OSM   H18G14902   3.009   7.492   5.393  0.2386  0.8578 -1.8733
  137OSM   H18H14903   2.841   7.499   5.471 -1.9811 -1.3947 -0.9624
  138OSM      N14904   3.216   2.111   2.849 -0.0384  0.3639  0.1333
  138OSM    C1514905   3.355   2.066   2.818 -0.2380 -0.1905 -0.1507
  138OSM   H15A14906   3.370   2.062   2.712  0.6982 -0.6083 -0.0105
  138OSM   H15B14907   3.382   1.971   2.860  1.1428  0.4168  0.4022
  138OSM   H15C14908   3.427   2.125   2.873 -0.9646 -0.2037  0.8625
  138OSM    C1414909   3.193   2.238   2.768  0.2419  0.0571 -0.0008
  138OSM   H14A14910   3.121   2.294   2.826 -1.4922 -2.2492  0.2133
  138OSM   H14B14911   3.148   2.221   2.671  0.1509 -0.4633  0.1280
  138OSM   H14C14912   3.285   2.295   2.767  0.2625  0.0432  0.9282
  138OSM    C1314913   3.118   2.001   2.815 -0.1080 -0.2981 -0.0399
  138OSM   H13A14914   3.137   1.979   2.711  0.2491 -0.3356  0.0297
  138OSM   H13B14915   3.016   2.036   2.815 -0.7630 -2.1029 -0.2957
  138OSM   H13C14916   3.133   1.909   2.869 -1.7354 -0.2107  0.5957
  138OSM    C1214917   3.199   2.146   2.997 -0.1563 -0.2250  0.0910
  138OSM   H12A14918   3.205   2.054   3.054  0.0867 -0.5599 -0.4595
  138OSM   H12B14919   3.097   2.176   3.013 -0.0280 -0.4508  1.4233
  138OSM    C1114920   3.295   2.261   3.049  0.0887 -0.0177 -0.2439
  138OSM   H11A14921   3.283   2.251   3.159  3.4603 -2.9187  0.0092
  138OSM   H11B14922   3.255   2.351   2.997 -0.7812  0.0477  0.5002
  138OSM      P14923   3.544   2.340   2.997  0.0341  0.1748 -0.0952
  138OSM    O1314924   3.666   2.273   2.951  0.2032  0.4615  0.1184
  138OSM    O1414925   3.496   2.454   2.909 -0.2995 -0.3373 -0.6493
  138OSM    O1114926   3.569   2.402   3.153  0.0411  0.3883  0.0787
  138OSM    O1214927   3.429   2.237   3.023 -0.3453  0.1839  0.0120
  138OSM    C1S14928   3.617   2.324   3.260 -0.2804 -0.7524 -0.3260
  138OSM    H1S14929   3.726   2.305   3.254  0.3252  1.2994  2.3915
  138OSM    H1T14930   3.557   2.231   3.264 -2.2011  0.4742  1.6080
  138OSM     NF14931   3.673   2.337   3.502  0.1353  0.4569 -0.0549
  138OSM    HNF14932   3.624   2.271   3.558  0.3251 -0.3679 -0.8380
  138OSM    C2S14933   3.593   2.402   3.396  0.4878 -0.1167 -0.7086
  138OSM    H2S14934   3.639   2.502   3.376  0.5547  0.0829  0.3726
  138OSM    C3S14935   3.444   2.416   3.439 -0.0871 -0.1408  0.4959
  138OSM    H3S14936   3.390   2.319   3.439 -0.6835  0.0815 -2.4891
  138OSM     O314937   3.355   2.500   3.354  0.1225  0.6603 -0.1088
  138OSM    HO314938   3.407   2.541   3.285  0.0528  2.0512  0.6275
  138OSM    C4S14939   3.436   2.491   3.567  0.3897 -0.0316  0.3763
  138OSM    H4S14940   3.482   2.589   3.552 -2.3394  1.2334 -0.4128
  138OSM    C5S14941   3.374   2.460   3.683  0.2230  0.3534  0.7241
  138OSM    H5S14942   3.311   2.370   3.679  0.6822  0.0636 -1.8883
  138OSM    C6S14943   3.353   2.556   3.795  0.0674  0.7413 -0.9216
  138OSM    H6S14944   3.252   2.565   3.840 -0.6377  2.9585 -2.7999
  138OSM    H6T14945   3.375   2.657   3.756 -0.9650  0.9385 -1.0067
  138OSM    C7S14946   3.454   2.528   3.914  0.6657  0.9272  0.0754
  138OSM    H7S14947   3.556   2.541   3.871  1.3975 -0.2727  1.3351
  138OSM    H7T14948   3.430   2.429   3.960  0.6063  2.1405  2.8509
  138OSM    C8S14949   3.446   2.633   4.027 -0.0049  0.2854 -0.1715
  138OSM    H8S14950   3.337   2.634   4.048  0.2120  0.0524  1.0225
  138OSM    H8T14951   3.482   2.733   3.993  0.7181 -0.5439 -1.9590
  138OSM    C9S14952   3.529   2.594   4.160  0.1655 -0.3732  0.0473
  138OSM    H9S14953   3.639   2.598   4.145  0.0938 -0.4344 -0.5140
  138OSM    H9T14954   3.495   2.488   4.167 -1.1469  0.0952  1.1374
  138OSM   C10S14955   3.481   2.667   4.280  0.3185 -0.0053 -0.4082
  138OSM   H10S14956   3.370   2.661   4.288  0.2152  1.9798  0.3960
  138OSM   H10T14957   3.505   2.775   4.264  2.8507 -0.1566  1.7918
  138OSM   C11S14958   3.550   2.629   4.419  0.2432  0.2299 -0.7279
  138OSM   H11S14959   3.659   2.650   4.428  0.5056 -1.1726 -0.3503
  138OSM   H11T14960   3.531   2.520   4.428  0.3047 -0.0387 -3.0877
  138OSM   C12S14961   3.475   2.692   4.535 -0.1772 -0.3190 -0.6721
  138OSM   H12S14962   3.488   2.631   4.627 -1.4174 -0.7785 -0.7832
  138OSM   H12T14963   3.365   2.690   4.528 -0.2697 -1.7489  0.7608
  138OSM   C13S14964   3.514   2.835   4.564  0.2589  0.1236 -0.7181
  138OSM   H13S14965   3.490   2.893   4.472 -1.0117 -0.0841 -0.5287
  138OSM   H13T14966   3.625   2.836   4.577  0.1940  1.0854 -0.1568
  138OSM   C14S14967   3.443   2.889   4.685  0.1985 -1.0102 -0.8126
  138OSM   H14S14968   3.453   2.998   4.705  1.2588 -1.2697  0.1605
  138OSM   H14T14969   3.466   2.829   4.775  1.1619  2.2432  1.3030
  138OSM   C15S14970   3.291   2.863   4.692  1.1929 -0.2543 -0.1610
  138OSM   H15S14971   3.275   2.757   4.719 -2.3847  0.1859 -0.1306
  138OSM   H15T14972   3.244   2.878   4.593 -1.2295 -0.5565  0.8746
  138OSM   C16S14973   3.218   2.968   4.776  0.4126  0.2499  0.0965
  138OSM   H16S14974   3.114   2.970   4.738  0.6983  0.7809 -0.6967
  138OSM   H16T14975   3.260   3.071   4.762  1.0408 -0.0928 -0.6309
  138OSM   C17S14976   3.233   2.936   4.931  0.4465  0.5109  0.8193
  138OSM   H17S14977   3.218   3.031   4.988 -0.8553  1.8519 -1.5889
  138OSM   H17T14978   3.334   2.897   4.955  1.3804  1.7413 -0.9171
  138OSM   C18S14979   3.118   2.852   4.989 -0.0806 -0.2806 -0.2381
  138OSM   H18S14980   3.137   2.743   4.996 -0.5661 -0.4394 -1.2097
  138OSM   H18T14981   3.032   2.875   4.922 -0.5235 -1.9525 -0.2960
  138OSM   H18U14982   3.097   2.879   5.095 -3.1990 -0.6972 -0.6410
  138OSM    C1F14983   3.808   2.333   3.497 -0.2551 -0.3644 -0.7074
  138OSM     OF14984   3.867   2.413   3.424  0.1666 -0.1879  0.0904
  138OSM    C2F14985   3.874   2.225   3.577  0.3375  0.1829 -0.2061
  138OSM    H2F14986   3.926   2.164   3.500 -2.2167 -0.4509 -1.5337
  138OSM    H2G14987   3.795   2.156   3.615 -1.3768  2.7010  1.0750
  138OSM    C3F14988   3.976   2.277   3.683  0.2905  0.2515  0.3956
  138OSM    H3F14989   4.039   2.343   3.620 -0.5673  0.1840 -0.5688
  138OSM    H3G14990   4.043   2.199   3.724  0.9710  0.1180 -0.8938
  138OSM    C4F14991   3.908   2.357   3.798 -0.0377 -0.6911 -0.0501
  138OSM    H4F14992   3.860   2.286   3.869 -0.2284 -0.5783 -0.0655
  138OSM    H4G14993   3.831   2.424   3.754 -0.5315 -1.4260 -0.3161
  138OSM    C5F14994   4.012   2.436   3.879  1.0755  0.3779  0.1835
  138OSM    H5F14995   4.054   2.513   3.811 -0.6932  0.2037 -1.1692
  138OSM    H5G14996   4.093   2.369   3.914  2.5059  1.7827 -0.3110
  138OSM    C6F14997   3.941   2.514   3.992  0.6149  0.0867  0.1183
  138OSM    H6F14998   3.845   2.561   3.964  0.7065 -1.3833 -3.1161
  138OSM    H6G14999   4.004   2.595   4.036  0.6949  1.3711 -2.2120
  138OSM    C7F15000   3.920   2.410   4.108  0.5855  0.8659  0.8204
  138OSM    H7F15001   4.007   2.341   4.101  1.1399  1.6375 -0.2449
  138OSM    H7G15002   3.824   2.359   4.084 -0.4011  1.9265  2.3498
  138OSM    C8F15003   3.902   2.463   4.249  0.1586 -0.3563 -0.8393
  138OSM    H8F15004   3.819   2.538   4.249  0.0989 -0.4209 -0.5597
  138OSM    H8G15005   3.999   2.510   4.275 -0.7111 -0.5323  3.3839
  138OSM    C9F15006   3.895   2.360   4.351  0.0153  0.5646 -0.6592
  138OSM    H9F15007   3.851   2.266   4.313  1.7316  0.0926 -1.5794
  138OSM   C10F15008   3.910   2.375   4.485 -0.1506 -0.1287 -0.1791
  138OSM   H10F15009   3.900   2.293   4.557 -1.0874 -0.0119 -0.1547
  138OSM   C11F15010   3.957   2.509   4.543  0.1329  0.1334  0.5370
  138OSM   H11F15011   3.906   2.593   4.493  1.6730  0.7436 -0.0780
  138OSM   H11G15012   4.068   2.516   4.533  0.2321 -1.4386  0.2301
  138OSM   C12F15013   3.934   2.524   4.690  0.5706 -0.8622 -0.8122
  138OSM   H12F15014   3.989   2.611   4.732 -0.8989 -1.3779  2.5045
  138OSM   H12G15015   3.967   2.433   4.746 -1.1229 -1.9875 -1.5381
  138OSM   C13F15016   3.787   2.544   4.729 -0.0067  0.1656  0.5024
  138OSM   H13F15017   3.753   2.443   4.697  0.4968  1.0565 -3.4207
  138OSM   H13G15018   3.742   2.626   4.669 -1.2259 -0.9240 -0.1153
  138OSM   C14F15019   3.777   2.571   4.883 -1.1121  0.6295  0.5419
  138OSM   H14F15020   3.845   2.657   4.899  0.2702 -0.2354 -0.4565
  138OSM   H14G15021   3.826   2.480   4.924 -0.6343 -0.7878 -2.8273
  138OSM   C15F15022   3.633   2.594   4.920 -0.2461 -0.1625 -0.4146
  138OSM   H15F15023   3.573   2.507   4.885 -1.3308  0.4907 -0.2187
  138OSM   H15G15024   3.594   2.686   4.871  0.5798  0.8625  0.8023
  138OSM   C16F15025   3.622   2.604   5.071  0.6674 -0.1993  0.3282
  138OSM   H16F15026   3.702   2.674   5.104  0.3588  0.3152  0.0155
  138OSM   H16G15027   3.641   2.501   5.108 -0.5381 -0.0848  1.3269
  138OSM   C17F15028   3.477   2.649   5.117  0.7048  0.2182  0.0297
  138OSM   H17F15029   3.396   2.586   5.074 -0.2605  1.2301  0.3267
  138OSM   H17G15030   3.462   2.751   5.075  1.0222  0.8516  1.3991
  138OSM   C18F15031   3.453   2.653   5.270 -0.7277  0.5653 -0.3036
  138OSM   H18F15032   3.358   2.696   5.308 -1.6194 -2.1140  0.7790
  138OSM   H18G15033   3.533   2.724   5.299 -0.3729  0.4585 -0.9902
  138OSM   H18H15034   3.473   2.555   5.319 -1.5642 -1.0892 -3.0068
  139OSM      N15035   5.123   5.866   2.975  0.2899 -0.2649 -0.0646
  139OSM    C1515036   5.100   5.832   3.116 -0.3689 -0.1433  0.1982
  139OSM   H15A15037   5.010   5.774   3.133  0.4472 -1.7883 -0.7831
  139OSM   H15B15038   5.086   5.911   3.188 -1.2323 -0.8524  0.8351
  139OSM   H15C15039   5.184   5.773   3.149 -0.1814 -0.6100 -1.0499
  139OSM    C1415040   5.240   5.961   2.955 -0.1575 -0.5152 -0.1227
  139OSM   H14A15041   5.251   5.978   2.848 -0.9575  0.6269 -0.0392
  139OSM   H14B15042   5.338   5.931   2.988  0.8335  0.6272 -1.8262
  139OSM   H14C15043   5.217   6.051   3.010  0.0916 -1.5272  1.6988
  139OSM    C1315044   5.154   5.746   2.894  0.3506 -0.5052 -0.2475
  139OSM   H13A15045   5.149   5.755   2.786  3.8291  2.2544 -0.3345
  139OSM   H13B15046   5.075   5.676   2.921 -0.4990  1.1121  1.6641
  139OSM   H13C15047   5.244   5.696   2.927  0.0489 -1.5286 -0.8980
  139OSM    C1215048   4.999   5.936   2.917 -0.7090  0.1312 -0.0864
  139OSM   H12A15049   4.929   5.855   2.929 -0.0062 -0.5698 -0.6394
  139OSM   H12B15050   5.008   5.943   2.810  0.9686  0.6242  0.0566
  139OSM    C1115051   4.951   6.058   2.991  0.5288  0.2126  0.6333
  139OSM   H11A15052   5.016   6.148   2.996 -0.3190  0.9680 -1.0346
  139OSM   H11B15053   4.938   6.035   3.099  0.1432 -0.4822  0.4437
  139OSM      P15054   4.695   6.012   2.950  0.3445 -0.4952  0.6152
  139OSM    O1315055   4.586   6.079   2.874 -0.2014  0.4500  0.4289
  139OSM    O1415056   4.731   5.872   2.911  0.2994 -0.1629 -0.3172
  139OSM    O1115057   4.662   6.025   3.100  0.0188 -0.2325  0.0119
  139OSM    O1215058   4.823   6.099   2.929 -0.0511  0.0522 -0.2867
  139OSM    C1S15059   4.668   6.160   3.146 -0.0723  0.7240 -0.5082
  139OSM    H1S15060   4.596   6.226   3.094  0.0771  1.1461 -0.1823
  139OSM    H1T15061   4.771   6.201   3.145  0.9379 -1.6328 -0.7443
  139OSM     NF15062   4.601   6.292   3.343  0.3404  0.6768  0.1607
  139OSM    HNF15063   4.675   6.350   3.376  0.3070  1.0521 -0.4000
  139OSM    C2S15064   4.628   6.157   3.299  0.1345  0.7615  0.8901
  139OSM    H2S15065   4.540   6.092   3.318 -0.5932  1.7488  0.9988
  139OSM    C3S15066   4.741   6.089   3.374 -0.0604  0.8098  0.1326
  139OSM    H3S15067   4.830   6.152   3.354  0.4117  0.0052 -0.3151
  139OSM     O315068   4.785   5.959   3.326 -0.3064  0.2037 -0.1846
  139OSM    HO315069   4.752   5.949   3.237  1.8060  1.2995 -1.1812
  139OSM    C4S15070   4.709   6.072   3.523  0.6794  0.0526  0.0566
  139OSM    H4S15071   4.635   5.991   3.529 -0.3915  0.8963 -1.2612
  139OSM    C5S15072   4.770   6.127   3.633 -0.2133 -0.0776 -0.6491
  139OSM    H5S15073   4.855   6.196   3.621 -0.7751  0.6113 -0.6969
  139OSM    C6S15074   4.737   6.076   3.773 -0.9617 -0.1125  0.3634
  139OSM    H6S15075   4.629   6.092   3.794 -0.7428  0.7703  0.8866
  139OSM    H6T15076   4.794   6.147   3.837 -2.5289  2.5748 -0.9915
  139OSM    C7S15077   4.778   5.933   3.805  0.1238 -0.0214  0.4800
  139OSM    H7S15078   4.888   5.915   3.806  0.0553 -0.4636  0.4013
  139OSM    H7T15079   4.731   5.873   3.724  0.2433  3.5425 -2.5083
  139OSM    C8S15080   4.721   5.881   3.934  0.7803 -0.9310  0.0496
  139OSM    H8S15081   4.755   5.776   3.949  0.4624 -0.8974  1.0872
  139OSM    H8T15082   4.614   5.857   3.916  0.3761 -2.2231  3.4373
  139OSM    C9S15083   4.738   5.978   4.054  0.5520 -0.9751 -0.5550
  139OSM    H9S15084   4.650   6.047   4.055  0.7273 -0.7500 -0.7297
  139OSM    H9T15085   4.834   6.027   4.028  0.4809 -1.4879 -1.8269
  139OSM   C10S15086   4.741   5.909   4.191 -0.4350 -0.0996  0.4416
  139OSM   H10S15087   4.841   5.861   4.186 -0.2777  0.1962  0.6845
  139OSM   H10T15088   4.654   5.841   4.203 -0.7818  0.1987 -0.3184
  139OSM   C11S15089   4.745   6.009   4.302 -0.2442 -0.1941  0.5710
  139OSM   H11S15090   4.648   6.062   4.305 -0.0077  0.7445 -3.4595
  139OSM   H11T15091   4.822   6.088   4.287 -0.4227  0.0375  0.8545
  139OSM   C12S15092   4.788   5.936   4.433  0.1563 -0.4301  0.1435
  139OSM   H12S15093   4.892   5.906   4.407  0.2157  0.9883 -1.3498
  139OSM   H12T15094   4.710   5.860   4.458  0.4211 -1.2799 -1.4776
  139OSM   C13S15095   4.786   6.036   4.554  0.4198 -1.0984  0.0206
  139OSM   H13S15096   4.682   6.066   4.580 -0.2477 -1.3429 -2.1834
  139OSM   H13T15097   4.840   6.129   4.530  0.3126 -1.3522 -1.3020
  139OSM   C14S15098   4.823   5.975   4.696 -0.2964 -0.4896  0.1754
  139OSM   H14S15099   4.928   5.940   4.684  0.2514  1.1433  0.0067
  139OSM   H14T15100   4.748   5.898   4.726 -2.5517  0.7375 -1.8836
  139OSM   C15S15101   4.803   6.076   4.810 -0.6747  0.0535 -0.0635
  139OSM   H15S15102   4.693   6.085   4.816 -1.2985 -2.4186 -4.0128
  139OSM   H15T15103   4.844   6.177   4.789  0.3534  0.0811  1.8770
  139OSM   C16S15104   4.845   6.009   4.939 -0.1036  0.8828  0.1014
  139OSM   H16S15105   4.956   6.008   4.928 -0.3204  1.1686 -3.6619
  139OSM   H16T15106   4.807   5.906   4.951  0.0558  0.9206  0.9917
  139OSM   C17S15107   4.805   6.088   5.059 -0.0481 -0.3074 -0.4943
  139OSM   H17S15108   4.824   6.197   5.044 -0.1039 -0.4409 -1.5687
  139OSM   H17T15109   4.863   6.047   5.145 -0.4842 -0.4439 -0.2607
  139OSM   C18S15110   4.651   6.079   5.084 -0.2949  0.0184 -0.1908
  139OSM   H18S15111   4.639   6.117   5.187  0.0495  0.2291 -0.2272
  139OSM   H18T15112   4.609   5.978   5.068  0.5106 -0.2518 -0.6495
  139OSM   H18U15113   4.607   6.144   5.004  0.4704  0.1718 -0.5017
  139OSM    C1F15114   4.471   6.335   3.341 -0.1177  0.5767  0.3471
  139OSM     OF15115   4.375   6.272   3.285 -0.7352  0.0874  0.4137
  139OSM    C2F15116   4.444   6.460   3.414  0.2571 -0.2177 -0.1816
  139OSM    H2F15117   4.400   6.541   3.352  0.2571  1.0905  1.4628
  139OSM    H2G15118   4.544   6.491   3.450  0.2658  0.6246 -0.9057
  139OSM    C3F15119   4.356   6.432   3.541  0.0551 -0.5423  0.1009
  139OSM    H3F15120   4.265   6.376   3.507  1.2577 -1.6934 -1.3586
  139OSM    H3G15121   4.334   6.537   3.571  1.2069 -0.2057 -0.2049
  139OSM    C4F15122   4.415   6.353   3.655  0.4442  0.4799 -0.1033
  139OSM    H4F15123   4.510   6.404   3.683  1.5472 -0.8778 -1.2160
  139OSM    H4G15124   4.444   6.254   3.614 -1.9111 -0.5822  0.6693
  139OSM    C5F15125   4.324   6.344   3.769 -0.7356 -0.0682 -0.1655
  139OSM    H5F15126   4.227   6.290   3.759 -0.1692 -1.0124 -0.6728
  139OSM    H5G15127   4.304   6.447   3.805 -0.2406  0.6054 -1.7204
  139OSM    C6F15128   4.402   6.282   3.893  0.1107  0.2139  0.6841
  139OSM    H6F15129   4.494   6.341   3.912  1.2265 -1.0577 -0.5281
  139OSM    H6G15130   4.425   6.175   3.871 -1.1805 -0.0283  0.4457
  139OSM    C7F15131   4.310   6.278   4.018  0.0726  0.0369 -0.4103
  139OSM    H7F15132   4.215   6.232   3.984  0.1238 -0.2687 -0.1402
  139OSM    H7G15133   4.290   6.385   4.041 -0.8117 -0.1002 -0.5200
  139OSM    C8F15134   4.367   6.209   4.145 -0.2650 -0.8587  0.2388
  139OSM    H8F15135   4.461   6.261   4.171  0.8854 -2.4201 -0.6585
  139OSM    H8G15136   4.399   6.105   4.123  1.6538 -0.2652  0.0326
  139OSM    C9F15137   4.267   6.208   4.259 -0.3532  0.4979 -0.2864
  139OSM    H9F15138   4.169   6.181   4.216 -0.3510 -0.3201  0.2131
  139OSM   C10F15139   4.293   6.241   4.395 -0.1376  0.6514 -0.3140
  139OSM   H10F15140   4.215   6.249   4.472  0.1783  2.0441 -0.1095
  139OSM   C11F15141   4.430   6.284   4.451  0.0735  0.6460 -0.4210
  139OSM   H11F15142   4.422   6.394   4.466 -3.0438  0.2925  1.4888
  139OSM   H11G15143   4.522   6.270   4.391  1.1278  0.2105  1.2285
  139OSM   C12F15144   4.449   6.217   4.586 -0.0621  0.3278  0.5323
  139OSM   H12F15145   4.549   6.254   4.615 -0.6339  1.2872  1.3533
  139OSM   H12G15146   4.439   6.106   4.577  0.0038  0.3315  0.4199
  139OSM   C13F15147   4.348   6.254   4.696  0.2528  0.6576  0.2290
  139OSM   H13F15148   4.267   6.180   4.679  2.8698 -1.8199 -2.7873
  139OSM   H13G15149   4.317   6.360   4.690 -0.1032  0.5475  0.0722
  139OSM   C14F15150   4.399   6.231   4.840  0.2062 -0.1845  0.5715
  139OSM   H14F15151   4.462   6.313   4.880 -1.0709  0.7156  0.8141
  139OSM   H14G15152   4.451   6.133   4.846  0.3504 -0.1434  0.0524
  139OSM   C15F15153   4.285   6.209   4.939 -0.3693  0.1091 -0.3419
  139OSM   H15F15154   4.213   6.132   4.904 -0.6903  0.4658 -0.4700
  139OSM   H15G15155   4.233   6.307   4.935  1.4865  1.1032 -1.5206
  139OSM   C16F15156   4.344   6.185   5.081  0.1662  0.2794 -0.0702
  139OSM   H16F15157   4.430   6.251   5.107  0.3704  0.1630 -0.4324
  139OSM   H16G15158   4.376   6.079   5.072 -1.0905  0.0500 -2.6938
  139OSM   C17F15159   4.239   6.193   5.185 -0.2165 -0.8356 -0.5555
  139OSM   H17F15160   4.147   6.148   5.142 -0.5080 -0.1092 -0.7199
  139OSM   H17G15161   4.209   6.297   5.212 -0.4654 -1.0930  0.1707
  139OSM   C18F15162   4.276   6.136   5.322  0.1650  0.4028 -0.1258
  139OSM   H18F15163   4.192   6.156   5.392  0.7245 -0.8481  0.9607
  139OSM   H18G15164   4.372   6.175   5.360 -0.1395  1.5183 -0.4848
  139OSM   H18H15165   4.297   6.027   5.320  1.8933  0.7199 -0.4599
  140OSM      N15166   2.899   3.567   3.048 -0.1127 -0.3031  0.0545
  140OSM    C1515167   2.890   3.470   3.165 -0.0943 -0.0564  0.0538
  140OSM   H15A15168   2.880   3.531   3.254  0.2561  2.1701 -1.3383
  140OSM   H15B15169   2.990   3.429   3.172 -0.3141 -0.4947  0.6833
  140OSM   H15C15170   2.828   3.383   3.155 -2.8959  1.8094  0.0792
  140OSM    C1415171   2.940   3.495   2.928 -0.5381 -0.0243 -0.1572
  140OSM   H14A15172   2.888   3.404   2.903  0.0212  0.0311 -1.6132
  140OSM   H14B15173   3.043   3.460   2.931  0.0214  0.7781 -4.1700
  140OSM   H14C15174   2.934   3.557   2.840 -1.2121 -1.5203 -1.2178
  140OSM    C1315175   2.769   3.633   3.021  0.3564 -0.5459  0.6117
  140OSM   H13A15176   2.700   3.556   2.990  1.1737 -0.5625 -1.2813
  140OSM   H13B15177   2.776   3.691   2.930  0.4059 -2.7780 -0.8784
  140OSM   H13C15178   2.743   3.703   3.099  0.1398  2.0638 -1.6681
  140OSM    C1215179   3.010   3.675   3.072 -0.2440 -0.6789  0.0194
  140OSM   H12A15180   2.983   3.737   3.156 -0.1011 -0.8369  0.1822
  140OSM   H12B15181   3.005   3.750   2.994 -2.8857  0.1725  0.9068
  140OSM    C1115182   3.146   3.629   3.089  0.3197 -0.0870 -0.1087
  140OSM   H11A15183   3.152   3.529   3.136  1.7955  0.2427  0.4763
  140OSM   H11B15184   3.186   3.703   3.163 -1.7731  0.2597  0.7586
  140OSM      P15185   3.317   3.533   2.924  0.0515  0.0581  0.1821
  140OSM    O1315186   3.243   3.414   2.887 -0.1407  0.0274  0.3891
  140OSM    O1415187   3.397   3.594   2.816  0.0240 -0.1478  0.0246
  140OSM    O1115188   3.403   3.500   3.054 -0.4676  0.2615 -0.3073
  140OSM    O1215189   3.218   3.647   2.969  0.3961  0.4288  0.1398
  140OSM    C1S15190   3.512   3.590   3.078 -0.2997  0.4235 -0.6403
  140OSM    H1S15191   3.494   3.691   3.035  2.4493  1.2810  0.0175
  140OSM    H1T15192   3.603   3.559   3.024 -1.8796 -1.1408 -2.5784
  140OSM     NF15193   3.635   3.698   3.263  0.5280 -0.1131 -0.8992
  140OSM    HNF15194   3.726   3.661   3.278 -0.2098 -1.7699 -0.1795
  140OSM    C2S15195   3.544   3.592   3.229 -0.1450  0.6793 -0.2050
  140OSM    H2S15196   3.446   3.614   3.276 -2.5495 -0.2770 -4.2988
  140OSM    C3S15197   3.593   3.452   3.281 -0.2874 -0.4449 -0.2165
  140OSM    H3S15198   3.685   3.426   3.224  0.1833  0.3331  0.1691
  140OSM     O315199   3.491   3.361   3.253  0.6639  0.1766 -0.2344
  140OSM    HO315200   3.437   3.407   3.188  0.6430  0.9358  0.3168
  140OSM    C4S15201   3.634   3.446   3.427  0.0428  0.3549 -0.2512
  140OSM    H4S15202   3.739   3.414   3.435 -0.1992 -0.2530  0.6902
  140OSM    C5S15203   3.551   3.454   3.532 -0.0311  0.3218  0.5334
  140OSM    H5S15204   3.444   3.473   3.518 -0.2000 -0.2738  1.0096
  140OSM    C6S15205   3.594   3.450   3.675  0.6063 -0.7838  0.6558
  140OSM    H6S15206   3.549   3.360   3.722  0.8748 -1.1321  0.2621
  140OSM    H6T15207   3.555   3.546   3.714  2.5189  0.8950 -1.3041
  140OSM    C7S15208   3.752   3.460   3.711 -0.2668 -0.6568 -0.2626
  140OSM    H7S15209   3.804   3.554   3.681 -0.1266  0.1130  2.2109
  140OSM    H7T15210   3.806   3.381   3.655 -3.2167 -1.4775 -2.1885
  140OSM    C8S15211   3.774   3.438   3.858  0.3457  0.0977  0.5346
  140OSM    H8S15212   3.882   3.416   3.861  0.5801  0.4582 -2.3700
  140OSM    H8T15213   3.731   3.347   3.905 -1.3983  1.2693  1.3339
  140OSM    C9S15214   3.768   3.565   3.942 -0.0961  0.0205  0.7461
  140OSM    H9S15215   3.676   3.623   3.918 -0.3279 -0.7741 -0.4227
  140OSM    H9T15216   3.844   3.639   3.911 -1.1937  1.4578  1.3501
  140OSM   C10S15217   3.777   3.529   4.087 -1.1668 -0.3753  0.2100
  140OSM   H10S15218   3.878   3.486   4.102 -0.8189 -0.2517 -1.5430
  140OSM   H10T15219   3.708   3.445   4.110 -0.7438 -1.1402 -1.1927
  140OSM   C11S15220   3.752   3.648   4.180  0.2070 -0.1106  0.0750
  140OSM   H11S15221   3.642   3.662   4.184 -0.0409 -1.8698  0.3245
  140OSM   H11T15222   3.791   3.748   4.151 -1.5099  0.9154  1.1466
  140OSM   C12S15223   3.789   3.624   4.328  0.3466 -0.2465 -0.7484
  140OSM   H12S15224   3.794   3.720   4.384  3.2709 -1.3105  1.0306
  140OSM   H12T15225   3.891   3.579   4.329 -0.0341 -1.1327  0.3952
  140OSM   C13S15226   3.690   3.518   4.387 -0.6857 -0.0862  0.1320
  140OSM   H13S15227   3.742   3.429   4.346  0.5743  1.4507 -1.8373
  140OSM   H13T15228   3.589   3.526   4.341 -0.6811 -1.0023 -0.0459
  140OSM   C14S15229   3.685   3.513   4.541  0.2195 -0.6813 -0.0948
  140OSM   H14S15230   3.639   3.413   4.558 -2.0360 -0.4008 -3.4205
  140OSM   H14T15231   3.611   3.593   4.567  1.1671 -0.1544  1.0505
  140OSM   C15S15232   3.812   3.550   4.618  0.1278  0.1822 -0.7095
  140OSM   H15S15233   3.828   3.660   4.617  0.9867  0.1927  2.3148
  140OSM   H15T15234   3.893   3.490   4.571 -1.8742 -4.2851  1.0011
  140OSM   C16S15235   3.796   3.498   4.765 -0.6043 -0.1745  0.8325
  140OSM   H16S15236   3.757   3.394   4.767  0.7013 -0.6707  1.2049
  140OSM   H16T15237   3.717   3.562   4.811 -0.2517  1.4020 -0.6561
  140OSM   C17S15238   3.930   3.515   4.842  1.1549 -0.1247  0.1739
  140OSM   H17S15239   3.965   3.620   4.833  1.9556 -0.3232  0.8430
  140OSM   H17T15240   4.012   3.448   4.808  0.1461 -0.7428 -1.1435
  140OSM   C18S15241   3.921   3.488   4.991 -0.2661  0.4524  0.5851
  140OSM   H18S15242   4.018   3.495   5.046 -0.8569  0.4309  1.6682
  140OSM   H18T15243   3.883   3.385   5.009  1.5344 -0.2041  0.8691
  140OSM   H18U15244   3.867   3.568   5.046 -1.0545  0.5007 -0.2618
  140OSM    C1F15245   3.592   3.822   3.280  0.1609  0.5019  0.2799
  140OSM     OF15246   3.476   3.851   3.310 -0.0297  0.3315  0.0314
  140OSM    C2F15247   3.691   3.932   3.245 -0.4235  0.5884  0.3664
  140OSM    H2F15248   3.647   3.985   3.157  1.5649  0.7945 -0.5671
  140OSM    H2G15249   3.795   3.902   3.218 -0.5370  0.1623  0.4048
  140OSM    C3F15250   3.692   4.031   3.362 -0.3798  0.5874  0.0230
  140OSM    H3F15251   3.587   4.067   3.370 -0.9417 -1.2531  1.6031
  140OSM    H3G15252   3.755   4.119   3.338  0.3133  0.6650  1.9334
  140OSM    C4F15253   3.742   3.968   3.497  0.5666 -0.3325  0.1385
  140OSM    H4F15254   3.697   3.868   3.513 -0.6004  0.0240 -0.7416
  140OSM    H4G15255   3.716   4.031   3.585  2.4676  0.1645  0.3751
  140OSM    C5F15256   3.899   3.964   3.503 -0.0858  0.5565 -0.0908
  140OSM    H5F15257   3.940   4.046   3.439 -0.2557 -2.1902 -4.1287
  140OSM    H5G15258   3.929   3.863   3.469 -0.8180  0.5652 -0.8142
  140OSM    C6F15259   3.942   3.995   3.648 -0.1379 -0.3328  1.8996
  140OSM    H6F15260   3.918   4.102   3.666  1.7562  0.2921  0.9695
  140OSM    H6G15261   4.052   3.983   3.643 -0.2535 -0.8759 -0.1011
  140OSM    C7F15262   3.887   3.910   3.763  0.1237  0.2610  0.1145
  140OSM    H7F15263   3.931   3.808   3.752  0.6774  0.5558 -0.4759
  140OSM    H7G15264   3.778   3.893   3.750 -0.2032  0.6572  2.0446
  140OSM    C8F15265   3.923   3.967   3.901 -0.1584 -0.0530  0.1773
  140OSM    H8F15266   4.022   4.016   3.899  0.0196 -0.4064  0.2347
  140OSM    H8G15267   3.925   3.884   3.975 -0.1765 -1.4213 -1.3016
  140OSM    C9F15268   3.815   4.063   3.940  0.2561  0.1186 -0.2760
  140OSM    H9F15269   3.798   4.136   3.859  1.8110  0.6148 -0.1817
  140OSM   C10F15270   3.739   4.071   4.049  0.9076 -0.3715 -0.6071
  140OSM   H10F15271   3.654   4.140   4.037  2.3646  2.1362  2.4714
  140OSM   C11F15272   3.742   3.999   4.182  0.1021  0.5130 -0.0398
  140OSM   H11F15273   3.848   3.966   4.190  0.3588  1.1683 -0.6091
  140OSM   H11G15274   3.674   3.911   4.184  0.9333 -0.1387  0.0735
  140OSM   C12F15275   3.720   4.077   4.306  0.2619 -0.0657  0.1955
  140OSM   H12F15276   3.623   4.132   4.305  0.1026 -0.3449 -1.1822
  140OSM   H12G15277   3.793   4.157   4.328 -1.3553  1.2352  1.1217
  140OSM   C13F15278   3.721   3.991   4.428  0.1097  0.4528  0.5686
  140OSM   H13F15279   3.817   3.937   4.417 -0.3680 -0.0992 -1.3987
  140OSM   H13G15280   3.647   3.909   4.413 -1.1298  1.8396 -1.5650
  140OSM   C14F15281   3.705   4.046   4.563 -0.1681 -0.3178  0.3293
  140OSM   H14F15282   3.599   4.075   4.580 -0.3747  0.1746 -1.5834
  140OSM   H14G15283   3.771   4.134   4.576 -0.0857  0.3560 -3.6055
  140OSM   C15F15284   3.754   3.950   4.677 -0.1391  0.0644  0.1329
  140OSM   H15F15285   3.862   3.928   4.663 -0.0171  0.3893  0.5650
  140OSM   H15G15286   3.681   3.867   4.687 -0.3580  0.3300  0.7630
  140OSM   C16F15287   3.754   4.018   4.811  0.0086  0.4346  0.2898
  140OSM   H16F15288   3.655   4.070   4.804  0.8231  1.9139 -0.7509
  140OSM   H16G15289   3.826   4.100   4.829  1.2571 -1.1208  3.0975
  140OSM   C17F15290   3.764   3.928   4.937  0.7308 -0.0626  0.2304
  140OSM   H17F15291   3.866   3.887   4.953  1.9279  2.9482  1.1451
  140OSM   H17G15292   3.693   3.846   4.915 -2.0900  1.1631  3.6841
  140OSM   C18F15293   3.701   4.003   5.064  0.4202  0.5484  0.0221
  140OSM   H18F15294   3.677   3.926   5.140 -2.0813 -1.1467 -2.3128
  140OSM   H18G15295   3.602   4.037   5.026  0.0297  0.6540  1.0945
  140OSM   H18H15296   3.766   4.081   5.109 -2.8960  2.4377  1.9617
  141OSM      N15297   4.904   6.473   2.809 -0.4477  0.0400 -0.0580
  141OSM    C1515298   4.945   6.419   2.680  0.4008  0.5734  0.3695
  141OSM   H15A15299   5.041   6.465   2.663  0.1372  1.7753  1.9464
  141OSM   H15B15300   4.873   6.442   2.603 -1.0828 -1.1883  1.1421
  141OSM   H15C15301   4.945   6.311   2.680 -3.5345  0.3429  3.5799
  141OSM    C1415302   4.992   6.429   2.922  0.3998  0.0120  0.3913
  141OSM   H14A15303   5.094   6.450   2.892  0.2997 -1.0972 -0.8149
  141OSM   H14B15304   4.985   6.322   2.931  2.5253 -0.3668 -1.5013
  141OSM   H14C15305   4.965   6.492   3.006 -0.5901  1.8925 -1.2479
  141OSM    C1315306   4.912   6.623   2.812 -0.0385 -0.3643 -0.6924
  141OSM   H13A15307   4.876   6.656   2.716 -1.9025  0.9751  0.3891
  141OSM   H13B15308   5.017   6.646   2.820 -0.3137  1.0153 -0.8164
  141OSM   H13C15309   4.850   6.654   2.895 -1.6616 -3.0280 -0.7777
  141OSM    C1215310   4.765   6.424   2.845  0.0420 -0.1437 -0.1611
  141OSM   H12A15311   4.774   6.316   2.836  0.6760 -0.3718  2.4052
  141OSM   H12B15312   4.696   6.469   2.776  1.7062  0.6001 -1.4213
  141OSM    C1115313   4.704   6.467   2.983  0.4142  0.5064  0.3764
  141OSM   H11A15314   4.751   6.410   3.065  0.2232 -0.7316 -0.3556
  141OSM   H11B15315   4.598   6.434   2.975  0.7104 -0.0516 -2.2229
  141OSM      P15316   4.706   6.687   3.126 -0.1554  0.2357  0.0613
  141OSM    O1315317   4.747   6.820   3.087 -0.2795  0.3396  0.0846
  141OSM    O1415318   4.590   6.676   3.219  0.1491  0.1492 -0.1096
  141OSM    O1115319   4.823   6.600   3.191  0.3670 -0.4043  0.0655
  141OSM    O1215320   4.683   6.606   2.991  0.3057  0.1186  0.0942
  141OSM    C1S15321   4.944   6.649   3.238 -0.4335  0.2421  0.5478
  141OSM    H1S15322   4.972   6.742   3.183 -0.7596 -0.6884 -1.2335
  141OSM    H1T15323   5.025   6.578   3.213  0.1612  0.9801  0.3135
  141OSM     NF15324   5.064   6.740   3.422  0.2214 -1.1942  0.5143
  141OSM    HNF15325   5.141   6.684   3.449 -0.5687 -1.6451  1.9412
  141OSM    C2S15326   4.939   6.673   3.388 -0.9747  0.1247  0.4698
  141OSM    H2S15327   4.847   6.727   3.420 -0.7230  0.1545  1.1591
  141OSM    C3S15328   4.926   6.534   3.461 -0.8252  0.0161  0.4343
  141OSM    H3S15329   5.013   6.469   3.440 -1.4218 -0.2676 -1.3385
  141OSM     O315330   4.817   6.461   3.401  0.1465 -0.3477  0.3152
  141OSM    HO315331   4.798   6.514   3.323 -1.6713 -0.1688  0.8380
  141OSM    C4S15332   4.915   6.527   3.611 -0.3345  1.1210  0.3780
  141OSM    H4S15333   5.004   6.480   3.656 -2.5074 -2.5871  1.2265
  141OSM    C5S15334   4.810   6.548   3.693  0.1873  1.0035 -0.1623
  141OSM    H5S15335   4.723   6.602   3.653 -1.8881 -1.5254  0.6777
  141OSM    C6S15336   4.818   6.542   3.846  0.0409 -0.7567  0.2910
  141OSM    H6S15337   4.739   6.610   3.885 -0.6403 -2.4393  1.9758
  141OSM    H6T15338   4.920   6.569   3.881 -0.4603 -0.0723  1.2797
  141OSM    C7S15339   4.791   6.399   3.902 -0.3273 -0.3161 -0.8584
  141OSM    H7S15340   4.871   6.328   3.873 -0.5830 -0.0890 -2.2081
  141OSM    H7T15341   4.704   6.358   3.846 -2.1203 -1.7751  2.6475
  141OSM    C8S15342   4.758   6.389   4.057 -0.7566  0.0214 -0.2520
  141OSM    H8S15343   4.719   6.287   4.080 -0.5568  0.0316  0.1522
  141OSM    H8T15344   4.682   6.465   4.085 -0.2039  0.4155  0.1995
  141OSM    C9S15345   4.886   6.417   4.142  0.0606  0.0185  0.5953
  141OSM    H9S15346   4.933   6.514   4.117 -1.3253  0.6076  0.1862
  141OSM    H9T15347   4.961   6.344   4.106 -0.8100 -0.9258  0.6526
  141OSM   C10S15348   4.871   6.414   4.296  0.3519 -0.3676 -0.4146
  141OSM   H10S15349   4.964   6.428   4.356 -0.7430 -2.4089  1.9228
  141OSM   H10T15350   4.840   6.310   4.320  2.3824 -1.2237 -1.2931
  141OSM   C11S15351   4.771   6.512   4.363  0.4223  1.0215 -0.4821
  141OSM   H11S15352   4.675   6.460   4.347 -0.8195  3.4594 -1.3710
  141OSM   H11T15353   4.773   6.598   4.293  1.0787  0.7529 -0.8025
  141OSM   C12S15354   4.794   6.557   4.511  0.1769 -0.7420 -0.5815
  141OSM   H12S15355   4.875   6.632   4.505 -2.3288  2.0397 -2.6490
  141OSM   H12T15356   4.821   6.472   4.578 -0.0739 -0.3413  0.0364
  141OSM   C13S15357   4.663   6.623   4.580 -0.0059 -0.3418  0.2464
  141OSM   H13S15358   4.580   6.556   4.549  0.6501 -0.5613 -1.0781
  141OSM   H13T15359   4.647   6.723   4.533  0.5883 -1.0864 -1.6396
  141OSM   C14S15360   4.675   6.630   4.731 -0.1916  0.6422 -0.0468
  141OSM   H14S15361   4.590   6.686   4.777 -1.0154 -0.0405 -0.7053
  141OSM   H14T15362   4.770   6.683   4.755  0.2259 -0.1463  0.0695
  141OSM   C15S15363   4.688   6.494   4.806  0.3887  0.0449 -0.5214
  141OSM   H15S15364   4.646   6.425   4.730 -0.7902  0.7345 -0.5224
  141OSM   H15T15365   4.617   6.484   4.891  0.9160 -1.9090 -0.2510
  141OSM   C16S15366   4.825   6.464   4.863  0.2201  0.0916 -0.5898
  141OSM   H16S15367   4.905   6.443   4.789 -0.7142 -2.8309 -0.9058
  141OSM   H16T15368   4.811   6.362   4.906 -4.2933  0.7259 -0.0265
  141OSM   C17S15369   4.884   6.568   4.970 -0.1642 -0.3209 -0.2330
  141OSM   H17S15370   4.899   6.669   4.926 -1.9824  0.3878  0.6723
  141OSM   H17T15371   4.984   6.531   5.002 -0.3312  0.1130  0.8419
  141OSM   C18S15372   4.783   6.574   5.092 -0.3973  0.5737  0.0037
  141OSM   H18S15373   4.826   6.605   5.189 -0.6033  1.2848 -0.1263
  141OSM   H18T15374   4.732   6.476   5.096  0.5174  0.0687 -0.2937
  141OSM   H18U15375   4.709   6.653   5.069 -0.0850  1.1377  0.9135
  141OSM    C1F15376   5.076   6.873   3.395 -0.2760 -0.1313 -1.0000
  141OSM     OF15377   4.974   6.938   3.368 -0.7308  0.3212 -1.0387
  141OSM    C2F15378   5.213   6.936   3.399 -0.3220 -0.1906  0.2432
  141OSM    H2F15379   5.243   6.942   3.292 -1.5006 -0.2765 -0.1036
  141OSM    H2G15380   5.280   6.865   3.451 -0.7938 -0.8983 -0.1010
  141OSM    C3F15381   5.217   7.080   3.463 -0.1625  0.6077 -0.2391
  141OSM    H3F15382   5.147   7.138   3.399  0.6673  0.1020 -1.6541
  141OSM    H3G15383   5.322   7.115   3.457 -0.3003  1.3377  1.2190
  141OSM    C4F15384   5.178   7.103   3.607  0.1457  0.7258  0.8849
  141OSM    H4F15385   5.067   7.092   3.610  0.2474 -0.7351  0.0840
  141OSM    H4G15386   5.198   7.207   3.641  0.3369  1.1184 -0.3563
  141OSM    C5F15387   5.233   7.005   3.711  0.1346 -0.2185  0.3206
  141OSM    H5F15388   5.339   7.039   3.716 -0.1786  1.4866 -2.1798
  141OSM    H5G15389   5.209   6.903   3.674 -0.7774  0.1225 -0.0634
  141OSM    C6F15390   5.169   7.006   3.853  0.4476 -0.0126  0.7914
  141OSM    H6F15391   5.062   6.979   3.835  0.9349 -0.7906 -1.1429
  141OSM    H6G15392   5.184   7.096   3.916  1.4398  0.3932 -0.0023
  141OSM    C7F15393   5.232   6.891   3.939  0.0548  0.5759 -0.0509
  141OSM    H7F15394   5.341   6.892   3.916  0.1506  0.0254  0.3416
  141OSM    H7G15395   5.195   6.794   3.901  1.2256  0.2245 -0.3493
  141OSM    C8F15396   5.208   6.908   4.091  0.4044  0.3573  0.4488
  141OSM    H8F15397   5.228   7.015   4.112 -2.1703  0.5877  2.2315
  141OSM    H8G15398   5.290   6.852   4.141  1.0774  1.6981  0.8816
  141OSM    C9F15399   5.063   6.873   4.129 -0.0737 -0.1585 -0.1834
  141OSM    H9F15400   4.995   6.929   4.064  0.2365  0.1241 -0.2637
  141OSM   C10F15401   5.005   6.809   4.240  0.1652  0.1038  0.2145
  141OSM   H10F15402   4.895   6.808   4.247  0.1709  1.2866  0.6839
  141OSM   C11F15403   5.082   6.746   4.348  0.0946  0.0498 -0.1169
  141OSM   H11F15404   5.189   6.735   4.321  0.0473 -2.1322  0.3527
  141OSM   H11G15405   5.043   6.643   4.365 -0.7378  0.3763 -0.0262
  141OSM   C12F15406   5.071   6.830   4.479 -0.1389 -0.4001 -0.0113
  141OSM   H12F15407   4.967   6.851   4.514  0.1721 -1.0302  1.3708
  141OSM   H12G15408   5.104   6.935   4.466 -0.2310 -0.2688  0.7344
  141OSM   C13F15409   5.128   6.755   4.602  0.1231 -0.3570  0.3983
  141OSM   H13F15410   5.232   6.728   4.573 -0.2451  0.2587 -1.7447
  141OSM   H13G15411   5.067   6.663   4.613  0.1793 -0.5221 -0.5348
  141OSM   C14F15412   5.109   6.846   4.723 -0.5764 -0.1011  0.1090
  141OSM   H14F15413   5.012   6.829   4.773  0.3539 -2.3354  1.3117
  141OSM   H14G15414   5.127   6.954   4.705  0.8346 -0.1455  1.1087
  141OSM   C15F15415   5.218   6.803   4.832  0.5960 -0.0779 -0.0932
  141OSM   H15F15416   5.319   6.829   4.792  0.4896 -1.6205 -1.4546
  141OSM   H15G15417   5.213   6.696   4.858  0.9019  0.5513  2.9439
  141OSM   C16F15418   5.199   6.882   4.957  0.4738 -0.4018 -0.5747
  141OSM   H16F15419   5.089   6.889   4.971  0.3715 -2.2876 -0.2381
  141OSM   H16G15420   5.247   6.978   4.929 -0.3881  0.0730 -0.4779
  141OSM   C17F15421   5.272   6.824   5.074  0.3379 -0.3226  0.9374
  141OSM   H17F15422   5.380   6.815   5.052  0.2999 -2.3659  1.3968
  141OSM   H17G15423   5.237   6.718   5.081 -1.5497  0.0063 -1.7376
  141OSM   C18F15424   5.251   6.902   5.202  0.1007 -0.4069  0.5148
  141OSM   H18F15425   5.315   6.992   5.185 -2.0536  0.7081 -2.8575
  141OSM   H18G15426   5.283   6.854   5.296  0.2078  0.6494  1.0279
  141OSM   H18H15427   5.150   6.949   5.199 -0.0273 -0.6444  1.0449
  142OSM      N15428   5.833   2.091   3.074 -0.0886  0.2065 -0.1962
  142OSM    C1515429   5.938   2.117   2.969  0.2651  0.3843  0.1005
  142OSM   H15A15430   5.979   2.216   2.978  0.8284  0.1475  0.1889
  142OSM   H15B15431   5.892   2.106   2.872 -0.8222 -3.2989  0.8812
  142OSM   H15C15432   6.012   2.038   2.972  0.4050  0.4873 -0.4195
  142OSM    C1415433   5.710   2.161   3.036  0.2162  0.0043  0.3749
  142OSM   H14A15434   5.721   2.269   3.036 -3.7578  0.6775  3.7677
  142OSM   H14B15435   5.625   2.146   3.100 -1.1027  1.8204 -0.8444
  142OSM   H14C15436   5.678   2.132   2.937 -1.7647  1.9871  0.3558
  142OSM    C1315437   5.791   1.943   3.069  0.2990  0.0821  0.3367
  142OSM   H13A15438   5.876   1.877   3.080  1.6640  1.5517 -0.8635
  142OSM   H13B15439   5.738   1.920   2.979  1.8321 -0.1878 -0.5293
  142OSM   H13C15440   5.723   1.921   3.150  1.0061  0.3319  1.0181
  142OSM    C1215441   5.877   2.131   3.208 -0.1423 -0.7804  0.3176
  142OSM   H12A15442   5.950   2.059   3.242 -0.0131 -0.6532  0.3099
  142OSM   H12B15443   5.795   2.119   3.277  0.1027  1.4746  1.0823
  142OSM    C1115444   5.931   2.274   3.230  0.4855  0.5376 -0.3438
  142OSM   H11A15445   6.014   2.302   3.162 -0.7748  4.9778 -0.3769
  142OSM   H11B15446   5.965   2.291   3.334  0.3096  2.5894 -0.5797
  142OSM      P15447   5.832   2.490   3.116  0.3472 -0.3223  0.3880
  142OSM    O1315448   5.831   2.448   2.972 -0.6315 -0.1103 -0.0961
  142OSM    O1415449   5.721   2.581   3.152 -0.5454 -0.0814  0.4021
  142OSM    O1115450   5.971   2.549   3.149 -0.5360 -0.8418 -0.5506
  142OSM    O1215451   5.819   2.358   3.210 -0.4133 -0.2916  0.1178
  142OSM    C1S15452   5.992   2.659   3.246 -0.3597 -0.0724 -0.0377
  142OSM    H1S15453   5.904   2.723   3.268  1.6582  2.7411  0.4725
  142OSM    H1T15454   6.068   2.732   3.210  0.4025  1.5749  4.2128
  142OSM     NF15455   6.047   2.723   3.475  0.8393 -0.2428  0.5755
  142OSM    HNF15456   6.136   2.764   3.492 -0.2800  1.6174  2.4320
  142OSM    C2S15457   6.051   2.616   3.380 -0.4489 -0.0239 -0.5587
  142OSM    H2S15458   5.987   2.536   3.424  0.0122 -0.2857 -0.3576
  142OSM    C3S15459   6.193   2.549   3.375  0.5594 -0.1754  0.7006
  142OSM    H3S15460   6.266   2.627   3.344  0.0862  0.3902  1.0037
  142OSM     O315461   6.212   2.460   3.267  0.5020  0.1982  0.3448
  142OSM    HO315462   6.128   2.466   3.221  1.4862 -0.3941 -1.6507
  142OSM    C4S15463   6.227   2.477   3.501 -0.5842 -0.3254  0.7562
  142OSM    H4S15464   6.150   2.410   3.541 -1.4129 -0.5791 -1.1409
  142OSM    C5S15465   6.343   2.502   3.566  0.1826  0.0291 -0.4465
  142OSM    H5S15466   6.419   2.567   3.520  0.4650  1.0240  1.3151
  142OSM    C6S15467   6.391   2.447   3.697  0.1258 -0.3756 -1.0643
  142OSM    H6S15468   6.499   2.422   3.697  0.1167 -0.4445 -0.5528
  142OSM    H6T15469   6.341   2.351   3.723 -0.5420  0.4588  0.9350
  142OSM    C7S15470   6.369   2.548   3.821 -0.0960 -0.2007  0.0285
  142OSM    H7S15471   6.264   2.553   3.859 -0.7463 -2.2439 -1.2887
  142OSM    H7T15472   6.409   2.645   3.786  1.5562 -0.8342  0.1011
  142OSM    C8S15473   6.444   2.501   3.949  0.8534  0.2303 -0.1513
  142OSM    H8S15474   6.444   2.586   4.021 -0.4299  0.5571 -0.5156
  142OSM    H8T15475   6.548   2.475   3.921  0.8479  0.6020 -0.5126
  142OSM    C9S15476   6.376   2.386   4.031  0.4098 -0.0968 -0.6441
  142OSM    H9S15477   6.385   2.288   3.978 -2.4886 -3.2317  3.8950
  142OSM    H9T15478   6.268   2.412   4.035  0.7344  1.1950  0.3948
  142OSM   C10S15479   6.429   2.361   4.173 -0.1453  0.0066  0.3497
  142OSM   H10S15480   6.523   2.303   4.168  0.2151  0.6051 -0.0064
  142OSM   H10T15481   6.348   2.295   4.209 -1.2518  1.1245 -0.0247
  142OSM   C11S15482   6.429   2.490   4.259 -0.2196 -0.0961  0.4760
  142OSM   H11S15483   6.328   2.536   4.254 -0.4150 -0.6087 -0.6411
  142OSM   H11T15484   6.512   2.555   4.222  1.4532 -0.9189  2.5542
  142OSM   C12S15485   6.460   2.468   4.411 -0.8257 -1.0022 -0.3232
  142OSM   H12S15486   6.560   2.422   4.427 -0.8153 -0.1683  2.5662
  142OSM   H12T15487   6.382   2.411   4.465 -0.8225 -0.4385  0.2888
  142OSM   C13S15488   6.463   2.609   4.482 -0.0515  0.1325  0.0685
  142OSM   H13S15489   6.362   2.655   4.482 -0.3202 -0.4366  0.9643
  142OSM   H13T15490   6.536   2.680   4.438  0.0314  0.2193  0.3441
  142OSM   C14S15491   6.507   2.597   4.628 -0.2460  0.2545  0.1076
  142OSM   H14S15492   6.614   2.626   4.634 -0.3581  0.5658  0.6231
  142OSM   H14T15493   6.494   2.498   4.676  0.9316  1.5733  3.4569
  142OSM   C15S15494   6.445   2.699   4.728 -0.6121 -0.0124  0.2353
  142OSM   H15S15495   6.335   2.687   4.733 -0.7642  1.5951  1.8317
  142OSM   H15T15496   6.466   2.804   4.699 -0.7895 -0.0593 -0.0599
  142OSM   C16S15497   6.506   2.670   4.868  0.6056 -0.4029 -0.5393
  142OSM   H16S15498   6.615   2.689   4.872  0.2979  1.9400 -1.5795
  142OSM   H16T15499   6.490   2.560   4.878  1.8678 -0.4919  0.7133
  142OSM   C17S15500   6.439   2.753   4.980  0.2668 -0.0898  0.0091
  142OSM   H17S15501   6.329   2.736   4.980 -0.1478  2.2714  0.6276
  142OSM   H17T15502   6.447   2.857   4.943 -0.9346  0.1427  0.3531
  142OSM   C18S15503   6.516   2.733   5.116  1.0797  0.1449  0.3156
  142OSM   H18S15504   6.526   2.829   5.171  0.1001  0.8191 -0.6187
  142OSM   H18T15505   6.616   2.697   5.084  0.0357 -0.4472 -2.6777
  142OSM   H18U15506   6.473   2.653   5.180  0.2623  1.8098  1.9433
  142OSM    C1F15507   5.941   2.772   3.537 -0.5485  0.1233  0.0672
  142OSM     OF15508   5.826   2.745   3.505 -0.2978  0.0949 -0.1508
  142OSM    C2F15509   5.963   2.877   3.645  0.3463  0.2060 -0.4358
  142OSM    H2F15510   5.893   2.846   3.725 -0.0585  0.9376 -0.4966
  142OSM    H2G15511   5.950   2.979   3.602  0.7804  1.0045  1.2253
  142OSM    C3F15512   6.104   2.866   3.707 -0.0223  0.2263 -0.4404
  142OSM    H3F15513   6.187   2.898   3.641 -0.0132 -0.6745 -0.8930
  142OSM    H3G15514   6.141   2.762   3.722  0.5645  0.0279 -2.8220
  142OSM    C4F15515   6.123   2.940   3.844 -0.6365 -0.2828 -0.7414
  142OSM    H4F15516   6.217   2.917   3.899 -0.5655 -0.2371 -0.8438
  142OSM    H4G15517   6.040   2.904   3.909 -0.1904  0.8297  0.4838
  142OSM    C5F15518   6.121   3.091   3.835  0.3484  0.5474  0.2723
  142OSM    H5F15519   6.025   3.127   3.792 -0.4420 -0.6793  0.9230
  142OSM    H5G15520   6.192   3.117   3.754 -2.0179  1.1202 -1.7173
  142OSM    C6F15521   6.157   3.155   3.968  0.5214  0.1603 -0.1960
  142OSM    H6F15522   6.188   3.262   3.955 -0.3713  0.5342  0.6267
  142OSM    H6G15523   6.247   3.106   4.011  0.5792  1.6399  1.5217
  142OSM    C7F15524   6.038   3.140   4.063 -0.9697  0.2921  0.2417
  142OSM    H7F15525   6.013   3.032   4.062 -2.6780  0.6231  1.5165
  142OSM    H7G15526   5.947   3.181   4.015  0.3187  1.5326 -1.2510
  142OSM    C8F15527   6.064   3.194   4.204  0.0507 -0.3569 -0.4252
  142OSM    H8F15528   6.083   3.303   4.197 -2.2425  0.1943  0.9383
  142OSM    H8G15529   6.164   3.152   4.224  0.6448  0.5324 -1.3936
  142OSM    C9F15530   5.961   3.175   4.311 -0.6119 -0.7103  0.2616
  142OSM    H9F15531   5.861   3.208   4.278 -0.0630  1.0021  0.1800
  142OSM   C10F15532   5.979   3.144   4.442 -0.1693 -0.9638 -0.0726
  142OSM   H10F15533   5.900   3.134   4.519 -0.3321  0.2401 -0.0645
  142OSM   C11F15534   6.124   3.122   4.493 -0.4571  0.2364 -0.0804
  142OSM   H11F15535   6.178   3.215   4.521 -1.2098  1.4146 -2.2729
  142OSM   H11G15536   6.185   3.080   4.411  0.5501  0.9079  0.3108
  142OSM   C12F15537   6.141   3.010   4.592 -0.0746  0.3172 -0.7995
  142OSM   H12F15538   6.250   2.988   4.594 -0.3225 -1.0850 -1.2421
  142OSM   H12G15539   6.088   2.914   4.570 -0.2643 -0.2008  1.6755
  142OSM   C13F15540   6.111   3.060   4.732  0.3386  0.4942  0.4736
  142OSM   H13F15541   6.003   3.086   4.724  0.6951  1.5136 -2.0971
  142OSM   H13G15542   6.166   3.153   4.757  1.6830 -0.4381  1.1130
  142OSM   C14F15543   6.118   2.950   4.844 -0.1076  0.6999  0.5606
  142OSM   H14F15544   6.218   2.903   4.845 -0.3840  0.1086  1.1883
  142OSM   H14G15545   6.033   2.881   4.824 -0.4755  0.9205  1.2978
  142OSM   C15F15546   6.098   3.019   4.976  0.1377  0.4345 -0.5077
  142OSM   H15F15547   6.078   2.934   5.044 -3.0810  1.0518 -0.5534
  142OSM   H15G15548   6.009   3.086   4.971  0.1473  0.5503  0.6039
  142OSM   C16F15549   6.225   3.089   5.033 -0.1640 -0.2122 -0.1837
  142OSM   H16F15550   6.248   3.177   4.968 -0.1534 -0.5704 -0.6698
  142OSM   H16G15551   6.311   3.018   5.036 -0.3020 -0.3739 -0.0696
  142OSM   C17F15552   6.214   3.150   5.178 -0.7239  0.0188  0.3197
  142OSM   H17F15553   6.111   3.137   5.219 -0.9591 -0.7073 -0.4664
  142OSM   H17G15554   6.226   3.260   5.177 -1.9256  0.1785  1.0574
  142OSM   C18F15555   6.314   3.092   5.275  0.3893 -0.4985 -0.1087
  142OSM   H18F15556   6.296   2.983   5.287 -1.1330 -0.2541  0.0173
  142OSM   H18G15557   6.321   3.149   5.370  0.6129  1.6290 -1.3387
  142OSM   H18H15558   6.412   3.100   5.222  0.0712  1.3254 -0.4658
  143OSM      N15559   3.895   2.620   3.031 -0.4236  0.1975  0.3720
  143OSM    C1515560   3.805   2.588   3.144 -0.0421 -0.2439  0.5321
  143OSM   H15A15561   3.784   2.482   3.147 -3.4134  0.2831  0.2174
  143OSM   H15B15562   3.703   2.623   3.129  0.9481  2.0112 -1.7039
  143OSM   H15C15563   3.848   2.632   3.233  0.8909 -0.3808  0.1572
  143OSM    C1415564   3.812   2.623   2.899 -0.3909 -0.0619 -0.0161
  143OSM   H14A15565   3.774   2.528   2.866  1.1686 -0.2134 -1.5503
  143OSM   H14B15566   3.872   2.649   2.813 -0.7919  1.9015  0.2453
  143OSM   H14C15567   3.730   2.690   2.919 -1.6595 -0.8184 -2.3135
  143OSM    C1315568   3.948   2.758   3.048  0.0581  0.2630  0.2873
  143OSM   H13A15569   4.037   2.761   3.110  0.2876 -3.6550  0.3411
  143OSM   H13B15570   3.876   2.825   3.093  0.4067  0.1017  1.0992
  143OSM   H13C15571   3.969   2.791   2.947 -1.4997 -2.1979 -0.9116
  143OSM    C1215572   4.003   2.512   3.028 -0.0233 -0.9019 -0.0389
  143OSM   H12A15573   4.063   2.524   2.939  1.3612 -2.9528  0.5358
  143OSM   H12B15574   3.960   2.413   3.017 -0.2216 -0.5419 -3.5943
  143OSM    C1115575   4.105   2.519   3.141 -0.1310  0.6189  0.7135
  143OSM   H11A15576   4.158   2.421   3.143 -1.1818 -0.0108 -1.0094
  143OSM   H11B15577   4.065   2.552   3.239 -0.9078  1.7078  0.0598
  143OSM      P15578   4.325   2.613   3.022 -0.2901 -0.2485  0.0377
  143OSM    O1315579   4.290   2.550   2.895  0.0433 -0.5079 -0.0579
  143OSM    O1415580   4.383   2.752   3.016 -0.0405 -0.3602 -0.1339
  143OSM    O1115581   4.422   2.521   3.110  0.4855  0.1247 -0.1863
  143OSM    O1215582   4.196   2.625   3.113  0.4203 -0.2507  0.7521
  143OSM    C1S15583   4.442   2.564   3.246  0.1468 -0.2494 -0.0162
  143OSM    H1S15584   4.346   2.569   3.302  0.6503 -0.2058  0.8551
  143OSM    H1T15585   4.478   2.669   3.244 -1.5898  0.4371  1.7245
  143OSM     NF15586   4.545   2.509   3.456  0.2522  0.6497 -0.0204
  143OSM    HNF15587   4.628   2.544   3.500  1.3223 -1.9016  0.1599
  143OSM    C2S15588   4.547   2.478   3.320 -1.3800 -0.5043  0.3121
  143OSM    H2S15589   4.505   2.377   3.302 -2.7717  0.0608  0.2514
  143OSM    C3S15590   4.685   2.482   3.256  0.2250 -0.2350 -0.2582
  143OSM    H3S15591   4.726   2.585   3.263 -1.5456  0.5017 -0.2107
  143OSM     O315592   4.685   2.455   3.117 -0.3367 -0.3594 -0.6508
  143OSM    HO315593   4.590   2.466   3.103 -0.8288 -3.1721 -0.2367
  143OSM    C4S15594   4.777   2.390   3.328 -0.5719 -0.4083  0.0087
  143OSM    H4S15595   4.815   2.432   3.423 -0.8434 -1.1068  0.4309
  143OSM    C5S15596   4.801   2.261   3.295 -0.4847 -0.1789  0.0589
  143OSM    H5S15597   4.750   2.216   3.208 -0.7455 -1.0193  0.6421
  143OSM    C6S15598   4.888   2.183   3.391 -0.0742 -0.3098 -0.2632
  143OSM    H6S15599   4.993   2.219   3.376 -0.9361  1.9677 -1.2995
  143OSM    H6T15600   4.886   2.075   3.369 -0.3161 -0.0366 -1.6378
  143OSM    C7S15601   4.840   2.208   3.538 -0.0211  0.3807 -0.2802
  143OSM    H7S15602   4.841   2.314   3.570 -2.3610  0.6798 -1.0376
  143OSM    H7T15603   4.910   2.141   3.593 -1.2182  0.2845  1.2038
  143OSM    C8S15604   4.702   2.142   3.572  0.0089 -0.0569  0.2162
  143OSM    H8S15605   4.721   2.034   3.554  2.0690  0.2485  0.4060
  143OSM    H8T15606   4.631   2.183   3.497 -0.7743 -2.1661 -0.2537
  143OSM    C9S15607   4.659   2.158   3.711  0.1333 -0.4923  0.0049
  143OSM    H9S15608   4.577   2.085   3.730 -0.6126  0.9477  2.8820
  143OSM    H9T15609   4.636   2.266   3.721  1.2852 -0.1085 -1.1421
  143OSM   C10S15610   4.766   2.112   3.812  0.6802  0.3148  0.6078
  143OSM   H10S15611   4.851   2.183   3.805  0.6534  0.2823 -0.1308
  143OSM   H10T15612   4.803   2.013   3.779 -0.1676  0.0670  0.3801
  143OSM   C11S15613   4.697   2.115   3.952  0.5960 -0.2083  0.6159
  143OSM   H11S15614   4.601   2.060   3.960 -0.7719  1.9938  0.1887
  143OSM   H11T15615   4.658   2.218   3.966 -2.0551 -0.8979 -1.0423
  143OSM   C12S15616   4.791   2.074   4.059 -0.9050 -0.0308  0.4448
  143OSM   H12S15617   4.865   2.157   4.057 -3.9555  2.9138  0.8255
  143OSM   H12T15618   4.847   1.991   4.012  0.0408  0.5140  0.5837
  143OSM   C13S15619   4.738   2.030   4.188 -0.5161  0.4463 -0.2668
  143OSM   H13S15620   4.808   1.955   4.231  0.2645  2.2935  1.8784
  143OSM   H13T15621   4.643   1.973   4.181  0.8932 -1.9275 -1.4501
  143OSM   C14S15622   4.724   2.163   4.273  0.2322  0.2470  0.2227
  143OSM   H14S15623   4.675   2.250   4.224 -0.4031 -0.6936 -0.8771
  143OSM   H14T15624   4.831   2.194   4.278  0.8315 -1.4553 -1.0565
  143OSM   C15S15625   4.655   2.127   4.406  0.1689 -0.7920  0.1758
  143OSM   H15S15626   4.698   2.030   4.437  1.8384 -0.0459  0.3107
  143OSM   H15T15627   4.546   2.111   4.391 -0.2156  1.2933  0.3886
  143OSM   C16S15628   4.654   2.237   4.512  0.7116 -0.5999 -0.4557
  143OSM   H16S15629   4.604   2.325   4.467 -2.1876 -1.8318  0.1786
  143OSM   H16T15630   4.760   2.260   4.536  0.3538 -0.5958  1.2830
  143OSM   C17S15631   4.581   2.202   4.640  0.3104  0.7356  0.2938
  143OSM   H17S15632   4.617   2.099   4.656  0.9486  1.0451  0.8763
  143OSM   H17T15633   4.470   2.200   4.632  0.3273  1.9036 -0.5899
  143OSM   C18S15634   4.614   2.291   4.763  0.3754  0.3799 -0.8374
  143OSM   H18S15635   4.593   2.400   4.759 -0.3059  0.2769 -0.3131
  143OSM   H18T15636   4.718   2.278   4.799 -0.5906  0.1823  2.2165
  143OSM   H18U15637   4.542   2.240   4.832  2.1043 -3.4159 -1.5713
  143OSM    C1F15638   4.440   2.487   3.533  0.1529 -0.5042  0.5919
  143OSM     OF15639   4.347   2.420   3.497  0.5475 -0.0021 -0.4437
  143OSM    C2F15640   4.436   2.560   3.661 -0.0228 -0.1999  0.4009
  143OSM    H2F15641   4.390   2.660   3.647  0.1578 -0.0421  0.8789
  143OSM    H2G15642   4.538   2.595   3.690  0.5581 -2.1894  0.8873
  143OSM    C3F15643   4.376   2.478   3.770 -0.2769  1.1412 -0.1999
  143OSM    H3F15644   4.446   2.392   3.774  0.8702  2.0817  2.4008
  143OSM    H3G15645   4.271   2.446   3.755 -0.7093  1.5641  1.6157
  143OSM    C4F15646   4.367   2.555   3.910 -0.4026  0.5603  0.8885
  143OSM    H4F15647   4.285   2.628   3.896  1.2026  2.0032 -1.8956
  143OSM    H4G15648   4.459   2.616   3.926 -0.4715  0.7732  0.4686
  143OSM    C5F15649   4.345   2.468   4.039 -0.0965 -0.1603  0.4715
  143OSM    H5F15650   4.426   2.394   4.050 -0.8152 -1.0163  0.1443
  143OSM    H5G15651   4.250   2.411   4.044 -1.6096  2.2265  1.1765
  143OSM    C6F15652   4.338   2.538   4.178 -0.7201  0.2394  0.4638
  143OSM    H6F15653   4.288   2.471   4.251  0.4986 -0.1135  1.0142
  143OSM    H6G15654   4.270   2.624   4.164  0.6840  1.1816 -0.7733
  143OSM    C7F15655   4.478   2.567   4.229 -0.7716 -0.1162  0.1452
  143OSM    H7F15656   4.532   2.625   4.151  0.9223 -1.2152  0.4630
  143OSM    H7G15657   4.527   2.469   4.246 -2.1122 -0.9637 -0.6856
  143OSM    C8F15658   4.486   2.632   4.365  0.0761  0.4820 -0.2142
  143OSM    H8F15659   4.457   2.740   4.361  3.8766  1.7623  1.9538
  143OSM    H8G15660   4.594   2.634   4.390  0.5810 -0.7113 -2.1600
  143OSM    C9F15661   4.406   2.560   4.468  0.0769 -0.1935  0.1623
  143OSM    H9F15662   4.382   2.456   4.441  1.5804 -0.8620  1.2737
  143OSM   C10F15663   4.394   2.595   4.593 -0.3891  0.0426 -0.1031
  143OSM   H10F15664   4.329   2.534   4.657 -1.5254 -0.0787 -1.3435
  143OSM   C11F15665   4.435   2.722   4.660  0.3412 -0.0233 -0.0776
  143OSM   H11F15666   4.468   2.788   4.577  0.5686  0.9605  0.7808
  143OSM   H11G15667   4.529   2.706   4.718  0.5149  1.5916  0.1248
  143OSM   C12F15668   4.311   2.793   4.732 -0.2984 -0.3937 -0.3864
  143OSM   H12F15669   4.232   2.814   4.657 -0.1342  1.0018 -0.1972
  143OSM   H12G15670   4.355   2.890   4.762 -0.8688  0.0060 -0.8211
  143OSM   C13F15671   4.246   2.718   4.845  0.6724 -0.1898 -0.1659
  143OSM   H13F15672   4.334   2.714   4.912  0.6657 -1.6100 -0.2228
  143OSM   H13G15673   4.228   2.613   4.816 -1.1781  0.0100  0.1548
  143OSM   C14F15674   4.132   2.788   4.921  0.4991  0.0018  0.4948
  143OSM   H14F15675   4.037   2.775   4.865  0.3958 -1.2415  0.9374
  143OSM   H14G15676   4.149   2.898   4.926  0.4496  0.0729 -0.7354
  143OSM   C15F15677   4.113   2.733   5.064 -0.8798  0.3116  0.5542
  143OSM   H15F15678   4.206   2.750   5.122 -1.1793  0.4308  1.0017
  143OSM   H15G15679   4.096   2.623   5.052  1.4959 -0.0596  0.1450
  143OSM   C16F15680   4.007   2.798   5.148 -0.4709  0.4828 -0.2962
  143OSM   H16F15681   3.909   2.793   5.097 -1.1508 -0.8095  1.0595
  143OSM   H16G15682   4.034   2.904   5.169 -0.1258 -0.0006  1.8973
  143OSM   C17F15683   3.987   2.728   5.285 -0.2100  0.6356 -0.0976
  143OSM   H17F15684   4.083   2.711   5.338 -1.6599  1.1231  2.9023
  143OSM   H17G15685   3.938   2.629   5.273 -0.3412  0.3533  2.2959
  143OSM   C18F15686   3.896   2.803   5.383  0.9061 -0.4456  0.5861
  143OSM   H18F15687   3.890   2.758   5.485  1.1212 -1.4608  0.1721
  143OSM   H18G15688   3.794   2.792   5.342  0.5227  1.4275  0.9608
  143OSM   H18H15689   3.922   2.911   5.381  1.5821 -0.5447  2.3140
  144OSM      N15690   4.743   2.865   2.968  0.6964 -0.3723 -0.6576
  144OSM    C1515691   4.661   2.887   3.090  0.7327  0.6744  0.2464
  144OSM   H15A15692   4.589   2.808   3.102 -0.1775  1.1909 -1.4939
  144OSM   H15B15693   4.612   2.983   3.087 -1.1427 -0.2020  1.2385
  144OSM   H15C15694   4.731   2.884   3.173  3.4511  2.3138 -1.7902
  144OSM    C1415695   4.648   2.848   2.848 -0.9273  0.2258 -0.0586
  144OSM   H14A15696   4.585   2.762   2.867 -1.1027  0.6964  1.5767
  144OSM   H14B15697   4.704   2.848   2.755 -0.5222 -0.7543  0.1738
  144OSM   H14C15698   4.588   2.937   2.838  1.8466  2.0863 -1.6593
  144OSM    C1315699   4.828   2.993   2.951 -0.1678 -0.3058  0.0742
  144OSM   H13A15700   4.883   2.994   3.044 -0.5985 -1.9715  0.3874
  144OSM   H13B15701   4.786   3.092   2.955 -0.6518 -0.5554  2.0017
  144OSM   H13C15702   4.895   2.981   2.867 -0.2321 -0.7299  0.0798
  144OSM    C1215703   4.842   2.746   2.983  0.1412 -0.0001 -0.3922
  144OSM   H12A15704   4.898   2.733   2.892 -0.2048  0.0966 -0.6192
  144OSM   H12B15705   4.784   2.655   2.989  0.1420  0.0729  1.0221
  144OSM    C1115706   4.950   2.746   3.098 -0.6105 -0.9058 -0.0888
  144OSM   H11A15707   5.002   2.648   3.101  0.5067 -0.4290 -2.0787
  144OSM   H11B15708   4.902   2.764   3.197  1.0701 -2.1009  0.9854
  144OSM      P15709   5.165   2.875   3.175 -0.0175  0.1000  0.4151
  144OSM    O1315710   5.170   2.775   3.283 -0.2863 -0.8049  0.0213
  144OSM    O1415711   5.291   2.887   3.098  0.1604  0.0695 -0.2336
  144OSM    O1115712   5.123   3.015   3.241  0.4633  0.0938 -0.3884
  144OSM    O1215713   5.047   2.848   3.069  0.0424  0.0500  0.3582
  144OSM    C1S15714   4.994   3.042   3.289  0.4589  0.4748 -0.9259
  144OSM    H1S15715   4.914   2.977   3.247  1.3513  0.5098 -2.8111
  144OSM    H1T15716   4.955   3.143   3.265 -0.3322  0.1551 -1.0014
  144OSM     NF15717   4.851   3.060   3.500 -0.3208  0.1214  0.2981
  144OSM    HNF15718   4.828   3.147   3.543 -3.4101 -0.6171  0.3586
  144OSM    C2S15719   4.992   3.046   3.448  0.7208 -0.3658  0.1129
  144OSM    H2S15720   5.026   2.947   3.485 -1.0131 -0.7116  0.8622
  144OSM    C3S15721   5.087   3.153   3.508 -0.6519  0.0049 -0.0398
  144OSM    H3S15722   5.038   3.250   3.485  0.4676  0.8174  0.9084
  144OSM     O315723   5.222   3.162   3.457 -0.1375 -0.2421 -0.1130
  144OSM    HO315724   5.212   3.117   3.373  1.4819  1.8637 -1.5538
  144OSM    C4S15725   5.090   3.147   3.656 -0.0891  0.0235  0.3617
  144OSM    H4S15726   5.147   3.060   3.691  1.5861  1.4180  1.2750
  144OSM    C5S15727   5.029   3.232   3.740 -0.4587 -0.2423  0.2416
  144OSM    H5S15728   4.967   3.306   3.686  2.0009  1.2014 -0.7488
  144OSM    C6S15729   5.042   3.229   3.891 -0.5707  0.1449  0.2371
  144OSM    H6S15730   4.940   3.201   3.925 -0.3412 -0.1441  0.6918
  144OSM    H6T15731   5.062   3.333   3.924 -0.3403 -0.4504  2.1267
  144OSM    C7S15732   5.142   3.131   3.960 -0.7319  0.3206 -0.6344
  144OSM    H7S15733   5.245   3.159   3.929 -0.8222 -0.9256 -2.2218
  144OSM    H7T15734   5.121   3.027   3.928  1.0023 -0.1893 -0.1844
  144OSM    C8S15735   5.121   3.136   4.111  0.9515 -0.0466 -0.2879
  144OSM    H8S15736   5.192   3.069   4.164  0.1232  0.4295  1.4971
  144OSM    H8T15737   5.028   3.078   4.130  0.9331 -0.2776 -1.0493
  144OSM    C9S15738   5.124   3.266   4.191 -0.2891 -0.0511  0.3801
  144OSM    H9S15739   5.053   3.331   4.135  0.4479 -0.6791 -1.3333
  144OSM    H9T15740   5.222   3.317   4.187 -0.7560  0.9251  0.7988
  144OSM   C10S15741   5.084   3.257   4.330  0.6028 -0.2323  0.0339
  144OSM   H10S15742   4.981   3.218   4.341 -0.0029  1.5538  1.2015
  144OSM   H10T15743   5.068   3.360   4.369  0.3295  0.5234 -1.9345
  144OSM   C11S15744   5.173   3.181   4.433 -0.3984  0.5061  0.3536
  144OSM   H11S15745   5.274   3.225   4.416 -0.0291 -0.5547 -0.2966
  144OSM   H11T15746   5.156   3.074   4.409  0.2173  0.7863 -1.5623
  144OSM   C12S15747   5.122   3.199   4.574 -0.3617 -0.8653  0.2666
  144OSM   H12S15748   5.020   3.155   4.567  0.7380 -3.4084 -1.8518
  144OSM   H12T15749   5.112   3.308   4.587  0.2802 -0.6980 -0.5435
  144OSM   C13S15750   5.199   3.118   4.677  0.1016  0.5875  0.5853
  144OSM   H13S15751   5.299   3.166   4.678 -0.1473  1.3291 -1.9541
  144OSM   H13T15752   5.211   3.012   4.644  1.7261  0.9815 -0.2449
  144OSM   C14S15753   5.145   3.130   4.819  0.4719 -0.6143 -0.6621
  144OSM   H14S15754   5.069   3.050   4.832 -0.6156  0.7751  2.3588
  144OSM   H14T15755   5.090   3.226   4.825  0.1746 -0.7801 -0.7216
  144OSM   C15S15756   5.249   3.116   4.929 -0.6169  1.0720  0.1007
  144OSM   H15S15757   5.304   3.212   4.925 -1.8487  1.8737  1.3837
  144OSM   H15T15758   5.324   3.035   4.913 -1.2080  0.2094  1.5119
  144OSM   C16S15759   5.203   3.100   5.072  0.7842  0.1317 -0.1897
  144OSM   H16S15760   5.130   3.181   5.092  0.3222 -0.5083  0.8063
  144OSM   H16T15761   5.291   3.118   5.138  0.8734 -0.3252 -0.1826
  144OSM   C17S15762   5.146   2.958   5.106 -0.1456  0.4605 -0.5847
  144OSM   H17S15763   5.217   2.882   5.067  0.1286 -0.5428  1.7160
  144OSM   H17T15764   5.049   2.958   5.051 -0.8312  0.7770  0.6073
  144OSM   C18S15765   5.111   2.939   5.255 -0.1826  0.7528  0.3172
  144OSM   H18S15766   5.207   2.936   5.310  0.8275 -0.4298 -1.4369
  144OSM   H18T15767   5.048   2.848   5.267  1.1668 -0.4346 -1.2563
  144OSM   H18U15768   5.049   3.025   5.289 -1.6301 -0.2200  0.2190
  144OSM    C1F15769   4.762   2.970   3.464 -0.2475  1.1905  0.5512
  144OSM     OF15770   4.794   2.872   3.399  0.3114 -0.4038 -0.4358
  144OSM    C2F15771   4.622   2.998   3.502  0.2348  0.4690  0.5000
  144OSM    H2F15772   4.559   2.965   3.416 -1.3978  2.6762  0.7763
  144OSM    H2G15773   4.607   3.104   3.528  0.3130  0.3270  1.1513
  144OSM    C3F15774   4.578   2.916   3.621  0.1205 -0.3105  0.1506
  144OSM    H3F15775   4.596   2.807   3.612  0.9835 -0.1142 -0.6876
  144OSM    H3G15776   4.469   2.939   3.618  0.9371  4.7206  0.0862
  144OSM    C4F15777   4.633   2.964   3.759 -0.4025  0.5940 -0.4608
  144OSM    H4F15778   4.617   3.074   3.763 -0.3446  0.7207 -2.6501
  144OSM    H4G15779   4.742   2.947   3.771 -0.5363  0.8070  1.3345
  144OSM    C5F15780   4.569   2.897   3.876 -0.7721 -0.3742  0.0483
  144OSM    H5F15781   4.586   2.788   3.872  0.4045 -0.3464  2.5979
  144OSM    H5G15782   4.462   2.925   3.868 -0.3342  1.5432  0.2848
  144OSM    C6F15783   4.617   2.938   4.020  0.3988 -0.1550  0.3287
  144OSM    H6F15784   4.718   2.897   4.038  0.3770 -1.0644 -1.4485
  144OSM    H6G15785   4.545   2.885   4.086  0.5800 -1.4377 -0.4872
  144OSM    C7F15786   4.599   3.089   4.046 -0.6164  0.7583  0.3297
  144OSM    H7F15787   4.506   3.118   3.992 -1.4373 -1.0444  0.7220
  144OSM    H7G15788   4.680   3.145   3.993  0.3331 -1.7506 -1.0147
  144OSM    C8F15789   4.597   3.138   4.193 -0.0120  0.7430  0.0410
  144OSM    H8F15790   4.515   3.085   4.245  1.6405 -1.8493  0.2062
  144OSM    H8G15791   4.583   3.248   4.196 -0.0404  0.7603 -0.5235
  144OSM    C9F15792   4.727   3.099   4.260 -0.0046 -1.3060  0.3180
  144OSM    H9F15793   4.812   3.126   4.197 -0.8199  0.0628 -0.2422
  144OSM   C10F15794   4.750   3.037   4.379 -0.1190 -0.3977 -0.2422
  144OSM   H10F15795   4.856   3.029   4.408 -0.5305  3.1019  2.9117
  144OSM   C11F15796   4.649   2.977   4.482 -0.7748 -0.4943 -0.3804
  144OSM   H11F15797   4.690   2.880   4.517 -1.7745 -0.7393  0.1564
  144OSM   H11G15798   4.556   2.956   4.425 -1.2532  1.3862 -0.3510
  144OSM   C12F15799   4.636   3.079   4.599 -0.0358 -0.4778  0.6289
  144OSM   H12F15800   4.538   3.056   4.647 -1.7997  1.2313 -1.8683
  144OSM   H12G15801   4.612   3.177   4.552 -0.7251 -0.5292  0.8650
  144OSM   C13F15802   4.748   3.083   4.700  0.3533 -0.3804  0.4566
  144OSM   H13F15803   4.751   3.192   4.717 -1.3016 -0.3884  0.9377
  144OSM   H13G15804   4.847   3.058   4.654  0.3850  1.2882 -0.4591
  144OSM   C14F15805   4.724   3.010   4.828 -0.0462  0.7937  0.0436
  144OSM   H14F15806   4.815   3.017   4.891  0.0051 -1.7794  0.3714
  144OSM   H14G15807   4.722   2.901   4.806 -0.1215  0.6307  0.8437
  144OSM   C15F15808   4.604   3.040   4.918 -0.2185  0.0715 -0.1655
  144OSM   H15F15809   4.508   3.065   4.868 -1.0743  0.7176  1.7260
  144OSM   H15G15810   4.620   3.133   4.976 -0.7992  1.5001 -2.1727
  144OSM   C16F15811   4.575   2.932   5.017 -0.0911  1.1898 -0.2081
  144OSM   H16F15812   4.554   2.845   4.951 -0.2841  1.3593 -0.3697
  144OSM   H16G15813   4.492   2.948   5.088  0.2494  1.8956  0.0423
  144OSM   C17F15814   4.690   2.902   5.110  0.0828 -0.7830  0.2491
  144OSM   H17F15815   4.773   2.846   5.063  1.0396 -1.9817  3.0979
  144OSM   H17G15816   4.633   2.826   5.168  0.9139 -1.6508 -0.0421
  144OSM   C18F15817   4.734   3.021   5.192  0.1694 -0.9611  0.1099
  144OSM   H18F15818   4.776   3.097   5.123 -1.6428 -0.4629 -0.5248
  144OSM   H18G15819   4.813   2.988   5.263 -1.4868 -1.6091  1.7334
  144OSM   H18H15820   4.653   3.069   5.251  0.8473  0.2204  0.1042
  145SAPE     N15821   1.459   3.148   7.727 -0.2181  0.2514  0.2257
  145SAPE   HN115822   1.357   3.135   7.741  0.0951 -1.0829  1.5414
  145SAPE   HN215823   1.498   3.227   7.783  1.0173 -0.6868  0.7457
  145SAPE   HN315824   1.481   3.159   7.626 -0.6635 -0.9883 -0.0243
  145SAPE   C1215825   1.523   3.020   7.772  0.1110  0.0049  0.2146
  145SAPE  H12A15826   1.482   2.994   7.872  0.2100  1.2445  0.5869
  145SAPE  H12B15827   1.632   3.039   7.784  0.4246 -1.1865 -0.5189
  145SAPE   C1115828   1.487   2.904   7.672 -0.7178  0.1032  0.7366
  145SAPE  H11A15829   1.546   2.817   7.709 -1.0011 -0.1391  0.6218
  145SAPE  H11B15830   1.513   2.931   7.568  1.0928 -3.2301  0.1812
  145SAPE     P15831   1.290   2.767   7.592 -0.4264  0.0466 -0.4016
  145SAPE   O1315832   1.198   2.679   7.668 -0.7513 -0.6283 -0.0937
  145SAPE   O1415833   1.241   2.822   7.465  0.1395  0.2085 -0.3740
  145SAPE   O1215834   1.347   2.879   7.691  0.1019  0.1278 -0.1035
  145SAPE   O1115835   1.419   2.679   7.574 -0.2534 -0.2258  0.1888
  145SAPE    C115836   1.458   2.611   7.456  0.1468  0.2642  0.3430
  145SAPE    HA15837   1.447   2.503   7.478  1.6699  0.4376  2.2357
  145SAPE    HB15838   1.399   2.640   7.365  1.6059 -1.1525 -1.1169
  145SAPE    C215839   1.612   2.638   7.418 -1.0199 -0.5426 -0.2320
  145SAPE    HS15840   1.644   2.673   7.518 -1.6034  0.3060 -0.3262
  145SAPE   O2115841   1.614   2.752   7.325  0.2066 -0.3453 -0.3779
  145SAPE   C2115842   1.704   2.843   7.345  0.8638  0.0404  0.2534
  145SAPE   O2215843   1.787   2.841   7.432  0.5179  0.5105 -0.1794
  145SAPE   C2215844   1.687   2.950   7.242  0.1805 -0.0034  0.0775
  145SAPE   H2R15845   1.684   2.901   7.142  1.3181  0.3598 -0.1483
  145SAPE   H2S15846   1.585   2.992   7.243  1.1415  2.5810 -1.4564
  145SAPE    C315847   1.684   2.509   7.363  0.2177  0.7564 -0.4231
  145SAPE    HX15848   1.626   2.475   7.275 -0.0362  0.9642 -0.3379
  145SAPE    HY15849   1.676   2.434   7.445 -0.6681  2.0482  0.7305
  145SAPE   O3115850   1.823   2.542   7.335 -0.3004 -0.4746  0.5722
  145SAPE   C3115851   1.875   2.488   7.233  0.7509 -0.1684  0.6119
  145SAPE   O3215852   1.831   2.391   7.172 -0.3869  0.1790  0.4819
  145SAPE   C3215853   2.015   2.544   7.204 -0.1865 -0.4985  0.6164
  145SAPE   H2X15854   2.084   2.458   7.217 -0.4478 -0.9170 -0.6016
  145SAPE   H2Y15855   2.033   2.626   7.276 -1.1677 -0.4502  0.8213
  145SAPE   C2315856   1.799   3.050   7.223 -0.4950  0.2558 -0.5217
  145SAPE   H3R15857   1.899   3.007   7.242  0.5349  2.3525 -0.9099
  145SAPE   H3S15858   1.792   3.145   7.281  0.7950  0.0701 -0.0343
  145SAPE   C2415859   1.799   3.086   7.070 -0.2509  0.4025 -0.0568
  145SAPE   H4R15860   1.812   2.996   7.007  1.8198  0.3292  0.3995
  145SAPE   H4S15861   1.897   3.137   7.065  1.0806 -1.8687  1.1225
  145SAPE   C2515862   1.683   3.162   7.010 -0.5885  0.4663 -0.3114
  145SAPE   H5R15863   1.612   3.206   7.081 -0.1895  0.2802  0.2119
  145SAPE   C2615864   1.672   3.192   6.883 -0.0998  0.4688  0.1433
  145SAPE   H6R15865   1.588   3.249   6.842  0.3854  1.9115  1.0666
  145SAPE   C2715866   1.756   3.144   6.769 -0.7501  0.6999 -0.1456
  145SAPE   H7R15867   1.846   3.090   6.807 -1.0956 -1.0221 -1.6501
  145SAPE   H7S15868   1.789   3.224   6.699 -1.1114  0.3411 -0.7303
  145SAPE   C2815869   1.682   3.034   6.692 -0.2220 -0.3982 -0.0502
  145SAPE   H8R15870   1.634   2.950   6.744 -1.9437 -0.8419 -2.2071
  145SAPE   C2915871   1.672   3.034   6.560 -0.0874  0.9145  0.3117
  145SAPE   H9R15872   1.617   2.946   6.525  0.6942  0.5982 -0.1409
  145SAPE  C21015873   1.723   3.121   6.450  0.1723  0.0507 -0.0996
  145SAPE  H10R15874   1.753   3.224   6.479 -1.9844  0.6834  0.0282
  145SAPE  H10S15875   1.634   3.142   6.387 -0.3245 -0.7826  0.3126
  145SAPE  C21115876   1.829   3.047   6.372  0.4952  0.5829 -0.9478
  145SAPE  H11R15877   1.919   3.033   6.432 -0.3600  1.3545  0.5800
  145SAPE  C21215878   1.823   2.996   6.253  0.2498  0.5872  0.5957
  145SAPE  H12R15879   1.915   2.958   6.205  0.5381  0.9178  0.8809
  145SAPE  C21315880   1.708   3.018   6.159  0.6896 -0.0269 -0.1945
  145SAPE  H13R15881   1.612   2.998   6.212 -1.3556  2.5082 -2.6414
  145SAPE  H13S15882   1.697   2.931   6.091  0.1835 -0.8219  0.8836
  145SAPE  C21415883   1.710   3.132   6.053 -0.0308 -0.5267 -0.5440
  145SAPE  H14R15884   1.698   3.230   6.102 -0.2649 -1.1342  0.6511
  145SAPE  C21515885   1.734   3.121   5.923 -0.6756  0.0360 -0.0019
  145SAPE  H15R15886   1.737   3.217   5.868 -2.3329 -1.1762 -2.3596
  145SAPE  C21615887   1.771   2.994   5.848  0.1274  0.2151  1.0045
  145SAPE  H16R15888   1.809   2.916   5.917  3.3016  0.9106  0.1811
  145SAPE  H16S15889   1.850   3.009   5.772 -1.7649 -0.8313 -1.2734
  145SAPE  C21715890   1.650   2.936   5.772  0.3968  0.8270 -0.5662
  145SAPE  H17R15891   1.569   2.919   5.847  0.5897 -0.5421 -0.6586
  145SAPE  H17S15892   1.679   2.840   5.725 -3.0895  0.0038 -1.3353
  145SAPE  C21815893   1.605   3.031   5.661  0.4813 -0.0061  0.5571
  145SAPE  H18R15894   1.676   3.028   5.575  1.0483  0.8346  0.9933
  145SAPE  H18S15895   1.597   3.138   5.687  0.4544  0.3158 -0.7053
  145SAPE  C21915896   1.458   3.006   5.612 -0.1928 -0.0034 -0.4594
  145SAPE  H19R15897   1.393   3.013   5.702 -2.7636 -0.1232 -2.1905
  145SAPE  H19S15898   1.439   2.905   5.570 -0.6902  0.3346 -1.0622
  145SAPE  C22015899   1.423   3.125   5.521 -0.2031  0.2630  0.9071
  145SAPE  H20R15900   1.496   3.116   5.437 -0.8394 -1.5761  0.5082
  145SAPE  H20S15901   1.430   3.218   5.582  1.1298  0.9663 -0.2596
  145SAPE  H20T15902   1.323   3.116   5.473 -0.0373  4.4831 -0.6432
  145SAPE   C3315903   2.026   2.595   7.055 -0.0290 -0.9417  0.1272
  145SAPE   H3X15904   2.014   2.516   6.978 -2.0000 -0.3172 -0.2529
  145SAPE   H3Y15905   2.129   2.635   7.042 -0.5791  0.9917  1.2149
  145SAPE   C3415906   1.940   2.721   7.014  0.3895 -0.1421 -1.1230
  145SAPE   H4X15907   1.975   2.817   7.058 -1.7347  1.8375 -3.4081
  145SAPE   H4Y15908   1.832   2.702   7.033  0.8022 -1.5005  0.0932
  145SAPE   C3515909   1.954   2.739   6.869 -0.1856  0.1309  0.0761
  145SAPE   H5X15910   2.056   2.783   6.865  0.2900 -0.9894 -0.7938
  145SAPE   H5Y15911   1.891   2.821   6.827 -1.6202 -1.0787 -0.2110
  145SAPE   C3615912   1.942   2.617   6.776 -0.0453 -1.0581 -0.3846
  145SAPE   H6X15913   1.853   2.553   6.792 -0.6118  0.0717  1.2758
  145SAPE   H6Y15914   2.022   2.542   6.793 -0.5643 -1.6751 -0.6493
  145SAPE   C3715915   1.970   2.660   6.632 -0.8672 -0.6030 -0.8659
  145SAPE   H7X15916   2.034   2.576   6.597 -0.6176 -0.7831 -0.0039
  145SAPE   H7Y15917   2.027   2.755   6.635  1.2885 -1.8714  0.9117
  145SAPE   C3815918   1.856   2.660   6.532 -0.1788 -0.2407 -0.3491
  145SAPE   H8X15919   1.798   2.753   6.549 -0.4170 -0.6021  0.9338
  145SAPE   H8Y15920   1.784   2.580   6.559 -0.7632  0.3679 -0.0684
  145SAPE   C3915921   1.905   2.661   6.386 -0.3725 -0.0790  0.6467
  145SAPE   H9X15922   1.980   2.586   6.352 -0.9930 -0.1982 -0.5191
  145SAPE   H9Y15923   1.958   2.757   6.366 -3.0820  0.9045 -2.8046
  145SAPE  C31015924   1.791   2.649   6.280 -0.0856 -0.4281 -0.1880
  145SAPE  H10X15925   1.843   2.649   6.182  3.3886 -1.0980  1.4959
  145SAPE  H10Y15926   1.743   2.749   6.277  2.0260  0.6377 -1.6812
  145SAPE  C31115927   1.706   2.523   6.284 -0.0273  0.5345  0.1946
  145SAPE  H11X15928   1.636   2.532   6.371 -0.0558 -1.5955  0.4477
  145SAPE  H11Y15929   1.775   2.438   6.301  1.7478  1.6505 -1.0991
  145SAPE  C31215930   1.634   2.512   6.151  0.6003  0.3438 -0.3537
  145SAPE  H12X15931   1.573   2.420   6.148 -0.9427  1.3575 -1.6240
  145SAPE  H12Y15932   1.703   2.518   6.064 -1.4134  1.4357 -1.9886
  145SAPE  C31315933   1.524   2.621   6.139  0.1179  0.6044  0.7911
  145SAPE  H13X15934   1.588   2.712   6.146  0.2100  0.7595 -1.3083
  145SAPE  H13Y15935   1.456   2.615   6.226 -2.4621  1.4967 -1.0476
  145SAPE  C31415936   1.441   2.612   6.012  0.0979 -0.0822 -0.3078
  145SAPE  H14X15937   1.385   2.517   6.019 -0.8599  0.3610 -1.5814
  145SAPE  H14Y15938   1.512   2.610   5.926  0.3328 -4.2487 -0.2103
  145SAPE  C31515939   1.334   2.725   5.998  0.7056  0.2930  0.8272
  145SAPE  H15X15940   1.393   2.818   5.986 -0.4621  0.7807 -1.9495
  145SAPE  H15Y15941   1.279   2.728   6.095 -2.8952 -2.7013 -0.9074
  145SAPE  C31615942   1.234   2.708   5.879 -0.2722  0.4539 -0.2301
  145SAPE  H16X15943   1.167   2.796   5.871  0.2970  0.9775  0.5879
  145SAPE  H16Y15944   1.169   2.625   5.913  2.7865 -1.9791  0.1008
  145SAPE  C31715945   1.296   2.683   5.744  0.2270 -0.5499  0.9189
  145SAPE  H17X15946   1.312   2.573   5.734 -0.1230 -0.6067  0.9843
  145SAPE  H17Y15947   1.392   2.738   5.738 -0.1931  0.1711  0.7980
  145SAPE  C31815948   1.200   2.726   5.627 -0.1999  0.5683 -0.2687
  145SAPE  H18X15949   1.094   2.709   5.656  0.3809 -1.5675  0.8802
  145SAPE  H18Y15950   1.224   2.678   5.530  2.2133  1.0958  0.0056
  145SAPE  H18Z15951   1.199   2.835   5.608  0.4868  0.8720  1.2602
  146SAPE     N15952   3.921   2.397   7.542 -0.2777  0.2520  0.1759
  146SAPE   HN115953   4.020   2.426   7.528  0.0556 -0.4442  1.0042
  146SAPE   HN215954   3.882   2.446   7.626  0.1827 -0.3199  0.7385
  146SAPE   HN315955   3.918   2.294   7.553  0.1361  0.2238  0.0323
  146SAPE   C1215956   3.846   2.423   7.415 -0.2759 -0.3162 -0.5224
  146SAPE  H12A15957   3.741   2.393   7.435  1.0446 -4.9079  0.6856
  146SAPE  H12B15958   3.896   2.360   7.337  1.3051  0.6977 -0.3635
  146SAPE   C1115959   3.879   2.565   7.365  0.2577  0.5963  0.6645
  146SAPE  H11A15960   3.832   2.558   7.264 -0.3011 -2.3319  1.0189
  146SAPE  H11B15961   3.990   2.569   7.351  0.6099 -4.8100 -0.4365
  146SAPE     P15962   3.876   2.815   7.420 -0.0715  0.3439 -0.3858
  146SAPE   O1315963   3.887   2.885   7.550 -0.2379 -0.1539  0.1019
  146SAPE   O1415964   3.985   2.812   7.328 -1.1922 -0.5179  0.2852
  146SAPE   O1215965   3.824   2.665   7.444  0.4824  0.4046 -0.4318
  146SAPE   O1115966   3.748   2.883   7.355 -0.2564  0.0926  0.2353
  146SAPE    C115967   3.683   2.821   7.242 -0.1544 -0.2832 -0.2012
  146SAPE    HA15968   3.695   2.710   7.235  1.0055 -0.3136  1.7458
  146SAPE    HB15969   3.576   2.843   7.258  0.3394 -0.1288  3.7784
  146SAPE    C215970   3.729   2.882   7.108 -0.2397 -0.3929 -0.5226
  146SAPE    HS15971   3.659   2.845   7.030 -0.5409  1.0126 -0.9451
  146SAPE   O2115972   3.865   2.842   7.064  0.0300  0.0097 -0.2741
  146SAPE   C2115973   3.874   2.706   7.032  0.7346  0.1426  0.7724
  146SAPE   O2215974   3.772   2.635   7.029 -0.3398 -0.2530 -0.1053
  146SAPE   C2215975   4.015   2.664   7.001  0.4384 -1.2375  0.1382
  146SAPE   H2R15976   4.062   2.752   6.951  0.8429 -0.4630  1.8098
  146SAPE   H2S15977   4.058   2.638   7.100 -1.4495  0.0953  1.3578
  146SAPE    C315978   3.699   3.033   7.106  0.1419  0.8758  0.6657
  146SAPE    HX15979   3.746   3.084   7.193 -0.4920 -1.2824  2.3410
  146SAPE    HY15980   3.590   3.049   7.122 -0.3099  2.0111 -2.6815
  146SAPE   O3115981   3.711   3.081   6.967 -0.1218  0.2230  0.2198
  146SAPE   C3115982   3.829   3.134   6.950 -0.2369 -0.4063 -0.0209
  146SAPE   O3215983   3.925   3.136   7.023 -0.2238  0.4876 -0.1568
  146SAPE   C3215984   3.834   3.181   6.809  0.8949  0.4639  0.6634
  146SAPE   H2X15985   3.938   3.206   6.780  0.4882  1.3881 -0.0739
  146SAPE   H2Y15986   3.767   3.270   6.805 -0.0816 -0.2878 -0.3675
  146SAPE   C2315987   4.011   2.540   6.911  0.4889  0.9668  0.3550
  146SAPE   H3R15988   3.970   2.567   6.811 -1.2163  0.9451  1.0181
  146SAPE   H3S15989   3.964   2.452   6.959  1.6506 -0.2859 -0.7312
  146SAPE   C2415990   4.155   2.493   6.889  0.4764 -0.1233  0.5585
  146SAPE   H4R15991   4.216   2.575   6.845 -3.0288  1.0203 -2.7142
  146SAPE   H4S15992   4.139   2.422   6.806  2.2317 -0.0568  0.1257
  146SAPE   C2515993   4.214   2.422   7.001  0.0068 -0.0633  0.0050
  146SAPE   H5R15994   4.142   2.350   7.044  0.9702 -0.3868  1.1477
  146SAPE   C2615995   4.339   2.442   7.054  0.2948  0.4669 -0.2351
  146SAPE   H6R15996   4.373   2.374   7.134  1.4821  1.0104 -0.2615
  146SAPE   C2715997   4.448   2.527   7.001 -0.2939 -0.0788 -0.1994
  146SAPE   H7R15998   4.467   2.622   7.055  1.2018  1.7570 -3.6145
  146SAPE   H7S15999   4.405   2.564   6.905 -0.4321 -2.4385 -1.1267
  146SAPE   C2816000   4.579   2.449   6.977  1.3570 -0.7050 -0.3663
  146SAPE   H8R16001   4.604   2.385   7.063 -1.6486 -1.3095  0.1774
  146SAPE   C2916002   4.649   2.434   6.863  1.0216 -0.1766 -0.5991
  146SAPE   H9R16003   4.718   2.349   6.860  0.6299 -0.6260  1.5328
  146SAPE  C21016004   4.635   2.510   6.734  0.1455 -0.1399  0.0508
  146SAPE  H10R16005   4.630   2.619   6.757  0.9298 -0.0296 -0.2902
  146SAPE  H10S16006   4.534   2.507   6.687  0.5296  1.7606 -0.9882
  146SAPE  C21116007   4.732   2.478   6.618 -0.2601  0.2950  0.2200
  146SAPE  H11R16008   4.805   2.559   6.605 -1.2617  0.9087 -2.3237
  146SAPE  C21216009   4.736   2.368   6.541 -0.7519  0.4729  0.1572
  146SAPE  H12R16010   4.812   2.367   6.462  1.7320  2.6529  2.3237
  146SAPE  C21316011   4.641   2.246   6.544  0.0818  0.3551  0.2850
  146SAPE  H13R16012   4.604   2.228   6.441  2.2549  0.7777 -0.6262
  146SAPE  H13S16013   4.558   2.270   6.613 -0.0360  1.3099 -0.1624
  146SAPE  C21416014   4.715   2.123   6.581  0.4753 -0.6407  0.1876
  146SAPE  H14R16015   4.779   2.137   6.669  0.4170 -0.3659  0.1874
  146SAPE  C21516016   4.707   2.002   6.532 -0.4515  0.4327 -1.1131
  146SAPE  H15R16017   4.761   1.925   6.588 -1.9036  0.1366 -0.0561
  146SAPE  C21616018   4.634   1.956   6.411 -0.1280 -0.0184  0.0393
  146SAPE  H16R16019   4.547   2.023   6.395  0.5512  0.8481 -0.0595
  146SAPE  H16S16020   4.596   1.857   6.445  4.0669 -0.9299  2.9104
  146SAPE  C21716021   4.732   1.941   6.294  0.2641 -0.4162  0.1751
  146SAPE  H17R16022   4.675   1.927   6.200 -0.1848  2.4965 -0.0625
  146SAPE  H17S16023   4.812   1.864   6.300  1.4339  0.7188 -0.4425
  146SAPE  C21816024   4.809   2.078   6.271 -0.1105 -0.0624  0.3378
  146SAPE  H18R16025   4.886   2.077   6.351 -0.4859 -1.8249  0.7256
  146SAPE  H18S16026   4.742   2.166   6.277 -0.7879 -0.5992  0.7948
  146SAPE  C21916027   4.897   2.096   6.143 -0.2682  0.0827  0.8685
  146SAPE  H19R16028   4.967   2.012   6.129 -0.9028 -0.3961  0.5139
  146SAPE  H19S16029   4.951   2.193   6.152  0.6798 -0.3501  0.0154
  146SAPE  C22016030   4.821   2.102   6.001 -0.0859 -1.0807  0.1769
  146SAPE  H20R16031   4.726   2.161   6.004  1.1080  0.9400 -0.0379
  146SAPE  H20S16032   4.800   1.998   5.969 -1.8301 -0.6316 -0.2795
  146SAPE  H20T16033   4.886   2.133   5.916 -2.2748 -0.6129 -1.4347
  146SAPE   C3316034   3.792   3.073   6.705 -0.3508 -0.2466  0.0379
  146SAPE   H3X16035   3.696   3.026   6.735 -0.4527  0.5139  0.9534
  146SAPE   H3Y16036   3.869   2.994   6.713  1.3511  1.3733  0.6120
  146SAPE   C3416037   3.800   3.127   6.565  0.5056 -0.1831 -0.0390
  146SAPE   H4X16038   3.899   3.173   6.545  0.8384 -1.5026 -1.6663
  146SAPE   H4Y16039   3.724   3.207   6.551  0.6513  0.1987  1.2161
  146SAPE   C3516040   3.764   3.014   6.467 -0.1484 -0.1637 -0.5424
  146SAPE   H5X16041   3.676   2.963   6.512  0.8015 -0.6371  0.8312
  146SAPE   H5Y16042   3.848   2.943   6.473 -2.3206 -2.7951  0.8826
  146SAPE   C3616043   3.729   3.071   6.331  0.1618 -0.1218 -0.1515
  146SAPE   H6X16044   3.814   3.131   6.294 -1.0794  1.2113 -0.9229
  146SAPE   H6Y16045   3.641   3.137   6.346  0.3414 -0.0506  0.6324
  146SAPE   C3716046   3.688   2.965   6.223  0.7146 -0.0796 -0.0497
  146SAPE   H7X16047   3.782   2.916   6.193  0.5922 -1.2905  1.4219
  146SAPE   H7Y16048   3.660   3.037   6.143 -1.0597  0.9822  1.4127
  146SAPE   C3816049   3.585   2.859   6.266  0.0813 -0.7565  0.1731
  146SAPE   H8X16050   3.516   2.903   6.342  0.0134  1.1806 -0.9543
  146SAPE   H8Y16051   3.644   2.778   6.314 -0.9707 -1.8819 -0.3893
  146SAPE   C3916052   3.501   2.802   6.152  0.0860  0.0914 -0.0050
  146SAPE   H9X16053   3.430   2.726   6.190 -0.4020 -0.2224 -1.4553
  146SAPE   H9Y16054   3.570   2.756   6.078  0.9033  1.6604 -0.2724
  146SAPE  C31016055   3.412   2.916   6.090 -0.9289 -0.4066 -0.7656
  146SAPE  H10X16056   3.471   3.009   6.079 -0.3258 -0.6185  0.4696
  146SAPE  H10Y16057   3.323   2.943   6.150  0.0825  1.0115  0.1570
  146SAPE  C31116058   3.364   2.878   5.950  0.2218  0.0354  0.0611
  146SAPE  H11X16059   3.449   2.852   5.884  0.1662  1.2287 -0.5141
  146SAPE  H11Y16060   3.317   2.971   5.911 -1.8785 -0.9245  0.1788
  146SAPE  C31216061   3.254   2.777   5.955  0.1969 -0.2111 -0.6571
  146SAPE  H12X16062   3.191   2.819   6.037  1.3432  0.3826 -0.0561
  146SAPE  H12Y16063   3.297   2.680   5.986 -0.2227  0.7377  3.4327
  146SAPE  C31316064   3.170   2.773   5.830 -0.4491 -0.5802  0.1068
  146SAPE  H13X16065   3.114   2.864   5.802 -1.1292  0.5707  4.5144
  146SAPE  H13Y16066   3.092   2.695   5.850  0.2379 -1.2637  0.1785
  146SAPE  C31416067   3.269   2.747   5.713  0.7635 -0.4470  0.0038
  146SAPE  H14X16068   3.342   2.667   5.737  0.9630 -0.7757 -1.6023
  146SAPE  H14Y16069   3.332   2.836   5.688 -1.4084  0.8453 -1.1741
  146SAPE  C31516070   3.195   2.703   5.588 -0.4467 -0.4297  0.4423
  146SAPE  H15X16071   3.148   2.607   5.618 -2.1131  0.3465  0.3918
  146SAPE  H15Y16072   3.272   2.682   5.511 -1.0487 -0.2984 -0.2061
  146SAPE  C31616073   3.076   2.792   5.531 -0.2565 -0.0496 -1.1561
  146SAPE  H16X16074   3.121   2.893   5.518  1.4820 -0.6053  0.1986
  146SAPE  H16Y16075   2.997   2.805   5.608  0.7761  0.7665 -0.2044
  146SAPE  C31716076   3.021   2.739   5.402  0.2570 -0.2510 -0.0624
  146SAPE  H17X16077   3.020   2.628   5.404  0.4602 -0.2700  2.2806
  146SAPE  H17Y16078   3.089   2.773   5.321 -0.5970 -0.3863 -0.8441
  146SAPE  C31816079   2.878   2.777   5.364 -0.5471 -0.3728 -0.1517
  146SAPE  H18X16080   2.794   2.738   5.426 -1.3951  4.0659  1.9074
  146SAPE  H18Y16081   2.859   2.735   5.263 -0.5039 -0.0615 -0.2908
  146SAPE  H18Z16082   2.866   2.885   5.341  2.4604 -0.2866 -1.7338
  147SAPE     N16083   2.834   6.195   7.789 -0.1337 -0.1724  0.4937
  147SAPE   HN116084   2.822   6.156   7.693 -0.4966  0.3629  0.3176
  147SAPE   HN216085   2.897   6.130   7.839  0.7860  0.2394 -0.1043
  147SAPE   HN316086   2.748   6.197   7.847  0.7378 -2.6697  2.0133
  147SAPE   C1216087   2.905   6.331   7.787 -0.3545 -0.3467 -0.3928
  147SAPE  H12A16088   2.964   6.323   7.693 -1.4352  0.6663 -1.1761
  147SAPE  H12B16089   2.965   6.353   7.878 -2.3748  2.1949  0.4162
  147SAPE   C1116090   2.795   6.443   7.770 -0.1406  0.5487  0.0789
  147SAPE  H11A16091   2.848   6.541   7.759 -0.4500  0.5534 -1.6253
  147SAPE  H11B16092   2.738   6.437   7.865  0.9932 -1.1821  0.6857
  147SAPE     P16093   2.585   6.503   7.636  0.1646  0.0259  0.0739
  147SAPE   O1316094   2.472   6.409   7.643 -0.2964  0.4146 -0.4089
  147SAPE   O1416095   2.576   6.608   7.737  0.0273 -0.1774 -0.1397
  147SAPE   O1216096   2.715   6.422   7.653  0.3800  0.5886  0.0124
  147SAPE   O1116097   2.595   6.571   7.486 -0.0978 -0.5970 -0.2848
  147SAPE    C116098   2.685   6.528   7.387 -0.5501  0.3527  0.4443
  147SAPE    HA16099   2.712   6.421   7.394 -1.0924  0.1048 -0.8733
  147SAPE    HB16100   2.637   6.530   7.286  0.2149 -1.3373  0.0079
  147SAPE    C216101   2.802   6.632   7.379 -0.5920  0.2238 -0.0817
  147SAPE    HS16102   2.840   6.646   7.483  0.2416  1.2157 -0.5091
  147SAPE   O2116103   2.762   6.761   7.327 -1.0006  0.3164 -0.8313
  147SAPE   C2116104   2.851   6.850   7.345 -0.7597 -0.8604 -0.9245
  147SAPE   O2216105   2.939   6.847   7.434 -0.3011  0.2343  0.1993
  147SAPE   C2216106   2.824   6.979   7.261  0.1327  0.0320 -0.3924
  147SAPE   H2R16107   2.728   6.968   7.206 -0.4888  0.4693  0.5909
  147SAPE   H2S16108   2.793   7.057   7.333 -2.0763  0.2025 -1.4341
  147SAPE    C316109   2.923   6.577   7.292  0.0143  0.1581  0.0333
  147SAPE    HX16110   2.927   6.473   7.333  2.2088  0.5521  0.9888
  147SAPE    HY16111   3.014   6.640   7.299 -0.1430  0.7326 -2.4870
  147SAPE   O3116112   2.895   6.576   7.150 -0.2880 -0.1769  0.1896
  147SAPE   C3116113   2.987   6.496   7.083  0.8166 -0.4355  0.4699
  147SAPE   O3216114   3.067   6.431   7.140  0.7116  0.1236 -0.2394
  147SAPE   C3216115   2.979   6.514   6.927  0.2613 -0.1880 -0.5243
  147SAPE   H2X16116   2.983   6.619   6.893 -0.1416 -0.3530 -1.1065
  147SAPE   H2Y16117   2.888   6.462   6.890  0.0370  0.7685 -1.3366
  147SAPE   C2316118   2.952   7.022   7.174  0.4432  0.3721 -0.2948
  147SAPE   H3R16119   3.039   7.027   7.243  0.3526 -1.2325 -0.0116
  147SAPE   H3S16120   2.936   7.117   7.120 -0.0442  0.6837  0.3741
  147SAPE   C2416121   2.998   6.912   7.073  0.4168  0.3738 -0.3544
  147SAPE   H4R16122   3.034   6.819   7.122 -0.0142 -0.2142 -1.1275
  147SAPE   H4S16123   3.088   6.961   7.030 -0.8629  1.8729 -1.4431
  147SAPE   C2516124   2.887   6.889   6.969 -0.2287 -0.0212 -0.4025
  147SAPE   H5R16125   2.801   6.842   7.019 -2.5248  2.6321 -1.6266
  147SAPE   C2616126   2.895   6.916   6.838 -0.2771  0.1659 -0.0827
  147SAPE   H6R16127   2.806   6.900   6.776 -1.6383  0.3166  1.7552
  147SAPE   C2716128   3.015   6.963   6.760  0.1113 -1.0571  0.5527
  147SAPE   H7R16129   3.071   6.874   6.724  0.1537 -0.9787  0.4270
  147SAPE   H7S16130   3.095   7.012   6.818 -2.4906  1.1335  2.5656
  147SAPE   C2816131   2.968   7.038   6.636  0.5644  0.0260  0.6065
  147SAPE   H8R16132   2.955   7.146   6.647 -0.8053  0.3730 -2.8762
  147SAPE   C2916133   2.943   6.991   6.506 -0.5012  0.8488 -0.3751
  147SAPE   H9R16134   2.890   7.059   6.437 -0.6538 -1.7317 -2.9453
  147SAPE  C21016135   2.929   6.846   6.456 -0.2344 -0.5248 -0.0790
  147SAPE  H10R16136   2.819   6.829   6.447 -0.3494  0.7927 -1.6268
  147SAPE  H10S16137   2.958   6.782   6.542  0.7708 -0.6998 -0.5296
  147SAPE  C21116138   2.999   6.798   6.333  0.4291 -0.3133  0.2377
  147SAPE  H11R16139   3.100   6.837   6.315  0.1312  0.0489 -0.7271
  147SAPE  C21216140   2.945   6.733   6.221 -0.7081 -0.3789 -0.1057
  147SAPE  H12R16141   2.999   6.727   6.125 -1.1845  3.4596 -0.7692
  147SAPE  C21316142   2.797   6.708   6.215  0.1910  0.2574  0.4764
  147SAPE  H13R16143   2.737   6.790   6.171 -1.7715 -1.3763 -0.0704
  147SAPE  H13S16144   2.751   6.687   6.315  0.9897  0.6101  0.9263
  147SAPE  C21416145   2.773   6.594   6.120  0.1107  0.3684 -0.0621
  147SAPE  H14R16146   2.806   6.496   6.159  0.3643  0.7527  0.6886
  147SAPE  C21516147   2.737   6.600   5.990  0.5700 -0.5552 -0.3819
  147SAPE  H15R16148   2.738   6.506   5.933 -1.4819  0.1169 -1.6295
  147SAPE  C21616149   2.721   6.721   5.904  0.3845 -0.2147  0.0176
  147SAPE  H16R16150   2.786   6.802   5.944 -0.2196  0.2433  0.0708
  147SAPE  H16S16151   2.619   6.764   5.913  0.0649 -1.0840  0.6716
  147SAPE  C21716152   2.752   6.704   5.751  0.2037  0.2466  0.2662
  147SAPE  H17R16153   2.854   6.665   5.735 -0.3933 -1.7304  0.9895
  147SAPE  H17S16154   2.744   6.805   5.706 -0.9569  1.2625  2.5711
  147SAPE  C21816155   2.654   6.613   5.669 -0.0832  0.3901 -0.1174
  147SAPE  H18R16156   2.550   6.649   5.683 -0.6331 -1.5920  1.3293
  147SAPE  H18S16157   2.650   6.506   5.699  1.0115  0.4677  0.3890
  147SAPE  C21916158   2.687   6.616   5.514  0.1943 -0.1047 -0.0502
  147SAPE  H19R16159   2.787   6.572   5.496  1.4939  0.8310  3.8738
  147SAPE  H19S16160   2.692   6.721   5.480 -1.2170 -0.1182 -0.3592
  147SAPE  C22016161   2.580   6.542   5.429  0.4844 -0.1715  0.0214
  147SAPE  H20R16162   2.538   6.450   5.474 -1.6659  0.9841  0.5133
  147SAPE  H20S16163   2.620   6.520   5.328 -0.7072  1.1278 -0.7708
  147SAPE  H20T16164   2.496   6.612   5.408  1.5397  0.4498 -2.5432
  147SAPE   C3316165   3.099   6.433   6.859 -0.0175 -0.6571 -0.5759
  147SAPE   H3X16166   3.090   6.325   6.884  0.4081 -0.3438  1.0894
  147SAPE   H3Y16167   3.198   6.472   6.891 -0.2804  0.8653 -1.5389
  147SAPE   C3416168   3.095   6.440   6.708 -0.1360  0.0218  0.1873
  147SAPE   H4X16169   3.165   6.362   6.671  0.0098  0.3268 -0.1930
  147SAPE   H4Y16170   3.115   6.539   6.662  0.4758  0.4631  1.3514
  147SAPE   C3516171   2.951   6.399   6.649 -0.2555 -0.2267  0.5200
  147SAPE   H5X16172   2.880   6.484   6.661  1.9822  1.9272 -0.4753
  147SAPE   H5Y16173   2.913   6.317   6.712  3.3241 -1.4669  1.2951
  147SAPE   C3616174   2.959   6.370   6.503 -0.5847 -0.0621  0.7068
  147SAPE   H6X16175   3.008   6.459   6.459  0.0538 -0.2637  1.0103
  147SAPE   H6Y16176   2.857   6.367   6.458  0.0919 -0.8503 -0.8241
  147SAPE   C3716177   3.020   6.238   6.462  0.7111  0.3492 -0.5463
  147SAPE   H7X16178   2.955   6.158   6.504  0.2173  1.1289  0.2250
  147SAPE   H7Y16179   3.123   6.237   6.503  0.7238 -0.1709 -0.5804
  147SAPE   C3816180   3.049   6.225   6.306  0.3804  0.2993 -0.8963
  147SAPE   H8X16181   2.959   6.218   6.242  1.7418 -0.2156 -2.8341
  147SAPE   H8Y16182   3.103   6.128   6.296 -0.8166 -0.6448  1.1724
  147SAPE   C3916183   3.129   6.340   6.250 -0.1979 -0.6142 -0.0962
  147SAPE   H9X16184   3.205   6.377   6.322 -0.5821  0.8827 -0.4279
  147SAPE   H9Y16185   3.054   6.422   6.244  0.6743  0.1940 -0.2152
  147SAPE  C31016186   3.215   6.299   6.129  0.2995 -0.2730  0.0405
  147SAPE  H10X16187   3.293   6.223   6.151  1.4383  1.1853  1.2948
  147SAPE  H10Y16188   3.275   6.384   6.090 -2.6278  1.6371 -0.5868
  147SAPE  C31116189   3.125   6.276   6.009 -0.4350 -0.0477  0.0881
  147SAPE  H11X16190   3.029   6.332   6.011 -0.2216  0.3193  0.1106
  147SAPE  H11Y16191   3.101   6.168   6.008 -0.2531 -0.0867 -0.0913
  147SAPE  C31216192   3.187   6.301   5.871 -0.0224 -0.0811 -0.9151
  147SAPE  H12X16193   3.125   6.271   5.784 -2.5778 -1.7876  1.3459
  147SAPE  H12Y16194   3.285   6.248   5.869  0.5553  0.8870  0.0351
  147SAPE  C31316195   3.214   6.444   5.843 -0.0247  0.1244 -0.4232
  147SAPE  H13X16196   3.297   6.489   5.902 -0.7084  0.4997  0.2734
  147SAPE  H13Y16197   3.124   6.506   5.858 -0.1761 -0.4339  1.2646
  147SAPE  C31416198   3.249   6.467   5.696 -0.2211  0.3257 -0.5004
  147SAPE  H14X16199   3.167   6.514   5.636  0.0820  1.0197 -0.3833
  147SAPE  H14Y16200   3.261   6.366   5.653 -2.8984  1.0737 -3.4004
  147SAPE  C31516201   3.374   6.555   5.674 -0.4934  0.2910  0.3232
  147SAPE  H15X16202   3.451   6.513   5.743 -2.4744 -1.1638  1.7849
  147SAPE  H15Y16203   3.359   6.664   5.690 -2.1421  0.3678 -1.3904
  147SAPE  C31616204   3.431   6.529   5.531  0.7313 -0.5205 -0.3867
  147SAPE  H16X16205   3.378   6.437   5.497 -2.0203  0.4839  0.8844
  147SAPE  H16Y16206   3.541   6.513   5.541  0.8694  0.8781  0.5566
  147SAPE  C31716207   3.422   6.641   5.428  0.1171  0.1922 -0.2157
  147SAPE  H17X16208   3.321   6.686   5.418 -0.1701 -0.5901 -0.9510
  147SAPE  H17Y16209   3.448   6.594   5.331  1.0307 -0.9053  0.5272
  147SAPE  C31816210   3.519   6.754   5.462 -0.3580 -1.1328  0.4751
  147SAPE  H18X16211   3.497   6.834   5.387 -4.3982 -1.2035  1.3384
  147SAPE  H18Y16212   3.621   6.725   5.432  0.2201  2.1051 -1.2274
  147SAPE  H18Z16213   3.508   6.780   5.569 -2.2530  0.2837 -0.0015
  148SAPE     N16214   0.641   0.350   8.024 -0.0063  0.3372  0.4215
  148SAPE   HN116215   0.635   0.247   8.017  0.1816  0.4140 -1.2193
  148SAPE   HN216216   0.743   0.367   8.014 -0.0044 -0.2629 -0.7008
  148SAPE   HN316217   0.610   0.366   8.122 -0.2291 -1.4034  0.6573
  148SAPE   C1216218   0.569   0.427   7.916 -0.6502  0.2001  0.2059
  148SAPE  H12A16219   0.539   0.523   7.963  0.8539  0.9845 -0.3605
  148SAPE  H12B16220   0.481   0.376   7.872 -1.4772  0.8887  1.0238
  148SAPE   C1116221   0.661   0.442   7.796 -0.0209 -0.7476 -0.1862
  148SAPE  H11A16222   0.593   0.477   7.716 -1.8876  1.2058  2.1330
  148SAPE  H11B16223   0.697   0.346   7.751  0.7565 -0.8993  0.7244
  148SAPE     P16224   0.912   0.502   7.853  0.3164  0.3290 -0.0192
  148SAPE   O1316225   0.984   0.628   7.866  0.0925  0.2692 -0.1706
  148SAPE   O1416226   0.903   0.410   7.966 -0.2793  0.1154  0.7321
  148SAPE   O1216227   0.764   0.539   7.812 -0.0673  0.0723  0.0882
  148SAPE   O1116228   0.966   0.424   7.723  0.1645  0.2305 -0.3108
  148SAPE    C116229   0.959   0.493   7.598 -0.4970  0.3750  0.0964
  148SAPE    HA16230   0.899   0.431   7.528  1.5515 -0.3156 -1.1360
  148SAPE    HB16231   0.900   0.587   7.604 -0.3919  0.6683 -2.3358
  148SAPE    C216232   1.100   0.527   7.543 -0.0120  0.3071  0.3674
  148SAPE    HS16233   1.157   0.570   7.628 -0.0314  0.5770  0.2460
  148SAPE   O2116234   1.081   0.636   7.449  0.4230 -0.0901  0.5024
  148SAPE   C2116235   1.185   0.709   7.425 -0.2760  0.0672 -0.2077
  148SAPE   O2216236   1.291   0.707   7.487  0.1342  0.1724  0.2077
  148SAPE   C2216237   1.174   0.804   7.309 -0.4119  1.0016  0.1407
  148SAPE   H2R16238   1.228   0.899   7.332 -1.5340  1.4278  1.0868
  148SAPE   H2S16239   1.216   0.753   7.220 -2.0137  0.7168 -0.4883
  148SAPE    C316240   1.183   0.408   7.488  0.1094  0.0101  0.1400
  148SAPE    HX16241   1.183   0.327   7.564  0.2848 -0.7582 -0.6654
  148SAPE    HY16242   1.287   0.446   7.479 -0.4246  1.5314  0.1025
  148SAPE   O3116243   1.136   0.353   7.360  0.3137 -0.6376  0.0063
  148SAPE   C3116244   1.174   0.411   7.247 -0.2420 -0.3762  0.0136
  148SAPE   O3216245   1.276   0.477   7.234 -0.6115 -0.2746  0.0920
  148SAPE   C3216246   1.072   0.395   7.131 -0.2960 -0.0806 -0.3305
  148SAPE   H2X16247   0.969   0.414   7.169  0.4424  0.4807  1.4824
  148SAPE   H2Y16248   1.065   0.290   7.094 -1.7292 -0.2251  0.2695
  148SAPE   C2316249   1.028   0.850   7.273  0.0404  0.2290 -1.0713
  148SAPE   H3R16250   1.005   0.921   7.356  1.4900 -1.6984  1.0854
  148SAPE   H3S16251   0.958   0.765   7.288  0.3613  0.0595 -0.5053
  148SAPE   C2416252   1.024   0.926   7.140  0.4543 -0.0344  0.1336
  148SAPE   H4R16253   0.913   0.927   7.130  0.5332 -0.5329 -0.8609
  148SAPE   H4S16254   1.062   0.858   7.061 -1.0326 -0.6791 -0.0669
  148SAPE   C2516255   1.107   1.057   7.142  1.0665  0.3904 -0.4523
  148SAPE   H5R16256   1.181   1.060   7.223  0.3595  1.7762  0.1735
  148SAPE   C2616257   1.087   1.151   7.052 -0.1171 -0.8868  0.0251
  148SAPE   H6R16258   1.147   1.242   7.060 -0.0544 -1.0742  2.3476
  148SAPE   C2716259   0.964   1.167   6.963  0.1563  0.5290  0.2708
  148SAPE   H7R16260   0.952   1.276   6.949 -2.3301  0.3956  0.9388
  148SAPE   H7S16261   0.877   1.146   7.028 -0.0415  1.9234  0.4770
  148SAPE   C2816262   0.954   1.077   6.840 -0.2484  0.1811  0.0729
  148SAPE   H8R16263   0.973   0.973   6.867  0.4756  0.6488  1.4337
  148SAPE   C2916264   0.922   1.124   6.712 -0.7784 -0.5343 -0.6912
  148SAPE   H9R16265   0.924   1.050   6.630 -0.5182 -0.2185 -0.9746
  148SAPE  C21016266   0.900   1.263   6.659 -0.1889  0.0382  0.1228
  148SAPE  H10R16267   0.874   1.332   6.742 -1.7175  0.1808 -0.4435
  148SAPE  H10S16268   0.816   1.263   6.587 -0.3472 -0.6033  0.3071
  148SAPE  C21116269   1.019   1.313   6.580 -0.2645 -0.9997 -0.4694
  148SAPE  H11R16270   1.104   1.338   6.645 -2.1435  2.0232  1.0619
  148SAPE  C21216271   1.037   1.323   6.447  0.3845 -0.6891 -0.0364
  148SAPE  H12R16272   1.122   1.375   6.400 -0.8015 -0.3265 -1.8904
  148SAPE  C21316273   0.931   1.278   6.349  0.4204 -0.0988  0.0105
  148SAPE  H13R16274   0.886   1.183   6.386  2.9471 -1.1080  0.6904
  148SAPE  H13S16275   0.993   1.251   6.261  1.5999 -0.8381  1.0271
  148SAPE  C21416276   0.821   1.372   6.316 -0.4197 -0.2574  0.1441
  148SAPE  H14R16277   0.743   1.395   6.389 -0.2387  1.9996 -0.3100
  148SAPE  C21516278   0.785   1.410   6.191  0.3442 -0.6515 -0.3901
  148SAPE  H15R16279   0.712   1.490   6.174  1.3164 -0.4992 -5.5358
  148SAPE  C21616280   0.868   1.385   6.069  0.0910  0.4392  0.3838
  148SAPE  H16R16281   0.977   1.395   6.084  0.2053  0.9061 -0.6514
  148SAPE  H16S16282   0.851   1.476   6.007  2.3803  2.4214  2.4439
  148SAPE  C21716283   0.834   1.250   5.997  0.2231  0.9786 -0.4880
  148SAPE  H17R16284   0.723   1.245   5.998  0.0573  2.5774 -2.7290
  148SAPE  H17S16285   0.868   1.156   6.045 -2.0297 -0.1514 -0.9607
  148SAPE  C21816286   0.872   1.242   5.843 -0.5125  0.5736 -0.5620
  148SAPE  H18R16287   0.873   1.134   5.820 -2.1795  0.1865  0.8730
  148SAPE  H18S16288   0.973   1.288   5.838  0.2639 -1.1180 -1.0716
  148SAPE  C21916289   0.778   1.322   5.766  0.1790 -0.2559 -0.3727
  148SAPE  H19R16290   0.768   1.422   5.814  1.1169  1.5421 -3.6300
  148SAPE  H19S16291   0.678   1.274   5.762  0.3978 -0.6635 -1.1325
  148SAPE  C22016292   0.821   1.352   5.620  0.6736 -0.0580 -0.2112
  148SAPE  H20R16293   0.741   1.408   5.567  0.3200 -0.6306 -0.2943
  148SAPE  H20S16294   0.830   1.266   5.550  1.3537  0.1913 -0.4425
  148SAPE  H20T16295   0.910   1.418   5.622  0.0324  0.8420 -0.6710
  148SAPE   C3316296   1.096   0.502   7.020  0.1589 -0.3825 -0.1589
  148SAPE   H3X16297   1.193   0.481   6.968  0.5263  2.6692 -0.9264
  148SAPE   H3Y16298   1.100   0.607   7.057  2.7054 -0.4977  0.0777
  148SAPE   C3416299   0.987   0.514   6.918  0.0180 -0.2001  0.3320
  148SAPE   H4X16300   0.898   0.575   6.946  0.5080  0.7644 -0.1850
  148SAPE   H4Y16301   0.948   0.411   6.899 -1.0092  0.2969 -0.3840
  148SAPE   C3516302   1.054   0.573   6.797  0.4750  0.1253  0.4094
  148SAPE   H5X16303   1.128   0.502   6.753  0.7357 -0.4167  1.6954
  148SAPE   H5Y16304   1.119   0.652   6.839  1.3758 -1.5046  2.2481
  148SAPE   C3616305   0.948   0.625   6.696 -0.3528 -0.2238 -0.4043
  148SAPE   H6X16306   0.872   0.686   6.750  0.8909  0.0525  1.1084
  148SAPE   H6Y16307   0.898   0.542   6.642 -0.6434  0.6034 -1.4358
  148SAPE   C3716308   0.995   0.724   6.596  0.1650 -0.1441 -0.1494
  148SAPE   H7X16309   1.040   0.814   6.643  0.8888  0.1404 -1.3383
  148SAPE   H7Y16310   0.916   0.743   6.520 -1.0767 -4.5530 -0.2455
  148SAPE   C3816311   1.110   0.668   6.506 -0.6442 -0.3730  0.5208
  148SAPE   H8X16312   1.065   0.578   6.457 -1.0502  0.4504 -0.6703
  148SAPE   H8Y16313   1.195   0.636   6.570 -0.3751 -0.1971  0.2518
  148SAPE   C3916314   1.175   0.775   6.408  0.3971  0.3945 -0.5208
  148SAPE   H9X16315   1.246   0.712   6.350  3.3830  0.9767  2.2733
  148SAPE   H9Y16316   1.223   0.848   6.476 -0.4006  1.1072 -0.7118
  148SAPE  C31016317   1.092   0.849   6.301  0.2318  0.3806 -0.4442
  148SAPE  H10X16318   1.154   0.914   6.235  0.0983  1.4329  0.4442
  148SAPE  H10Y16319   1.027   0.924   6.350 -1.5330  0.7688 -3.1539
  148SAPE  C31116320   1.001   0.758   6.212 -0.2830 -0.4665  0.5098
  148SAPE  H11X16321   0.949   0.675   6.264  0.1200 -0.6132  0.6786
  148SAPE  H11Y16322   1.070   0.708   6.141 -1.8411 -3.2342  0.8108
  148SAPE  C31216323   0.892   0.835   6.137 -0.4279  0.6722 -0.3126
  148SAPE  H12X16324   0.926   0.929   6.089 -0.4364  1.6301  1.4957
  148SAPE  H12Y16325   0.814   0.868   6.209 -1.1223 -1.1674 -0.1806
  148SAPE  C31316326   0.840   0.747   6.023 -0.0768  0.7916  0.1984
  148SAPE  H13X16327   0.796   0.649   6.052  0.3929  0.3813 -0.4606
  148SAPE  H13Y16328   0.922   0.728   5.952 -0.2865 -0.6896  0.3175
  148SAPE  C31416329   0.733   0.829   5.951  0.0068  0.8047  0.3188
  148SAPE  H14X16330   0.764   0.934   5.971 -0.3646  0.6344  1.8724
  148SAPE  H14Y16331   0.639   0.820   6.010  0.2041 -0.9628  0.4056
  148SAPE  C31516332   0.708   0.809   5.803  0.4332 -0.3418  0.5178
  148SAPE  H15X16333   0.673   0.706   5.779 -1.5690  0.5871 -0.8838
  148SAPE  H15Y16334   0.815   0.805   5.774  0.2814  0.4490 -0.1995
  148SAPE  C31616335   0.634   0.925   5.734 -0.5746 -0.2780 -0.4681
  148SAPE  H16X16336   0.655   0.928   5.625 -0.8132 -0.0322 -0.5086
  148SAPE  H16Y16337   0.653   1.023   5.783  0.2946  0.4319 -2.1461
  148SAPE  C31716338   0.475   0.901   5.744  0.1513  0.0559  0.2558
  148SAPE  H17X16339   0.434   0.885   5.846  0.0004 -3.7086 -0.2561
  148SAPE  H17Y16340   0.467   0.816   5.673  0.1509  0.8791 -0.7563
  148SAPE  C31816341   0.399   1.027   5.691  0.1362 -0.6478  0.3365
  148SAPE  H18X16342   0.423   1.045   5.584 -0.2920 -0.4329  0.2752
  148SAPE  H18Y16343   0.428   1.120   5.747 -0.0002 -0.2655 -0.2215
  148SAPE  H18Z16344   0.290   1.010   5.688  0.0723 -0.1466 -0.6618
  149SAPE     N16345   0.958   4.753   7.561 -0.0135  0.2086 -0.2896
  149SAPE   HN116346   0.966   4.857   7.566  1.3924  0.0887  0.5120
  149SAPE   HN216347   0.861   4.735   7.529 -0.7692  1.7054  1.0286
  149SAPE   HN316348   0.987   4.723   7.656  3.9394  2.6101 -0.4818
  149SAPE   C1216349   1.055   4.710   7.456 -0.6752  0.2145 -0.1940
  149SAPE  H12A16350   1.158   4.739   7.483  0.6243 -2.2836 -2.0301
  149SAPE  H12B16351   1.034   4.765   7.361  0.6198  0.5383 -0.3089
  149SAPE   C1116352   1.050   4.557   7.430  0.1302  0.0727  0.1876
  149SAPE  H11A16353   1.135   4.525   7.366 -0.1860 -1.5614  0.5571
  149SAPE  H11B16354   0.955   4.546   7.373 -0.0602  2.7276 -0.1537
  149SAPE     P16355   1.158   4.468   7.653  0.1900 -0.3807 -0.5235
  149SAPE   O1316356   1.190   4.607   7.689 -0.0386  0.3790  0.1304
  149SAPE   O1416357   1.129   4.387   7.770 -0.4657 -0.3780 -0.0741
  149SAPE   O1216358   1.047   4.467   7.545  0.4892  0.6758 -0.4491
  149SAPE   O1116359   1.279   4.400   7.590 -0.2899  0.0255 -0.0400
  149SAPE    C116360   1.282   4.263   7.546 -0.2817  0.4702 -0.7037
  149SAPE    HA16361   1.357   4.218   7.615 -0.0534 -1.9091 -2.3771
  149SAPE    HB16362   1.188   4.210   7.574  0.0051 -0.4661 -1.4480
  149SAPE    C216363   1.334   4.234   7.406  0.1356 -0.3957  0.2126
  149SAPE    HS16364   1.434   4.282   7.402 -0.8394  1.6303 -1.7082
  149SAPE   O2116365   1.232   4.277   7.310 -0.1735 -0.3755  0.0048
  149SAPE   C2116366   1.279   4.329   7.197  0.4497  0.7153 -0.1144
  149SAPE   O2216367   1.395   4.346   7.166 -0.0661 -0.3012 -0.3126
  149SAPE   C2216368   1.170   4.376   7.104  0.7741  0.1714  0.8489
  149SAPE   H2R16369   1.068   4.350   7.140 -0.0185 -0.4425 -1.6542
  149SAPE   H2S16370   1.173   4.487   7.096 -0.8494  0.1517 -0.4425
  149SAPE    C316371   1.369   4.084   7.384 -0.3658  0.4781  0.6151
  149SAPE    HX16372   1.271   4.033   7.383 -0.8659  1.3475  2.1275
  149SAPE    HY16373   1.431   4.050   7.470  0.9481 -0.3410 -0.6220
  149SAPE   O3116374   1.419   4.068   7.249  0.1873  0.1960  0.2785
  149SAPE   C3116375   1.551   4.084   7.237 -0.4451 -0.0302  0.6836
  149SAPE   O3216376   1.628   4.083   7.331 -0.2462  0.0383  0.7907
  149SAPE   C3216377   1.591   4.112   7.088  0.4601  1.1813 -0.7351
  149SAPE   H2X16378   1.627   4.217   7.088  0.6114  1.1304 -0.6358
  149SAPE   H2Y16379   1.495   4.109   7.032  0.5619 -0.4191 -0.8710
  149SAPE   C2316380   1.180   4.321   6.964 -0.5272  0.0663  0.0805
  149SAPE   H3R16381   1.283   4.340   6.929 -1.1331  1.9355 -0.7743
  149SAPE   H3S16382   1.114   4.375   6.894 -0.8788  0.7816  0.9434
  149SAPE   C2416383   1.149   4.167   6.966  0.3892  0.3367  0.2566
  149SAPE   H4R16384   1.173   4.121   7.064 -4.9182 -0.0387  1.6916
  149SAPE   H4S16385   1.223   4.127   6.893  0.9922 -1.0853  1.5918
  149SAPE   C2516386   1.004   4.136   6.934 -0.1736 -0.4691  0.2246
  149SAPE   H5R16387   0.935   4.120   7.019 -0.8405  1.3460  0.0733
  149SAPE   C2616388   0.961   4.117   6.810  0.1373  0.3078  0.0286
  149SAPE   H6R16389   0.856   4.088   6.801 -0.4102  2.0090  0.5784
  149SAPE   C2716390   1.046   4.126   6.681 -0.0845 -0.8440 -0.2017
  149SAPE   H7R16391   1.095   4.027   6.669 -1.5045 -1.7976  1.3754
  149SAPE   H7S16392   1.126   4.203   6.698  0.6596 -1.6585  0.0557
  149SAPE   C2816393   0.960   4.161   6.558 -0.2151 -0.4433  0.2725
  149SAPE   H8R16394   0.918   4.262   6.565  1.4079  0.3058 -0.1818
  149SAPE   C2916395   0.942   4.078   6.450 -1.0326  0.0623 -0.1458
  149SAPE   H9R16396   0.877   4.120   6.372 -0.8127  1.4297  0.3747
  149SAPE  C21016397   1.001   3.944   6.409  0.1428  0.4041 -0.1745
  149SAPE  H10R16398   0.925   3.869   6.378  0.2894  0.7847 -1.5140
  149SAPE  H10S16399   1.052   3.904   6.500 -0.3915  2.2394  0.9863
  149SAPE  C21116400   1.112   3.949   6.310 -0.1725 -0.5601 -0.0509
  149SAPE  H11R16401   1.208   3.958   6.364 -0.4468  0.2404  0.3124
  149SAPE  C21216402   1.108   3.955   6.177 -0.4216 -0.0342 -0.7271
  149SAPE  H12R16403   1.206   3.947   6.129  1.1610  2.0347  1.9180
  149SAPE  C21316404   0.993   3.931   6.080 -0.0184 -0.4263 -0.0942
  149SAPE  H13R16405   0.896   3.939   6.133  0.0765  0.5378 -0.0433
  149SAPE  H13S16406   1.004   3.829   6.037 -0.2333 -0.7046  0.5032
  149SAPE  C21416407   0.983   4.026   5.956  0.3575  0.8159 -0.3461
  149SAPE  H14R16408   0.961   4.131   5.980 -1.1163  0.4086  0.2480
  149SAPE  C21516409   0.965   3.988   5.826 -0.0713  0.0063 -0.2503
  149SAPE  H15R16410   0.957   4.066   5.750 -2.1145  1.9345  1.8122
  149SAPE  C21616411   0.972   3.847   5.777 -0.5995 -0.2016  0.6907
  149SAPE  H16R16412   0.900   3.831   5.693  1.0113 -0.3447 -0.7194
  149SAPE  H16S16413   0.963   3.767   5.852  1.8948 -0.1024  1.1502
  149SAPE  C21716414   1.110   3.822   5.706  0.1803  0.4506 -0.2884
  149SAPE  H17R16415   1.123   3.714   5.686 -1.3534  0.6637 -2.9032
  149SAPE  H17S16416   1.191   3.854   5.776  0.2243  2.1778 -1.0732
  149SAPE  C21816417   1.131   3.889   5.569  0.3092  0.1846  0.5386
  149SAPE  H18R16418   1.123   3.997   5.594 -2.5919 -0.6029  3.9571
  149SAPE  H18S16419   1.054   3.861   5.494  2.4339  0.1418 -1.7433
  149SAPE  C21916420   1.265   3.852   5.502 -0.6960  0.2665 -0.2140
  149SAPE  H19R16421   1.348   3.861   5.575  1.4978 -1.6167 -2.3141
  149SAPE  H19S16422   1.307   3.921   5.426 -0.6156 -0.2372 -0.6300
  149SAPE  C22016423   1.265   3.712   5.438  0.7249  0.0756 -0.5572
  149SAPE  H20R16424   1.251   3.628   5.508  0.0321 -0.0174 -0.7925
  149SAPE  H20S16425   1.361   3.699   5.384 -0.1808  0.7525 -2.4308
  149SAPE  H20T16426   1.179   3.729   5.369 -1.0912 -2.1027  1.0358
  149SAPE   C3316427   1.703   4.018   7.030  0.3249  0.0389  0.2921
  149SAPE   H3X16428   1.672   3.912   7.038  0.8831 -0.2927 -1.6224
  149SAPE   H3Y16429   1.791   4.037   7.096 -0.6003  1.7281  1.1132
  149SAPE   C3416430   1.738   4.043   6.881 -0.2505  0.3284 -0.0518
  149SAPE   H4X16431   1.831   3.984   6.868  0.1117  1.0051 -0.5736
  149SAPE   H4Y16432   1.764   4.150   6.864  1.6703  0.0301  0.6682
  149SAPE   C3516433   1.645   3.997   6.773  0.0548  0.2102  0.0542
  149SAPE   H5X16434   1.544   4.035   6.800  0.7224  1.3752  1.0442
  149SAPE   H5Y16435   1.650   3.886   6.771 -0.0430  0.2194 -0.9935
  149SAPE   C3616436   1.684   4.034   6.629  0.6987 -0.2718  0.3286
  149SAPE   H6X16437   1.790   4.007   6.610  0.1809 -1.0507 -1.6153
  149SAPE   H6Y16438   1.668   4.144   6.623 -0.5361 -0.3306  1.7622
  149SAPE   C3716439   1.605   3.961   6.517  0.2254 -0.3070  0.2268
  149SAPE   H7X16440   1.498   3.992   6.516  0.3917  0.3031  0.9545
  149SAPE   H7Y16441   1.593   3.858   6.557  1.3192 -0.3755  0.4068
  149SAPE   C3816442   1.676   3.964   6.383  0.0086  0.3492  0.2296
  149SAPE   H8X16443   1.784   3.936   6.383 -0.1711 -1.1273 -4.2237
  149SAPE   H8Y16444   1.678   4.073   6.359 -0.4063  0.8311  2.2205
  149SAPE   C3916445   1.614   3.874   6.279  0.4930 -0.2048 -0.2059
  149SAPE   H9X16446   1.505   3.895   6.270  0.4677 -0.9327 -1.9696
  149SAPE   H9Y16447   1.630   3.766   6.298 -3.5646 -0.9132  0.1861
  149SAPE  C31016448   1.666   3.905   6.142 -0.1777  0.0134  0.3834
  149SAPE  H10X16449   1.774   3.879   6.144 -0.3359 -0.7483 -0.2783
  149SAPE  H10Y16450   1.670   4.015   6.128  3.8394 -0.3281 -3.0618
  149SAPE  C31116451   1.603   3.822   6.023 -0.5512  0.1360 -0.2172
  149SAPE  H11X16452   1.501   3.860   6.002 -0.5870 -0.5801 -1.4219
  149SAPE  H11Y16453   1.585   3.729   6.081  1.1778  1.1508  2.1435
  149SAPE  C31216454   1.682   3.788   5.899  0.2513  0.6519  0.0796
  149SAPE  H12X16455   1.625   3.725   5.827  0.6782 -0.0063  0.2994
  149SAPE  H12Y16456   1.777   3.738   5.928  1.6350  2.4508 -1.1298
  149SAPE  C31316457   1.727   3.912   5.824  0.1712  0.3633  0.4333
  149SAPE  H13X16458   1.778   3.980   5.895  1.8568 -0.3029 -0.0716
  149SAPE  H13Y16459   1.643   3.961   5.771  0.8567  0.9807 -0.0963
  149SAPE  C31416460   1.815   3.868   5.705  0.1949 -0.6056 -0.3278
  149SAPE  H14X16461   1.754   3.798   5.644 -2.9922 -1.1165  3.0893
  149SAPE  H14Y16462   1.896   3.806   5.747  0.7117  1.1819  1.4955
  149SAPE  C31516463   1.872   3.984   5.626  0.1570  0.1360 -0.3116
  149SAPE  H15X16464   1.924   4.054   5.695 -1.5002  1.7620 -0.6327
  149SAPE  H15Y16465   1.795   4.045   5.575 -0.3238 -1.0533 -1.0472
  149SAPE  C31616466   1.966   3.925   5.519 -0.7648 -0.3670 -0.5491
  149SAPE  H16X16467   2.047   3.860   5.558 -1.6793 -1.3094 -0.1600
  149SAPE  H16Y16468   2.020   4.006   5.465  0.1041  1.4497  2.7999
  149SAPE  C31716469   1.891   3.847   5.416 -0.3317 -0.2062 -0.0571
  149SAPE  H17X16470   1.810   3.915   5.382  0.1365 -0.0671 -0.9220
  149SAPE  H17Y16471   1.855   3.753   5.464 -0.6202 -0.4570 -0.7459
  149SAPE  C31816472   1.969   3.789   5.299 -0.0498  0.1390  0.5690
  149SAPE  H18X16473   2.042   3.714   5.337  3.0443  2.1805 -0.8699
  149SAPE  H18Y16474   2.032   3.866   5.248 -0.0690 -0.4645 -0.3822
  149SAPE  H18Z16475   1.906   3.737   5.224  0.9780  2.8477 -2.4323
  150SAPE     N16476   5.214   4.651   7.659 -0.0739 -0.0930 -0.1410
  150SAPE   HN116477   5.224   4.740   7.713  0.2949  0.1192 -0.5562
  150SAPE   HN216478   5.283   4.585   7.701 -0.0585  0.3734  0.5980
  150SAPE   HN316479   5.251   4.683   7.568 -3.7210 -1.4307 -2.2895
  150SAPE   C1216480   5.074   4.610   7.648  0.0611  0.0747 -0.1827
  150SAPE  H12A16481   5.029   4.695   7.593  0.1442  0.0637 -0.2693
  150SAPE  H12B16482   5.030   4.593   7.748  0.5651 -0.5555 -0.0623
  150SAPE   C1116483   5.067   4.479   7.572 -0.0928 -0.3732  0.2078
  150SAPE  H11A16484   5.127   4.487   7.479  1.0660 -0.3970  0.9376
  150SAPE  H11B16485   4.963   4.465   7.536 -0.0610 -2.7737  0.8779
  150SAPE     P16486   5.031   4.262   7.716 -0.4168 -0.1308  0.0703
  150SAPE   O1316487   5.132   4.164   7.763  0.0592  0.0903 -0.3578
  150SAPE   O1416488   4.945   4.322   7.822  0.0999  0.1644  0.6961
  150SAPE   O1216489   5.113   4.367   7.642 -0.0740  0.2772  0.4936
  150SAPE   O1116490   4.938   4.207   7.600  1.0268  0.3184 -0.3520
  150SAPE    C116491   4.967   4.097   7.512  0.5895  0.1397 -0.7775
  150SAPE    HA16492   5.013   4.021   7.579  1.3876  1.5494  0.3285
  150SAPE    HB16493   4.874   4.059   7.466  0.7429 -0.9995 -0.1933
  150SAPE    C216494   5.062   4.126   7.394  0.7122 -0.2567  0.3773
  150SAPE    HS16495   5.155   4.173   7.433  0.1093  0.0629  1.4493
  150SAPE   O2116496   4.981   4.228   7.329  0.1269  0.1613 -0.3978
  150SAPE   C2116497   5.047   4.324   7.268 -0.1046  0.3080 -0.1974
  150SAPE   O2216498   5.165   4.339   7.262 -0.1580  0.6630  0.1859
  150SAPE   C2216499   4.945   4.420   7.201  0.1102 -0.1036 -0.5764
  150SAPE   H2R16500   4.842   4.378   7.200 -0.1278  0.4261  0.2134
  150SAPE   H2S16501   4.932   4.505   7.271 -1.5131  0.6593 -1.7446
  150SAPE    C316502   5.083   4.010   7.293 -0.2749  0.7170 -0.4459
  150SAPE    HX16503   4.979   3.997   7.257 -0.2849  1.6311 -0.7632
  150SAPE    HY16504   5.113   3.920   7.352 -0.0359  1.6030  0.8049
  150SAPE   O3116505   5.157   4.039   7.170 -0.0454 -0.5651  0.3256
  150SAPE   C3116506   5.286   4.066   7.186  0.5529 -1.0534 -0.5040
  150SAPE   O3216507   5.348   4.040   7.288  0.3747  0.1111  0.3944
  150SAPE   C3216508   5.352   4.117   7.059  0.7918  0.1535  0.6282
  150SAPE   H2X16509   5.419   4.040   7.014 -0.7854 -0.4177 -0.8316
  150SAPE   H2Y16510   5.414   4.204   7.089  1.9456 -0.4590  0.0943
  150SAPE   C2316511   4.982   4.471   7.061  0.3850 -0.2484  0.0943
  150SAPE   H3R16512   4.992   4.388   6.988  1.4460 -0.9375  0.9965
  150SAPE   H3S16513   5.083   4.515   7.066  0.8477 -0.9140 -2.3348
  150SAPE   C2416514   4.897   4.582   7.008  0.0308 -0.5266  0.5302
  150SAPE   H4R16515   4.941   4.645   6.928 -2.6591 -1.3427 -1.7861
  150SAPE   H4S16516   4.881   4.660   7.085 -1.7888  0.3610 -0.6781
  150SAPE   C2516517   4.762   4.530   6.955 -0.0413 -0.4765 -0.2177
  150SAPE   H5R16518   4.687   4.553   7.031  2.9277 -1.4138  3.2993
  150SAPE   C2616519   4.738   4.476   6.832 -0.0143  0.2241  0.0132
  150SAPE   H6R16520   4.642   4.424   6.820  0.4487 -1.3413  2.3271
  150SAPE   C2716521   4.850   4.442   6.734 -1.0002 -0.5541  0.2230
  150SAPE   H7R16522   4.842   4.335   6.703 -0.3466 -0.5468  0.0207
  150SAPE   H7S16523   4.951   4.454   6.776 -0.7647  0.8278 -0.6804
  150SAPE   C2816524   4.853   4.522   6.601 -0.1445 -0.3867  0.3475
  150SAPE   H8R16525   4.890   4.626   6.600 -0.5388 -0.2413  0.6258
  150SAPE   C2916526   4.802   4.478   6.486 -0.1889 -0.4052  0.3316
  150SAPE   H9R16527   4.803   4.547   6.401  1.3000  0.3940  0.9574
  150SAPE  C21016528   4.739   4.350   6.451  0.3579  0.2381  0.9529
  150SAPE  H10R16529   4.718   4.292   6.543  2.8607 -0.8065  0.9375
  150SAPE  H10S16530   4.803   4.286   6.386 -0.1059  0.3638  0.3628
  150SAPE  C21116531   4.606   4.370   6.385  0.3153 -0.3119 -0.0651
  150SAPE  H11R16532   4.516   4.374   6.448 -0.8059  2.0549 -1.6807
  150SAPE  C21216533   4.584   4.416   6.258 -0.2158 -0.7701 -0.3358
  150SAPE  H12R16534   4.488   4.442   6.210  0.5644 -0.4931 -1.8291
  150SAPE  C21316535   4.691   4.429   6.155 -0.4981 -0.2150  0.1247
  150SAPE  H13R16536   4.680   4.350   6.078 -0.4663  0.6571 -0.7848
  150SAPE  H13S16537   4.797   4.412   6.187  0.2643  1.9619 -1.0463
  150SAPE  C21416538   4.680   4.571   6.100  0.6224  0.0430  0.0294
  150SAPE  H14R16539   4.687   4.647   6.179 -1.6213  0.0522  0.2948
  150SAPE  C21516540   4.657   4.612   5.973 -0.6995  0.5653 -0.3375
  150SAPE  H15R16541   4.640   4.715   5.938  1.1223  0.8130 -0.5876
  150SAPE  C21616542   4.654   4.526   5.845 -0.7527 -0.0999  0.3634
  150SAPE  H16R16543   4.602   4.573   5.759  0.8915  0.5174 -0.3511
  150SAPE  H16S16544   4.594   4.435   5.868 -1.2725  0.0346 -0.4228
  150SAPE  C21716545   4.800   4.504   5.794  0.5789  0.0338 -0.2189
  150SAPE  H17R16546   4.867   4.477   5.878  1.5383  0.1201 -0.9509
  150SAPE  H17S16547   4.834   4.600   5.750 -1.1881  0.7177 -0.1659
  150SAPE  C21816548   4.816   4.390   5.690  0.2310  0.1392 -0.5639
  150SAPE  H18R16549   4.785   4.290   5.728  0.3299  0.9027  1.6702
  150SAPE  H18S16550   4.926   4.381   5.673 -0.0710 -0.5799 -2.3325
  150SAPE  C21916551   4.763   4.412   5.549 -0.1261  0.8240  0.3268
  150SAPE  H19R16552   4.826   4.485   5.494 -1.5264  1.6532 -0.2520
  150SAPE  H19S16553   4.662   4.457   5.539 -0.2806  0.2313 -1.0759
  150SAPE  C22016554   4.778   4.290   5.449  0.3248  0.2122 -0.0446
  150SAPE  H20R16555   4.885   4.275   5.422 -0.5656 -1.6510 -2.9130
  150SAPE  H20S16556   4.731   4.316   5.352 -0.5560  1.2289  0.6238
  150SAPE  H20T16557   4.728   4.200   5.491  0.7181 -0.6050 -1.2673
  150SAPE   C3316558   5.249   4.163   6.952  0.3707 -0.7402 -0.2707
  150SAPE   H3X16559   5.179   4.238   6.995  0.7345  0.0123 -0.9864
  150SAPE   H3Y16560   5.178   4.084   6.919 -0.9647  0.2652  0.1192
  150SAPE   C3416561   5.313   4.220   6.828  0.3307 -0.0982 -0.2631
  150SAPE   H4X16562   5.382   4.143   6.788 -1.0523 -0.2747 -2.4465
  150SAPE   H4Y16563   5.373   4.308   6.858 -0.2564 -0.5791  2.5898
  150SAPE   C3516564   5.213   4.241   6.709  0.2005  0.1743  0.3328
  150SAPE   H5X16565   5.154   4.335   6.716  0.7135  0.4270  1.5935
  150SAPE   H5Y16566   5.138   4.159   6.714 -0.4089  0.6907 -0.2014
  150SAPE   C3616567   5.282   4.222   6.574  0.0207  0.0552 -0.1187
  150SAPE   H6X16568   5.308   4.115   6.559  1.0859  0.5324 -2.0717
  150SAPE   H6Y16569   5.382   4.270   6.579 -0.1864  0.6860 -1.5568
  150SAPE   C3716570   5.203   4.287   6.463  0.0571  0.2088  0.3704
  150SAPE   H7X16571   5.167   4.389   6.486  1.3130  0.7911 -0.1651
  150SAPE   H7Y16572   5.118   4.216   6.449 -0.7878  0.8494  1.9391
  150SAPE   C3816573   5.285   4.288   6.332  0.1996 -0.2332 -0.4348
  150SAPE   H8X16574   5.318   4.189   6.292  4.0189  0.4790  0.5730
  150SAPE   H8Y16575   5.385   4.330   6.351  0.5036 -2.2199  3.2821
  150SAPE   C3916576   5.214   4.361   6.223 -0.1960 -0.8212 -0.0362
  150SAPE   H9X16577   5.195   4.467   6.251 -0.7413 -0.4888 -1.5388
  150SAPE   H9Y16578   5.111   4.322   6.209 -0.4870 -1.3100  2.9034
  150SAPE  C31016579   5.279   4.359   6.084  0.8636  0.4303  0.3396
  150SAPE  H10X16580   5.278   4.257   6.039  1.0993  1.2624 -1.6508
  150SAPE  H10Y16581   5.387   4.381   6.092  0.7744  0.7261  0.7203
  150SAPE  C31116582   5.204   4.452   5.983 -0.1681 -0.2473  0.5354
  150SAPE  H11X16583   5.230   4.556   6.013  1.0929 -0.2842 -0.3405
  150SAPE  H11Y16584   5.095   4.432   5.987 -0.2315  0.1651  0.9908
  150SAPE  C31216585   5.284   4.444   5.849  1.1292 -0.5073 -0.3932
  150SAPE  H12X16586   5.312   4.338   5.827  0.8350 -0.8337  0.7408
  150SAPE  H12Y16587   5.383   4.492   5.863  0.5664 -0.0120  2.5453
  150SAPE  C31316588   5.189   4.501   5.744 -0.0396  0.2945  0.1796
  150SAPE  H13X16589   5.160   4.601   5.784 -0.3250 -0.1120  1.0189
  150SAPE  H13Y16590   5.094   4.445   5.759 -0.7521  1.5627  0.5065
  150SAPE  C31416591   5.247   4.504   5.604  0.4849  0.2175  0.8873
  150SAPE  H14X16592   5.252   4.399   5.569  1.3520  0.1831  1.1025
  150SAPE  H14Y16593   5.351   4.539   5.619  0.3315  0.1152  2.3434
  150SAPE  C31516594   5.175   4.602   5.510  0.1917  0.2057 -0.2555
  150SAPE  H15X16595   5.203   4.699   5.556 -1.5793 -0.8144  3.3104
  150SAPE  H15Y16596   5.065   4.600   5.528  0.4071  1.6401  1.4704
  150SAPE  C31616597   5.213   4.597   5.364  0.5268 -0.3997 -0.0474
  150SAPE  H16X16598   5.180   4.497   5.326 -0.3718 -0.4951  0.9311
  150SAPE  H16Y16599   5.323   4.600   5.349  0.2424 -0.9318 -2.8358
  150SAPE  C31716600   5.141   4.708   5.288  0.3012 -0.5546  0.0151
  150SAPE  H17X16601   5.179   4.701   5.184  2.2630  0.3704  0.6098
  150SAPE  H17Y16602   5.180   4.807   5.322  1.7278 -0.6659 -1.1982
  150SAPE  C31816603   4.991   4.694   5.288  0.5456  0.0315  0.2512
  150SAPE  H18X16604   4.965   4.593   5.249 -0.2093  0.5161 -0.5138
  150SAPE  H18Y16605   4.939   4.779   5.240  1.4581  0.0688 -0.7052
  150SAPE  H18Z16606   4.944   4.695   5.388  1.4386 -0.8114  0.6994
  151SAPE     N16607   3.014   2.499   7.700  0.2577 -0.3864  0.0877
  151SAPE   HN116608   2.985   2.554   7.617 -0.4548 -0.9593 -0.0497
  151SAPE   HN216609   2.924   2.479   7.748  0.9102  0.2065  1.6252
  151SAPE   HN316610   3.077   2.548   7.767 -1.4662 -0.1302  1.5672
  151SAPE   C1216611   3.086   2.374   7.654  0.6190 -0.0439 -0.1268
  151SAPE  H12A16612   3.036   2.308   7.581  2.0600 -0.0806 -1.1121
  151SAPE  H12B16613   3.103   2.312   7.744 -0.2984 -1.6906 -1.0324
  151SAPE   C1116614   3.220   2.411   7.589 -0.0039 -0.7300  0.1895
  151SAPE  H11A16615   3.273   2.316   7.569 -0.0141 -0.3073 -2.1029
  151SAPE  H11B16616   3.280   2.466   7.664  1.6237 -0.9114 -0.9373
  151SAPE     P16617   3.180   2.412   7.331 -0.2814  0.4880  0.1648
  151SAPE   O1316618   3.294   2.322   7.303 -0.7959 -0.0121 -0.2689
  151SAPE   O1416619   3.043   2.351   7.324  0.9482 -0.1687 -0.2088
  151SAPE   O1216620   3.189   2.487   7.472 -0.1820  0.0557  0.7054
  151SAPE   O1116621   3.183   2.540   7.234  0.1954  0.2423  0.0362
  151SAPE    C116622   3.077   2.564   7.135  0.0401  0.0405 -0.1044
  151SAPE    HA16623   2.980   2.531   7.178 -0.3752  1.5571  0.1808
  151SAPE    HB16624   3.070   2.673   7.115  0.9653 -0.2064 -1.9979
  151SAPE    C216625   3.094   2.489   7.002  0.5041  0.4482  0.4920
  151SAPE    HS16626   3.098   2.380   7.022 -0.7798  0.6225  1.8705
  151SAPE   O2116627   3.212   2.548   6.938  0.0449 -0.0358  0.6399
  151SAPE   C2116628   3.270   2.496   6.839 -0.0931 -0.7669 -0.7252
  151SAPE   O2216629   3.242   2.397   6.776 -0.2143  0.0438 -0.5306
  151SAPE   C2216630   3.400   2.574   6.805  0.4120  0.2500 -0.0891
  151SAPE   H2R16631   3.398   2.669   6.863  1.0051  3.3453 -4.5632
  151SAPE   H2S16632   3.488   2.513   6.835 -0.5307 -0.5961  1.0416
  151SAPE    C316633   2.970   2.505   6.909 -0.0291 -0.4704  0.5624
  151SAPE    HX16634   2.989   2.434   6.825  0.9751  0.0051  0.3792
  151SAPE    HY16635   2.987   2.610   6.878  3.0653 -0.6855  1.1759
  151SAPE   O3116636   2.849   2.474   6.973  0.7302  0.0584  0.2011
  151SAPE   C3116637   2.744   2.508   6.890 -0.4563  0.3382  0.2661
  151SAPE   O3216638   2.748   2.586   6.799  0.4966  0.3174  0.5557
  151SAPE   C3216639   2.614   2.454   6.940  0.6468  0.2374  0.5758
  151SAPE   H2X16640   2.573   2.521   7.019 -1.3056  0.6838 -0.7409
  151SAPE   H2Y16641   2.641   2.357   6.986 -1.5699  0.0341  1.5797
  151SAPE   C2316642   3.415   2.609   6.657 -0.1605  0.4670 -0.1373
  151SAPE   H3R16643   3.315   2.642   6.620  0.9111  3.9866 -0.2947
  151SAPE   H3S16644   3.456   2.529   6.591 -1.8254  0.0042 -0.6627
  151SAPE   C2416645   3.486   2.738   6.638  0.0978  0.3588  0.6375
  151SAPE   H4R16646   3.439   2.822   6.691 -0.6780 -1.0549  2.2819
  151SAPE   H4S16647   3.491   2.767   6.531  1.2691  2.1938  1.1583
  151SAPE   C2516648   3.627   2.732   6.692  0.2952  0.6933 -0.2378
  151SAPE   H5R16649   3.629   2.761   6.798  1.2312  0.7616 -0.2701
  151SAPE   C2616650   3.737   2.680   6.641 -0.2939 -0.7512  0.0758
  151SAPE   H6R16651   3.831   2.699   6.696 -0.7189  0.3114  0.4543
  151SAPE   C2716652   3.763   2.628   6.502 -0.5080  0.1297  0.3020
  151SAPE   H7R16653   3.834   2.693   6.446 -0.4365  3.0676  3.4306
  151SAPE   H7S16654   3.672   2.620   6.439  0.3744 -2.8064 -0.7678
  151SAPE   C2816655   3.818   2.486   6.514 -0.7039 -0.4378 -0.1982
  151SAPE   H8R16656   3.796   2.431   6.607  3.5959 -2.0695  0.0613
  151SAPE   C2916657   3.877   2.418   6.417 -0.1257 -0.3603 -0.3439
  151SAPE   H9R16658   3.888   2.309   6.434 -2.8011 -0.7062 -0.4643
  151SAPE  C21016659   3.920   2.477   6.281 -0.1526  0.4313 -0.0905
  151SAPE  H10R16660   4.021   2.432   6.270 -0.5051 -0.0100 -1.7017
  151SAPE  H10S16661   3.923   2.588   6.281  0.6873  0.4952 -3.1452
  151SAPE  C21116662   3.820   2.435   6.177  0.3642  0.1225  0.3687
  151SAPE  H11R16663   3.713   2.454   6.196  0.7378  2.6764  0.2008
  151SAPE  C21216664   3.846   2.390   6.053 -0.1396 -0.3482  1.1057
  151SAPE  H12R16665   3.757   2.363   5.994 -0.8704  2.0855  1.0074
  151SAPE  C21316666   3.984   2.364   5.995  0.3689  0.4593 -0.6287
  151SAPE  H13R16667   3.976   2.286   5.916 -2.4212 -0.0243  0.0223
  151SAPE  H13S16668   4.046   2.321   6.076  0.5082  1.1944 -0.3320
  151SAPE  C21416669   4.053   2.490   5.951 -0.0207 -0.8951  0.2988
  151SAPE  H14R16670   3.997   2.582   5.972 -0.0647 -0.1470 -2.6740
  151SAPE  C21516671   4.177   2.490   5.891  0.5094 -0.2186  0.7618
  151SAPE  H15R16672   4.225   2.586   5.868  0.0872  0.2679  1.8544
  151SAPE  C21616673   4.258   2.371   5.850 -0.4216 -0.5267 -0.4952
  151SAPE  H16R16674   4.273   2.361   5.740  0.4848  2.1785 -0.6967
  151SAPE  H16S16675   4.223   2.269   5.878  2.5190 -1.1962  1.1674
  151SAPE  C21716676   4.397   2.388   5.902  0.3635  0.2354 -0.8309
  151SAPE  H17R16677   4.433   2.488   5.870 -1.4763  0.7060 -1.5402
  151SAPE  H17S16678   4.478   2.321   5.867  2.8368  1.4086  2.1489
  151SAPE  C21816679   4.399   2.382   6.060 -0.2132 -0.4382 -0.2014
  151SAPE  H18R16680   4.417   2.273   6.070 -0.5073 -0.5958 -1.2740
  151SAPE  H18S16681   4.301   2.416   6.101  0.7306  0.5130  1.3958
  151SAPE  C21916682   4.522   2.446   6.130  0.0278 -0.6707 -0.2110
  151SAPE  H19R16683   4.527   2.554   6.102  4.5859  0.5176  3.8281
  151SAPE  H19S16684   4.618   2.407   6.091 -0.5269 -1.3460 -0.9400
  151SAPE  C22016685   4.521   2.444   6.287 -0.4511  0.3395 -0.2716
  151SAPE  H20R16686   4.608   2.502   6.324  0.0518  0.1726 -1.1771
  151SAPE  H20S16687   4.531   2.334   6.299 -0.6379  0.3118 -0.3742
  151SAPE  H20T16688   4.423   2.462   6.337 -0.8871 -0.3338 -0.8736
  151SAPE   C3316689   2.507   2.444   6.830 -0.7022  0.7113 -0.2126
  151SAPE   H3X16690   2.556   2.398   6.742  0.2997 -0.3911  0.8765
  151SAPE   H3Y16691   2.480   2.549   6.805 -1.0974  0.8758  0.8552
  151SAPE   C3416692   2.376   2.373   6.885  0.1281 -0.5891  0.1866
  151SAPE   H4X16693   2.336   2.435   6.967  0.8639  0.1162  0.0248
  151SAPE   H4Y16694   2.409   2.275   6.924  2.3701  0.2518  0.5332
  151SAPE   C3516695   2.267   2.360   6.782 -0.0882  0.5522  0.6874
  151SAPE   H5X16696   2.234   2.462   6.754 -0.5081  0.8686  2.2211
  151SAPE   H5Y16697   2.173   2.318   6.822 -1.4155  2.8524  0.1445
  151SAPE   C3616698   2.309   2.279   6.656 -0.0543  0.4593 -0.2340
  151SAPE   H6X16699   2.239   2.193   6.646  0.4152  0.0999 -0.4126
  151SAPE   H6Y16700   2.410   2.240   6.677 -0.6678 -0.7605  0.5734
  151SAPE   C3716701   2.295   2.344   6.526 -0.7236  0.0834  0.9924
  151SAPE   H7X16702   2.376   2.419   6.525 -0.3096 -0.3578  0.7649
  151SAPE   H7Y16703   2.200   2.399   6.509  0.2907  0.9377 -2.9940
  151SAPE   C3816704   2.308   2.239   6.414  0.0440 -0.4850  0.2757
  151SAPE   H8X16705   2.214   2.180   6.416 -1.9536  2.4544  2.1097
  151SAPE   H8Y16706   2.393   2.168   6.426  0.9188  0.3484 -0.7264
  151SAPE   C3916707   2.309   2.311   6.273  0.6350 -0.7186 -0.3701
  151SAPE   H9X16708   2.395   2.381   6.274 -0.1283  0.2443  1.4680
  151SAPE   H9Y16709   2.214   2.367   6.261  1.6774  1.0439 -0.6174
  151SAPE  C31016710   2.333   2.218   6.151  0.6683  0.4525 -0.3413
  151SAPE  H10X16711   2.252   2.143   6.146  0.7368  0.3936 -0.5386
  151SAPE  H10Y16712   2.433   2.171   6.164  0.8311  0.9798  0.4185
  151SAPE  C31116713   2.330   2.290   6.011 -0.4916 -0.7190  0.8048
  151SAPE  H11X16714   2.416   2.360   6.007 -1.1995  0.1248 -0.4764
  151SAPE  H11Y16715   2.243   2.358   6.017  1.6001  2.0823  1.4427
  151SAPE  C31216716   2.316   2.189   5.902  0.7273 -0.0313 -0.4351
  151SAPE  H12X16717   2.231   2.119   5.917 -0.9178  1.2167 -3.1877
  151SAPE  H12Y16718   2.409   2.130   5.883  1.0385  1.3278 -3.8194
  151SAPE  C31316719   2.275   2.265   5.771  0.4948 -0.6203 -0.2327
  151SAPE  H13X16720   2.287   2.192   5.687 -0.4690  0.0369 -0.9657
  151SAPE  H13Y16721   2.347   2.342   5.734 -0.7410  0.1454 -1.1253
  151SAPE  C31416722   2.134   2.326   5.774  0.4456  0.1398 -0.6762
  151SAPE  H14X16723   2.144   2.405   5.851  2.3667 -1.0992  0.4463
  151SAPE  H14Y16724   2.062   2.265   5.833  0.3981  2.0758  1.3789
  151SAPE  C31516725   2.090   2.367   5.640 -0.5124  0.3499  0.0073
  151SAPE  H15X16726   2.086   2.278   5.573 -0.9139  1.0192 -0.8948
  151SAPE  H15Y16727   2.166   2.434   5.594 -0.4387  0.1423 -0.1816
  151SAPE  C31616728   1.958   2.443   5.631  0.3442  0.7483  0.1119
  151SAPE  H16X16729   1.939   2.475   5.526 -1.0011  2.4610  0.8262
  151SAPE  H16Y16730   1.961   2.534   5.695  3.0561 -0.0112  1.1671
  151SAPE  C31716731   1.840   2.351   5.671 -0.5546 -0.0683 -0.2778
  151SAPE  H17X16732   1.869   2.245   5.693 -1.3831 -0.7930 -2.4763
  151SAPE  H17Y16733   1.774   2.339   5.583 -1.5689 -1.1424  0.5850
  151SAPE  C31816734   1.747   2.404   5.782 -0.5529 -0.6506  0.5985
  151SAPE  H18X16735   1.749   2.515   5.785 -0.1222 -0.6357  0.0094
  151SAPE  H18Y16736   1.786   2.378   5.883 -0.0981 -1.4938  0.2132
  151SAPE  H18Z16737   1.643   2.368   5.772 -0.3045 -0.6927 -3.3983
  152SAPE     N16738   0.304   2.953   7.803  0.1354 -0.6083  0.2979
  152SAPE   HN116739   0.306   3.050   7.840  2.8694 -0.9437  1.2734
  152SAPE   HN216740   0.372   2.898   7.859 -1.3574 -1.3774  1.4287
  152SAPE   HN316741   0.342   2.956   7.706  0.8311 -0.7985  0.5551
  152SAPE   C1216742   0.165   2.902   7.812 -0.5354  0.1413 -0.9186
  152SAPE  H12A16743   0.170   2.801   7.767 -0.7831 -0.2996  0.0346
  152SAPE  H12B16744   0.095   2.963   7.751 -0.0425 -0.2906 -1.9528
  152SAPE   C1116745   0.127   2.900   7.963  0.6701  0.3172  0.6258
  152SAPE  H11A16746   0.191   2.845   8.035 -0.3295 -0.5749  0.8523
  152SAPE  H11B16747   0.035   2.840   7.972 -0.6192  2.3181  1.5583
  152SAPE     P16748  -0.024   3.111   8.006  0.1382 -0.2816 -0.2348
  152SAPE   O1316749  -0.128   3.016   8.053 -0.3164 -0.3130 -0.3626
  152SAPE   O1416750  -0.005   3.237   8.082  0.3322  0.5884  0.1046
  152SAPE   O1216751   0.110   3.033   8.005 -0.3494 -0.2965 -0.3227
  152SAPE   O1116752  -0.055   3.139   7.855 -0.1061  0.0127  0.5231
  152SAPE    C116753   0.026   3.234   7.781  0.4934  0.4993 -0.4474
  152SAPE    HA16754   0.011   3.338   7.819  4.2762  0.6839  1.0043
  152SAPE    HB16755   0.134   3.210   7.794  0.5038  0.8923  0.2669
  152SAPE    C216756  -0.018   3.243   7.630 -0.0701 -0.0638  0.0192
  152SAPE    HS16757  -0.129   3.238   7.623 -0.1754  2.4290 -0.7833
  152SAPE   O2116758   0.052   3.130   7.560  0.6578  0.0822 -0.3907
  152SAPE   C2116759  -0.030   3.069   7.465 -0.0207  0.1693 -0.3516
  152SAPE   O2216760  -0.147   3.101   7.447  0.0858 -0.4402  0.2438
  152SAPE   C2216761   0.042   2.956   7.399 -0.2605  0.0891 -0.0821
  152SAPE   H2R16762   0.124   2.932   7.470 -0.8974 -0.5646  0.4380
  152SAPE   H2S16763  -0.021   2.868   7.376  1.0836 -1.2127  0.9894
  152SAPE    C316764   0.025   3.382   7.566 -0.0308 -0.5638  0.7385
  152SAPE    HX16765   0.127   3.414   7.595 -0.4843  0.6153  1.0783
  152SAPE    HY16766  -0.037   3.462   7.612  0.8764  0.2517  0.5818
  152SAPE   O3116767   0.010   3.369   7.415 -0.4617  0.5160  0.0625
  152SAPE   C3116768  -0.104   3.417   7.363 -0.2633 -0.2466 -0.3225
  152SAPE   O3216769  -0.173   3.498   7.424 -0.7940  0.4264  0.0482
  152SAPE   C3216770  -0.126   3.358   7.220  0.0250 -0.5845 -0.1678
  152SAPE   H2X16771  -0.236   3.347   7.212 -0.5552  2.2068  2.1238
  152SAPE   H2Y16772  -0.072   3.261   7.225 -0.2258 -0.6757  0.9946
  152SAPE   C2316773   0.128   2.990   7.274 -0.2177  0.1700  0.5464
  152SAPE   H3R16774   0.198   2.904   7.265 -0.6248 -0.4125  2.4490
  152SAPE   H3S16775   0.189   3.082   7.290  0.3778  0.2960 -1.9481
  152SAPE   C2416776   0.054   2.998   7.137  0.7848  0.3591  0.0082
  152SAPE   H4R16777  -0.017   3.083   7.139  2.1056  1.5019  1.4777
  152SAPE   H4S16778  -0.016   2.912   7.133 -1.2310  1.9482 -0.8020
  152SAPE   C2516779   0.164   3.011   7.028  0.5910 -0.0421  0.2687
  152SAPE   H5R16780   0.239   3.088   7.051  0.9969  0.0775 -1.2960
  152SAPE   C2616781   0.181   2.949   6.908 -0.5589  0.1511 -0.2785
  152SAPE   H6R16782   0.279   2.963   6.860 -0.1174 -1.9820 -0.1047
  152SAPE   C2716783   0.099   2.838   6.855  0.4696 -0.2353  0.1046
  152SAPE   H7R16784   0.021   2.882   6.789  0.9841 -1.0127 -1.0542
  152SAPE   H7S16785   0.046   2.783   6.936  3.0693  0.1706  2.2212
  152SAPE   C2816786   0.167   2.733   6.779 -0.4240  0.3735  0.0466
  152SAPE   H8R16787   0.221   2.659   6.840  0.8698  0.3117 -1.1311
  152SAPE   C2916788   0.177   2.727   6.649  0.0600 -0.3157  0.0757
  152SAPE   H9R16789   0.237   2.645   6.607  1.1658  0.4235  0.1668
  152SAPE  C21016790   0.129   2.830   6.541  0.4543 -0.5665  0.7370
  152SAPE  H10R16791   0.206   2.868   6.471 -1.2440  0.6652 -0.5665
  152SAPE  H10S16792   0.086   2.914   6.599 -1.8106 -1.9387  1.1677
  152SAPE  C21116793   0.011   2.768   6.467 -0.4376  0.3586  0.4621
  152SAPE  H11R16794  -0.068   2.726   6.531 -1.1826  1.3836  0.2349
  152SAPE  C21216795  -0.019   2.777   6.337 -0.0403 -0.1514 -0.0604
  152SAPE  H12R16796  -0.106   2.723   6.297 -1.0187  1.1116  0.2943
  152SAPE  C21316797   0.052   2.854   6.229 -0.2103  0.0993 -1.5156
  152SAPE  H13R16798   0.094   2.804   6.139 -0.3842 -1.0988 -0.9551
  152SAPE  H13S16799   0.135   2.919   6.264  0.0034 -1.5904  1.4798
  152SAPE  C21416800  -0.052   2.964   6.205  0.2025  0.0747 -0.1614
  152SAPE  H14R16801  -0.071   3.026   6.293 -0.4353  0.6876 -0.7203
  152SAPE  C21516802  -0.104   3.002   6.085  0.1296  0.2201  0.5355
  152SAPE  H15R16803  -0.177   3.084   6.083 -0.1185 -0.0094 -0.0758
  152SAPE  C21616804  -0.078   2.934   5.953  0.7516  0.2954  0.5879
  152SAPE  H16R16805  -0.078   2.824   5.964 -1.6211  0.3309  1.3797
  152SAPE  H16S16806   0.023   2.964   5.918  0.5576  1.9050  1.2996
  152SAPE  C21716807  -0.189   2.967   5.858 -0.1805 -0.7802 -0.2347
  152SAPE  H17R16808  -0.197   3.078   5.855  3.1200 -0.3054  2.3166
  152SAPE  H17S16809  -0.281   2.912   5.886 -0.2224 -2.0826 -2.7340
  152SAPE  C21816810  -0.150   2.937   5.717 -0.1013  0.5243  0.4671
  152SAPE  H18R16811  -0.140   2.827   5.702 -0.5715  0.7267 -1.7540
  152SAPE  H18S16812  -0.051   2.984   5.704  0.9133 -1.2011  1.5327
  152SAPE  C21916813  -0.250   2.984   5.604  0.6304 -0.2758 -0.2435
  152SAPE  H19R16814  -0.189   2.985   5.511  0.0358 -0.1872 -0.6338
  152SAPE  H19S16815  -0.274   3.089   5.632 -1.3083  0.0503 -2.7994
  152SAPE  C22016816  -0.368   2.902   5.596  0.1864  0.7990  0.3732
  152SAPE  H20R16817  -0.452   2.943   5.535 -1.0933 -2.7698 -0.5361
  152SAPE  H20S16818  -0.403   2.861   5.693 -2.7054  2.3959  0.1147
  152SAPE  H20T16819  -0.353   2.806   5.541 -1.2185  0.0861  1.1557
  152SAPE   C3316820  -0.083   3.449   7.096 -0.4853  0.0671 -0.0469
  152SAPE   H3X16821   0.023   3.478   7.085 -0.9506  1.0719 -2.7037
  152SAPE   H3Y16822  -0.147   3.539   7.088  0.0565  0.5607  0.9802
  152SAPE   C3416823  -0.108   3.377   6.966 -0.0024 -0.6322  0.5721
  152SAPE   H4X16824  -0.213   3.342   6.960  0.1150 -0.9801  0.4985
  152SAPE   H4Y16825  -0.038   3.294   6.942  0.5661  0.8092 -3.3805
  152SAPE   C3516826  -0.073   3.469   6.848  0.4059 -0.0070 -0.5459
  152SAPE   H5X16827   0.030   3.507   6.866  0.8630 -0.1436 -2.6442
  152SAPE   H5Y16828  -0.150   3.549   6.847  0.6721  0.4329  2.7605
  152SAPE   C3616829  -0.089   3.405   6.714  0.1592 -0.1837 -0.4274
  152SAPE   H6X16830  -0.194   3.420   6.681 -0.7734 -1.4566  1.7302
  152SAPE   H6Y16831  -0.072   3.295   6.715 -0.9965 -0.3859  1.2298
  152SAPE   C3716832   0.010   3.475   6.613 -0.1089 -0.7698  0.1928
  152SAPE   H7X16833   0.111   3.429   6.608  0.5765  0.6288  0.5671
  152SAPE   H7Y16834   0.033   3.577   6.650 -2.8540 -0.0449  0.0919
  152SAPE   C3816835  -0.036   3.481   6.461 -0.3349 -0.2750  0.2131
  152SAPE   H8X16836   0.029   3.550   6.402  0.6332 -1.1608  0.2340
  152SAPE   H8Y16837  -0.130   3.541   6.456  0.9254  1.7738 -0.4156
  152SAPE   C3916838  -0.082   3.349   6.407  0.2102 -0.6791  0.0352
  152SAPE   H9X16839  -0.154   3.301   6.478 -0.2395 -0.6382 -0.3859
  152SAPE   H9Y16840   0.001   3.276   6.397  1.4948  0.7084  0.3726
  152SAPE  C31016841  -0.151   3.371   6.274  0.1959  0.2724  0.4070
  152SAPE  H10X16842  -0.223   3.456   6.277  1.9504  1.8918 -0.7489
  152SAPE  H10Y16843  -0.196   3.273   6.246  2.3960 -0.6610 -0.0353
  152SAPE  C31116844  -0.050   3.401   6.163  0.3966 -0.6774 -0.4682
  152SAPE  H11X16845   0.031   3.328   6.186  1.3204  0.5683  0.2924
  152SAPE  H11Y16846  -0.018   3.507   6.169  1.1126 -0.9411  0.5704
  152SAPE  C31216847  -0.108   3.364   6.021 -0.5883 -0.7602  0.1917
  152SAPE  H12X16848  -0.205   3.414   6.002 -0.3469  0.9093  2.8395
  152SAPE  H12Y16849  -0.125   3.255   6.011 -0.2384 -0.5988 -3.4243
  152SAPE  C31316850  -0.004   3.391   5.906  0.6756  0.4389 -0.4070
  152SAPE  H13X16851   0.092   3.345   5.939 -0.8378 -0.9658  2.4233
  152SAPE  H13Y16852   0.013   3.501   5.907 -2.3032  0.9984 -2.0033
  152SAPE  C31416853  -0.054   3.356   5.759  0.2483 -0.5956 -0.0871
  152SAPE  H14X16854  -0.139   3.428   5.753  0.1698 -0.5407  1.3928
  152SAPE  H14Y16855  -0.075   3.248   5.746 -0.9415 -0.4983  0.8600
  152SAPE  C31516856   0.045   3.407   5.644  0.0117 -0.4978  0.2263
  152SAPE  H15X16857   0.142   3.354   5.630  0.1676  0.2323 -1.7976
  152SAPE  H15Y16858   0.075   3.511   5.668  2.6567 -1.3198  0.9260
  152SAPE  C31616859  -0.020   3.423   5.509  0.0731  0.2042 -0.1053
  152SAPE  H16X16860   0.020   3.514   5.459  1.6943  1.1091  2.6085
  152SAPE  H16Y16861  -0.129   3.437   5.521  0.0359 -0.8295  0.9328
  152SAPE  C31716862  -0.011   3.295   5.429 -0.7308  0.7658 -0.1865
  152SAPE  H17X16863  -0.115   3.274   5.397 -0.8406 -2.3544  1.7735
  152SAPE  H17Y16864   0.029   3.220   5.501  0.1072  1.7628  0.4307
  152SAPE  C31816865   0.080   3.308   5.309 -0.5244 -0.9461 -0.3130
  152SAPE  H18X16866   0.102   3.207   5.267 -0.7300 -0.4724 -1.6135
  152SAPE  H18Y16867   0.179   3.353   5.335 -1.1271  0.4205 -0.2878
  152SAPE  H18Z16868   0.029   3.359   5.225 -1.5102 -0.5042  0.5333
  153SAPE     N16869   6.486   3.731   7.519  0.3857 -0.1830 -0.6199
  153SAPE   HN116870   6.431   3.703   7.436 -3.7543  1.4494  1.2690
  153SAPE   HN216871   6.586   3.750   7.500  1.1430 -2.4749  0.6530
  153SAPE   HN316872   6.486   3.648   7.583 -2.2360  1.9934  2.5756
  153SAPE   C1216873   6.422   3.850   7.594  0.3859  0.3626  0.1509
  153SAPE  H12A16874   6.433   3.937   7.526 -0.1649  1.0299  0.8950
  153SAPE  H12B16875   6.487   3.870   7.682  3.2117  1.9357 -2.0916
  153SAPE   C1116876   6.272   3.821   7.619  0.7110  0.7279 -0.3338
  153SAPE  H11A16877   6.224   3.780   7.527 -0.8052 -0.7528  1.0459
  153SAPE  H11B16878   6.210   3.911   7.640 -0.8731  0.0190 -1.7224
  153SAPE     P16879   6.252   3.567   7.698  0.2653  0.3148  0.3325
  153SAPE   O1316880   6.386   3.521   7.660 -0.7270  0.1684  0.3626
  153SAPE   O1416881   6.200   3.506   7.824  0.5659 -0.4837 -0.1720
  153SAPE   O1216882   6.262   3.728   7.726 -0.0032  0.2115 -0.6399
  153SAPE   O1116883   6.153   3.555   7.575 -0.5576  0.2732  0.0019
  153SAPE    C116884   6.018   3.605   7.587 -0.1335  0.1612  0.7096
  153SAPE    HA16885   5.967   3.528   7.649 -1.6878 -1.5132 -2.3888
  153SAPE    HB16886   6.009   3.700   7.643 -1.0102  1.4610 -1.5015
  153SAPE    C216887   5.941   3.609   7.453  0.3178 -0.0657 -0.1351
  153SAPE    HS16888   5.834   3.615   7.481  0.2728  1.3230 -0.5097
  153SAPE   O2116889   5.984   3.500   7.369 -0.0850 -0.1061 -0.6724
  153SAPE   C2116890   5.921   3.383   7.400 -0.1817  0.3951 -0.2660
  153SAPE   O2216891   5.832   3.377   7.486  0.1353  0.1719 -0.1943
  153SAPE   C2216892   5.978   3.270   7.315  0.4658 -0.0201 -0.5093
  153SAPE   H2R16893   6.044   3.311   7.236 -0.6685 -0.2177 -1.5950
  153SAPE   H2S16894   6.022   3.197   7.387  0.9497 -0.7826 -1.5461
  153SAPE    C316895   5.964   3.739   7.378  0.4734 -0.2764  0.3029
  153SAPE    HX16896   6.066   3.719   7.339  0.7652 -1.7986  1.7340
  153SAPE    HY16897   5.974   3.825   7.449  2.3629 -0.3847  0.2251
  153SAPE   O3116898   5.875   3.763   7.265 -0.4028  0.0419 -0.0426
  153SAPE   C3116899   5.904   3.875   7.209  0.2788  0.6632 -0.0595
  153SAPE   O3216900   6.002   3.947   7.230  0.0067 -0.0890 -0.4916
  153SAPE   C3216901   5.805   3.905   7.090  0.4281  0.2813 -0.1307
  153SAPE   H2X16902   5.753   3.998   7.122 -0.2983  0.0210 -0.5395
  153SAPE   H2Y16903   5.739   3.816   7.082  0.3125  0.1489  1.8064
  153SAPE   C2316904   5.857   3.199   7.244 -0.6709 -0.0442 -0.3447
  153SAPE   H3R16905   5.804   3.141   7.322  0.9312  0.0081  0.8567
  153SAPE   H3S16906   5.894   3.120   7.176  0.5881 -0.5337  0.8669
  153SAPE   C2416907   5.762   3.276   7.159  0.0756 -0.0728 -0.4611
  153SAPE   H4R16908   5.699   3.333   7.231  2.1712  2.0558 -0.1856
  153SAPE   H4S16909   5.706   3.192   7.113  1.0734 -0.3054 -1.2680
  153SAPE   C2516910   5.836   3.368   7.072 -0.0209  0.3101 -0.4112
  153SAPE   H5R16911   5.901   3.438   7.126  1.9155  0.2733 -2.5127
  153SAPE   C2616912   5.836   3.364   6.932  0.1583 -0.9784 -0.3667
  153SAPE   H6R16913   5.906   3.426   6.874  1.2274 -1.7626  0.0379
  153SAPE   C2716914   5.748   3.274   6.859 -0.0781 -0.3265  0.2777
  153SAPE   H7R16915   5.664   3.333   6.818  1.1084  0.1478 -1.6023
  153SAPE   H7S16916   5.702   3.193   6.919 -2.1431 -0.2740 -1.1473
  153SAPE   C2816917   5.815   3.200   6.741 -0.0892  0.4093 -0.3750
  153SAPE   H8R16918   5.885   3.127   6.783  2.0513  1.8902 -1.1886
  153SAPE   C2916919   5.807   3.223   6.609 -0.6173 -0.7174  0.6982
  153SAPE   H9R16920   5.880   3.173   6.544  0.2765  1.8603 -0.4199
  153SAPE  C21016921   5.724   3.324   6.540 -0.4008  0.5312  0.0629
  153SAPE  H10R16922   5.776   3.373   6.454 -0.3763  0.5319  0.0778
  153SAPE  H10S16923   5.702   3.410   6.608 -3.4865 -0.7279  0.7910
  153SAPE  C21116924   5.593   3.268   6.494 -0.9057 -0.4524 -0.3668
  153SAPE  H11R16925   5.537   3.225   6.578  3.1534 -2.7028  1.4615
  153SAPE  C21216926   5.534   3.289   6.378  0.3320 -0.2975 -0.2991
  153SAPE  H12R16927   5.432   3.250   6.362  0.0941  0.5078 -0.8023
  153SAPE  C21316928   5.587   3.367   6.262  0.1135  0.5957  0.5404
  153SAPE  H13R16929   5.644   3.453   6.304  0.3126  2.1045 -2.5869
  153SAPE  H13S16930   5.500   3.412   6.210  0.9468  1.5790 -0.0378
  153SAPE  C21416931   5.675   3.288   6.169 -0.2096  0.1068  0.0354
  153SAPE  H14R16932   5.770   3.343   6.161 -1.1439  1.8505  0.3615
  153SAPE  C21516933   5.660   3.188   6.083  0.7141 -0.4308 -0.1452
  153SAPE  H15R16934   5.743   3.156   6.020  0.6590  0.4269 -0.6756
  153SAPE  C21616935   5.535   3.108   6.070 -0.4099 -0.2833  0.3983
  153SAPE  H16R16936   5.525   3.067   6.172  3.1577 -1.5979  0.3714
  153SAPE  H16S16937   5.568   3.027   6.001  0.5117  3.1399 -3.6587
  153SAPE  C21716938   5.424   3.177   6.009 -0.0956  0.5467 -0.0575
  153SAPE  H17R16939   5.400   3.278   6.050  2.1572  0.9234  0.4462
  153SAPE  H17S16940   5.332   3.115   6.019 -0.0902  0.0459 -2.5802
  153SAPE  C21816941   5.435   3.188   5.853 -0.4708  0.5712 -0.5449
  153SAPE  H18R16942   5.527   3.246   5.831 -1.7709  3.7031  1.4906
  153SAPE  H18S16943   5.359   3.253   5.804  0.5526  1.5318 -0.9210
  153SAPE  C21916944   5.443   3.050   5.771 -0.3405 -0.2768 -0.1260
  153SAPE  H19R16945   5.366   2.980   5.810  1.2727 -0.4192  3.1465
  153SAPE  H19S16946   5.538   3.000   5.798  1.2260  2.2094 -0.6574
  153SAPE  C22016947   5.432   3.080   5.616  0.1029  0.9655  0.1612
  153SAPE  H20R16948   5.485   3.171   5.583  0.6210  0.6775  0.1885
  153SAPE  H20S16949   5.323   3.090   5.595 -0.5676 -2.8155  1.0760
  153SAPE  H20T16950   5.463   2.984   5.570 -2.5258 -0.1414  0.5117
  153SAPE   C3316951   5.861   3.930   6.943  0.0402  0.1979 -0.2763
  153SAPE   H3X16952   5.868   3.837   6.882 -0.5761  0.5681 -0.9218
  153SAPE   H3Y16953   5.960   3.982   6.941  0.3294 -0.3121  0.2862
  153SAPE   C3416954   5.782   4.029   6.866  0.2885 -0.2741  0.6088
  153SAPE   H4X16955   5.800   4.128   6.912  1.4806  0.5714 -1.5266
  153SAPE   H4Y16956   5.676   3.998   6.869 -0.3641  1.4522 -1.8114
  153SAPE   C3516957   5.827   4.042   6.726  0.7595 -0.3789  0.3061
  153SAPE   H5X16958   5.884   3.951   6.699  3.1908  1.5167 -1.3922
  153SAPE   H5Y16959   5.901   4.124   6.723 -0.4793  0.7624 -0.3948
  153SAPE   C3616960   5.714   4.066   6.626 -0.3095  0.8843 -0.1392
  153SAPE   H6X16961   5.645   4.151   6.646 -1.2880 -0.1190  0.9100
  153SAPE   H6Y16962   5.640   3.983   6.631 -0.2014  0.7826 -0.2496
  153SAPE   C3716963   5.756   4.066   6.476  0.1878 -0.7699 -0.3919
  153SAPE   H7X16964   5.823   4.150   6.446 -0.5109 -1.3333 -3.9813
  153SAPE   H7Y16965   5.665   4.097   6.421 -0.4947 -0.9498  0.6231
  153SAPE   C3816966   5.786   3.934   6.411 -0.0941 -0.6534  0.5368
  153SAPE   H8X16967   5.705   3.858   6.423 -0.1267 -1.2591 -2.5355
  153SAPE   H8Y16968   5.879   3.897   6.457  0.6523 -1.7208 -1.6852
  153SAPE   C3916969   5.807   3.951   6.262 -0.2288 -0.2441 -0.1003
  153SAPE   H9X16970   5.899   4.009   6.240 -0.8595  0.3120 -1.3887
  153SAPE   H9Y16971   5.718   3.998   6.215  1.0954  1.6585 -0.8008
  153SAPE  C31016972   5.840   3.811   6.195  0.8291 -0.7585  0.2117
  153SAPE  H10X16973   5.744   3.756   6.194  0.5304 -0.2336 -0.3946
  153SAPE  H10Y16974   5.903   3.756   6.269 -1.3925 -2.9312  0.6056
  153SAPE  C31116975   5.912   3.820   6.061  0.6029 -0.1946 -0.5968
  153SAPE  H11X16976   6.018   3.854   6.065  0.1356  1.4983 -1.8190
  153SAPE  H11Y16977   5.859   3.894   5.997  2.0159 -0.6125 -2.3293
  153SAPE  C31216978   5.910   3.697   5.966  0.1749  0.2804  0.4005
  153SAPE  H12X16979   5.943   3.598   6.004 -2.2586 -1.1204 -0.9029
  153SAPE  H12Y16980   5.970   3.728   5.878  0.7025 -0.0876  0.6220
  153SAPE  C31316981   5.765   3.676   5.918  0.0175 -0.6978  0.5040
  153SAPE  H13X16982   5.733   3.774   5.879  3.0210 -0.0851 -0.7396
  153SAPE  H13Y16983   5.703   3.651   6.007  2.6182  0.4558  2.8159
  153SAPE  C31416984   5.747   3.566   5.813  0.0258 -0.3903  0.0996
  153SAPE  H14X16985   5.640   3.544   5.789  0.0460  0.5034 -0.8742
  153SAPE  H14Y16986   5.792   3.472   5.851  1.5525 -0.1471 -1.0526
  153SAPE  C31516987   5.827   3.595   5.687  0.3786  0.0278 -0.2956
  153SAPE  H15X16988   5.935   3.578   5.709  0.6128 -1.9287 -2.5826
  153SAPE  H15Y16989   5.812   3.700   5.653 -3.5485  0.0486  0.9902
  153SAPE  C31616990   5.785   3.493   5.576 -0.2908 -0.5914  0.0508
  153SAPE  H16X16991   5.854   3.498   5.489 -1.8081  0.8025 -1.1520
  153SAPE  H16Y16992   5.679   3.518   5.553 -0.6576 -2.1338 -0.0370
  153SAPE  C31716993   5.793   3.347   5.625 -0.2271  0.2638 -0.3007
  153SAPE  H17X16994   5.720   3.335   5.708 -0.9578 -3.0956 -1.2750
  153SAPE  H17Y16995   5.890   3.311   5.665  0.4346 -1.1564 -2.9567
  153SAPE  C31816996   5.745   3.249   5.520  0.0925 -0.5558  0.2694
  153SAPE  H18X16997   5.651   3.281   5.469  0.3740 -0.8319 -0.4507
  153SAPE  H18Y16998   5.739   3.147   5.563  0.4891 -0.6042  0.2157
  153SAPE  H18Z16999   5.825   3.232   5.445  1.5153  0.3422  1.5359
  154SAPE     N17000   3.205   1.872   7.161 -0.1222 -0.4437  0.0885
  154SAPE   HN117001   3.260   1.790   7.194 -0.2213 -0.8125 -0.6623
  154SAPE   HN217002   3.106   1.865   7.192  0.5230  0.4013  2.6018
  154SAPE   HN317003   3.209   1.888   7.059 -1.0249  0.9000  0.2309
  154SAPE   C1217004   3.282   1.982   7.224  0.4836 -0.3257 -0.1732
  154SAPE  H12A17005   3.261   1.980   7.333 -2.6471  0.0723 -0.6936
  154SAPE  H12B17006   3.245   2.080   7.189  0.0677 -0.6918 -0.7832
  154SAPE   C1117007   3.423   1.964   7.183 -0.2762 -0.0263  0.3753
  154SAPE  H11A17008   3.471   2.051   7.233 -2.8513  0.8163  1.5381
  154SAPE  H11B17009   3.446   1.978   7.075 -0.3841  0.8217  0.4538
  154SAPE     P17010   3.630   1.816   7.268 -0.5800  0.2838 -0.0390
  154SAPE   O1317011   3.684   1.930   7.347  0.4937  1.0761  0.2209
  154SAPE   O1417012   3.649   1.681   7.320 -0.2812 -0.1223 -0.2381
  154SAPE   O1217013   3.480   1.847   7.246 -0.1219  0.3174  0.0481
  154SAPE   O1117014   3.686   1.824   7.119 -0.3395  1.1009  0.7820
  154SAPE    C117015   3.722   1.694   7.059 -0.1782  0.2475 -0.2083
  154SAPE    HA17016   3.830   1.669   7.070 -0.6098 -0.8544  2.0998
  154SAPE    HB17017   3.663   1.609   7.100  2.1351 -0.9890  0.7450
  154SAPE    C217018   3.683   1.688   6.908 -1.0926 -0.7927 -0.6718
  154SAPE    HS17019   3.691   1.579   6.887 -0.9500 -1.3305  1.8736
  154SAPE   O2117020   3.773   1.771   6.830  0.3252  0.6001  0.2259
  154SAPE   C2117021   3.803   1.724   6.708  0.1278  0.2431 -0.1485
  154SAPE   O2217022   3.773   1.614   6.666  0.5826 -0.6364 -0.1828
  154SAPE   C2217023   3.901   1.826   6.634 -0.1114  0.1892 -0.0973
  154SAPE   H2R17024   3.842   1.919   6.616 -1.6761 -0.4128  1.6405
  154SAPE   H2S17025   3.991   1.851   6.694 -0.2876  2.3165 -0.6493
  154SAPE    C317026   3.529   1.724   6.892 -0.5159  0.5750  0.1794
  154SAPE    HX17027   3.513   1.828   6.927  0.7981  0.8603 -0.0024
  154SAPE    HY17028   3.469   1.651   6.949  0.5860 -0.6728 -0.1938
  154SAPE   O3117029   3.485   1.722   6.750 -0.2532 -0.1595 -0.0333
  154SAPE   C3117030   3.456   1.600   6.702  0.2903  0.3330 -0.6256
  154SAPE   O3217031   3.458   1.499   6.766  0.2229  0.2808 -0.6878
  154SAPE   C3217032   3.442   1.605   6.553  0.9044 -0.3600 -0.1760
  154SAPE   H2X17033   3.511   1.685   6.518  1.7413 -0.1612  1.7816
  154SAPE   H2Y17034   3.337   1.628   6.525  0.8846  1.5727  1.2687
  154SAPE   C2317035   3.942   1.773   6.499 -0.1853 -0.1317  0.5396
  154SAPE   H3R17036   3.996   1.676   6.512 -1.8421 -1.0751  0.6227
  154SAPE   H3S17037   4.013   1.845   6.453  1.2664  0.4504  3.4155
  154SAPE   C2417038   3.823   1.759   6.402 -0.6543  0.1725 -0.7926
  154SAPE   H4R17039   3.760   1.673   6.435  0.2059  0.1214  0.8050
  154SAPE   H4S17040   3.871   1.708   6.316 -0.3994 -0.5113 -0.2541
  154SAPE   C2517041   3.746   1.882   6.358  0.4101 -0.2618  0.5704
  154SAPE   H5R17042   3.686   1.922   6.441  0.8224 -3.0689  2.3271
  154SAPE   C2617043   3.741   1.934   6.238  0.3490  0.9748 -0.8220
  154SAPE   H6R17044   3.662   2.008   6.219 -0.6960 -0.3186 -1.7017
  154SAPE   C2717045   3.819   1.882   6.118 -0.4817 -0.1717 -0.0575
  154SAPE   H7R17046   3.906   1.827   6.160 -2.5694 -2.8754  0.9719
  154SAPE   H7S17047   3.850   1.967   6.053  0.9560 -1.9552 -1.8431
  154SAPE   C2817048   3.735   1.779   6.058 -0.1192  0.3255 -0.4509
  154SAPE   H8R17049   3.718   1.687   6.116  2.0189  0.0754 -0.1161
  154SAPE   C2917050   3.685   1.783   5.933  0.7782 -0.2662  0.0741
  154SAPE   H9R17051   3.625   1.698   5.897 -1.3138  0.8107  0.7993
  154SAPE  C21017052   3.684   1.897   5.840 -0.1551 -0.1478  0.1323
  154SAPE  H10R17053   3.785   1.943   5.847  0.3050 -1.2807  1.3103
  154SAPE  H10S17054   3.610   1.975   5.867  0.0222  0.8547 -2.0289
  154SAPE  C21117055   3.676   1.842   5.704  0.1999 -0.1234 -0.0920
  154SAPE  H11R17056   3.746   1.762   5.674 -0.1577 -0.2854 -0.5161
  154SAPE  C21217057   3.567   1.850   5.624  0.8376  0.2462 -0.2745
  154SAPE  H12R17058   3.559   1.788   5.533 -0.4597  3.7203 -2.7464
  154SAPE  C21317059   3.452   1.938   5.648 -0.8521  0.3676 -0.6383
  154SAPE  H13R17060   3.454   2.030   5.585 -3.9473  1.6877  0.9572
  154SAPE  H13S17061   3.446   1.973   5.754 -2.6853  0.7789 -0.8327
  154SAPE  C21417062   3.318   1.874   5.621  0.5746 -0.6695 -0.0105
  154SAPE  H14R17063   3.269   1.819   5.702 -0.8598  2.3957  1.3625
  154SAPE  C21517064   3.253   1.878   5.510  0.2205  0.0233  0.7128
  154SAPE  H15R17065   3.156   1.825   5.510  0.0057  0.3916  1.5411
  154SAPE  C21617066   3.282   1.943   5.373 -0.0684 -0.0309  0.5842
  154SAPE  H16R17067   3.257   1.883   5.283 -2.8722  1.0665  0.5461
  154SAPE  H16S17068   3.390   1.969   5.368  0.0071 -0.6513 -2.1922
  154SAPE  C21717069   3.192   2.064   5.350  0.2690 -0.5894  0.3520
  154SAPE  H17R17070   3.083   2.042   5.360 -0.4512  1.1105 -2.6336
  154SAPE  H17S17071   3.209   2.098   5.247  4.2855 -0.4372  0.9250
  154SAPE  C21817072   3.209   2.182   5.444  0.4996 -0.1476 -0.5250
  154SAPE  H18R17073   3.310   2.224   5.426  0.3971  0.3483  0.0264
  154SAPE  H18S17074   3.200   2.137   5.545  0.7371 -1.3204 -1.0041
  154SAPE  C21917075   3.113   2.295   5.434  0.3647 -0.4248 -0.6826
  154SAPE  H19R17076   3.132   2.376   5.507 -1.1030 -2.7317  2.4649
  154SAPE  H19S17077   3.010   2.257   5.449 -0.0216 -0.0166 -2.0904
  154SAPE  C22017078   3.107   2.341   5.291 -0.1525 -0.4455 -0.1395
  154SAPE  H20R17079   3.071   2.267   5.217 -0.7236  1.2101 -1.5894
  154SAPE  H20S17080   3.213   2.357   5.263  0.3400 -1.3605  1.0993
  154SAPE  H20T17081   3.039   2.429   5.282 -1.1464 -1.3982 -2.6388
  154SAPE   C3317082   3.482   1.466   6.503 -0.0896  0.1728 -0.5115
  154SAPE   H3X17083   3.425   1.382   6.549  0.6487 -0.7428 -1.2201
  154SAPE   H3Y17084   3.591   1.452   6.517 -0.3982 -0.2747  1.9944
  154SAPE   C3417085   3.438   1.445   6.355 -0.4238 -0.4007 -0.2845
  154SAPE   H4X17086   3.330   1.462   6.338 -0.4116 -0.0045  0.0033
  154SAPE   H4Y17087   3.448   1.336   6.339  1.7173 -0.1283 -1.0831
  154SAPE   C3517088   3.523   1.520   6.249  0.3688  0.1097  0.1243
  154SAPE   H5X17089   3.625   1.480   6.267  0.2815  0.8598  2.6651
  154SAPE   H5Y17090   3.508   1.624   6.286  0.2887  0.5010 -0.9499
  154SAPE   C3617091   3.479   1.494   6.099 -0.8201 -0.0055  0.6206
  154SAPE   H6X17092   3.451   1.388   6.081 -0.9501  0.1158  0.0952
  154SAPE   H6Y17093   3.564   1.509   6.028  0.8925  0.3852  2.6503
  154SAPE   C3717094   3.362   1.589   6.061  0.0789 -0.7963  0.0625
  154SAPE   H7X17095   3.410   1.687   6.040 -0.6824 -0.3875  0.1654
  154SAPE   H7Y17096   3.296   1.600   6.150  0.5763  0.0971  0.3301
  154SAPE   C3817097   3.266   1.546   5.947 -1.0459 -0.0554  0.6426
  154SAPE   H8X17098   3.186   1.620   5.925  0.5364  1.1723 -1.4920
  154SAPE   H8Y17099   3.213   1.455   5.982 -0.2773  0.1802  2.5612
  154SAPE   C3917100   3.344   1.539   5.811  0.0541 -0.1937  0.2346
  154SAPE   H9X17101   3.408   1.448   5.823 -3.2128 -2.4880  2.1537
  154SAPE   H9Y17102   3.410   1.627   5.795 -0.2028 -0.0423  0.0108
  154SAPE  C31017103   3.252   1.510   5.687 -0.1945 -0.7019 -0.2350
  154SAPE  H10X17104   3.207   1.602   5.644 -0.4044 -0.6942  0.0023
  154SAPE  H10Y17105   3.186   1.429   5.725  0.4600 -1.7264 -1.1910
  154SAPE  C31117106   3.316   1.433   5.576  0.4554 -0.1334  0.6046
  154SAPE  H11X17107   3.354   1.502   5.498 -2.6858 -0.4590 -1.4050
  154SAPE  H11Y17108   3.236   1.384   5.516  0.8653  1.2040 -1.0953
  154SAPE  C31217109   3.414   1.320   5.614  0.4512  0.0374  0.9679
  154SAPE  H12X17110   3.360   1.247   5.678  0.2636  0.6575  1.5234
  154SAPE  H12Y17111   3.496   1.361   5.676 -0.6838  0.5665  2.1618
  154SAPE  C31317112   3.460   1.248   5.484  0.8123 -0.3623 -0.4643
  154SAPE  H13X17113   3.532   1.326   5.451  2.6162 -1.1448  1.4087
  154SAPE  H13Y17114   3.379   1.230   5.410 -1.0918 -0.8973  1.6575
  154SAPE  C31417115   3.517   1.116   5.522 -0.1841  0.0471 -0.1086
  154SAPE  H14X17116   3.434   1.048   5.550 -0.9334  0.6330 -0.8562
  154SAPE  H14Y17117   3.577   1.125   5.614  0.6934 -0.3086 -0.6305
  154SAPE  C31517118   3.608   1.063   5.420  0.2546  0.0045 -0.7854
  154SAPE  H15X17119   3.645   1.143   5.352 -2.1650 -0.1232 -2.3473
  154SAPE  H15Y17120   3.556   0.996   5.349 -0.2923 -1.4162  0.8663
  154SAPE  C31617121   3.732   0.982   5.470  0.3887  0.1477 -0.3191
  154SAPE  H16X17122   3.707   0.875   5.460  1.7131 -0.2023 -0.0858
  154SAPE  H16Y17123   3.755   1.006   5.576 -0.5530  1.4690 -0.3845
  154SAPE  C31717124   3.859   1.001   5.391 -0.9255  0.9340  0.3519
  154SAPE  H17X17125   3.828   0.969   5.289  0.4731  1.5965 -0.3060
  154SAPE  H17Y17126   3.942   0.931   5.417 -2.0539 -1.2529 -1.5469
  154SAPE  C31817127   3.912   1.141   5.368 -0.3675 -0.3973 -0.2865
  154SAPE  H18X17128   3.832   1.216   5.354 -1.3854 -1.0124  1.7391
  154SAPE  H18Y17129   3.982   1.153   5.283  0.8394 -1.1749  0.5422
  154SAPE  H18Z17130   3.972   1.171   5.457 -2.3031 -1.2016  1.3822
  155SAPE     N17131   5.388   4.104   7.764 -0.3186 -0.9110 -0.3784
  155SAPE   HN117132   5.293   4.139   7.790  0.1364 -1.4109  2.3169
  155SAPE   HN217133   5.450   4.180   7.730  0.1354 -0.8145  0.6243
  155SAPE   HN317134   5.388   4.024   7.698  0.6005 -1.3911  0.1839
  155SAPE   C1217135   5.451   4.052   7.886 -0.3471  0.2605 -0.3931
  155SAPE  H12A17136   5.432   4.126   7.966 -0.7100  2.8057 -2.6878
  155SAPE  H12B17137   5.559   4.042   7.862 -0.4927  0.3668 -1.1149
  155SAPE   C1117138   5.390   3.918   7.924  1.0657  0.2315 -0.1854
  155SAPE  H11A17139   5.286   3.947   7.948  0.2457 -1.7830 -1.0768
  155SAPE  H11B17140   5.438   3.876   8.015  2.0483  1.0392 -0.3160
  155SAPE     P17141   5.414   3.666   7.845  0.2297 -0.0104  0.6803
  155SAPE   O1317142   5.540   3.618   7.781 -0.0352  0.1163 -0.5554
  155SAPE   O1417143   5.385   3.649   7.990  0.0692  0.5590 -0.1259
  155SAPE   O1217144   5.391   3.817   7.818  0.1663  0.0615 -0.2010
  155SAPE   O1117145   5.291   3.604   7.764  0.3797  0.1043 -0.1716
  155SAPE    C117146   5.282   3.464   7.723  0.3901 -0.7584  0.4700
  155SAPE    HA17147   5.383   3.419   7.735  0.4495 -0.9357 -0.6104
  155SAPE    HB17148   5.206   3.413   7.786 -2.4002  1.6675 -0.7171
  155SAPE    C217149   5.248   3.436   7.569 -0.2828 -0.8351  0.0349
  155SAPE    HS17150   5.278   3.336   7.532  2.7779  0.5124 -1.5611
  155SAPE   O2117151   5.322   3.531   7.498 -0.0647 -0.4589 -0.0771
  155SAPE   C2117152   5.451   3.514   7.483 -0.1793  0.1895  0.7845
  155SAPE   O2217153   5.506   3.408   7.510  0.3425 -0.1399 -0.3758
  155SAPE   C2217154   5.525   3.645   7.443  0.7745 -0.3698 -0.1305
  155SAPE   H2R17155   5.452   3.728   7.454  1.2488  1.3298 -6.0110
  155SAPE   H2S17156   5.595   3.668   7.526  1.5550  0.7827 -1.0708
  155SAPE    C317157   5.100   3.463   7.544  0.1778 -0.1575  0.2464
  155SAPE    HX17158   5.061   3.544   7.609  2.7344 -0.0930  1.8430
  155SAPE    HY17159   5.050   3.374   7.590  0.7469 -0.8615 -0.4700
  155SAPE   O3117160   5.070   3.484   7.397 -0.0162  0.1975 -0.1392
  155SAPE   C3117161   4.971   3.409   7.346  0.5601 -0.4312 -0.2314
  155SAPE   O3217162   4.902   3.326   7.402  0.1271 -0.3713 -0.0188
  155SAPE   C3217163   4.972   3.449   7.195  0.0226  0.2113 -0.3255
  155SAPE   H2X17164   5.077   3.432   7.162  0.3022 -0.2010  0.7567
  155SAPE   H2Y17165   4.938   3.555   7.191  1.0227  0.6925  2.1953
  155SAPE   C2317166   5.590   3.637   7.306  0.9244  0.0273  0.6068
  155SAPE   H3R17167   5.678   3.569   7.307 -1.0251 -2.6577  2.0878
  155SAPE   H3S17168   5.630   3.739   7.289  4.0923 -0.7525  2.3887
  155SAPE   C2417169   5.488   3.589   7.192  0.3519  0.9268  0.4027
  155SAPE   H4R17170   5.460   3.483   7.214  0.2979  1.0031  0.7040
  155SAPE   H4S17171   5.543   3.581   7.096 -0.6831  0.4696 -0.1715
  155SAPE   C2517172   5.360   3.674   7.187 -0.7415  0.3474 -1.0387
  155SAPE   H5R17173   5.292   3.676   7.274  1.3796 -1.3223  0.7738
  155SAPE   C2617174   5.304   3.730   7.082  1.0199 -0.7935  0.0897
  155SAPE   H6R17175   5.208   3.784   7.081  1.6840  0.4821  0.9066
  155SAPE   C2717176   5.361   3.731   6.942  0.1178 -0.5175  0.4133
  155SAPE   H7R17177   5.429   3.644   6.926 -2.1544 -2.5133  0.9583
  155SAPE   H7S17178   5.416   3.827   6.937 -2.3309  1.4276  4.7027
  155SAPE   C2817179   5.256   3.716   6.837 -0.1474  0.4890  0.5672
  155SAPE   H8R17180   5.163   3.661   6.857  0.4744 -1.0527 -0.6548
  155SAPE   C2917181   5.279   3.753   6.707 -0.2557 -0.3803  0.0960
  155SAPE   H9R17182   5.197   3.739   6.635  2.1010 -0.9886 -2.6583
  155SAPE  C21017183   5.399   3.819   6.651 -0.1252 -0.0899  1.1120
  155SAPE  H10R17184   5.455   3.865   6.735 -2.6774  4.0628  0.8110
  155SAPE  H10S17185   5.373   3.907   6.589 -0.9542 -0.1492  1.3730
  155SAPE  C21117186   5.473   3.713   6.565  0.1868 -0.4288  0.4792
  155SAPE  H11R17187   5.543   3.649   6.621 -1.1698 -2.9938 -0.5920
  155SAPE  C21217188   5.468   3.705   6.430 -0.1171  0.2954 -0.5959
  155SAPE  H12R17189   5.528   3.635   6.368  0.3582  1.3991 -1.4084
  155SAPE  C21317190   5.382   3.783   6.341  0.4356  0.2272 -0.5516
  155SAPE  H13R17191   5.281   3.786   6.389  0.4566 -2.5129 -0.2014
  155SAPE  H13S17192   5.357   3.738   6.242  2.3303  1.1276 -1.4912
  155SAPE  C21417193   5.430   3.917   6.316  0.2454 -0.1646  0.1661
  155SAPE  H14R17194   5.478   3.958   6.406  1.1864 -3.9111  1.5886
  155SAPE  C21517195   5.424   3.989   6.204 -0.1304  0.4782  0.8302
  155SAPE  H15R17196   5.464   4.091   6.196  0.6657  0.0353 -1.3980
  155SAPE  C21617197   5.361   3.931   6.084 -0.0671  0.7426 -0.2330
  155SAPE  H16R17198   5.312   4.009   6.021 -0.8151  0.5364  0.0773
  155SAPE  H16S17199   5.270   3.872   6.110  1.3225 -2.8907 -2.7808
  155SAPE  C21717200   5.463   3.856   5.995 -0.7279 -0.0162  0.4391
  155SAPE  H17R17201   5.519   3.795   6.069  3.7915  0.6884 -2.0567
  155SAPE  H17S17202   5.545   3.913   5.947 -0.5818 -0.5580  0.0309
  155SAPE  C21817203   5.419   3.765   5.885  0.0776  0.6033  0.6154
  155SAPE  H18R17204   5.328   3.714   5.922 -0.1860  1.0022  0.5243
  155SAPE  H18S17205   5.506   3.698   5.866 -0.1935  0.8146 -1.6056
  155SAPE  C21917206   5.390   3.842   5.761  0.0621 -0.2565 -0.2847
  155SAPE  H19R17207   5.471   3.914   5.736 -0.3386  0.6971  1.0804
  155SAPE  H19S17208   5.300   3.905   5.777 -1.3427 -2.4832  0.9689
  155SAPE  C22017209   5.351   3.760   5.638  0.8629  0.4177 -0.5143
  155SAPE  H20R17210   5.446   3.714   5.604  1.7086  0.9756  0.9578
  155SAPE  H20S17211   5.332   3.832   5.556  1.8774  3.1109  1.4494
  155SAPE  H20T17212   5.274   3.683   5.655 -0.0648  1.3602 -0.3501
  155SAPE   C3317213   4.875   3.356   7.118  0.0426  0.2446 -0.3046
  155SAPE   H3X17214   4.775   3.356   7.167 -0.8237 -4.3855 -1.6179
  155SAPE   H3Y17215   4.907   3.250   7.118 -0.4240  0.0737  1.3220
  155SAPE   C3417216   4.841   3.407   6.980  0.1460  0.5134  0.0489
  155SAPE   H4X17217   4.937   3.415   6.925  0.8541 -1.9802  0.7820
  155SAPE   H4Y17218   4.797   3.509   6.976 -3.2372 -0.8550 -2.3286
  155SAPE   C3517219   4.750   3.314   6.899 -0.2075 -0.5123  0.2958
  155SAPE   H5X17220   4.644   3.315   6.933 -0.6623 -1.8267 -0.9757
  155SAPE   H5Y17221   4.791   3.211   6.905 -2.2571 -1.4892 -1.2315
  155SAPE   C3617222   4.748   3.352   6.749  0.2928 -0.6605 -0.5907
  155SAPE   H6X17223   4.846   3.328   6.702  0.2402  0.0676 -1.0898
  155SAPE   H6Y17224   4.740   3.463   6.749  0.2571 -0.6127  1.8537
  155SAPE   C3717225   4.634   3.289   6.670 -0.1271  0.1873 -0.5324
  155SAPE   H7X17226   4.536   3.324   6.708 -0.2807 -0.2349 -0.5370
  155SAPE   H7Y17227   4.635   3.179   6.686  2.3508  0.0165 -1.4133
  155SAPE   C3817228   4.653   3.308   6.526  0.1562 -0.4672  0.1022
  155SAPE   H8X17229   4.630   3.217   6.467  1.9464 -1.4344  0.8228
  155SAPE   H8Y17230   4.761   3.323   6.508  0.4899 -1.5722  1.0344
  155SAPE   C3917231   4.583   3.434   6.475  0.6859 -0.4256 -0.8699
  155SAPE   H9X17232   4.627   3.521   6.529 -0.8658 -0.8020  1.1099
  155SAPE   H9Y17233   4.476   3.429   6.504  0.7777  0.2551 -0.3833
  155SAPE  C31017234   4.587   3.479   6.326 -0.4188  0.0444 -0.1897
  155SAPE  H10X17235   4.548   3.583   6.317  0.1799  0.0805 -3.5289
  155SAPE  H10Y17236   4.523   3.407   6.271 -0.6411 -0.6181  0.9063
  155SAPE  C31117237   4.724   3.471   6.256  0.3897 -0.4580  0.1712
  155SAPE  H11X17238   4.771   3.376   6.289  1.0988  0.4201  1.8180
  155SAPE  H11Y17239   4.785   3.560   6.284 -1.4164  0.7256  0.5381
  155SAPE  C31217240   4.717   3.483   6.104  0.1852 -0.5253 -0.9159
  155SAPE  H12X17241   4.634   3.417   6.071 -0.2721 -0.7384  0.5872
  155SAPE  H12Y17242   4.807   3.443   6.053  0.3086 -0.0476 -1.0788
  155SAPE  C31317243   4.677   3.621   6.060 -1.1539 -0.3277  0.9962
  155SAPE  H13X17244   4.763   3.681   6.097  0.0086 -1.0117 -0.5013
  155SAPE  H13Y17245   4.581   3.657   6.104 -1.7088  0.4505 -0.7568
  155SAPE  C31417246   4.654   3.646   5.909  0.0917 -0.6778 -0.1401
  155SAPE  H14X17247   4.717   3.579   5.846  0.4000 -1.8352  1.3522
  155SAPE  H14Y17248   4.673   3.755   5.895  0.2558 -0.6312  0.4115
  155SAPE  C31517249   4.510   3.609   5.862 -0.7106  0.3511 -0.0981
  155SAPE  H15X17250   4.438   3.681   5.905 -2.0644 -0.6551 -0.5982
  155SAPE  H15Y17251   4.481   3.510   5.902 -0.6134  0.3577 -0.0108
  155SAPE  C31617252   4.499   3.607   5.709 -0.2668 -0.0637  0.1363
  155SAPE  H16X17253   4.576   3.670   5.659 -1.3919  0.7351 -0.6404
  155SAPE  H16Y17254   4.406   3.666   5.695 -1.1486 -1.2019  0.9612
  155SAPE  C31717255   4.489   3.471   5.647  0.3365  0.1927 -0.5635
  155SAPE  H17X17256   4.442   3.466   5.546 -0.6015 -0.9239 -0.0909
  155SAPE  H17Y17257   4.428   3.409   5.716 -0.5614  2.2047  0.5251
  155SAPE  C31817258   4.620   3.397   5.645  0.5994  0.1242  0.7570
  155SAPE  H18X17259   4.706   3.445   5.594  0.4813 -0.4873 -0.0221
  155SAPE  H18Y17260   4.606   3.293   5.607  2.6931  0.1040 -0.1139
  155SAPE  H18Z17261   4.661   3.378   5.747  0.1416 -3.4815  0.3870
  156SAPE     N17262   0.541   2.433   7.686 -0.4413  0.5024 -0.2320
  156SAPE   HN117263   0.488   2.367   7.625 -1.0709  0.8287 -0.0323
  156SAPE   HN217264   0.616   2.475   7.628 -0.7059 -1.8177 -2.4248
  156SAPE   HN317265   0.587   2.366   7.751 -0.9406  1.9257  1.6684
  156SAPE   C1217266   0.452   2.534   7.757 -0.1665 -0.7463 -0.7327
  156SAPE  H12A17267   0.424   2.608   7.679 -0.6852 -0.6704 -0.4804
  156SAPE  H12B17268   0.512   2.600   7.823 -1.6922  0.8836 -0.8917
  156SAPE   C1117269   0.327   2.469   7.827 -0.2801  0.4273  1.2385
  156SAPE  H11A17270   0.358   2.435   7.928  0.2109 -1.9646  0.3483
  156SAPE  H11B17271   0.311   2.373   7.774 -0.5702  1.0880  0.1111
  156SAPE     P17272   0.075   2.500   7.880 -0.3354 -0.1079  0.0746
  156SAPE   O1317273   0.089   2.463   8.024 -0.8928 -0.2999 -0.2299
  156SAPE   O1417274  -0.036   2.593   7.840  0.0150  0.2272 -0.0050
  156SAPE   O1217275   0.213   2.553   7.824  0.3335 -0.3455 -0.2287
  156SAPE   O1117276   0.050   2.370   7.797  0.8355  0.7175 -0.5598
  156SAPE    C117277  -0.088   2.347   7.759 -0.1781 -0.2188 -0.7562
  156SAPE    HA17278  -0.111   2.238   7.760 -1.9985  0.1153 -1.5420
  156SAPE    HB17279  -0.163   2.393   7.827  1.0365 -2.5663  2.4431
  156SAPE    C217280  -0.111   2.399   7.617 -0.6996 -0.2185 -0.1262
  156SAPE    HS17281  -0.086   2.507   7.625 -1.1658 -0.0469 -0.8896
  156SAPE   O2117282  -0.237   2.361   7.565  0.5364  0.3772  0.3551
  156SAPE   C2117283  -0.293   2.469   7.505 -0.4174 -0.4547  0.2120
  156SAPE   O2217284  -0.248   2.583   7.506  0.8299 -0.2558  0.3046
  156SAPE   C2217285  -0.420   2.431   7.430  0.2323 -0.4002 -0.1645
  156SAPE   H2R17286  -0.459   2.333   7.463  1.4341 -0.9637 -0.3471
  156SAPE   H2S17287  -0.494   2.511   7.451 -1.7128 -1.7395 -1.5672
  156SAPE    C317288  -0.002   2.357   7.511 -0.6507 -0.3996 -0.6446
  156SAPE    HX17289  -0.022   2.249   7.494 -2.2683 -0.1850 -0.2697
  156SAPE    HY17290   0.100   2.370   7.551 -0.0131 -2.2061 -1.5464
  156SAPE   O3117291  -0.011   2.425   7.386  0.5626 -0.3880 -0.0210
  156SAPE   C3117292   0.100   2.481   7.340  0.6018  0.2976 -0.4986
  156SAPE   O3217293   0.211   2.465   7.389 -0.3697  0.3053  0.8011
  156SAPE   C3217294   0.069   2.571   7.221  0.3892 -0.2105  0.0309
  156SAPE   H2X17295   0.157   2.638   7.212 -1.2563  2.2384  1.0284
  156SAPE   H2Y17296  -0.013   2.640   7.249  1.6752  0.5592  2.1775
  156SAPE   C2317297  -0.418   2.429   7.272  0.2387 -0.4538 -0.6591
  156SAPE   H3R17298  -0.330   2.368   7.244  1.8134  0.9781  0.8770
  156SAPE   H3S17299  -0.402   2.530   7.229  4.0530 -1.4639 -1.9890
  156SAPE   C2417300  -0.549   2.368   7.209  0.2817  0.2749  0.0551
  156SAPE   H4R17301  -0.574   2.266   7.244  0.6449  0.1488 -0.0531
  156SAPE   H4S17302  -0.524   2.344   7.103  0.4107 -1.7415  0.5116
  156SAPE   C2517303  -0.673   2.456   7.232  0.1179  0.0819 -0.3827
  156SAPE   H5R17304  -0.720   2.443   7.331  1.3250  0.0942  0.2056
  156SAPE   C2617305  -0.742   2.524   7.143 -0.3696 -0.6051 -0.1546
  156SAPE   H6R17306  -0.836   2.570   7.177  0.1557 -0.5698  1.3370
  156SAPE   C2717307  -0.698   2.546   7.000  0.4102 -0.8495  0.0669
  156SAPE   H7R17308  -0.595   2.507   6.991  0.9442  0.5534 -0.1579
  156SAPE   H7S17309  -0.678   2.654   6.981  0.6272 -0.3497  2.6842
  156SAPE   C2817310  -0.796   2.499   6.894 -0.1660  0.2491 -0.5076
  156SAPE   H8R17311  -0.860   2.416   6.928 -2.3855  1.2826 -1.9507
  156SAPE   C2917312  -0.818   2.546   6.776 -0.3743 -0.3110 -0.7300
  156SAPE   H9R17313  -0.895   2.497   6.714 -1.1066 -3.8456  2.5854
  156SAPE  C21017314  -0.732   2.658   6.713  0.0595  1.1568 -0.6564
  156SAPE  H10R17315  -0.628   2.630   6.736 -0.3379  0.7222  0.7065
  156SAPE  H10S17316  -0.738   2.754   6.769 -2.2853 -0.5296  2.3374
  156SAPE  C21117317  -0.751   2.676   6.567 -0.0658 -0.0375  0.6182
  156SAPE  H11R17318  -0.832   2.744   6.538  0.3705  1.2120  2.1425
  156SAPE  C21217319  -0.671   2.649   6.466 -0.2735  0.2926  0.7671
  156SAPE  H12R17320  -0.707   2.671   6.365 -1.1263  0.0828  1.0147
  156SAPE  C21317321  -0.541   2.568   6.465 -0.9016 -0.2144 -0.3443
  156SAPE  H13R17322  -0.559   2.472   6.413 -2.4554 -0.8615  1.2732
  156SAPE  H13S17323  -0.518   2.540   6.570 -0.5568  0.7551 -0.1483
  156SAPE  C21417324  -0.427   2.655   6.401  0.3593  0.0519  0.2775
  156SAPE  H14R17325  -0.391   2.735   6.469  0.3709 -1.1385  1.7235
  156SAPE  C21517326  -0.367   2.632   6.285  0.5044 -0.4502  0.0336
  156SAPE  H15R17327  -0.300   2.718   6.265  0.2223 -0.2645 -0.1119
  156SAPE  C21617328  -0.392   2.519   6.183  0.3719 -0.1449 -0.3906
  156SAPE  H16R17329  -0.489   2.467   6.192  0.3090 -0.6825 -3.2486
  156SAPE  H16S17330  -0.306   2.450   6.168  0.0562 -0.6788  0.2362
  156SAPE  C21717331  -0.414   2.588   6.044 -0.5152 -0.8013  0.1066
  156SAPE  H17R17332  -0.320   2.639   6.014 -1.5874  0.3366 -1.4883
  156SAPE  H17S17333  -0.498   2.659   6.057 -0.9258 -1.2456 -0.0902
  156SAPE  C21817334  -0.458   2.494   5.923 -0.4324  0.8982 -0.7170
  156SAPE  H18R17335  -0.544   2.433   5.960 -2.3796  2.5018 -2.3229
  156SAPE  H18S17336  -0.376   2.426   5.894 -0.1606  1.6600 -1.7886
  156SAPE  C21917337  -0.497   2.582   5.795 -0.6585  0.2401  0.0727
  156SAPE  H19R17338  -0.410   2.638   5.755 -1.8829  1.3648 -1.1549
  156SAPE  H19S17339  -0.572   2.656   5.830 -0.7018  0.4757 -0.5091
  156SAPE  C22017340  -0.564   2.490   5.691  0.1851 -0.4701 -0.4636
  156SAPE  H20R17341  -0.656   2.443   5.730 -0.5622 -0.3953 -2.0666
  156SAPE  H20S17342  -0.485   2.417   5.665  0.6654  0.4868 -1.8273
  156SAPE  H20T17343  -0.591   2.546   5.599 -1.8144  1.2085  1.0307
  156SAPE   C3317344   0.037   2.501   7.084  0.2527 -0.1053  0.0782
  156SAPE   H3X17345   0.046   2.576   7.004  1.7222  2.6617  2.6278
  156SAPE   H3Y17346  -0.065   2.457   7.083  0.1995 -0.3792 -4.6610
  156SAPE   C3417347   0.141   2.397   7.054  0.5109  0.6892 -0.1889
  156SAPE   H4X17348   0.140   2.328   7.141 -2.5674  2.5157  1.3705
  156SAPE   H4Y17349   0.243   2.439   7.039 -0.2543  2.1571 -1.5961
  156SAPE   C3517350   0.104   2.312   6.930 -0.3846 -0.2102  0.1123
  156SAPE   H5X17351   0.000   2.272   6.940 -0.3037  0.0725  3.1361
  156SAPE   H5Y17352   0.170   2.222   6.931 -0.1141 -0.0181 -0.3963
  156SAPE   C3617353   0.110   2.379   6.791 -0.3287  0.1357  0.5709
  156SAPE   H6X17354   0.207   2.432   6.779  1.1114 -2.0110  1.9003
  156SAPE   H6Y17355   0.020   2.444   6.794 -0.5155  0.0556 -1.6061
  156SAPE   C3717356   0.080   2.282   6.674 -0.1519  0.4386 -0.8689
  156SAPE   H7X17357  -0.014   2.229   6.703  1.4933 -2.3892 -0.3308
  156SAPE   H7Y17358   0.168   2.214   6.675 -0.3412  0.1810  0.2368
  156SAPE   C3817359   0.071   2.350   6.545  0.1932 -0.1078  0.4222
  156SAPE   H8X17360   0.167   2.357   6.491 -0.3062 -0.7725 -0.5649
  156SAPE   H8Y17361   0.039   2.456   6.554 -0.2990 -0.2610  0.4938
  156SAPE   C3917362  -0.033   2.280   6.453  0.2811 -1.5035 -0.6686
  156SAPE   H9X17363  -0.131   2.261   6.500 -1.0472  0.4686 -2.4594
  156SAPE   H9Y17364   0.016   2.185   6.422  1.3659 -1.2861  0.3241
  156SAPE  C31017365  -0.073   2.372   6.340  0.1464  0.2956  0.8821
  156SAPE  H10X17366  -0.110   2.468   6.381 -1.0342  1.4919 -2.6511
  156SAPE  H10Y17367  -0.161   2.331   6.286  2.3305 -0.8765 -2.0880
  156SAPE  C31117368   0.041   2.379   6.229  0.2308  0.2660  0.3189
  156SAPE  H11X17369   0.090   2.280   6.220  0.7590  0.7009 -2.4781
  156SAPE  H11Y17370   0.119   2.444   6.272 -0.8291  2.4760 -0.9330
  156SAPE  C31217371   0.002   2.435   6.097 -0.4356  0.0520 -0.6745
  156SAPE  H12X17372   0.092   2.473   6.045  0.6546  0.0288  1.0953
  156SAPE  H12Y17373  -0.060   2.526   6.110  1.7854  1.3242  2.2330
  156SAPE  C31317374  -0.061   2.328   6.002  0.3536  0.2755 -0.6815
  156SAPE  H13X17375  -0.158   2.291   6.042  0.6821 -1.6664 -1.5606
  156SAPE  H13Y17376  -0.008   2.230   6.008 -2.7730 -1.5174  0.3240
  156SAPE  C31417377  -0.056   2.378   5.863 -0.4311  0.5328 -0.0765
  156SAPE  H14X17378   0.051   2.394   5.839 -0.4434 -0.0744 -0.5560
  156SAPE  H14Y17379  -0.112   2.474   5.857 -3.2270 -0.9898 -0.0514
  156SAPE  C31517380  -0.106   2.271   5.770  0.6810  0.1977  0.0825
  156SAPE  H15X17381  -0.200   2.226   5.809  0.8591 -0.2907 -0.0445
  156SAPE  H15Y17382  -0.039   2.182   5.768 -0.8760 -1.0781 -2.9407
  156SAPE  C31617383  -0.109   2.320   5.619 -0.1486 -0.6503 -0.4197
  156SAPE  H16X17384  -0.109   2.230   5.554  0.3737 -2.1821  1.6036
  156SAPE  H16Y17385  -0.011   2.368   5.597 -0.0644 -1.0558 -0.9610
  156SAPE  C31717386  -0.210   2.419   5.577  0.6918 -0.3481  0.2496
  156SAPE  H17X17387  -0.241   2.491   5.656  0.2819  0.8364 -0.9448
  156SAPE  H17Y17388  -0.302   2.360   5.557  2.0399 -2.1036 -1.0678
  156SAPE  C31817389  -0.180   2.506   5.453 -0.3118  0.2547 -0.2108
  156SAPE  H18X17390  -0.276   2.552   5.421 -0.2445  0.2397 -0.4352
  156SAPE  H18Y17391  -0.144   2.446   5.367 -0.2057  1.1950 -0.8427
  156SAPE  H18Z17392  -0.098   2.581   5.459 -2.8469  3.2903 -0.6449
  157SAPE     N17393   6.713   0.494   7.852 -0.3703  0.5439  0.3192
  157SAPE   HN117394   6.721   0.413   7.917 -0.6567  0.6768  0.5224
  157SAPE   HN217395   6.734   0.584   7.900 -0.3066  0.0914  1.1685
  157SAPE   HN317396   6.613   0.495   7.825  0.1425  1.2731 -1.7476
  157SAPE   C1217397   6.802   0.480   7.725  0.2273  0.4262  0.0090
  157SAPE  H12A17398   6.765   0.393   7.667  1.2950  1.5298 -2.4674
  157SAPE  H12B17399   6.905   0.446   7.750 -0.6186 -1.9415  0.5016
  157SAPE   C1117400   6.818   0.603   7.641  0.3575  0.0159  0.3123
  157SAPE  H11A17401   6.725   0.618   7.581  0.2347 -0.1968  0.4495
  157SAPE  H11B17402   6.895   0.583   7.563  0.8296 -1.1261  1.0560
  157SAPE     P17403   6.820   0.865   7.693 -0.1176  0.6276 -0.1906
  157SAPE   O1317404   6.680   0.883   7.742  0.5070 -0.4743 -0.6805
  157SAPE   O1417405   6.930   0.941   7.751  0.7057 -0.3162 -0.0208
  157SAPE   O1217406   6.858   0.715   7.723  0.1671  0.1078  0.2558
  157SAPE   O1117407   6.830   0.871   7.536  0.1835  0.3894  0.3307
  157SAPE    C117408   6.961   0.883   7.470  0.5893 -0.3194 -0.4501
  157SAPE    HA17409   7.010   0.978   7.500 -0.0505 -0.7300  2.2065
  157SAPE    HB17410   7.027   0.797   7.493  1.7709 -0.0505 -2.6357
  157SAPE    C217411   6.953   0.869   7.313  0.2665  0.6599  0.0305
  157SAPE    HS17412   6.869   0.933   7.277 -2.5841 -1.3788  2.5061
  157SAPE   O2117413   6.929   0.730   7.291 -0.4075 -0.1070 -0.0971
  157SAPE   C2117414   6.801   0.688   7.284 -0.3779  0.2007  0.0569
  157SAPE   O2217415   6.698   0.755   7.295 -0.5040  0.7060 -0.2467
  157SAPE   C2217416   6.810   0.540   7.255 -0.2946  0.4552 -0.0394
  157SAPE   H2R17417   6.844   0.481   7.342 -2.2170  0.0737  0.4951
  157SAPE   H2S17418   6.706   0.499   7.255 -0.0169 -0.3557  1.9389
  157SAPE    C317419   7.087   0.898   7.242 -0.4600  0.2814  0.5728
  157SAPE    HX17420   7.173   0.849   7.291  0.7059  0.3380 -1.3029
  157SAPE    HY17421   7.092   1.008   7.258 -1.1197  0.0559  2.5920
  157SAPE   O3117422   7.082   0.861   7.100 -0.5047 -0.0398 -0.1201
  157SAPE   C3117423   7.018   0.952   7.028  0.1042  0.4395  0.5078
  157SAPE   O3217424   6.998   1.066   7.056  0.2573 -0.2855  0.1740
  157SAPE   C3217425   7.006   0.896   6.888  0.1301  0.0469 -0.7596
  157SAPE   H2X17426   6.933   0.812   6.891  0.0107  0.1646  1.1566
  157SAPE   H2Y17427   7.106   0.863   6.853  2.4466  2.5006  2.7932
  157SAPE   C2317428   6.889   0.515   7.122 -0.0928 -0.4963 -0.2776
  157SAPE   H3R17429   6.912   0.407   7.111  1.3276 -1.0110  5.0028
  157SAPE   H3S17430   6.985   0.571   7.132 -0.4686  0.1532 -0.2417
  157SAPE   C2417431   6.823   0.545   6.988 -0.1835  0.1867 -0.0765
  157SAPE   H4R17432   6.895   0.539   6.903 -0.9730 -4.2316 -0.6627
  157SAPE   H4S17433   6.796   0.652   6.995  1.0576  0.5443 -0.5137
  157SAPE   C2517434   6.698   0.468   6.960  0.1383  0.8946  0.0580
  157SAPE   H5R17435   6.684   0.394   7.040  2.9636  0.3435  0.1305
  157SAPE   C2617436   6.625   0.468   6.846 -0.1236 -0.3710  0.8744
  157SAPE   H6R17437   6.547   0.391   6.847 -0.5632  0.0578  1.8308
  157SAPE   C2717438   6.675   0.547   6.733 -0.0289  0.4834  0.1017
  157SAPE   H7R17439   6.757   0.621   6.748  0.5555  0.2537 -1.7273
  157SAPE   H7S17440   6.591   0.616   6.710 -0.2453  0.1044 -0.2625
  157SAPE   C2817441   6.688   0.463   6.607 -0.7071 -0.4413 -0.1120
  157SAPE   H8R17442   6.603   0.395   6.595  0.2497 -1.9407  1.2051
  157SAPE   C2917443   6.778   0.478   6.508 -0.9177  0.0132 -0.0354
  157SAPE   H9R17444   6.763   0.418   6.417 -1.8472  2.9840 -1.9809
  157SAPE  C21017445   6.891   0.574   6.511 -0.7867  0.9957 -0.2756
  157SAPE  H10R17446   6.878   0.645   6.596  1.8254 -0.5859  1.6025
  157SAPE  H10S17447   6.873   0.634   6.419  2.9906  0.7022 -1.3792
  157SAPE  C21117448   7.020   0.507   6.507 -0.7012  1.3745  0.8376
  157SAPE  H11R17449   7.043   0.437   6.589  2.0466 -1.6321 -2.1819
  157SAPE  C21217450   7.110   0.505   6.401  0.7632  0.3300  0.2109
  157SAPE  H12R17451   7.199   0.448   6.429 -0.4649 -0.8468  1.9537
  157SAPE  C21317452   7.094   0.587   6.272  0.3972  0.2707 -0.1379
  157SAPE  H13R17453   7.044   0.679   6.308  4.4204  1.8017  2.2004
  157SAPE  H13S17454   7.022   0.535   6.205 -0.1438 -0.5745  1.0879
  157SAPE  C21417455   7.214   0.632   6.194 -0.2251  0.6886 -0.1981
  157SAPE  H14R17456   7.276   0.716   6.229  0.5244  0.3912 -0.7772
  157SAPE  C21517457   7.271   0.562   6.098  0.7549 -0.3992  0.2920
  157SAPE  H15R17458   7.344   0.619   6.038 -0.8711  2.3289  0.7578
  157SAPE  C21617459   7.228   0.435   6.038  0.3877 -0.0270  0.1686
  157SAPE  H16R17460   7.120   0.413   6.054  0.6841  0.1074  2.9322
  157SAPE  H16S17461   7.284   0.351   6.084 -1.1932 -1.3528 -0.2395
  157SAPE  C21717462   7.253   0.436   5.883  0.0000  0.5871 -0.0393
  157SAPE  H17R17463   7.239   0.334   5.841  1.0966  0.2185  0.4563
  157SAPE  H17S17464   7.356   0.471   5.860  0.3398 -0.4118 -0.0749
  157SAPE  C21817465   7.145   0.519   5.821 -0.2011 -0.1159 -0.2378
  157SAPE  H18R17466   7.172   0.627   5.828  1.7474 -0.6253  0.7102
  157SAPE  H18S17467   7.050   0.502   5.877 -1.3855 -0.3760 -2.2178
  157SAPE  C21917468   7.109   0.486   5.679  0.0808 -0.1976  0.2691
  157SAPE  H19R17469   7.030   0.556   5.646  2.1332  2.0635 -0.1004
  157SAPE  H19S17470   7.071   0.383   5.661 -1.8380  0.4983  0.1603
  157SAPE  C22017471   7.229   0.512   5.596  1.0052 -0.0159  0.1350
  157SAPE  H20R17472   7.325   0.496   5.649  1.6779  3.3369  0.1531
  157SAPE  H20S17473   7.222   0.620   5.572 -1.3777 -0.4283 -1.3561
  157SAPE  H20T17474   7.221   0.463   5.497  2.6529  0.9591 -0.5030
  157SAPE   C3317475   6.962   1.011   6.795 -1.2186  0.0598 -0.1979
  157SAPE   H3X17476   7.061   1.029   6.747  0.0317 -0.0826  2.1855
  157SAPE   H3Y17477   6.925   1.109   6.833 -0.5369 -0.4708  1.9677
  157SAPE   C3417478   6.862   0.966   6.689 -0.1783  0.1300  0.3987
  157SAPE   H4X17479   6.764   0.965   6.740 -0.5525  2.4672 -0.1535
  157SAPE   H4Y17480   6.884   0.860   6.665 -2.8770 -0.8593  1.9016
  157SAPE   C3517481   6.867   1.052   6.569 -0.1384  0.2827  0.5537
  157SAPE   H5X17482   6.969   1.060   6.527 -0.6325 -2.3524 -1.4108
  157SAPE   H5Y17483   6.830   1.156   6.586 -1.6395  0.1551 -1.5277
  157SAPE   C3617484   6.769   0.991   6.456 -0.1998  0.3010  0.0098
  157SAPE   H6X17485   6.791   0.886   6.428  0.6295  0.8493 -1.5240
  157SAPE   H6Y17486   6.785   1.058   6.368 -2.7409 -0.7197 -1.3437
  157SAPE   C3717487   6.625   1.019   6.494 -0.8112 -0.3123  0.4904
  157SAPE   H7X17488   6.616   1.128   6.476  1.7323 -0.3167 -1.5947
  157SAPE   H7Y17489   6.603   0.994   6.600  0.1736  1.6288  1.1926
  157SAPE   C3817490   6.528   0.942   6.400  0.0413  0.0590 -0.5837
  157SAPE   H8X17491   6.431   0.929   6.453  0.7310 -0.5405  0.5619
  157SAPE   H8Y17492   6.563   0.838   6.385 -1.5725 -0.8569  1.5461
  157SAPE   C3917493   6.496   1.003   6.264  0.0508  0.5153  0.3616
  157SAPE   H9X17494   6.580   1.024   6.194 -1.2735  1.0609 -1.1198
  157SAPE   H9Y17495   6.457   1.106   6.279 -0.3868  0.2049  1.3894
  157SAPE  C31017496   6.401   0.910   6.188  0.3243  0.0431 -0.4660
  157SAPE  H10X17497   6.305   0.910   6.242  0.2499 -4.1038 -0.2876
  157SAPE  H10Y17498   6.436   0.805   6.178  1.3670 -0.0042  2.7672
  157SAPE  C31117499   6.365   0.951   6.045  0.5202  0.4966 -0.0770
  157SAPE  H11X17500   6.457   0.943   5.983  1.5120 -3.2906  1.6085
  157SAPE  H11Y17501   6.340   1.059   6.034  0.2528  0.5869  1.2633
  157SAPE  C31217502   6.259   0.858   5.978 -0.7179 -0.3762 -0.5795
  157SAPE  H12X17503   6.175   0.842   6.049 -0.5982 -0.7569 -0.5208
  157SAPE  H12Y17504   6.313   0.762   5.960  2.2710  1.3053 -1.1745
  157SAPE  C31317505   6.211   0.914   5.842  0.0494 -1.0891 -0.2235
  157SAPE  H13X17506   6.302   0.937   5.782 -0.7920  2.1720 -0.4702
  157SAPE  H13Y17507   6.157   1.010   5.859  2.2437  0.5859 -2.0220
  157SAPE  C31417508   6.116   0.817   5.763  0.5834  0.3127  0.5502
  157SAPE  H14X17509   6.014   0.845   5.794 -1.4566 -0.9225 -4.1605
  157SAPE  H14Y17510   6.126   0.708   5.782  0.1707  0.2562  0.4309
  157SAPE  C31517511   6.136   0.845   5.610 -0.4927 -0.6842 -0.1199
  157SAPE  H15X17512   6.227   0.786   5.586 -1.0205 -1.8881  0.7135
  157SAPE  H15Y17513   6.149   0.953   5.591 -0.2627 -0.8589 -1.0100
  157SAPE  C31617514   6.021   0.790   5.532  0.5010 -0.7089  0.3332
  157SAPE  H16X17515   5.944   0.870   5.540  0.7545 -0.1084 -2.2858
  157SAPE  H16Y17516   5.982   0.701   5.585 -0.5830  0.5789  1.8034
  157SAPE  C31717517   6.051   0.771   5.385 -0.0419 -0.4144  0.0022
  157SAPE  H17X17518   5.962   0.723   5.340 -0.8342 -2.4425  3.3124
  157SAPE  H17Y17519   6.121   0.686   5.365 -1.2806 -1.5921  0.4871
  157SAPE  C31817520   6.077   0.897   5.300 -1.1789 -1.0316 -0.2881
  157SAPE  H18X17521   6.054   0.874   5.194  0.4839  0.5002 -1.0439
  157SAPE  H18Y17522   6.179   0.942   5.304 -1.1297 -1.2014  0.8816
  157SAPE  H18Z17523   6.007   0.976   5.334 -1.1524 -0.7464 -0.8884
  158SAPE     N17524   1.986   6.057   7.431 -0.6586  0.5199 -0.0248
  158SAPE   HN117525   1.996   5.954   7.440  2.0904  0.4810 -2.3451
  158SAPE   HN217526   2.048   6.113   7.493 -0.5539 -0.6920  1.0153
  158SAPE   HN317527   1.886   6.079   7.453 -0.7660 -0.1315  0.1754
  158SAPE   C1217528   2.007   6.092   7.286 -0.4006  0.0650  0.0534
  158SAPE  H12A17529   1.955   6.018   7.222  0.0279 -0.7500  0.6416
  158SAPE  H12B17530   2.113   6.071   7.258 -0.0876  0.4481  0.9022
  158SAPE   C1117531   1.973   6.242   7.259  0.3234  0.7321 -0.4873
  158SAPE  H11A17532   1.875   6.271   7.303 -0.0992 -0.1793 -0.7928
  158SAPE  H11B17533   1.949   6.254   7.151  1.9354  1.3481 -0.7958
  158SAPE     P17534   2.056   6.484   7.320  0.0800  0.0150  0.0733
  158SAPE   O1317535   1.920   6.512   7.383 -0.4853 -0.0176  0.0551
  158SAPE   O1417536   2.178   6.537   7.384  0.0498 -0.3195  0.0637
  158SAPE   O1217537   2.079   6.326   7.307 -0.3399  0.2031 -0.3140
  158SAPE   O1117538   2.053   6.528   7.172  0.1441  0.0828 -0.1255
  158SAPE    C117539   2.049   6.672   7.138 -0.9052 -0.4018  0.2099
  158SAPE    HA17540   1.968   6.700   7.068  1.2879  3.6246 -1.0376
  158SAPE    HB17541   2.039   6.741   7.225  1.2846  0.2124  0.0267
  158SAPE    C217542   2.174   6.721   7.059  0.6107  0.0173 -0.2372
  158SAPE    HS17543   2.169   6.832   7.051 -0.6334  0.0827  0.9763
  158SAPE   O2117544   2.172   6.651   6.934  0.4824  0.0542 -0.3925
  158SAPE   C2117545   2.067   6.667   6.852  0.3272  0.7666 -0.2626
  158SAPE   O2217546   1.990   6.763   6.861 -0.1284 -0.3413  0.5342
  158SAPE   C2217547   2.076   6.568   6.735  0.4963  0.4702  0.0814
  158SAPE   H2R17548   2.180   6.563   6.696 -0.6552  1.0331 -3.3890
  158SAPE   H2S17549   2.041   6.470   6.776 -1.1766  0.8565 -0.3304
  158SAPE    C317550   2.300   6.697   7.142  0.7940  0.6031  0.1328
  158SAPE    HX17551   2.287   6.600   7.194 -1.1285  0.0843 -1.2343
  158SAPE    HY17552   2.310   6.772   7.223  1.5399  0.7646 -0.1025
  158SAPE   O3117553   2.427   6.708   7.070  0.2570  0.4009 -0.0241
  158SAPE   C3117554   2.492   6.584   7.055  0.6488 -0.6426  0.1693
  158SAPE   O3217555   2.451   6.483   7.103 -0.1300  0.3060  0.1001
  158SAPE   C3217556   2.619   6.592   6.969  0.0878  0.8381 -0.4214
  158SAPE   H2X17557   2.657   6.487   6.969  0.3384  0.9241  0.1317
  158SAPE   H2Y17558   2.690   6.664   7.014 -0.8576  0.5841  1.5876
  158SAPE   C2317559   1.970   6.610   6.632  0.2085 -0.0525 -0.0206
  158SAPE   H3R17560   1.877   6.626   6.690  0.4300 -1.6941  0.8709
  158SAPE   H3S17561   1.944   6.512   6.587 -0.8669 -0.5702  1.6254
  158SAPE   C2417562   2.004   6.731   6.544  0.0392 -0.2446 -0.3453
  158SAPE   H4R17563   2.065   6.808   6.597  0.5767  0.1848 -1.5456
  158SAPE   H4S17564   1.917   6.777   6.493  0.0176 -2.3607 -2.3774
  158SAPE   C2517565   2.102   6.668   6.448  0.6898 -0.3162  0.1596
  158SAPE   H5R17566   2.195   6.640   6.500  0.1981 -0.5799  0.9287
  158SAPE   C2617567   2.094   6.649   6.316  0.3880 -0.1503  0.2672
  158SAPE   H6R17568   2.178   6.600   6.264 -0.4062  0.1575 -1.3586
  158SAPE   C2717569   1.985   6.677   6.218 -0.1986  0.7300 -0.5633
  158SAPE   H7R17570   2.019   6.689   6.113 -3.0212 -1.2853 -1.8366
  158SAPE   H7S17571   1.938   6.775   6.240 -1.7502 -0.0994 -0.0293
  158SAPE   C2817572   1.885   6.562   6.220  0.1221 -0.8565  0.2297
  158SAPE   H8R17573   1.879   6.507   6.315  3.7011 -0.8816  0.5491
  158SAPE   C2917574   1.806   6.526   6.114 -0.0361 -0.1063 -0.0660
  158SAPE   H9R17575   1.732   6.445   6.125  0.6099 -0.5737  1.0083
  158SAPE  C21017576   1.803   6.598   5.977  0.0965  0.1160 -0.2111
  158SAPE  H10R17577   1.868   6.688   5.969  0.3875  0.4134  3.4928
  158SAPE  H10S17578   1.704   6.647   5.979 -0.5312 -1.1209 -0.2932
  158SAPE  C21117579   1.834   6.508   5.861 -0.5067  0.7935  0.2901
  158SAPE  H11R17580   1.907   6.428   5.877 -1.9911 -0.6117  0.2378
  158SAPE  C21217581   1.804   6.536   5.738  1.0665  0.2835 -0.6561
  158SAPE  H12R17582   1.833   6.470   5.654 -0.6075  0.1448 -1.1453
  158SAPE  C21317583   1.707   6.645   5.696 -0.1605  0.6201 -0.3101
  158SAPE  H13R17584   1.762   6.730   5.649 -1.4210  2.8368  2.0140
  158SAPE  H13S17585   1.660   6.708   5.774 -2.5935  1.9166 -2.6623
  158SAPE  C21417586   1.587   6.609   5.612 -0.4946 -0.0495  0.4485
  158SAPE  H14R17587   1.492   6.577   5.658 -1.0291 -0.0253 -0.6118
  158SAPE  C21517588   1.592   6.606   5.476  0.5333 -1.0466 -0.0454
  158SAPE  H15R17589   1.501   6.577   5.421 -1.6874  2.5168  1.4077
  158SAPE  C21617590   1.711   6.643   5.387  0.3305  0.3911 -0.2161
  158SAPE  H16R17591   1.783   6.700   5.449  0.5140 -1.5398  1.4486
  158SAPE  H16S17592   1.663   6.688   5.298  1.3691 -0.6153 -1.3224
  158SAPE  C21717593   1.780   6.513   5.332  0.1951 -0.5816 -0.3009
  158SAPE  H17R17594   1.819   6.458   5.420 -0.2095 -3.4007 -1.7555
  158SAPE  H17S17595   1.861   6.550   5.265  1.4152  0.3472  1.6273
  158SAPE  C21817596   1.686   6.428   5.238 -0.2700 -0.4411  0.0944
  158SAPE  H18R17597   1.646   6.489   5.155 -0.4814  0.6538  0.9736
  158SAPE  H18S17598   1.598   6.394   5.297 -0.9903 -0.5033 -0.9938
  158SAPE  C21917599   1.753   6.300   5.177  0.0573 -0.4492  0.0806
  158SAPE  H19R17600   1.672   6.236   5.137 -1.2076  1.6680 -0.8575
  158SAPE  H19S17601   1.798   6.239   5.259  2.2099  2.1160  0.9644
  158SAPE  C22017602   1.865   6.330   5.075  0.6804 -0.5541  0.0586
  158SAPE  H20R17603   1.915   6.233   5.053 -1.3429 -1.6759  0.2203
  158SAPE  H20S17604   1.938   6.401   5.120  0.4943  0.6769 -1.5114
  158SAPE  H20T17605   1.822   6.379   4.985  0.2117 -0.5797  0.2667
  158SAPE   C3317606   2.596   6.646   6.823 -0.2829  0.8972 -0.0815
  158SAPE   H3X17607   2.697   6.657   6.779 -0.1341 -0.4020 -0.1025
  158SAPE   H3Y17608   2.549   6.746   6.834 -0.4538  0.7718  0.3556
  158SAPE   C3417609   2.487   6.574   6.736 -0.2352 -0.2158 -0.4771
  158SAPE   H4X17610   2.465   6.620   6.638 -2.1396 -1.8427 -0.8767
  158SAPE   H4Y17611   2.397   6.567   6.802  0.5514  1.7960  0.8980
  158SAPE   C3517612   2.537   6.432   6.708  0.1942  0.4869 -0.4168
  158SAPE   H5X17613   2.587   6.387   6.797  0.0480 -0.7324 -0.9297
  158SAPE   H5Y17614   2.613   6.433   6.627 -0.8700  0.8364 -1.4357
  158SAPE   C3617615   2.417   6.343   6.669 -0.3307  0.1903  0.0717
  158SAPE   H6X17616   2.327   6.378   6.725 -1.3299 -0.1946 -1.2477
  158SAPE   H6Y17617   2.433   6.234   6.683 -0.5349  0.1827  0.2535
  158SAPE   C3717618   2.376   6.357   6.524  0.7311  0.8386 -0.3392
  158SAPE   H7X17619   2.323   6.455   6.518 -0.8038  0.0993  0.7343
  158SAPE   H7Y17620   2.290   6.287   6.516 -0.5627  1.6984  3.6222
  158SAPE   C3817621   2.478   6.341   6.418  1.0399  0.4989  0.1880
  158SAPE   H8X17622   2.542   6.250   6.425  0.6827  0.1674 -0.6187
  158SAPE   H8Y17623   2.547   6.428   6.415  0.5941  0.8380 -1.2301
  158SAPE   C3917624   2.402   6.332   6.279 -0.3847  0.5914 -0.4428
  158SAPE   H9X17625   2.337   6.422   6.283  1.7665  2.2393 -0.4796
  158SAPE   H9Y17626   2.350   6.235   6.289 -0.8842  1.0076  1.4022
  158SAPE  C31017627   2.500   6.339   6.158 -0.0333 -0.1012  0.2213
  158SAPE  H10X17628   2.564   6.249   6.172 -2.2887 -1.7694  0.3399
  158SAPE  H10Y17629   2.563   6.431   6.163 -0.2911  0.0064  1.9873
  158SAPE  C31117630   2.430   6.317   6.015  0.0499  0.2703 -0.4505
  158SAPE  H11X17631   2.378   6.219   6.012 -0.1999  0.4283 -1.8795
  158SAPE  H11Y17632   2.510   6.298   5.940  1.3499  1.4726  0.5485
  158SAPE  C31217633   2.332   6.422   5.966  0.0359  0.3683  0.5020
  158SAPE  H12X17634   2.366   6.524   5.993 -1.0676  1.1766 -1.0670
  158SAPE  H12Y17635   2.229   6.424   6.007 -0.3086 -0.3752 -0.2936
  158SAPE  C31317636   2.322   6.419   5.815 -0.0677  0.2890 -0.5155
  158SAPE  H13X17637   2.307   6.315   5.777 -2.7974  1.5346 -3.3930
  158SAPE  H13Y17638   2.418   6.440   5.763 -0.2410  0.8918 -0.6037
  158SAPE  C31417639   2.215   6.525   5.759  0.1677  0.3327  0.0037
  158SAPE  H14X17640   2.234   6.617   5.818 -1.4506  1.5471 -1.2771
  158SAPE  H14Y17641   2.116   6.481   5.785 -0.1605  1.1534  0.1597
  158SAPE  C31517642   2.235   6.543   5.602  0.3627  0.5203  0.3668
  158SAPE  H15X17643   2.343   6.566   5.589  0.1529  1.7036  0.6131
  158SAPE  H15Y17644   2.172   6.626   5.563  1.6018  0.7534 -1.2216
  158SAPE  C31617645   2.187   6.413   5.528  0.3752  0.2909  1.9481
  158SAPE  H16X17646   2.077   6.405   5.542  0.1355  2.0811  1.3816
  158SAPE  H16Y17647   2.243   6.328   5.574 -0.5251 -1.5317 -0.1678
  158SAPE  C31717648   2.224   6.420   5.379 -0.4107  0.0688 -0.5225
  158SAPE  H17X17649   2.332   6.414   5.357 -0.3870  1.8311 -1.0024
  158SAPE  H17Y17650   2.191   6.522   5.350 -0.5795  0.7984  2.0266
  158SAPE  C31817651   2.134   6.325   5.298  0.2205 -0.3243  0.0438
  158SAPE  H18X17652   2.163   6.219   5.309 -1.3028 -0.6106  1.7929
  158SAPE  H18Y17653   2.141   6.339   5.188  2.0437 -1.6303 -0.0428
  158SAPE  H18Z17654   2.029   6.340   5.332 -0.0642 -0.2893 -0.8343
  159SAPE     N17655   1.553   6.257   3.347  0.7344 -0.0580  0.3873
  159SAPE   HN117656   1.490   6.188   3.394  0.6651  0.2256  0.7146
  159SAPE   HN217657   1.650   6.219   3.350  1.6813  1.8674 -2.3424
  159SAPE   HN317658   1.536   6.348   3.393  0.6683  0.9111 -1.4648
  159SAPE   C1217659   1.510   6.274   3.196  0.3681  0.0003  0.3985
  159SAPE  H12A17660   1.427   6.347   3.185 -0.0844 -0.7137 -1.1283
  159SAPE  H12B17661   1.484   6.177   3.151  2.3093  0.2490 -1.4145
  159SAPE   C1117662   1.634   6.320   3.120 -0.1926 -0.1776  0.1279
  159SAPE  H11A17663   1.601   6.354   3.020  2.6533 -2.9574 -1.9824
  159SAPE  H11B17664   1.701   6.233   3.098 -0.7133 -0.6785  0.4815
  159SAPE     P17665   1.705   6.564   3.141 -0.4041 -0.0435 -0.2289
  159SAPE   O1317666   1.811   6.576   3.033 -0.0846 -0.2751 -0.4062
  159SAPE   O1417667   1.565   6.587   3.107  0.1250 -0.1897  0.2487
  159SAPE   O1217668   1.719   6.414   3.193 -0.7513  0.5909  0.2205
  159SAPE   O1117669   1.742   6.651   3.261 -0.2239 -0.5745  0.7320
  159SAPE    C117670   1.858   6.617   3.350  0.1834 -0.1548  0.4722
  159SAPE    HA17671   1.920   6.536   3.307 -1.3559 -1.1664  0.0547
  159SAPE    HB17672   1.913   6.712   3.366 -0.4260  0.5046 -1.1406
  159SAPE    C217673   1.818   6.572   3.488  0.3725  0.1377  0.0206
  159SAPE    HS17674   1.779   6.468   3.479 -0.0016  0.0974  1.6892
  159SAPE   O2117675   1.711   6.653   3.539 -0.3523 -0.1620  0.4994
  159SAPE   C2117676   1.587   6.598   3.537 -0.2290 -0.4047  0.4000
  159SAPE   O2217677   1.553   6.492   3.489  0.2452 -0.6297 -0.4932
  159SAPE   C2217678   1.487   6.702   3.577 -0.0264 -0.4255 -0.5586
  159SAPE   H2R17679   1.547   6.794   3.594 -0.2524 -0.1598 -1.1559
  159SAPE   H2S17680   1.420   6.717   3.490 -1.0497 -0.0112  0.2738
  159SAPE    C317681   1.938   6.570   3.588  0.4283  0.1449  0.3753
  159SAPE    HX17682   1.968   6.671   3.624  1.0642  0.1645 -0.1726
  159SAPE    HY17683   2.027   6.524   3.539  1.4072  0.8562  1.4257
  159SAPE   O3117684   1.904   6.490   3.704  0.4031 -0.5116 -0.0248
  159SAPE   C3117685   1.974   6.505   3.812 -0.0357 -0.7422 -0.3148
  159SAPE   O3217686   2.073   6.578   3.826 -0.1283 -0.3842 -0.1726
  159SAPE   C3217687   1.896   6.439   3.925  0.0220  0.3381  0.3772
  159SAPE   H2X17688   1.881   6.337   3.883 -1.1876 -0.1126  1.8197
  159SAPE   H2Y17689   1.798   6.493   3.927  1.5577  3.6219 -2.4178
  159SAPE   C2317690   1.398   6.669   3.696  0.1663 -0.3869 -1.4008
  159SAPE   H3R17691   1.438   6.624   3.790  0.7517  3.8030  0.5576
  159SAPE   H3S17692   1.320   6.596   3.663  1.8016 -2.8811 -0.0901
  159SAPE   C2417693   1.331   6.794   3.763 -0.4672  0.2105 -0.5120
  159SAPE   H4R17694   1.314   6.865   3.680  0.5857 -0.1885 -1.0932
  159SAPE   H4S17695   1.411   6.838   3.826  0.6227 -0.4786 -1.3710
  159SAPE   C2517696   1.213   6.773   3.853  0.4338  0.6723 -0.4423
  159SAPE   H5R17697   1.130   6.724   3.799  1.1545 -0.3000 -0.6967
  159SAPE   C2617698   1.188   6.829   3.974 -0.1322  0.3929 -0.7479
  159SAPE   H6R17699   1.106   6.781   4.031 -1.0033  0.9608 -1.4921
  159SAPE   C2717700   1.271   6.918   4.057 -0.1729 -0.5461  0.6171
  159SAPE   H7R17701   1.208   7.005   4.086  0.4018  0.3806 -0.8359
  159SAPE   H7S17702   1.357   6.956   3.999  0.1213  1.3617  2.1768
  159SAPE   C2817703   1.330   6.854   4.180  0.4658 -0.4830  0.4078
  159SAPE   H8R17704   1.387   6.763   4.156 -1.9320 -1.7620 -0.9220
  159SAPE   C2917705   1.306   6.883   4.313 -0.3676  0.1870  0.0610
  159SAPE   H9R17706   1.357   6.822   4.389  0.8615  1.0987  0.0007
  159SAPE  C21017707   1.210   6.994   4.353 -1.3106  0.0439 -0.5915
  159SAPE  H10R17708   1.165   6.964   4.450 -0.5732  2.8296  0.7221
  159SAPE  H10S17709   1.129   6.999   4.278 -2.1502 -0.2631  0.2774
  159SAPE  C21117710   1.273   7.125   4.386 -0.0193 -0.3511  0.4269
  159SAPE  H11R17711   1.261   7.200   4.305  1.5634 -0.4018  0.1195
  159SAPE  C21217712   1.355   7.162   4.485 -0.2822 -0.2883 -0.6022
  159SAPE  H12R17713   1.382   7.268   4.485  0.7284 -0.5251  0.0688
  159SAPE  C21317714   1.402   7.084   4.605  0.0034 -0.0356 -0.6400
  159SAPE  H13R17715   1.490   7.131   4.653 -0.0698 -0.3771 -0.1604
  159SAPE  H13S17716   1.431   6.979   4.581 -0.1883 -0.5421  1.1934
  159SAPE  C21417717   1.301   7.091   4.720 -0.3130  0.3631 -0.3023
  159SAPE  H14R17718   1.223   7.167   4.704 -0.9020 -0.5217 -1.8680
  159SAPE  C21517719   1.286   6.991   4.812 -0.0905  0.1154 -1.2300
  159SAPE  H15R17720   1.214   7.015   4.891  0.9946  0.6604 -0.3832
  159SAPE  C21617721   1.377   6.873   4.840 -0.0793 -0.1999  0.7701
  159SAPE  H16R17722   1.450   6.853   4.759  2.6184  2.4516  2.3379
  159SAPE  H16S17723   1.308   6.786   4.846 -1.1267  0.5526  0.1758
  159SAPE  C21717724   1.468   6.879   4.965 -0.0191 -0.3619  0.2461
  159SAPE  H17R17725   1.495   6.775   4.991 -1.7885 -0.6833  0.9659
  159SAPE  H17S17726   1.417   6.916   5.056 -1.7390 -0.7395 -0.5140
  159SAPE  C21817727   1.590   6.968   4.936  0.0214 -0.0337  0.8436
  159SAPE  H18R17728   1.559   7.075   4.931 -1.8307 -0.5707 -1.6234
  159SAPE  H18S17729   1.641   6.937   4.842  0.3859 -2.9034  1.9160
  159SAPE  C21917730   1.691   6.971   5.046 -0.9131 -0.0280  0.4461
  159SAPE  H19R17731   1.780   7.034   5.022 -0.5156 -1.1487 -1.1643
  159SAPE  H19S17732   1.738   6.871   5.058  0.8061  0.6332 -0.3964
  159SAPE  C22017733   1.641   7.032   5.176  0.0511  0.8074  0.5314
  159SAPE  H20R17734   1.720   7.017   5.253 -0.8791 -0.0004  1.3664
  159SAPE  H20S17735   1.548   6.982   5.212 -0.4614  1.1088 -0.3625
  159SAPE  H20T17736   1.615   7.138   5.160  0.4571  0.7127 -0.8367
  159SAPE   C3317737   1.972   6.433   4.050 -0.1723  0.2905 -0.3074
  159SAPE   H3X17738   2.010   6.532   4.082  0.4421  0.5252 -1.6864
  159SAPE   H3Y17739   2.060   6.368   4.031 -0.1056  0.5487 -0.8946
  159SAPE   C3417740   1.887   6.373   4.152 -0.0365  0.0209  0.2966
  159SAPE   H4X17741   1.883   6.263   4.138  0.8198 -0.3878  2.6591
  159SAPE   H4Y17742   1.790   6.425   4.139  0.3403  1.0934  1.5288
  159SAPE   C3517743   1.931   6.398   4.294  0.2763 -0.0700 -0.2743
  159SAPE   H5X17744   1.934   6.507   4.317  0.2214 -0.2318  0.5360
  159SAPE   H5Y17745   2.030   6.352   4.312 -0.7317 -1.7292  1.5067
  159SAPE   C3617746   1.823   6.361   4.406 -0.5306 -0.1535  0.4301
  159SAPE   H6X17747   1.770   6.274   4.363 -1.4495  0.7832 -0.4029
  159SAPE   H6Y17748   1.740   6.435   4.405  1.1390  1.8163  0.7304
  159SAPE   C3717749   1.893   6.346   4.538 -1.0176  0.3485 -0.1272
  159SAPE   H7X17750   1.954   6.438   4.556 -2.2006  0.6885  2.6634
  159SAPE   H7Y17751   1.967   6.267   4.515 -0.5369  0.3180  1.3989
  159SAPE   C3817752   1.794   6.317   4.648  0.3400 -0.3418 -0.1507
  159SAPE   H8X17753   1.733   6.406   4.674 -0.5350 -0.9752  0.0330
  159SAPE   H8Y17754   1.847   6.304   4.745 -0.0181  2.0835  0.4323
  159SAPE   C3917755   1.687   6.206   4.636 -1.0804 -0.4411  0.5421
  159SAPE   H9X17756   1.742   6.112   4.614  1.2425  0.5107  1.9809
  159SAPE   H9Y17757   1.622   6.224   4.547 -0.6123 -1.1928  0.0306
  159SAPE  C31017758   1.606   6.193   4.762  0.4502  0.0958  0.8156
  159SAPE  H10X17759   1.663   6.191   4.857 -0.6928  0.2118  1.5187
  159SAPE  H10Y17760   1.559   6.093   4.757  1.9470 -0.6723  1.5710
  159SAPE  C31117761   1.497   6.301   4.783 -0.1015  0.2633  0.2093
  159SAPE  H11X17762   1.445   6.313   4.686  0.5688  0.6220 -0.1120
  159SAPE  H11Y17763   1.550   6.397   4.801  0.2695 -0.5306  4.3577
  159SAPE  C31217764   1.420   6.292   4.914  0.2897 -0.0796  0.4978
  159SAPE  H12X17765   1.490   6.291   5.001 -0.3736  0.8799  1.0611
  159SAPE  H12Y17766   1.361   6.199   4.921 -0.3554  0.2334 -0.6864
  159SAPE  C31317767   1.324   6.406   4.933 -0.3143 -0.2412 -0.2383
  159SAPE  H13X17768   1.236   6.394   4.867 -0.2172  1.2511 -0.6790
  159SAPE  H13Y17769   1.380   6.496   4.899  1.2087 -1.8448 -2.2448
  159SAPE  C31417770   1.270   6.394   5.077  0.6462  0.3676 -0.1483
  159SAPE  H14X17771   1.356   6.389   5.148 -1.2033 -3.0796  2.1402
  159SAPE  H14Y17772   1.206   6.304   5.085  2.4839 -1.0958 -1.1719
  159SAPE  C31517773   1.184   6.521   5.111  0.5471 -0.1460  0.0629
  159SAPE  H15X17774   1.240   6.616   5.106 -0.0925  0.1771 -1.8768
  159SAPE  H15Y17775   1.156   6.498   5.215  0.5135 -0.9863 -0.1215
  159SAPE  C31617776   1.079   6.541   5.003  0.9550 -0.0051 -0.5050
  159SAPE  H16X17777   1.033   6.445   4.970 -0.3846  0.1342  0.8535
  159SAPE  H16Y17778   1.140   6.576   4.917 -0.4237  2.3782 -0.6231
  159SAPE  C31717779   0.976   6.649   5.050 -0.1105  0.2262  0.2668
  159SAPE  H17X17780   0.908   6.659   4.962  0.7751  1.3619 -0.3144
  159SAPE  H17Y17781   1.025   6.747   5.064  0.6481 -0.0807 -0.1259
  159SAPE  C31817782   0.905   6.614   5.182  0.1675  0.1407 -0.2160
  159SAPE  H18X17783   0.863   6.511   5.181  0.4293 -0.0294  1.9721
  159SAPE  H18Y17784   0.816   6.681   5.184  0.7371  0.9191 -0.5765
  159SAPE  H18Z17785   0.967   6.638   5.270 -0.4291  0.3185  0.1642
  160SAPE     N17786   1.024   4.809   2.586  0.3078 -0.1893  0.7249
  160SAPE   HN117787   1.065   4.753   2.509 -0.2299  0.7082 -0.2499
  160SAPE   HN217788   0.925   4.836   2.568  0.7109  2.3966  1.8904
  160SAPE   HN317789   1.069   4.903   2.585 -0.9410  0.4534 -1.0601
  160SAPE   C1217790   1.023   4.759   2.728 -0.0075 -1.0411  0.5739
  160SAPE  H12A17791   1.127   4.740   2.761  0.3902 -0.1685 -0.1363
  160SAPE  H12B17792   0.967   4.663   2.728 -1.6849 -0.1386 -1.1842
  160SAPE   C1117793   0.957   4.856   2.819 -0.3224 -0.8188 -0.3217
  160SAPE  H11A17794   1.007   4.954   2.809  0.1813 -1.1295 -0.9466
  160SAPE  H11B17795   0.974   4.817   2.921 -0.4589  0.9502  0.4101
  160SAPE     P17796   0.704   4.778   2.852  0.1925  0.0875 -0.0864
  160SAPE   O1317797   0.581   4.817   2.782  0.2724 -0.5582 -0.5296
  160SAPE   O1417798   0.752   4.637   2.838  0.1926 -0.4057  0.1220
  160SAPE   O1217799   0.818   4.879   2.799 -0.2345 -0.9998 -0.0137
  160SAPE   O1117800   0.690   4.802   3.007 -0.0078 -0.0653 -0.1413
  160SAPE    C117801   0.567   4.852   3.065  0.0217  0.4630 -0.6083
  160SAPE    HA17802   0.468   4.846   3.014  0.1278  0.6442 -0.8366
  160SAPE    HB17803   0.543   4.777   3.143 -3.4227 -1.5381 -3.2741
  160SAPE    C217804   0.577   4.993   3.126  0.0966 -0.1107  0.5316
  160SAPE    HS17805   0.590   5.055   3.034 -1.3038 -0.5094  0.0505
  160SAPE   O2117806   0.691   4.999   3.215  0.0049 -0.2281  0.0063
  160SAPE   C2117807   0.744   5.116   3.241  0.3461 -0.4966 -0.0594
  160SAPE   O2217808   0.722   5.224   3.183  0.2472 -0.1528  0.3818
  160SAPE   C2217809   0.837   5.095   3.355 -0.8499 -0.1737  0.1587
  160SAPE   H2R17810   0.813   4.999   3.405  0.7784 -0.0977  1.1447
  160SAPE   H2S17811   0.939   5.076   3.314 -0.6948 -2.3774  1.4023
  160SAPE    C317812   0.447   5.043   3.192  0.0577  0.7727 -0.3916
  160SAPE    HX17813   0.363   5.013   3.126 -2.4126 -0.6199  3.0398
  160SAPE    HY17814   0.451   5.153   3.202  0.8959  0.6476  0.8252
  160SAPE   O3117815   0.409   4.972   3.320  0.3302  0.1711 -0.2643
  160SAPE   C3117816   0.437   5.042   3.428 -0.2030  0.0950 -0.2774
  160SAPE   O3217817   0.507   5.144   3.427  0.0425 -0.0418  0.1703
  160SAPE   C3217818   0.371   4.984   3.552 -0.3904  0.1533 -0.5431
  160SAPE   H2X17819   0.353   4.875   3.541  0.5730  0.0748 -1.6151
  160SAPE   H2Y17820   0.270   5.029   3.560 -2.1706 -3.2840 -1.7382
  160SAPE   C2317821   0.856   5.203   3.463 -0.5329  0.4494 -0.1970
  160SAPE   H3R17822   0.756   5.222   3.507 -0.5667 -1.2271  0.5346
  160SAPE   H3S17823   0.903   5.296   3.424  0.3481  0.7225  1.4188
  160SAPE   C2417824   0.948   5.168   3.587  0.0692  0.7204 -0.6358
  160SAPE   H4R17825   0.976   5.244   3.663  3.3078 -1.8105  0.9905
  160SAPE   H4S17826   1.045   5.130   3.546  1.4747  1.1035  2.1118
  160SAPE   C2517827   0.887   5.055   3.659  0.0746  0.1320 -0.4653
  160SAPE   H5R17828   0.863   4.969   3.594 -0.4635  1.7971 -2.6052
  160SAPE   C2617829   0.858   5.045   3.793 -0.2615 -0.7314 -0.4403
  160SAPE   H6R17830   0.801   4.958   3.828 -0.6292 -0.0160  0.8067
  160SAPE   C2717831   0.874   5.153   3.900 -0.3795  0.2110  0.8945
  160SAPE   H7R17832   0.852   5.252   3.854  0.3146 -0.7430 -1.6571
  160SAPE   H7S17833   0.983   5.154   3.918  0.0157 -1.7113 -0.9640
  160SAPE   C2817834   0.819   5.121   4.034  0.8864  0.6999  0.0099
  160SAPE   H8R17835   0.850   5.020   4.062 -0.7352  0.3120  0.5395
  160SAPE   C2917836   0.744   5.199   4.120  0.0307  0.2065  0.4317
  160SAPE   H9R17837   0.701   5.145   4.206 -0.0332  1.0022  0.9124
  160SAPE  C21017838   0.687   5.336   4.091 -0.1376 -0.2886  0.1660
  160SAPE  H10R17839   0.607   5.330   4.015  2.6246 -0.0673 -3.0068
  160SAPE  H10S17840   0.766   5.401   4.047 -0.4640  0.8094  1.1407
  160SAPE  C21117841   0.624   5.413   4.210  0.1640 -0.6535  0.3458
  160SAPE  H11R17842   0.522   5.385   4.238 -0.0448  1.0110  1.4415
  160SAPE  C21217843   0.694   5.497   4.284 -0.2479 -0.4674  0.1412
  160SAPE  H12R17844   0.649   5.526   4.380  2.0293  1.7614  0.6500
  160SAPE  C21317845   0.839   5.542   4.282  0.3995 -0.2130  0.0842
  160SAPE  H13R17846   0.834   5.653   4.288  1.2835 -0.1868  0.4204
  160SAPE  H13S17847   0.888   5.519   4.185  0.7587 -0.7501  0.3863
  160SAPE  C21417848   0.934   5.491   4.385 -0.0539  0.8219 -0.4985
  160SAPE  H14R17849   0.900   5.425   4.466  1.5294  1.4207  0.7074
  160SAPE  C21517850   1.065   5.534   4.385  0.4626 -0.3262 -0.0349
  160SAPE  H15R17851   1.123   5.492   4.469 -0.3930 -1.8333 -0.1668
  160SAPE  C21617852   1.136   5.628   4.289 -0.0310 -0.2811 -0.3002
  160SAPE  H16R17853   1.156   5.722   4.344  0.2949  0.1703 -1.1572
  160SAPE  H16S17854   1.076   5.646   4.197  2.2171  1.4293 -1.5694
  160SAPE  C21717855   1.271   5.584   4.230  0.4433 -0.3627  0.0039
  160SAPE  H17R17856   1.344   5.558   4.310  1.3169  0.3781 -0.5275
  160SAPE  H17S17857   1.324   5.665   4.175 -0.6000 -0.3448 -1.0033
  160SAPE  C21817858   1.257   5.467   4.130  0.0014 -0.0715  0.0518
  160SAPE  H18R17859   1.201   5.393   4.192 -0.8242  2.4188  2.4683
  160SAPE  H18S17860   1.355   5.423   4.101 -0.7577 -0.7063 -1.7210
  160SAPE  C21917861   1.186   5.507   4.001 -0.8348  0.1198 -0.3514
  160SAPE  H19R17862   1.242   5.597   3.969 -0.1929  1.1572  3.2134
  160SAPE  H19S17863   1.084   5.528   4.040 -0.9810 -2.0180  0.6131
  160SAPE  C22017864   1.170   5.398   3.892  0.9349 -0.3647 -0.3374
  160SAPE  H20R17865   1.256   5.414   3.824  1.5842  0.4951  0.6589
  160SAPE  H20S17866   1.076   5.409   3.835  0.4325  1.1049  0.7089
  160SAPE  H20T17867   1.167   5.294   3.932 -0.0683 -0.9148 -1.7824
  160SAPE   C3317868   0.453   4.997   3.693  0.0467  0.6491 -0.2072
  160SAPE   H3X17869   0.472   5.106   3.697  0.1454  0.6316 -0.1927
  160SAPE   H3Y17870   0.547   4.937   3.684  1.1341  1.4680  3.6992
  160SAPE   C3417871   0.371   4.952   3.813  0.2999  0.2629  0.4708
  160SAPE   H4X17872   0.308   4.860   3.812  0.2258  0.2668 -2.1267
  160SAPE   H4Y17873   0.291   5.029   3.811 -1.6153 -1.6478 -0.9086
  160SAPE   C3517874   0.451   4.968   3.945  0.4396  0.6818 -0.1791
  160SAPE   H5X17875   0.482   5.075   3.950  0.1231  0.7719 -0.1265
  160SAPE   H5Y17876   0.546   4.910   3.941  1.2503  2.0342 -1.3732
  160SAPE   C3617877   0.376   4.918   4.070 -0.1089 -0.2346  0.5241
  160SAPE   H6X17878   0.379   4.808   4.057  0.1873 -0.0484 -1.1409
  160SAPE   H6Y17879   0.268   4.943   4.063  0.1591  0.4868 -2.6404
  160SAPE   C3717880   0.444   4.959   4.205 -0.2865  0.3090 -0.6135
  160SAPE   H7X17881   0.427   5.067   4.223 -1.7397 -0.0145  0.1389
  160SAPE   H7Y17882   0.550   4.930   4.194  0.1308  1.6954 -0.4050
  160SAPE   C3817883   0.384   4.885   4.324  0.7784 -0.1384  0.8140
  160SAPE   H8X17884   0.399   4.776   4.313 -1.7998 -0.6144  1.3809
  160SAPE   H8Y17885   0.274   4.898   4.324  0.4684 -2.0230 -1.9035
  160SAPE   C3917886   0.453   4.931   4.455 -0.2077 -0.0808 -0.1992
  160SAPE   H9X17887   0.455   5.039   4.480  2.0587  0.1807 -1.2468
  160SAPE   H9Y17888   0.561   4.904   4.451 -0.4715 -1.2424  0.2697
  160SAPE  C31017889   0.402   4.852   4.576  0.0158 -0.0104 -1.1432
  160SAPE  H10X17890   0.390   4.747   4.543  0.4677  0.1210 -1.7311
  160SAPE  H10Y17891   0.302   4.897   4.597  0.7769  1.3637 -0.3451
  160SAPE  C31117892   0.486   4.876   4.703  0.1126  0.1165 -0.1576
  160SAPE  H11X17893   0.508   4.982   4.679 -1.3362  0.0834 -1.8421
  160SAPE  H11Y17894   0.581   4.818   4.704  0.1784  0.1213 -2.1892
  160SAPE  C31217895   0.415   4.872   4.838 -0.0360 -0.1388 -0.5592
  160SAPE  H12X17896   0.358   4.778   4.857  0.6442 -0.8409 -1.8605
  160SAPE  H12Y17897   0.336   4.945   4.809 -0.1748 -0.6679 -1.5530
  160SAPE  C31317898   0.517   4.913   4.948  0.1663 -0.8624  0.4874
  160SAPE  H13X17899   0.578   5.000   4.916 -0.5770 -1.1978 -2.0295
  160SAPE  H13Y17900   0.583   4.826   4.968  1.5366  0.2883  1.1254
  160SAPE  C31417901   0.443   4.936   5.082 -0.6831  0.4048 -0.2835
  160SAPE  H14X17902   0.400   4.840   5.116 -0.1421  1.0573  2.4764
  160SAPE  H14Y17903   0.365   5.015   5.071  1.3862  2.3962 -1.3842
  160SAPE  C31517904   0.535   4.979   5.194 -0.5407 -0.1586  0.2616
  160SAPE  H15X17905   0.602   5.056   5.149  0.4664  0.0369  2.0052
  160SAPE  H15Y17906   0.603   4.897   5.224  1.9927  1.1974 -1.3850
  160SAPE  C31617907   0.463   5.034   5.325 -0.0885  0.3768 -0.3436
  160SAPE  H16X17908   0.444   4.948   5.392  1.8100 -0.2287 -0.5107
  160SAPE  H16Y17909   0.370   5.090   5.305 -0.2605  0.6592  1.1202
  160SAPE  C31717910   0.557   5.132   5.398  0.0680  0.0530 -0.0681
  160SAPE  H17X17911   0.632   5.086   5.465 -0.4642  1.7228  1.7789
  160SAPE  H17Y17912   0.479   5.177   5.463 -0.8532 -0.3232 -0.8798
  160SAPE  C31817913   0.616   5.251   5.317 -0.1500 -0.0590  0.2107
  160SAPE  H18X17914   0.546   5.293   5.242 -0.0410 -0.2827 -0.0175
  160SAPE  H18Y17915   0.704   5.219   5.258 -0.8573 -1.0937 -0.2907
  160SAPE  H18Z17916   0.661   5.326   5.386 -1.8102 -0.4623  1.8207
  161SAPE     N17917   1.242   1.691   3.027  0.2513  0.5655  0.6500
  161SAPE   HN117918   1.218   1.617   3.096 -1.0823 -0.7228 -1.1028
  161SAPE   HN217919   1.166   1.761   3.032 -0.6057 -0.3123  0.2943
  161SAPE   HN317920   1.240   1.642   2.936 -0.9419  1.1878  0.3284
  161SAPE   C1217921   1.374   1.759   3.056  0.8721  0.1511  0.1231
  161SAPE  H12A17922   1.394   1.839   2.981 -1.5891  0.8971  0.1604
  161SAPE  H12B17923   1.446   1.674   3.049 -0.4406 -1.1340  1.5175
  161SAPE   C1117924   1.384   1.803   3.202  0.5857  0.3494 -0.0299
  161SAPE  H11A17925   1.480   1.855   3.222  0.7214 -0.2659  0.9838
  161SAPE  H11B17926   1.362   1.718   3.271 -2.0004 -0.8342 -2.0963
  161SAPE     P17927   1.283   2.045   3.199 -0.1955  0.2189  0.5243
  161SAPE   O1317928   1.400   2.064   3.115  0.1237 -0.4957 -0.0071
  161SAPE   O1417929   1.158   2.092   3.144 -0.1828  0.7305 -0.6617
  161SAPE   O1217930   1.275   1.894   3.228  0.5007  0.1317 -0.1345
  161SAPE   O1117931   1.303   2.105   3.340 -0.3234 -0.4609 -0.3046
  161SAPE    C117932   1.331   2.022   3.454 -0.5578 -0.5631  0.5047
  161SAPE    HA17933   1.398   1.941   3.418 -0.9526  0.9308 -4.2342
  161SAPE    HB17934   1.390   2.093   3.516 -1.8146  1.2196 -0.2608
  161SAPE    C217935   1.213   1.971   3.532  0.5432  0.1072  0.5813
  161SAPE    HS17936   1.121   2.018   3.492  1.1517  0.8934  0.0795
  161SAPE   O2117937   1.222   2.005   3.671  0.1320 -0.0488  0.4371
  161SAPE   C2117938   1.111   2.018   3.750 -0.0396 -0.7614 -0.2566
  161SAPE   O2217939   0.998   2.031   3.712  0.0621  0.4588 -0.0621
  161SAPE   C2217940   1.156   2.023   3.891  0.4943 -0.2418 -0.1369
  161SAPE   H2R17941   1.119   1.930   3.940 -0.1771 -0.3873 -0.8997
  161SAPE   H2S17942   1.266   2.007   3.899  0.4295 -0.3151  0.7395
  161SAPE    C317943   1.179   1.820   3.498  0.6052 -0.5480  0.1584
  161SAPE    HX17944   1.278   1.772   3.516  1.5188  1.6687  1.4637
  161SAPE    HY17945   1.160   1.803   3.391  0.1052  1.3945 -0.1020
  161SAPE   O3117946   1.086   1.773   3.592 -0.1765  0.3982  1.1406
  161SAPE   C3117947   0.964   1.763   3.532  0.2094 -0.6853  0.5722
  161SAPE   O3217948   0.938   1.808   3.421  0.8315 -0.2708  0.1173
  161SAPE   C3217949   0.866   1.693   3.627 -0.2322 -0.0041 -0.5438
  161SAPE   H2X17950   0.802   1.639   3.554 -0.2080  0.8253 -1.2016
  161SAPE   H2Y17951   0.803   1.777   3.664 -0.6369 -0.3044 -0.5413
  161SAPE   C2317952   1.116   2.154   3.972  0.1675 -0.2410 -0.1702
  161SAPE   H3R17953   1.006   2.165   3.984 -0.0860 -2.1877 -0.3040
  161SAPE   H3S17954   1.156   2.239   3.913 -0.0681 -0.7026 -1.0108
  161SAPE   C2417955   1.196   2.162   4.107 -0.6354  0.2275 -0.3408
  161SAPE   H4R17956   1.171   2.266   4.137  1.7683  0.2003  2.1176
  161SAPE   H4S17957   1.305   2.169   4.088 -0.4422 -0.1419  0.5672
  161SAPE   C2517958   1.167   2.037   4.191 -0.1245 -0.4699  0.2066
  161SAPE   H5R17959   1.219   1.945   4.161 -2.6696 -2.1770  0.6958
  161SAPE   C2617960   1.109   2.043   4.312 -0.3792 -0.1517 -0.3232
  161SAPE   H6R17961   1.087   1.953   4.371  0.6330 -0.0320  0.2656
  161SAPE   C2717962   1.043   2.168   4.361  0.6433  0.5133  0.1797
  161SAPE   H7R17963   1.025   2.243   4.281 -3.3874 -2.2936 -1.9096
  161SAPE   H7S17964   1.102   2.229   4.433  1.3759 -0.0569  0.0850
  161SAPE   C2817965   0.905   2.134   4.423 -0.7480  0.5448  0.2519
  161SAPE   H8R17966   0.826   2.117   4.348  0.7714 -0.0851 -1.2875
  161SAPE   C2917967   0.884   2.108   4.551  0.1287 -0.1846 -0.3798
  161SAPE   H9R17968   0.782   2.086   4.587 -0.9762  0.2152 -3.0293
  161SAPE  C21017969   0.987   2.117   4.662 -0.9456 -0.1715 -0.2667
  161SAPE  H10R17970   0.940   2.154   4.756  0.5399  2.1712 -0.3729
  161SAPE  H10S17971   1.073   2.187   4.647 -0.2298 -0.7191  1.1129
  161SAPE  C21117972   1.056   1.984   4.686  0.7013  0.5404 -0.2455
  161SAPE  H11R17973   1.052   1.906   4.609  0.8303 -0.3240  0.5994
  161SAPE  C21217974   1.142   1.960   4.789 -0.1274 -0.2417 -0.5191
  161SAPE  H12R17975   1.186   1.859   4.790  0.6153  0.0515 -1.2795
  161SAPE  C21317976   1.179   2.052   4.910 -0.7842  0.0558  0.0059
  161SAPE  H13R17977   1.092   2.120   4.919 -0.3932  0.8451 -1.8378
  161SAPE  H13S17978   1.257   2.123   4.876  1.3803 -1.2547  1.9229
  161SAPE  C21417979   1.209   2.000   5.044 -0.2858 -0.3133  0.8567
  161SAPE  H14R17980   1.119   1.956   5.090 -0.3968 -0.2915  0.6652
  161SAPE  C21517981   1.310   2.015   5.133 -0.4610 -0.1554  0.0919
  161SAPE  H15R17982   1.292   1.966   5.230  0.2368 -0.3228  0.1437
  161SAPE  C21617983   1.441   2.087   5.108  0.1248 -0.3206 -0.1304
  161SAPE  H16R17984   1.432   2.193   5.140 -0.6820 -0.1307 -0.9501
  161SAPE  H16S17985   1.471   2.101   5.002 -1.7854  1.0570 -0.5396
  161SAPE  C21717986   1.544   2.014   5.187 -0.7971  0.2938 -0.1277
  161SAPE  H17R17987   1.558   1.915   5.137  0.5399  0.6857 -0.5744
  161SAPE  H17S17988   1.517   1.989   5.291  1.8528  0.0829  0.5912
  161SAPE  C21817989   1.673   2.090   5.197 -0.3578 -0.5609  0.0920
  161SAPE  H18R17990   1.657   2.183   5.255 -1.0710 -0.8639  0.3949
  161SAPE  H18S17991   1.701   2.106   5.091 -2.7356 -0.7316 -0.6084
  161SAPE  C21917992   1.791   2.011   5.258 -0.2942 -0.5323  0.6082
  161SAPE  H19R17993   1.757   1.906   5.248  0.3455 -0.9817  2.6275
  161SAPE  H19S17994   1.800   2.019   5.369  0.8739 -3.9059  0.8639
  161SAPE  C22017995   1.917   2.036   5.178 -0.3071  0.5675  0.0937
  161SAPE  H20R17996   1.937   2.145   5.191  0.0469  0.6596 -1.1528
  161SAPE  H20S17997   1.900   2.010   5.072 -0.8048 -1.0053  0.5315
  161SAPE  H20T17998   1.995   1.964   5.210 -0.3938 -0.2715 -1.4756
  161SAPE   C3317999   0.925   1.609   3.741 -0.5659 -0.6979  0.8939
  161SAPE   H3X18000   0.992   1.680   3.794 -2.7404  2.2715 -0.0479
  161SAPE   H3Y18001   0.997   1.527   3.722 -0.9036 -0.3956 -2.1118
  161SAPE   C3418002   0.816   1.566   3.839  0.6733 -0.3933  0.6216
  161SAPE   H4X18003   0.786   1.463   3.811 -0.7942 -0.2527  1.5283
  161SAPE   H4Y18004   0.724   1.625   3.819 -1.4992 -3.2868  1.4208
  161SAPE   C3518005   0.846   1.577   3.992 -0.4451 -0.4369  0.1706
  161SAPE   H5X18006   0.945   1.535   4.019 -1.2626 -1.2173  2.1282
  161SAPE   H5Y18007   0.772   1.510   4.042  1.4019 -2.7771 -0.0780
  161SAPE   C3618008   0.830   1.726   4.026  0.0557 -0.2009 -0.2567
  161SAPE   H6X18009   0.726   1.765   4.021  0.3720  0.7071  0.0388
  161SAPE   H6Y18010   0.912   1.768   3.963  3.0564 -1.7997  2.3115
  161SAPE   C3718011   0.875   1.763   4.174 -0.5098  0.4365  0.5436
  161SAPE   H7X18012   0.939   1.853   4.174  1.7877 -1.1079  0.1461
  161SAPE   H7Y18013   0.937   1.678   4.210 -1.7497 -2.1819 -2.9069
  161SAPE   C3818014   0.758   1.783   4.270 -0.2508 -0.1975 -0.5262
  161SAPE   H8X18015   0.683   1.705   4.244  1.7324 -2.2817 -0.3303
  161SAPE   H8Y18016   0.725   1.889   4.260  1.1339  0.4413  1.1439
  161SAPE   C3918017   0.798   1.740   4.421 -0.1137 -0.0132  0.1675
  161SAPE   H9X18018   0.874   1.809   4.462  0.1137 -0.0506 -0.1885
  161SAPE   H9Y18019   0.837   1.636   4.427  0.2074  0.1319  0.6119
  161SAPE  C31018020   0.687   1.745   4.525 -0.5878  0.1536 -0.0936
  161SAPE  H10X18021   0.613   1.668   4.495  1.1381 -2.1596  1.2010
  161SAPE  H10Y18022   0.651   1.849   4.522 -0.3403  0.2327 -0.4578
  161SAPE  C31118023   0.737   1.722   4.673 -0.3669 -0.3749 -0.0420
  161SAPE  H11X18024   0.816   1.799   4.685 -1.0763  0.2402  0.7733
  161SAPE  H11Y18025   0.777   1.619   4.684  1.9214  0.2713 -1.5037
  161SAPE  C31218026   0.622   1.742   4.771 -0.7083 -0.2823 -0.1609
  161SAPE  H12X18027   0.536   1.672   4.766 -0.3567 -0.6382 -1.5224
  161SAPE  H12Y18028   0.571   1.839   4.753  0.6581  0.6217  0.6837
  161SAPE  C31318029   0.682   1.740   4.913 -0.3224  0.2143  0.3823
  161SAPE  H13X18030   0.745   1.831   4.923 -2.1923  1.4796  1.1846
  161SAPE  H13Y18031   0.744   1.651   4.939  0.9306  0.1267 -2.4699
  161SAPE  C31418032   0.576   1.731   5.023  0.7995 -0.3592  0.4281
  161SAPE  H14X18033   0.633   1.721   5.118  4.7552  1.6014 -1.5101
  161SAPE  H14Y18034   0.520   1.637   5.000  1.1242 -0.5878  0.5674
  161SAPE  C31518035   0.488   1.854   5.026  0.0131 -0.1620 -0.4440
  161SAPE  H15X18036   0.420   1.852   4.938  1.2685 -0.5064 -1.4479
  161SAPE  H15Y18037   0.554   1.940   4.999 -1.3348  0.6599 -1.2465
  161SAPE  C31618038   0.410   1.874   5.159 -0.2918 -0.6549  0.4504
  161SAPE  H16X18039   0.347   1.965   5.147 -0.3469 -0.2669  3.2321
  161SAPE  H16Y18040   0.474   1.906   5.244 -1.0410  3.2388 -0.2471
  161SAPE  C31718041   0.328   1.753   5.198  0.3773 -0.6589 -0.3172
  161SAPE  H17X18042   0.385   1.658   5.206  0.8130 -0.2611  1.9670
  161SAPE  H17Y18043   0.259   1.724   5.117 -0.7476  1.2957 -0.1212
  161SAPE  C31818044   0.251   1.774   5.335  0.3999  0.0034 -0.1187
  161SAPE  H18X18045   0.319   1.832   5.400  1.4902  0.3522 -1.5221
  161SAPE  H18Y18046   0.237   1.676   5.384 -0.4412  1.6480  3.2305
  161SAPE  H18Z18047   0.156   1.831   5.325 -0.1382 -0.9366 -0.5273
  162SAPE     N18048   0.527   1.336   3.214 -0.1682  0.0275 -0.4481
  162SAPE   HN118049   0.471   1.294   3.138 -0.2017 -0.9829  0.1195
  162SAPE   HN218050   0.610   1.274   3.223  0.5149  0.4898 -2.7847
  162SAPE   HN318051   0.460   1.331   3.294  0.5274 -0.9438  0.0951
  162SAPE   C1218052   0.592   1.466   3.173 -0.3978 -0.0220 -0.1029
  162SAPE  H12A18053   0.696   1.445   3.143 -0.6952  1.5230 -2.4607
  162SAPE  H12B18054   0.601   1.529   3.265 -4.4214 -0.9286  1.1296
  162SAPE   C1118055   0.509   1.532   3.068 -0.2489 -0.0911 -0.2203
  162SAPE  H11A18056   0.501   1.452   2.992  1.3124 -0.3511 -0.1465
  162SAPE  H11B18057   0.567   1.613   3.019  1.3445 -0.7450  0.5045
  162SAPE     P18058   0.365   1.744   3.142 -0.1030 -0.4642 -0.1384
  162SAPE   O1318059   0.309   1.792   3.015 -0.0854 -0.6547 -0.3666
  162SAPE   O1418060   0.286   1.765   3.265  0.3867  0.1150  0.2814
  162SAPE   O1218061   0.389   1.585   3.128  0.2646  0.4751  0.4093
  162SAPE   O1118062   0.505   1.815   3.169 -0.2145  0.3450  0.2015
  162SAPE    C118063   0.534   1.928   3.251 -0.5555  0.7109 -0.0002
  162SAPE    HA18064   0.610   1.985   3.193 -0.2292 -0.9746 -1.3204
  162SAPE    HB18065   0.444   1.991   3.269 -2.5884 -1.4980 -1.7575
  162SAPE    C218066   0.584   1.889   3.390 -0.9370 -0.9043  0.6121
  162SAPE    HS18067   0.660   1.808   3.381  0.3523  0.4418 -1.5861
  162SAPE   O2118068   0.457   1.861   3.464 -0.5890 -0.3754  0.1284
  162SAPE   C2118069   0.459   1.739   3.515  0.2434  0.7035 -0.6851
  162SAPE   O2218070   0.549   1.660   3.502  0.1531  0.1253  0.1616
  162SAPE   C2218071   0.327   1.704   3.592 -0.8133  0.0499  0.3140
  162SAPE   H2R18072   0.246   1.734   3.522  0.4306  1.1212 -0.7228
  162SAPE   H2S18073   0.318   1.593   3.586  0.3089 -0.0165 -0.6637
  162SAPE    C318074   0.652   2.022   3.461 -0.1763  0.0715 -0.3187
  162SAPE    HX18075   0.583   2.109   3.458  0.4965  0.6392  0.1759
  162SAPE    HY18076   0.735   2.052   3.394 -2.6597  3.1399 -2.2897
  162SAPE   O3118077   0.688   1.995   3.598  0.8709  0.2291  0.2187
  162SAPE   C3118078   0.639   2.074   3.690  0.2397  0.1064  0.5366
  162SAPE   O3218079   0.580   2.176   3.665 -0.0530  0.1541  0.1985
  162SAPE   C3218080   0.666   2.015   3.826  0.2353  0.3415 -0.2233
  162SAPE   H2X18081   0.777   2.013   3.836  0.4000 -1.0184 -1.8673
  162SAPE   H2Y18082   0.629   1.911   3.832  0.4510  0.2849  0.1638
  162SAPE   C2318083   0.299   1.784   3.723 -0.4279  0.5980 -0.1120
  162SAPE   H3R18084   0.333   1.887   3.700  1.0067  0.4005  1.0117
  162SAPE   H3S18085   0.367   1.757   3.806  1.7962  1.0238 -1.7220
  162SAPE   C2418086   0.156   1.781   3.774 -0.0893  0.2576 -0.3830
  162SAPE   H4R18087   0.082   1.787   3.692 -1.5228 -1.7793  0.6691
  162SAPE   H4S18088   0.133   1.880   3.820 -0.6523 -0.6179  1.2982
  162SAPE   C2518089   0.123   1.668   3.862 -0.2406 -0.3796 -0.1737
  162SAPE   H5R18090   0.102   1.574   3.809 -1.1404  0.9519 -2.3127
  162SAPE   C2618091   0.131   1.663   3.995 -0.2969  0.3644  0.1435
  162SAPE   H6R18092   0.102   1.565   4.038  2.2769 -0.5171  0.0137
  162SAPE   C2718093   0.176   1.775   4.088 -0.0228 -0.2575 -0.3423
  162SAPE   H7R18094   0.087   1.808   4.145  0.5058 -0.8440  0.8642
  162SAPE   H7S18095   0.229   1.853   4.029  0.8852  2.0413  3.2395
  162SAPE   C2818096   0.281   1.730   4.185  0.4319 -0.1480 -0.0856
  162SAPE   H8R18097   0.362   1.674   4.135  1.5215  1.3661 -0.0910
  162SAPE   C2918098   0.285   1.750   4.320 -0.3161 -0.3078  0.2024
  162SAPE   H9R18099   0.359   1.691   4.377 -1.7733 -0.0631  2.4869
  162SAPE  C21018100   0.185   1.827   4.409  0.6143  0.3428  0.2687
  162SAPE  H10R18101   0.178   1.927   4.360 -2.1811 -0.0113 -0.1923
  162SAPE  H10S18102   0.227   1.842   4.511  0.2566 -0.3520  0.5193
  162SAPE  C21118103   0.043   1.778   4.414 -0.3489  0.1658  0.4765
  162SAPE  H11R18104   0.008   1.735   4.319 -1.2024 -0.4412  1.0543
  162SAPE  C21218105  -0.033   1.771   4.527 -0.3601 -0.4429  0.1891
  162SAPE  H12R18106  -0.134   1.726   4.527 -1.2713  1.4614 -0.6351
  162SAPE  C21318107   0.006   1.823   4.665  0.1326 -0.7022 -0.5838
  162SAPE  H13R18108   0.107   1.871   4.661 -0.5666  0.8451 -0.4970
  162SAPE  H13S18109   0.019   1.734   4.729  0.3926  0.7408  1.4688
  162SAPE  C21418110  -0.081   1.931   4.725  1.0764 -0.6550  0.3589
  162SAPE  H14R18111  -0.105   2.006   4.648  2.2309 -1.1819 -0.5406
  162SAPE  C21518112  -0.141   1.931   4.846 -0.7160 -0.7765 -0.3943
  162SAPE  H15R18113  -0.205   2.016   4.874 -1.1212 -1.3408  0.4479
  162SAPE  C21618114  -0.119   1.825   4.952  0.3087  0.6679 -0.7536
  162SAPE  H16R18115  -0.049   1.746   4.920 -1.0046 -0.5999 -0.5825
  162SAPE  H16S18116  -0.221   1.781   4.955 -0.3409  2.0451 -1.7362
  162SAPE  C21718117  -0.095   1.864   5.094 -0.1378 -0.5039 -0.1605
  162SAPE  H17R18118  -0.175   1.935   5.122  0.9727  0.3634  0.9279
  162SAPE  H17S18119   0.002   1.917   5.106  0.0047 -0.1197 -2.4799
  162SAPE  C21818120  -0.104   1.745   5.194  0.6136 -0.0441  0.8565
  162SAPE  H18R18121  -0.007   1.691   5.189  0.6632  0.0621  0.5958
  162SAPE  H18S18122  -0.182   1.671   5.166  1.9571 -1.0846 -0.2598
  162SAPE  C21918123  -0.137   1.791   5.339 -0.3929 -1.0536  0.0628
  162SAPE  H19R18124  -0.240   1.833   5.342 -0.4673 -1.2944  1.6161
  162SAPE  H19S18125  -0.058   1.865   5.365  3.1141 -4.7560  0.9351
  162SAPE  C22018126  -0.125   1.683   5.440  0.0600  0.0022  0.4874
  162SAPE  H20R18127  -0.023   1.640   5.434 -0.6005 -1.6426  0.6725
  162SAPE  H20S18128  -0.202   1.604   5.429 -0.1616  0.0978  1.3324
  162SAPE  H20T18129  -0.139   1.723   5.543  3.5151 -2.1437  1.9749
  162SAPE   C3318130   0.594   2.101   3.936  0.3860 -0.2124  0.1874
  162SAPE   H3X18131   0.492   2.128   3.902  1.7201  3.2243 -1.6021
  162SAPE   H3Y18132   0.648   2.197   3.949 -0.1309  0.0005  0.8527
  162SAPE   C3418133   0.594   2.049   4.078  0.0282  0.9039  0.0055
  162SAPE   H4X18134   0.696   2.069   4.118  0.7712  0.5382 -1.6331
  162SAPE   H4Y18135   0.583   1.939   4.067 -0.8419  1.1974 -2.4797
  162SAPE   C3518136   0.490   2.121   4.159  0.1448  0.4774  0.2976
  162SAPE   H5X18137   0.394   2.079   4.123  0.7521 -2.5674  1.9582
  162SAPE   H5Y18138   0.495   2.231   4.142  0.6795  0.2839 -0.9540
  162SAPE   C3618139   0.502   2.081   4.301  0.3152 -0.0036  0.1500
  162SAPE   H6X18140   0.603   2.108   4.339  0.6964  0.2394 -1.0191
  162SAPE   H6Y18141   0.482   1.972   4.292 -1.0161  0.3237 -1.1987
  162SAPE   C3718142   0.391   2.144   4.385 -0.0520 -0.7673 -0.1954
  162SAPE   H7X18143   0.289   2.115   4.351  0.0610 -1.0419 -0.3088
  162SAPE   H7Y18144   0.398   2.254   4.393  0.5577 -0.8261  0.1282
  162SAPE   C3818145   0.393   2.093   4.526 -0.4160 -0.0478 -0.1893
  162SAPE   H8X18146   0.484   2.121   4.583 -0.9425 -0.6303  0.9714
  162SAPE   H8Y18147   0.379   1.983   4.521  2.8762 -0.5604 -0.5195
  162SAPE   C3918148   0.281   2.161   4.607 -0.1250 -0.2876 -0.0849
  162SAPE   H9X18149   0.181   2.133   4.566 -0.3489  1.7631 -1.0866
  162SAPE   H9Y18150   0.275   2.271   4.591 -0.1466 -0.4361 -1.2000
  162SAPE  C31018151   0.290   2.130   4.756 -0.9098 -0.1555 -0.6867
  162SAPE  H10X18152   0.374   2.192   4.796 -1.0472  0.1034 -0.7936
  162SAPE  H10Y18153   0.309   2.021   4.767  0.8479 -0.2998 -3.8818
  162SAPE  C31118154   0.168   2.170   4.845 -0.0254  0.3182 -0.4680
  162SAPE  H11X18155   0.199   2.166   4.952 -0.6966 -0.2050 -0.2888
  162SAPE  H11Y18156   0.081   2.103   4.826 -0.4162  0.8032 -0.4106
  162SAPE  C31218157   0.109   2.309   4.814  0.2221 -0.3566  0.3514
  162SAPE  H12X18158   0.082   2.306   4.706  0.8952  0.1965  0.1579
  162SAPE  H12Y18159   0.182   2.392   4.821 -0.3008  0.3041 -1.4470
  162SAPE  C31318160  -0.017   2.336   4.891 -0.0033  0.3382  0.0554
  162SAPE  H13X18161  -0.097   2.281   4.837  0.6073 -0.6350  0.1233
  162SAPE  H13Y18162  -0.034   2.445   4.881  2.7703  0.7904 -0.6612
  162SAPE  C31418163  -0.031   2.277   5.036  0.3034  0.3587  0.1842
  162SAPE  H14X18164   0.056   2.315   5.094  0.5581  0.8322 -0.4903
  162SAPE  H14Y18165  -0.020   2.167   5.030 -0.9440  0.2805 -0.8422
  162SAPE  C31518166  -0.159   2.307   5.110  0.3546 -0.0339 -0.5098
  162SAPE  H15X18167  -0.162   2.414   5.140  0.3607 -0.1533 -0.0759
  162SAPE  H15Y18168  -0.153   2.253   5.206 -0.1739  1.7272  0.5604
  162SAPE  C31618169  -0.289   2.266   5.038  0.7728 -0.2297  0.3617
  162SAPE  H16X18170  -0.279   2.174   4.976 -0.2428  0.1753 -0.4276
  162SAPE  H16Y18171  -0.295   2.337   4.953 -1.3325 -1.3560 -0.5130
  162SAPE  C31718172  -0.415   2.284   5.127 -0.1284  0.3999  0.7110
  162SAPE  H17X18173  -0.506   2.248   5.074 -1.1708  0.5025  2.3674
  162SAPE  H17Y18174  -0.431   2.394   5.139 -1.5143  0.3122 -0.0996
  162SAPE  C31818175  -0.425   2.221   5.266  0.1264 -0.3967 -0.5938
  162SAPE  H18X18176  -0.346   2.262   5.332 -0.6459 -0.6466  0.5150
  162SAPE  H18Y18177  -0.396   2.114   5.269 -0.3332 -0.5112  1.8582
  162SAPE  H18Z18178  -0.529   2.225   5.304  0.0698 -0.9666 -0.6756
  163SAPE     N18179   6.555   1.517   2.963 -1.1460  0.1578  0.3947
  163SAPE   HN118180   6.539   1.424   3.005  0.5984 -0.3937 -0.0946
  163SAPE   HN218181   6.620   1.499   2.884 -0.6875  1.2008  0.5240
  163SAPE   HN318182   6.613   1.579   3.023 -0.3648  0.4188 -0.6030
  163SAPE   C1218183   6.430   1.592   2.929  0.3208 -0.0833  1.0433
  163SAPE  H12A18184   6.352   1.531   2.880  1.6413 -0.9213 -0.0909
  163SAPE  H12B18185   6.460   1.682   2.870 -0.4430 -0.4560  0.0529
  163SAPE   C1118186   6.361   1.644   3.055 -0.1710  0.1317 -0.4158
  163SAPE  H11A18187   6.328   1.569   3.129  2.2722 -0.0284  0.6037
  163SAPE  H11B18188   6.276   1.712   3.035 -0.0980  0.9977  1.9474
  163SAPE     P18189   6.430   1.776   3.276 -0.1030  0.1252  0.1683
  163SAPE   O1318190   6.539   1.874   3.303  0.1588  0.1511  0.1696
  163SAPE   O1418191   6.290   1.837   3.287 -0.3414 -0.4091  0.3252
  163SAPE   O1218192   6.458   1.723   3.130  0.2974 -0.3053 -0.3403
  163SAPE   O1118193   6.454   1.637   3.349  0.1932  0.7816 -0.0115
  163SAPE    C118194   6.577   1.564   3.376 -0.0178 -0.7635  1.3993
  163SAPE    HA18195   6.589   1.473   3.313  1.7904 -0.1458  0.7987
  163SAPE    HB18196   6.663   1.627   3.344  0.6520 -2.4609 -0.3654
  163SAPE    C218197   6.586   1.537   3.526  0.3480  0.2546  0.1825
  163SAPE    HS18198   6.496   1.480   3.558 -0.2776  0.8102 -0.5507
  163SAPE   O2118199   6.619   1.664   3.589  0.5668  0.4670  0.1012
  163SAPE   C2118200   6.521   1.712   3.665  0.0387  0.4119  0.6969
  163SAPE   O2218201   6.411   1.659   3.681 -0.4428 -0.2133 -0.5363
  163SAPE   C2218202   6.575   1.841   3.729  0.5076 -0.2121 -0.2203
  163SAPE   H2R18203   6.658   1.818   3.800 -0.6335  1.0265  1.5878
  163SAPE   H2S18204   6.606   1.911   3.649 -2.3365  3.1669  1.3967
  163SAPE    C318205   6.708   1.441   3.552 -0.4894 -0.2956  0.7674
  163SAPE    HX18206   6.796   1.508   3.545 -0.4567 -0.4816 -0.9946
  163SAPE    HY18207   6.722   1.366   3.472 -3.4524  1.3250 -1.4663
  163SAPE   O3118208   6.701   1.386   3.685  0.5029  0.1187  0.1091
  163SAPE   C3118209   6.808   1.336   3.738  0.2132 -0.2112 -0.1186
  163SAPE   O3218210   6.920   1.339   3.696 -0.2948  0.1422  0.0935
  163SAPE   C3218211   6.772   1.253   3.861 -0.5127 -0.3591  0.3896
  163SAPE   H2X18212   6.856   1.255   3.934  0.5584  0.7510 -0.8165
  163SAPE   H2Y18213   6.760   1.150   3.822 -2.2394  0.1890 -0.6388
  163SAPE   C2318214   6.469   1.908   3.819 -0.5483  0.5960  0.3900
  163SAPE   H3R18215   6.369   1.906   3.770  0.8792 -3.2416 -2.9457
  163SAPE   H3S18216   6.505   2.010   3.844 -0.2314  0.9430 -1.3254
  163SAPE   C2418217   6.455   1.820   3.953 -0.0861  0.0247  0.1391
  163SAPE   H4R18218   6.453   1.712   3.929 -3.0709 -0.0249  0.2845
  163SAPE   H4S18219   6.356   1.841   3.998  0.2504 -0.9131  1.3352
  163SAPE   C2518220   6.568   1.836   4.058 -0.3611 -0.3682  0.1360
  163SAPE   H5R18221   6.666   1.826   4.009 -2.0826 -2.3722 -3.2526
  163SAPE   C2618222   6.561   1.852   4.188  0.2488 -0.8121  0.1128
  163SAPE   H6R18223   6.651   1.865   4.250  0.9354 -1.1525 -0.7910
  163SAPE   C2718224   6.433   1.873   4.269 -0.1330 -0.2948 -0.5633
  163SAPE   H7R18225   6.450   1.825   4.368  0.0757 -0.6147 -0.7518
  163SAPE   H7S18226   6.349   1.824   4.215 -1.2120  0.2873  0.5255
  163SAPE   C2818227   6.410   2.022   4.282 -0.5711  0.4669 -0.1225
  163SAPE   H8R18228   6.406   2.071   4.183  0.1124  1.0984  0.1520
  163SAPE   C2918229   6.373   2.092   4.394  0.4794  0.5544  0.0055
  163SAPE   H9R18230   6.360   2.201   4.387  0.1562  0.7609  2.7508
  163SAPE  C21018231   6.343   2.037   4.528 -0.0967 -0.7509  0.0755
  163SAPE  H10R18232   6.397   1.942   4.548 -0.0378 -0.4079  1.6942
  163SAPE  H10S18233   6.235   2.009   4.530 -0.3096 -0.1502  3.2575
  163SAPE  C21118234   6.375   2.134   4.639  0.5618 -0.3654  0.2659
  163SAPE  H11R18235   6.426   2.226   4.608 -1.0082  0.7513  0.8591
  163SAPE  C21218236   6.344   2.121   4.766 -0.0493  0.3364 -0.3684
  163SAPE  H12R18237   6.375   2.198   4.838  2.5835  0.3154 -1.3566
  163SAPE  C21318238   6.260   2.013   4.837  0.0186 -0.3976  0.4544
  163SAPE  H13R18239   6.312   1.971   4.926  1.2918 -1.2434 -0.6375
  163SAPE  H13S18240   6.257   1.925   4.770 -0.0430 -1.8573  2.2874
  163SAPE  C21418241   6.118   2.054   4.860  0.1418  0.0173  0.5207
  163SAPE  H14R18242   6.071   2.145   4.821  1.3020  1.6447  2.6808
  163SAPE  C21518243   6.034   2.000   4.950  0.2486  0.0697  0.0339
  163SAPE  H15R18244   5.927   2.023   4.956  0.1681 -0.2970  0.0154
  163SAPE  C21618245   6.070   1.873   5.024  0.2726  0.0221 -0.2428
  163SAPE  H16R18246   6.112   1.798   4.953  0.8465  0.3112 -0.2121
  163SAPE  H16S18247   5.978   1.821   5.058  1.4550 -1.2909  1.1549
  163SAPE  C21718248   6.149   1.886   5.156 -0.4617 -0.1704 -0.6605
  163SAPE  H17R18249   6.082   1.934   5.230  0.6330  0.5554 -0.1174
  163SAPE  H17S18250   6.243   1.944   5.158  0.0796 -0.9324 -2.0663
  163SAPE  C21818251   6.170   1.746   5.223 -0.6257  0.1003 -0.4052
  163SAPE  H18R18252   6.220   1.671   5.158 -1.7483 -0.9242 -0.1319
  163SAPE  H18S18253   6.072   1.697   5.243 -1.5883  2.4208  1.0605
  163SAPE  C21918254   6.252   1.748   5.354  0.2556 -0.3520  0.8282
  163SAPE  H19R18255   6.216   1.825   5.425 -1.9209 -0.5573  0.0109
  163SAPE  H19S18256   6.351   1.786   5.320 -0.1924  0.5020  0.4429
  163SAPE  C22018257   6.262   1.614   5.423  0.3897  0.4280  0.0692
  163SAPE  H20R18258   6.344   1.613   5.498 -1.4197 -0.0197  2.1656
  163SAPE  H20S18259   6.271   1.530   5.351 -1.8117  0.4769 -0.3496
  163SAPE  H20T18260   6.163   1.605   5.473  0.1503 -0.7950 -0.5980
  163SAPE   C3318261   6.643   1.296   3.938  0.4245  0.1920 -0.8377
  163SAPE   H3X18262   6.560   1.258   3.874 -0.3725  0.0003  0.2888
  163SAPE   H3Y18263   6.617   1.403   3.920 -3.0770 -0.0558  1.8089
  163SAPE   C3418264   6.631   1.263   4.084 -0.0711  0.3228 -0.4129
  163SAPE   H4X18265   6.663   1.156   4.074  1.4875  0.9040 -2.4459
  163SAPE   H4Y18266   6.536   1.286   4.135  0.0914 -0.7054  0.3883
  163SAPE   C3518267   6.737   1.336   4.168  0.0790  0.3162 -0.3749
  163SAPE   H5X18268   6.706   1.442   4.154  0.8858  0.6381  0.1571
  163SAPE   H5Y18269   6.843   1.331   4.134  0.0483  0.1988 -0.4542
  163SAPE   C3618270   6.735   1.291   4.311  0.3220  0.9323  0.1704
  163SAPE   H6X18271   6.754   1.182   4.303  0.4839  0.9414  0.4284
  163SAPE   H6Y18272   6.636   1.299   4.361  1.0516  0.5272  1.7491
  163SAPE   C3718273   6.846   1.350   4.402  0.3551 -0.1121 -0.2598
  163SAPE   H7X18274   6.812   1.455   4.416 -2.2698 -1.1738  2.3303
  163SAPE   H7Y18275   6.940   1.353   4.342 -0.0652 -2.1470 -1.0877
  163SAPE   C3818276   6.841   1.279   4.536 -0.2496 -0.4028 -0.3341
  163SAPE   H8X18277   6.914   1.196   4.534  0.1557 -0.0605 -2.9749
  163SAPE   H8Y18278   6.750   1.216   4.549 -1.0594  1.0790  1.6350
  163SAPE   C3918279   6.859   1.367   4.659 -1.0379  0.7749  0.6990
  163SAPE   H9X18280   6.935   1.444   4.633 -0.1658 -1.2543 -3.5510
  163SAPE   H9Y18281   6.906   1.299   4.733  1.1345  0.9072 -0.4844
  163SAPE  C31018282   6.728   1.423   4.718  0.0364  0.7984  0.2679
  163SAPE  H10X18283   6.630   1.420   4.666 -0.0661  0.1950  0.4860
  163SAPE  H10Y18284   6.766   1.527   4.725  0.8936  0.5676 -0.6291
  163SAPE  C31118285   6.696   1.349   4.852 -0.1217  0.0100 -0.0641
  163SAPE  H11X18286   6.717   1.242   4.837 -0.1339 -0.1559  1.0285
  163SAPE  H11Y18287   6.592   1.365   4.887 -0.5090 -2.1264 -0.1199
  163SAPE  C31218288   6.776   1.392   4.971 -0.4908 -0.3096  0.5334
  163SAPE  H12X18289   6.754   1.498   4.999  0.2654  0.1884 -0.6678
  163SAPE  H12Y18290   6.885   1.383   4.952 -0.3794 -0.4103  1.1858
  163SAPE  C31318291   6.745   1.300   5.096 -0.1175 -0.4832 -0.5007
  163SAPE  H13X18292   6.789   1.200   5.075 -2.0074 -1.6329  0.6785
  163SAPE  H13Y18293   6.636   1.293   5.117 -0.2195 -3.9562 -1.5549
  163SAPE  C31418294   6.815   1.361   5.222  0.6290  0.7685  0.6964
  163SAPE  H14X18295   6.758   1.450   5.257  0.6388  0.1791  2.2863
  163SAPE  H14Y18296   6.920   1.386   5.194  0.5485 -0.9407 -1.4088
  163SAPE  C31518297   6.841   1.262   5.339 -0.2808  1.0861  0.2909
  163SAPE  H15X18298   6.749   1.237   5.396  1.0957 -0.2661  2.0363
  163SAPE  H15Y18299   6.913   1.319   5.401  1.2220 -0.2273 -0.1996
  163SAPE  C31618300   6.900   1.130   5.293 -0.1244  0.8693  0.0663
  163SAPE  H16X18301   6.990   1.138   5.229  0.4304  3.0940  1.0268
  163SAPE  H16Y18302   6.821   1.082   5.232 -0.3189  0.4602  0.6330
  163SAPE  C31718303   6.937   1.043   5.415 -0.1989 -0.5402 -0.5774
  163SAPE  H17X18304   6.862   1.057   5.496  0.4009 -2.9725  0.4827
  163SAPE  H17Y18305   7.034   1.089   5.444 -0.1901  0.3463 -1.9353
  163SAPE  C31818306   6.960   0.900   5.377  0.1938 -0.2634 -0.5362
  163SAPE  H18X18307   6.972   0.849   5.475 -1.8292  1.1559  0.5339
  163SAPE  H18Y18308   7.054   0.892   5.319 -0.7739 -0.9546 -2.0805
  163SAPE  H18Z18309   6.883   0.855   5.311  1.4135 -0.0284 -2.1796
  164SAPE     N18310   3.805   0.053   3.233  0.0573 -0.9623 -0.4845
  164SAPE   HN118311   3.808   0.154   3.207  1.7024  0.2524  3.6094
  164SAPE   HN218312   3.828   0.001   3.147 -2.7503 -1.2786 -1.1461
  164SAPE   HN318313   3.703   0.046   3.253 -0.6371  1.5426 -2.6147
  164SAPE   C1218314   3.887   0.032   3.359  0.4101  0.0973  0.3347
  164SAPE  H12A18315   3.994   0.025   3.328  0.1768  0.1177 -0.5102
  164SAPE  H12B18316   3.855  -0.066   3.401 -2.4311  0.8082  0.0415
  164SAPE   C1118317   3.856   0.134   3.475 -0.2344  0.1361 -0.1145
  164SAPE  H11A18318   3.942   0.118   3.543 -0.7705 -1.6016  0.1886
  164SAPE  H11B18319   3.757   0.098   3.513  0.7981 -1.9017  0.7912
  164SAPE     P18320   3.750   0.362   3.471 -0.0710  0.6262  0.2385
  164SAPE   O1318321   3.792   0.490   3.414 -0.1863  0.6064 -0.4147
  164SAPE   O1418322   3.615   0.314   3.430 -0.1928 -0.2133  0.2679
  164SAPE   O1218323   3.864   0.269   3.435  0.9642 -0.0111  0.0334
  164SAPE   O1118324   3.769   0.369   3.630  0.4514  0.5030 -0.6803
  164SAPE    C118325   3.676   0.309   3.723 -0.1747  0.5663  0.0024
  164SAPE    HA18326   3.580   0.364   3.733  0.1493  1.1937 -0.2837
  164SAPE    HB18327   3.648   0.209   3.685  1.6595 -0.6102  1.5691
  164SAPE    C218328   3.747   0.293   3.858  0.1953 -0.3446 -0.9888
  164SAPE    HS18329   3.686   0.222   3.918 -1.3605  0.5273 -1.4885
  164SAPE   O2118330   3.770   0.416   3.924  0.0220  0.0070  0.1048
  164SAPE   C2118331   3.660   0.456   3.987  0.0172 -0.0495  0.9849
  164SAPE   O2218332   3.556   0.396   4.002 -0.0261  0.1968  0.1356
  164SAPE   C2218333   3.692   0.593   4.049  0.6031  0.0829 -0.8230
  164SAPE   H2R18334   3.802   0.593   4.069  0.5420 -0.8468 -0.4239
  164SAPE   H2S18335   3.657   0.664   3.971  0.7615 -1.6386 -2.5460
  164SAPE    C318336   3.884   0.221   3.849  0.1830  0.0457 -0.3598
  164SAPE    HX18337   3.965   0.288   3.811 -0.7654  1.8407  0.6208
  164SAPE    HY18338   3.884   0.137   3.777 -1.2504 -1.2210  1.0387
  164SAPE   O3118339   3.915   0.178   3.986 -0.4117  0.3295 -0.0873
  164SAPE   C3118340   3.859   0.068   4.026  0.6313  0.5246  0.3878
  164SAPE   O3218341   3.794  -0.004   3.952 -0.0611  0.7056 -0.3331
  164SAPE   C3218342   3.906   0.034   4.168  0.0525  0.3781  0.6799
  164SAPE   H2X18343   3.981   0.107   4.207  0.4805 -0.3095  1.1678
  164SAPE   H2Y18344   3.956  -0.064   4.155  0.8523  0.9012 -0.2858
  164SAPE   C2318345   3.609   0.614   4.182 -2.0683 -0.2904  0.2820
  164SAPE   H3R18346   3.506   0.579   4.160 -1.9454 -0.1089 -0.6094
  164SAPE   H3S18347   3.598   0.724   4.194  0.2117 -0.0345  0.4656
  164SAPE   C2418348   3.682   0.558   4.310 -0.1388 -0.8271 -0.0991
  164SAPE   H4R18349   3.709   0.451   4.297 -1.8783 -1.3830  0.5827
  164SAPE   H4S18350   3.615   0.557   4.399  0.3858 -1.7869  0.2951
  164SAPE   C2518351   3.810   0.624   4.331 -0.0999 -1.3928 -0.7740
  164SAPE   H5R18352   3.882   0.626   4.248  0.6167 -1.3475 -0.1609
  164SAPE   C2618353   3.844   0.685   4.446 -0.1459 -0.5693  0.5475
  164SAPE   H6R18354   3.944   0.732   4.446 -0.0998 -0.6289 -1.0381
  164SAPE   C2718355   3.763   0.688   4.578  0.2201 -0.0536  0.5225
  164SAPE   H7R18356   3.715   0.589   4.592 -0.3422 -0.0165 -1.0256
  164SAPE   H7S18357   3.682   0.761   4.553 -0.9406 -1.0565  1.2485
  164SAPE   C2818358   3.853   0.713   4.693  0.5316  0.0533  0.3766
  164SAPE   H8R18359   3.942   0.649   4.685  0.5676 -0.0440  1.4130
  164SAPE   C2918360   3.843   0.808   4.786  0.4202 -0.4133 -0.5167
  164SAPE   H9R18361   3.932   0.811   4.852 -0.7090  1.2451  1.0450
  164SAPE  C21018362   3.740   0.915   4.800  0.1653 -0.5113 -0.0265
  164SAPE  H10R18363   3.667   0.879   4.876 -0.1222  0.4279  0.1454
  164SAPE  H10S18364   3.678   0.922   4.708 -1.5049 -0.4090  1.0646
  164SAPE  C21118365   3.810   1.044   4.835 -0.2119 -0.1585  0.8835
  164SAPE  H11R18366   3.882   1.089   4.765  0.3201 -0.6537  1.1032
  164SAPE  C21218367   3.793   1.118   4.937 -0.0909  0.2010  0.0183
  164SAPE  H12R18368   3.847   1.214   4.943  0.5974  0.1183 -3.1213
  164SAPE  C21318369   3.695   1.093   5.048  0.3206 -0.3050  0.0255
  164SAPE  H13R18370   3.730   1.124   5.148 -1.6820 -0.7214  0.9014
  164SAPE  H13S18371   3.691   0.982   5.060  1.7179 -0.7035 -2.4609
  164SAPE  C21418372   3.559   1.140   5.004  0.3901 -0.3145  0.1779
  164SAPE  H14R18373   3.518   1.091   4.915  1.5288 -2.0640  0.5651
  164SAPE  C21518374   3.488   1.244   5.061 -0.2935 -0.1966  1.1839
  164SAPE  H15R18375   3.396   1.266   5.005  0.4249  1.5822  0.6245
  164SAPE  C21618376   3.531   1.341   5.168 -0.4564 -0.3197 -0.2290
  164SAPE  H16R18377   3.622   1.304   5.219 -1.2713  0.5054  1.8957
  164SAPE  H16S18378   3.441   1.346   5.233 -1.7902 -0.2764 -1.9745
  164SAPE  C21718379   3.553   1.493   5.126  0.6586  0.7014 -0.4999
  164SAPE  H17R18380   3.476   1.521   5.051 -0.9088  0.0289  0.7914
  164SAPE  H17S18381   3.647   1.505   5.069 -0.0704 -0.4654 -2.0354
  164SAPE  C21818382   3.547   1.583   5.249  0.9459 -0.0787  0.5146
  164SAPE  H18R18383   3.629   1.557   5.320  0.4914  0.8897  1.4133
  164SAPE  H18S18384   3.449   1.570   5.300  1.2556 -1.5564  0.7797
  164SAPE  C21918385   3.578   1.739   5.208 -0.2267  0.7410  0.1448
  164SAPE  H19R18386   3.567   1.802   5.299 -1.3707  0.4028  0.2485
  164SAPE  H19S18387   3.499   1.762   5.134 -1.4598  2.8739  1.9800
  164SAPE  C22018388   3.726   1.749   5.160 -0.3526  0.0330  0.2866
  164SAPE  H20R18389   3.793   1.713   5.241  0.9280 -0.3292 -0.8969
  164SAPE  H20S18390   3.757   1.856   5.159  1.3741 -0.4104  1.8828
  164SAPE  H20T18391   3.751   1.709   5.059  3.6363  0.3191  0.9928
  164SAPE   C3318392   3.787   0.017   4.263  0.4524  0.2519  0.1390
  164SAPE   H3X18393   3.824  -0.055   4.338 -2.0098 -0.2043  1.0158
  164SAPE   H3Y18394   3.701  -0.032   4.212  2.2184 -2.7076 -0.2198
  164SAPE   C3418395   3.748   0.152   4.326  0.2609 -0.0834 -0.9096
  164SAPE   H4X18396   3.694   0.206   4.245 -0.4281  0.6873  0.0414
  164SAPE   H4Y18397   3.831   0.218   4.359  1.4316 -1.0934 -1.7230
  164SAPE   C3518398   3.664   0.130   4.456  0.2296 -0.0222 -0.3318
  164SAPE   H5X18399   3.714   0.059   4.525  0.5377 -0.0217 -0.5513
  164SAPE   H5Y18400   3.566   0.081   4.440  1.2112 -1.3676 -2.7633
  164SAPE   C3618401   3.642   0.263   4.530  0.6446  0.1925  0.5020
  164SAPE   H6X18402   3.582   0.327   4.463  0.7037  0.0718  0.3324
  164SAPE   H6Y18403   3.733   0.321   4.554  0.4795  0.7517 -0.2082
  164SAPE   C3718404   3.558   0.248   4.660  0.3085 -0.6157  0.4757
  164SAPE   H7X18405   3.596   0.166   4.725  1.5129 -0.8724 -0.5300
  164SAPE   H7Y18406   3.451   0.219   4.645  0.1936 -0.2572  0.5884
  164SAPE   C3818407   3.557   0.371   4.747 -0.9060 -0.6210  0.1900
  164SAPE   H8X18408   3.499   0.451   4.697 -0.7668 -0.8220 -0.2985
  164SAPE   H8Y18409   3.663   0.406   4.753 -0.3271 -2.0105 -1.2318
  164SAPE   C3918410   3.496   0.340   4.885  0.0267 -0.2670 -0.4901
  164SAPE   H9X18411   3.546   0.252   4.930 -0.7880  0.1716  1.3806
  164SAPE   H9Y18412   3.388   0.315   4.872 -0.0247  0.1980 -0.9732
  164SAPE  C31018413   3.494   0.450   4.992  0.6492  0.7858 -0.4268
  164SAPE  H10X18414   3.440   0.417   5.083  0.5269  0.8966 -0.4579
  164SAPE  H10Y18415   3.430   0.538   4.968 -3.5100 -1.7509  0.4016
  164SAPE  C31118416   3.643   0.479   5.019 -0.1605 -0.4578  0.4161
  164SAPE  H11X18417   3.697   0.529   4.935  0.5344  0.0512  1.1468
  164SAPE  H11Y18418   3.699   0.385   5.037  0.7097  0.2692  1.6973
  164SAPE  C31218419   3.655   0.578   5.143 -0.0263 -0.3353  0.4224
  164SAPE  H12X18420   3.585   0.551   5.225  0.1087  1.3084  1.1096
  164SAPE  H12Y18421   3.622   0.681   5.117 -2.1044 -0.9688  0.3548
  164SAPE  C31318422   3.800   0.589   5.195 -0.9382  0.0992  0.2447
  164SAPE  H13X18423   3.856   0.493   5.196 -1.5625 -0.2723  0.1067
  164SAPE  H13Y18424   3.797   0.625   5.300  1.5795  0.4369  0.2718
  164SAPE  C31418425   3.883   0.686   5.106  0.2241  0.4600  0.4911
  164SAPE  H14X18426   3.842   0.788   5.121  1.2110  1.1024 -0.9239
  164SAPE  H14Y18427   3.876   0.638   5.006  0.4597  0.5552  0.4262
  164SAPE  C31518428   4.030   0.671   5.150 -0.3196 -0.4947 -0.2419
  164SAPE  H15X18429   4.057   0.564   5.135 -1.2924 -0.8448  0.3842
  164SAPE  H15Y18430   4.036   0.712   5.253 -3.4002  2.1157 -0.9628
  164SAPE  C31618431   4.128   0.758   5.067 -0.3221  0.1892  0.5293
  164SAPE  H16X18432   4.129   0.716   4.964 -0.1768 -1.0420  1.0141
  164SAPE  H16Y18433   4.225   0.748   5.119 -0.2943  1.1760  0.6864
  164SAPE  C31718434   4.101   0.907   5.070  0.5010  0.2687  0.6042
  164SAPE  H17X18435   4.120   0.952   5.171  0.8068 -0.7397  1.0114
  164SAPE  H17Y18436   3.998   0.936   5.044  0.6960 -0.5636 -1.1964
  164SAPE  C31818437   4.194   0.987   4.973 -0.5906 -0.1200  0.2213
  164SAPE  H18X18438   4.178   1.096   4.979 -2.0153 -0.2808 -0.3643
  164SAPE  H18Y18439   4.182   0.954   4.868  1.9667  1.3011 -0.6025
  164SAPE  H18Z18440   4.299   0.958   4.995 -1.1533 -1.0462  1.9022
  165SAPE     N18441   2.917   2.649   2.946 -0.2903 -0.7414  0.3065
  165SAPE   HN118442   2.940   2.749   2.967  0.8145 -1.2921  1.9042
  165SAPE   HN218443   2.985   2.594   3.003  1.1001  0.6760  0.0768
  165SAPE   HN318444   2.936   2.619   2.849  1.4428 -2.3713  1.0704
  165SAPE   C1218445   2.779   2.605   2.988  0.1867 -0.3771 -0.7993
  165SAPE  H12A18446   2.704   2.680   2.954  0.8297  1.2895  1.2324
  165SAPE  H12B18447   2.774   2.600   3.099 -0.3015 -3.1578 -0.8761
  165SAPE   C1118448   2.742   2.468   2.935 -0.5143 -0.4046 -0.5143
  165SAPE  H11A18449   2.741   2.482   2.824  0.6088  0.3449 -0.4430
  165SAPE  H11B18450   2.638   2.441   2.964 -0.6466  0.0703 -0.5285
  165SAPE     P18451   2.808   2.232   3.029  0.1990  0.2914  0.3655
  165SAPE   O1318452   2.741   2.164   2.915 -0.5689 -0.2149  0.0336
  165SAPE   O1418453   2.919   2.171   3.102  0.4750 -0.2766  0.4407
  165SAPE   O1218454   2.847   2.379   2.979  0.0498  0.4954 -0.0752
  165SAPE   O1118455   2.699   2.261   3.138  0.1248 -0.0949  0.2370
  165SAPE    C118456   2.700   2.206   3.269  0.3386  0.3751 -0.0706
  165SAPE    HA18457   2.596   2.193   3.304  0.9396  2.7961  2.9860
  165SAPE    HB18458   2.761   2.113   3.269  2.7422  1.8257  1.7052
  165SAPE    C218459   2.772   2.294   3.384  0.3541 -0.6249 -0.3627
  165SAPE    HS18460   2.877   2.312   3.351  0.4538  1.0407  0.7484
  165SAPE   O2118461   2.773   2.234   3.512 -0.7702  0.2508  0.0562
  165SAPE   C2118462   2.807   2.108   3.527  0.4277  1.3655 -1.0792
  165SAPE   O2218463   2.869   2.036   3.449 -0.0237  0.5064  0.5081
  165SAPE   C2218464   2.769   2.062   3.671 -0.9464  0.8545 -0.5076
  165SAPE   H2R18465   2.831   2.123   3.741 -0.3788 -0.1940 -0.0788
  165SAPE   H2S18466   2.662   2.087   3.682 -0.5867  1.7041  1.3486
  165SAPE    C318467   2.719   2.443   3.399  0.7314  0.2419 -0.3389
  165SAPE    HX18468   2.618   2.421   3.442 -0.2535  0.9698 -2.1624
  165SAPE    HY18469   2.714   2.497   3.303  1.4045  2.3621  0.7633
  165SAPE   O3118470   2.783   2.509   3.508  0.2734  0.2709 -0.0637
  165SAPE   C3118471   2.905   2.564   3.481  0.1281 -0.0520 -0.1271
  165SAPE   O3218472   2.952   2.571   3.372 -0.3190 -0.3782 -0.0462
  165SAPE   C3218473   2.968   2.632   3.603 -0.3941 -0.2486  0.5065
  165SAPE   H2X18474   2.959   2.735   3.563  1.6715 -0.4869 -0.6551
  165SAPE   H2Y18475   3.075   2.604   3.601 -0.7974 -1.9632 -2.3283
  165SAPE   C2318476   2.788   1.914   3.704 -0.0668  0.2664 -0.2153
  165SAPE   H3R18477   2.893   1.886   3.680  0.3627  2.1760 -0.7088
  165SAPE   H3S18478   2.718   1.844   3.653  0.3823 -1.0167  0.8437
  165SAPE   C2418479   2.775   1.901   3.861  0.3285 -0.4262 -0.3406
  165SAPE   H4R18480   2.843   1.974   3.910  0.4308 -1.9974  1.9988
  165SAPE   H4S18481   2.821   1.803   3.888 -1.4795 -1.0269  0.7357
  165SAPE   C2518482   2.631   1.912   3.921 -0.1155  1.2658  0.4239
  165SAPE   H5R18483   2.588   1.811   3.929 -1.0904  1.4711 -1.4778
  165SAPE   C2618484   2.579   2.013   3.987 -0.6305 -1.4549 -0.5854
  165SAPE   H6R18485   2.485   1.987   4.037 -0.9190 -0.2568 -0.4617
  165SAPE   C2718486   2.639   2.150   4.009 -0.0598 -0.0854  0.1238
  165SAPE   H7R18487   2.665   2.183   3.906 -0.3939  0.2895  0.1586
  165SAPE   H7S18488   2.734   2.139   4.066 -0.4087  1.2871  1.0273
  165SAPE   C2818489   2.564   2.262   4.084  0.1995 -0.1841  0.3754
  165SAPE   H8R18490   2.500   2.333   4.028  0.5206 -0.6064 -0.5430
  165SAPE   C2918491   2.555   2.270   4.214  0.6010 -0.0166  0.1598
  165SAPE   H9R18492   2.505   2.358   4.256  2.4690  1.1280  0.1115
  165SAPE  C21018493   2.620   2.163   4.305  0.2868 -0.3724  0.7436
  165SAPE  H10R18494   2.695   2.229   4.354 -0.5415  4.0205 -3.2454
  165SAPE  H10S18495   2.685   2.087   4.257 -1.3323 -2.3524  1.4934
  165SAPE  C21118496   2.518   2.105   4.397 -0.5788 -1.1366 -0.0731
  165SAPE  H11R18497   2.424   2.078   4.346 -0.5843 -2.7502  0.7377
  165SAPE  C21218498   2.515   2.099   4.528 -0.6179 -0.7989 -0.6495
  165SAPE  H12R18499   2.439   2.035   4.574 -1.8216  1.8423  1.3352
  165SAPE  C21318500   2.630   2.146   4.623  0.2736  0.1997 -0.1497
  165SAPE  H13R18501   2.721   2.157   4.560 -0.4836  0.3870 -1.2191
  165SAPE  H13S18502   2.653   2.064   4.695  2.3428  2.3316  1.8031
  165SAPE  C21418503   2.582   2.274   4.685 -0.0793 -0.6723 -0.3650
  165SAPE  H14R18504   2.524   2.338   4.616 -0.3867 -2.3170 -1.7009
  165SAPE  C21518505   2.607   2.316   4.815  0.9063  0.2335  0.2784
  165SAPE  H15R18506   2.560   2.409   4.849  1.9920  0.6335  0.7327
  165SAPE  C21618507   2.688   2.242   4.920 -0.1054 -0.2361  0.0120
  165SAPE  H16R18508   2.721   2.144   4.878 -1.9645 -0.5611 -0.7997
  165SAPE  H16S18509   2.624   2.223   5.009 -1.4640 -0.2317 -0.9251
  165SAPE  C21718510   2.815   2.319   4.968  0.5177  0.5731 -0.1092
  165SAPE  H17R18511   2.862   2.249   5.041  1.8315  0.6563 -0.8488
  165SAPE  H17S18512   2.784   2.416   5.012  1.2170  1.4333 -1.4535
  165SAPE  C21818513   2.929   2.338   4.859  0.3239 -0.0015 -0.3659
  165SAPE  H18R18514   2.895   2.411   4.783 -0.7246 -0.7549 -0.6348
  165SAPE  H18S18515   2.961   2.244   4.809  1.0447  0.4240 -0.7242
  165SAPE  C21918516   3.050   2.394   4.923 -0.1908  0.8113 -0.3934
  165SAPE  H19R18517   3.090   2.322   4.997 -1.8739 -0.4040 -0.5898
  165SAPE  H19S18518   3.030   2.489   4.976 -2.2427  1.6330 -2.4772
  165SAPE  C22018519   3.162   2.424   4.819 -0.0036 -0.0340  0.1963
  165SAPE  H20R18520   3.140   2.520   4.768  1.0056 -0.5088 -1.1904
  165SAPE  H20S18521   3.179   2.348   4.741  0.0876  0.2406 -0.0530
  165SAPE  H20T18522   3.254   2.444   4.879  0.0995 -0.9469  0.3487
  165SAPE   C3318523   2.883   2.627   3.737  0.4083 -0.4837 -1.0898
  165SAPE   H3X18524   2.779   2.662   3.721 -0.9215 -3.6447 -0.1404
  165SAPE   H3Y18525   2.932   2.704   3.800 -1.1712 -0.2041 -0.1559
  165SAPE   C3418526   2.888   2.495   3.808  0.7936  0.1514 -0.6382
  165SAPE   H4X18527   2.993   2.475   3.838  1.1976 -0.5705 -2.3974
  165SAPE   H4Y18528   2.855   2.406   3.751 -0.3367 -1.2435  2.0048
  165SAPE   C3518529   2.792   2.485   3.935  0.0953  0.1384  0.5023
  165SAPE   H5X18530   2.795   2.378   3.964  1.4096  0.2118  0.7378
  165SAPE   H5Y18531   2.693   2.522   3.902 -0.2063 -0.4675  0.7250
  165SAPE   C3618532   2.832   2.576   4.053  1.4750  0.3062  0.1028
  165SAPE   H6X18533   2.824   2.679   4.011 -0.0234 -0.1123 -0.7183
  165SAPE   H6Y18534   2.935   2.551   4.086  0.9606 -0.7715  0.9335
  165SAPE   C3718535   2.738   2.587   4.179  0.0055  0.1800 -0.0733
  165SAPE   H7X18536   2.751   2.490   4.233  1.6992  0.4016 -0.0420
  165SAPE   H7Y18537   2.631   2.602   4.152  0.3017 -0.1522 -1.5275
  165SAPE   C3818538   2.789   2.707   4.269 -0.2693 -0.3194 -0.4930
  165SAPE   H8X18539   2.710   2.708   4.347  0.0252 -1.0644 -0.1768
  165SAPE   H8Y18540   2.776   2.802   4.213  0.7638 -0.0204 -0.2517
  165SAPE   C3918541   2.928   2.687   4.328 -0.4547  0.3708 -0.2102
  165SAPE   H9X18542   2.994   2.679   4.239  0.0960  1.9864  0.0152
  165SAPE   H9Y18543   2.918   2.593   4.387 -1.0500  0.2077 -0.5689
  165SAPE  C31018544   2.986   2.803   4.409  0.5046 -0.2876  0.5885
  165SAPE  H10X18545   3.005   2.890   4.344 -0.8898 -0.7449 -0.4708
  165SAPE  H10Y18546   3.082   2.774   4.457  2.1231  3.0187 -0.3584
  165SAPE  C31118547   2.890   2.849   4.528 -0.1388  0.3187  0.3621
  165SAPE  H11X18548   2.791   2.878   4.485 -1.3824 -1.0126  2.1934
  165SAPE  H11Y18549   2.937   2.936   4.578 -1.1365  0.4294  1.1500
  165SAPE  C31218550   2.860   2.735   4.622 -0.0306 -0.2057  0.4165
  165SAPE  H12X18551   2.955   2.696   4.664 -0.4824 -3.2461 -1.0323
  165SAPE  H12Y18552   2.799   2.669   4.555 -1.4094  1.0449  0.3922
  165SAPE  C31318553   2.776   2.791   4.742  0.1518 -0.0183 -0.7749
  165SAPE  H13X18554   2.710   2.873   4.709  0.5491 -0.1163 -1.8406
  165SAPE  H13Y18555   2.853   2.827   4.814  1.4194 -1.5073 -1.3303
  165SAPE  C31418556   2.697   2.680   4.821  0.3826 -0.4401  1.4117
  165SAPE  H14X18557   2.758   2.588   4.836  1.3481  0.1739  1.3246
  165SAPE  H14Y18558   2.617   2.648   4.752  0.8778  1.0608  0.0867
  165SAPE  C31518559   2.632   2.730   4.951 -0.6973  0.8862 -0.0730
  165SAPE  H15X18560   2.563   2.815   4.937  0.2088  1.6627  0.1048
  165SAPE  H15Y18561   2.711   2.772   5.017 -1.5594  2.1427  0.1785
  165SAPE  C31618562   2.550   2.623   5.028  0.4103 -0.3102  0.5109
  165SAPE  H16X18563   2.614   2.533   5.043  0.5842 -1.0609 -3.4785
  165SAPE  H16Y18564   2.486   2.572   4.952  2.2663  0.1579 -1.4774
  165SAPE  C31718565   2.475   2.666   5.158  1.0341 -0.4494 -0.4472
  165SAPE  H17X18566   2.406   2.752   5.148 -0.6576 -1.4834  1.5586
  165SAPE  H17Y18567   2.561   2.688   5.223  1.4336  0.0212 -1.1150
  165SAPE  C31818568   2.386   2.552   5.204  0.2907  0.3585  0.2779
  165SAPE  H18X18569   2.457   2.468   5.215 -0.1883  0.0465  1.0540
  165SAPE  H18Y18570   2.302   2.530   5.134 -0.6291 -2.8758  2.1841
  165SAPE  H18Z18571   2.329   2.569   5.298 -2.3340 -1.7774 -0.7889
  166SAPE     N18572   3.829   1.573   3.158  0.4313  0.4383  0.2343
  166SAPE   HN118573   3.875   1.646   3.099  0.1605  1.0597  0.7697
  166SAPE   HN218574   3.757   1.625   3.212 -0.2882 -0.5438  0.2550
  166SAPE   HN318575   3.902   1.522   3.210  0.1370 -0.7657 -0.4868
  166SAPE   C1218576   3.753   1.479   3.064  0.0388  0.1342 -0.3419
  166SAPE  H12A18577   3.754   1.378   3.111 -2.4746  0.6062  0.9246
  166SAPE  H12B18578   3.797   1.477   2.963 -0.9390 -2.1006 -0.7719
  166SAPE   C1118579   3.602   1.527   3.051  0.0098  0.4943 -0.2275
  166SAPE  H11A18580   3.546   1.483   3.136 -0.2539 -0.8167 -1.0458
  166SAPE  H11B18581   3.560   1.480   2.959  1.4613  0.2855 -0.8120
  166SAPE     P18582   3.483   1.754   2.986 -0.4305 -0.0029 -0.2273
  166SAPE   O1318583   3.548   1.878   2.949 -0.3655  0.0898 -0.0465
  166SAPE   O1418584   3.432   1.662   2.877 -0.1854 -0.7769  0.7919
  166SAPE   O1218585   3.594   1.671   3.066 -0.2239  0.2864 -0.1726
  166SAPE   O1118586   3.363   1.780   3.088  0.0134  0.0700 -0.0220
  166SAPE    C118587   3.379   1.876   3.193  0.2868  0.4451 -0.2072
  166SAPE    HA18588   3.387   1.977   3.148 -4.2932  1.4615  0.7438
  166SAPE    HB18589   3.285   1.883   3.252  0.6317  2.5960  0.1608
  166SAPE    C218590   3.491   1.851   3.297  0.9440  0.1972  0.4444
  166SAPE    HS18591   3.592   1.854   3.252  1.6476 -1.2443  1.8342
  166SAPE   O2118592   3.460   1.721   3.356  0.7296 -0.3193  0.2644
  166SAPE   C2118593   3.571   1.660   3.398  0.2775  0.3183  0.2019
  166SAPE   O2218594   3.683   1.688   3.368  0.2970 -0.0415  0.0200
  166SAPE   C2218595   3.533   1.543   3.490  0.0298  0.6299 -0.1986
  166SAPE   H2R18596   3.462   1.593   3.559  0.6535  0.1086  0.8362
  166SAPE   H2S18597   3.484   1.463   3.430 -0.2423 -0.3168  1.2530
  166SAPE    C318598   3.479   1.969   3.410  1.2050  0.0745  0.3187
  166SAPE    HX18599   3.374   2.000   3.425  0.5070 -0.8172 -2.1400
  166SAPE    HY18600   3.531   2.061   3.379 -0.7105  0.3168 -2.5529
  166SAPE   O3118601   3.529   1.919   3.537  0.0789 -0.5247 -0.5836
  166SAPE   C3118602   3.546   2.008   3.633  0.2122  0.6294 -0.1189
  166SAPE   O3218603   3.539   2.135   3.621  0.8956  0.6820  0.3045
  166SAPE   C3218604   3.593   1.941   3.756 -0.5803 -0.5889  0.3971
  166SAPE   H2X18605   3.699   1.911   3.739 -0.7771 -0.6800 -0.7440
  166SAPE   H2Y18606   3.533   1.849   3.773 -0.2648 -0.7170  0.8561
  166SAPE   C2318607   3.647   1.479   3.569  0.3367 -0.4788  0.1831
  166SAPE   H3R18608   3.734   1.446   3.508 -0.3056 -1.9022  0.0174
  166SAPE   H3S18609   3.615   1.383   3.614  0.8860 -0.1453  1.3456
  166SAPE   C2418610   3.694   1.569   3.680 -0.4658 -0.3038 -0.7216
  166SAPE   H4R18611   3.605   1.608   3.734  0.2329  0.9460 -0.4200
  166SAPE   H4S18612   3.754   1.647   3.628  2.2832 -1.5020  0.4891
  166SAPE   C2518613   3.793   1.496   3.769  0.5175  0.3231 -0.2943
  166SAPE   H5R18614   3.879   1.450   3.718  2.3793  2.4155  0.7735
  166SAPE   C2618615   3.779   1.474   3.905 -0.0624 -0.3701 -0.1425
  166SAPE   H6R18616   3.865   1.422   3.950 -0.0487  0.4034  0.7694
  166SAPE   C2718617   3.664   1.522   3.994  0.0771  0.6684  0.1013
  166SAPE   H7R18618   3.573   1.491   3.938 -0.7795  1.6025  0.9418
  166SAPE   H7S18619   3.665   1.633   3.999  1.9915  0.6250  2.5513
  166SAPE   C2818620   3.659   1.462   4.132 -0.1186  0.8476  0.4918
  166SAPE   H8R18621   3.713   1.370   4.158  0.8010  1.4146  0.6767
  166SAPE   C2918622   3.573   1.497   4.225  0.7690 -0.7179 -0.3816
  166SAPE   H9R18623   3.585   1.458   4.327  3.3962  0.5362 -0.1264
  166SAPE  C21018624   3.469   1.607   4.214  0.2389  0.6189  0.1559
  166SAPE  H10R18625   3.478   1.661   4.117 -1.0569 -0.3354 -0.5374
  166SAPE  H10S18626   3.484   1.688   4.289 -3.1900  2.1029 -0.5422
  166SAPE  C21118627   3.323   1.568   4.218  0.3877 -0.9654 -0.2095
  166SAPE  H11R18628   3.299   1.462   4.201  1.0594 -1.1116 -0.2851
  166SAPE  C21218629   3.226   1.655   4.246 -0.3224 -0.4412 -0.0956
  166SAPE  H12R18630   3.121   1.622   4.237 -1.1447  2.0123 -0.2878
  166SAPE  C21318631   3.248   1.800   4.286  0.3539  0.7451  0.2084
  166SAPE  H13R18632   3.326   1.840   4.218 -1.1081  0.2604 -1.8443
  166SAPE  H13S18633   3.275   1.792   4.393  2.0698 -1.1102 -0.2964
  166SAPE  C21418634   3.131   1.897   4.276 -0.1850 -1.3130  0.3570
  166SAPE  H14R18635   3.101   1.938   4.179  0.0255 -0.4606  0.6420
  166SAPE  C21518636   3.050   1.939   4.382 -0.8763 -0.7111 -0.2396
  166SAPE  H15R18637   2.976   2.016   4.358  2.0929  3.0977  1.6614
  166SAPE  C21618638   3.056   1.902   4.527  0.4449 -0.0749 -0.7479
  166SAPE  H16R18639   3.102   1.802   4.543 -0.4399 -0.3758 -0.0195
  166SAPE  H16S18640   2.952   1.898   4.565  1.6143 -0.6646  2.7301
  166SAPE  C21718641   3.111   2.006   4.629 -0.2468  0.2475  0.6557
  166SAPE  H17R18642   3.058   2.103   4.620 -0.9111  0.2105  3.2916
  166SAPE  H17S18643   3.215   2.010   4.590 -0.3732 -1.9551 -0.0684
  166SAPE  C21818644   3.113   1.961   4.771 -0.7720  0.4436 -0.4736
  166SAPE  H18R18645   3.124   1.850   4.766 -0.1935  0.5420 -2.2712
  166SAPE  H18S18646   3.013   1.985   4.812  0.1195  1.4726  1.1791
  166SAPE  C21918647   3.224   2.021   4.856  0.0359 -0.2235 -0.2954
  166SAPE  H19R18648   3.202   2.130   4.859  2.2569  0.2302  0.9628
  166SAPE  H19S18649   3.316   2.003   4.796 -0.9589 -2.0767 -1.3672
  166SAPE  C22018650   3.235   1.979   5.007  0.0249 -0.2613  0.0078
  166SAPE  H20R18651   3.257   1.870   5.015 -1.4373 -0.9357 -3.2177
  166SAPE  H20S18652   3.142   2.000   5.065  1.5598  2.7645  1.5966
  166SAPE  H20T18653   3.328   2.029   5.041  0.8510 -1.0174 -1.0509
  166SAPE   C3318654   3.573   2.030   3.881  0.1792 -0.4854 -0.3659
  166SAPE   H3X18655   3.480   2.090   3.888 -0.4471 -1.4189 -0.5664
  166SAPE   H3Y18656   3.652   2.108   3.877  0.1266 -0.4102  0.0035
  166SAPE   C3418657   3.587   1.951   4.012 -0.5072 -0.3855  0.6400
  166SAPE   H4X18658   3.669   1.877   3.996  0.9988  1.2708  0.4069
  166SAPE   H4Y18659   3.501   1.895   4.053  1.0313 -0.6148  3.8554
  166SAPE   C3518660   3.631   2.044   4.124 -0.3715 -0.2571  0.2782
  166SAPE   H5X18661   3.700   2.115   4.073  0.0882 -1.0626 -0.2261
  166SAPE   H5Y18662   3.690   1.995   4.204 -0.0932  1.1445  0.9761
  166SAPE   C3618663   3.516   2.132   4.171  0.4892  0.2555  0.0727
  166SAPE   H6X18664   3.434   2.057   4.180  2.2341 -1.5969  1.7748
  166SAPE   H6Y18665   3.492   2.205   4.092  3.5279 -0.0256 -1.2635
  166SAPE   C3718666   3.541   2.199   4.301  0.4295 -0.6123  0.1771
  166SAPE   H7X18667   3.447   2.256   4.317  0.6160 -0.2361 -0.0427
  166SAPE   H7Y18668   3.623   2.272   4.281 -0.0767 -0.5247 -1.6862
  166SAPE   C3818669   3.571   2.118   4.429  0.7081  0.2155  0.7782
  166SAPE   H8X18670   3.557   2.179   4.521 -1.8632 -0.4691  0.9234
  166SAPE   H8Y18671   3.673   2.076   4.423  0.5676 -0.1196  0.7160
  166SAPE   C3918672   3.482   1.997   4.453  0.6238 -0.5257  0.0346
  166SAPE   H9X18673   3.487   1.934   4.362 -0.5844  0.5073 -0.7863
  166SAPE   H9Y18674   3.376   2.032   4.457  1.8675  3.6766  2.2856
  166SAPE  C31018675   3.511   1.933   4.592 -0.3384 -0.2792  0.2484
  166SAPE  H10X18676   3.472   2.006   4.667  0.3539  1.3143 -0.8988
  166SAPE  H10Y18677   3.620   1.926   4.614  0.3238  3.6798 -1.0240
  166SAPE  C31118678   3.435   1.798   4.614 -0.1201  0.7315 -0.2713
  166SAPE  H11X18679   3.449   1.725   4.532  1.0922  0.0727  0.4924
  166SAPE  H11Y18680   3.325   1.812   4.624 -0.0061  0.2993  1.8939
  166SAPE  C31218681   3.488   1.734   4.743  0.6109  0.2454 -0.6903
  166SAPE  H12X18682   3.406   1.681   4.796  0.6772  1.0916  0.2845
  166SAPE  H12Y18683   3.508   1.818   4.812  0.1849  1.6770 -2.2319
  166SAPE  C31318684   3.617   1.648   4.731 -0.7938  0.1681  0.1984
  166SAPE  H13X18685   3.651   1.614   4.832  2.1415  1.5292 -0.2101
  166SAPE  H13Y18686   3.698   1.712   4.689  1.2145 -1.2980  1.5974
  166SAPE  C31418687   3.589   1.517   4.659 -0.1248 -0.3513 -0.2498
  166SAPE  H14X18688   3.684   1.460   4.670  1.1033  1.6747  0.1148
  166SAPE  H14Y18689   3.594   1.544   4.551  0.4375  0.2111 -0.0866
  166SAPE  C31518690   3.467   1.433   4.695 -0.2709  0.5408  0.0012
  166SAPE  H15X18691   3.373   1.454   4.641 -1.4810 -3.0483  0.4327
  166SAPE  H15Y18692   3.436   1.453   4.800  0.4464  1.5419  0.0350
  166SAPE  C31618693   3.493   1.279   4.685 -0.5506 -0.6508  0.5301
  166SAPE  H16X18694   3.405   1.228   4.731 -1.6286 -0.7674 -1.5675
  166SAPE  H16Y18695   3.592   1.268   4.734 -0.4477 -1.1216  0.2244
  166SAPE  C31718696   3.503   1.232   4.534  0.6667 -0.6001  0.1547
  166SAPE  H17X18697   3.598   1.264   4.486  1.2641 -4.4015 -1.5863
  166SAPE  H17Y18698   3.422   1.282   4.477 -0.0750  0.4523  2.0458
  166SAPE  C31818699   3.481   1.085   4.515 -0.0999 -0.6723  0.1926
  166SAPE  H18X18700   3.394   1.056   4.577  0.4100 -1.5185  0.5179
  166SAPE  H18Y18701   3.573   1.027   4.534  0.6019  0.4452  0.3055
  166SAPE  H18Z18702   3.448   1.075   4.409  1.4219 -0.4410 -0.3176
  167SAPE     N18703   2.036   6.697   2.964  0.5196  0.0283 -0.0163
  167SAPE   HN118704   2.065   6.710   3.063  0.2170 -2.8765  0.5423
  167SAPE   HN218705   2.035   6.782   2.905  2.0461  0.2882  0.2729
  167SAPE   HN318706   1.943   6.653   2.979 -0.3563  1.1790 -1.8182
  167SAPE   C1218707   2.126   6.605   2.893  0.0448  0.4746  0.0699
  167SAPE  H12A18708   2.199   6.669   2.839 -1.3550  1.2066 -1.0128
  167SAPE  H12B18709   2.062   6.537   2.833  2.9972 -1.8827 -0.6629
  167SAPE   C1118710   2.193   6.495   2.980 -0.2006  1.1065 -0.1883
  167SAPE  H11A18711   2.284   6.538   3.025 -0.8614  1.7163  0.5923
  167SAPE  H11B18712   2.218   6.415   2.907  1.2222  2.3895 -1.1763
  167SAPE     P18713   2.168   6.380   3.212 -0.1421  0.4640  0.4427
  167SAPE   O1318714   2.213   6.500   3.280 -0.1215 -0.0406 -0.5028
  167SAPE   O1418715   2.069   6.292   3.278  0.0702 -0.3297 -0.0193
  167SAPE   O1218716   2.102   6.432   3.073  0.4821 -0.5784 -0.7447
  167SAPE   O1118717   2.296   6.297   3.172  0.2046 -0.0200  0.0961
  167SAPE    C118718   2.420   6.312   3.247  0.1850 -0.4074 -0.6373
  167SAPE    HA18719   2.505   6.270   3.189 -1.0571 -0.9543 -2.1262
  167SAPE    HB18720   2.453   6.417   3.264  1.0174 -0.7386 -0.1235
  167SAPE    C218721   2.419   6.239   3.386 -0.1303  0.1203  0.7730
  167SAPE    HS18722   2.395   6.134   3.358  1.9942 -0.4443  0.8463
  167SAPE   O2118723   2.309   6.281   3.470 -0.0399 -0.1714 -0.0339
  167SAPE   C2118724   2.241   6.191   3.545 -0.4133  0.1912  0.0834
  167SAPE   O2218725   2.259   6.068   3.543  0.6134 -0.5975  0.5417
  167SAPE   C2218726   2.146   6.268   3.641 -0.1900 -0.8525 -0.7123
  167SAPE   H2R18727   2.171   6.376   3.632  2.3995 -0.9285  3.1143
  167SAPE   H2S18728   2.039   6.251   3.614 -0.5293  0.6784 -0.4297
  167SAPE    C318729   2.558   6.241   3.461 -0.3424 -0.3467  0.3125
  167SAPE    HX18730   2.603   6.342   3.462 -0.0793 -0.4636  1.7816
  167SAPE    HY18731   2.623   6.179   3.394  0.1911  1.3059 -0.7743
  167SAPE   O3118732   2.551   6.197   3.599 -0.3012 -0.6405 -0.8732
  167SAPE   C3118733   2.675   6.195   3.657 -1.1627  0.2090  0.3279
  167SAPE   O3218734   2.779   6.202   3.591  0.3703  0.3878 -0.5882
  167SAPE   C3218735   2.677   6.185   3.812  0.2768 -0.1889 -0.1675
  167SAPE   H2X18736   2.574   6.153   3.838  0.4664 -1.6999 -1.1560
  167SAPE   H2Y18737   2.683   6.289   3.851  0.6151 -0.6214  0.9720
  167SAPE   C2318738   2.158   6.210   3.788  0.4777  0.4648  0.2726
  167SAPE   H3R18739   2.132   6.102   3.793  1.2386  0.2351 -0.4100
  167SAPE   H3S18740   2.087   6.261   3.855  1.2081  1.7252  0.1117
  167SAPE   C2418741   2.297   6.236   3.854 -0.1510 -0.2517 -0.6011
  167SAPE   H4R18742   2.368   6.178   3.791  1.9982  0.4519  1.0559
  167SAPE   H4S18743   2.301   6.196   3.958  0.3334 -0.4112 -0.6798
  167SAPE   C2518744   2.336   6.380   3.855  0.0785 -0.6974  1.0054
  167SAPE   H5R18745   2.340   6.415   3.751 -1.8607 -2.4668  0.2649
  167SAPE   C2618746   2.351   6.468   3.958 -0.0357  0.4670  0.2347
  167SAPE   H6R18747   2.377   6.572   3.932  0.9044 -0.1588 -1.5291
  167SAPE   C2718748   2.332   6.424   4.102  0.4028  0.4214 -0.0335
  167SAPE   H7R18749   2.252   6.349   4.120 -0.3460  1.1285 -0.3348
  167SAPE   H7S18750   2.301   6.514   4.160  1.3276  1.5195 -1.1749
  167SAPE   C2818751   2.461   6.391   4.165  0.3607 -0.2107 -0.0950
  167SAPE   H8R18752   2.545   6.385   4.094 -0.5024  1.1638 -1.2946
  167SAPE   C2918753   2.492   6.392   4.297  0.2746 -0.0079 -1.2803
  167SAPE   H9R18754   2.594   6.362   4.325  0.5278  1.2578 -0.7704
  167SAPE  C21018755   2.398   6.431   4.416 -0.2121 -0.3758  0.6719
  167SAPE  H10R18756   2.327   6.350   4.444  0.6570 -0.8927  1.4461
  167SAPE  H10S18757   2.331   6.516   4.391 -0.3047 -0.5615  0.2814
  167SAPE  C21118758   2.470   6.465   4.546  0.2138  0.9499  0.6050
  167SAPE  H11R18759   2.575   6.495   4.535 -0.3126  2.2785 -1.3395
  167SAPE  C21218760   2.399   6.489   4.656  0.5467  0.1662  0.1868
  167SAPE  H12R18761   2.449   6.526   4.747 -1.2964 -1.7165  2.1078
  167SAPE  C21318762   2.249   6.472   4.677  0.2571  0.2697 -0.6086
  167SAPE  H13R18763   2.205   6.437   4.581 -0.0450 -0.9436 -0.0579
  167SAPE  H13S18764   2.206   6.573   4.695 -2.0662 -0.5464 -1.1805
  167SAPE  C21418765   2.191   6.388   4.787  0.0589  0.0838 -0.5456
  167SAPE  H14R18766   2.160   6.439   4.879  1.7432  0.0433  0.0651
  167SAPE  C21518767   2.184   6.252   4.791  0.1231 -0.1520  0.0081
  167SAPE  H15R18768   2.137   6.202   4.877 -0.7146  0.5638 -0.0077
  167SAPE  C21618769   2.218   6.158   4.679  0.3006 -0.0328  0.2749
  167SAPE  H16R18770   2.241   6.198   4.578 -0.8958 -0.5243 -0.2159
  167SAPE  H16S18771   2.130   6.096   4.651 -0.7465  1.6660 -0.2827
  167SAPE  C21718772   2.346   6.058   4.708 -0.4197 -0.4961 -0.3283
  167SAPE  H17R18773   2.403   6.125   4.776  0.0668  0.2074 -1.3924
  167SAPE  H17S18774   2.413   6.040   4.621 -2.7329 -1.1428 -2.0664
  167SAPE  C21818775   2.305   5.929   4.785 -0.1919 -0.2356  0.3441
  167SAPE  H18R18776   2.242   5.859   4.725  0.6953 -1.1038  0.4061
  167SAPE  H18S18777   2.243   5.978   4.864  0.6486  2.8407 -0.7704
  167SAPE  C21918778   2.422   5.860   4.861  0.5867 -0.4830 -1.0865
  167SAPE  H19R18779   2.378   5.778   4.922  0.1176  0.7654  0.3101
  167SAPE  H19S18780   2.469   5.931   4.932 -1.0702 -0.8111  0.4081
  167SAPE  C22018781   2.517   5.793   4.762 -0.1450 -0.0458  0.0772
  167SAPE  H20R18782   2.583   5.867   4.713  0.5232 -0.9122 -0.3497
  167SAPE  H20S18783   2.464   5.740   4.680 -0.4566  0.2142  0.1067
  167SAPE  H20T18784   2.580   5.716   4.812 -0.8931 -1.0516 -0.4760
  167SAPE   C3318785   2.784   6.098   3.882  0.7006 -0.6291 -0.7249
  167SAPE   H3X18786   2.882   6.126   3.839 -0.0963  1.0307 -1.5393
  167SAPE   H3Y18787   2.760   5.993   3.854 -2.2695  0.2475 -1.8851
  167SAPE   C3418788   2.766   6.125   4.034 -0.0462 -0.0557  0.7819
  167SAPE   H4X18789   2.666   6.097   4.073 -0.1590  1.6628  1.8270
  167SAPE   H4Y18790   2.775   6.234   4.056 -1.5893  0.3647 -0.5602
  167SAPE   C3518791   2.883   6.052   4.114  0.5578  0.5182  0.8151
  167SAPE   H5X18792   2.981   6.102   4.099 -0.2211  1.8456 -0.0512
  167SAPE   H5Y18793   2.893   5.953   4.067  0.0655  0.8843 -0.0811
  167SAPE   C3618794   2.856   6.031   4.259 -0.1799 -0.1628 -0.0380
  167SAPE   H6X18795   2.944   5.994   4.316 -0.9559 -0.7453  0.8139
  167SAPE   H6Y18796   2.776   5.955   4.274 -0.1908 -0.0278  0.6067
  167SAPE   C3718797   2.819   6.157   4.341 -0.2428  0.1583  0.5159
  167SAPE   H7X18798   2.730   6.196   4.286  0.8996  0.3383 -1.2857
  167SAPE   H7Y18799   2.901   6.228   4.318  0.3065 -1.1518 -1.8470
  167SAPE   C3818800   2.796   6.132   4.490  0.6905  1.0391 -0.2517
  167SAPE   H8X18801   2.882   6.068   4.521  0.8680  0.4740 -1.8226
  167SAPE   H8Y18802   2.700   6.077   4.498  1.7253 -0.6435  2.5704
  167SAPE   C3918803   2.786   6.257   4.565  0.3685  0.2677 -0.0005
  167SAPE   H9X18804   2.704   6.326   4.533 -2.0860 -2.0063  0.9972
  167SAPE   H9Y18805   2.885   6.308   4.568  0.7742 -0.5450  1.7286
  167SAPE  C31018806   2.757   6.238   4.715 -0.1823  1.3908  0.0218
  167SAPE  H10X18807   2.837   6.166   4.743 -2.2457 -1.7772 -1.6136
  167SAPE  H10Y18808   2.661   6.185   4.733  1.4882 -1.3498  1.6270
  167SAPE  C31118809   2.754   6.362   4.802  0.2396 -0.7170 -0.2802
  167SAPE  H11X18810   2.721   6.449   4.741 -2.7869 -0.8514  0.9658
  167SAPE  H11Y18811   2.858   6.390   4.829 -0.0156 -0.1942  0.1697
  167SAPE  C31218812   2.669   6.359   4.932 -0.1448  0.2101  0.0616
  167SAPE  H12X18813   2.588   6.290   4.899 -1.4455  1.2022  1.0844
  167SAPE  H12Y18814   2.619   6.457   4.945 -2.2758 -0.8762  0.5655
  167SAPE  C31318815   2.739   6.297   5.056 -0.2599 -0.2078  0.1408
  167SAPE  H13X18816   2.740   6.188   5.036 -2.3449  0.0216 -1.5806
  167SAPE  H13Y18817   2.675   6.305   5.146 -1.3332  1.9939 -0.7479
  167SAPE  C31418818   2.869   6.363   5.102 -0.4740 -0.5343 -0.1830
  167SAPE  H14X18819   2.872   6.473   5.084  0.3796 -0.2233  1.6070
  167SAPE  H14Y18820   2.950   6.322   5.038 -0.2159 -1.9019  0.9785
  167SAPE  C31518821   2.893   6.324   5.250 -0.3356  0.6619  0.0906
  167SAPE  H15X18822   2.868   6.218   5.273 -0.6567  1.1327  2.1478
  167SAPE  H15Y18823   2.825   6.385   5.314 -0.3893  0.6263  0.0679
  167SAPE  C31618824   3.038   6.333   5.295  0.4410 -0.0590 -0.1184
  167SAPE  H16X18825   3.089   6.248   5.246  2.0906 -0.0219  1.4335
  167SAPE  H16Y18826   3.057   6.318   5.403 -0.8563  0.4152  0.1887
  167SAPE  C31718827   3.092   6.469   5.251  0.2198 -0.1887  0.1307
  167SAPE  H17X18828   3.078   6.487   5.142  0.9471 -0.9573 -0.1097
  167SAPE  H17Y18829   3.203   6.461   5.252  0.1323 -2.0766 -0.4799
  167SAPE  C31818830   3.049   6.588   5.339  0.0037  0.4183  0.0855
  167SAPE  H18X18831   3.057   6.577   5.449  3.5326  0.9702 -0.0018
  167SAPE  H18Y18832   2.944   6.605   5.308 -0.0438 -1.1459 -0.7379
  167SAPE  H18Z18833   3.106   6.678   5.307  0.5989 -0.2253 -0.7150
  168SAPE     N18834   6.126   1.608   3.638  0.0130  0.1430  0.5017
  168SAPE   HN118835   6.070   1.522   3.655  0.1844  0.1683  1.2246
  168SAPE   HN218836   6.226   1.587   3.661  0.0885 -0.6403 -0.4296
  168SAPE   HN318837   6.083   1.680   3.699  1.9555  0.1361  1.9896
  168SAPE   C1218838   6.117   1.650   3.498  0.0922  0.5341 -1.2422
  168SAPE  H12A18839   6.190   1.597   3.432 -1.2672 -0.8816 -1.6612
  168SAPE  H12B18840   6.134   1.759   3.491 -0.8496  0.9407  1.5897
  168SAPE   C1118841   5.976   1.603   3.451  0.6294 -0.2158  0.1816
  168SAPE  H11A18842   5.966   1.495   3.475 -0.6251  0.4709  3.0592
  168SAPE  H11B18843   5.964   1.625   3.342 -3.3332 -0.2676  0.4741
  168SAPE     P18844   5.820   1.824   3.495  0.0292  0.0736  0.3838
  168SAPE   O1318845   5.836   1.901   3.617  0.1780  0.0269  0.3024
  168SAPE   O1418846   5.897   1.881   3.384 -0.0705  0.0519  0.5493
  168SAPE   O1218847   5.873   1.673   3.523 -0.1539 -0.1592  0.1831
  168SAPE   O1118848   5.665   1.814   3.449 -0.4279  0.6631  0.2508
  168SAPE    C118849   5.613   1.686   3.416  0.0009  0.2520 -1.1429
  168SAPE    HA18850   5.532   1.695   3.340  0.0536 -0.2121 -1.2573
  168SAPE    HB18851   5.684   1.623   3.357  0.3319 -1.0991  0.6103
  168SAPE    C218852   5.545   1.612   3.534  0.2054 -1.0210  0.3561
  168SAPE    HS18853   5.469   1.549   3.483  3.5219 -3.0877 -2.4645
  168SAPE   O2118854   5.494   1.698   3.641  0.6642  0.3810  0.4119
  168SAPE   C2118855   5.389   1.775   3.608 -0.1194 -0.1023 -0.5901
  168SAPE   O2218856   5.325   1.773   3.509 -0.1017  0.5580 -0.2002
  168SAPE   C2218857   5.359   1.872   3.726  0.2533  0.0804 -0.0465
  168SAPE   H2R18858   5.311   1.807   3.802  0.5239  0.6719  0.6529
  168SAPE   H2S18859   5.452   1.925   3.758  0.5232  0.4394 -1.3896
  168SAPE    C318860   5.637   1.515   3.619  0.2400 -0.3629 -0.0198
  168SAPE    HX18861   5.689   1.570   3.700  0.7918 -0.1981 -0.4876
  168SAPE    HY18862   5.719   1.471   3.559  2.5698  0.0635  2.6200
  168SAPE   O3118863   5.553   1.420   3.681  0.3709  0.1620 -0.3827
  168SAPE   C3118864   5.601   1.353   3.792  0.1749  0.2743 -0.2885
  168SAPE   O3218865   5.714   1.367   3.838  1.0746  0.1226 -0.1786
  168SAPE   C3218866   5.479   1.299   3.866  0.2449 -0.1026  0.5304
  168SAPE   H2X18867   5.509   1.208   3.922  1.3482  0.5986  1.1161
  168SAPE   H2Y18868   5.400   1.279   3.790  0.9359  2.1307 -0.8869
  168SAPE   C2318869   5.244   1.975   3.695  0.5169 -0.2875 -0.2161
  168SAPE   H3R18870   5.145   1.927   3.680 -0.6112  1.7544  0.2294
  168SAPE   H3S18871   5.269   2.014   3.594 -0.7180 -0.5058 -0.6314
  168SAPE   C2418872   5.225   2.082   3.794 -0.2626 -0.5706  0.4532
  168SAPE   H4R18873   5.172   2.049   3.886 -1.2680  0.1260  0.1479
  168SAPE   H4S18874   5.148   2.148   3.750 -3.2065 -2.6163  2.1502
  168SAPE   C2518875   5.354   2.159   3.822 -0.3806  0.4585 -0.2804
  168SAPE   H5R18876   5.392   2.230   3.747  1.4513  0.8747  0.9970
  168SAPE   C2618877   5.421   2.171   3.939  0.2806  0.3970 -0.3491
  168SAPE   H6R18878   5.515   2.227   3.927  0.9770 -0.8280 -0.8006
  168SAPE   C2718879   5.398   2.106   4.075  0.5578  0.2792  0.3897
  168SAPE   H7R18880   5.345   2.009   4.066 -1.4876  1.2698  1.1114
  168SAPE   H7S18881   5.326   2.163   4.137  0.3060 -1.1622  1.4797
  168SAPE   C2818882   5.516   2.077   4.167  0.8315  0.0182 -0.6049
  168SAPE   H8R18883   5.598   2.024   4.116  1.1291 -0.4929  0.3938
  168SAPE   C2918884   5.521   2.097   4.300 -0.5208 -0.3702 -0.2427
  168SAPE   H9R18885   5.614   2.068   4.351 -0.5385  0.2886  0.1743
  168SAPE  C21018886   5.413   2.161   4.387  0.6684  0.4196 -0.0343
  168SAPE  H10R18887   5.327   2.194   4.324  0.0429  0.0171  0.5926
  168SAPE  H10S18888   5.453   2.259   4.421 -1.9770  2.0024 -1.1136
  168SAPE  C21118889   5.373   2.067   4.501 -0.1528 -0.3039 -0.4612
  168SAPE  H11R18890   5.308   1.983   4.474  0.5533 -1.0169  0.0272
  168SAPE  C21218891   5.413   2.076   4.630 -0.6095  0.1577  0.0214
  168SAPE  H12R18892   5.367   2.008   4.703  0.2272 -0.5134 -0.0518
  168SAPE  C21318893   5.508   2.180   4.686  0.0635  0.0435 -0.6537
  168SAPE  H13R18894   5.562   2.227   4.601 -2.0752 -0.3863 -2.3517
  168SAPE  H13S18895   5.583   2.122   4.744  0.9438 -0.0901 -1.8777
  168SAPE  C21418896   5.431   2.279   4.766  0.1732  0.2056 -0.2551
  168SAPE  H14R18897   5.384   2.364   4.714 -2.4993 -0.5572  0.7478
  168SAPE  C21518898   5.416   2.267   4.901 -0.0571  0.1146 -0.3682
  168SAPE  H15R18899   5.368   2.353   4.949  1.7383 -0.4999  2.7563
  168SAPE  C21618900   5.459   2.157   4.994 -0.7440  0.0421 -0.3968
  168SAPE  H16R18901   5.447   2.062   4.938 -1.6736 -0.8651  1.2800
  168SAPE  H16S18902   5.379   2.149   5.071  0.0095  0.8006  0.4970
  168SAPE  C21718903   5.599   2.163   5.053 -0.6059  0.2861 -0.6619
  168SAPE  H17R18904   5.678   2.168   4.976  1.7423 -0.2797  1.5732
  168SAPE  H17S18905   5.617   2.072   5.114  1.2042  0.3472 -1.0686
  168SAPE  C21818906   5.620   2.277   5.143 -0.2383  0.1039  0.0997
  168SAPE  H18R18907   5.629   2.363   5.072  1.5123  1.2740  1.6290
  168SAPE  H18S18908   5.719   2.274   5.195  0.4383 -1.9055 -1.1866
  168SAPE  C21918909   5.495   2.296   5.229  0.1219 -0.2465 -0.3945
  168SAPE  H19R18910   5.463   2.193   5.255 -1.1238 -0.2229 -1.6940
  168SAPE  H19S18911   5.413   2.341   5.168  2.1124  2.2681 -1.3901
  168SAPE  C22018912   5.528   2.373   5.354  0.4846  0.4030 -0.4124
  168SAPE  H20R18913   5.601   2.318   5.418  2.5642  2.0751 -1.2265
  168SAPE  H20S18914   5.439   2.395   5.417 -0.5904 -1.4553 -1.2135
  168SAPE  H20T18915   5.574   2.473   5.344 -0.4074  0.8976  0.2493
  168SAPE   C3318916   5.417   1.397   3.965  0.0491  0.2392 -0.2482
  168SAPE   H3X18917   5.314   1.360   3.988  0.6566 -1.8045 -0.6373
  168SAPE   H3Y18918   5.397   1.495   3.916 -2.2797  0.3253  0.7087
  168SAPE   C3418919   5.503   1.404   4.089  0.2008  0.0373 -0.8333
  168SAPE   H4X18920   5.489   1.502   4.139  0.3991 -0.3122 -0.0757
  168SAPE   H4Y18921   5.613   1.394   4.075  0.5387  1.5442  0.4366
  168SAPE   C3518922   5.462   1.299   4.194 -0.1371  0.0205  0.2714
  168SAPE   H5X18923   5.510   1.199   4.184 -1.3768 -0.5134 -0.6005
  168SAPE   H5Y18924   5.351   1.289   4.197 -0.2982  1.7184  1.1487
  168SAPE   C3618925   5.494   1.351   4.342 -0.0782 -0.2788  0.5741
  168SAPE   H6X18926   5.431   1.438   4.371 -0.1714  0.0732 -0.6167
  168SAPE   H6Y18927   5.602   1.376   4.347 -0.0419 -0.5649  1.2989
  168SAPE   C3718928   5.472   1.233   4.432 -0.0846  0.4978  0.0796
  168SAPE   H7X18929   5.552   1.157   4.425 -1.7672 -1.4054  0.7748
  168SAPE   H7Y18930   5.386   1.176   4.390 -1.3749  2.9006 -0.7744
  168SAPE   C3818931   5.469   1.269   4.580  1.0317  0.0400 -0.2664
  168SAPE   H8X18932   5.387   1.341   4.600 -0.0774 -1.1751 -0.3107
  168SAPE   H8Y18933   5.570   1.302   4.613 -0.0253  1.7132  1.4659
  168SAPE   C3918934   5.429   1.142   4.649 -0.2345 -0.0764 -0.8364
  168SAPE   H9X18935   5.485   1.048   4.629 -1.2530 -1.5379  2.4657
  168SAPE   H9Y18936   5.324   1.119   4.622 -1.2469 -0.5997  2.9943
  168SAPE  C31018937   5.435   1.162   4.800 -0.0299 -0.0682 -0.0671
  168SAPE  H10X18938   5.395   1.261   4.831 -0.5588 -0.8860  2.0573
  168SAPE  H10Y18939   5.542   1.163   4.831  0.4371  1.0312 -1.5875
  168SAPE  C31118940   5.348   1.065   4.879  0.2219  0.2376  0.0250
  168SAPE  H11X18941   5.381   0.962   4.851 -0.2473  0.0112  0.3052
  168SAPE  H11Y18942   5.245   1.065   4.837  0.0254 -0.7800  0.4846
  168SAPE  C31218943   5.339   1.087   5.029 -0.0834  0.0077  0.8127
  168SAPE  H12X18944   5.331   1.197   5.044  2.1169  0.1877  0.9027
  168SAPE  H12Y18945   5.438   1.059   5.070  0.8666 -0.2446 -1.5198
  168SAPE  C31318946   5.224   1.012   5.091  0.2328  0.6105  0.3198
  168SAPE  H13X18947   5.228   0.905   5.062 -0.3443  0.6526  0.0854
  168SAPE  H13Y18948   5.132   1.060   5.053 -0.1880 -0.4491 -0.0453
  168SAPE  C31418949   5.236   1.002   5.246 -0.2584 -0.9834 -0.4695
  168SAPE  H14X18950   5.254   1.099   5.297  0.0888 -0.9410 -0.6721
  168SAPE  H14Y18951   5.318   0.934   5.278 -0.8298 -1.1677  0.6658
  168SAPE  C31518952   5.102   0.947   5.307 -0.5414 -0.7934 -0.4535
  168SAPE  H15X18953   5.058   0.867   5.243 -1.5294 -0.0372 -0.7531
  168SAPE  H15Y18954   5.022   1.023   5.310 -0.7764 -1.0377 -0.5017
  168SAPE  C31618955   5.115   0.889   5.453 -0.1047  0.1860  1.1131
  168SAPE  H16X18956   5.197   0.817   5.433 -0.6465  0.1504 -1.2637
  168SAPE  H16Y18957   5.024   0.837   5.489 -0.0645 -0.0006  0.9445
  168SAPE  C31718958   5.166   0.990   5.555  1.0631 -0.2241 -0.4311
  168SAPE  H17X18959   5.078   1.033   5.608 -0.1514 -2.4121 -0.5838
  168SAPE  H17Y18960   5.218   1.080   5.517  1.6785  0.5613  2.0706
  168SAPE  C31818961   5.243   0.915   5.662 -0.5180  0.0527  0.9578
  168SAPE  H18X18962   5.186   0.822   5.683  1.0072 -1.6669 -1.8792
  168SAPE  H18Y18963   5.274   0.978   5.748 -0.8635 -0.6045  1.5740
  168SAPE  H18Z18964   5.345   0.886   5.629 -0.1696  2.6478 -0.4925
  169SAPE     N18965   2.419   5.604   2.866 -0.0166 -0.1865 -0.4201
  169SAPE   HN118966   2.497   5.577   2.803 -1.1055  1.1638 -2.4924
  169SAPE   HN218967   2.336   5.556   2.827  1.1333 -1.1307 -1.8192
  169SAPE   HN318968   2.391   5.705   2.866 -1.8938 -0.6716 -0.2710
  169SAPE   C1218969   2.439   5.546   3.002  0.6947 -0.0541  0.0206
  169SAPE  H12A18970   2.447   5.435   2.993  0.4684 -0.0112 -0.7930
  169SAPE  H12B18971   2.343   5.563   3.055  0.6564  0.8025 -0.3175
  169SAPE   C1118972   2.550   5.604   3.090 -0.9961  0.3356  0.2814
  169SAPE  H11A18973   2.560   5.543   3.181  1.1156  2.4568  1.5853
  169SAPE  H11B18974   2.520   5.705   3.127  1.9411  1.2180  0.4912
  169SAPE     P18975   2.750   5.755   3.001 -0.1591  0.0259 -0.4057
  169SAPE   O1318976   2.853   5.750   2.893 -0.7241  0.3949  0.2079
  169SAPE   O1418977   2.656   5.870   2.992 -0.5029 -0.2193  0.5314
  169SAPE   O1218978   2.671   5.621   3.008 -0.1153  0.4225 -0.5855
  169SAPE   O1118979   2.831   5.757   3.139  0.0307  0.4966  0.5653
  169SAPE    C118980   2.889   5.640   3.188  0.5219  0.0955 -0.8030
  169SAPE    HA18981   2.819   5.555   3.185 -2.4585  2.1101  2.7372
  169SAPE    HB18982   2.978   5.608   3.130  0.8434 -1.6798  0.5986
  169SAPE    C218983   2.922   5.658   3.342 -0.3278 -0.3146  0.1041
  169SAPE    HS18984   2.934   5.561   3.395  0.5249 -0.3341 -0.1151
  169SAPE   O2118985   2.812   5.727   3.402 -0.2390  0.5397  0.3338
  169SAPE   C2118986   2.704   5.647   3.439  0.5038 -0.6319 -0.3775
  169SAPE   O2218987   2.689   5.530   3.432  0.7624 -0.4057 -0.1002
  169SAPE   C2218988   2.595   5.750   3.496 -0.5454  0.0668  0.4651
  169SAPE   H2R18989   2.652   5.837   3.535  0.5713 -1.3416  2.1211
  169SAPE   H2S18990   2.533   5.789   3.412 -2.2043  0.7955  1.9667
  169SAPE    C318991   3.048   5.742   3.373 -0.8780  0.1625 -0.3352
  169SAPE    HX18992   3.034   5.851   3.361 -0.7234  0.2221  0.0342
  169SAPE    HY18993   3.129   5.722   3.300 -0.5076 -1.1806  0.4102
  169SAPE   O3118994   3.103   5.713   3.503  0.3763 -0.5297  0.4925
  169SAPE   C3118995   3.070   5.798   3.603  0.2023 -0.5822 -0.7258
  169SAPE   O3218996   3.002   5.899   3.596 -0.0045 -0.6682  0.0541
  169SAPE   C3218997   3.126   5.746   3.737 -0.5732  0.9474 -0.5440
  169SAPE   H2X18998   3.192   5.659   3.715 -0.4402  0.4347  1.6268
  169SAPE   H2Y18999   3.035   5.717   3.793  0.5643 -0.8821  0.4799
  169SAPE   C2319000   2.505   5.679   3.603  0.1016 -0.1040 -0.2701
  169SAPE   H3R19001   2.566   5.628   3.680 -0.0089  0.5392  0.2587
  169SAPE   H3S19002   2.442   5.597   3.562 -1.0168 -0.0673  1.2754
  169SAPE   C2419003   2.408   5.786   3.670  0.3234 -0.5537 -0.4082
  169SAPE   H4R19004   2.324   5.740   3.726  0.5760 -1.1648 -0.5231
  169SAPE   H4S19005   2.365   5.842   3.584 -0.0705 -1.6459 -0.9484
  169SAPE   C2519006   2.474   5.878   3.767 -0.2354  0.5346  0.2341
  169SAPE   H5R19007   2.495   5.975   3.719  0.4661  0.0066 -0.5522
  169SAPE   C2619008   2.530   5.841   3.888 -0.5865 -0.0600  0.1719
  169SAPE   H6R19009   2.579   5.914   3.954 -1.3546  1.6371 -1.0556
  169SAPE   C2719010   2.496   5.704   3.947 -0.2379  0.1988 -0.4289
  169SAPE   H7R19011   2.532   5.618   3.887  0.2272  0.1438 -0.0726
  169SAPE   H7S19012   2.385   5.710   3.958 -0.4084  1.4119 -2.2370
  169SAPE   C2819013   2.576   5.686   4.074  0.2562 -0.0167 -0.8227
  169SAPE   H8R19014   2.684   5.689   4.054  0.4844  1.1558  0.4500
  169SAPE   C2919015   2.523   5.696   4.203 -0.2817 -0.3994  0.1998
  169SAPE   H9R19016   2.593   5.687   4.288 -0.8788  1.5703  0.9446
  169SAPE  C21019017   2.382   5.729   4.250  0.1824  0.1376 -0.3330
  169SAPE  H10R19018   2.348   5.639   4.305  2.4130 -1.4897 -1.4536
  169SAPE  H10S19019   2.309   5.747   4.168 -2.0602 -0.2263  1.4666
  169SAPE  C21119020   2.380   5.851   4.343 -0.1032 -0.0622 -0.1821
  169SAPE  H11R19021   2.449   5.869   4.427 -1.5059  1.6879  0.6641
  169SAPE  C21219022   2.294   5.955   4.340  0.3072  0.0282  0.5100
  169SAPE  H12R19023   2.308   6.043   4.404 -0.7289  1.7118 -1.4328
  169SAPE  C21319024   2.178   5.973   4.243 -0.0914  0.1570 -0.1806
  169SAPE  H13R19025   2.167   5.887   4.175 -4.6463  1.3408 -1.2801
  169SAPE  H13S19026   2.209   6.052   4.172 -0.1851  1.9660  1.6727
  169SAPE  C21419027   2.047   6.020   4.300  0.6829 -0.3195 -0.0205
  169SAPE  H14R19028   2.013   6.120   4.267  0.9506  0.1726  1.1275
  169SAPE  C21519029   1.964   5.946   4.378 -0.0290 -0.1556 -0.6997
  169SAPE  H15R19030   1.869   5.996   4.402 -0.9067 -1.9423 -0.2779
  169SAPE  C21619031   1.989   5.802   4.441 -0.8568 -0.7796  0.7098
  169SAPE  H16R19032   2.091   5.770   4.413 -0.2234  2.8715 -1.9120
  169SAPE  H16S19033   1.919   5.737   4.384  0.0589  1.2281 -3.0867
  169SAPE  C21719034   1.976   5.787   4.597 -0.2887  0.6098 -0.5862
  169SAPE  H17R19035   2.041   5.861   4.648  1.6070 -0.5547 -1.1854
  169SAPE  H17S19036   2.010   5.688   4.633  1.3089  0.7971 -1.4888
  169SAPE  C21819037   1.831   5.807   4.649 -0.2275  0.5527 -0.2900
  169SAPE  H18R19038   1.761   5.746   4.587  0.0869 -0.1237  0.0069
  169SAPE  H18S19039   1.800   5.912   4.634  1.8632  1.1781 -0.5481
  169SAPE  C21919040   1.825   5.789   4.800 -0.3331 -0.1537  0.2399
  169SAPE  H19R19041   1.866   5.689   4.826 -0.7789  0.2659  2.8238
  169SAPE  H19S19042   1.717   5.803   4.823 -0.5307 -2.1496  0.7010
  169SAPE  C22019043   1.909   5.890   4.878  0.3174 -0.5966 -0.7563
  169SAPE  H20R19044   1.878   5.995   4.862 -0.2752 -0.5195  0.7555
  169SAPE  H20S19045   2.019   5.876   4.878  0.4519  0.3703 -0.9728
  169SAPE  H20T19046   1.878   5.871   4.983  0.7832 -0.0119 -0.5065
  169SAPE   C3319047   3.195   5.863   3.813  0.2875 -0.2837  0.0532
  169SAPE   H3X19048   3.126   5.949   3.828 -0.3343 -0.7513 -0.1149
  169SAPE   H3Y19049   3.286   5.890   3.756  1.2901 -0.6426  1.4095
  169SAPE   C3419050   3.215   5.826   3.963 -0.6410 -0.2893  0.1317
  169SAPE   H4X19051   3.114   5.805   4.003 -0.5626 -0.1335  0.4179
  169SAPE   H4Y19052   3.259   5.910   4.021 -1.7796  0.6427 -0.3090
  169SAPE   C3519053   3.310   5.701   3.987  0.4620 -0.5894  0.3992
  169SAPE   H5X19054   3.366   5.680   3.893  1.6114 -1.2497  1.2022
  169SAPE   H5Y19055   3.255   5.609   4.018  1.4797 -1.4727 -0.3490
  169SAPE   C3619056   3.422   5.726   4.090  0.0533  0.3533  0.3621
  169SAPE   H6X19057   3.385   5.787   4.175  1.5294  2.0938 -0.1994
  169SAPE   H6Y19058   3.505   5.782   4.043  0.8076 -1.0847 -0.0974
  169SAPE   C3719059   3.489   5.600   4.148  0.5290  0.2380  0.8292
  169SAPE   H7X19060   3.545   5.548   4.067  0.8782  0.0303  1.1993
  169SAPE   H7Y19061   3.417   5.540   4.207  0.6061  0.7102  1.4171
  169SAPE   C3819062   3.594   5.640   4.255  1.4144 -0.1959 -0.3017
  169SAPE   H8X19063   3.608   5.751   4.253  0.9286 -0.1432 -1.0520
  169SAPE   H8Y19064   3.691   5.592   4.229  0.9243 -0.2152 -2.2068
  169SAPE   C3919065   3.576   5.583   4.400  0.3564 -0.4386 -0.9583
  169SAPE   H9X19066   3.672   5.579   4.455  0.1639  2.7837 -0.1753
  169SAPE   H9Y19067   3.546   5.476   4.393 -0.6912 -0.2642  0.3194
  169SAPE  C31019068   3.473   5.669   4.477 -0.4151  0.4411 -0.5481
  169SAPE  H10X19069   3.390   5.704   4.410 -2.6324 -2.5365  0.4201
  169SAPE  H10Y19070   3.512   5.766   4.512 -1.8732  1.3889 -1.4032
  169SAPE  C31119071   3.418   5.590   4.596 -0.2579  0.5337  0.7049
  169SAPE  H11X19072   3.355   5.510   4.552 -1.0302  1.9502 -0.8655
  169SAPE  H11Y19073   3.345   5.649   4.655  0.0682 -0.2427  1.9089
  169SAPE  C31219074   3.532   5.530   4.686 -0.0163 -0.3194 -0.0866
  169SAPE  H12X19075   3.610   5.467   4.637 -0.5950 -0.5769 -0.6969
  169SAPE  H12Y19076   3.489   5.454   4.755  0.1143 -1.6978 -1.4491
  169SAPE  C31319077   3.595   5.647   4.766 -0.5451 -0.8370  0.4453
  169SAPE  H13X19078   3.519   5.713   4.815  1.1508  0.3514  1.5832
  169SAPE  H13Y19079   3.651   5.716   4.701  0.1899  0.3154  2.2173
  169SAPE  C31419080   3.705   5.603   4.863 -0.9339 -0.2149  0.5778
  169SAPE  H14X19081   3.772   5.690   4.880 -1.7424  0.3439  0.9185
  169SAPE  H14Y19082   3.772   5.523   4.824 -2.7800 -2.4342  1.7037
  169SAPE  C31519083   3.655   5.545   4.997  0.2798  0.4737 -0.2207
  169SAPE  H15X19084   3.621   5.440   4.989 -1.4290  1.1293 -3.0208
  169SAPE  H15Y19085   3.561   5.583   5.043 -0.1783  0.6587 -1.2745
  169SAPE  C31619086   3.765   5.569   5.105  0.0816  0.9553  0.0450
  169SAPE  H16X19087   3.800   5.674   5.112  1.8291  0.4349 -0.2834
  169SAPE  H16Y19088   3.854   5.524   5.055  1.3492  0.2757  2.7167
  169SAPE  C31719089   3.731   5.510   5.241  0.3876 -0.2209 -0.7044
  169SAPE  H17X19090   3.718   5.401   5.228  1.6683 -0.0992 -3.9842
  169SAPE  H17Y19091   3.633   5.543   5.281  0.7877 -0.7426  0.7942
  169SAPE  C31819092   3.849   5.522   5.341 -0.5908  0.3608 -0.1391
  169SAPE  H18X19093   3.822   5.494   5.445  1.8250  1.7808  0.9603
  169SAPE  H18Y19094   3.892   5.624   5.339 -0.5075  0.3426  0.7228
  169SAPE  H18Z19095   3.933   5.457   5.306 -1.8506 -0.7139 -1.3022
  170SAPE     N19096   4.083   0.755   3.529  0.3377 -0.7042  0.4436
  170SAPE   HN119097   4.061   0.669   3.583 -3.9556  0.5427  1.0699
  170SAPE   HN219098   4.184   0.778   3.529 -0.0899  1.6815  2.6443
  170SAPE   HN319099   4.039   0.835   3.579  0.7486  0.7751 -1.4493
  170SAPE   C1219100   4.039   0.758   3.384  0.2777 -0.1745  0.3316
  170SAPE  H12A19101   3.960   0.681   3.376  0.3888 -0.1896 -0.6820
  170SAPE  H12B19102   4.117   0.722   3.314 -2.5434  0.4029 -3.4108
  170SAPE   C1119103   4.009   0.897   3.330 -0.3074  0.6381 -0.4678
  170SAPE  H11A19104   3.937   0.949   3.398 -0.6688  0.8775 -1.0274
  170SAPE  H11B19105   3.964   0.902   3.229 -1.2327  1.2340 -0.0448
  170SAPE     P19106   4.135   1.121   3.285 -0.0509  0.1278 -0.2177
  170SAPE   O1319107   4.272   1.153   3.236  0.4066 -0.1935 -0.4125
  170SAPE   O1419108   4.019   1.150   3.195 -0.1265  0.7682 -0.3563
  170SAPE   O1219109   4.134   0.963   3.320  0.3640  0.2276  0.5925
  170SAPE   O1119110   4.109   1.192   3.428  0.1861 -0.0826 -0.3129
  170SAPE    C119111   4.175   1.146   3.544 -0.1432  0.0874  0.2845
  170SAPE    HA19112   4.173   1.035   3.542 -0.5878  0.0913  0.6497
  170SAPE    HB19113   4.283   1.174   3.543  0.2248 -1.1886  1.2340
  170SAPE    C219114   4.111   1.175   3.680 -0.4061 -0.3604  0.8742
  170SAPE    HS19115   4.144   1.108   3.763  0.0742 -0.7567  0.3708
  170SAPE   O2119116   3.970   1.187   3.677  0.3229 -0.1006 -0.2430
  170SAPE   C2119117   3.903   1.074   3.660 -0.0450  0.3053 -0.3360
  170SAPE   O2219118   3.951   0.962   3.646 -0.1387  0.0979  0.4826
  170SAPE   C2219119   3.755   1.111   3.669  0.7426 -0.2884  0.3668
  170SAPE   H2R19120   3.750   1.200   3.603  1.5705 -0.6987 -0.2595
  170SAPE   H2S19121   3.692   1.039   3.613 -0.5081  0.6211  0.5430
  170SAPE    C319122   4.175   1.307   3.727  0.3307 -0.4277  0.1890
  170SAPE    HX19123   4.134   1.382   3.655  2.5871  1.0658  0.3565
  170SAPE    HY19124   4.284   1.321   3.716 -0.0074  0.8688 -2.4824
  170SAPE   O3119125   4.138   1.347   3.862 -0.2784  0.5341  0.6126
  170SAPE   C3119126   4.229   1.370   3.950 -0.5175 -0.3967  0.2987
  170SAPE   O3219127   4.345   1.384   3.930 -0.2638  0.6533  0.3362
  170SAPE   C3219128   4.164   1.382   4.092 -0.0193  0.4529 -0.0144
  170SAPE   H2X19129   4.225   1.344   4.176  0.4687  0.8876 -0.1711
  170SAPE   H2Y19130   4.068   1.325   4.081  0.3482 -0.4167  1.0550
  170SAPE   C2319131   3.696   1.147   3.814 -0.2011 -0.3851 -0.8037
  170SAPE   H3R19132   3.598   1.199   3.817  0.2477  0.8675  4.9175
  170SAPE   H3S19133   3.769   1.216   3.862  0.1794 -0.8455 -0.7084
  170SAPE   C2419134   3.650   1.036   3.918 -0.7291 -0.2284  0.1376
  170SAPE   H4R19135   3.569   0.984   3.863 -0.5176  1.3619 -1.7997
  170SAPE   H4S19136   3.603   1.082   4.008 -0.5731 -1.2562  0.7645
  170SAPE   C2519137   3.771   0.947   3.950  0.2350  0.0763 -0.2254
  170SAPE   H5R19138   3.800   0.879   3.869 -1.9281 -1.1143 -0.0676
  170SAPE   C2619139   3.844   0.951   4.066  0.0492  0.2914  0.7624
  170SAPE   H6R19140   3.930   0.883   4.072 -0.1402 -0.0401 -0.1291
  170SAPE   C2719141   3.830   1.048   4.185 -0.3110 -0.3897 -0.0402
  170SAPE   H7R19142   3.733   1.102   4.179  0.1870  0.6902  1.1822
  170SAPE   H7S19143   3.913   1.120   4.167  1.3169 -1.5925  2.2814
  170SAPE   C2819144   3.839   0.978   4.317 -0.1436  0.3675 -0.0840
  170SAPE   H8R19145   3.761   0.901   4.330 -1.1660  1.4220  0.1427
  170SAPE   C2919146   3.919   1.009   4.418 -0.3536  0.1359  0.0197
  170SAPE   H9R19147   3.914   0.954   4.513  1.3088  2.2636  1.4307
  170SAPE  C21019148   4.026   1.115   4.414 -0.1698 -0.1897  0.3192
  170SAPE  H10R19149   4.024   1.167   4.317 -2.8620  2.3354  1.5821
  170SAPE  H10S19150   4.124   1.064   4.422 -0.9814 -2.3652 -2.3277
  170SAPE  C21119151   4.002   1.211   4.524 -0.1498  0.1355 -0.4296
  170SAPE  H11R19152   3.910   1.271   4.523 -1.2793 -1.4952  0.7065
  170SAPE  C21219153   4.095   1.246   4.610 -0.5963 -0.0442 -0.8655
  170SAPE  H12R19154   4.075   1.327   4.682 -0.1652 -0.5348 -0.1798
  170SAPE  C21319155   4.228   1.173   4.628 -0.2212  0.3750  0.1393
  170SAPE  H13R19156   4.230   1.064   4.605  0.7444  0.2185  0.9321
  170SAPE  H13S19157   4.260   1.186   4.733 -2.6851  0.8473  0.9164
  170SAPE  C21419158   4.336   1.233   4.547 -0.2623  0.0326  0.1288
  170SAPE  H14R19159   4.307   1.264   4.445 -0.2586  0.9025  0.3907
  170SAPE  C21519160   4.468   1.239   4.585  0.8091 -0.1495 -0.1682
  170SAPE  H15R19161   4.542   1.282   4.516  0.9834  1.3942  0.9413
  170SAPE  C21619162   4.524   1.199   4.718  0.0371  0.6039 -0.2407
  170SAPE  H16R19163   4.626   1.160   4.698  0.4249  0.6012  1.6143
  170SAPE  H16S19164   4.477   1.110   4.764  3.7644 -2.3459 -1.6045
  170SAPE  C21719165   4.539   1.306   4.827  0.7111  0.3137  0.0833
  170SAPE  H17R19166   4.435   1.325   4.861  0.7721  0.5920  0.1216
  170SAPE  H17S19167   4.577   1.400   4.781 -0.3065  0.7625  0.1226
  170SAPE  C21819168   4.619   1.273   4.945  0.6332 -0.6385  0.1491
  170SAPE  H18R19169   4.726   1.300   4.936  0.1035  1.8028  0.4493
  170SAPE  H18S19170   4.612   1.164   4.966 -2.2574 -0.5699 -0.0523
  170SAPE  C21919171   4.566   1.337   5.076 -0.0072  0.6797  0.0717
  170SAPE  H19R19172   4.482   1.275   5.114  0.2026 -1.3207 -2.4223
  170SAPE  H19S19173   4.532   1.438   5.045  0.9491  1.0078  0.0578
  170SAPE  C22019174   4.671   1.346   5.186 -0.6980 -0.0349  0.1541
  170SAPE  H20R19175   4.762   1.402   5.157 -1.6712  2.1198  1.0218
  170SAPE  H20S19176   4.703   1.247   5.224  1.8581  0.2939 -0.9174
  170SAPE  H20T19177   4.624   1.391   5.277 -0.8715  2.4849 -1.0835
  170SAPE   C3319178   4.125   1.529   4.127 -0.0127  0.1837 -0.1382
  170SAPE   H3X19179   4.075   1.574   4.039  3.5133  0.4466 -2.1871
  170SAPE   H3Y19180   4.218   1.586   4.149  0.1850  0.2050 -0.9919
  170SAPE   C3419181   4.042   1.521   4.254 -0.1298  0.3724  0.3712
  170SAPE   H4X19182   4.090   1.450   4.325 -1.5447  1.5893  2.6467
  170SAPE   H4Y19183   3.953   1.469   4.215 -0.2031  0.5908  0.2437
  170SAPE   C3519184   4.003   1.651   4.316  0.1438 -0.6304  0.0326
  170SAPE   H5X19185   3.935   1.702   4.245  0.6987 -0.9077 -0.7067
  170SAPE   H5Y19186   4.083   1.727   4.330 -1.8394  1.3508  1.2028
  170SAPE   C3619187   3.935   1.627   4.457 -0.5911 -0.1215 -0.1958
  170SAPE   H6X19188   3.889   1.527   4.448  0.0325 -0.4630  0.2738
  170SAPE   H6Y19189   3.860   1.708   4.469 -0.0466  0.6006 -1.4158
  170SAPE   C3719190   4.043   1.631   4.567 -0.1168  0.7806 -0.0349
  170SAPE   H7X19191   4.109   1.719   4.552  1.0940 -0.4284 -2.3017
  170SAPE   H7Y19192   4.118   1.554   4.539  1.4225  2.5814 -1.1233
  170SAPE   C3819193   3.992   1.601   4.706  0.0895 -1.1798 -0.0243
  170SAPE   H8X19194   3.924   1.514   4.691  0.0730 -1.2980  0.7170
  170SAPE   H8Y19195   3.930   1.687   4.738  0.6275 -1.0154  0.5952
  170SAPE   C3919196   4.090   1.572   4.817  0.3093 -0.2373 -0.6593
  170SAPE   H9X19197   4.158   1.658   4.830 -0.4463  0.1650  0.9420
  170SAPE   H9Y19198   4.158   1.490   4.786 -1.2325 -2.4660  1.4143
  170SAPE  C31019199   4.022   1.556   4.948  0.1268  0.3246 -0.0837
  170SAPE  H10X19200   3.920   1.514   4.939  0.3023  0.2557 -2.3240
  170SAPE  H10Y19201   3.997   1.658   4.986  1.2439 -0.0430  1.7897
  170SAPE  C31119202   4.106   1.488   5.058 -0.9362  0.1301  0.4814
  170SAPE  H11X19203   4.202   1.538   5.079  0.3435 -1.6585 -0.7625
  170SAPE  H11Y19204   4.122   1.382   5.028 -1.6053  0.1062  0.1860
  170SAPE  C31219205   4.037   1.492   5.195  0.1177 -0.6290  0.6347
  170SAPE  H12X19206   3.950   1.422   5.192 -1.3316  1.0418  1.7619
  170SAPE  H12Y19207   3.999   1.595   5.213 -1.3339 -0.8713 -0.7681
  170SAPE  C31319208   4.120   1.436   5.309  0.1798 -0.0882 -0.2801
  170SAPE  H13X19209   4.157   1.333   5.285  2.3977  0.1895  1.5353
  170SAPE  H13Y19210   4.067   1.419   5.405 -1.3943 -0.3109 -1.1685
  170SAPE  C31419211   4.246   1.519   5.348  0.7339 -0.4664 -0.4091
  170SAPE  H14X19212   4.221   1.623   5.380 -0.5853 -0.8740 -0.0529
  170SAPE  H14Y19213   4.307   1.532   5.256  1.1899  0.0067 -0.0436
  170SAPE  C31519214   4.317   1.461   5.469 -0.3395  0.1634  0.2749
  170SAPE  H15X19215   4.358   1.365   5.430 -0.4063 -0.9371  2.7337
  170SAPE  H15Y19216   4.246   1.428   5.548 -0.1131 -0.9663  0.0345
  170SAPE  C31619217   4.424   1.554   5.527 -0.1680  0.0520  0.2197
  170SAPE  H16X19218   4.370   1.641   5.568 -0.8915  0.4327 -1.4577
  170SAPE  H16Y19219   4.486   1.593   5.443 -3.1841  2.2929 -1.1225
  170SAPE  C31719220   4.505   1.502   5.649  0.5820  0.4744  0.6500
  170SAPE  H17X19221   4.597   1.564   5.652  1.0850 -0.2874  1.3515
  170SAPE  H17Y19222   4.534   1.396   5.629  3.1945  1.4069 -1.0169
  170SAPE  C31819223   4.427   1.508   5.783 -0.0961  0.1897  0.0520
  170SAPE  H18X19224   4.340   1.440   5.775  1.4720 -1.9642  0.6302
  170SAPE  H18Y19225   4.388   1.611   5.803 -0.7764 -0.3563  1.7118
  170SAPE  H18Z19226   4.489   1.482   5.871  0.1651  0.6001 -0.0078
  171SAPE     N19227   4.400   0.961   3.079  0.3774  0.0543  0.2868
  171SAPE   HN119228   4.503   0.957   3.071  0.2709 -1.5939 -0.7020
  171SAPE   HN219229   4.377   1.035   3.009  2.4184  0.1278 -0.3789
  171SAPE   HN319230   4.358   1.003   3.164 -0.3194  1.3150 -0.6361
  171SAPE   C1219231   4.349   0.825   3.058 -0.3115 -0.3857  0.1093
  171SAPE  H12A19232   4.375   0.802   2.952  1.2639  3.1585 -0.4124
  171SAPE  H12B19233   4.239   0.820   3.071 -0.0701 -2.2416  2.0062
  171SAPE   C1119234   4.410   0.724   3.154 -1.3902  1.3411  0.2500
  171SAPE  H11A19235   4.520   0.717   3.155 -1.4186  0.5093  2.2017
  171SAPE  H11B19236   4.379   0.627   3.110  1.1282  0.9481 -0.8380
  171SAPE     P19237   4.447   0.750   3.405 -0.0219  0.1584 -0.2244
  171SAPE   O1319238   4.536   0.861   3.388 -0.6513 -0.2491 -0.0661
  171SAPE   O1419239   4.358   0.766   3.520 -0.2850  0.4897 -0.1595
  171SAPE   O1219240   4.349   0.734   3.280  0.0072 -0.1588  0.6416
  171SAPE   O1119241   4.518   0.614   3.412 -0.4248 -0.3323  0.0380
  171SAPE    C119242   4.448   0.491   3.426  0.1161 -0.1432  0.3174
  171SAPE    HA19243   4.343   0.505   3.395 -0.1650  0.0172  1.3102
  171SAPE    HB19244   4.497   0.421   3.355 -0.1712  0.6400 -0.6802
  171SAPE    C219245   4.446   0.421   3.568 -0.0902  0.4283 -0.4948
  171SAPE    HS19246   4.548   0.380   3.581 -0.3725 -0.9624 -2.3410
  171SAPE   O2119247   4.341   0.331   3.576 -0.0189  0.0165 -0.4377
  171SAPE   C2119248   4.342   0.216   3.514  0.4979 -0.5630  0.2461
  171SAPE   O2219249   4.434   0.170   3.453  0.2795  0.1653 -0.2573
  171SAPE   C2219250   4.203   0.148   3.523 -0.3089  0.0564  0.2816
  171SAPE   H2R19251   4.142   0.218   3.584 -1.6189 -1.2889  0.5994
  171SAPE   H2S19252   4.157   0.158   3.422 -0.7433  0.1591  0.4864
  171SAPE    C319253   4.420   0.526   3.685 -0.1504 -0.3308 -0.0374
  171SAPE    HX19254   4.315   0.551   3.660  0.2780 -0.7394 -2.6087
  171SAPE    HY19255   4.482   0.617   3.668  0.4205 -0.7404 -0.1793
  171SAPE   O3119256   4.445   0.467   3.816 -0.2747 -0.2828  0.1300
  171SAPE   C3119257   4.339   0.484   3.906 -0.2530 -0.4732  0.8115
  171SAPE   O3219258   4.234   0.539   3.869 -0.8416 -0.2501 -0.6485
  171SAPE   C3219259   4.375   0.421   4.036  0.4374 -0.7943  0.3458
  171SAPE   H2X19260   4.456   0.478   4.087  2.9253 -3.2697 -0.5121
  171SAPE   H2Y19261   4.428   0.323   4.026  0.1512 -0.8003 -1.4895
  171SAPE   C2319262   4.203   0.002   3.573  0.1522 -0.1057 -0.2062
  171SAPE   H3R19263   4.303  -0.045   3.563  0.6090  1.1027 -1.9235
  171SAPE   H3S19264   4.151  -0.069   3.504  1.2060  1.0329 -2.2904
  171SAPE   C2419265   4.156  -0.014   3.721 -0.7860 -0.2950  0.0795
  171SAPE   H4R19266   4.162  -0.121   3.747 -0.9135 -0.2189  0.4171
  171SAPE   H4S19267   4.049   0.015   3.722 -0.3672  1.4086  1.7342
  171SAPE   C2519268   4.230   0.085   3.817  0.1190 -0.2059  0.6097
  171SAPE   H5R19269   4.215   0.193   3.803  2.5035  0.1304  0.2051
  171SAPE   C2619270   4.300   0.055   3.930 -0.4812 -0.1030  0.1528
  171SAPE   H6R19271   4.344   0.129   3.998  2.1750 -1.7497  0.3826
  171SAPE   C2719272   4.324  -0.087   3.974 -0.4689 -0.9253 -0.0267
  171SAPE   H7R19273   4.426  -0.095   4.017 -0.9395 -1.8819  0.9660
  171SAPE   H7S19274   4.315  -0.152   3.885 -1.7938 -0.1767 -0.4649
  171SAPE   C2819275   4.209  -0.130   4.064  0.4543 -0.2657 -0.7746
  171SAPE   H8R19276   4.118  -0.164   4.013 -0.7929 -1.7315  2.1860
  171SAPE   C2919277   4.202  -0.157   4.194  0.5719  0.1279 -0.6677
  171SAPE   H9R19278   4.109  -0.201   4.232  0.4460 -0.0478 -1.1675
  171SAPE  C21019279   4.309  -0.142   4.294  0.1296  0.0551 -0.1715
  171SAPE  H10R19280   4.409  -0.136   4.246  0.8035  1.3194  1.2852
  171SAPE  H10S19281   4.318  -0.238   4.349 -0.8348 -0.8067 -1.4871
  171SAPE  C21119282   4.290  -0.031   4.395 -0.2000  0.6403  0.3625
  171SAPE  H11R19283   4.282   0.067   4.345 -0.3383 -0.0066 -0.9323
  171SAPE  C21219284   4.262  -0.036   4.520  0.0675  0.8793 -0.5688
  171SAPE  H12R19285   4.266   0.054   4.583  0.5611  1.8492 -1.9513
  171SAPE  C21319286   4.243  -0.166   4.599 -0.3906 -0.5858  0.9172
  171SAPE  H13R19287   4.332  -0.200   4.656  0.7939 -0.5220 -0.8126
  171SAPE  H13S19288   4.225  -0.247   4.525  2.0339 -0.3005 -0.0975
  171SAPE  C21419289   4.130  -0.160   4.695  0.1558 -0.0198  0.0698
  171SAPE  H14R19290   4.034  -0.176   4.645  0.3999 -1.1178 -0.0786
  171SAPE  C21519291   4.135  -0.138   4.829 -0.6148  0.8605 -0.3119
  171SAPE  H15R19292   4.042  -0.154   4.886  0.0159 -0.8838  0.3146
  171SAPE  C21619293   4.261  -0.122   4.922  0.4285 -0.1386 -0.5799
  171SAPE  H16R19294   4.296  -0.016   4.924  0.7483 -0.1197 -3.1750
  171SAPE  H16S19295   4.339  -0.187   4.876  0.2841 -1.1375  0.5435
  171SAPE  C21719296   4.237  -0.173   5.070  0.3110 -0.7859  0.5671
  171SAPE  H17R19297   4.174  -0.265   5.071  0.1705 -0.7442 -1.0005
  171SAPE  H17S19298   4.186  -0.095   5.129 -0.2822 -0.8695  0.1707
  171SAPE  C21819299   4.377  -0.196   5.138 -0.3619  0.8566  0.8198
  171SAPE  H18R19300   4.454  -0.129   5.093 -0.6956  0.2640 -0.6938
  171SAPE  H18S19301   4.416  -0.297   5.113 -0.9196  0.4393  1.5928
  171SAPE  C21919302   4.375  -0.210   5.295  0.7801 -0.5992 -0.4321
  171SAPE  H19R19303   4.326  -0.309   5.310  0.6126 -0.7258 -1.6820
  171SAPE  H19S19304   4.310  -0.131   5.337 -0.3615 -2.1290  0.7782
  171SAPE  C22019305   4.512  -0.209   5.358  0.3774 -0.1064 -0.7136
  171SAPE  H20R19306   4.507  -0.242   5.464 -1.9363  0.7681 -0.4986
  171SAPE  H20S19307   4.548  -0.104   5.352  0.1365 -0.0860 -2.1478
  171SAPE  H20T19308   4.583  -0.279   5.309  0.2355 -0.9728  0.2750
  171SAPE   C3319309   4.244   0.407   4.115  0.2471 -0.7284 -1.1034
  171SAPE   H3X19310   4.184   0.322   4.075 -0.8303 -0.8803  0.7508
  171SAPE   H3Y19311   4.178   0.495   4.104  0.1484 -1.0668 -4.2327
  171SAPE   C3419312   4.280   0.369   4.264  0.1114 -0.0464 -1.0054
  171SAPE   H4X19313   4.357   0.434   4.312 -0.8345 -0.4888  1.2598
  171SAPE   H4Y19314   4.315   0.264   4.259 -3.6432 -1.4093 -1.5177
  171SAPE   C3519315   4.151   0.360   4.351 -0.7252 -0.4948 -0.6806
  171SAPE   H5X19316   4.086   0.280   4.310 -1.4701 -1.2048  1.7442
  171SAPE   H5Y19317   4.093   0.455   4.353  0.7358  0.4337  1.6276
  171SAPE   C3619318   4.165   0.339   4.504 -0.0413  0.3381 -0.1916
  171SAPE   H6X19319   4.207   0.430   4.554  1.6717  0.5736 -1.9120
  171SAPE   H6Y19320   4.234   0.255   4.526  1.7927  1.0726 -2.6273
  171SAPE   C3719321   4.037   0.304   4.582 -0.3220 -0.1541  0.0967
  171SAPE   H7X19322   4.001   0.206   4.542 -0.0915 -0.1683 -0.0831
  171SAPE   H7Y19323   3.966   0.386   4.560  0.9957  1.0287  0.0654
  171SAPE   C3819324   4.070   0.295   4.731 -0.2486  0.5111 -0.1179
  171SAPE   H8X19325   4.147   0.365   4.768  0.3834  0.3036 -1.0265
  171SAPE   H8Y19326   4.124   0.200   4.752  1.0489  1.7599  2.8354
  171SAPE   C3919327   3.946   0.300   4.825 -0.1366 -0.3238  0.6221
  171SAPE   H9X19328   3.886   0.208   4.808  0.2016 -0.7351  1.5878
  171SAPE   H9Y19329   3.882   0.388   4.803  0.5653  0.3534  1.2415
  171SAPE  C31019330   3.984   0.312   4.967  0.0550 -0.0302  0.0936
  171SAPE  H10X19331   3.931   0.393   5.022  1.7512 -0.7668  3.0686
  171SAPE  H10Y19332   4.093   0.330   4.976  0.0078  0.0244  0.6057
  171SAPE  C31119333   3.955   0.185   5.054 -0.0667 -0.1196  0.0378
  171SAPE  H11X19334   4.004   0.094   5.013 -3.5384 -1.2067 -2.1190
  171SAPE  H11Y19335   3.850   0.153   5.044 -0.0601  0.5576 -3.3365
  171SAPE  C31219336   3.994   0.206   5.202  0.2092 -0.4326  0.0062
  171SAPE  H12X19337   3.968   0.120   5.268  0.0935 -0.1451  0.3354
  171SAPE  H12Y19338   3.945   0.300   5.236  1.4191  0.2238 -0.0220
  171SAPE  C31319339   4.141   0.234   5.229 -0.1617  0.6251  0.4918
  171SAPE  H13X19340   4.184   0.328   5.187  1.4633 -0.5750 -0.6675
  171SAPE  H13Y19341   4.202   0.152   5.185  0.8478  1.3056  0.5754
  171SAPE  C31419342   4.178   0.243   5.372  0.3654 -0.6022 -0.3596
  171SAPE  H14X19343   4.289   0.246   5.373  0.3550  0.2932  0.3681
  171SAPE  H14Y19344   4.152   0.152   5.431 -0.4280 -0.5734 -0.6575
  171SAPE  C31519345   4.108   0.358   5.444 -0.6692  0.2926 -0.0769
  171SAPE  H15X19346   3.997   0.353   5.449 -0.5916 -0.3953  2.4519
  171SAPE  H15Y19347   4.126   0.443   5.374 -1.9718 -0.3971 -1.2896
  171SAPE  C31619348   4.173   0.400   5.584  0.7101  0.1735 -0.7416
  171SAPE  H16X19349   4.273   0.447   5.569  1.7219 -2.1688 -1.8877
  171SAPE  H16Y19350   4.189   0.303   5.637 -0.8587 -0.8158 -1.9775
  171SAPE  C31719351   4.077   0.483   5.668  0.3278  0.3623  0.0239
  171SAPE  H17X19352   3.990   0.414   5.672 -0.2682  1.0628 -0.6775
  171SAPE  H17Y19353   4.049   0.583   5.629 -0.7243  0.5394  1.1617
  171SAPE  C31819354   4.106   0.495   5.819  0.2724  0.4266  0.0808
  171SAPE  H18X19355   4.127   0.397   5.867 -1.9451  0.6647  1.6576
  171SAPE  H18Y19356   4.018   0.543   5.865  0.5252  0.8806  0.0887
  171SAPE  H18Z19357   4.188   0.567   5.839  0.9647  0.6899 -3.1087
  172SAPE     N19358   4.337   2.309   2.787 -0.6917 -0.0479 -0.4222
  172SAPE   HN119359   4.317   2.406   2.821 -1.7766 -1.0618  2.0869
  172SAPE   HN219360   4.374   2.314   2.690 -0.2555  0.5427 -0.2346
  172SAPE   HN319361   4.245   2.259   2.784  0.1740 -1.6445 -2.2988
  172SAPE   C1219362   4.425   2.233   2.877 -0.3241  0.3270 -0.0071
  172SAPE  H12A19363   4.516   2.294   2.895  0.1672 -0.7041  1.1770
  172SAPE  H12B19364   4.457   2.147   2.814 -1.7547  0.8661 -1.5318
  172SAPE   C1119365   4.351   2.178   2.999 -0.4246 -0.8045 -0.4489
  172SAPE  H11A19366   4.302   2.262   3.053  2.8850  1.6771 -0.9641
  172SAPE  H11B19367   4.434   2.141   3.063  0.6278 -1.6767 -2.2363
  172SAPE     P19368   4.289   1.929   2.972 -0.3810 -0.1630  0.0880
  172SAPE   O1319369   4.187   1.854   2.903  0.6102 -0.0830  0.6682
  172SAPE   O1419370   4.426   1.901   2.919 -0.5970  0.7376 -0.3524
  172SAPE   O1219371   4.255   2.078   2.966  0.0825  0.0653 -0.1890
  172SAPE   O1119372   4.273   1.902   3.131  0.3294 -0.2403  0.3701
  172SAPE    C119373   4.323   1.774   3.177  0.1279  0.4434  0.0141
  172SAPE    HA19374   4.343   1.697   3.099  1.5796  2.1857 -1.4617
  172SAPE    HB19375   4.420   1.781   3.231 -1.0294 -2.6474  2.7684
  172SAPE    C219376   4.225   1.709   3.284  0.3585 -0.0003 -0.2255
  172SAPE    HS19377   4.147   1.662   3.220 -0.0902  1.5874 -0.9007
  172SAPE   O2119378   4.166   1.812   3.373 -0.2734  0.1015 -0.3423
  172SAPE   C2119379   4.067   1.775   3.448 -0.3433  0.2433 -0.1003
  172SAPE   O2219380   4.013   1.666   3.443  0.5038 -0.2562 -0.1949
  172SAPE   C2219381   4.037   1.888   3.550  0.2242  0.7922 -0.1237
  172SAPE   H2R19382   4.112   1.969   3.540 -1.5238  2.5011 -0.2182
  172SAPE   H2S19383   3.941   1.937   3.523 -2.1025 -1.9490  2.4186
  172SAPE    C319384   4.300   1.601   3.365  0.4311  0.0516 -0.5893
  172SAPE    HX19385   4.345   1.540   3.284  1.2431 -0.3182  0.1198
  172SAPE    HY19386   4.230   1.530   3.414  1.3504 -0.7331 -0.3991
  172SAPE   O3119387   4.391   1.657   3.464 -0.0550  0.3172  0.5895
  172SAPE   C3119388   4.461   1.577   3.537 -0.7516  0.4942  0.3171
  172SAPE   O3219389   4.464   1.456   3.525 -0.3605  0.4075  0.1461
  172SAPE   C3219390   4.537   1.657   3.644 -0.0822 -0.2472 -0.4467
  172SAPE   H2X19391   4.504   1.763   3.653 -1.3455 -0.7823  1.7013
  172SAPE   H2Y19392   4.645   1.642   3.620 -0.0780  0.9053 -1.2866
  172SAPE   C2319393   4.023   1.828   3.691  0.8890  0.2252  0.0721
  172SAPE   H3R19394   3.933   1.766   3.709  0.9243  0.5727  1.5717
  172SAPE   H3S19395   4.002   1.908   3.765 -1.3951 -0.1558 -0.1218
  172SAPE   C2419396   4.146   1.751   3.736 -0.6606 -1.3275 -0.0201
  172SAPE   H4R19397   4.171   1.659   3.677  0.9364 -0.7625 -0.2708
  172SAPE   H4S19398   4.133   1.718   3.841  0.3755 -0.2856  0.4578
  172SAPE   C2519399   4.267   1.842   3.747 -0.5520  0.5994 -0.3284
  172SAPE   H5R19400   4.315   1.860   3.650  1.0576 -1.4620  0.0033
  172SAPE   C2619401   4.325   1.899   3.854 -0.0664  0.8836 -0.5644
  172SAPE   H6R19402   4.404   1.973   3.836  0.8598  0.1263  0.2875
  172SAPE   C2719403   4.275   1.885   3.999  0.2983  0.4538  0.2308
  172SAPE   H7R19404   4.285   1.781   4.036  1.3813 -0.4166 -2.2813
  172SAPE   H7S19405   4.168   1.913   4.004 -0.0295 -0.0230 -2.5111
  172SAPE   C2819406   4.369   1.958   4.086  1.0745 -0.6214 -0.2419
  172SAPE   H8R19407   4.475   1.931   4.075  1.3559  0.2894  0.1189
  172SAPE   C2919408   4.333   2.048   4.181 -0.0428  0.7513 -0.0471
  172SAPE   H9R19409   4.411   2.101   4.237 -0.0714  0.8109 -0.0622
  172SAPE  C21019410   4.197   2.096   4.231  0.0217  0.1344 -0.1861
  172SAPE  H10R19411   4.140   2.113   4.137 -0.9790  0.7503  0.5117
  172SAPE  H10S19412   4.203   2.198   4.274  1.6481  1.0616 -2.3964
  172SAPE  C21119413   4.120   1.999   4.319  0.0942 -0.5043  0.6677
  172SAPE  H11R19414   4.066   1.927   4.255 -0.0241  0.6203 -0.5203
  172SAPE  C21219415   4.091   2.006   4.450 -0.7065 -0.3353 -0.1335
  172SAPE  H12R19416   4.022   1.931   4.492  0.2306  0.6357  3.5409
  172SAPE  C21319417   4.163   2.085   4.555  0.6863 -0.3236 -0.0796
  172SAPE  H13R19418   4.087   2.165   4.567 -1.3579 -2.0475 -0.9478
  172SAPE  H13S19419   4.255   2.127   4.508  1.5656  0.2588  2.0606
  172SAPE  C21419420   4.195   2.016   4.686  0.5049 -0.1987 -0.5444
  172SAPE  H14R19421   4.302   1.990   4.697  0.5145  0.3804  0.9325
  172SAPE  C21519422   4.113   1.975   4.785 -0.2365  0.2956  1.0633
  172SAPE  H15R19423   4.154   1.906   4.860 -0.7532 -1.0989  0.0962
  172SAPE  C21619424   3.965   1.996   4.804 -0.0966  0.4605  0.6091
  172SAPE  H16R19425   3.916   1.896   4.809  2.3342 -0.9663 -1.5419
  172SAPE  H16S19426   3.932   2.032   4.704 -1.3032  0.9925  1.1718
  172SAPE  C21719427   3.916   2.067   4.923 -0.4906  1.3120 -0.2789
  172SAPE  H17R19428   3.959   2.169   4.931 -1.0244  1.5363 -0.2202
  172SAPE  H17S19429   3.955   2.017   5.014  0.5979 -2.3712 -2.5427
  172SAPE  C21819430   3.764   2.076   4.922 -0.6377  0.0985 -0.3575
  172SAPE  H18R19431   3.744   2.107   5.026 -1.1624 -0.0958 -0.3967
  172SAPE  H18S19432   3.724   1.973   4.912  0.6093 -0.4822  0.3532
  172SAPE  C21919433   3.702   2.179   4.829 -0.2114 -0.2100 -0.6028
  172SAPE  H19R19434   3.717   2.143   4.725 -1.8421  2.4446 -1.8701
  172SAPE  H19S19435   3.778   2.260   4.830  0.0747 -0.4254  2.4105
  172SAPE  C22019436   3.562   2.222   4.877  0.3621  0.7523  0.1230
  172SAPE  H20R19437   3.506   2.126   4.878 -0.5073  1.2215 -1.0673
  172SAPE  H20S19438   3.511   2.291   4.807 -0.1849 -0.1498 -0.3882
  172SAPE  H20T19439   3.570   2.271   4.976  0.1992 -1.7832  1.4969
  172SAPE   C3319440   4.522   1.593   3.777  0.3781  0.4662  0.1141
  172SAPE   H3X19441   4.551   1.486   3.778 -0.2384  0.2949  0.5750
  172SAPE   H3Y19442   4.414   1.602   3.800  0.3546 -0.4617  0.3905
  172SAPE   C3419443   4.595   1.660   3.887  0.6856  0.2304  0.2678
  172SAPE   H4X19444   4.571   1.766   3.906  1.4063  0.6540 -1.1129
  172SAPE   H4Y19445   4.703   1.656   3.863  1.3191 -0.9296  2.8983
  172SAPE   C3519446   4.576   1.581   4.022  0.2899  0.1040  0.4575
  172SAPE   H5X19447   4.645   1.494   4.016  1.7305  1.3186 -1.7152
  172SAPE   H5Y19448   4.472   1.549   4.041  1.0224 -2.5928  0.3666
  172SAPE   C3619449   4.625   1.663   4.139  0.3912 -0.0575 -0.5947
  172SAPE   H6X19450   4.597   1.767   4.111 -1.9065 -0.5390 -0.2860
  172SAPE   H6Y19451   4.736   1.659   4.144  0.4207  0.9546 -0.0784
  172SAPE   C3719452   4.555   1.629   4.263  0.5510  0.4564  0.4122
  172SAPE   H7X19453   4.558   1.521   4.287 -2.4832  0.7198  2.5498
  172SAPE   H7Y19454   4.446   1.647   4.255  0.5350  0.7221  1.1294
  172SAPE   C3819455   4.599   1.721   4.377 -0.6218  0.1447  0.4188
  172SAPE   H8X19456   4.597   1.823   4.334  2.6995 -0.8189 -2.4185
  172SAPE   H8Y19457   4.706   1.710   4.403  0.6272  0.6742 -3.7493
  172SAPE   C3919458   4.502   1.697   4.493 -0.0895 -0.0978 -0.0478
  172SAPE   H9X19459   4.520   1.590   4.517  2.2027  0.0051 -1.0273
  172SAPE   H9Y19460   4.394   1.697   4.466 -0.7750 -3.5100  2.0509
  172SAPE  C31019461   4.534   1.791   4.613 -0.2082 -0.2972  0.2781
  172SAPE  H10X19462   4.507   1.896   4.587  2.3164  0.3054 -0.2115
  172SAPE  H10Y19463   4.642   1.771   4.628 -0.2406  0.2236  1.2811
  172SAPE  C31119464   4.463   1.760   4.747 -0.2276  0.3832  0.0207
  172SAPE  H11X19465   4.499   1.660   4.779  1.3155  0.9646  0.1423
  172SAPE  H11Y19466   4.356   1.751   4.718  0.1239  0.9279 -1.5648
  172SAPE  C31219467   4.495   1.848   4.873  0.3673  0.7487  0.3519
  172SAPE  H12X19468   4.473   1.955   4.853 -0.0496  0.5616 -0.2336
  172SAPE  H12Y19469   4.606   1.845   4.866  0.5268 -0.6711  2.4942
  172SAPE  C31319470   4.442   1.777   5.003  0.3823 -0.4699  0.4457
  172SAPE  H13X19471   4.503   1.684   5.009  2.5768  0.8126 -0.7509
  172SAPE  H13Y19472   4.336   1.749   4.984  1.1373 -1.7286 -2.5614
  172SAPE  C31419473   4.464   1.846   5.138  0.6593 -0.3723 -0.0882
  172SAPE  H14X19474   4.567   1.884   5.123  1.0412 -1.6762 -0.9731
  172SAPE  H14Y19475   4.474   1.769   5.218 -0.0489 -1.0224 -0.6172
  172SAPE  C31519476   4.351   1.939   5.180  1.1550 -0.0519  1.5378
  172SAPE  H15X19477   4.343   1.962   5.288  1.6421  1.4666  1.2707
  172SAPE  H15Y19478   4.250   1.905   5.148  1.6121  0.7083 -0.8783
  172SAPE  C31619479   4.365   2.077   5.113  0.7383  0.4985  0.0974
  172SAPE  H16X19480   4.354   2.060   5.004  2.3278  2.1293 -0.3607
  172SAPE  H16Y19481   4.470   2.110   5.131  0.3141  0.7883  2.3365
  172SAPE  C31719482   4.251   2.179   5.145  0.0738 -0.0023 -0.1175
  172SAPE  H17X19483   4.259   2.225   5.246  4.2573 -1.4848  0.4197
  172SAPE  H17Y19484   4.156   2.122   5.149  1.8090 -3.0930  2.0370
  172SAPE  C31819485   4.236   2.280   5.037  0.1756 -0.6724 -0.5204
  172SAPE  H18X19486   4.245   2.237   4.935  0.9492 -2.1007  0.1058
  172SAPE  H18Y19487   4.308   2.364   5.036 -2.5961  1.8961 -2.8827
  172SAPE  H18Z19488   4.140   2.334   5.048  1.5702  1.5647  1.8723
  173SLPC     N19489   5.417   1.961   7.963 -0.3553  0.1543 -0.5052
  173SLPC   C1319490   5.558   1.908   7.964  0.3828  0.4552  0.5673
  173SLPC  H13A19491   5.583   1.872   8.063 -0.8710 -1.0658  0.3769
  173SLPC  H13B19492   5.564   1.815   7.910  0.9598 -0.6477  2.4491
  173SLPC  H13C19493   5.635   1.979   7.938  0.1830  0.1614 -0.9007
  173SLPC   C1419494   5.415   2.079   8.056 -0.3706  0.1063  0.4968
  173SLPC  H14A19495   5.325   2.137   8.043 -0.2102  0.2371 -0.0700
  173SLPC  H14B19496   5.428   2.039   8.155  0.4011 -0.0616  0.3407
  173SLPC  H14C19497   5.489   2.149   8.020 -2.3202  0.7318 -2.6608
  173SLPC   C1519498   5.324   1.858   8.002 -0.6058 -0.5988  0.2810
  173SLPC  H15A19499   5.226   1.901   7.990  0.5350  1.6284 -2.5534
  173SLPC  H15B19500   5.338   1.769   7.943 -0.4719 -1.1805  1.1779
  173SLPC  H15C19501   5.336   1.831   8.106 -0.2386  1.8916  0.9577
  173SLPC   C1219502   5.376   2.020   7.825  0.0149  0.1565  0.5134
  173SLPC  H12A19503   5.280   2.069   7.834 -0.7049 -1.0487 -0.1649
  173SLPC  H12B19504   5.359   1.951   7.744  1.5084  2.7425 -2.2033
  173SLPC   C1119505   5.477   2.111   7.754 -0.0085  1.7554  0.4674
  173SLPC  H11A19506   5.458   2.104   7.644  2.8732 -0.1120 -0.0448
  173SLPC  H11B19507   5.581   2.075   7.770 -1.0143 -0.9260  1.6269
  173SLPC     P19508   5.339   2.332   7.771  0.3968  0.5210  0.2055
  173SLPC   O1319509   5.229   2.276   7.848  0.7368  0.1881 -0.3059
  173SLPC   O1419510   5.382   2.471   7.796  0.2970 -0.3043 -0.6976
  173SLPC   O1219511   5.456   2.241   7.800  0.3541  0.3878  0.0242
  173SLPC   O1119512   5.312   2.332   7.610  0.5180  0.1284  0.2183
  173SLPC    C119513   5.415   2.393   7.528 -0.5563 -0.0109 -0.3040
  173SLPC    HA19514   5.441   2.496   7.560 -0.4433  1.0934 -3.6164
  173SLPC    HB19515   5.499   2.320   7.517 -1.2922 -0.9992  0.4107
  173SLPC    C219516   5.376   2.393   7.375  0.4231  0.6093 -0.5309
  173SLPC    HS19517   5.303   2.312   7.358  1.5789 -1.2101  2.4648
  173SLPC   O2119518   5.491   2.385   7.287 -0.2241 -0.4971  0.3836
  173SLPC   C2119519   5.538   2.267   7.272 -0.6925 -0.4380  0.5836
  173SLPC   O2219520   5.499   2.169   7.326 -0.0414 -0.5162 -0.3898
  173SLPC   C2219521   5.671   2.279   7.197 -0.2559  1.4115 -0.0488
  173SLPC   H2R19522   5.738   2.358   7.238  1.7234 -0.2414  0.0919
  173SLPC   H2S19523   5.726   2.183   7.205 -1.1029  0.5848 -2.8832
  173SLPC    C319524   5.302   2.524   7.355  0.0628 -0.6636  1.1703
  173SLPC    HX19525   5.354   2.610   7.403 -0.2347  0.4963 -0.4925
  173SLPC    HY19526   5.202   2.522   7.403  0.8679  2.0003  3.2282
  173SLPC   O3119527   5.285   2.550   7.213 -0.5771  0.1425 -0.0145
  173SLPC   C3119528   5.294   2.672   7.162 -1.0659 -0.7790  0.1012
  173SLPC   O3219529   5.341   2.767   7.226 -0.5563  0.3992  0.6137
  173SLPC   C3219530   5.243   2.666   7.020 -0.1767 -0.5331  0.5640
  173SLPC   H2X19531   5.133   2.648   7.019 -0.2629 -0.0385  0.1739
  173SLPC   H2Y19532   5.294   2.584   6.966  2.0244  1.0567  0.0574
  173SLPC   C2319533   5.630   2.313   7.051  0.5430  0.6081 -0.0129
  173SLPC   H3R19534   5.716   2.348   6.992  0.4067  0.8128 -0.0897
  173SLPC   H3S19535   5.569   2.405   7.064  0.3069  0.2698  1.4925
  173SLPC   C2419536   5.535   2.218   6.973 -0.4096 -0.2491 -0.2562
  173SLPC   H4R19537   5.450   2.200   7.042  0.1663  2.1566  1.2169
  173SLPC   H4S19538   5.593   2.125   6.955 -1.2555 -0.7415 -0.4627
  173SLPC   C2519539   5.477   2.272   6.846 -0.5730 -0.0688 -0.4206
  173SLPC   H5R19540   5.416   2.361   6.874 -0.3229 -0.5137  1.6876
  173SLPC   H5S19541   5.404   2.191   6.824 -2.9837  1.5458  1.0702
  173SLPC   C2619542   5.569   2.300   6.731 -0.9484 -0.2271  1.2401
  173SLPC   H6R19543   5.651   2.368   6.761  1.1839 -2.1507  0.0658
  173SLPC   H6S19544   5.519   2.353   6.647  0.7453 -0.0453  0.3075
  173SLPC   C2719545   5.627   2.175   6.667 -0.1331  0.4717  0.2253
  173SLPC   H7R19546   5.551   2.101   6.635  2.5581 -1.7628 -1.4350
  173SLPC   H7S19547   5.692   2.129   6.745  0.0820  1.7475  0.8340
  173SLPC   C2819548   5.709   2.199   6.539 -0.0285 -0.0719 -0.1571
  173SLPC   H8R19549   5.764   2.103   6.524  0.9996  0.3404  0.9380
  173SLPC   H8S19550   5.784   2.279   6.556  2.1207 -1.1557 -3.4763
  173SLPC   C2919551   5.620   2.235   6.417 -0.1017  1.0095 -0.1976
  173SLPC   H9R19552   5.530   2.174   6.399  2.2409 -2.3435 -1.6053
  173SLPC  C21019553   5.659   2.326   6.327  0.6928 -0.0351 -0.1850
  173SLPC  H10R19554   5.589   2.349   6.244 -0.3170 -0.6002  0.4864
  173SLPC  C21119555   5.789   2.405   6.317 -0.2536  0.2084 -0.0153
  173SLPC  H11R19556   5.865   2.375   6.393  1.2587  1.8852 -0.7764
  173SLPC  H11S19557   5.780   2.511   6.347  1.4722  0.5481 -0.5538
  173SLPC  C21219558   5.840   2.398   6.169 -0.1056  0.3712 -0.7856
  173SLPC  H12R19559   5.918   2.323   6.152 -0.3954 -0.4999  1.4239
  173SLPC  C21319560   5.793   2.472   6.070 -0.5699 -0.6885 -0.1029
  173SLPC  H13R19561   5.839   2.455   5.971  0.5305 -0.1133  0.3006
  173SLPC  C21419562   5.689   2.578   6.067  0.1035  0.4932 -0.0095
  173SLPC  H14R19563   5.738   2.670   6.030  0.6286  0.0159 -0.5297
  173SLPC  H14S19564   5.657   2.600   6.171  0.4376 -0.3024  0.2741
  173SLPC  C21519565   5.566   2.539   5.984  0.2099 -0.3436 -0.2226
  173SLPC  H15R19566   5.512   2.449   6.020 -1.0865  0.9672  1.2817
  173SLPC  H15S19567   5.604   2.521   5.881  0.6403  0.7756 -0.2809
  173SLPC  C21619568   5.468   2.664   5.986 -0.2799  0.1212 -0.1652
  173SLPC  H16R19569   5.526   2.749   5.944  0.4842 -0.3563 -0.1026
  173SLPC  H16S19570   5.449   2.696   6.090  0.2761  0.2803 -0.1101
  173SLPC  C21719571   5.343   2.654   5.887 -0.2646  0.1817  0.0227
  173SLPC  H17R19572   5.275   2.737   5.913  1.4493  1.2023  1.4340
  173SLPC  H17S19573   5.305   2.551   5.905  0.5687  0.0402  1.0808
  173SLPC  C21819574   5.365   2.659   5.736  0.0424 -0.0604  0.4839
  173SLPC  H18R19575   5.388   2.762   5.702 -0.4390 -0.3421 -0.7166
  173SLPC  H18S19576   5.281   2.617   5.677 -0.0052  0.5338  0.1253
  173SLPC  H18T19577   5.456   2.604   5.703  0.2028 -0.2051  1.1467
  173SLPC   C3319578   5.266   2.793   6.937 -0.3574  0.3663 -0.3602
  173SLPC   H3X19579   5.375   2.809   6.928 -0.5791  2.4203  0.0738
  173SLPC   H3Y19580   5.229   2.882   6.993 -1.6749  0.3950 -1.2266
  173SLPC   C3419581   5.194   2.780   6.796  0.0347  0.6857  0.2473
  173SLPC   H4X19582   5.093   2.735   6.805  1.0093 -1.6800  0.1188
  173SLPC   H4Y19583   5.257   2.705   6.743  0.7489  1.1881  0.3712
  173SLPC   C3519584   5.191   2.907   6.719  0.5771 -0.0827  0.0128
  173SLPC   H5X19585   5.292   2.953   6.709  0.7387 -0.8801 -2.9413
  173SLPC   H5Y19586   5.114   2.974   6.765 -1.1905 -1.6356 -0.5509
  173SLPC   C3619587   5.148   2.888   6.575 -0.0381 -0.2373  0.4453
  173SLPC   H6X19588   5.182   2.791   6.534 -0.1584 -0.7973  1.6262
  173SLPC   H6Y19589   5.201   2.964   6.513 -2.5145  2.2593  1.2110
  173SLPC   C3719590   4.997   2.915   6.547  0.1436  0.4819  0.3072
  173SLPC   H7X19591   4.974   3.018   6.581  1.2485  0.5088  1.0290
  173SLPC   H7Y19592   4.941   2.841   6.609 -1.2171 -1.0574 -2.5658
  173SLPC   C3819593   4.953   2.912   6.402  0.6447 -0.1821  0.2513
  173SLPC   H8X19594   4.952   2.805   6.373  0.0983 -0.0222 -0.3520
  173SLPC   H8Y19595   5.028   2.956   6.332 -0.8989 -0.0163 -1.3783
  173SLPC   C3919596   4.819   2.978   6.380  0.5369 -0.2165 -0.2878
  173SLPC   H9X19597   4.810   3.082   6.416 -0.2873 -0.1886 -0.5608
  173SLPC   H9Y19598   4.742   2.920   6.436 -0.7318  1.1167 -0.6031
  173SLPC  C31019599   4.787   2.990   6.229 -0.0132 -0.0574 -0.7670
  173SLPC  H10X19600   4.791   2.888   6.183  2.0828 -0.5266  0.3493
  173SLPC  H10Y19601   4.871   3.044   6.180  0.1914  0.2979 -0.0332
  173SLPC  C31119602   4.650   3.060   6.216  0.5842 -1.0480  0.2783
  173SLPC  H11X19603   4.659   3.151   6.279  2.1027  0.3716 -1.8366
  173SLPC  H11Y19604   4.563   2.998   6.249 -2.1442  0.0590 -3.9424
  173SLPC  C31219605   4.622   3.100   6.072 -0.3696 -0.0415 -0.0063
  173SLPC  H12X19606   4.710   3.148   6.023 -0.3971 -1.1580 -1.1811
  173SLPC  H12Y19607   4.540   3.174   6.064  0.0985  0.4116 -0.6319
  173SLPC  C31319608   4.596   2.981   5.981 -0.5223  0.0592 -0.9463
  173SLPC  H13X19609   4.487   2.957   5.984 -0.5291  0.1396  1.7719
  173SLPC  H13Y19610   4.651   2.893   6.019 -0.6740  0.2870 -0.1860
  173SLPC  C31419611   4.642   3.011   5.836 -0.6326  0.0174  0.4386
  173SLPC  H14X19612   4.617   3.112   5.798 -0.1145 -0.2744 -0.7277
  173SLPC  H14Y19613   4.600   2.939   5.763  0.1844  0.7239 -0.7708
  173SLPC  C31519614   4.796   3.007   5.816 -0.1617 -0.1531 -0.3077
  173SLPC  H15X19615   4.830   2.901   5.821 -0.5952 -0.4433 -2.5351
  173SLPC  H15Y19616   4.847   3.068   5.894 -0.0417 -0.9499  0.2448
  173SLPC  C31619617   4.836   3.060   5.675  0.1879  0.1728  0.3936
  173SLPC  H16X19618   4.812   3.168   5.684  0.5694  0.2836  0.1076
  173SLPC  H16Y19619   4.772   3.016   5.596  0.8038  1.1256 -0.6689
  173SLPC  C31719620   4.982   3.035   5.655 -0.1252 -0.6173  0.1501
  173SLPC  H17X19621   5.030   3.072   5.749  0.3423  1.1894 -0.7567
  173SLPC  H17Y19622   5.021   3.091   5.568 -1.2893 -1.8413 -1.1943
  173SLPC  C31819623   5.037   2.891   5.641 -0.1535 -0.7688  0.1934
  173SLPC  H18X19624   5.021   2.828   5.731  1.0555  0.2773  1.1877
  173SLPC  H18Y19625   5.147   2.891   5.628 -0.4301  1.6408 -3.6169
  173SLPC  H18Z19626   4.990   2.839   5.555 -0.1284  1.0326 -0.9763
  174SLPC     N19627   1.813   4.173   7.715  0.1830 -0.1301 -0.4583
  174SLPC   C1319628   1.688   4.153   7.630 -0.4692  0.4793  0.7893
  174SLPC  H13A19629   1.718   4.117   7.533 -1.2852 -0.3759  0.8462
  174SLPC  H13B19630   1.623   4.073   7.662 -1.2222 -0.5399 -2.8463
  174SLPC  H13C19631   1.622   4.237   7.614 -1.4628 -0.4123  0.0753
  174SLPC   C1419632   1.774   4.258   7.832  0.3851  0.0834 -0.0307
  174SLPC  H14A19633   1.697   4.223   7.899  1.3345  0.0369  1.0739
  174SLPC  H14B19634   1.858   4.266   7.900  0.8491  1.9686 -0.7547
  174SLPC  H14C19635   1.737   4.355   7.804 -0.8388  0.3575  2.2708
  174SLPC   C1519636   1.919   4.254   7.637  0.1637 -0.4008 -0.3575
  174SLPC  H15A19637   1.965   4.194   7.560 -1.4875 -1.7900 -0.3246
  174SLPC  H15B19638   1.868   4.338   7.593  1.3666  0.5358 -0.0143
  174SLPC  H15C19639   1.993   4.291   7.706 -0.1567  0.7843 -0.6165
  174SLPC   C1219640   1.871   4.040   7.760 -0.1145 -0.2767  0.0592
  174SLPC  H12A19641   1.965   4.065   7.807 -0.1052  0.1105 -0.1559
  174SLPC  H12B19642   1.899   3.979   7.676 -2.0469 -1.5016  0.2444
  174SLPC   C1119643   1.793   3.945   7.855 -0.3641 -0.1624  0.0861
  174SLPC  H11A19644   1.757   3.999   7.945 -0.6172  1.5683 -0.9955
  174SLPC  H11B19645   1.851   3.857   7.891 -1.5710 -1.9417 -2.0860
  174SLPC     P19646   1.681   3.760   7.718 -0.2601 -0.1022  0.1373
  174SLPC   O1319647   1.731   3.662   7.819  0.8730  0.4387  0.0609
  174SLPC   O1419648   1.542   3.733   7.657 -0.0251  0.0239  0.1827
  174SLPC   O1219649   1.676   3.899   7.781  0.1867  0.0809 -0.2711
  174SLPC   O1119650   1.784   3.790   7.604  0.2533 -0.4808  0.7501
  174SLPC    C119651   1.741   3.823   7.471 -0.4061  0.1206 -0.0310
  174SLPC    HA19652   1.636   3.860   7.472 -0.7152 -0.6249  2.6720
  174SLPC    HB19653   1.793   3.912   7.428 -1.2088 -0.8616 -3.3445
  174SLPC    C219654   1.745   3.693   7.379  0.4556 -0.5879 -0.2525
  174SLPC    HS19655   1.674   3.622   7.428 -0.8045  0.3968 -0.5739
  174SLPC   O2119656   1.878   3.634   7.378  0.3108  0.7759 -0.0589
  174SLPC   C2119657   1.897   3.502   7.394 -0.0944 -0.1452 -0.6463
  174SLPC   O2219658   1.806   3.425   7.411  0.6257  0.1736  0.5202
  174SLPC   C2219659   2.049   3.472   7.390 -0.1321  0.3642 -0.5325
  174SLPC   H2R19660   2.108   3.558   7.351  2.8946 -0.1514  2.4647
  174SLPC   H2S19661   2.071   3.460   7.498 -1.0601 -1.6342 -0.5242
  174SLPC    C319662   1.698   3.721   7.234  0.1133  0.0747  0.1277
  174SLPC    HX19663   1.711   3.627   7.176 -0.6334  1.1490 -1.8841
  174SLPC    HY19664   1.775   3.794   7.202  2.6758 -1.9458  1.2491
  174SLPC   O3119665   1.556   3.774   7.230  0.4142 -0.0665 -0.2230
  174SLPC   C3119666   1.462   3.687   7.207  0.3006 -0.3352  0.4985
  174SLPC   O3219667   1.473   3.567   7.210 -0.1476  0.2203 -0.0524
  174SLPC   C3219668   1.329   3.765   7.171 -0.0881  0.5619  0.3786
  174SLPC   H2X19669   1.324   3.853   7.239  0.6418 -1.4307  3.1855
  174SLPC   H2Y19670   1.243   3.705   7.207 -1.8583  2.0170 -1.1993
  174SLPC   C2319671   2.078   3.352   7.302  0.2315  0.0029 -0.6371
  174SLPC   H3R19672   2.018   3.262   7.327 -0.4510  0.0831 -1.9044
  174SLPC   H3S19673   2.186   3.330   7.311 -0.0167 -1.9466 -1.8257
  174SLPC   C2419674   2.057   3.379   7.149  0.0616 -0.1365 -0.2366
  174SLPC   H4R19675   2.095   3.481   7.123  1.9687 -0.8578 -0.3994
  174SLPC   H4S19676   1.948   3.364   7.134 -0.0264 -2.7844  2.2257
  174SLPC   C2519677   2.123   3.270   7.067  0.1302 -1.1985 -0.0297
  174SLPC   H5R19678   2.082   3.171   7.095  2.2666 -2.0731  0.1396
  174SLPC   H5S19679   2.232   3.269   7.088  0.6543 -0.4728 -2.3136
  174SLPC   C2619680   2.106   3.279   6.922  0.3139  0.0321 -0.1597
  174SLPC   H6R19681   2.166   3.363   6.879 -1.1663 -0.0719 -2.6542
  174SLPC   H6S19682   1.999   3.300   6.901  0.1599 -0.3218  0.2582
  174SLPC   C2719683   2.148   3.150   6.857 -0.4323  0.3221  0.4172
  174SLPC   H7R19684   2.067   3.075   6.865  0.0206 -0.2491 -0.1362
  174SLPC   H7S19685   2.235   3.103   6.909 -0.4398 -0.6082 -0.3641
  174SLPC   C2819686   2.180   3.150   6.706  0.4102 -0.5404  0.0205
  174SLPC   H8R19687   2.189   3.044   6.675  1.9674 -0.3945 -0.1060
  174SLPC   H8S19688   2.280   3.198   6.698 -0.2540  0.7356 -1.1211
  174SLPC   C2919689   2.077   3.222   6.611 -0.5457 -0.5213 -0.8170
  174SLPC   H9R19690   1.975   3.184   6.605 -1.0443  0.8727 -1.5910
  174SLPC  C21019691   2.106   3.334   6.543  0.1015 -0.5585 -0.2809
  174SLPC  H10R19692   2.023   3.383   6.490  0.4727  2.7413  1.8793
  174SLPC  C21119693   2.238   3.402   6.534 -0.1108  0.4835 -0.5272
  174SLPC  H11R19694   2.306   3.338   6.474 -0.6445  0.4449 -1.1075
  174SLPC  H11S19695   2.279   3.418   6.636 -1.7131  0.2259  0.1869
  174SLPC  C21219696   2.237   3.536   6.465  0.2779  0.4776  0.1196
  174SLPC  H12R19697   2.149   3.597   6.488 -0.7690 -0.4228 -1.3439
  174SLPC  C21319698   2.321   3.579   6.373  0.1170  0.5814 -0.7998
  174SLPC  H13R19699   2.298   3.677   6.330  0.0684  1.1263  0.4193
  174SLPC  C21419700   2.439   3.520   6.315  1.3691 -0.0125  0.3648
  174SLPC  H14R19701   2.450   3.414   6.349  1.5777  0.2261  1.0633
  174SLPC  H14S19702   2.518   3.569   6.376  0.6370 -2.1109  3.2115
  174SLPC  C21519703   2.458   3.528   6.160  1.2295 -0.4817  0.0582
  174SLPC  H15R19704   2.474   3.633   6.129 -1.1248  0.0547  0.4399
  174SLPC  H15S19705   2.360   3.502   6.115 -0.0722  1.9248  1.2800
  174SLPC  C21619706   2.577   3.448   6.115  0.0810 -0.3601  0.4327
  174SLPC  H16R19707   2.565   3.343   6.150 -0.9233 -1.0276 -1.7708
  174SLPC  H16S19708   2.663   3.499   6.164 -1.1405  2.7133 -0.3625
  174SLPC  C21719709   2.616   3.453   5.970  0.4521  0.2370 -0.0241
  174SLPC  H17R19710   2.534   3.415   5.905  0.1226 -0.7337  0.9470
  174SLPC  H17S19711   2.688   3.370   5.957 -0.3552 -1.0467  3.0442
  174SLPC  C21819712   2.674   3.588   5.938  0.2286 -0.1936  0.1559
  174SLPC  H18R19713   2.699   3.602   5.831  1.0182 -3.4470 -0.1739
  174SLPC  H18S19714   2.764   3.613   5.999  0.0694  0.6596  0.0495
  174SLPC  H18T19715   2.606   3.671   5.967  0.5840 -0.4300  1.7709
  174SLPC   C3319716   1.314   3.814   7.017 -0.0255 -0.0983 -1.1118
  174SLPC   H3X19717   1.399   3.881   6.994 -0.0123  0.6500  0.8926
  174SLPC   H3Y19718   1.231   3.886   7.001 -1.5044 -0.5176  3.1440
  174SLPC   C3419719   1.303   3.694   6.921  0.8478 -0.4507  0.0986
  174SLPC   H4X19720   1.203   3.648   6.936  0.4283 -0.3561 -2.0782
  174SLPC   H4Y19721   1.386   3.622   6.940 -0.2593 -2.0451 -0.8402
  174SLPC   C3519722   1.312   3.729   6.771 -0.1379 -0.1743 -0.3964
  174SLPC   H5X19723   1.400   3.795   6.755 -1.3540  1.1067 -2.2279
  174SLPC   H5Y19724   1.228   3.794   6.739 -0.4842  0.5137  1.7562
  174SLPC   C3619725   1.331   3.611   6.686 -0.2302  0.5382 -0.0868
  174SLPC   H6X19726   1.265   3.529   6.721  1.5421 -0.9425 -0.1202
  174SLPC   H6Y19727   1.435   3.576   6.699 -0.1943 -0.0699 -1.7461
  174SLPC   C3719728   1.305   3.650   6.543 -0.7894  0.1690 -0.5158
  174SLPC   H7X19729   1.372   3.734   6.513 -0.8098 -0.5860 -2.8707
  174SLPC   H7Y19730   1.200   3.686   6.544 -0.3391  1.5831  0.8161
  174SLPC   C3819731   1.321   3.542   6.443 -0.4689 -0.5800 -0.0225
  174SLPC   H8X19732   1.241   3.467   6.464 -0.2542 -0.4860  1.2365
  174SLPC   H8Y19733   1.414   3.482   6.446  0.1570  0.3910  1.9305
  174SLPC   C3919734   1.288   3.606   6.303 -0.7423 -0.2230  0.2232
  174SLPC   H9X19735   1.368   3.682   6.301 -1.1787  0.3806  2.5990
  174SLPC   H9Y19736   1.188   3.652   6.316 -2.2765 -2.6536 -1.9391
  174SLPC  C31019737   1.305   3.508   6.177 -0.1349 -0.1953  0.1750
  174SLPC  H10X19738   1.220   3.436   6.176 -0.2894 -0.0096 -0.7010
  174SLPC  H10Y19739   1.399   3.453   6.199  0.7166  1.8271  2.0125
  174SLPC  C31119740   1.311   3.576   6.041  0.1424  0.1667  1.4182
  174SLPC  H11X19741   1.373   3.668   6.052 -0.0281  0.4240  0.3757
  174SLPC  H11Y19742   1.209   3.602   6.004  1.3204 -0.5061 -2.8989
  174SLPC  C31219743   1.366   3.486   5.931  0.1386  0.1894 -1.1335
  174SLPC  H12X19744   1.289   3.407   5.917 -1.9213  2.0220 -0.7161
  174SLPC  H12Y19745   1.454   3.431   5.972 -1.4236 -0.4004  1.7053
  174SLPC  C31319746   1.382   3.558   5.800 -1.1730  0.4266  0.9698
  174SLPC  H13X19747   1.431   3.655   5.824 -2.0562  1.6026 -1.5755
  174SLPC  H13Y19748   1.284   3.574   5.750 -1.6694 -1.8897  1.1072
  174SLPC  C31419749   1.474   3.501   5.687  0.5598  0.1609  0.5691
  174SLPC  H14X19750   1.478   3.575   5.604  2.2106  1.0805  1.4155
  174SLPC  H14Y19751   1.432   3.407   5.646  1.8081 -2.1833  4.1950
  174SLPC  C31519752   1.620   3.463   5.727  0.0013 -0.6136 -0.6955
  174SLPC  H15X19753   1.625   3.359   5.768  0.0240  0.0081  0.9634
  174SLPC  H15Y19754   1.643   3.530   5.813  2.1384 -1.8470 -0.2119
  174SLPC  C31619755   1.725   3.488   5.608 -0.3323 -0.4645 -0.2363
  174SLPC  H16X19756   1.829   3.492   5.646 -0.1428  0.4327 -0.8215
  174SLPC  H16Y19757   1.711   3.591   5.568 -1.0418 -0.4215  0.1181
  174SLPC  C31719758   1.700   3.397   5.496  0.1935  0.7533 -0.7081
  174SLPC  H17X19759   1.602   3.404   5.444 -0.1535 -0.7889 -0.3208
  174SLPC  H17Y19760   1.700   3.290   5.527  1.2266  0.5920 -1.2391
  174SLPC  C31819761   1.813   3.421   5.401 -0.7784  0.3037  0.4986
  174SLPC  H18X19762   1.837   3.530   5.400  2.0507 -0.2407  1.6173
  174SLPC  H18Y19763   1.799   3.372   5.302 -0.2661  1.4281 -0.1556
  174SLPC  H18Z19764   1.904   3.377   5.445 -0.6625  2.2774  2.4535
  175SLPC     N19765   4.864   5.813   7.776  0.3448 -0.5832  0.2710
  175SLPC   C1319766   4.883   5.928   7.684  0.1022  0.1834  0.7123
  175SLPC  H13A19767   4.828   5.911   7.593 -0.1052 -1.8246  1.1814
  175SLPC  H13B19768   4.847   6.021   7.728  0.1531 -0.1939  1.5759
  175SLPC  H13C19769   4.987   5.942   7.657 -0.8171  2.3742 -2.1358
  175SLPC   C1419770   4.737   5.849   7.839  0.6410  0.0610 -0.2169
  175SLPC  H14A19771   4.730   5.948   7.881  0.9486  0.0356 -0.0972
  175SLPC  H14B19772   4.652   5.844   7.773  2.0407  1.2742 -2.2308
  175SLPC  H14C19773   4.723   5.778   7.919  0.3729 -0.0525 -0.3637
  175SLPC   C1519774   4.966   5.809   7.882 -0.0715  0.2395 -0.6221
  175SLPC  H15A19775   5.059   5.777   7.839 -0.4949 -1.5803 -0.2595
  175SLPC  H15B19776   4.973   5.912   7.913 -1.1966  0.1091  0.1795
  175SLPC  H15C19777   4.936   5.732   7.952 -2.2282  0.1104 -1.6211
  175SLPC   C1219778   4.842   5.683   7.707 -0.2749 -0.8042  0.1489
  175SLPC  H12A19779   4.755   5.707   7.647 -0.6254  3.0401  1.8880
  175SLPC  H12B19780   4.817   5.610   7.783 -1.1968 -0.5846  0.0672
  175SLPC   C1119781   4.957   5.623   7.630  0.1092 -0.4387  0.2263
  175SLPC  H11A19782   5.002   5.704   7.569 -1.7539  0.4655 -0.0120
  175SLPC  H11B19783   4.917   5.536   7.573  0.0878 -1.4719  1.7731
  175SLPC     P19784   5.206   5.596   7.698  0.1586 -0.2562  0.1884
  175SLPC   O1319785   5.237   5.739   7.710  0.1171 -0.4628 -0.1349
  175SLPC   O1419786   5.292   5.499   7.766 -0.4022 -0.1592 -0.0496
  175SLPC   O1219787   5.044   5.568   7.728 -1.0411 -0.2476 -0.2703
  175SLPC   O1119788   5.209   5.560   7.536 -0.0260  0.1290 -0.4593
  175SLPC    C119789   5.228   5.661   7.439  0.3737 -0.6482 -0.4886
  175SLPC    HA19790   5.141   5.729   7.431  2.1416  1.6210 -1.8908
  175SLPC    HB19791   5.307   5.734   7.468 -1.0266  0.0634  1.8077
  175SLPC    C219792   5.267   5.618   7.294  0.2041 -0.7212 -0.6634
  175SLPC    HS19793   5.305   5.711   7.245 -2.4876  0.5016 -0.5908
  175SLPC   O2119794   5.148   5.564   7.239 -0.0791  0.1189  0.7049
  175SLPC   C2119795   5.151   5.575   7.103 -0.5099  0.6415 -0.1484
  175SLPC   O2219796   5.247   5.617   7.044  0.0706  0.3840  0.0873
  175SLPC   C2219797   5.015   5.534   7.046  0.1762  0.3335  1.1002
  175SLPC   H2R19798   4.970   5.443   7.093  0.0720  1.1032  2.5291
  175SLPC   H2S19799   4.948   5.618   7.074 -1.7741 -0.8013  0.0841
  175SLPC    C319800   5.386   5.516   7.290 -0.9195 -0.0984 -0.2557
  175SLPC    HX19801   5.352   5.410   7.292  0.7842 -0.7055 -1.3051
  175SLPC    HY19802   5.438   5.537   7.386  0.8601 -2.0705 -0.7396
  175SLPC   O3119803   5.492   5.556   7.195 -0.2257  0.5714  0.3009
  175SLPC   C3119804   5.506   5.479   7.088 -0.0207 -0.1984 -0.0609
  175SLPC   O3219805   5.476   5.361   7.078  0.2763  0.2845  0.0973
  175SLPC   C3219806   5.584   5.562   6.988 -0.1352 -0.2094 -0.0580
  175SLPC   H2X19807   5.688   5.571   7.027 -0.0379  0.3341 -0.4305
  175SLPC   H2Y19808   5.528   5.657   6.982 -3.8288 -2.0723  1.8042
  175SLPC   C2319809   5.008   5.500   6.895 -0.1739 -0.9775 -0.9624
  175SLPC   H3R19810   4.923   5.433   6.871 -1.0281 -0.6378  0.9004
  175SLPC   H3S19811   5.090   5.438   6.853 -0.5191 -3.1802  1.3506
  175SLPC   C2419812   5.001   5.633   6.822 -0.2200 -0.3072  0.2217
  175SLPC   H4R19813   5.090   5.700   6.829 -0.3516 -0.1512  0.4161
  175SLPC   H4S19814   4.911   5.690   6.853 -0.7597 -0.5845 -0.7995
  175SLPC   C2519815   4.959   5.614   6.674 -0.1271  0.2708 -0.2333
  175SLPC   H5R19816   4.876   5.541   6.664  0.5147 -0.8129  1.8010
  175SLPC   H5S19817   5.042   5.584   6.606 -1.8472  0.8274 -2.6959
  175SLPC   C2619818   4.902   5.739   6.616  0.7921  0.8174 -0.0811
  175SLPC   H6R19819   4.846   5.779   6.703  0.5560 -0.5936  0.4451
  175SLPC   H6S19820   4.829   5.726   6.533 -0.3232  0.1178  0.9843
  175SLPC   C2719821   5.005   5.844   6.560  0.2542  1.0592  1.1521
  175SLPC   H7R19822   5.075   5.783   6.499 -0.8461 -0.3756  1.2610
  175SLPC   H7S19823   5.058   5.878   6.652  0.9705  2.2781  0.3109
  175SLPC   C2819824   4.937   5.956   6.483  0.3372 -0.2944  0.1979
  175SLPC   H8R19825   4.874   6.018   6.550  0.4726 -1.0680  1.0624
  175SLPC   H8S19826   4.873   5.912   6.404  0.3248  1.9067 -1.0800
  175SLPC   C2919827   5.032   6.053   6.417  0.1532  0.4768  0.4244
  175SLPC   H9R19828   5.042   6.153   6.461  3.2614  1.8828 -2.9890
  175SLPC  C21019829   5.111   6.022   6.312 -0.7098  0.1541  0.3244
  175SLPC  H10R19830   5.172   6.104   6.271  0.4871 -1.0879 -0.4827
  175SLPC  C21119831   5.111   5.890   6.235 -0.1147  0.8148 -0.5226
  175SLPC  H11R19832   5.094   5.797   6.293 -0.5148  0.1137 -1.7474
  175SLPC  H11S19833   5.219   5.891   6.211 -0.2967  1.3603 -1.3397
  175SLPC  C21219834   5.026   5.889   6.111  0.2616  0.8220 -0.1275
  175SLPC  H12R19835   4.936   5.829   6.131 -0.1963  1.1791 -1.0798
  175SLPC  C21319836   5.056   5.927   5.983  0.0307 -0.1788 -0.2264
  175SLPC  H13R19837   4.979   5.923   5.904 -0.2572 -1.2311  0.0781
  175SLPC  C21419838   5.182   5.989   5.956 -0.2975  0.2232 -0.3882
  175SLPC  H14R19839   5.252   5.908   5.984 -1.1114 -0.1299  0.6978
  175SLPC  H14S19840   5.194   6.080   6.019 -0.6662  1.5019 -2.0772
  175SLPC  C21519841   5.186   6.029   5.809  0.7744 -0.5646  0.9925
  175SLPC  H15R19842   5.172   5.944   5.739  1.4983  1.7497 -2.1822
  175SLPC  H15S19843   5.291   6.056   5.782  0.5485 -0.0959  0.5562
  175SLPC  C21619844   5.082   6.128   5.755  0.1063 -0.8954  0.0046
  175SLPC  H16R19845   4.979   6.087   5.744  0.7231 -2.2490 -0.8908
  175SLPC  H16S19846   5.116   6.173   5.659  1.4299  0.7925  1.2001
  175SLPC  C21719847   5.071   6.264   5.840 -0.3846  0.2897  0.7411
  175SLPC  H17R19848   5.063   6.224   5.944  2.3728 -3.5838 -0.3109
  175SLPC  H17S19849   4.983   6.323   5.806 -0.3488  0.2949  0.6593
  175SLPC  C21819850   5.189   6.357   5.815  0.6812 -0.4542  0.1998
  175SLPC  H18R19851   5.285   6.303   5.826  1.7448  1.2890 -0.1610
  175SLPC  H18S19852   5.188   6.426   5.902 -0.0135 -2.2781  1.7023
  175SLPC  H18T19853   5.178   6.404   5.715 -2.1611 -1.5996 -0.1213
  175SLPC   C3319854   5.584   5.506   6.843 -0.1668  0.3814  0.3946
  175SLPC   H3X19855   5.621   5.403   6.862 -0.6124  0.0962 -0.2718
  175SLPC   H3Y19856   5.660   5.563   6.785  1.8254 -1.3812  1.1209
  175SLPC   C3419857   5.452   5.505   6.767  0.6672 -0.0405  0.3333
  175SLPC   H4X19858   5.405   5.606   6.763  2.5770  0.8883 -0.0074
  175SLPC   H4Y19859   5.381   5.441   6.824 -2.2021  1.4974 -1.2617
  175SLPC   C3519860   5.469   5.446   6.623  0.5404 -0.3477 -0.3479
  175SLPC   H5X19861   5.523   5.349   6.617  0.4761 -0.3340 -1.2004
  175SLPC   H5Y19862   5.518   5.527   6.564  1.3909  0.3472  1.2437
  175SLPC   C3619863   5.331   5.417   6.566  0.4471  0.1707  0.9930
  175SLPC   H6X19864   5.272   5.510   6.580  2.3266  1.8741 -1.4113
  175SLPC   H6Y19865   5.297   5.330   6.625  1.9711  0.4910  2.4169
  175SLPC   C3719866   5.341   5.388   6.416  0.7574  0.3927 -0.8288
  175SLPC   H7X19867   5.383   5.290   6.383 -2.1633 -0.8133 -1.2333
  175SLPC   H7Y19868   5.410   5.468   6.381  2.4493 -0.5765  0.1224
  175SLPC   C3819869   5.205   5.406   6.332  0.4072 -0.3437 -0.8267
  175SLPC   H8X19870   5.144   5.480   6.389 -1.0190 -1.0800 -1.3345
  175SLPC   H8Y19871   5.158   5.306   6.330  0.1848 -0.2453 -2.4157
  175SLPC   C3919872   5.227   5.453   6.186 -0.6614  0.1970 -0.5584
  175SLPC   H9X19873   5.302   5.533   6.169  0.5030 -0.0307  2.7208
  175SLPC   H9Y19874   5.124   5.474   6.148 -0.5281 -0.2699 -1.1886
  175SLPC  C31019875   5.292   5.330   6.108  0.5092 -0.2675 -0.2208
  175SLPC  H10X19876   5.240   5.235   6.132  3.1691 -1.9513 -0.7447
  175SLPC  H10Y19877   5.394   5.323   6.151  0.7995  0.3566 -0.7884
  175SLPC  C31119878   5.297   5.348   5.959  0.0700  0.3427 -0.1348
  175SLPC  H11X19879   5.333   5.448   5.924  0.6489  0.4185  0.6681
  175SLPC  H11Y19880   5.194   5.336   5.919  0.3261 -0.8689 -0.4528
  175SLPC  C31219881   5.390   5.244   5.897 -0.4134 -0.8803 -0.3766
  175SLPC  H12X19882   5.333   5.150   5.881 -0.9917 -1.1362  2.5584
  175SLPC  H12Y19883   5.466   5.226   5.976 -0.7569 -1.0674 -0.0847
  175SLPC  C31319884   5.452   5.295   5.767  0.1100  0.3904 -0.1547
  175SLPC  H13X19885   5.516   5.376   5.806 -0.4259  0.3750  0.7991
  175SLPC  H13Y19886   5.378   5.340   5.697 -0.0970  1.5254  0.7739
  175SLPC  C31419887   5.549   5.202   5.696  0.0494 -0.0648 -0.1748
  175SLPC  H14X19888   5.501   5.101   5.692 -0.2292  0.0473  0.2457
  175SLPC  H14Y19889   5.634   5.185   5.765 -0.6086  0.0547  0.6752
  175SLPC  C31519890   5.604   5.237   5.552  1.2141  0.5074 -0.8420
  175SLPC  H15X19891   5.510   5.233   5.493 -0.7259  2.9988  1.7850
  175SLPC  H15Y19892   5.663   5.148   5.521  1.0393  0.2883 -0.5510
  175SLPC  C31619893   5.695   5.354   5.545 -0.2843  0.1819 -0.0982
  175SLPC  H16X19894   5.785   5.327   5.604  1.4887  2.4723 -1.5887
  175SLPC  H16Y19895   5.651   5.440   5.600 -0.4394 -0.5661  0.9863
  175SLPC  C31719896   5.727   5.401   5.401  0.0133 -0.0124 -0.3736
  175SLPC  H17X19897   5.636   5.449   5.360 -0.0083  1.6518  1.5305
  175SLPC  H17Y19898   5.757   5.321   5.329  1.6527  0.1103  0.1427
  175SLPC  C31819899   5.838   5.510   5.384  0.3739 -0.0612  0.0123
  175SLPC  H18X19900   5.921   5.495   5.457 -0.5636 -2.1770  0.7247
  175SLPC  H18Y19901   5.806   5.615   5.403 -0.6692 -0.8707  3.4516
  175SLPC  H18Z19902   5.886   5.507   5.283  2.2477  0.0237  0.8499
  176SLPC     N19903   4.716   4.051   7.974 -0.5946  0.1712  1.0768
  176SLPC   C1319904   4.849   4.094   8.040 -0.0726  1.0607  0.1165
  176SLPC  H13A19905   4.903   4.158   7.972  0.6138 -1.4700 -1.9140
  176SLPC  H13B19906   4.834   4.150   8.131 -2.7576  1.6181 -0.5920
  176SLPC  H13C19907   4.904   4.003   8.062 -2.0602 -0.2464 -0.0201
  176SLPC   C1419908   4.608   4.135   8.024  0.0211 -0.6979 -0.3401
  176SLPC  H14A19909   4.594   4.133   8.131  0.1215  0.2667 -0.2946
  176SLPC  H14B19910   4.630   4.239   8.002  1.5697 -0.4789  1.8767
  176SLPC  H14C19911   4.517   4.116   7.969  0.4185  0.2255 -1.3599
  176SLPC   C1519912   4.684   3.905   8.006  0.3752 -0.3480  0.2579
  176SLPC  H15A19913   4.638   3.893   8.102  0.0938 -2.5094 -0.0938
  176SLPC  H15B19914   4.605   3.887   7.935  0.1065  4.1783 -0.8870
  176SLPC  H15C19915   4.774   3.848   7.985  1.0420  1.2650 -1.5877
  176SLPC   C1219916   4.741   4.074   7.823  0.2094  0.2281 -0.5798
  176SLPC  H12A19917   4.809   4.000   7.784  0.3616 -0.1344  0.3669
  176SLPC  H12B19918   4.785   4.173   7.818  0.9986 -0.1291 -0.9358
  176SLPC   C1119919   4.619   4.069   7.732  0.7260  0.1309  0.3619
  176SLPC  H11A19920   4.650   4.051   7.627  0.1953  0.5252  0.1349
  176SLPC  H11B19921   4.570   4.168   7.737 -0.7813 -0.4464 -1.5988
  176SLPC     P19922   4.373   3.971   7.725 -0.6146  0.0613  0.1992
  176SLPC   O1319923   4.313   3.843   7.768 -0.4675 -0.3449  0.1024
  176SLPC   O1419924   4.312   4.093   7.780 -0.0195 -0.6091  0.0221
  176SLPC   O1219925   4.523   3.970   7.777  0.4181  0.2058 -0.2659
  176SLPC   O1119926   4.397   3.978   7.571  0.0992  0.3080  0.5632
  176SLPC    C119927   4.289   3.929   7.483 -0.6379  0.3921  0.0330
  176SLPC    HA19928   4.247   3.836   7.526  1.3929 -1.0325 -0.9203
  176SLPC    HB19929   4.213   4.009   7.474  0.5835  1.7700  1.2661
  176SLPC    C219930   4.337   3.871   7.346  0.0914 -0.6569  0.2574
  176SLPC    HS19931   4.403   3.784   7.370 -1.1625 -1.7527 -0.1452
  176SLPC   O2119932   4.413   3.977   7.286 -0.1907  0.1829 -0.5543
  176SLPC   C2119933   4.529   3.937   7.223  0.4218  0.0009 -0.2317
  176SLPC   O2219934   4.561   3.828   7.193 -0.8983  0.1931 -0.0418
  176SLPC   C2219935   4.597   4.061   7.175 -0.3136  0.4096 -0.1738
  176SLPC   H2R19936   4.529   4.115   7.107 -1.8155 -0.9414  0.1904
  176SLPC   H2S19937   4.617   4.123   7.265 -2.8081 -0.3937  1.0246
  176SLPC    C319938   4.224   3.834   7.249  0.4354 -0.3634  0.1320
  176SLPC    HX19939   4.146   3.913   7.257 -0.1847 -0.9449 -0.1250
  176SLPC    HY19940   4.177   3.741   7.288  0.9557 -0.3682  0.7577
  176SLPC   O3119941   4.270   3.811   7.118  0.3062  0.0603 -0.3129
  176SLPC   C3119942   4.327   3.692   7.099  1.0046 -0.0504  0.6758
  176SLPC   O3219943   4.348   3.612   7.185  0.4731 -0.4747  0.0300
  176SLPC   C3219944   4.346   3.657   6.952  0.0329 -0.7680 -0.0218
  176SLPC   H2X19945   4.277   3.730   6.904 -0.8472  2.4395  5.2828
  176SLPC   H2Y19946   4.323   3.549   6.937 -1.8633 -0.6307  1.4863
  176SLPC   C2319947   4.738   4.033   7.111  0.1344 -0.4693  0.4140
  176SLPC   H3R19948   4.786   3.947   7.162 -1.2266 -0.6962  1.3714
  176SLPC   H3S19949   4.810   4.117   7.115 -0.5953  0.1173  2.6762
  176SLPC   C2419950   4.724   3.995   6.965 -0.1733 -0.0368 -0.0757
  176SLPC   H4R19951   4.648   4.059   6.916 -0.6928  0.6326  1.5280
  176SLPC   H4S19952   4.691   3.889   6.966 -1.2693  0.2808 -0.7643
  176SLPC   C2519953   4.858   4.013   6.890  0.1546  0.0237 -0.8540
  176SLPC   H5R19954   4.944   3.975   6.950  0.0881 -0.0929 -0.8333
  176SLPC   H5S19955   4.864   4.124   6.878 -0.4979  0.1278 -0.3305
  176SLPC   C2619956   4.880   3.940   6.757 -0.6203 -0.3352  0.0702
  176SLPC   H6R19957   4.844   3.836   6.772  0.0737 -0.4581  0.9569
  176SLPC   H6S19958   4.991   3.934   6.750 -0.5434 -0.7319  1.4649
  176SLPC   C2719959   4.817   4.022   6.646  0.4064 -0.2958  0.0251
  176SLPC   H7R19960   4.862   4.123   6.652  0.9356 -0.5686  0.8709
  176SLPC   H7S19961   4.707   4.035   6.658  0.5169  0.7011 -0.0006
  176SLPC   C2819962   4.837   3.963   6.507  0.7433 -0.6800 -0.3222
  176SLPC   H8R19963   4.758   4.009   6.444  0.3896 -1.7737 -0.7052
  176SLPC   H8S19964   4.806   3.857   6.520 -1.1643  0.0517  1.7743
  176SLPC   C2919965   4.966   3.983   6.447 -0.6390 -0.6424  0.1371
  176SLPC   H9R19966   5.043   4.002   6.524  0.6346  0.0216 -1.2561
  176SLPC  C21019967   5.004   3.989   6.322 -0.1036  0.2455 -0.0313
  176SLPC  H10R19968   5.107   4.023   6.304  0.6961 -1.4739  1.0840
  176SLPC  C21119969   4.928   3.957   6.191  0.1382  0.2945  1.0085
  176SLPC  H11R19970   4.826   3.914   6.207  0.0388  0.5126  0.9729
  176SLPC  H11S19971   4.980   3.872   6.142  1.4819  1.4348  0.3855
  176SLPC  C21219972   4.933   4.080   6.111  0.2808  0.1292 -0.0296
  176SLPC  H12R19973   4.905   4.178   6.154 -2.2391  0.3129 -1.8638
  176SLPC  C21319974   4.957   4.087   5.978 -0.4517 -0.1426 -0.0016
  176SLPC  H13R19975   4.966   4.182   5.923  1.7127  0.3942  1.1648
  176SLPC  C21419976   4.997   3.976   5.885  0.8185 -0.3708  0.4196
  176SLPC  H14R19977   4.959   3.878   5.919 -2.6087  0.3607 -0.8931
  176SLPC  H14S19978   5.106   3.982   5.862  0.7491  0.2432  0.2218
  176SLPC  C21519979   4.919   3.989   5.759  0.5703 -0.4514  0.7683
  176SLPC  H15R19980   4.941   4.090   5.719  1.0142 -0.5957  0.6504
  176SLPC  H15S19981   4.809   3.999   5.773  0.1456  0.6751 -2.6231
  176SLPC  C21619982   4.927   3.886   5.649 -0.3970 -0.0187  0.0950
  176SLPC  H16R19983   4.870   3.799   5.686 -0.9721  0.8070  1.2008
  176SLPC  H16S19984   5.037   3.868   5.643  0.1250  2.6178  0.5883
  176SLPC  C21719985   4.892   3.932   5.511 -0.2436  0.8074  0.2267
  176SLPC  H17R19986   4.947   4.027   5.491 -0.7716  1.2423  0.8043
  176SLPC  H17S19987   4.782   3.946   5.521 -0.4833 -0.0374 -0.9826
  176SLPC  C21819988   4.916   3.830   5.399 -0.5172  0.2674 -0.2245
  176SLPC  H18R19989   4.881   3.867   5.300 -1.6417  1.9949  0.7657
  176SLPC  H18S19990   4.856   3.742   5.429 -0.3176  0.2745  0.2143
  176SLPC  H18T19991   5.021   3.795   5.387  0.1139  1.3010  1.8518
  176SLPC   C3319992   4.490   3.676   6.908 -0.8048  0.5902  0.5536
  176SLPC   H3X19993   4.555   3.604   6.963 -0.6114  1.6834  1.8219
  176SLPC   H3Y19994   4.530   3.778   6.925 -0.3922  0.8599 -1.6863
  176SLPC   C3419995   4.490   3.642   6.756 -0.1869 -0.1498  0.1668
  176SLPC   H4X19996   4.443   3.542   6.737  0.6444 -0.7031  0.9391
  176SLPC   H4Y19997   4.595   3.636   6.720 -0.1072  1.1469  0.1640
  176SLPC   C3519998   4.422   3.756   6.676 -0.3752 -0.0731 -0.5992
  176SLPC   H5X19999   4.465   3.855   6.704 -1.4131 -0.1541  1.4565
  176SLPC   H5Y20000   4.313   3.765   6.693 -0.5562  0.0864 -1.7840
  176SLPC   C3620001   4.450   3.738   6.526  0.0753 -0.0928 -0.2180
  176SLPC   H6X20002   4.411   3.635   6.510  0.4629 -0.5007  1.2484
  176SLPC   H6Y20003   4.560   3.733   6.524  0.0725  0.0160 -0.5198
  176SLPC   C3720004   4.399   3.849   6.439  0.2675 -0.3455 -0.1560
  176SLPC   H7X20005   4.406   3.943   6.498 -0.3396 -0.7017  0.4905
  176SLPC   H7Y20006   4.288   3.848   6.441  0.2512  0.6067  0.4055
  176SLPC   C3820007   4.471   3.868   6.309 -0.2689  0.2094 -0.6895
  176SLPC   H8X20008   4.459   3.779   6.243  3.8893 -0.3095 -1.0686
  176SLPC   H8Y20009   4.579   3.866   6.336 -1.0549 -0.2518  2.7940
  176SLPC   C3920010   4.446   3.994   6.222 -0.1600 -0.2579  0.2110
  176SLPC   H9X20011   4.465   4.082   6.287  0.5647  0.2354 -0.6436
  176SLPC   H9Y20012   4.338   3.984   6.197 -0.5521  0.8841  1.3126
  176SLPC  C31020013   4.521   3.988   6.090  0.5837  0.0239 -0.0698
  176SLPC  H10X20014   4.506   3.883   6.057 -5.0708  0.5983 -0.2764
  176SLPC  H10Y20015   4.628   4.019   6.082  0.0468  1.5171 -4.3443
  176SLPC  C31120016   4.452   4.078   5.980 -0.2254 -0.3453 -0.6360
  176SLPC  H11X20017   4.484   4.184   5.987 -0.2738 -0.1757 -2.6160
  176SLPC  H11Y20018   4.341   4.075   5.987 -0.2709  0.9514 -0.6329
  176SLPC  C31220019   4.492   4.024   5.838  0.1194 -0.3258  0.3107
  176SLPC  H12X20020   4.470   3.916   5.823 -0.5478 -0.0437 -0.8579
  176SLPC  H12Y20021   4.603   4.026   5.833  0.3007 -3.7427  0.9933
  176SLPC  C31320022   4.433   4.106   5.727  1.1936 -0.1922  0.1125
  176SLPC  H13X20023   4.499   4.101   5.638  0.8734 -2.4800 -0.0375
  176SLPC  H13Y20024   4.416   4.213   5.753  1.9471 -0.1103  0.2959
  176SLPC  C31420025   4.297   4.055   5.676  0.7129 -0.2039 -0.6486
  176SLPC  H14X20026   4.255   4.000   5.764  2.1628  2.6688  2.0416
  176SLPC  H14Y20027   4.300   3.991   5.586 -0.0285  0.5359 -1.2061
  176SLPC  C31520028   4.189   4.161   5.633  0.5089 -0.4910  0.0443
  176SLPC  H15X20029   4.242   4.234   5.569 -0.0415  1.3958  1.6528
  176SLPC  H15Y20030   4.166   4.219   5.725 -0.2082  1.2769 -1.1985
  176SLPC  C31620031   4.058   4.109   5.572 -0.2387 -0.1012  0.3172
  176SLPC  H16X20032   4.016   4.030   5.638 -4.0517  1.1189 -0.4110
  176SLPC  H16Y20033   4.099   4.059   5.482 -2.2950 -1.2203 -0.0517
  176SLPC  C31720034   3.947   4.208   5.539 -0.4531  0.4575 -0.3721
  176SLPC  H17X20035   3.913   4.182   5.437  1.6267 -1.5325 -0.6417
  176SLPC  H17Y20036   3.983   4.313   5.531  0.3811  0.2599  0.6021
  176SLPC  C31820037   3.827   4.209   5.628  0.0774  0.4972  0.8642
  176SLPC  H18X20038   3.858   4.231   5.733  1.3029  0.3417  0.5561
  176SLPC  H18Y20039   3.782   4.108   5.626 -0.6225  0.7756  1.9108
  176SLPC  H18Z20040   3.757   4.290   5.598 -0.4235  0.2810  1.4221
  177SLPC     N20041   5.862   4.699   7.531 -0.6673  0.1745  0.2377
  177SLPC   C1320042   5.912   4.580   7.604 -0.3044 -0.0391  0.3083
  177SLPC  H13A20043   5.911   4.492   7.541 -0.1326  0.1353  0.0612
  177SLPC  H13B20044   6.011   4.588   7.647 -0.4711 -2.5523  1.3083
  177SLPC  H13C20045   5.841   4.562   7.683 -1.6706  3.3035 -0.0111
  177SLPC   C1420046   5.943   4.716   7.405 -0.4870 -0.6380 -0.5155
  177SLPC  H14A20047   6.047   4.740   7.425 -0.9575  1.2585 -0.1510
  177SLPC  H14B20048   5.932   4.626   7.346  1.4530 -0.5503 -1.0889
  177SLPC  H14C20049   5.909   4.802   7.349 -1.0719 -1.4673 -1.4636
  177SLPC   C1520050   5.884   4.824   7.609 -0.1057  0.0718 -0.0474
  177SLPC  H15A20051   5.884   4.811   7.716 -0.5492  1.1277  0.0912
  177SLPC  H15B20052   5.980   4.862   7.578  0.1335 -1.4585 -1.3270
  177SLPC  H15C20053   5.805   4.897   7.599  0.6019  0.7610 -0.7622
  177SLPC   C1220054   5.721   4.674   7.493  0.8790 -0.2235 -0.2856
  177SLPC  H12A20055   5.707   4.577   7.447 -0.1976 -0.5021  0.5752
  177SLPC  H12B20056   5.690   4.756   7.430 -0.0652  0.1487  0.6284
  177SLPC   C1120057   5.620   4.671   7.615 -0.6806 -0.0204  0.8506
  177SLPC  H11A20058   5.521   4.685   7.566 -0.9407 -2.7988  0.3907
  177SLPC  H11B20059   5.643   4.749   7.690  0.5544 -0.5183  1.0125
  177SLPC     P20060   5.507   4.452   7.698 -0.3339  0.4295 -0.5241
  177SLPC   O1320061   5.555   4.317   7.737 -0.4327  0.5211  0.2797
  177SLPC   O1420062   5.419   4.521   7.796  0.5620  0.4534 -0.0508
  177SLPC   O1220063   5.633   4.542   7.670  0.5122  0.2448  0.4844
  177SLPC   O1120064   5.432   4.447   7.564 -0.7838 -0.0175  0.4951
  177SLPC    C120065   5.437   4.349   7.463  0.1241 -0.8211 -0.1371
  177SLPC    HA20066   5.498   4.262   7.496 -1.3177 -1.1011  2.0499
  177SLPC    HB20067   5.333   4.309   7.459 -0.4015  0.5928 -1.8568
  177SLPC    C220068   5.482   4.406   7.322  0.2650  0.4573 -0.0210
  177SLPC    HS20069   5.447   4.332   7.247  0.9014  1.2731 -1.1429
  177SLPC   O2120070   5.622   4.419   7.321 -0.5669  0.4142 -0.0704
  177SLPC   C2120071   5.679   4.322   7.253  0.1813  0.3208 -0.3926
  177SLPC   O2220072   5.637   4.210   7.239  0.4797  0.3434 -0.3297
  177SLPC   C2220073   5.814   4.374   7.214 -0.7172  0.2982  0.0760
  177SLPC   H2R20074   5.868   4.381   7.311 -1.5132 -3.1674  0.9144
  177SLPC   H2S20075   5.863   4.295   7.153  1.2821  0.9417  0.7843
  177SLPC    C320076   5.420   4.540   7.288  0.8319  0.0603 -0.3428
  177SLPC    HX20077   5.474   4.608   7.358  1.8423 -1.4130  0.3612
  177SLPC    HY20078   5.314   4.541   7.322  1.3413 -1.2557  1.4270
  177SLPC   O3120079   5.446   4.579   7.159 -0.7404  0.1253  0.2373
  177SLPC   C3120080   5.342   4.637   7.099 -0.1978 -0.0613  0.4662
  177SLPC   O3220081   5.240   4.675   7.149  0.0607 -0.3852 -0.4372
  177SLPC   C3220082   5.381   4.657   6.953  0.3885 -1.0674 -0.0202
  177SLPC   H2X20083   5.403   4.556   6.912 -0.9865 -2.1553  1.7479
  177SLPC   H2Y20084   5.466   4.729   6.950  0.1736 -0.7614  0.8125
  177SLPC   C2320085   5.813   4.510   7.139  0.3014  0.0935  0.3300
  177SLPC   H3R20086   5.922   4.528   7.140  0.8781 -2.8056  2.0000
  177SLPC   H3S20087   5.755   4.588   7.193  1.3655  0.3859  1.0790
  177SLPC   C2420088   5.756   4.500   6.998 -0.8360 -0.0144  0.0695
  177SLPC   H4R20089   5.647   4.480   6.997 -1.1196  1.3351  0.8479
  177SLPC   H4S20090   5.801   4.418   6.938 -0.1610 -0.5784  1.3110
  177SLPC   C2520091   5.779   4.624   6.909 -0.6173 -0.6231  0.0624
  177SLPC   H5R20092   5.886   4.647   6.892 -0.6873 -0.4318 -0.1245
  177SLPC   H5S20093   5.734   4.713   6.957 -1.1107 -0.5849 -0.4565
  177SLPC   C2620094   5.698   4.601   6.778 -0.2072 -0.3158 -0.7862
  177SLPC   H6R20095   5.698   4.691   6.712 -2.1040  1.2435  1.1681
  177SLPC   H6S20096   5.593   4.585   6.811  0.7647 -2.1600  1.7711
  177SLPC   C2720097   5.750   4.485   6.692 -0.2744  0.5156  0.5709
  177SLPC   H7R20098   5.797   4.404   6.751  0.5550  0.1111 -0.6029
  177SLPC   H7S20099   5.836   4.522   6.632  0.8976  2.1555  3.0938
  177SLPC   C2820100   5.632   4.424   6.606  0.5715  0.0709  0.0424
  177SLPC   H8R20101   5.551   4.394   6.676 -2.1265  3.2833 -1.4033
  177SLPC   H8S20102   5.658   4.325   6.563 -1.1849 -0.9743  1.2593
  177SLPC   C2920103   5.599   4.535   6.504  0.4412 -0.4382  0.5690
  177SLPC   H9R20104   5.550   4.621   6.552  1.9952 -0.1026  1.6310
  177SLPC  C21020105   5.636   4.543   6.379 -0.9342 -0.0676 -0.0904
  177SLPC  H10R20106   5.619   4.630   6.314  4.1264  0.5799 -0.9789
  177SLPC  C21120107   5.728   4.435   6.312 -0.4488  0.5884  0.3452
  177SLPC  H11R20108   5.675   4.338   6.323 -2.9164  1.6350 -1.3503
  177SLPC  H11S20109   5.827   4.432   6.362 -0.0408  2.0609 -0.3181
  177SLPC  C21220110   5.757   4.464   6.169 -1.0799  0.4496  0.7945
  177SLPC  H12R20111   5.799   4.564   6.151 -1.7638  0.4735 -0.8330
  177SLPC  C21320112   5.725   4.390   6.061 -0.3726 -0.0131  0.4235
  177SLPC  H13R20113   5.741   4.428   5.959 -0.1937 -0.2788  0.3506
  177SLPC  C21420114   5.676   4.252   6.077  0.4963 -0.0526 -0.7394
  177SLPC  H14R20115   5.566   4.244   6.093  0.8914 -0.8981  2.2962
  177SLPC  H14S20116   5.712   4.201   6.169 -0.8988  1.1575  0.5440
  177SLPC  C21520117   5.697   4.158   5.957  0.2063 -0.2378 -0.4119
  177SLPC  H15R20118   5.685   4.051   5.983 -0.5404  0.2305  1.3285
  177SLPC  H15S20119   5.800   4.177   5.919 -0.3496  1.1809 -1.2923
  177SLPC  C21620120   5.599   4.193   5.846  0.5572 -0.3612 -0.7954
  177SLPC  H16R20121   5.564   4.299   5.851 -0.0551 -0.6213  1.4722
  177SLPC  H16S20122   5.506   4.133   5.859 -0.5636  1.3675 -0.4457
  177SLPC  C21720123   5.652   4.171   5.703  0.2344 -0.3639 -2.0785
  177SLPC  H17R20124   5.638   4.066   5.668  1.0398 -0.7318 -1.3328
  177SLPC  H17S20125   5.759   4.198   5.711 -0.1196  0.4767  0.6525
  177SLPC  C21820126   5.577   4.265   5.608  0.3450  0.7180  0.8399
  177SLPC  H18R20127   5.603   4.372   5.622 -0.5853  1.0601  0.0200
  177SLPC  H18S20128   5.468   4.258   5.627  0.1162 -0.8425 -0.8101
  177SLPC  H18T20129   5.601   4.241   5.502  0.4344 -0.0626  1.0301
  177SLPC   C3320130   5.266   4.695   6.869 -0.6567 -0.1079  0.1340
  177SLPC   H3X20131   5.229   4.792   6.908  1.0700  0.5742  0.1543
  177SLPC   H3Y20132   5.201   4.605   6.878  1.0510 -1.2695  1.7699
  177SLPC   C3420133   5.308   4.700   6.730 -0.4693  0.1925 -0.4561
  177SLPC   H4X20134   5.386   4.622   6.712  1.3596  1.8088  0.0275
  177SLPC   H4Y20135   5.377   4.787   6.715  2.4990 -1.6185  1.5377
  177SLPC   C3520136   5.196   4.684   6.630 -0.0933  0.0959  0.1533
  177SLPC   H5X20137   5.111   4.749   6.661  0.0519  0.2795  0.1646
  177SLPC   H5Y20138   5.154   4.583   6.607  0.1122  0.3116 -1.2664
  177SLPC   C3620139   5.224   4.738   6.491 -0.4528 -0.5901 -0.3800
  177SLPC   H6X20140   5.300   4.668   6.449  0.8996  1.1024 -0.8650
  177SLPC   H6Y20141   5.273   4.837   6.499  0.3052 -0.9137 -0.8738
  177SLPC   C3720142   5.098   4.747   6.407  0.0644 -0.0792  0.3328
  177SLPC   H7X20143   5.025   4.811   6.460 -0.8278 -0.6309 -0.1933
  177SLPC   H7Y20144   5.057   4.644   6.393 -1.0717  0.2522  1.1646
  177SLPC   C3820145   5.134   4.814   6.275 -0.0184 -0.9937  0.4571
  177SLPC   H8X20146   5.216   4.762   6.221  1.4768 -0.0491  1.7227
  177SLPC   H8Y20147   5.170   4.916   6.300  0.5993 -0.7092 -1.4475
  177SLPC   C3920148   5.010   4.832   6.180 -1.0943  0.2682 -0.1818
  177SLPC   H9X20149   4.936   4.906   6.216 -0.6101  0.4845  0.3896
  177SLPC   H9Y20150   4.948   4.740   6.189 -1.3641  0.0426 -3.3921
  177SLPC  C31020151   5.065   4.854   6.031 -0.1794 -1.0277 -0.4472
  177SLPC  H10X20152   5.128   4.772   5.988 -0.3771 -1.5373  0.2204
  177SLPC  H10Y20153   5.114   4.954   6.032  1.1659 -1.6533 -1.1143
  177SLPC  C31120154   4.950   4.874   5.932 -0.1390  0.2639 -0.1959
  177SLPC  H11X20155   4.880   4.951   5.970 -0.2281  0.3075 -0.4453
  177SLPC  H11Y20156   4.890   4.781   5.934 -1.8521  1.3369  1.4988
  177SLPC  C31220157   4.996   4.901   5.784  0.2216  0.1390 -0.3899
  177SLPC  H12X20158   4.900   4.918   5.730 -0.1607 -2.8072 -0.7658
  177SLPC  H12Y20159   5.055   4.818   5.741 -2.1560 -1.2315 -1.1931
  177SLPC  C31320160   5.064   5.040   5.776 -0.4869  0.3118  0.7756
  177SLPC  H13X20161   5.163   5.022   5.823 -0.2225  1.2297  0.5857
  177SLPC  H13Y20162   5.007   5.118   5.831 -2.3998  0.0194 -0.6665
  177SLPC  C31420163   5.082   5.075   5.627  0.2891 -0.9446 -0.1542
  177SLPC  H14X20164   4.986   5.073   5.571 -0.1811  1.5824  0.4618
  177SLPC  H14Y20165   5.158   5.007   5.583  1.9149  0.8545 -0.2615
  177SLPC  C31520166   5.116   5.219   5.595 -0.4439 -0.6795 -0.7058
  177SLPC  H15X20167   5.203   5.246   5.659 -1.7555  2.7884 -0.1707
  177SLPC  H15Y20168   5.030   5.284   5.621  0.8236  1.3184 -1.2669
  177SLPC  C31620169   5.153   5.229   5.450  0.4652  0.0056  0.5442
  177SLPC  H16X20170   5.069   5.200   5.383 -1.6963  1.3555  2.5045
  177SLPC  H16Y20171   5.242   5.166   5.434 -0.3849 -0.8619 -1.0444
  177SLPC  C31720172   5.198   5.369   5.402  0.1773  0.3227  0.0197
  177SLPC  H17X20173   5.306   5.361   5.375 -0.3916 -1.4737 -2.0680
  177SLPC  H17Y20174   5.176   5.436   5.487 -0.5048  0.6687 -0.4237
  177SLPC  C31820175   5.125   5.420   5.280  0.2255 -0.2952 -0.3898
  177SLPC  H18X20176   5.027   5.454   5.320 -0.2345 -1.2536 -0.6758
  177SLPC  H18Y20177   5.100   5.342   5.205 -1.1498  0.7492 -1.0606
  177SLPC  H18Z20178   5.153   5.517   5.234 -0.3105 -0.2262 -0.5789
  178SLPC     N20179   2.797   1.507   7.707  0.0722  0.4971 -0.8435
  178SLPC   C1320180   2.871   1.385   7.669  0.3628  0.1098  0.6042
  178SLPC  H13A20181   2.954   1.360   7.733  1.4522 -0.5526 -0.9963
  178SLPC  H13B20182   2.809   1.298   7.657  0.6605  0.2758 -3.0955
  178SLPC  H13C20183   2.904   1.402   7.568  1.5198 -0.3428  0.8983
  178SLPC   C1420184   2.899   1.619   7.717  0.2410 -0.9400  0.7348
  178SLPC  H14A20185   2.988   1.589   7.770  0.7850 -1.4145 -0.4073
  178SLPC  H14B20186   2.936   1.648   7.620  0.7297 -1.0740  0.8757
  178SLPC  H14C20187   2.852   1.710   7.752 -0.8132 -0.8286 -0.8954
  178SLPC   C1520188   2.749   1.473   7.846  0.6637 -0.6018  0.3968
  178SLPC  H15A20189   2.689   1.557   7.878  2.5599  1.2182 -0.5517
  178SLPC  H15B20190   2.673   1.397   7.833 -1.2695  1.2963 -0.2034
  178SLPC  H15C20191   2.827   1.457   7.918  0.9459  0.6829  0.4071
  178SLPC   C1220192   2.689   1.536   7.607  0.0111  0.1449  0.6220
  178SLPC  H12A20193   2.628   1.620   7.636 -0.7096  0.3262 -1.3049
  178SLPC  H12B20194   2.630   1.445   7.609 -0.2007  0.2811  0.4942
  178SLPC   C1120195   2.735   1.570   7.465 -0.7418  0.3172  0.8139
  178SLPC  H11A20196   2.646   1.566   7.398  0.4737 -3.0670 -0.8398
  178SLPC  H11B20197   2.798   1.486   7.427  1.0087  0.8880  2.3136
  178SLPC     P20198   2.886   1.729   7.315  0.1336 -0.1153  0.0901
  178SLPC   O1320199   2.995   1.829   7.337  0.0937  0.4004  0.1953
  178SLPC   O1420200   2.935   1.604   7.250  0.1913 -0.0794  0.1734
  178SLPC   O1220201   2.810   1.694   7.451 -0.0883 -0.2982  0.2087
  178SLPC   O1120202   2.774   1.789   7.229  0.3719  0.1575 -0.0277
  178SLPC    C120203   2.717   1.714   7.126  0.1201  0.6585  0.4939
  178SLPC    HA20204   2.720   1.604   7.142 -0.0492  0.3442 -1.4274
  178SLPC    HB20205   2.610   1.740   7.110  0.3941  1.6176  0.1828
  178SLPC    C220206   2.777   1.746   6.991 -0.2209  0.1863  0.4785
  178SLPC    HS20207   2.881   1.709   7.001  0.7115  1.9857 -1.7882
  178SLPC   O2120208   2.768   1.887   6.964  0.3785  0.1350  1.0016
  178SLPC   C2120209   2.873   1.964   7.001  0.1330  0.3058 -0.5271
  178SLPC   O2220210   2.969   1.922   7.062 -0.0159 -0.0523 -0.3546
  178SLPC   C2220211   2.856   2.101   6.941 -0.0397 -0.0671 -0.4822
  178SLPC   H2R20212   2.749   2.127   6.951  0.2108  0.5037  1.0155
  178SLPC   H2S20213   2.922   2.169   7.000  0.0984 -1.2439  0.7737
  178SLPC    C320214   2.700   1.675   6.876  0.6075 -0.2246  0.5012
  178SLPC    HX20215   2.732   1.718   6.779 -1.0589  2.0356  0.8605
  178SLPC    HY20216   2.598   1.718   6.880  0.9471  0.5793  0.9186
  178SLPC   O3120217   2.707   1.533   6.881  0.4007  0.6865 -0.3986
  178SLPC   C3120218   2.790   1.468   6.798 -0.4723 -1.0395  0.3643
  178SLPC   O3220219   2.880   1.517   6.729  0.6524 -0.7390  0.0331
  178SLPC   C3220220   2.764   1.319   6.808  0.5289 -0.8002 -0.9931
  178SLPC   H2X20221   2.712   1.310   6.906 -0.8756  0.8669 -1.5474
  178SLPC   H2Y20222   2.855   1.254   6.807  0.6756 -0.5883 -1.5358
  178SLPC   C2320223   2.904   2.107   6.794  0.0812 -0.1746 -0.1248
  178SLPC   H3R20224   2.897   2.004   6.753  0.6245 -0.7621  1.1878
  178SLPC   H3S20225   3.014   2.123   6.787  0.1128 -0.1298  0.3976
  178SLPC   C2420226   2.825   2.191   6.695  0.4062  0.1490  0.2532
  178SLPC   H4R20227   2.834   2.301   6.708  0.5964  0.1973 -0.2795
  178SLPC   H4S20228   2.721   2.153   6.710  0.6289 -0.6919 -0.2383
  178SLPC   C2520229   2.878   2.167   6.554 -0.0387 -0.1764 -0.2219
  178SLPC   H5R20230   2.888   2.056   6.550 -1.7117 -0.3765  0.5896
  178SLPC   H5S20231   2.979   2.212   6.544 -0.4008  0.6764 -0.0606
  178SLPC   C2620232   2.790   2.212   6.436 -0.3879  0.0440 -0.0077
  178SLPC   H6R20233   2.685   2.220   6.474 -0.7970  0.2423 -1.1391
  178SLPC   H6S20234   2.793   2.134   6.357 -3.2377 -0.7113  0.4829
  178SLPC   C2720235   2.830   2.343   6.383  0.3423 -0.1153 -0.0720
  178SLPC   H7R20236   2.939   2.332   6.366  0.4176 -0.6666  0.6942
  178SLPC   H7S20237   2.832   2.417   6.466 -2.0546 -0.7978  0.6849
  178SLPC   C2820238   2.751   2.395   6.255  0.1263  0.0147  0.2638
  178SLPC   H8R20239   2.648   2.427   6.283  0.2393  0.1360  0.5450
  178SLPC   H8S20240   2.741   2.309   6.185 -1.1330  1.1609 -1.0195
  178SLPC   C2920241   2.821   2.513   6.197  0.2056  0.1113  0.2169
  178SLPC   H9R20242   2.868   2.592   6.257 -1.5082  0.8979  0.5848
  178SLPC  C21020243   2.838   2.523   6.058  0.1732 -0.4649 -0.8454
  178SLPC  H10R20244   2.896   2.611   6.027  0.6884 -0.9285 -1.2033
  178SLPC  C21120245   2.784   2.427   5.953  0.2468  0.3232 -0.5035
  178SLPC  H11R20246   2.674   2.441   5.947  0.4374  3.5770  1.2242
  178SLPC  H11S20247   2.795   2.322   5.988 -3.6636  0.6722  2.3753
  178SLPC  C21220248   2.846   2.451   5.814 -0.4217  0.4677 -0.0508
  178SLPC  H12R20249   2.955   2.451   5.799 -0.3158 -2.5078  0.1067
  178SLPC  C21320250   2.774   2.442   5.704  0.0117  0.4280 -0.5693
  178SLPC  H13R20251   2.833   2.453   5.612  0.9690 -0.4571 -0.0765
  178SLPC  C21420252   2.629   2.427   5.675 -0.8646 -0.1495 -0.8149
  178SLPC  H14R20253   2.562   2.485   5.742 -0.7753 -2.3408  1.2966
  178SLPC  H14S20254   2.601   2.319   5.679  0.5628 -0.4992  0.5969
  178SLPC  C21520255   2.599   2.467   5.523 -0.0721 -0.1359  0.0341
  178SLPC  H15R20256   2.619   2.576   5.525 -2.2869  0.3161  0.2492
  178SLPC  H15S20257   2.490   2.450   5.514 -0.3175  1.4890 -0.3379
  178SLPC  C21620258   2.674   2.392   5.416 -0.8763  0.3030 -0.3043
  178SLPC  H16R20259   2.784   2.404   5.424 -0.8195 -1.1173  1.5373
  178SLPC  H16S20260   2.648   2.440   5.318 -0.9439  1.3784  0.2209
  178SLPC  C21720261   2.643   2.245   5.413  0.2752  0.8449  0.4991
  178SLPC  H17R20262   2.534   2.241   5.390  0.6866 -1.3885 -1.4029
  178SLPC  H17S20263   2.672   2.195   5.508  1.3059  0.2609 -0.1079
  178SLPC  C21820264   2.707   2.174   5.299 -0.0808 -0.1876  0.2803
  178SLPC  H18R20265   2.661   2.073   5.290 -0.5957  0.1085 -0.4899
  178SLPC  H18S20266   2.818   2.171   5.308  0.0165  0.2871 -0.7027
  178SLPC  H18T20267   2.687   2.233   5.208 -0.0798 -0.2163  0.2613
  178SLPC   C3320268   2.665   1.264   6.699  0.6067  0.7246  0.0131
  178SLPC   H3X20269   2.582   1.337   6.703 -0.1306 -0.1150  3.4866
  178SLPC   H3Y20270   2.618   1.171   6.738 -0.4970  0.9601 -0.7201
  178SLPC   C3420271   2.726   1.235   6.559 -0.5069 -0.0797 -0.3349
  178SLPC   H4X20272   2.817   1.173   6.578  0.9008  1.7982 -0.6097
  178SLPC   H4Y20273   2.762   1.318   6.494 -0.5889 -0.3806 -0.7709
  178SLPC   C3520274   2.641   1.144   6.469 -0.5908  0.8521 -0.1143
  178SLPC   H5X20275   2.534   1.174   6.470 -0.4392  1.4092 -0.2889
  178SLPC   H5Y20276   2.648   1.039   6.505  1.1562  0.5841 -1.1083
  178SLPC   C3620277   2.680   1.123   6.321 -0.1784  0.1705 -0.1310
  178SLPC   H6X20278   2.780   1.074   6.314 -1.1106 -1.5432 -2.5307
  178SLPC   H6Y20279   2.685   1.225   6.278  4.2319  1.0928  1.9989
  178SLPC   C3720280   2.577   1.029   6.240 -0.9461 -0.3131  0.0797
  178SLPC   H7X20281   2.472   1.066   6.251  0.0571  3.2254 -0.9774
  178SLPC   H7Y20282   2.581   0.926   6.280 -0.3489 -0.8600 -1.3310
  178SLPC   C3820283   2.597   1.011   6.087 -0.1158 -0.9048  0.5024
  178SLPC   H8X20284   2.600   1.110   6.037 -0.0872 -0.6107  1.0765
  178SLPC   H8Y20285   2.507   0.953   6.057 -1.0678  0.1678  1.2040
  178SLPC   C3920286   2.732   0.937   6.048  0.3987  0.0112  0.2114
  178SLPC   H9X20287   2.743   0.837   6.096 -1.0440 -0.3870 -0.2386
  178SLPC   H9Y20288   2.816   0.994   6.093  0.2134 -0.1363  0.7609
  178SLPC  C31020289   2.757   0.924   5.898  0.2670  0.2292 -0.0249
  178SLPC  H10X20290   2.860   0.880   5.904 -0.2265 -0.9224  0.4457
  178SLPC  H10Y20291   2.752   1.028   5.861  0.6470 -0.6550 -2.8540
  178SLPC  C31120292   2.668   0.833   5.809 -0.2098  0.3933  1.4156
  178SLPC  H11X20293   2.562   0.858   5.830 -0.7495 -0.3705 -0.2423
  178SLPC  H11Y20294   2.701   0.730   5.834  1.3245  0.5119  0.0616
  178SLPC  C31220295   2.694   0.845   5.658 -0.0620  0.1747  0.2873
  178SLPC  H12X20296   2.701   0.744   5.611  2.1794  1.1213 -1.6202
  178SLPC  H12Y20297   2.789   0.900   5.648 -1.0671  1.9396  0.0499
  178SLPC  C31320298   2.576   0.922   5.586 -0.6363 -0.1559 -0.3644
  178SLPC  H13X20299   2.575   1.027   5.623  0.1452 -1.0562  2.4237
  178SLPC  H13Y20300   2.477   0.881   5.618 -1.2849  0.2030 -1.8215
  178SLPC  C31420301   2.580   0.921   5.428 -0.2675 -0.2069 -0.6367
  178SLPC  H14X20302   2.570   0.819   5.386  0.3510 -0.1930 -0.8392
  178SLPC  H14Y20303   2.679   0.957   5.392 -0.5775  1.7524  0.3333
  178SLPC  C31520304   2.458   0.997   5.360  0.3097 -0.1350 -0.2404
  178SLPC  H15X20305   2.483   1.034   5.259 -0.1983  0.7362 -0.0590
  178SLPC  H15Y20306   2.422   1.079   5.426 -0.5475 -1.1325  0.5710
  178SLPC  C31620307   2.328   0.906   5.353  0.7034  0.1592 -0.2639
  178SLPC  H16X20308   2.320   0.872   5.459  0.8896  1.9721  0.3652
  178SLPC  H16Y20309   2.366   0.824   5.288  0.1101  0.4638 -1.0132
  178SLPC  C31720310   2.195   0.960   5.297  0.3520 -0.0721  0.2063
  178SLPC  H17X20311   2.159   1.040   5.365 -0.9206  1.6864 -2.3341
  178SLPC  H17Y20312   2.115   0.884   5.285  1.2548 -0.9251 -0.6418
  178SLPC  C31820313   2.211   1.027   5.159 -0.1947 -0.1399  0.5190
  178SLPC  H18X20314   2.119   1.087   5.144 -0.1998 -0.1579  0.4776
  178SLPC  H18Y20315   2.231   0.953   5.078 -0.2702  0.7420 -0.3138
  178SLPC  H18Z20316   2.289   1.105   5.170 -0.2367 -0.1674  1.0746
  179SLPC     N20317   5.837   4.126   2.756 -0.1512  0.0020 -0.0592
  179SLPC   C1320318   5.738   4.184   2.651  0.0248 -0.0883  0.4469
  179SLPC  H13A20319   5.661   4.110   2.634  0.2128 -0.1463 -0.1850
  179SLPC  H13B20320   5.695   4.278   2.684 -0.5245 -0.0444 -0.3742
  179SLPC  H13C20321   5.792   4.197   2.559  0.6651  0.4059  0.8791
  179SLPC   C1420322   5.954   4.217   2.771 -0.2410 -0.3387  0.3175
  179SLPC  H14A20323   6.008   4.233   2.679  1.0903 -1.5037  0.8676
  179SLPC  H14B20324   5.923   4.312   2.812 -0.2432 -0.9796  1.8808
  179SLPC  H14C20325   6.031   4.180   2.837 -0.0140 -0.1477  0.1630
  179SLPC   C1520326   5.890   3.991   2.706  0.2260  0.1762 -0.1186
  179SLPC  H15A20327   5.932   3.995   2.607  1.2977 -0.7687  0.2815
  179SLPC  H15B20328   5.961   3.957   2.780  0.1874  0.3437 -0.0040
  179SLPC  H15C20329   5.802   3.929   2.703  0.1611  0.2203  0.6255
  179SLPC   C1220330   5.770   4.102   2.892 -0.3047 -0.4299  0.0984
  179SLPC  H12A20331   5.843   4.053   2.956 -1.1636 -0.7399  0.8767
  179SLPC  H12B20332   5.686   4.036   2.873 -0.3474 -0.2968 -0.1625
  179SLPC   C1120333   5.733   4.227   2.979 -0.2799  1.1062 -0.5792
  179SLPC  H11A20334   5.827   4.284   2.992  0.7136 -0.4803 -0.5846
  179SLPC  H11B20335   5.703   4.193   3.080  0.2862  0.7333 -0.5292
  179SLPC     P20336   5.492   4.264   2.920  0.5966 -0.1761 -0.0793
  179SLPC   O1320337   5.405   4.370   2.864  0.3277  0.4675  0.0398
  179SLPC   O1420338   5.470   4.127   2.869 -0.3812 -0.0623 -0.2798
  179SLPC   O1220339   5.639   4.303   2.903 -0.8314  0.2047 -0.6719
  179SLPC   O1120340   5.477   4.269   3.077  0.0374  0.9782 -0.6928
  179SLPC    C120341   5.449   4.387   3.154  0.1695 -0.0897 -0.1445
  179SLPC    HA20342   5.497   4.480   3.115 -0.5100 -0.0710 -0.9698
  179SLPC    HB20343   5.341   4.412   3.154 -0.2315 -1.5143  2.0326
  179SLPC    C220344   5.490   4.375   3.305  0.3701  0.2882 -0.2394
  179SLPC    HS20345   5.601   4.371   3.313  0.4477  2.7817  0.7045
  179SLPC   O2120346   5.424   4.251   3.354 -0.3257 -0.7767 -0.2408
  179SLPC   C2120347   5.485   4.144   3.353 -0.3863 -0.0505 -0.2639
  179SLPC   O2220348   5.604   4.123   3.337 -0.5339 -0.4562 -0.1027
  179SLPC   C2220349   5.385   4.024   3.366  0.0692  0.9445 -0.4727
  179SLPC   H2R20350   5.333   4.006   3.270 -0.8084 -1.2641  0.3438
  179SLPC   H2S20351   5.447   3.933   3.379 -1.8351 -0.5803 -1.5417
  179SLPC    C320352   5.439   4.498   3.394 -0.2679 -0.1850 -0.4367
  179SLPC    HX20353   5.329   4.506   3.377 -0.5652 -0.0216  1.4130
  179SLPC    HY20354   5.492   4.590   3.361  0.2347 -0.4894 -0.4732
  179SLPC   O3120355   5.452   4.477   3.533 -0.0433 -0.3569  0.1339
  179SLPC   C3120356   5.575   4.505   3.587  0.1897 -0.4843  0.0673
  179SLPC   O3220357   5.673   4.537   3.526  0.6850 -0.1393  0.2924
  179SLPC   C3220358   5.578   4.498   3.742 -0.1597  0.0322  0.0177
  179SLPC   H2X20359   5.485   4.443   3.769  0.1128  0.4630  2.0163
  179SLPC   H2Y20360   5.560   4.601   3.781  1.9409  0.6923 -0.6379
  179SLPC   C2320361   5.286   4.043   3.485  0.1305  0.2862  0.2371
  179SLPC   H3R20362   5.223   3.951   3.483  0.7576 -0.1381 -0.4790
  179SLPC   H3S20363   5.223   4.135   3.476  1.4539  1.3366  1.3832
  179SLPC   C2420364   5.369   4.051   3.616 -0.1775 -0.0339 -0.4657
  179SLPC   H4R20365   5.443   4.133   3.617 -0.9497  0.6846  1.2043
  179SLPC   H4S20366   5.415   3.953   3.642 -0.2454  0.1012  0.1624
  179SLPC   C2520367   5.283   4.101   3.727 -0.0853  0.2738 -0.0616
  179SLPC   H5R20368   5.193   4.036   3.732  0.1678  0.0052  1.9297
  179SLPC   H5S20369   5.249   4.202   3.696 -1.6127  0.2196  1.2433
  179SLPC   C2620370   5.342   4.105   3.869 -0.2862  0.7562  0.0273
  179SLPC   H6R20371   5.436   4.165   3.866  1.3961 -1.7767 -1.3196
  179SLPC   H6S20372   5.372   4.000   3.885 -1.0501  0.6648  0.9499
  179SLPC   C2720373   5.231   4.165   3.963  0.4778  0.0822 -0.3986
  179SLPC   H7R20374   5.130   4.119   3.960  0.6390 -0.3013 -0.0377
  179SLPC   H7S20375   5.228   4.270   3.928  0.0831  0.0339 -0.5169
  179SLPC   C2820376   5.267   4.177   4.116  0.0666  0.6724 -0.5518
  179SLPC   H8R20377   5.362   4.235   4.118  0.8269 -0.5256  0.4013
  179SLPC   H8S20378   5.296   4.080   4.163  2.3259  1.8934  0.7396
  179SLPC   C2920379   5.166   4.243   4.203  0.5250 -0.4621  0.3337
  179SLPC   H9R20380   5.090   4.299   4.148  0.5306  0.3435  1.1207
  179SLPC  C21020381   5.160   4.250   4.335 -0.8224 -0.6380 -0.6038
  179SLPC  H10R20382   5.095   4.321   4.388  0.5502  0.2329 -0.0085
  179SLPC  C21120383   5.250   4.174   4.433  0.4741 -0.8017  0.6158
  179SLPC  H11R20384   5.314   4.096   4.386  0.6043  0.0461 -0.6665
  179SLPC  H11S20385   5.176   4.124   4.499 -3.0063  1.3187 -1.3761
  179SLPC  C21220386   5.351   4.267   4.496  0.3529  0.0876 -0.2620
  179SLPC  H12R20387   5.411   4.317   4.419 -1.1134  2.6788  0.1751
  179SLPC  C21320388   5.385   4.274   4.631  0.0241  0.0165 -0.0032
  179SLPC  H13R20389   5.460   4.342   4.672 -1.5914  0.7473  1.9153
  179SLPC  C21420390   5.318   4.185   4.735 -0.1091  0.3895  0.6686
  179SLPC  H14R20391   5.383   4.141   4.813 -1.9669 -1.9251  1.0402
  179SLPC  H14S20392   5.271   4.092   4.697  0.4505 -0.2880  1.5828
  179SLPC  C21520393   5.213   4.272   4.797  0.0180  0.1763 -0.6759
  179SLPC  H15R20394   5.143   4.317   4.723 -0.3898  0.0565 -0.3671
  179SLPC  H15S20395   5.262   4.362   4.840 -0.5548  0.5390 -0.7598
  179SLPC  C21620396   5.137   4.217   4.912  0.6131 -0.0458 -0.3369
  179SLPC  H16R20397   5.214   4.192   4.987  0.2440  2.9566  1.2229
  179SLPC  H16S20398   5.075   4.128   4.890 -2.0361  1.8007 -0.9066
  179SLPC  C21720399   5.049   4.329   4.978 -0.3695  0.1985 -0.4125
  179SLPC  H17R20400   4.970   4.357   4.906 -0.8690  0.8519  0.3824
  179SLPC  H17S20401   5.101   4.426   4.990 -2.2661  1.0939  0.9163
  179SLPC  C21820402   4.969   4.290   5.113 -0.7749 -0.2721  1.0743
  179SLPC  H18R20403   4.944   4.182   5.107  0.6307 -0.5356 -2.2811
  179SLPC  H18S20404   4.876   4.350   5.114 -0.9412 -0.3753 -1.5881
  179SLPC  H18T20405   5.027   4.311   5.206  2.2690  0.9328 -0.9471
  179SLPC   C3320406   5.710   4.440   3.801  0.3736  0.6025 -0.5287
  179SLPC   H3X20407   5.777   4.525   3.826 -0.7145  0.9339  1.4774
  179SLPC   H3Y20408   5.758   4.369   3.731  3.1558  1.3523  0.4681
  179SLPC   C3420409   5.699   4.357   3.936  0.7826 -0.7729  0.0591
  179SLPC   H4X20410   5.795   4.301   3.942  0.4891 -1.0892  3.1358
  179SLPC   H4Y20411   5.616   4.283   3.931  0.0713 -0.0786  1.3026
  179SLPC   C3520412   5.685   4.449   4.060  0.0985 -0.1867 -0.6041
  179SLPC   H5X20413   5.777   4.512   4.055  0.1473 -0.1531  0.5028
  179SLPC   H5Y20414   5.587   4.500   4.059  0.2695  0.1520 -0.2926
  179SLPC   C3620415   5.699   4.365   4.192 -0.0171  1.1528 -0.1786
  179SLPC   H6X20416   5.749   4.269   4.166  1.1397  1.6886  0.0352
  179SLPC   H6Y20417   5.595   4.334   4.216  0.4816 -0.3229  0.2047
  179SLPC   C3720418   5.751   4.446   4.307 -0.2665  0.0629 -0.1065
  179SLPC   H7X20419   5.679   4.530   4.313 -0.9087 -0.1519 -3.0443
  179SLPC   H7Y20420   5.850   4.491   4.283 -0.8507  1.8400  0.6486
  179SLPC   C3820421   5.762   4.359   4.438 -0.0187  0.3782 -0.6113
  179SLPC   H8X20422   5.860   4.306   4.438 -1.2860 -2.1570 -0.5395
  179SLPC   H8Y20423   5.680   4.284   4.434 -1.6112  1.9973  0.2585
  179SLPC   C3920424   5.737   4.445   4.566 -0.7478 -0.1335 -0.1335
  179SLPC   H9X20425   5.632   4.482   4.562 -0.8376 -0.1308  1.5830
  179SLPC   H9Y20426   5.818   4.521   4.564 -0.5784 -0.3140 -2.4286
  179SLPC  C31020427   5.747   4.355   4.691 -0.3525 -0.2287  0.5517
  179SLPC  H10X20428   5.845   4.305   4.701 -0.0549  0.4055  0.8248
  179SLPC  H10Y20429   5.675   4.271   4.681  0.4629 -0.8074 -0.6882
  179SLPC  C31120430   5.717   4.427   4.821  0.4103  0.6311 -0.3966
  179SLPC  H11X20431   5.607   4.441   4.816  0.3634  0.1323 -0.7725
  179SLPC  H11Y20432   5.779   4.518   4.836  0.8934  0.1657  0.5689
  179SLPC  C31220433   5.759   4.333   4.937  0.3400 -0.6046 -0.2853
  179SLPC  H12X20434   5.868   4.342   4.959 -0.0641  0.0157  1.6356
  179SLPC  H12Y20435   5.754   4.227   4.904 -0.3406 -0.6450 -0.0724
  179SLPC  C31320436   5.686   4.356   5.069  0.4425  0.2885  0.5578
  179SLPC  H13X20437   5.714   4.454   5.114  1.4648 -0.1046  0.8050
  179SLPC  H13Y20438   5.733   4.285   5.141 -0.4452 -0.5033  0.3814
  179SLPC  C31420439   5.531   4.342   5.068  0.0508 -0.8601 -0.1387
  179SLPC  H14X20440   5.505   4.255   5.004  0.1011 -0.9145 -0.0857
  179SLPC  H14Y20441   5.488   4.435   5.025  1.1379 -1.6860 -3.2186
  179SLPC  C31520442   5.478   4.307   5.215  0.6131  0.1270 -0.0613
  179SLPC  H15X20443   5.462   4.399   5.274  0.3437  0.9643 -1.3899
  179SLPC  H15Y20444   5.557   4.246   5.264 -0.5818 -0.7762  0.7983
  179SLPC  C31620445   5.358   4.215   5.222  0.3847 -0.4215  0.4892
  179SLPC  H16X20446   5.376   4.132   5.150 -0.6527  0.2252 -0.5462
  179SLPC  H16Y20447   5.268   4.276   5.200  1.7759  2.6555  2.6770
  179SLPC  C31720448   5.342   4.148   5.349  0.4366  0.4386 -0.4173
  179SLPC  H17X20449   5.299   4.217   5.425  1.6763 -1.2312  1.9278
  179SLPC  H17Y20450   5.442   4.106   5.375  0.8850  1.0605 -1.1229
  179SLPC  C31820451   5.242   4.032   5.345 -0.8611 -0.4214 -0.0023
  179SLPC  H18X20452   5.270   3.947   5.280  0.1219  0.3483 -0.6164
  179SLPC  H18Y20453   5.145   4.069   5.305 -0.0696  1.3049 -0.4365
  179SLPC  H18Z20454   5.224   3.983   5.443 -1.4706 -0.5231 -0.1562
  180SLPC     N20455   5.073   4.097   2.736  0.0431  0.2327 -0.0498
  180SLPC   C1320456   5.096   3.947   2.729 -0.7498  0.0717 -0.0614
  180SLPC  H13A20457   5.043   3.885   2.799 -0.8121  0.5046  0.2812
  180SLPC  H13B20458   5.084   3.907   2.629  1.8472 -1.5536  0.1918
  180SLPC  H13C20459   5.201   3.931   2.750 -0.4662  1.1743 -0.5322
  180SLPC   C1420460   5.147   4.160   2.623  0.2391 -0.3114  0.4848
  180SLPC  H14A20461   5.250   4.127   2.621  0.1498 -0.7834 -2.9547
  180SLPC  H14B20462   5.113   4.137   2.523 -0.5498  0.9226  0.4540
  180SLPC  H14C20463   5.153   4.267   2.634 -1.1430  0.0754 -1.8425
  180SLPC   C1520464   5.125   4.144   2.868  0.3078  0.1273 -0.3874
  180SLPC  H15A20465   5.089   4.245   2.882  0.2853 -0.1444  1.7351
  180SLPC  H15B20466   5.087   4.090   2.953  0.6830  0.9413  0.3155
  180SLPC  H15C20467   5.232   4.137   2.875  0.3971  0.2144 -1.5044
  180SLPC   C1220468   4.921   4.123   2.723  0.1032  0.0178 -0.4070
  180SLPC  H12A20469   4.880   4.094   2.818  0.7662  2.0665  0.5752
  180SLPC  H12B20470   4.886   4.063   2.641 -1.9559  2.3015 -1.3525
  180SLPC   C1120471   4.867   4.267   2.696  0.1517 -0.7794 -0.2009
  180SLPC  H11A20472   4.757   4.277   2.695  0.1680 -0.5455  0.0224
  180SLPC  H11B20473   4.911   4.288   2.596 -0.8178  1.2429 -0.2603
  180SLPC     P20474   4.945   4.514   2.747  0.0449  0.5591 -0.4515
  180SLPC   O1320475   5.082   4.535   2.687  0.2795 -0.2383 -0.3819
  180SLPC   O1420476   4.822   4.558   2.681  0.1959  0.2350 -0.7764
  180SLPC   O1220477   4.923   4.365   2.793  0.2018  0.9019  0.3394
  180SLPC   O1120478   4.938   4.587   2.889  0.3093 -0.3530  0.3423
  180SLPC    C120479   5.035   4.556   2.982 -0.1161  0.0279 -0.4710
  180SLPC    HA20480   5.036   4.452   3.021  1.0094  1.1232  2.7328
  180SLPC    HB20481   5.137   4.562   2.938  1.4167 -3.4646  2.1034
  180SLPC    C220482   5.027   4.651   3.098 -0.1586 -0.5270 -0.3205
  180SLPC    HS20483   5.131   4.654   3.139 -0.3856  0.5888  0.2047
  180SLPC   O2120484   4.931   4.614   3.195  0.6068  0.2471 -0.3967
  180SLPC   C2120485   4.967   4.509   3.269 -0.2215 -0.0831 -0.2753
  180SLPC   O2220486   5.075   4.458   3.263  0.5740  0.0845  0.1287
  180SLPC   C2220487   4.845   4.458   3.347 -0.3389 -0.0467 -0.4208
  180SLPC   H2R20488   4.793   4.542   3.397 -0.5600  1.0388 -2.3894
  180SLPC   H2S20489   4.778   4.416   3.269 -0.8097  0.5828 -0.3602
  180SLPC    C320490   4.994   4.795   3.049  0.5226  0.2556 -0.5310
  180SLPC    HX20491   4.893   4.793   3.003 -1.4779 -0.9961  3.4642
  180SLPC    HY20492   5.069   4.821   2.971  0.2591 -0.6160 -1.0831
  180SLPC   O3120493   5.001   4.890   3.160  0.1521 -1.1222 -0.0680
  180SLPC   C3120494   4.889   4.919   3.219  0.6663 -0.6047  0.3800
  180SLPC   O3220495   4.775   4.882   3.192 -0.0579 -0.5185  0.3051
  180SLPC   C3220496   4.916   5.003   3.348 -0.0080  1.1754  1.0372
  180SLPC   H2X20497   4.965   5.101   3.330  0.2030  0.7608 -0.8433
  180SLPC   H2Y20498   4.991   4.947   3.409 -0.4229  0.8405  1.2487
  180SLPC   C2320499   4.884   4.334   3.440  0.1917  0.1669  0.6014
  180SLPC   H3R20500   4.946   4.268   3.376  1.1306  0.2210  1.4180
  180SLPC   H3S20501   4.797   4.278   3.480  0.8703  0.0200  1.9543
  180SLPC   C2420502   4.971   4.379   3.563 -0.3076 -0.2907  0.7087
  180SLPC   H4R20503   5.056   4.444   3.533 -0.6840 -0.6144 -1.2101
  180SLPC   H4S20504   5.008   4.288   3.615  0.5498 -0.6552 -0.4945
  180SLPC   C2520505   4.887   4.456   3.663 -0.8339 -0.6740  0.3877
  180SLPC   H5R20506   4.786   4.410   3.675 -1.6220  0.8663 -0.0288
  180SLPC   H5S20507   4.859   4.555   3.620 -0.0141 -0.5951  0.0284
  180SLPC   C2620508   4.945   4.468   3.805 -0.1424  0.5342 -0.1719
  180SLPC   H6R20509   5.053   4.492   3.798 -0.3550  1.4600 -0.4407
  180SLPC   H6S20510   4.946   4.368   3.853 -1.3656  0.0644 -1.0960
  180SLPC   C2720511   4.870   4.569   3.894 -0.1845 -0.1107  0.5862
  180SLPC   H7R20512   4.760   4.556   3.897 -0.3105  0.4456 -0.8589
  180SLPC   H7S20513   4.894   4.669   3.851 -1.7852 -0.4103 -1.1061
  180SLPC   C2820514   4.913   4.557   4.047  0.6235  0.1356 -0.2523
  180SLPC   H8R20515   4.872   4.648   4.095  1.3448 -0.0689  0.8044
  180SLPC   H8S20516   5.025   4.556   4.044  0.6556 -0.0314  0.6129
  180SLPC   C2920517   4.868   4.418   4.104  0.0825  0.0116  0.0475
  180SLPC   H9R20518   4.880   4.335   4.034 -1.4892 -1.0620  0.9978
  180SLPC  C21020519   4.794   4.389   4.213  0.6936 -0.0818 -0.4741
  180SLPC  H10R20520   4.766   4.284   4.229  2.3178 -0.3285  1.1758
  180SLPC  C21120521   4.737   4.482   4.317 -0.3570 -0.3648 -0.4790
  180SLPC  H11R20522   4.681   4.429   4.397 -0.7729  2.4802  1.2788
  180SLPC  H11S20523   4.659   4.549   4.273 -0.3579  1.8199  2.5152
  180SLPC  C21220524   4.842   4.563   4.389  0.6333  0.5541 -0.3475
  180SLPC  H12R20525   4.919   4.598   4.318  0.9213 -1.8364 -1.2972
  180SLPC  C21320526   4.865   4.584   4.522 -0.5297 -0.2688 -0.2662
  180SLPC  H13R20527   4.941   4.656   4.554 -0.4228 -1.0991  1.4729
  180SLPC  C21420528   4.773   4.537   4.629 -0.2006  0.4983 -0.2244
  180SLPC  H14R20529   4.793   4.428   4.624  1.2060  0.7590 -0.7095
  180SLPC  H14S20530   4.669   4.563   4.601  0.3043  1.7071 -1.0934
  180SLPC  C21520531   4.819   4.596   4.762 -0.2945  0.1602  1.1602
  180SLPC  H15R20532   4.807   4.706   4.754  0.3985  0.1389 -0.6619
  180SLPC  H15S20533   4.922   4.563   4.789  0.2268 -0.0321 -0.8927
  180SLPC  C21620534   4.728   4.548   4.870 -0.0141  0.3454  0.9811
  180SLPC  H16R20535   4.753   4.441   4.888  3.0451  0.7737 -0.0268
  180SLPC  H16S20536   4.623   4.546   4.835  0.2818 -0.2951  0.0781
  180SLPC  C21720537   4.761   4.605   5.008  0.2403  0.2238 -0.5947
  180SLPC  H17R20538   4.741   4.715   5.005 -0.7030  0.0438 -1.0843
  180SLPC  H17S20539   4.870   4.597   5.029  0.5841 -3.0951 -2.9607
  180SLPC  C21820540   4.676   4.557   5.127 -0.5015  0.2864  0.6533
  180SLPC  H18R20541   4.697   4.619   5.216  0.8963  1.3712 -0.3955
  180SLPC  H18S20542   4.691   4.449   5.148 -1.0273 -0.5502 -2.6391
  180SLPC  H18T20543   4.567   4.561   5.106 -0.5016 -2.1065 -0.1121
  180SLPC   C3320544   4.795   5.013   3.437 -0.2450 -0.1971 -0.6652
  180SLPC   H3X20545   4.762   4.913   3.472  1.0661 -1.0577 -1.8001
  180SLPC   H3Y20546   4.714   5.063   3.379 -0.3039 -0.5919 -0.9230
  180SLPC   C3420547   4.820   5.100   3.563  0.1835 -0.3093  0.5064
  180SLPC   H4X20548   4.725   5.141   3.603  0.4061 -0.0311  0.7511
  180SLPC   H4Y20549   4.876   5.193   3.540 -0.9587 -0.1761 -2.1360
  180SLPC   C3520550   4.891   5.026   3.676 -0.3631 -0.4893 -0.0607
  180SLPC   H5X20551   5.000   5.037   3.662 -0.2931  1.9013  1.6735
  180SLPC   H5Y20552   4.858   4.920   3.672 -2.0346  0.0389 -2.7193
  180SLPC   C3620553   4.863   5.078   3.815 -0.1941  0.1209  0.2313
  180SLPC   H6X20554   4.753   5.073   3.833 -0.2384 -1.0630 -0.2662
  180SLPC   H6Y20555   4.887   5.186   3.820 -1.0192  0.3150  0.1915
  180SLPC   C3720556   4.941   5.011   3.937 -0.1470  0.9671  0.6225
  180SLPC   H7X20557   5.048   4.997   3.911 -0.3109 -0.9406  0.8124
  180SLPC   H7Y20558   4.897   4.913   3.966 -2.2182  1.9198  0.8862
  180SLPC   C3820559   4.954   5.102   4.059 -0.3211  0.7416 -0.2325
  180SLPC   H8X20560   4.862   5.149   4.101  0.8407  1.2516  1.8535
  180SLPC   H8Y20561   5.020   5.189   4.038  2.2761 -0.7560  1.2872
  180SLPC   C3920562   5.020   5.044   4.192  0.2303 -0.7080  0.4122
  180SLPC   H9X20563   5.128   5.040   4.168 -0.0521 -0.9502 -0.9073
  180SLPC   H9Y20564   4.983   4.942   4.214  0.2770 -0.4588  1.7253
  180SLPC  C31020565   4.991   5.121   4.322  0.4265  1.0453 -0.2073
  180SLPC  H10X20566   4.882   5.131   4.334  0.0587 -0.1551 -2.0435
  180SLPC  H10Y20567   5.039   5.220   4.311  2.6029  0.1249  0.2174
  180SLPC  C31120568   5.062   5.055   4.436 -0.3912 -0.2501  0.6589
  180SLPC  H11X20569   5.171   5.058   4.418 -0.0272 -1.1766  2.4240
  180SLPC  H11Y20570   5.036   4.947   4.433  1.2253 -0.6324 -1.0084
  180SLPC  C31220571   5.041   5.112   4.575  0.0352  0.6569 -0.2111
  180SLPC  H12X20572   4.934   5.102   4.606 -0.0171 -0.9914 -0.8048
  180SLPC  H12Y20573   5.080   5.216   4.569  2.3623 -0.2040 -0.9845
  180SLPC  C31320574   5.122   5.037   4.688 -0.4714  0.4956 -0.3918
  180SLPC  H13X20575   5.226   5.055   4.653  1.1027  1.2154  4.0327
  180SLPC  H13Y20576   5.100   4.928   4.685 -1.4707  0.6386  0.8865
  180SLPC  C31420577   5.110   5.087   4.839  0.5063 -0.1481 -0.1672
  180SLPC  H14X20578   5.141   5.193   4.849  0.0026 -0.0325  0.2130
  180SLPC  H14Y20579   5.180   5.034   4.908 -0.0021 -0.8038 -0.1426
  180SLPC  C31520580   4.974   5.058   4.907 -0.0431 -0.0351  0.4331
  180SLPC  H15X20581   4.946   4.960   4.861  1.6212 -0.3604  0.0490
  180SLPC  H15Y20582   4.904   5.133   4.865  0.0614 -0.4264 -0.4676
  180SLPC  C31620583   4.957   5.071   5.058 -0.0024  0.5228 -1.0433
  180SLPC  H16X20584   4.996   5.169   5.093  0.3970 -0.0852  0.2760
  180SLPC  H16Y20585   5.016   4.993   5.110 -3.8567 -2.0784 -0.1126
  180SLPC  C31720586   4.818   5.047   5.124  0.0472 -0.2572  0.1265
  180SLPC  H17X20587   4.789   4.942   5.101 -0.0133  0.0932 -1.4538
  180SLPC  H17Y20588   4.755   5.117   5.067  1.6747  0.5434 -0.7489
  180SLPC  C31820589   4.813   5.076   5.273 -0.2446  0.3856 -0.1746
  180SLPC  H18X20590   4.890   5.010   5.319  0.0858  0.5161 -0.5344
  180SLPC  H18Y20591   4.720   5.043   5.324  0.7271 -1.4466  0.5327
  180SLPC  H18Z20592   4.842   5.181   5.292 -0.2831  0.8906 -2.5854
  181SLPC     N20593   5.235   3.221   2.912 -1.4953 -0.1018  0.1829
  181SLPC   C1320594   5.348   3.131   2.953 -0.4678  0.2885 -0.3695
  181SLPC  H13A20595   5.400   3.081   2.874 -1.8899 -0.0180 -1.1473
  181SLPC  H13B20596   5.425   3.189   3.002  1.5551 -2.1951 -0.4142
  181SLPC  H13C20597   5.313   3.055   3.022  0.1868  1.4018  1.2632
  181SLPC   C1420598   5.145   3.146   2.821 -0.1999 -0.4317 -0.1917
  181SLPC  H14A20599   5.063   3.216   2.812 -1.0259 -1.4236 -0.4792
  181SLPC  H14B20600   5.194   3.114   2.730 -0.7541 -3.3424  0.4299
  181SLPC  H14C20601   5.109   3.059   2.874  0.2912  0.9176  2.5252
  181SLPC   C1520602   5.298   3.335   2.842 -0.4147  0.2539  0.2845
  181SLPC  H15A20603   5.335   3.403   2.918  0.3167 -1.1030  1.1837
  181SLPC  H15B20604   5.386   3.309   2.786  0.5332  0.8271  1.4603
  181SLPC  H15C20605   5.220   3.381   2.783  0.1259  0.9222  0.0696
  181SLPC   C1220606   5.174   3.262   3.036 -0.0653 -0.0138  0.3958
  181SLPC  H12A20607   5.258   3.303   3.090  1.2727  0.0377 -1.6375
  181SLPC  H12B20608   5.129   3.180   3.089  0.5577 -1.5361 -1.3124
  181SLPC   C1120609   5.059   3.365   3.029 -0.4764 -0.0952  1.0825
  181SLPC  H11A20610   5.091   3.469   3.007  0.0126 -0.2707  0.9720
  181SLPC  H11B20611   5.011   3.364   3.130  0.9148 -0.0142  1.7651
  181SLPC     P20612   4.837   3.410   2.896 -0.0794 -0.0408  0.2289
  181SLPC   O1320613   4.902   3.508   2.809 -0.4889  0.0929  0.2172
  181SLPC   O1420614   4.728   3.332   2.837 -0.0326  0.0122 -0.0362
  181SLPC   O1220615   4.957   3.313   2.940  0.3324 -0.1345 -0.3303
  181SLPC   O1120616   4.783   3.486   3.028 -0.2443  0.6594 -0.7836
  181SLPC    C120617   4.702   3.426   3.128  0.1604 -0.0023 -0.4970
  181SLPC    HA20618   4.594   3.433   3.101 -0.5150 -0.4449  1.8931
  181SLPC    HB20619   4.731   3.320   3.139 -0.4875 -0.1732 -0.3795
  181SLPC    C220620   4.703   3.499   3.267 -0.0068 -0.2487  0.2414
  181SLPC    HS20621   4.658   3.599   3.250 -0.4814 -0.5044 -0.0214
  181SLPC   O2120622   4.836   3.499   3.320  0.2720 -0.9439 -0.5082
  181SLPC   C2120623   4.898   3.615   3.292 -0.1130  0.1557 -0.9217
  181SLPC   O2220624   4.847   3.716   3.242  0.2185  0.0835 -0.3162
  181SLPC   C2220625   5.048   3.606   3.324 -0.6038 -0.2454  0.1871
  181SLPC   H2R20626   5.098   3.546   3.245  2.1677  1.1999  0.7197
  181SLPC   H2S20627   5.088   3.710   3.318 -2.8803  0.7352  0.8418
  181SLPC    C320628   4.607   3.433   3.363 -0.2607  0.1141  0.2044
  181SLPC    HX20629   4.649   3.330   3.365  0.6045  0.3450 -2.1996
  181SLPC    HY20630   4.508   3.428   3.313 -0.5418 -0.9615  0.8355
  181SLPC   O3120631   4.592   3.499   3.495 -0.8108  0.5955 -0.0322
  181SLPC   C3120632   4.647   3.435   3.600  0.0852  0.2138  0.2079
  181SLPC   O3220633   4.726   3.341   3.594 -0.0473  0.3758 -0.1942
  181SLPC   C3220634   4.629   3.522   3.721 -0.6923 -0.5138 -0.4022
  181SLPC   H2X20635   4.519   3.535   3.737 -0.5732 -0.9451  0.9414
  181SLPC   H2Y20636   4.672   3.622   3.698  2.5069 -2.2895 -2.9398
  181SLPC   C2320637   5.082   3.553   3.459  0.1547  0.9757 -0.1592
  181SLPC   H3R20638   5.191   3.536   3.443  0.2280  0.7630  0.5287
  181SLPC   H3S20639   5.026   3.460   3.486  0.9550 -0.1686 -2.1996
  181SLPC   C2420640   5.061   3.666   3.566 -0.6975  0.0235 -0.1345
  181SLPC   H4R20641   4.951   3.680   3.572 -0.5818  3.4817 -2.6085
  181SLPC   H4S20642   5.102   3.764   3.533 -0.1812  0.7411  2.4538
  181SLPC   C2520643   5.140   3.624   3.692 -0.5088  0.7402 -0.2006
  181SLPC   H5R20644   5.237   3.579   3.661  1.4281  2.9022  2.1960
  181SLPC   H5S20645   5.084   3.543   3.743  1.7787  0.5893  2.3035
  181SLPC   C2620646   5.149   3.739   3.794 -0.1705 -0.1319 -0.1247
  181SLPC   H6R20647   5.051   3.788   3.813  0.7895  1.4740  0.9143
  181SLPC   H6S20648   5.226   3.807   3.752  0.5482 -1.7255 -1.5138
  181SLPC   C2720649   5.201   3.664   3.921  0.2172  0.3262  0.1033
  181SLPC   H7R20650   5.304   3.627   3.902  0.4855  0.3822  1.3371
  181SLPC   H7S20651   5.137   3.580   3.955  0.1828 -0.7269 -2.3723
  181SLPC   C2820652   5.203   3.774   4.032  1.1462 -0.6268  0.1883
  181SLPC   H8R20653   5.095   3.784   4.054  0.9365  0.6498 -1.2676
  181SLPC   H8S20654   5.242   3.867   3.985 -0.3581 -0.2567 -0.3762
  181SLPC   C2920655   5.281   3.720   4.144  0.2424  0.1411 -0.3828
  181SLPC   H9R20656   5.387   3.702   4.124  0.0362 -1.0039 -0.5148
  181SLPC  C21020657   5.238   3.703   4.274  0.3578 -0.0056 -0.3125
  181SLPC  H10R20658   5.304   3.644   4.339  1.5345  3.4996  2.0020
  181SLPC  C21120659   5.107   3.737   4.346  0.2729  0.5881  0.6016
  181SLPC  H11R20660   5.039   3.650   4.361  0.0543  0.6158 -0.2067
  181SLPC  H11S20661   5.058   3.801   4.270 -0.1303 -2.4553 -1.9171
  181SLPC  C21220662   5.117   3.822   4.472  0.1915  0.0418  0.3396
  181SLPC  H12R20663   5.147   3.926   4.453  0.1655 -0.0547 -0.2552
  181SLPC  C21320664   5.115   3.779   4.598  0.7203  0.6134 -0.0685
  181SLPC  H13R20665   5.110   3.858   4.674  1.2898 -0.0850  0.7035
  181SLPC  C21420666   5.109   3.641   4.660 -0.2397 -0.3140  0.6210
  181SLPC  H14R20667   5.106   3.566   4.578  2.9530 -0.1243  0.2275
  181SLPC  H14S20668   5.019   3.620   4.722  0.2161 -1.1104  1.0172
  181SLPC  C21520669   5.229   3.598   4.743  0.5605  0.2021 -0.1768
  181SLPC  H15R20670   5.327   3.622   4.696 -0.4564  1.7118 -1.6681
  181SLPC  H15S20671   5.223   3.490   4.769  0.4842 -0.2197 -1.8004
  181SLPC  C21620672   5.233   3.672   4.884  0.0444  0.5549  0.3669
  181SLPC  H16R20673   5.226   3.782   4.871 -1.6584  0.2439 -2.0693
  181SLPC  H16S20674   5.331   3.640   4.926  0.7368  1.9581 -0.1047
  181SLPC  C21720675   5.120   3.623   4.975 -0.5694  0.1929 -0.3510
  181SLPC  H17R20676   5.123   3.512   4.980  1.1837  0.2439  0.2455
  181SLPC  H17S20677   5.029   3.656   4.920 -0.1048  1.4571 -0.3926
  181SLPC  C21820678   5.113   3.691   5.111 -0.5896  0.2240  0.3360
  181SLPC  H18R20679   5.038   3.669   5.191 -0.6401  1.7322  0.7239
  181SLPC  H18S20680   5.102   3.800   5.095 -0.7122  0.0235 -1.0998
  181SLPC  H18T20681   5.203   3.667   5.172 -0.8725 -0.7414  0.3973
  181SLPC   C3320682   4.696   3.462   3.840 -0.2822  0.6749 -0.0845
  181SLPC   H3X20683   4.806   3.457   3.822 -0.0577  0.0792  1.3042
  181SLPC   H3Y20684   4.662   3.357   3.849  1.6698 -0.0786 -0.9196
  181SLPC   C3420685   4.672   3.519   3.977 -0.0470  0.1342  0.0452
  181SLPC   H4X20686   4.571   3.489   4.011 -0.4159  2.0150  0.7088
  181SLPC   H4Y20687   4.673   3.629   3.992  0.2180 -0.0943  1.8722
  181SLPC   C3520688   4.770   3.473   4.085  0.1624  0.0788 -0.2643
  181SLPC   H5X20689   4.874   3.491   4.050 -0.8849  0.9229 -3.2582
  181SLPC   H5Y20690   4.760   3.367   4.116 -0.5241  0.1856 -0.1021
  181SLPC   C3620691   4.748   3.552   4.215 -0.4911  0.0551  0.3369
  181SLPC   H6X20692   4.639   3.572   4.227 -0.1845  2.2052 -0.1230
  181SLPC   H6Y20693   4.804   3.647   4.222 -0.9779  0.4372 -0.8027
  181SLPC   C3720694   4.786   3.474   4.350 -0.1560  0.1885  0.1489
  181SLPC   H7X20695   4.894   3.449   4.347 -0.4853 -1.5924  1.6433
  181SLPC   H7Y20696   4.740   3.373   4.355 -1.6308  0.8820  1.7104
  181SLPC   C3820697   4.767   3.552   4.482 -0.0799 -0.1365  0.1353
  181SLPC   H8X20698   4.820   3.650   4.481 -0.2471  0.0545  2.7255
  181SLPC   H8Y20699   4.827   3.496   4.557  1.7947 -1.6431 -2.3166
  181SLPC   C3920700   4.615   3.549   4.516 -0.7326 -0.0384 -0.1436
  181SLPC   H9X20701   4.587   3.443   4.536 -4.6292  1.3406  3.0850
  181SLPC   H9Y20702   4.554   3.582   4.429 -2.7568  0.4698  1.3969
  181SLPC  C31020703   4.581   3.637   4.634  0.5733 -0.1167  0.5910
  181SLPC  H10X20704   4.476   3.615   4.664  0.4243  0.4070  0.4721
  181SLPC  H10Y20705   4.601   3.738   4.592 -0.2097 -0.6910 -1.3032
  181SLPC  C31120706   4.664   3.633   4.761  0.1098  0.0183  0.3092
  181SLPC  H11X20707   4.656   3.721   4.828 -1.3206  1.2132 -1.3299
  181SLPC  H11Y20708   4.768   3.640   4.722  0.0165  1.5257  0.2968
  181SLPC  C31220709   4.652   3.499   4.835  0.2826 -1.0432  0.7252
  181SLPC  H12X20710   4.675   3.415   4.766  1.1400 -0.4160  0.2259
  181SLPC  H12Y20711   4.545   3.478   4.856 -0.1561  0.6887  0.4246
  181SLPC  C31320712   4.749   3.483   4.956  0.4614  0.1137 -0.5600
  181SLPC  H13X20713   4.848   3.513   4.917  0.4809  1.3960  0.4104
  181SLPC  H13Y20714   4.744   3.374   4.978 -0.5368  0.2324 -0.1423
  181SLPC  C31420715   4.715   3.561   5.080  0.1908 -0.3703  0.1612
  181SLPC  H14X20716   4.706   3.663   5.036  3.7427 -0.2811 -0.6860
  181SLPC  H14Y20717   4.787   3.546   5.162 -0.5253 -1.2323  0.6511
  181SLPC  C31520718   4.583   3.505   5.145 -0.4995 -0.3175  0.2335
  181SLPC  H15X20719   4.596   3.396   5.159 -0.4273 -0.1090  2.0741
  181SLPC  H15Y20720   4.493   3.527   5.082 -0.6031  0.0892  0.5207
  181SLPC  C31620721   4.544   3.566   5.283  0.1520 -0.0007  0.0454
  181SLPC  H16X20722   4.606   3.528   5.367  1.5017  0.4394 -0.7311
  181SLPC  H16Y20723   4.439   3.539   5.309  0.3070  0.8950  1.7138
  181SLPC  C31720724   4.541   3.719   5.285  0.9948  1.0899 -0.0102
  181SLPC  H17X20725   4.502   3.756   5.188  1.9191  2.3958  0.0828
  181SLPC  H17Y20726   4.645   3.759   5.290  1.4795  0.0728 -1.2622
  181SLPC  C31820727   4.453   3.784   5.391  0.1099 -0.2496 -0.6717
  181SLPC  H18X20728   4.431   3.885   5.351 -2.4673 -1.3116 -2.1308
  181SLPC  H18Y20729   4.504   3.785   5.490  0.9426 -0.5078 -1.0808
  181SLPC  H18Z20730   4.351   3.741   5.393 -0.1433  0.3222  1.7788
  182SLPC     N20731   1.597   4.440   2.345  1.3487  0.2060 -1.1793
  182SLPC   C1320732   1.480   4.355   2.308  0.6496 -0.4120  0.6199
  182SLPC  H13A20733   1.410   4.410   2.248 -2.0153 -1.0230  2.9427
  182SLPC  H13B20734   1.512   4.268   2.252  1.1005  0.3369 -0.3125
  182SLPC  H13C20735   1.435   4.309   2.395 -2.1322  1.5201  0.3200
  182SLPC   C1420736   1.544   4.563   2.394  0.2739 -0.3398 -0.6433
  182SLPC  H14A20737   1.615   4.642   2.373  0.1024 -0.3835 -1.4421
  182SLPC  H14B20738   1.465   4.597   2.329  0.3476  0.5253 -0.3036
  182SLPC  H14C20739   1.512   4.569   2.497 -1.0928  0.1473 -1.0646
  182SLPC   C1520740   1.675   4.481   2.222 -0.7866  0.1387 -0.9085
  182SLPC  H15A20741   1.714   4.396   2.167  1.8393  1.4684 -1.2415
  182SLPC  H15B20742   1.612   4.540   2.157 -2.5918  0.5183  1.1038
  182SLPC  H15C20743   1.761   4.542   2.247 -1.1060  0.5297 -0.7609
  182SLPC   C1220744   1.683   4.362   2.445 -0.4728  0.1956  0.3145
  182SLPC  H12A20745   1.773   4.418   2.461  0.4872 -0.6700 -1.7210
  182SLPC  H12B20746   1.724   4.275   2.396  0.4259 -0.4812  2.1756
  182SLPC   C1120747   1.622   4.341   2.580 -0.1427  0.1992  0.0960
  182SLPC  H11A20748   1.539   4.268   2.579  0.1043 -0.2154 -3.4393
  182SLPC  H11B20749   1.578   4.431   2.628 -1.7099  0.4739 -1.7148
  182SLPC     P20750   1.757   4.187   2.750 -0.2990  0.3561  0.4899
  182SLPC   O1320751   1.763   4.060   2.673  0.2559  0.0828 -0.3577
  182SLPC   O1420752   1.867   4.235   2.833  0.1280  0.5609 -0.0819
  182SLPC   O1220753   1.739   4.305   2.645  0.2667  0.3410  0.3875
  182SLPC   O1120754   1.623   4.194   2.832  0.0317  0.2094  0.3962
  182SLPC    C120755   1.568   4.315   2.878  0.2218  0.1153  0.0984
  182SLPC    HA20756   1.636   4.401   2.865  1.2137 -0.1468  2.7534
  182SLPC    HB20757   1.467   4.336   2.838 -2.0165 -4.2902  2.6719
  182SLPC    C220758   1.553   4.306   3.032 -0.1367  0.5832 -0.4188
  182SLPC    HS20759   1.514   4.406   3.060 -0.8145  0.9781 -2.6593
  182SLPC   O2120760   1.680   4.266   3.095 -0.2159  0.1572  0.0673
  182SLPC   C2120761   1.760   4.358   3.131 -0.0375  0.1177  1.1545
  182SLPC   O2220762   1.739   4.481   3.131  0.0119  0.1721  0.1645
  182SLPC   C2220763   1.899   4.300   3.157  0.3222 -0.5395 -0.2875
  182SLPC   H2R20764   1.892   4.194   3.123 -0.1415 -0.4299 -0.5330
  182SLPC   H2S20765   1.973   4.353   3.093  0.0985 -1.4150 -1.3091
  182SLPC    C320766   1.444   4.204   3.083 -0.0122 -0.2968 -0.1634
  182SLPC    HX20767   1.484   4.104   3.056  1.8604  0.8615 -2.0416
  182SLPC    HY20768   1.347   4.227   3.033  0.1292  4.0784  1.1256
  182SLPC   O3120769   1.423   4.216   3.221 -0.2548  0.2516  0.3281
  182SLPC   C3120770   1.371   4.114   3.284  0.3144 -0.4049  0.0943
  182SLPC   O3220771   1.341   4.007   3.229 -0.0660  0.1041  0.4245
  182SLPC   C3220772   1.369   4.157   3.433  0.0409  0.1782 -0.3334
  182SLPC   H2X20773   1.332   4.261   3.438 -0.1900  0.1634 -1.3925
  182SLPC   H2Y20774   1.476   4.159   3.462  0.3999  3.2756 -1.5406
  182SLPC   C2320775   1.943   4.316   3.308 -0.2129 -0.2455  0.5584
  182SLPC   H3R20776   2.030   4.248   3.320 -0.3381 -0.5569 -0.2556
  182SLPC   H3S20777   1.861   4.261   3.358  0.1129 -1.5552 -0.3081
  182SLPC   C2420778   1.966   4.443   3.369  0.1288  0.4785  0.1470
  182SLPC   H4R20779   1.876   4.503   3.346 -2.6316 -2.9919  0.9312
  182SLPC   H4S20780   2.053   4.498   3.326  0.8419 -0.9514 -0.3065
  182SLPC   C2520781   1.973   4.434   3.524 -0.4002 -0.2933  0.0058
  182SLPC   H5R20782   2.040   4.350   3.551 -1.5534 -1.5867 -0.9611
  182SLPC   H5S20783   1.873   4.419   3.570  0.2454 -0.9755  1.2368
  182SLPC   C2620784   2.025   4.569   3.578  0.1794 -0.6593 -0.4461
  182SLPC   H6R20785   1.951   4.651   3.574  2.3019  1.4144  0.3616
  182SLPC   H6S20786   2.107   4.594   3.507 -1.1493  1.9172 -1.1839
  182SLPC   C2720787   2.078   4.575   3.732  0.1525 -0.2533  0.2889
  182SLPC   H7R20788   2.114   4.680   3.743  1.3069 -0.5820 -0.2612
  182SLPC   H7S20789   2.160   4.501   3.744 -0.4653 -0.8317  1.1074
  182SLPC   C2820790   1.975   4.531   3.836 -0.1448 -0.5306  0.2961
  182SLPC   H8R20791   2.026   4.523   3.935  2.6405 -2.9081 -1.1637
  182SLPC   H8S20792   1.949   4.428   3.804  0.7245 -0.2621 -1.4118
  182SLPC   C2920793   1.868   4.629   3.833 -0.3991 -0.1266 -0.2228
  182SLPC   H9R20794   1.787   4.615   3.759 -1.6692 -0.5319  1.1811
  182SLPC  C21020795   1.856   4.743   3.909  0.1459  0.0083  0.1346
  182SLPC  H10R20796   1.768   4.809   3.899  0.1736  0.0505  0.1736
  182SLPC  C21120797   1.966   4.777   4.011  0.2294 -0.3034  0.8900
  182SLPC  H11R20798   2.066   4.744   3.975  0.0092  1.3303 -1.4298
  182SLPC  H11S20799   1.942   4.736   4.112 -1.3156  0.0301  0.6895
  182SLPC  C21220800   1.977   4.929   4.022 -0.6861  0.7192 -0.0719
  182SLPC  H12R20801   1.934   4.984   3.936  1.2230  2.4125  0.0072
  182SLPC  C21320802   2.042   4.989   4.122 -0.1607  0.6488 -0.4557
  182SLPC  H13R20803   2.051   5.099   4.124  0.3920  0.6188  2.2100
  182SLPC  C21420804   2.107   4.931   4.243 -0.6189  0.1853  0.4224
  182SLPC  H14R20805   2.211   4.968   4.257 -0.2624 -1.0019  1.0378
  182SLPC  H14S20806   2.109   4.820   4.248  2.4706  0.0913 -0.5553
  182SLPC  C21520807   2.037   4.972   4.373  0.4681 -0.8696  0.0852
  182SLPC  H15R20808   1.927   4.960   4.371  0.2259  0.9642  0.7760
  182SLPC  H15S20809   2.035   5.081   4.391 -2.2062 -1.1943  2.3874
  182SLPC  C21620810   2.108   4.929   4.500 -0.4442 -0.5954  0.2549
  182SLPC  H16R20811   2.218   4.943   4.495 -0.4611 -0.3629  0.5547
  182SLPC  H16S20812   2.102   4.818   4.497 -1.7981 -0.6698  2.9326
  182SLPC  C21720813   2.051   4.988   4.633 -0.7943  0.2914 -0.3741
  182SLPC  H17R20814   2.087   5.091   4.655  0.8699 -0.6915  2.0472
  182SLPC  H17S20815   2.111   4.928   4.705  0.6386  1.2755 -0.6817
  182SLPC  C21820816   1.904   4.967   4.666  0.5586  0.0416 -0.9668
  182SLPC  H18R20817   1.874   5.016   4.762  1.6841 -0.6234 -0.2540
  182SLPC  H18S20818   1.890   4.861   4.698 -1.4118  1.0770  2.1046
  182SLPC  H18T20819   1.828   4.987   4.588 -0.5026  1.3164  0.3265
  182SLPC   C3320820   1.293   4.076   3.537 -0.2984  0.0196 -0.3924
  182SLPC   H3X20821   1.315   4.114   3.638 -1.1143 -0.7090  0.0793
  182SLPC   H3Y20822   1.325   3.969   3.535  0.2516  0.1844 -0.4738
  182SLPC   C3420823   1.137   4.079   3.536 -0.5014 -0.0424  0.4650
  182SLPC   H4X20824   1.094   4.051   3.438  2.7029 -1.6009 -0.6028
  182SLPC   H4Y20825   1.105   4.181   3.568  0.5358  0.5976 -0.4909
  182SLPC   C3520826   1.071   3.974   3.629  0.3684 -0.7082 -0.1484
  182SLPC   H5X20827   1.118   3.875   3.608  2.0447  0.4555 -2.2487
  182SLPC   H5Y20828   0.964   3.980   3.603  0.4417 -0.8694 -0.4937
  182SLPC   C3620829   1.088   3.996   3.781  0.7066  0.9700 -0.4500
  182SLPC   H6X20830   1.042   4.094   3.808  1.9507  1.4183  0.1183
  182SLPC   H6Y20831   1.191   4.014   3.817  0.6054 -0.3768  0.5674
  182SLPC   C3720832   1.025   3.883   3.871  0.3036  0.0293  0.4498
  182SLPC   H7X20833   1.087   3.793   3.851 -2.1122 -1.0113 -3.4553
  182SLPC   H7Y20834   0.921   3.863   3.840 -0.3880  0.5778  2.2774
  182SLPC   C3820835   1.017   3.922   4.023  0.7953 -0.2513  0.3744
  182SLPC   H8X20836   0.946   3.849   4.068  1.5176 -0.7344  0.7452
  182SLPC   H8Y20837   0.986   4.026   4.045 -1.6305 -0.7676 -0.2344
  182SLPC   C3920838   1.152   3.904   4.103  0.1363 -0.0366  0.5314
  182SLPC   H9X20839   1.230   3.967   4.054  0.5901 -1.0250 -0.0348
  182SLPC   H9Y20840   1.187   3.801   4.083  1.7616  0.7266 -0.7859
  182SLPC  C31020841   1.139   3.957   4.243 -0.5002 -0.3584  0.8177
  182SLPC  H10X20842   1.042   3.930   4.288 -1.4474  1.1670 -0.1914
  182SLPC  H10Y20843   1.129   4.068   4.237 -2.6729 -0.5064  1.0705
  182SLPC  C31120844   1.251   3.909   4.340  0.2508  0.1547  0.3550
  182SLPC  H11X20845   1.342   3.966   4.312 -0.7445  0.9946 -1.3697
  182SLPC  H11Y20846   1.260   3.799   4.328 -2.0320  0.0737 -1.2686
  182SLPC  C31220847   1.219   3.953   4.485  0.1143 -0.1405  0.7115
  182SLPC  H12X20848   1.127   3.900   4.518 -0.3159  0.6948  0.9056
  182SLPC  H12Y20849   1.205   4.064   4.484  2.2453  0.1849  1.8704
  182SLPC  C31320850   1.316   3.923   4.598  0.1245 -0.8064  1.0161
  182SLPC  H13X20851   1.412   3.918   4.543 -2.4984  1.0884 -4.3926
  182SLPC  H13Y20852   1.297   3.821   4.638  1.4517 -0.6337  2.1849
  182SLPC  C31420853   1.312   4.031   4.705  0.3516  0.2211 -0.1647
  182SLPC  H14X20854   1.208   4.037   4.743  0.5133 -0.7811  0.4936
  182SLPC  H14Y20855   1.351   4.130   4.674 -0.6914  0.8829  0.5778
  182SLPC  C31520856   1.404   4.010   4.827  0.5677 -0.1315  0.7897
  182SLPC  H15X20857   1.511   4.017   4.799  1.3703 -4.4086  2.1300
  182SLPC  H15Y20858   1.391   3.907   4.866  1.6801  0.2710  2.3419
  182SLPC  C31620859   1.380   4.105   4.947 -0.6359 -0.6532 -0.5690
  182SLPC  H16X20860   1.283   4.089   4.999  0.4562  0.3853  1.9350
  182SLPC  H16Y20861   1.386   4.213   4.922  0.2992 -0.1827  1.4999
  182SLPC  C31720862   1.490   4.080   5.049 -0.2942  0.2907 -0.0763
  182SLPC  H17X20863   1.588   4.080   4.997  0.7072 -1.7409  1.6701
  182SLPC  H17Y20864   1.485   3.974   5.081  1.5187  0.5893  1.3561
  182SLPC  C31820865   1.484   4.166   5.181  0.2332  1.0102 -0.1740
  182SLPC  H18X20866   1.384   4.156   5.228  0.1553  3.1873  0.2403
  182SLPC  H18Y20867   1.497   4.274   5.157 -0.2756  1.8990  3.0381
  182SLPC  H18Z20868   1.558   4.134   5.258  0.2537  2.1757  0.3245
  183SLPC     N20869   1.867   5.495   2.536 -0.4300  0.3789 -0.0445
  183SLPC   C1320870   2.002   5.438   2.532  0.6091 -0.4179 -0.5166
  183SLPC  H13A20871   2.069   5.476   2.457  1.9280 -0.3065  0.6790
  183SLPC  H13B20872   2.047   5.468   2.626 -0.3885 -3.0193  0.9047
  183SLPC  H13C20873   2.002   5.330   2.533  1.7852 -0.4314  0.3388
  183SLPC   C1420874   1.784   5.452   2.424 -1.1964  0.8860 -0.2759
  183SLPC  H14A20875   1.685   5.494   2.433 -0.2901  3.6298 -2.1441
  183SLPC  H14B20876   1.827   5.480   2.330 -0.6745  0.7219 -0.0937
  183SLPC  H14C20877   1.770   5.345   2.422 -0.7104  0.8080  0.1970
  183SLPC   C1520878   1.874   5.647   2.534  0.3127 -0.3752  0.0826
  183SLPC  H15A20879   1.921   5.684   2.444 -1.0095 -0.3245 -0.6100
  183SLPC  H15B20880   1.773   5.687   2.537  0.1616 -0.7999  1.0506
  183SLPC  H15C20881   1.931   5.689   2.616  1.0966  0.1964 -0.7401
  183SLPC   C1220882   1.792   5.440   2.661 -0.2650 -0.5962  0.3142
  183SLPC  H12A20883   1.771   5.338   2.631  0.3171 -0.7185  0.3073
  183SLPC  H12B20884   1.700   5.494   2.674 -0.3776 -0.4673 -0.9501
  183SLPC   C1120885   1.881   5.439   2.788 -0.0814 -0.1453  0.1708
  183SLPC  H11A20886   1.961   5.365   2.767 -0.5253 -0.4955 -0.3306
  183SLPC  H11B20887   1.818   5.393   2.866 -1.4614 -0.4040 -1.0580
  183SLPC     P20888   2.063   5.583   2.893  0.3812  0.2654 -0.5123
  183SLPC   O1320889   2.166   5.546   2.795 -0.3718  0.1163 -0.1652
  183SLPC   O1420890   2.084   5.714   2.955 -0.0633 -0.1140  0.1337
  183SLPC   O1220891   1.924   5.574   2.817 -0.4377  0.4881 -0.4749
  183SLPC   O1120892   2.050   5.464   3.001 -0.2508 -0.4396  0.6235
  183SLPC    C120893   1.970   5.470   3.114 -0.7364  0.2129 -0.5851
  183SLPC    HA20894   1.878   5.529   3.098 -1.4265  0.0168  2.1015
  183SLPC    HB20895   1.922   5.372   3.132 -0.6521  0.6112  2.3050
  183SLPC    C220896   2.047   5.535   3.240  0.3557  0.2405 -0.1725
  183SLPC    HS20897   2.081   5.637   3.212  1.8114  0.4342  2.1242
  183SLPC   O2120898   2.161   5.446   3.260 -0.0079  0.1029 -0.1030
  183SLPC   C2120899   2.268   5.495   3.314  0.7484  0.9613  0.3455
  183SLPC   O2220900   2.290   5.614   3.322  0.3731  0.4694 -0.1404
  183SLPC   C2220901   2.343   5.382   3.377 -0.6647  0.2247  1.0096
  183SLPC   H2R20902   2.378   5.316   3.295  0.3290  1.6500  0.2337
  183SLPC   H2S20903   2.442   5.428   3.400 -1.6034  1.7707  2.1511
  183SLPC    C320904   1.957   5.538   3.362 -0.6642  0.2856  0.2352
  183SLPC    HX20905   1.911   5.438   3.375 -2.2732  0.8722 -0.6300
  183SLPC    HY20906   1.879   5.612   3.334  0.2800  1.0522 -0.4322
  183SLPC   O3120907   2.031   5.585   3.474  0.9819  0.1476  0.2097
  183SLPC   C3120908   1.957   5.613   3.582  0.4264 -0.6249  0.5064
  183SLPC   O3220909   1.832   5.610   3.586  0.5650  0.1322  0.3671
  183SLPC   C3220910   2.050   5.647   3.695  0.6541  0.4825 -0.2554
  183SLPC   H2X20911   2.073   5.755   3.704  1.4413  0.2158  1.3499
  183SLPC   H2Y20912   2.152   5.621   3.660  0.4033 -0.0149 -0.6457
  183SLPC   C2320913   2.294   5.311   3.493 -0.1202  0.3300  0.1287
  183SLPC   H3R20914   2.238   5.218   3.470 -1.4431  1.5173 -1.7966
  183SLPC   H3S20915   2.224   5.385   3.538  0.4132  1.2782 -0.5719
  183SLPC   C2420916   2.394   5.264   3.597 -0.1776 -0.5370 -0.2833
  183SLPC   H4R20917   2.441   5.358   3.634 -1.6676  0.5891 -1.1074
  183SLPC   H4S20918   2.473   5.204   3.548  1.4352  3.7474 -3.5339
  183SLPC   C2520919   2.318   5.188   3.710 -0.5887 -0.3082  0.3038
  183SLPC   H5R20920   2.383   5.113   3.761 -0.6524  0.7758  2.0787
  183SLPC   H5S20921   2.237   5.125   3.668  0.8332 -0.9751 -1.5781
  183SLPC   C2620922   2.274   5.286   3.818 -0.1385  0.3826 -0.2333
  183SLPC   H6R20923   2.183   5.245   3.866  0.4692  2.0778  2.5686
  183SLPC   H6S20924   2.251   5.390   3.785  1.5106  1.5032  1.8425
  183SLPC   C2720925   2.371   5.300   3.930 -0.3633  0.3253 -0.2096
  183SLPC   H7R20926   2.353   5.394   3.987  0.3314  0.4672 -0.2138
  183SLPC   H7S20927   2.472   5.329   3.894  0.1046 -0.8041  0.1619
  183SLPC   C2820928   2.380   5.179   4.020  0.4963  0.7307 -0.4896
  183SLPC   H8R20929   2.382   5.075   3.980  0.7950  0.7591 -0.5515
  183SLPC   H8S20930   2.293   5.177   4.088  1.3142  1.8678  0.6367
  183SLPC   C2920931   2.510   5.190   4.098 -0.0379  0.2041  0.0294
  183SLPC   H9R20932   2.597   5.186   4.031  1.1514 -0.7556  1.5821
  183SLPC  C21020933   2.522   5.222   4.224  0.4675  0.1160 -0.5390
  183SLPC  H10R20934   2.624   5.239   4.263  0.6933  0.0290 -1.0911
  183SLPC  C21120935   2.418   5.272   4.322 -0.2410 -0.4583  0.5283
  183SLPC  H11R20936   2.315   5.236   4.299 -0.8397  1.3904  0.1263
  183SLPC  H11S20937   2.418   5.382   4.310  0.9388 -0.4211  0.7282
  183SLPC  C21220938   2.442   5.218   4.460 -0.5237 -0.1665  0.7058
  183SLPC  H12R20939   2.427   5.110   4.477 -3.6006  0.0076 -0.2321
  183SLPC  C21320940   2.464   5.286   4.576  0.2089 -0.3177  0.2138
  183SLPC  H13R20941   2.470   5.225   4.667 -1.3731 -4.4414 -2.1735
  183SLPC  C21420942   2.480   5.434   4.592  0.3506 -0.7385  0.2983
  183SLPC  H14R20943   2.466   5.468   4.697  1.5249  0.6526  0.0450
  183SLPC  H14S20944   2.396   5.475   4.532  0.5454 -2.4641 -1.2285
  183SLPC  C21520945   2.617   5.492   4.540  0.7707 -0.7823  0.5824
  183SLPC  H15R20946   2.612   5.603   4.548 -1.0424 -0.8393  0.7597
  183SLPC  H15S20947   2.603   5.468   4.433 -2.2871  0.4207  0.5814
  183SLPC  C21620948   2.741   5.441   4.605 -0.2109  0.5461  0.4284
  183SLPC  H16R20949   2.832   5.482   4.555  0.8705  1.2829  2.8316
  183SLPC  H16S20950   2.741   5.333   4.579 -0.4471  0.3784  1.1142
  183SLPC  C21720951   2.738   5.457   4.760  0.2579  0.1706  0.8284
  183SLPC  H17R20952   2.647   5.418   4.809 -0.2936  1.8183  1.1891
  183SLPC  H17S20953   2.763   5.564   4.777  1.1542  0.0592  0.2964
  183SLPC  C21820954   2.857   5.382   4.830  0.4047  0.6713 -0.3776
  183SLPC  H18R20955   2.832   5.370   4.937 -0.5138  0.7995 -0.5719
  183SLPC  H18S20956   2.940   5.456   4.829 -0.7841  2.0971  1.1342
  183SLPC  H18T20957   2.891   5.282   4.794  0.6802 -0.6838  3.2017
  183SLPC   C3320958   2.008   5.576   3.832  0.0064 -0.5566 -0.1555
  183SLPC   H3X20959   1.999   5.466   3.822  0.8931 -0.5215 -1.4691
  183SLPC   H3Y20960   1.904   5.600   3.864 -0.8248  0.2946 -3.1324
  183SLPC   C3420961   2.116   5.603   3.940 -0.3044 -0.1089  0.6517
  183SLPC   H4X20962   2.131   5.713   3.942 -0.9071  0.0024 -0.3787
  183SLPC   H4Y20963   2.210   5.550   3.913  0.1315  0.3813  1.1904
  183SLPC   C3520964   2.075   5.562   4.082  0.7382  0.6140  0.2282
  183SLPC   H5X20965   1.982   5.616   4.110 -1.6081 -1.8412 -2.1251
  183SLPC   H5Y20966   2.155   5.595   4.150  0.4862  2.9437 -0.5257
  183SLPC   C3620967   2.043   5.411   4.089 -0.2831  0.0690  0.0793
  183SLPC   H6X20968   2.142   5.360   4.085 -0.0710  0.3747  0.9969
  183SLPC   H6Y20969   1.970   5.392   4.008 -1.0756  3.1858 -0.0887
  183SLPC   C3720970   1.984   5.363   4.229  0.0257 -0.6951 -0.5278
  183SLPC   H7X20971   1.991   5.252   4.232  0.9160 -0.6312  0.3226
  183SLPC   H7Y20972   1.877   5.391   4.239  0.0569 -0.3523 -1.0824
  183SLPC   C3820973   2.068   5.417   4.352  0.2461  1.0874  0.9054
  183SLPC   H8X20974   2.128   5.511   4.348 -0.4879  1.5362  0.1047
  183SLPC   H8Y20975   2.153   5.347   4.365 -0.3809 -0.6819 -2.9777
  183SLPC   C3920976   1.994   5.413   4.485  0.1649  0.4798  0.2647
  183SLPC   H9X20977   1.915   5.334   4.480  0.1187  0.5332  0.1535
  183SLPC   H9Y20978   1.941   5.510   4.491  0.8096  0.8211  0.4863
  183SLPC  C31020979   2.094   5.400   4.599 -0.5905 -0.0981  0.5746
  183SLPC  H10X20980   2.177   5.471   4.582 -0.3665 -0.6635 -0.8325
  183SLPC  H10Y20981   2.146   5.301   4.595 -0.9958 -0.4351  2.4264
  183SLPC  C31120982   2.038   5.399   4.740 -0.1229  0.3742  0.1475
  183SLPC  H11X20983   1.987   5.302   4.760 -4.3464  2.6062  1.3708
  183SLPC  H11Y20984   1.956   5.472   4.755  0.4235  0.8521  0.8253
  183SLPC  C31220985   2.135   5.447   4.853  0.1248 -0.2088  0.2620
  183SLPC  H12X20986   2.175   5.548   4.830 -1.2613  0.3688  0.2839
  183SLPC  H12Y20987   2.227   5.385   4.847  1.6471  1.9701 -0.2504
  183SLPC  C31320988   2.060   5.460   4.990  0.0284 -0.0287 -0.1791
  183SLPC  H13X20989   2.047   5.358   5.034 -2.6192 -0.1272 -1.0740
  183SLPC  H13Y20990   1.956   5.497   4.979  0.0520  0.5412  1.3038
  183SLPC  C31420991   2.141   5.548   5.079 -0.0819 -0.4344 -0.4433
  183SLPC  H14X20992   2.091   5.568   5.176  1.6187 -0.1189  0.4179
  183SLPC  H14Y20993   2.155   5.650   5.036  0.6168 -0.4598 -0.2953
  183SLPC  C31520994   2.288   5.505   5.104  0.1211  0.7966  0.2036
  183SLPC  H15X20995   2.347   5.588   5.148 -2.2955  2.2881  0.8192
  183SLPC  H15Y20996   2.335   5.480   5.006 -0.9664  0.5920 -0.2803
  183SLPC  C31620997   2.289   5.375   5.199 -0.7309  0.4251  0.0270
  183SLPC  H16X20998   2.212   5.306   5.159  0.5268 -1.9471  1.4345
  183SLPC  H16Y20999   2.264   5.397   5.305 -0.0985 -0.7745  0.4526
  183SLPC  C31721000   2.410   5.286   5.205 -0.3340 -0.2683 -0.5045
  183SLPC  H17X21001   2.380   5.187   5.243 -1.6034  0.3309  0.1123
  183SLPC  H17Y21002   2.476   5.335   5.280 -0.1199 -0.1953 -0.7367
  183SLPC  C31821003   2.489   5.274   5.076  0.7675 -0.1595  0.3154
  183SLPC  H18X21004   2.421   5.238   4.996  0.9085  1.3932 -0.5516
  183SLPC  H18Y21005   2.579   5.209   5.079 -0.0858 -1.5041 -1.3615
  183SLPC  H18Z21006   2.536   5.372   5.050  1.1087 -0.3115  0.3598
  184SLPC     N21007   1.574   0.170   3.171 -0.0663 -0.1858  0.6452
  184SLPC   C1321008   1.462   0.075   3.165  0.2299  0.1453  1.0693
  184SLPC  H13A21009   1.404   0.085   3.256 -0.2542  1.2409  0.6489
  184SLPC  H13B21010   1.389   0.098   3.090 -1.9566  1.7040  3.4872
  184SLPC  H13C21011   1.498  -0.027   3.158  0.4314  0.2978 -0.3755
  184SLPC   C1421012   1.517   0.311   3.189 -0.5307 -0.5747  0.0056
  184SLPC  H14A21013   1.456   0.341   3.105  0.4610 -0.3354 -0.6473
  184SLPC  H14B21014   1.465   0.319   3.283  0.0373  0.4106  0.2548
  184SLPC  H14C21015   1.595   0.385   3.204 -0.2149 -1.4896  4.0900
  184SLPC   C1521016   1.651   0.165   3.043  0.0953  0.3659  0.2445
  184SLPC  H15A21017   1.672   0.064   3.010  0.9129  0.0570  1.6593
  184SLPC  H15B21018   1.604   0.212   2.957 -0.5015  0.5338  0.6561
  184SLPC  H15C21019   1.749   0.207   3.063  0.0190  1.1032 -0.8287
  184SLPC   C1221020   1.661   0.138   3.296 -0.8799 -0.1567  0.1433
  184SLPC  H12A21021   1.687   0.034   3.285  1.2222  0.4338 -0.9087
  184SLPC  H12B21022   1.605   0.155   3.388  0.3732  2.2410  0.5501
  184SLPC   C1121023   1.797   0.206   3.300  0.0482  0.2733 -0.3700
  184SLPC  H11A21024   1.838   0.215   3.403 -0.4339  1.0489 -0.2321
  184SLPC  H11B21025   1.769   0.310   3.272 -1.2078 -0.4651 -1.9819
  184SLPC     P21026   2.045   0.152   3.205  0.3552 -0.1179  0.4442
  184SLPC   O1321027   2.088   0.007   3.186  0.6343  1.0455 -0.1470
  184SLPC   O1421028   2.106   0.255   3.117 -0.0241 -0.0314  0.6136
  184SLPC   O1221029   1.890   0.160   3.204  0.0108  0.4345  0.4030
  184SLPC   O1121030   2.083   0.190   3.348 -0.6966  0.2427 -0.4927
  184SLPC    C121031   2.091   0.319   3.398 -0.1071 -0.1344 -1.0725
  184SLPC    HA21032   2.181   0.376   3.366  0.0665  0.2999  0.1386
  184SLPC    HB21033   2.013   0.389   3.360 -0.9781  1.0189  2.4549
  184SLPC    C221034   2.090   0.319   3.551  0.0217  0.4510  0.0525
  184SLPC    HS21035   2.184   0.265   3.574 -1.0212 -0.6131  2.0470
  184SLPC   O2121036   1.976   0.249   3.599  0.2030  0.3571  0.0886
  184SLPC   C2121037   1.977   0.190   3.713 -0.6723  0.2847 -0.5232
  184SLPC   O2221038   2.075   0.168   3.782  0.2548 -0.1945  0.4934
  184SLPC   C2221039   1.832   0.154   3.758 -0.5950 -0.2328 -0.0655
  184SLPC   H2R21040   1.762   0.241   3.760  0.2592  0.4978 -0.9868
  184SLPC   H2S21041   1.789   0.081   3.686 -3.8745  1.1352  0.3251
  184SLPC    C321042   2.099   0.459   3.598  0.3769  0.2125 -0.2719
  184SLPC    HX21043   2.004   0.504   3.562 -0.1616  0.0234  0.8560
  184SLPC    HY21044   2.177   0.517   3.545 -0.3048 -0.3729 -1.9952
  184SLPC   O3121045   2.104   0.463   3.737  0.3165  0.6486  0.3324
  184SLPC   C3121046   2.222   0.431   3.799 -0.6272 -0.4821  0.1177
  184SLPC   O3221047   2.330   0.415   3.741 -0.6066 -0.0124 -0.4118
  184SLPC   C3221048   2.201   0.424   3.954  0.0564 -0.2356 -0.0557
  184SLPC   H2X21049   2.299   0.399   4.001 -0.2360  0.2703  0.8408
  184SLPC   H2Y21050   2.117   0.356   3.980 -1.3733  1.6395  0.4141
  184SLPC   C2321051   1.832   0.084   3.898  0.5608  0.1074 -0.4424
  184SLPC   H3R21052   1.870   0.152   3.977  1.7784  0.6031 -1.4231
  184SLPC   H3S21053   1.905   0.001   3.896  0.4436  0.0172 -1.7796
  184SLPC   C2421054   1.687   0.037   3.937 -0.4530  0.1887  0.6054
  184SLPC   H4R21055   1.664  -0.019   3.845  2.2797  0.5533 -0.4062
  184SLPC   H4S21056   1.625   0.129   3.942  0.9508  1.2664 -0.7529
  184SLPC   C2521057   1.687  -0.056   4.061 -0.1682  0.3627  0.3185
  184SLPC   H5R21058   1.765  -0.133   4.039 -0.5271  0.0207  0.2275
  184SLPC   H5S21059   1.586  -0.101   4.052 -0.2805  0.8401 -1.1398
  184SLPC   C2621060   1.714   0.023   4.189  0.1484  0.3851 -0.3565
  184SLPC   H6R21061   1.668   0.124   4.201  1.0899  0.6481  1.5507
  184SLPC   H6S21062   1.822   0.039   4.212  0.2593 -1.6233  0.8039
  184SLPC   C2721063   1.670  -0.054   4.318  0.3078 -0.0612 -0.3042
  184SLPC   H7R21064   1.728  -0.147   4.332  1.9233  1.0265  0.5128
  184SLPC   H7S21065   1.565  -0.084   4.296 -0.0735 -0.2225  1.5435
  184SLPC   C2821066   1.677   0.028   4.446 -0.5973 -0.0103 -0.6757
  184SLPC   H8R21067   1.612   0.117   4.457 -2.7400 -1.6372  0.8412
  184SLPC   H8S21068   1.785   0.049   4.457 -0.4643 -0.1306 -1.6926
  184SLPC   C2921069   1.629  -0.064   4.553  0.0754 -0.1303 -0.5464
  184SLPC   H9R21070   1.520  -0.075   4.550  0.1459 -0.7108 -1.2759
  184SLPC  C21021071   1.704  -0.117   4.653 -0.1324 -0.5492  0.1507
  184SLPC  H10R21072   1.664  -0.185   4.729 -0.5162  0.8171  1.1950
  184SLPC  C21121073   1.854  -0.102   4.669 -0.2242  0.9073 -1.1540
  184SLPC  H11R21074   1.895  -0.110   4.566 -1.3170 -3.4509 -1.4524
  184SLPC  H11S21075   1.899  -0.192   4.714  1.6577  1.7012 -1.3403
  184SLPC  C21221076   1.902   0.014   4.747  0.2311  0.4592 -0.0766
  184SLPC  H12R21077   1.882   0.107   4.692  1.1294  0.1888 -0.8820
  184SLPC  C21321078   1.951   0.015   4.872  0.1615 -0.3173  0.7825
  184SLPC  H13R21079   1.987   0.109   4.917 -0.7619  0.4410  0.0029
  184SLPC  C21421080   1.958  -0.113   4.955  0.2194 -0.5904 -0.0350
  184SLPC  H14R21081   2.008  -0.194   4.897  0.0319 -0.8733  0.1950
  184SLPC  H14S21082   1.854  -0.141   4.981  0.1418  0.0072  0.3119
  184SLPC  C21521083   2.048  -0.083   5.077  0.0322 -0.1689  0.3418
  184SLPC  H15R21084   2.153  -0.057   5.050  0.2462 -0.2453  1.0824
  184SLPC  H15S21085   2.061  -0.181   5.128 -2.3105 -1.0074 -0.5348
  184SLPC  C21621086   1.994   0.015   5.188  0.1716  0.0392 -0.2146
  184SLPC  H16R21087   1.896  -0.014   5.233 -0.3830  2.5656  0.3475
  184SLPC  H16S21088   1.979   0.120   5.156  0.7224 -0.2767 -1.5815
  184SLPC  C21721089   2.087   0.019   5.311 -0.0129  0.1927 -0.3377
  184SLPC  H17R21090   2.092  -0.086   5.349 -0.6026  0.2222 -0.1780
  184SLPC  H17S21091   2.026   0.072   5.387  0.2751 -0.1227  0.1187
  184SLPC  C21821092   2.232   0.086   5.311 -0.3380  0.6594  0.3874
  184SLPC  H18R21093   2.233   0.177   5.247 -1.9222 -0.6675 -1.6861
  184SLPC  H18S21094   2.295   0.000   5.278 -0.2299  0.4438  1.1367
  184SLPC  H18T21095   2.255   0.115   5.415 -2.1834  3.2492  0.1735
  184SLPC   C3321096   2.154   0.565   4.002 -0.0502 -0.3018  0.6131
  184SLPC   H3X21097   2.051   0.585   3.963  0.7142  2.0539 -0.3605
  184SLPC   H3Y21098   2.232   0.642   3.984 -3.3207  2.6638 -2.6659
  184SLPC   C3421099   2.135   0.565   4.154 -0.3648  0.7930  0.2235
  184SLPC   H4X21100   2.223   0.521   4.205 -1.4601 -2.1951 -0.2812
  184SLPC   H4Y21101   2.054   0.490   4.164  0.7172 -0.5214 -0.5984
  184SLPC   C3521102   2.098   0.698   4.215  0.0691 -0.0453 -0.1034
  184SLPC   H5X21103   1.989   0.720   4.214  0.0354 -0.0815  1.3810
  184SLPC   H5Y21104   2.147   0.778   4.157 -0.2471 -0.0526 -0.3857
  184SLPC   C3621105   2.132   0.707   4.367 -0.1765  0.4722  0.6195
  184SLPC   H6X21106   2.239   0.738   4.373 -0.4524  1.3658  1.0145
  184SLPC   H6Y21107   2.117   0.607   4.414 -1.4848 -0.3206 -1.3667
  184SLPC   C3721108   2.057   0.822   4.440  0.3472  0.0699  0.3127
  184SLPC   H7X21109   1.950   0.792   4.450  0.5227  0.1146  2.8219
  184SLPC   H7Y21110   2.045   0.917   4.383 -0.4930  1.3771  2.5466
  184SLPC   C3821111   2.102   0.847   4.583 -0.4642 -0.0406  0.1833
  184SLPC   H8X21112   2.166   0.937   4.588 -1.3267  0.6014 -0.0615
  184SLPC   H8Y21113   2.154   0.758   4.624 -0.9331 -0.0903  0.6884
  184SLPC   C3921114   1.987   0.878   4.685  0.1441 -0.2249  1.0153
  184SLPC   H9X21115   1.933   0.782   4.702  0.6367 -0.9545 -1.1611
  184SLPC   H9Y21116   1.923   0.959   4.646  1.2635  0.2141  0.0252
  184SLPC  C31021117   2.038   0.909   4.825  0.0761  0.0479 -0.3665
  184SLPC  H10X21118   2.119   0.984   4.817  2.1472 -1.8221  1.6027
  184SLPC  H10Y21119   2.086   0.817   4.865  0.1259  0.1926 -0.0973
  184SLPC  C31121120   1.929   0.962   4.920  0.2916 -0.2090 -0.3083
  184SLPC  H11X21121   1.865   1.035   4.866  1.0225  0.6535 -0.0301
  184SLPC  H11Y21122   1.964   1.019   5.009 -2.3175 -2.2244  2.2401
  184SLPC  C31221123   1.838   0.849   4.975  1.1222  0.8499  0.0050
  184SLPC  H12X21124   1.897   0.791   5.049 -0.0051 -0.6747 -0.2474
  184SLPC  H12Y21125   1.801   0.781   4.895  1.0700 -0.0219  0.7568
  184SLPC  C31321126   1.719   0.899   5.064 -0.9428  0.1337  0.0987
  184SLPC  H13X21127   1.658   0.810   5.090  0.3047 -0.8091 -0.0671
  184SLPC  H13Y21128   1.673   0.981   5.006  1.2652  1.2453 -0.1977
  184SLPC  C31421129   1.764   0.962   5.199  0.2528  0.1677 -0.0284
  184SLPC  H14X21130   1.811   1.058   5.170 -1.0674  0.5935 -0.8325
  184SLPC  H14Y21131   1.831   0.897   5.259 -1.4511 -1.4110  0.2339
  184SLPC  C31521132   1.644   0.991   5.291 -0.2353 -1.0301 -0.1841
  184SLPC  H15X21133   1.686   1.033   5.385 -1.6962  1.3428 -0.4925
  184SLPC  H15Y21134   1.602   0.892   5.319  2.1101 -2.2545 -0.7940
  184SLPC  C31621135   1.541   1.083   5.238  0.6880 -0.1327  0.1039
  184SLPC  H16X21136   1.512   1.052   5.136 -0.1996  1.4366 -0.1586
  184SLPC  H16Y21137   1.588   1.184   5.232 -0.8110  0.6522  0.7943
  184SLPC  C31721138   1.415   1.100   5.320 -0.1778  0.7038 -0.1103
  184SLPC  H17X21139   1.364   1.003   5.339  1.8847 -0.1352  1.4990
  184SLPC  H17Y21140   1.344   1.165   5.264 -1.7344 -0.9294 -0.1324
  184SLPC  C31821141   1.436   1.174   5.451  0.0367  0.2342 -0.2491
  184SLPC  H18X21142   1.512   1.255   5.449 -0.8720  1.1043 -0.9356
  184SLPC  H18Y21143   1.458   1.106   5.536  0.2083  1.7865  1.0088
  184SLPC  H18Z21144   1.348   1.232   5.488  0.9207  0.9889  0.7506
  185POPC     N21145   5.178   1.362   7.651 -0.2027  0.5857  0.0158
  185POPC   C1221146   5.207   1.503   7.618  0.1479  0.2378  0.2018
  185POPC  H12A21147   5.122   1.544   7.565  0.0899 -2.0410 -1.6239
  185POPC  H12B21148   5.290   1.496   7.549  0.7611  2.0414  0.6873
  185POPC   C1321149   5.302   1.292   7.715  0.5088 -0.2948  0.1226
  185POPC  H13A21150   5.387   1.326   7.658  0.7650 -0.3044  0.4996
  185POPC  H13B21151   5.314   1.332   7.814  0.1012 -0.5144  0.2598
  185POPC  H13C21152   5.290   1.185   7.723  0.1526 -0.1217  2.5272
  185POPC   C1421153   5.075   1.341   7.744  0.0142  0.5850  0.4098
  185POPC  H14A21154   4.984   1.394   7.719 -0.1365  0.5888  0.9612
  185POPC  H14B21155   5.044   1.238   7.755 -2.0832  1.2451  1.2006
  185POPC  H14C21156   5.105   1.374   7.842 -2.1625  1.2129  0.9324
  185POPC   C1521157   5.138   1.294   7.520  0.3948 -0.3114  0.1366
  185POPC  H15A21158   5.057   1.342   7.467 -1.5859 -2.0321  1.4462
  185POPC  H15B21159   5.099   1.195   7.537 -0.9929  0.3473  1.0279
  185POPC  H15C21160   5.227   1.291   7.459  0.1031 -0.0445 -0.3102
  185POPC   C1121161   5.236   1.585   7.740  0.0824  0.2223  0.6095
  185POPC  H11A21162   5.298   1.532   7.814 -1.8860 -1.5803  1.0527
  185POPC  H11B21163   5.148   1.603   7.805 -1.0736 -1.6196 -0.3556
  185POPC     P21164   5.452   1.713   7.647  0.3850  0.3818 -0.6834
  185POPC   O1321165   5.533   1.664   7.757  0.1613  0.2773 -1.2034
  185POPC   O1421166   5.491   1.842   7.598 -0.3887 -0.2850 -0.2504
  185POPC   O1221167   5.298   1.707   7.687 -0.5386 -0.4325 -0.1569
  185POPC   O1121168   5.462   1.600   7.540 -0.2851  0.0552  0.1293
  185POPC    C121169   5.597   1.574   7.505  0.3130  0.4684 -0.9122
  185POPC    HA21170   5.635   1.497   7.576  1.2968 -0.4624 -2.3813
  185POPC    HB21171   5.663   1.664   7.507  2.2537 -0.8577  1.7081
  185POPC    C221172   5.611   1.491   7.374 -0.0414 -0.9058 -0.0337
  185POPC    HS21173   5.705   1.432   7.375 -0.1814 -1.2698  3.0846
  185POPC   O2121174   5.606   1.567   7.252  0.5619 -0.0115  0.0196
  185POPC   C2121175   5.713   1.643   7.232 -0.5018 -0.2623 -0.4623
  185POPC   O2221176   5.812   1.645   7.305  0.4259  0.1458 -0.4247
  185POPC   C2221177   5.694   1.737   7.116 -1.1249 -0.5183  0.1379
  185POPC   H2R21178   5.774   1.812   7.133 -2.2453  0.5317  0.9844
  185POPC   H2S21179   5.599   1.792   7.132 -0.5882  0.9645 -1.4321
  185POPC    C321180   5.496   1.389   7.379 -0.7686  0.2593 -0.2220
  185POPC    HX21181   5.398   1.440   7.384 -0.8511 -0.0197  2.2062
  185POPC    HY21182   5.503   1.337   7.477 -1.2664  0.4936 -0.0591
  185POPC   O3121183   5.512   1.297   7.276  1.0231 -0.2633 -0.0841
  185POPC   C3121184   5.420   1.203   7.283 -0.7213 -0.0055  0.1457
  185POPC   O3221185   5.354   1.170   7.381  0.3961 -0.7322 -0.6983
  185POPC   C3221186   5.417   1.140   7.152 -0.3606 -0.2287  0.2392
  185POPC   H2X21187   5.488   1.055   7.163  0.0042 -0.0156 -0.4418
  185POPC   H2Y21188   5.464   1.203   7.074 -0.2527  0.4727  0.8539
  185POPC   C2321189   5.709   1.680   6.977  0.0027  0.4739 -1.0261
  185POPC   H3R21190   5.613   1.630   6.952 -0.3176  0.4562  0.1700
  185POPC   H3S21191   5.796   1.612   6.979  1.5355  2.3325  1.7764
  185POPC   C2421192   5.743   1.780   6.868  0.6491  0.6589 -0.0739
  185POPC   H4R21193   5.840   1.829   6.891 -0.1695  2.5419 -0.4257
  185POPC   H4S21194   5.662   1.856   6.876 -0.5781 -0.5862 -0.2481
  185POPC   C2521195   5.748   1.718   6.725 -0.1679  0.4195  0.5264
  185POPC   H5R21196   5.644   1.719   6.688 -0.2503  1.6073  0.7509
  185POPC   H5S21197   5.801   1.621   6.739  1.1973  1.0551 -0.0553
  185POPC   C2621198   5.814   1.806   6.618 -0.0477 -0.1321  0.7614
  185POPC   H6R21199   5.922   1.811   6.643  0.2453  1.7611 -0.6688
  185POPC   H6S21200   5.779   1.911   6.613  0.2199 -0.0504  0.6080
  185POPC   C2721201   5.775   1.746   6.480  0.1589 -0.2684  0.1193
  185POPC   H7R21202   5.665   1.737   6.469  0.2418 -0.4264 -0.5747
  185POPC   H7S21203   5.821   1.645   6.486 -2.4217 -1.4716  1.1811
  185POPC   C2821204   5.832   1.829   6.368 -0.4117 -0.0310 -0.2633
  185POPC   H8R21205   5.940   1.829   6.394 -0.3009  0.6834 -0.6888
  185POPC   H8S21206   5.788   1.930   6.377  1.2677  0.6499  0.7355
  185POPC   C2921207   5.810   1.769   6.232 -0.4806  0.3698 -0.3938
  185POPC   H9121208   5.791   1.660   6.236  0.8442  0.1511  0.9823
  185POPC  C21021209   5.794   1.833   6.118 -0.8053 -0.4218  0.0790
  185POPC  H10121210   5.769   1.781   6.024 -2.4111 -1.6422  1.1208
  185POPC  C21121211   5.807   1.986   6.109 -0.5971 -0.2825 -0.4043
  185POPC  H11R21212   5.821   2.039   6.205 -2.2984 -1.6289  0.6345
  185POPC  H11S21213   5.714   2.034   6.070  0.2243  1.2248 -0.5997
  185POPC  C21221214   5.920   2.026   6.003 -0.0778 -0.4128 -0.0997
  185POPC  H12R21215   6.013   1.969   6.025 -0.1156 -0.8865 -1.1140
  185POPC  H12S21216   5.950   2.130   6.029  2.4720 -0.8907 -0.8132
  185POPC  C21321217   5.884   2.023   5.852 -0.1042 -0.0566 -0.2844
  185POPC  H13R21218   5.828   1.929   5.830 -1.0909  0.7908 -1.5715
  185POPC  H13S21219   5.984   2.016   5.803  0.9118  0.8228  1.5963
  185POPC  C21421220   5.795   2.131   5.801 -0.2497 -0.7902  0.9721
  185POPC  H14R21221   5.712   2.160   5.869  0.7888  1.2276  1.4470
  185POPC  H14S21222   5.738   2.085   5.717 -0.5229 -2.2102  1.8967
  185POPC  C21521223   5.878   2.246   5.736  0.2961  0.1731  0.9671
  185POPC  H15R21224   5.952   2.204   5.665 -0.0199 -1.8172  1.7506
  185POPC  H15S21225   5.938   2.297   5.814 -0.2390 -0.4937  1.8311
  185POPC  C21621226   5.799   2.356   5.660 -0.5179  0.0366  1.3683
  185POPC  H16R21227   5.707   2.371   5.722 -0.8035 -1.8011  1.4705
  185POPC  H16S21228   5.766   2.320   5.560 -0.8104  0.6618  1.2345
  185POPC  C21721229   5.876   2.490   5.635 -0.0569  0.1288  0.1318
  185POPC  H17R21230   5.962   2.467   5.569 -1.4591 -0.2577 -1.6154
  185POPC  H17S21231   5.917   2.524   5.733  0.1147 -0.2179  0.1823
  185POPC  C21821232   5.793   2.595   5.569  0.5279  1.0222 -0.2523
  185POPC  H18R21233   5.706   2.634   5.625 -0.3455 -1.1320 -0.0394
  185POPC  H18S21234   5.752   2.558   5.472  0.3889 -0.3779  0.3211
  185POPC  H18T21235   5.862   2.679   5.544  0.2779  1.0271 -0.9688
  185POPC   C3321236   5.286   1.097   7.095 -0.8593  0.2067 -0.4154
  185POPC   H3X21237   5.236   1.191   7.063  1.3996  0.8245 -2.3252
  185POPC   H3Y21238   5.227   1.048   7.176  2.6150 -0.1148  2.1224
  185POPC   C3421239   5.285   0.996   6.983  0.5017  0.4751 -0.1113
  185POPC   H4X21240   5.181   0.991   6.945  0.2321  0.5917  0.6063
  185POPC   H4Y21241   5.320   0.900   7.027  2.1163  1.3719  0.6209
  185POPC   C3521242   5.382   1.019   6.865 -0.1674 -0.0843  0.1381
  185POPC   H5X21243   5.478   1.029   6.920 -0.8017 -0.4527  1.3307
  185POPC   H5Y21244   5.347   1.110   6.810 -1.0263 -1.1595 -1.1580
  185POPC   C3621245   5.382   0.907   6.764 -0.2457 -0.0308  0.3453
  185POPC   H6X21246   5.290   0.847   6.782 -0.3649  0.4490  1.4065
  185POPC   H6Y21247   5.469   0.842   6.788  0.3640  0.7098  0.1579
  185POPC   C3721248   5.391   0.956   6.618  0.2573 -0.0794  0.6280
  185POPC   H7X21249   5.478   1.024   6.608 -0.9190  1.2984 -0.5842
  185POPC   H7Y21250   5.300   1.006   6.579  0.4480  0.7773  1.2530
  185POPC   C3821251   5.427   0.844   6.511 -0.2438 -0.1062 -0.0710
  185POPC   H8X21252   5.344   0.793   6.457  0.2936 -0.4451 -0.5903
  185POPC   H8Y21253   5.481   0.762   6.562 -0.1351 -1.2413 -1.8971
  185POPC   C3921254   5.523   0.897   6.402  0.1064  0.0791  0.5103
  185POPC   H9X21255   5.618   0.940   6.442 -0.0335  1.1882 -0.2796
  185POPC   H9Y21256   5.469   0.973   6.341  0.2526 -0.8301 -0.8059
  185POPC  C31021257   5.572   0.790   6.294  0.2007  0.4758 -0.5319
  185POPC  H10X21258   5.488   0.768   6.224 -0.8491  1.8079  0.2684
  185POPC  H10Y21259   5.600   0.694   6.342  1.1513  0.4396 -1.1320
  185POPC  C31121260   5.686   0.828   6.202 -0.2882 -0.7710  0.5006
  185POPC  H11X21261   5.778   0.855   6.258  0.9041  0.9155 -2.0730
  185POPC  H11Y21262   5.652   0.917   6.145 -0.5103 -1.9670 -1.3104
  185POPC  C31221263   5.728   0.719   6.102  0.5050  0.5144 -0.0268
  185POPC  H12X21264   5.755   0.634   6.169  0.2236  1.3709  1.1916
  185POPC  H12Y21265   5.823   0.739   6.048 -0.0249  1.2004 -0.7139
  185POPC  C31321266   5.620   0.665   5.999 -0.1255  0.5863  0.8005
  185POPC  H13X21267   5.593   0.746   5.928  2.2673  0.3057 -0.5454
  185POPC  H13Y21268   5.524   0.635   6.046 -1.5308  3.2751 -0.1064
  185POPC  C31421269   5.669   0.544   5.913 -0.3126 -0.4556 -0.2512
  185POPC  H14X21270   5.766   0.573   5.868  0.1066  0.7142  1.3158
  185POPC  H14Y21271   5.594   0.513   5.837  1.8376 -3.4580 -1.3301
  185POPC  C31521272   5.688   0.423   6.002 -0.2665  0.8302 -0.6586
  185POPC  H15X21273   5.744   0.435   6.097 -1.8611  0.4750  0.3723
  185POPC  H15Y21274   5.746   0.347   5.946 -0.8339  0.1045 -0.2877
  185POPC  C31621275   5.554   0.363   6.044 -0.2664  0.1106  0.4152
  185POPC  H16X21276   5.482   0.337   5.963 -0.8193  0.7813  0.6769
  185POPC  H16Y21277   5.498   0.443   6.098  1.6425  1.3844  0.5825
  185POPC  H16Z21278   5.569   0.281   6.118 -0.3968  1.0408  1.5004
  186POPC     N21279   1.989   0.724   8.064 -0.0322  0.0604  0.0003
  186POPC   C1221280   1.974   0.871   8.004  0.0969  0.3694 -0.1098
  186POPC  H12A21281   2.039   0.877   7.918 -1.3869  0.8252 -1.2566
  186POPC  H12B21282   2.007   0.944   8.075 -0.0889 -0.7119  1.1305
  186POPC   C1321283   2.134   0.704   8.083 -0.2073  0.1774 -0.1832
  186POPC  H13A21284   2.158   0.607   8.125  0.1299  0.7991  1.0873
  186POPC  H13B21285   2.179   0.701   7.985 -2.0199 -1.7888 -1.0411
  186POPC  H13C21286   2.176   0.776   8.152 -0.9116 -1.3200  1.9091
  186POPC   C1421287   1.921   0.694   8.191 -0.2337  0.6330  0.1246
  186POPC  H14A21288   1.813   0.700   8.184 -0.3311 -1.4351 -1.3520
  186POPC  H14B21289   1.951   0.594   8.221 -0.0525  0.7889  0.4637
  186POPC  H14C21290   1.949   0.766   8.266 -0.8827  1.7412 -0.6734
  186POPC   C1521291   1.940   0.629   7.955 -0.4549  0.4895  0.0591
  186POPC  H15A21292   1.931   0.528   7.991  1.5583 -0.0207 -0.7071
  186POPC  H15B21293   2.018   0.625   7.881 -1.4375  1.7176 -1.1008
  186POPC  H15C21294   1.841   0.662   7.928 -1.5372 -1.0404  1.8984
  186POPC   C1121295   1.828   0.917   7.969 -0.3437 -0.9564 -0.4014
  186POPC  H11A21296   1.837   1.028   7.972  1.2965 -1.0834  0.6315
  186POPC  H11B21297   1.760   0.878   8.048 -1.7540  2.5189  0.2717
  186POPC     P21298   1.833   0.916   7.707  0.2050 -0.0932  0.1752
  186POPC   O1321299   1.972   0.871   7.689  0.0155  0.4576  0.0327
  186POPC   O1421300   1.808   1.066   7.692 -0.1899  0.3553  0.0121
  186POPC   O1221301   1.779   0.869   7.844 -0.2835 -0.6335  0.0639
  186POPC   O1121302   1.749   0.827   7.606  0.3091 -0.2678  0.7441
  186POPC    C121303   1.652   0.890   7.523 -0.1463 -0.6014 -0.6153
  186POPC    HA21304   1.609   0.980   7.571 -2.1667 -1.4074 -0.8253
  186POPC    HB21305   1.567   0.821   7.504 -1.2083 -0.6128  3.3844
  186POPC    C221306   1.708   0.950   7.395  0.5738 -0.6790 -0.8487
  186POPC    HS21307   1.764   1.044   7.415 -1.9677  0.8156 -0.2863
  186POPC   O2121308   1.602   0.981   7.304 -0.4379 -0.1530 -0.2644
  186POPC   C2121309   1.613   1.098   7.251  0.2728  0.3958  0.3894
  186POPC   O2221310   1.709   1.170   7.244 -0.2964  0.2749 -0.6507
  186POPC   C2221311   1.488   1.113   7.159 -0.2281 -0.2290 -0.4510
  186POPC   H2R21312   1.407   1.153   7.224  0.1902 -2.2966  1.4448
  186POPC   H2S21313   1.458   1.010   7.130  2.6404 -1.3354  0.1823
  186POPC    C321314   1.801   0.847   7.330 -0.6536 -0.6321  0.4258
  186POPC    HX21315   1.748   0.750   7.319  0.3899 -1.0242 -1.6080
  186POPC    HY21316   1.888   0.817   7.393 -0.5625  1.5418  1.4050
  186POPC   O3121317   1.845   0.886   7.193 -0.3059  0.4058  0.3540
  186POPC   C3121318   1.932   0.985   7.195 -0.9150  0.0250 -0.3687
  186POPC   O3221319   1.980   1.041   7.293 -0.3839 -0.3138 -0.5253
  186POPC   C3221320   1.977   0.998   7.056  0.2849  0.0101 -0.8073
  186POPC   H2X21321   1.893   1.046   7.003  0.9476  1.2191 -0.8086
  186POPC   H2Y21322   1.990   0.900   7.006  1.0530  1.0123 -2.6961
  186POPC   C2321323   1.504   1.197   7.035 -0.2380  0.0056 -0.3407
  186POPC   H3R21324   1.610   1.204   7.005 -0.0835 -1.5606 -0.2512
  186POPC   H3S21325   1.469   1.303   7.035  2.1253  0.8517 -1.3590
  186POPC   C2421326   1.439   1.136   6.911 -0.8942  0.1759 -0.0794
  186POPC   H4R21327   1.328   1.137   6.915 -0.8965 -1.0510  0.9189
  186POPC   H4S21328   1.461   1.027   6.912 -0.3320  0.2570  2.3817
  186POPC   C2521329   1.479   1.210   6.783 -0.6035  0.2109 -0.6026
  186POPC   H5R21330   1.590   1.211   6.774 -0.4359 -0.0273  1.0338
  186POPC   H5S21331   1.449   1.316   6.797  1.6980  0.8416 -0.0423
  186POPC   C2621332   1.416   1.155   6.662 -0.6218 -0.6195  0.7668
  186POPC   H6R21333   1.305   1.147   6.665 -0.8211  0.0231 -2.0509
  186POPC   H6S21334   1.448   1.049   6.653 -0.6906 -0.6311  0.6594
  186POPC   C2721335   1.469   1.227   6.541  0.7653 -0.4497  0.2120
  186POPC   H7R21336   1.578   1.211   6.528  0.4845 -0.7567 -2.1573
  186POPC   H7S21337   1.442   1.335   6.543 -1.0725 -0.7628 -2.2108
  186POPC   C2821338   1.413   1.164   6.409 -0.1389  0.2919 -0.9251
  186POPC   H8R21339   1.303   1.184   6.413  0.0968  1.6460 -0.5429
  186POPC   H8S21340   1.424   1.055   6.425 -2.2554 -0.0942 -1.6948
  186POPC   C2921341   1.482   1.222   6.287  0.2158 -0.3778 -0.1226
  186POPC   H9121342   1.591   1.236   6.293  0.0634  1.4009 -0.9106
  186POPC  C21021343   1.419   1.264   6.178  0.0664 -0.2305  0.3503
  186POPC  H10121344   1.488   1.310   6.105 -0.6598  0.4425  0.0598
  186POPC  C21121345   1.272   1.244   6.161 -0.3498 -0.5623 -0.0990
  186POPC  H11R21346   1.230   1.336   6.114 -0.3833  0.2252  1.4279
  186POPC  H11S21347   1.212   1.231   6.254  1.3192  0.2092  1.1336
  186POPC  C21221348   1.237   1.130   6.066  0.8213 -0.7065 -0.0263
  186POPC  H12R21349   1.133   1.093   6.067  1.6395 -3.2861 -1.4132
  186POPC  H12S21350   1.289   1.043   6.111  1.0287 -0.9999 -0.8071
  186POPC  C21321351   1.293   1.144   5.927  1.1508  0.2400 -0.1825
  186POPC  H13R21352   1.383   1.209   5.917 -1.0743  3.4113 -1.5867
  186POPC  H13S21353   1.216   1.207   5.877 -0.2060  0.8935  2.5805
  186POPC  C21421354   1.319   1.012   5.853 -0.2263  0.2973 -0.9887
  186POPC  H14R21355   1.372   0.943   5.923 -2.3242  1.1697  1.6613
  186POPC  H14S21356   1.376   1.028   5.760 -0.3340 -0.2600 -1.1535
  186POPC  C21521357   1.194   0.941   5.802  0.2401 -0.1023 -0.3566
  186POPC  H15R21358   1.111   0.986   5.859  0.7893  0.9554 -0.3607
  186POPC  H15S21359   1.193   0.832   5.826  0.9415 -0.0218  0.0650
  186POPC  C21621360   1.169   0.956   5.650  0.2853  0.1893 -0.8132
  186POPC  H16R21361   1.246   0.897   5.596 -0.0253 -1.6554  0.6350
  186POPC  H16S21362   1.183   1.063   5.625  0.8031  0.8309  1.8959
  186POPC  C21721363   1.031   0.910   5.602  0.3686 -0.2815  0.6176
  186POPC  H17R21364   0.954   0.963   5.662 -0.7162  0.2979 -1.2075
  186POPC  H17S21365   1.022   0.803   5.630 -2.3858 -0.8079 -1.7410
  186POPC  C21821366   1.009   0.932   5.450 -0.2188  0.3998  0.3349
  186POPC  H18R21367   1.006   1.042   5.439 -0.4835  0.5159  1.4108
  186POPC  H18S21368   0.915   0.900   5.400  0.8116  2.2962 -3.1384
  186POPC  H18T21369   1.092   0.891   5.389  0.3668 -0.9892  1.9646
  186POPC   C3321370   2.113   1.078   7.052  0.7384 -0.6746 -0.4374
  186POPC   H3X21371   2.169   1.054   7.144  1.7427  1.1007 -0.5373
  186POPC   H3Y21372   2.095   1.188   7.058  0.2144 -0.7388 -0.8049
  186POPC   C3421373   2.194   1.038   6.936 -0.3033 -0.3976  0.4151
  186POPC   H4X21374   2.210   0.928   6.933 -0.9716 -0.5044  0.5744
  186POPC   H4Y21375   2.295   1.080   6.956 -0.5188 -0.7920  2.6264
  186POPC   C3521376   2.140   1.079   6.797 -0.2891 -0.2706  0.1009
  186POPC   H5X21377   2.106   1.185   6.788 -1.1082 -0.5385 -0.0252
  186POPC   H5Y21378   2.042   1.029   6.782  0.6745 -2.0693 -0.5496
  186POPC   C3621379   2.224   1.021   6.686 -0.4217  0.0800  0.2014
  186POPC   H6X21380   2.226   0.911   6.699  0.0451  0.1660  0.9191
  186POPC   H6Y21381   2.325   1.066   6.696 -2.0072  3.8348  1.5524
  186POPC   C3721382   2.159   1.053   6.551 -0.1119 -0.3997  0.4708
  186POPC   H7X21383   2.146   1.162   6.538 -2.3367 -0.6066  0.6905
  186POPC   H7Y21384   2.052   1.025   6.553 -1.8038  4.9659 -0.7067
  186POPC   C3821385   2.231   0.984   6.432 -1.0677 -0.7852 -0.2645
  186POPC   H8X21386   2.337   1.000   6.462 -1.0269 -0.5307 -0.5400
  186POPC   H8Y21387   2.215   1.032   6.333  2.2293 -1.5645 -1.3329
  186POPC   C3921388   2.201   0.832   6.425  0.4478 -0.2455 -0.2433
  186POPC   H9X21389   2.093   0.808   6.411  0.9456 -2.6310 -0.5410
  186POPC   H9Y21390   2.233   0.790   6.523 -1.4142  0.2324  0.6115
  186POPC  C31021391   2.284   0.776   6.311  0.5114 -0.1449 -0.1309
  186POPC  H10X21392   2.291   0.666   6.323 -2.2172 -0.2167  1.6628
  186POPC  H10Y21393   2.387   0.818   6.310  0.2851  0.4249 -1.0281
  186POPC  C31121394   2.222   0.801   6.171  0.0186  0.0514 -0.2082
  186POPC  H11X21395   2.256   0.899   6.133  0.0808  0.4924  0.9519
  186POPC  H11Y21396   2.111   0.807   6.180  0.1133  0.9720  0.4607
  186POPC  C31221397   2.263   0.704   6.062 -0.1304  0.3948 -0.1517
  186POPC  H12X21398   2.245   0.600   6.097  0.3237  0.7809  1.2950
  186POPC  H12Y21399   2.371   0.723   6.049  0.1986 -0.5240  1.0126
  186POPC  C31321400   2.198   0.721   5.927 -0.1240  0.3100 -0.3525
  186POPC  H13X21401   2.259   0.797   5.874 -0.0152  0.6061  0.1888
  186POPC  H13Y21402   2.094   0.761   5.925  0.6687  2.8819  2.4986
  186POPC  C31421403   2.206   0.599   5.840 -0.7774  0.2708 -0.4829
  186POPC  H14X21404   2.113   0.580   5.783 -0.0541  0.9714 -1.9497
  186POPC  H14Y21405   2.225   0.506   5.899  0.6591  0.9679  0.2031
  186POPC  C31521406   2.313   0.617   5.736  0.9989  0.0486  0.3933
  186POPC  H15X21407   2.405   0.650   5.791  1.0464  0.1699  0.2417
  186POPC  H15Y21408   2.275   0.701   5.675 -0.5719  0.3666  1.7291
  186POPC  C31621409   2.345   0.495   5.648 -0.0274 -0.3588  0.6684
  186POPC  H16X21410   2.385   0.536   5.553  0.3091 -2.2093 -0.0199
  186POPC  H16Y21411   2.261   0.432   5.614 -0.1006  0.6734 -1.1682
  186POPC  H16Z21412   2.419   0.427   5.695  0.3406 -0.0009  0.6120
  187POPC     N21413   3.774   0.737   2.827  0.6491 -0.1258 -0.2421
  187POPC   C1221414   3.666   0.820   2.899  0.3893  0.2449  0.6057
  187POPC  H12A21415   3.581   0.836   2.835  0.3263 -3.0344 -0.2643
  187POPC  H12B21416   3.719   0.914   2.901  0.3049  0.4199 -2.1642
  187POPC   C1321417   3.718   0.602   2.803  0.0630  0.4389  0.5185
  187POPC  H13A21418   3.704   0.540   2.890 -1.4788 -0.8704 -0.6082
  187POPC  H13B21419   3.619   0.609   2.761 -0.2096 -2.6633  0.3623
  187POPC  H13C21420   3.783   0.545   2.737 -0.3899 -0.7527  1.0677
  187POPC   C1421421   3.804   0.801   2.694  0.2521 -0.2728  0.4682
  187POPC  H14A21422   3.882   0.745   2.645  0.5854 -0.9301  1.7131
  187POPC  H14B21423   3.717   0.800   2.630  1.7455  2.0962 -1.8138
  187POPC  H14C21424   3.841   0.902   2.700 -0.1623 -0.1150  0.4098
  187POPC   C1521425   3.899   0.736   2.900 -0.3983  0.5195  0.1181
  187POPC  H15A21426   3.890   0.683   2.993  0.8075  2.0117  1.1457
  187POPC  H15B21427   3.934   0.836   2.923  0.4797  0.4229 -0.7410
  187POPC  H15C21428   3.976   0.687   2.843  0.1632  0.9202  0.5155
  187POPC   C1121429   3.637   0.788   3.045  0.0279  0.3787  0.6289
  187POPC  H11A21430   3.582   0.872   3.093 -1.4602  0.5590 -1.3220
  187POPC  H11B21431   3.736   0.774   3.094  1.1935  0.9146 -1.4537
  187POPC     P21432   3.426   0.637   3.020  0.2281 -0.3843  0.0544
  187POPC   O1321433   3.421   0.517   2.933  0.0414 -0.2304 -0.0031
  187POPC   O1421434   3.363   0.768   2.978 -0.3566  0.5746  0.3677
  187POPC   O1221435   3.567   0.666   3.060 -0.2178 -0.1496 -0.0158
  187POPC   O1121436   3.354   0.604   3.152  0.1381  0.0255  0.2133
  187POPC    C121437   3.423   0.563   3.272  0.4301  0.2158  0.4946
  187POPC    HA21438   3.530   0.591   3.277  0.3143  1.1057 -1.0971
  187POPC    HB21439   3.424   0.452   3.277 -0.3707  0.1864  0.2355
  187POPC    C221440   3.363   0.619   3.403  0.2443  0.5606 -0.3208
  187POPC    HS21441   3.253   0.604   3.400  0.6357 -3.0079 -0.6574
  187POPC   O2121442   3.404   0.756   3.421 -0.5290 -0.4231  0.2206
  187POPC   C2121443   3.308   0.829   3.465  0.5463 -0.9977 -0.6497
  187POPC   O2221444   3.189   0.803   3.470  0.0494  0.5247  0.0208
  187POPC   C2221445   3.376   0.968   3.491  0.1721  0.2228 -0.4778
  187POPC   H2R21446   3.370   1.037   3.404  2.9836  0.8759 -0.2379
  187POPC   H2S21447   3.484   0.960   3.516  0.2004 -0.3203 -0.7697
  187POPC    C321448   3.408   0.540   3.524  0.4010 -0.2280 -0.1726
  187POPC    HX21449   3.517   0.559   3.534  0.1709  0.3408  1.5282
  187POPC    HY21450   3.388   0.434   3.500 -1.0495  0.3500 -1.7104
  187POPC   O3121451   3.330   0.582   3.640  0.1400 -0.3207 -0.9379
  187POPC   C3121452   3.410   0.630   3.739 -0.7372 -0.0637 -0.0785
  187POPC   O3221453   3.534   0.631   3.732  0.2020  0.2654  0.3908
  187POPC   C3221454   3.316   0.645   3.862 -0.0648  0.3336 -0.4483
  187POPC   H2X21455   3.312   0.551   3.921 -0.1016  0.1231 -0.7843
  187POPC   H2Y21456   3.212   0.650   3.823 -0.1936 -0.5027 -0.2158
  187POPC   C2321457   3.304   1.025   3.618 -0.0693 -0.5639  0.6382
  187POPC   H3R21458   3.334   0.955   3.698  2.7389 -0.5552 -0.2896
  187POPC   H3S21459   3.195   1.041   3.602  0.2949  1.1312 -0.4862
  187POPC   C2421460   3.351   1.177   3.644 -0.1023 -0.0734 -0.6416
  187POPC   H4R21461   3.353   1.237   3.551  0.9512  0.7173 -0.1298
  187POPC   H4S21462   3.458   1.182   3.676 -0.4100  0.5746  0.3011
  187POPC   C2521463   3.278   1.251   3.756  0.0612  0.0769 -0.3292
  187POPC   H5R21464   3.280   1.186   3.847  1.7197 -0.8234 -0.9645
  187POPC   H5S21465   3.178   1.247   3.709 -0.0708 -2.3124  0.0150
  187POPC   C2621466   3.333   1.387   3.780 -0.3000 -0.3787  0.4293
  187POPC   H6R21467   3.357   1.430   3.680  0.7192  2.3181  1.7327
  187POPC   H6S21468   3.431   1.375   3.830  1.1458  0.3138 -2.0405
  187POPC   C2721469   3.242   1.486   3.854 -0.4254 -0.4608 -0.2583
  187POPC   H7R21470   3.240   1.463   3.963  1.1674  2.5159  0.5111
  187POPC   H7S21471   3.143   1.491   3.805  0.4892 -1.0698 -2.2541
  187POPC   C2821472   3.301   1.629   3.838 -0.4666  0.3466  0.0311
  187POPC   H8R21473   3.410   1.617   3.822 -0.5874 -0.9916  0.1460
  187POPC   H8S21474   3.277   1.685   3.931  1.1401  1.7164 -0.3366
  187POPC   C2921475   3.248   1.702   3.717 -0.5091 -0.3377 -0.3743
  187POPC   H9121476   3.254   1.647   3.622 -1.2906  1.7653 -1.7332
  187POPC  C21021477   3.197   1.829   3.702  0.0239  0.1014  0.1833
  187POPC  H10121478   3.166   1.866   3.603  1.8463 -1.5974 -1.0723
  187POPC  C21121479   3.177   1.930   3.809  0.5188  0.8733  0.9912
  187POPC  H11R21480   3.251   1.915   3.891  2.1330 -0.2466 -0.5710
  187POPC  H11S21481   3.083   1.917   3.866 -1.5727 -1.7402 -2.6685
  187POPC  C21221482   3.185   2.077   3.769  0.1306 -0.1277  0.1258
  187POPC  H12R21483   3.130   2.094   3.674 -2.6494 -0.1558  1.6324
  187POPC  H12S21484   3.291   2.103   3.747 -0.3807  0.9257 -1.2777
  187POPC  C21321485   3.111   2.168   3.865 -0.4209 -0.3102  0.2157
  187POPC  H13R21486   3.023   2.116   3.910  0.5518 -0.4790  1.9761
  187POPC  H13S21487   3.066   2.257   3.816  0.9919 -1.1841 -2.9165
  187POPC  C21421488   3.198   2.209   3.975 -0.2893 -0.4519  0.3607
  187POPC  H14R21489   3.282   2.278   3.952  0.0303  0.0164  2.6647
  187POPC  H14S21490   3.254   2.125   4.022 -0.8167 -1.6347 -1.0517
  187POPC  C21521491   3.114   2.283   4.090 -0.2273 -0.0699  0.4532
  187POPC  H15R21492   3.038   2.212   4.129 -0.0568  0.9228  2.7400
  187POPC  H15S21493   3.069   2.381   4.061  1.4103  0.4973 -0.2980
  187POPC  C21621494   3.200   2.314   4.219 -0.0557  0.1852 -0.0992
  187POPC  H16R21495   3.296   2.368   4.202 -0.0792  0.2660  0.0233
  187POPC  H16S21496   3.221   2.216   4.269  1.0733  1.1741  1.4762
  187POPC  C21721497   3.118   2.389   4.318  0.7943 -0.6672  0.1400
  187POPC  H17R21498   3.009   2.374   4.302  0.4134 -0.2640  2.1812
  187POPC  H17S21499   3.151   2.494   4.301  0.2450 -0.2603  1.4758
  187POPC  C21821500   3.160   2.356   4.462  0.6758 -0.2607 -0.2261
  187POPC  H18R21501   3.254   2.404   4.495  0.4801 -0.8261  1.2350
  187POPC  H18S21502   3.167   2.248   4.485 -4.3896 -0.4456  1.8442
  187POPC  H18T21503   3.073   2.388   4.524 -1.2836 -0.7899 -2.5120
  187POPC   C3321504   3.349   0.780   3.942  0.0743  0.6138  0.0644
  187POPC   H3X21505   3.327   0.866   3.875 -1.4649  0.7559  0.7243
  187POPC   H3Y21506   3.455   0.776   3.975 -0.2870 -2.3682  1.1650
  187POPC   C3421507   3.269   0.803   4.073  0.0329 -0.0047 -0.7466
  187POPC   H4X21508   3.306   0.738   4.155 -2.1942  1.1665  1.3332
  187POPC   H4Y21509   3.159   0.799   4.058 -0.2736  2.4063  0.3386
  187POPC   C3521510   3.281   0.947   4.118 -0.2076  0.1442  0.4768
  187POPC   H5X21511   3.240   0.996   4.026 -1.6898 -3.8393 -1.1924
  187POPC   H5Y21512   3.389   0.973   4.112  0.2187 -1.7124 -1.0377
  187POPC   C3621513   3.209   0.985   4.240  0.5284  0.3550 -0.1354
  187POPC   H6X21514   3.268   0.953   4.329  1.1585  0.7356 -0.4204
  187POPC   H6Y21515   3.104   0.948   4.241 -0.4501  2.8430  1.9291
  187POPC   C3721516   3.188   1.134   4.247 -0.1007 -0.5396  0.2378
  187POPC   H7X21517   3.114   1.164   4.169  0.1553 -3.1203 -1.0890
  187POPC   H7Y21518   3.291   1.172   4.233 -0.3485 -0.0406 -0.2984
  187POPC   C3821519   3.129   1.172   4.383 -0.0012  0.1267 -0.5241
  187POPC   H8X21520   3.184   1.126   4.467 -1.9471 -1.8468 -0.2499
  187POPC   H8Y21521   3.028   1.127   4.385  0.4504 -0.9122 -0.6529
  187POPC   C3921522   3.106   1.317   4.409  0.4399  0.3773  0.2238
  187POPC   H9X21523   3.024   1.364   4.349  0.1382  1.6851  1.5995
  187POPC   H9Y21524   3.193   1.380   4.381 -0.7385  1.5223 -1.0414
  187POPC  C31021525   3.078   1.338   4.554  0.8078  0.6221  0.3756
  187POPC  H10X21526   3.147   1.283   4.622  1.4075 -0.8316 -1.3288
  187POPC  H10Y21527   2.977   1.296   4.576  1.4967 -1.3145  0.0474
  187POPC  C31121528   3.073   1.485   4.578 -0.4155 -0.2774  0.0360
  187POPC  H11X21529   3.038   1.545   4.492  0.6743  0.1418 -0.1367
  187POPC  H11Y21530   3.180   1.512   4.591 -0.0305 -1.4066 -0.6628
  187POPC  C31221531   2.986   1.515   4.702  0.2356  0.0339  0.0845
  187POPC  H12X21532   2.879   1.497   4.680  0.1088 -0.4279  1.0399
  187POPC  H12Y21533   3.004   1.623   4.722  1.3854  0.3627 -2.3434
  187POPC  C31321534   3.032   1.437   4.822 -0.4837  0.2951  0.1520
  187POPC  H13X21535   3.141   1.457   4.825 -0.7467  2.6902 -2.5234
  187POPC  H13Y21536   3.012   1.328   4.808  0.1213  0.4365 -2.2085
  187POPC  C31421537   2.963   1.494   4.950 -0.2654  0.0659 -0.0229
  187POPC  H14X21538   2.853   1.497   4.934 -0.4371 -0.4564  1.0030
  187POPC  H14Y21539   3.003   1.595   4.973 -0.6704  0.3545 -0.5579
  187POPC  C31521540   2.996   1.404   5.070  0.5672 -0.8289 -0.0194
  187POPC  H15X21541   2.973   1.301   5.035  0.1880 -0.7324 -0.0629
  187POPC  H15Y21542   2.921   1.427   5.149 -0.8088 -1.5373 -1.0695
  187POPC  C31621543   3.142   1.422   5.125 -0.0867  1.0780  0.0332
  187POPC  H16X21544   3.141   1.359   5.216 -0.9303  2.8919  1.3391
  187POPC  H16Y21545   3.170   1.525   5.157  0.4217  1.3015 -1.0770
  187POPC  H16Z21546   3.216   1.380   5.054 -0.2008 -0.9929  1.0886
  188POPC     N21547   2.570   0.933   3.053  0.4445 -0.3251  0.4708
  188POPC   C1221548   2.635   0.967   3.185 -0.4392  1.2868 -0.8554
  188POPC  H12A21549   2.694   1.057   3.175  1.3383  0.1351 -1.2910
  188POPC  H12B21550   2.717   0.900   3.204  0.0401  1.7413 -1.2786
  188POPC   C1321551   2.478   1.045   3.022  0.2215 -0.1606 -0.5845
  188POPC  H13A21552   2.436   1.023   2.925 -1.0325  0.4524 -0.1958
  188POPC  H13B21553   2.392   1.051   3.087 -1.0046 -0.1721 -2.1431
  188POPC  H13C21554   2.525   1.142   3.014  1.8029 -0.4276  3.3360
  188POPC   C1421555   2.662   0.928   2.938  0.2575 -0.3248  0.3608
  188POPC  H14A21556   2.752   0.873   2.963 -0.0154 -1.1628 -0.4471
  188POPC  H14B21557   2.625   0.884   2.847 -0.5792  0.6253  0.2220
  188POPC  H14C21558   2.686   1.029   2.908  0.3830  0.1160  1.8561
  188POPC   C1521559   2.490   0.814   3.045 -0.3782  0.0057 -0.3529
  188POPC  H15A21560   2.417   0.822   3.125  0.5462 -0.9327  0.6282
  188POPC  H15B21561   2.553   0.729   3.066 -0.8635  0.1216  1.8543
  188POPC  H15C21562   2.443   0.812   2.948  1.7504  0.5947 -1.4613
  188POPC   C1121563   2.542   0.981   3.308 -1.0405 -0.2650  0.4058
  188POPC  H11A21564   2.456   1.047   3.283 -1.9219 -1.2782  0.7087
  188POPC  H11B21565   2.591   1.025   3.397  0.0202  0.0818 -0.3265
  188POPC     P21566   2.584   0.743   3.403  0.1125  0.1049  0.5056
  188POPC   O1321567   2.716   0.731   3.323  0.3326 -0.8800 -0.2012
  188POPC   O1421568   2.494   0.625   3.400 -0.0577 -0.2539  0.4666
  188POPC   O1221569   2.488   0.858   3.346 -0.4979  0.2880 -0.2787
  188POPC   O1121570   2.610   0.782   3.550  0.3162 -0.0826 -0.3254
  188POPC    C121571   2.717   0.868   3.596  0.1237 -0.4447  0.3737
  188POPC    HA21572   2.680   0.955   3.654 -1.1346 -0.9756  0.3856
  188POPC    HB21573   2.785   0.905   3.516 -0.5629 -1.9408 -0.9673
  188POPC    C221574   2.804   0.805   3.705  0.0640 -0.0326  0.0140
  188POPC    HS21575   2.845   0.711   3.663  0.0833 -0.5115  1.0759
  188POPC   O2121576   2.727   0.766   3.823  0.7485  0.1141 -0.0228
  188POPC   C2121577   2.785   0.681   3.903 -0.7850 -0.5018  0.4895
  188POPC   O2221578   2.894   0.629   3.886 -0.0475  0.4731 -0.3203
  188POPC   C2221579   2.694   0.662   4.027  0.4433 -0.1279  1.1559
  188POPC   H2R21580   2.625   0.749   4.029  1.9054  1.0977 -0.0481
  188POPC   H2S21581   2.766   0.668   4.111  3.4055 -1.5091 -1.0864
  188POPC    C321582   2.933   0.888   3.740 -0.1581 -0.0206  0.2563
  188POPC    HX21583   3.016   0.867   3.669  0.1450  2.1384 -0.0915
  188POPC    HY21584   2.973   0.842   3.833  0.6360 -2.5243 -1.2039
  188POPC   O3121585   2.913   1.031   3.751  0.5313  0.1006 -0.4370
  188POPC   C3121586   2.920   1.086   3.874  0.6316  0.3183  0.4191
  188POPC   O3221587   2.924   1.020   3.975 -0.3455  0.0775 -0.7202
  188POPC   C3221588   2.927   1.238   3.867  0.7921 -1.6227 -0.2431
  188POPC   H2X21589   2.967   1.256   3.765 -2.5067  1.5058 -1.1721
  188POPC   H2Y21590   2.991   1.271   3.951 -0.4457 -2.0436  0.9055
  188POPC   C2321591   2.619   0.530   4.018 -0.2266  0.7602 -0.4842
  188POPC   H3R21592   2.570   0.511   3.920 -0.6666  0.5194 -0.2234
  188POPC   H3S21593   2.537   0.529   4.093  0.2385 -0.2492  0.0450
  188POPC   C2421594   2.713   0.406   4.055 -0.2233  0.1040  0.1592
  188POPC   H4R21595   2.770   0.421   4.150  2.6551  0.2956 -1.4829
  188POPC   H4S21596   2.793   0.408   3.978 -0.5411  0.2034 -0.1643
  188POPC   C2521597   2.660   0.263   4.021  0.5125  0.2278 -0.5382
  188POPC   H5R21598   2.756   0.208   4.028  1.3433  1.7895  1.9021
  188POPC   H5S21599   2.623   0.261   3.917 -0.8837 -2.9276 -0.0875
  188POPC   C2621600   2.557   0.195   4.123  0.5955  0.2168  0.5309
  188POPC   H6R21601   2.455   0.236   4.110  1.4562  2.0876 -0.6016
  188POPC   H6S21602   2.597   0.220   4.224  2.7506  0.4213 -0.3408
  188POPC   C2721603   2.559   0.043   4.109 -0.4957 -0.2637  0.0228
  188POPC   H7R21604   2.656   0.008   4.150 -1.4417 -0.3503  2.3386
  188POPC   H7S21605   2.552   0.013   4.003  1.0461 -0.6035 -0.0112
  188POPC   C2821606   2.443  -0.026   4.189 -0.0226 -0.6701  0.3871
  188POPC   H8R21607   2.441   0.011   4.294  5.5934  0.1309  0.5392
  188POPC   H8S21608   2.486  -0.128   4.201 -0.3898 -0.8850 -0.1161
  188POPC   C2921609   2.304  -0.027   4.126 -0.7307  0.2213 -0.3097
  188POPC   H9121610   2.297  -0.033   4.017  0.4670 -1.0401 -0.3443
  188POPC  C21021611   2.194  -0.025   4.204 -0.2161 -0.0268  0.0199
  188POPC  H10121612   2.096  -0.037   4.156  0.2056  0.6666 -1.0514
  188POPC  C21121613   2.190  -0.015   4.354  0.0787  0.3529  0.0129
  188POPC  H11R21614   2.276  -0.067   4.402  1.4784  2.7900  0.2816
  188POPC  H11S21615   2.100  -0.074   4.383  0.6448 -1.5207 -1.7878
  188POPC  C21221616   2.165   0.121   4.422 -0.2772  0.3722 -0.6798
  188POPC  H12R21617   2.140   0.095   4.527 -0.9353  1.1072 -0.6437
  188POPC  H12S21618   2.066   0.156   4.384 -0.1734  1.0521 -0.3455
  188POPC  C21321619   2.266   0.226   4.399  0.1836 -0.3258 -0.0370
  188POPC  H13R21620   2.282   0.269   4.298  0.1143 -1.3713 -0.5061
  188POPC  H13S21621   2.367   0.181   4.412  1.1832  1.7211 -0.2564
  188POPC  C21421622   2.261   0.339   4.503 -1.0396  0.2857 -0.1077
  188POPC  H14R21623   2.238   0.294   4.602 -1.4378  0.9981  0.1315
  188POPC  H14S21624   2.172   0.403   4.485 -2.8916 -1.8045  1.2096
  188POPC  C21521625   2.395   0.413   4.518 -0.5076  0.2995  0.0410
  188POPC  H15R21626   2.467   0.357   4.582 -2.2158 -0.2614  1.5331
  188POPC  H15S21627   2.372   0.500   4.584 -0.7663  1.0658 -1.0333
  188POPC  C21621628   2.462   0.464   4.385  0.4828 -0.3744 -0.1961
  188POPC  H16R21629   2.379   0.521   4.336  0.4101 -0.8898 -0.6771
  188POPC  H16S21630   2.481   0.371   4.328  0.4339  0.2241 -1.2086
  188POPC  C21721631   2.583   0.562   4.404 -0.0352 -0.9454 -0.4953
  188POPC  H17R21632   2.636   0.580   4.308  2.2845  0.5160  0.9493
  188POPC  H17S21633   2.655   0.505   4.467 -1.2313  1.0463  2.9633
  188POPC  C21821634   2.561   0.691   4.474 -0.3932  0.1805 -0.1795
  188POPC  H18R21635   2.525   0.669   4.577  1.8532 -0.3901  0.5335
  188POPC  H18S21636   2.473   0.744   4.431 -1.5979 -1.4381  0.1820
  188POPC  H18T21637   2.655   0.749   4.466 -0.4264  0.0259 -2.0675
  188POPC   C3321638   2.793   1.312   3.882 -0.3271  0.4130  0.4699
  188POPC   H3X21639   2.719   1.249   3.936  0.2391 -1.6127 -0.9854
  188POPC   H3Y21640   2.753   1.329   3.779  1.0427 -1.8322 -0.5220
  188POPC   C3421641   2.805   1.447   3.959  0.3905  0.1540  0.4034
  188POPC   H4X21642   2.759   1.535   3.909  0.5653 -0.5193 -0.9820
  188POPC   H4Y21643   2.914   1.468   3.968 -0.0755  2.2703  2.0949
  188POPC   C3521644   2.742   1.438   4.097 -0.0034 -0.5818  0.2521
  188POPC   H5X21645   2.783   1.351   4.153  1.5619 -1.2988 -1.8637
  188POPC   H5Y21646   2.632   1.419   4.094  0.0306 -0.8575  0.7148
  188POPC   C3621647   2.759   1.568   4.179 -0.8538 -0.1454 -0.8222
  188POPC   H6X21648   2.694   1.644   4.131 -2.5155 -2.8115 -3.1586
  188POPC   H6Y21649   2.863   1.609   4.180 -0.9358  0.0479 -0.3047
  188POPC   C3721650   2.719   1.535   4.325  0.1619 -0.0766 -0.0041
  188POPC   H7X21651   2.782   1.456   4.372 -0.8429  0.2374  1.9764
  188POPC   H7Y21652   2.620   1.488   4.310  1.0456 -1.7530 -0.9587
  188POPC   C3821653   2.692   1.656   4.411 -0.3010  1.0101  0.6827
  188POPC   H8X21654   2.644   1.734   4.350 -0.7391  1.6371  1.8072
  188POPC   H8Y21655   2.792   1.692   4.445 -0.1035 -0.9174  2.3153
  188POPC   C3921656   2.617   1.625   4.541  0.1306  0.3955  0.2916
  188POPC   H9X21657   2.691   1.577   4.609  1.2287  1.6118 -0.0228
  188POPC   H9Y21658   2.538   1.547   4.531 -0.3991  0.3620  3.5795
  188POPC  C31021659   2.561   1.748   4.608  0.1777  0.2527  0.8382
  188POPC  H10X21660   2.490   1.789   4.532 -0.5494 -1.7134  0.3783
  188POPC  H10Y21661   2.639   1.825   4.625 -0.8534  1.3176  0.8998
  188POPC  C31121662   2.492   1.705   4.731  0.0966 -0.5777 -0.1201
  188POPC  H11X21663   2.418   1.626   4.704 -1.3030  0.9746 -1.0136
  188POPC  H11Y21664   2.434   1.794   4.763  1.8943  1.7732 -2.9411
  188POPC  C31221665   2.595   1.691   4.845  0.0579  0.1879  0.4497
  188POPC  H12X21666   2.664   1.610   4.812  0.0663  0.0426  0.8256
  188POPC  H12Y21667   2.544   1.647   4.933 -1.5671  1.8642  0.3973
  188POPC  C31321668   2.672   1.814   4.904 -0.2969 -0.0205 -0.2193
  188POPC  H13X21669   2.603   1.895   4.935  2.1308  2.1071 -0.1362
  188POPC  H13Y21670   2.736   1.862   4.826  0.6440  2.3176  1.8764
  188POPC  C31421671   2.759   1.768   5.023 -0.1331 -0.3230 -0.1585
  188POPC  H14X21672   2.850   1.726   4.975  0.6166 -0.5662  1.3875
  188POPC  H14Y21673   2.708   1.685   5.077 -1.8746 -0.2478 -1.6108
  188POPC  C31521674   2.791   1.871   5.127  0.0037 -0.1992 -0.2224
  188POPC  H15X21675   2.701   1.916   5.174  0.2888  0.7965 -0.5875
  188POPC  H15Y21676   2.847   1.953   5.075 -1.5194  0.6483 -0.5821
  188POPC  C31621677   2.875   1.812   5.241  0.4971  0.5858  0.5877
  188POPC  H16X21678   2.973   1.785   5.195 -0.1982  0.0747 -0.6351
  188POPC  H16Y21679   2.819   1.725   5.282 -0.1244  1.3160  1.3099
  188POPC  H16Z21680   2.877   1.885   5.324  0.8196  0.1157  0.9966
  189SAPI   C1221681   0.104   6.586   7.911 -0.0223 -0.0256 -0.1522
  189SAPI    H221682   0.115   6.683   7.964  0.6996 -0.2872  0.1870
  189SAPI    O221683   0.170   6.481   7.991  0.1881 -0.3840  0.7877
  189SAPI   HO221684   0.257   6.515   8.016 -0.7928  3.0757  0.0356
  189SAPI   C1321685  -0.041   6.573   7.905  0.2477 -0.4789 -0.7471
  189SAPI    H321686  -0.084   6.666   7.860 -1.9272 -1.3684 -0.6205
  189SAPI    O321687  -0.107   6.572   8.037 -0.1068 -0.6510 -0.2858
  189SAPI   HO321688  -0.122   6.661   8.069  0.4296 -1.3242  2.0229
  189SAPI   C1421689  -0.088   6.458   7.818  0.7313  0.1817 -0.1789
  189SAPI    H421690  -0.075   6.371   7.886 -2.1751 -0.0912  0.1520
  189SAPI    O421691  -0.229   6.468   7.781  0.1118 -0.0560  0.5920
  189SAPI   HO421692  -0.234   6.496   7.689  0.0410 -0.0366  0.6015
  189SAPI   C1521693   0.002   6.421   7.695 -0.4282 -0.6898 -0.1130
  189SAPI    H521694  -0.046   6.480   7.614 -0.5978 -0.1632  0.3655
  189SAPI    O521695  -0.018   6.293   7.640 -0.3331  0.5431 -0.5877
  189SAPI   HO521696   0.040   6.231   7.684 -1.0252  1.8351  2.3777
  189SAPI   C1621697   0.149   6.480   7.687  0.6428  0.7276  0.4351
  189SAPI    H621698   0.213   6.397   7.723 -1.5319 -1.6637 -0.8705
  189SAPI    O621699   0.179   6.503   7.549 -0.7783 -0.0211  0.0769
  189SAPI   HO621700   0.128   6.575   7.510 -0.7465 -1.3217 -2.6162
  189SAPI   C1121701   0.178   6.593   7.779  0.5105 -0.1455 -0.0720
  189SAPI    H121702   0.143   6.682   7.721 -0.4882 -0.5736 -0.1417
  189SAPI     P21703   0.380   6.757   7.783 -0.5222 -0.1406  0.1083
  189SAPI   O1321704   0.521   6.754   7.824 -0.1165 -0.1571 -0.3223
  189SAPI   O1421705   0.297   6.855   7.856  0.0586  0.5965 -0.0234
  189SAPI   O1221706   0.323   6.605   7.794  0.5554 -0.2049  0.1106
  189SAPI   O1121707   0.371   6.776   7.634  0.7147 -0.4098  0.3826
  189SAPI    C121708   0.450   6.698   7.538 -0.1231 -0.1010  0.5147
  189SAPI    HA21709   0.468   6.597   7.580 -2.6592  0.0727  2.2718
  189SAPI    HB21710   0.399   6.680   7.441  0.6884  1.0559 -0.1512
  189SAPI    C221711   0.572   6.788   7.501 -0.0863  0.0483 -0.8078
  189SAPI    HS21712   0.606   6.837   7.594 -0.3967  1.0518 -1.2079
  189SAPI   O2121713   0.518   6.891   7.409 -0.2142 -0.1352  0.3056
  189SAPI   C2121714   0.613   6.982   7.375  0.4442 -0.8134  0.4016
  189SAPI   O2221715   0.722   6.999   7.419  0.3381  0.2271 -0.2618
  189SAPI   C2221716   0.548   7.077   7.267 -0.7190 -0.0058  0.5198
  189SAPI   H2R21717   0.476   7.015   7.209 -0.2360 -1.1218  1.0656
  189SAPI   H2S21718   0.491   7.163   7.307  0.2909  1.4289 -1.0156
  189SAPI    C321719   0.680   6.699   7.433  0.7424 -0.0639 -0.8471
  189SAPI    HX21720   0.689   6.624   7.514  1.3497 -0.1694 -1.0063
  189SAPI    HY21721   0.771   6.761   7.425  0.0414  0.8400 -2.3544
  189SAPI   O3121722   0.631   6.633   7.318 -0.0724  0.0807  0.2867
  189SAPI   C3121723   0.678   6.681   7.201 -0.5731 -0.4398  0.0198
  189SAPI   O3221724   0.755   6.773   7.196  0.2797 -0.4650 -0.3165
  189SAPI   C3221725   0.581   6.634   7.095 -0.0841 -0.4197  0.1500
  189SAPI   H2X21726   0.482   6.677   7.119 -0.5025 -2.2106  1.9610
  189SAPI   H2Y21727   0.570   6.523   7.104 -1.4933 -0.4792 -1.8381
  189SAPI   C2321728   0.660   7.128   7.168 -0.4663  0.0800 -0.8559
  189SAPI   H3R21729   0.719   7.041   7.132  0.0542 -0.2373  0.6884
  189SAPI   H3S21730   0.724   7.201   7.223  0.3014 -0.2954 -1.2313
  189SAPI   C2421731   0.595   7.187   7.037 -1.1450  0.2232 -0.3132
  189SAPI   H4R21732   0.560   7.101   6.976  1.6401 -1.7424  0.6563
  189SAPI   H4S21733   0.674   7.243   6.981 -2.0108  3.4206  1.4443
  189SAPI   C2521734   0.489   7.294   7.058 -0.9996  0.2663  0.0839
  189SAPI   H5R21735   0.415   7.263   7.134 -1.7350 -1.1833 -1.1782
  189SAPI   C2621736   0.469   7.410   7.001  0.5823 -0.0049  0.2047
  189SAPI   H6R21737   0.417   7.492   7.053 -2.7069 -0.2312 -2.3999
  189SAPI   C2721738   0.548   7.470   6.887  0.9890  0.5927 -0.1043
  189SAPI   H7R21739   0.479   7.463   6.800 -0.8707  0.6675  1.2996
  189SAPI   H7S21740   0.630   7.399   6.863 -0.5081 -1.9834  1.8965
  189SAPI   C2821741   0.598   7.610   6.915 -0.4095  0.0240  0.9537
  189SAPI   H8R21742   0.661   7.611   7.005  1.9509  1.9761 -0.6040
  189SAPI   C2921743   0.608   7.717   6.829 -0.1423 -0.5393  0.1611
  189SAPI   H9R21744   0.651   7.810   6.868 -0.6607 -1.0018  1.8942
  189SAPI  C21021745   0.544   7.722   6.692 -0.0982  0.3216 -0.0530
  189SAPI  H10R21746   0.494   7.820   6.673 -3.3929 -1.1004  0.6469
  189SAPI  H10S21747   0.456   7.654   6.694  1.1215 -1.3458 -0.9411
  189SAPI  C21121748   0.630   7.685   6.577 -0.5125  0.7936  0.1269
  189SAPI  H11R21749   0.717   7.622   6.601 -0.2599  0.9495 -0.3781
  189SAPI  C21221750   0.599   7.707   6.446  0.1270  0.6214 -0.3930
  189SAPI  H12R21751   0.658   7.660   6.365 -1.1241  1.4546 -1.8487
  189SAPI  C21321752   0.476   7.775   6.397  0.7015 -0.3147 -0.6787
  189SAPI  H13R21753   0.460   7.878   6.436 -0.1248 -0.5155 -0.4708
  189SAPI  H13S21754   0.391   7.712   6.430  0.1803  0.1112 -1.1867
  189SAPI  C21421755   0.471   7.794   6.245  0.0799 -0.1627 -0.3497
  189SAPI  H14R21756   0.566   7.806   6.190  0.3797  3.2522  0.6977
  189SAPI  C21521757   0.362   7.781   6.162 -0.2035 -0.2120  0.3848
  189SAPI  H15R21758   0.380   7.800   6.056  1.1120  0.2716  0.6795
  189SAPI  C21621759   0.209   7.758   6.187 -0.0519 -0.9200 -0.2255
  189SAPI  H16R21760   0.174   7.857   6.222  0.6572 -0.4921 -0.7139
  189SAPI  H16S21761   0.200   7.682   6.268 -0.3913 -1.2837 -0.5962
  189SAPI  C21721762   0.126   7.732   6.060 -0.6846 -0.0696  0.2688
  189SAPI  H17R21763   0.140   7.818   5.991  0.6443  0.7488  1.4872
  189SAPI  H17S21764   0.022   7.720   6.097  0.4835 -0.3163  3.9457
  189SAPI  C21821765   0.141   7.599   5.986 -0.2573 -0.0877  0.3106
  189SAPI  H18R21766   0.149   7.509   6.050 -0.9286 -1.1066 -0.9910
  189SAPI  H18S21767   0.234   7.595   5.926  0.5708  0.7797  1.4910
  189SAPI  C21921768   0.025   7.587   5.883 -0.3581 -0.4583 -0.7289
  189SAPI  H19R21769   0.060   7.529   5.795  2.0165  0.9312 -0.7911
  189SAPI  H19S21770  -0.002   7.692   5.857  1.3964 -0.2584 -1.9273
  189SAPI  C22021771  -0.093   7.500   5.937 -0.4503 -0.2300 -0.2714
  189SAPI  H20R21772  -0.181   7.506   5.870 -1.7958 -0.1367  1.4330
  189SAPI  H20S21773  -0.105   7.544   6.038  0.8633  0.5772 -0.4376
  189SAPI  H20T21774  -0.072   7.391   5.945  0.0627 -0.0932  0.3141
  189SAPI   C3321775   0.635   6.666   6.957 -0.4055 -0.4030 -0.5081
  189SAPI   H3X21776   0.568   6.608   6.890  0.1681  0.6093 -2.0221
  189SAPI   H3Y21777   0.734   6.617   6.941 -0.1002  0.7291 -2.3212
  189SAPI   C3421778   0.634   6.812   6.926 -0.4465 -0.6410  0.2418
  189SAPI   H4X21779   0.710   6.864   6.989  0.0739 -0.4251 -0.5531
  189SAPI   H4Y21780   0.534   6.850   6.956 -0.1152  1.3187 -0.9921
  189SAPI   C3521781   0.669   6.824   6.774  0.2037 -0.3058  0.0249
  189SAPI   H5X21782   0.594   6.774   6.708  0.8915 -1.2764 -0.0417
  189SAPI   H5Y21783   0.770   6.783   6.751 -0.0532 -1.1151  0.2971
  189SAPI   C3621784   0.665   6.974   6.733 -0.6429 -0.2318  0.0423
  189SAPI   H6X21785   0.710   7.046   6.805 -1.6634  2.3340 -1.7476
  189SAPI   H6Y21786   0.560   7.007   6.720 -0.7105 -0.8033 -0.9042
  189SAPI   C3721787   0.743   7.002   6.601  0.4137 -0.0028 -0.6069
  189SAPI   H7X21788   0.709   6.913   6.543 -1.4897  0.2277  0.1005
  189SAPI   H7Y21789   0.853   6.994   6.613  0.6229 -2.3776 -3.0862
  189SAPI   C3821790   0.698   7.130   6.535 -0.6919 -0.6323  0.2152
  189SAPI   H8X21791   0.713   7.216   6.604  1.7840  1.6868 -2.9161
  189SAPI   H8Y21792   0.593   7.125   6.500 -2.0644  2.2656  3.3159
  189SAPI   C3921793   0.781   7.171   6.410 -0.2544  0.3550  0.6497
  189SAPI   H9X21794   0.889   7.164   6.434 -0.3907 -1.3917  0.8919
  189SAPI   H9Y21795   0.754   7.272   6.371 -1.7168 -0.9532 -2.0238
  189SAPI  C31021796   0.770   7.081   6.286 -0.6816  0.4676 -0.8058
  189SAPI  H10X21797   0.665   7.085   6.248 -1.8168 -0.9144  1.8725
  189SAPI  H10Y21798   0.790   6.972   6.298  1.7279  1.0212  0.7284
  189SAPI  C31121799   0.890   7.121   6.192 -0.3826  0.0182  0.6876
  189SAPI  H11X21800   0.976   7.071   6.240 -1.3294 -0.6630  1.7260
  189SAPI  H11Y21801   0.922   7.228   6.184  1.4950 -0.6219 -1.6377
  189SAPI  C31221802   0.875   7.054   6.055 -1.0503  0.3315 -0.0323
  189SAPI  H12X21803   0.859   6.944   6.056  0.9599 -0.1005 -2.4898
  189SAPI  H12Y21804   0.976   7.047   6.010  0.0088 -0.4559  2.3003
  189SAPI  C31321805   0.778   7.109   5.953  0.7567  0.7600 -0.0655
  189SAPI  H13X21806   0.785   7.216   5.925  2.3862  0.6255 -0.2548
  189SAPI  H13Y21807   0.677   7.089   5.997  0.1892  0.1517 -1.5658
  189SAPI  C31421808   0.789   7.054   5.809 -0.2388 -0.2692 -0.0774
  189SAPI  H14X21809   0.890   7.077   5.770 -0.6941  1.2908 -0.4206
  189SAPI  H14Y21810   0.721   7.122   5.754 -0.3773  0.6907  1.2389
  189SAPI  C31521811   0.751   6.908   5.806 -0.2691 -0.0300 -0.1934
  189SAPI  H15X21812   0.648   6.886   5.841 -0.7983  0.2062 -1.5223
  189SAPI  H15Y21813   0.820   6.853   5.873 -0.3896  1.6590  1.3661
  189SAPI  C31621814   0.760   6.851   5.665 -0.0792 -0.3184  0.2026
  189SAPI  H16X21815   0.763   6.740   5.654  1.4177 -0.5947  2.6678
  189SAPI  H16Y21816   0.857   6.879   5.619 -0.9275  1.2374 -0.7440
  189SAPI  C31721817   0.652   6.912   5.574  0.3579 -0.7068  0.1147
  189SAPI  H17X21818   0.661   7.021   5.558 -0.7651 -0.5104  0.7820
  189SAPI  H17Y21819   0.559   6.884   5.627 -1.1117 -0.4142 -2.2192
  189SAPI  C31821820   0.655   6.849   5.437 -0.1490  0.3574  0.1930
  189SAPI  H18X21821   0.618   6.745   5.447  1.8737 -0.2434  2.3945
  189SAPI  H18Y21822   0.757   6.829   5.397 -0.8562 -0.1558 -1.4486
  189SAPI  H18Z21823   0.598   6.911   5.364 -3.3448 -1.7937  0.6795
  190SAPI   C1221824   0.784   2.959   7.779  0.2971  0.1163  1.0468
  190SAPI    H221825   0.741   3.015   7.693 -0.6137 -1.5243  0.4099
  190SAPI    O221826   0.708   3.009   7.887  0.4820  0.0602 -0.4558
  190SAPI   HO221827   0.704   3.104   7.877 -2.4996  0.0671 -0.0319
  190SAPI   C1321828   0.772   2.814   7.749  0.0481 -0.1023  0.6312
  190SAPI    H321829   0.838   2.787   7.663  0.7573  0.3607  1.0231
  190SAPI    O321830   0.642   2.775   7.720  0.2959  1.0241  0.0635
  190SAPI   HO321831   0.589   2.801   7.797 -1.0352 -1.2317  0.0065
  190SAPI   C1421832   0.832   2.731   7.863 -0.1994 -0.1424 -0.1081
  190SAPI    H421833   0.765   2.731   7.951  0.0999  0.0249  0.1219
  190SAPI    O421834   0.841   2.594   7.824  0.6377 -0.1973 -0.0062
  190SAPI   HO421835   0.793   2.536   7.883  2.2814  0.0117  1.6436
  190SAPI   C1521836   0.968   2.785   7.922 -0.2309 -0.6742 -0.1776
  190SAPI    H521837   1.052   2.753   7.857  0.1630  0.4340 -0.2492
  190SAPI    O521838   0.999   2.724   8.049  0.2487  0.1383  0.4068
  190SAPI   HO521839   1.069   2.665   8.023 -0.7269  0.1366 -2.6254
  190SAPI   C1621840   0.992   2.934   7.920  0.2040  0.1810  0.0995
  190SAPI    H621841   0.961   2.974   8.019  1.8010 -1.3274  1.2772
  190SAPI    O621842   1.133   2.964   7.924  0.4626 -0.5160 -0.1315
  190SAPI   HO621843   1.144   3.021   7.848 -3.9138 -0.8904 -1.2868
  190SAPI   C1121844   0.932   2.989   7.794  0.3011  0.8810 -0.8148
  190SAPI    H121845   0.989   2.941   7.712 -1.0920 -1.2939 -0.5995
  190SAPI     P21846   1.053   3.220   7.721 -0.1994 -0.1819 -0.1209
  190SAPI   O1321847   1.182   3.160   7.736 -0.1979  0.0843 -0.4484
  190SAPI   O1421848   1.039   3.362   7.756 -0.7373  0.1686 -0.0341
  190SAPI   O1221849   0.944   3.133   7.804  0.0949  0.1898 -0.9155
  190SAPI   O1121850   0.997   3.190   7.582  0.0189 -0.2162  0.2832
  190SAPI    C121851   0.880   3.252   7.531 -0.4501 -0.6558 -0.2826
  190SAPI    HA21852   0.801   3.174   7.525  0.8851 -1.9401 -4.4031
  190SAPI    HB21853   0.839   3.345   7.575 -1.9726 -1.0351 -0.8096
  190SAPI    C221854   0.914   3.292   7.388 -0.2927  0.2024  0.5408
  190SAPI    HS21855   0.831   3.352   7.344 -0.7622  0.2521  1.4656
  190SAPI   O2121856   0.937   3.176   7.305 -0.4577  0.4536 -0.7691
  190SAPI   C2121857   0.830   3.135   7.251  0.0650  0.1499 -0.2453
  190SAPI   O2221858   0.717   3.176   7.274  0.2356  0.1129  0.0042
  190SAPI   C2221859   0.863   3.024   7.146 -0.1341 -0.1024  0.3547
  190SAPI   H2R21860   0.957   2.973   7.176  0.8485  1.4406  0.0055
  190SAPI   H2S21861   0.779   2.951   7.144  2.4776 -3.3355  1.0465
  190SAPI    C321862   1.036   3.390   7.371 -0.6280  0.2624 -0.2476
  190SAPI    HX21863   1.115   3.359   7.442 -0.9632  0.4262  0.1997
  190SAPI    HY21864   1.010   3.491   7.409 -1.7066  0.3123 -1.0717
  190SAPI   O3121865   1.088   3.405   7.240  0.1926 -0.1674  0.8598
  190SAPI   C3121866   1.171   3.311   7.201 -0.2442 -0.1411  0.4409
  190SAPI   O3221867   1.222   3.222   7.271 -0.5131  0.1412  0.3159
  190SAPI   C3221868   1.196   3.317   7.051 -0.0854 -0.9239  0.0127
  190SAPI   H2X21869   1.231   3.417   7.018 -0.1461 -0.8290  0.2342
  190SAPI   H2Y21870   1.098   3.311   7.001 -0.4585  1.0374  0.4141
  190SAPI   C2321871   0.886   3.079   7.007 -0.3321  0.3934  0.2501
  190SAPI   H3R21872   0.965   3.021   6.955 -0.4250  2.3007 -2.2399
  190SAPI   H3S21873   0.942   3.175   7.012  0.0369  0.1829  0.2188
  190SAPI   C2421874   0.752   3.104   6.930  0.0850  0.2368 -0.4233
  190SAPI   H4R21875   0.763   3.183   6.853 -1.0783  0.1653 -0.6823
  190SAPI   H4S21876   0.664   3.134   6.990 -0.2913 -0.8043 -0.4303
  190SAPI   C2521877   0.708   2.975   6.870  0.4181 -0.2114  1.1660
  190SAPI   H5R21878   0.660   2.907   6.943  2.7429 -1.5622  1.5247
  190SAPI   C2621879   0.702   2.933   6.741 -0.1897 -0.6256 -0.0335
  190SAPI   H6R21880   0.655   2.839   6.709 -2.3089 -0.0554  1.2647
  190SAPI   C2721881   0.752   3.019   6.619 -0.3539 -0.0034 -0.0987
  190SAPI   H7R21882   0.804   3.111   6.654 -0.1529  0.7955 -2.3593
  190SAPI   H7S21883   0.673   3.060   6.553  0.4615 -0.5606 -1.4554
  190SAPI   C2821884   0.867   2.943   6.557  0.3191 -1.0358  0.0354
  190SAPI   H8R21885   0.964   2.944   6.609  1.4369 -0.1809 -1.9316
  190SAPI   C2921886   0.853   2.890   6.433  0.1817 -0.6850  0.1649
  190SAPI   H9R21887   0.928   2.824   6.387 -0.0213 -0.6341 -0.2463
  190SAPI  C21021888   0.736   2.895   6.339 -0.5125 -0.1721 -0.3616
  190SAPI  H10R21889   0.647   2.945   6.383  0.6663  2.8213 -1.1013
  190SAPI  H10S21890   0.710   2.794   6.303  0.0703 -0.4726  0.0453
  190SAPI  C21121891   0.774   2.992   6.230 -0.8783  0.1113  0.3001
  190SAPI  H11R21892   0.825   3.080   6.271  1.1638 -1.0979  0.5113
  190SAPI  C21221893   0.765   2.989   6.098  1.4069  0.7242  0.0372
  190SAPI  H12R21894   0.789   3.078   6.038  0.0429  0.3133 -1.1709
  190SAPI  C21321895   0.694   2.877   6.026  0.0503  0.8651 -0.1167
  190SAPI  H13R21896   0.645   2.920   5.936 -1.0396 -1.3224 -0.6485
  190SAPI  H13S21897   0.607   2.840   6.085  0.3425  0.6118  0.1592
  190SAPI  C21421898   0.807   2.776   5.997 -0.4606  0.0968 -0.4246
  190SAPI  H14R21899   0.853   2.743   6.092  1.0828  1.3877 -0.6931
  190SAPI  C21521900   0.845   2.731   5.880 -0.0676  0.2760 -0.6343
  190SAPI  H15R21901   0.927   2.658   5.875  0.1769  0.5114 -0.0983
  190SAPI  C21621902   0.777   2.756   5.746 -0.5605 -0.1781 -0.5586
  190SAPI  H16R21903   0.860   2.784   5.677  0.5229  0.3029  0.8906
  190SAPI  H16S21904   0.704   2.837   5.766 -0.2994  0.1350 -0.8737
  190SAPI  C21721905   0.716   2.629   5.694 -0.0292  0.1307 -0.2701
  190SAPI  H17R21906   0.626   2.600   5.752  0.1834  0.5638  0.2810
  190SAPI  H17S21907   0.787   2.545   5.706  1.2178  0.9517 -1.6306
  190SAPI  C21821908   0.676   2.614   5.547 -0.1416  0.4022 -0.2877
  190SAPI  H18R21909   0.634   2.514   5.522  2.2408 -0.0305 -3.0976
  190SAPI  H18S21910   0.763   2.620   5.479  0.3016  0.2540  0.2588
  190SAPI  C21921911   0.567   2.715   5.503  0.1069  0.2992  0.0738
  190SAPI  H19R21912   0.617   2.807   5.464  1.6764 -0.3225  0.5509
  190SAPI  H19S21913   0.511   2.739   5.596  1.6120  3.7687  0.2428
  190SAPI  C22021914   0.472   2.657   5.395 -0.7931  0.2901 -0.4820
  190SAPI  H20R21915   0.530   2.613   5.311  0.2454  0.8904 -0.1036
  190SAPI  H20S21916   0.391   2.726   5.364 -0.5200  1.5991  1.5568
  190SAPI  H20T21917   0.430   2.560   5.431  0.3836 -0.0523  0.0144
  190SAPI   C3321918   1.289   3.213   6.993 -0.8399 -0.0517  0.4507
  190SAPI   H3X21919   1.283   3.114   7.043  1.5084 -1.1376 -1.1885
  190SAPI   H3Y21920   1.395   3.238   7.014 -0.6151 -0.2987 -0.3494
  190SAPI   C3421921   1.250   3.197   6.845 -0.4525 -0.0627 -0.3750
  190SAPI   H4X21922   1.277   3.298   6.809  0.5336  0.2060  1.0375
  190SAPI   H4Y21923   1.141   3.177   6.837 -0.6525  0.5858  0.6237
  190SAPI   C3521924   1.324   3.089   6.766 -0.2853  0.3569  0.1667
  190SAPI   H5X21925   1.314   2.994   6.823  2.9639 -1.3290 -1.7573
  190SAPI   H5Y21926   1.432   3.110   6.752 -0.8951  2.6945 -1.7874
  190SAPI   C3621927   1.260   3.071   6.623 -0.3400 -0.0296  0.2844
  190SAPI   H6X21928   1.150   3.051   6.628 -0.7056  1.7244 -0.0954
  190SAPI   H6Y21929   1.305   2.984   6.570 -2.0419 -1.7989  1.6026
  190SAPI   C3721930   1.285   3.201   6.528  0.3203  1.4772 -0.0058
  190SAPI   H7X21931   1.381   3.245   6.562  0.4366  0.5907  0.8314
  190SAPI   H7Y21932   1.203   3.276   6.538  0.2098  1.3327  0.1753
  190SAPI   C3821933   1.278   3.182   6.376  0.0624  0.5524 -0.4182
  190SAPI   H8X21934   1.347   3.100   6.345  0.7694  1.8324 -2.4137
  190SAPI   H8Y21935   1.327   3.277   6.344 -0.5826  0.6857 -1.0341
  190SAPI   C3921936   1.138   3.170   6.310 -0.4653  0.4398 -0.4376
  190SAPI   H9X21937   1.099   3.271   6.290 -0.0417  0.6153 -0.3921
  190SAPI   H9Y21938   1.072   3.101   6.368 -0.1513 -0.4329 -1.0824
  190SAPI  C31021939   1.147   3.094   6.179 -0.3017 -0.9148 -0.4317
  190SAPI  H10X21940   1.043   3.071   6.147 -1.1954  1.4679  0.5593
  190SAPI  H10Y21941   1.202   3.001   6.205  0.3362  0.2964  3.0680
  190SAPI  C31121942   1.222   3.181   6.073 -0.2388  0.1949  0.0963
  190SAPI  H11X21943   1.320   3.201   6.122 -0.7611  0.1763  1.1757
  190SAPI  H11Y21944   1.153   3.267   6.062  1.0115  1.3067  0.6620
  190SAPI  C31221945   1.244   3.115   5.935  0.5157 -0.3887  0.0866
  190SAPI  H12X21946   1.299   3.018   5.932 -2.1778 -2.0360  0.3411
  190SAPI  H12Y21947   1.302   3.178   5.864 -1.0597  1.6151  0.4857
  190SAPI  C31321948   1.110   3.095   5.869 -0.3371 -0.3050  0.2346
  190SAPI  H13X21949   1.039   3.045   5.939 -0.9606  1.1945  0.7029
  190SAPI  H13Y21950   1.141   3.036   5.780 -0.0599  0.3863 -0.1282
  190SAPI  C31421951   1.042   3.223   5.818 -0.2874 -0.1458  0.2919
  190SAPI  H14X21952   1.090   3.264   5.727 -0.6493 -0.0051  0.1644
  190SAPI  H14Y21953   1.025   3.304   5.893 -0.6808  0.5780 -0.5671
  190SAPI  C31521954   0.906   3.182   5.751  0.0159  0.3092  0.6013
  190SAPI  H15X21955   0.858   3.269   5.702  2.2252  0.6316 -1.2044
  190SAPI  H15Y21956   0.834   3.155   5.831 -0.6709  0.2011 -0.0349
  190SAPI  C31621957   0.915   3.083   5.632 -0.3273  0.1884  0.7075
  190SAPI  H16X21958   0.811   3.080   5.593 -0.2475 -4.6084  0.2099
  190SAPI  H16Y21959   0.948   2.986   5.674  1.1616  0.5168  0.3609
  190SAPI  C31721960   0.996   3.125   5.510 -0.0940  0.0138  0.8206
  190SAPI  H17X21961   1.103   3.112   5.538  0.2876  0.2695 -0.4388
  190SAPI  H17Y21962   0.985   3.234   5.493 -0.9757 -0.0513  0.9357
  190SAPI  C31821963   0.966   3.050   5.382 -1.1983 -0.1612 -0.0945
  190SAPI  H18X21964   0.855   3.041   5.372 -1.3309  0.2958  0.8133
  190SAPI  H18Y21965   1.010   2.949   5.394 -2.1775 -0.6964 -0.8106
  190SAPI  H18Z21966   1.011   3.106   5.298 -0.4078 -0.8761 -0.1641
  191SAPI   C1221967   0.613   0.266   2.906 -0.1349  0.4483  0.0197
  191SAPI    H221968   0.525   0.212   2.948 -0.4634 -0.2345 -1.4816
  191SAPI    O221969   0.717   0.172   2.906 -0.1556  0.3772 -0.4732
  191SAPI   HO221970   0.701   0.100   2.967  2.3389  0.3217  0.2461
  191SAPI   C1321971   0.574   0.318   2.771 -0.1773 -0.1350 -0.0028
  191SAPI    H321972   0.502   0.403   2.780 -1.9969 -1.3196 -2.2343
  191SAPI    O321973   0.512   0.213   2.697  0.6387 -0.2677 -0.4707
  191SAPI   HO321974   0.564   0.132   2.706  0.7152 -0.0927  0.7912
  191SAPI   C1421975   0.695   0.369   2.692  0.1710 -0.1115 -0.2382
  191SAPI    H421976   0.746   0.280   2.649 -0.6842 -0.0721 -1.3796
  191SAPI    O421977   0.647   0.449   2.583  0.0352  0.4036 -0.0793
  191SAPI   HO421978   0.612   0.398   2.511 -0.8885 -0.3476  0.8677
  191SAPI   C1521979   0.804   0.450   2.772  0.1504  0.5782 -0.4004
  191SAPI    H521980   0.772   0.552   2.743 -0.3360 -0.1323 -2.5475
  191SAPI    O521981   0.940   0.453   2.719  0.8318 -0.2328 -0.3990
  191SAPI   HO521982   0.935   0.502   2.637 -0.9155 -0.5672 -0.5408
  191SAPI   C1621983   0.789   0.443   2.928 -0.0334 -0.2933 -0.2440
  191SAPI    H621984   0.871   0.373   2.955  0.1245 -0.5891 -1.4221
  191SAPI    O621985   0.801   0.573   2.989  0.1705 -0.9107  0.1792
  191SAPI   HO621986   0.831   0.560   3.079 -0.5303 -1.3155  0.3589
  191SAPI   C1121987   0.661   0.377   2.989 -0.4278  0.0477  0.4148
  191SAPI    H121988   0.585   0.458   2.988  0.9956  1.5441  2.6765
  191SAPI     P21989   0.556   0.315   3.226  0.2092 -0.2440  0.2122
  191SAPI   O1321990   0.577   0.187   3.295  0.0310  0.2352 -0.3768
  191SAPI   O1421991   0.428   0.327   3.150  0.2163 -0.4608 -0.1483
  191SAPI   O1221992   0.683   0.341   3.126  0.3519 -0.0951 -0.1278
  191SAPI   O1121993   0.577   0.426   3.340 -0.2684  0.0756  0.2941
  191SAPI    C121994   0.705   0.451   3.402  0.4849  0.0045  0.5399
  191SAPI    HA21995   0.777   0.367   3.395  0.6517  0.1808  0.1222
  191SAPI    HB21996   0.760   0.534   3.353 -3.3710  2.9366  0.7324
  191SAPI    C221997   0.688   0.490   3.557 -0.0309 -0.3152  0.0528
  191SAPI    HS21998   0.788   0.502   3.604 -0.6628 -0.2811  1.4296
  191SAPI   O2121999   0.630   0.369   3.620  0.2695 -0.2462 -0.0238
  191SAPI   C2122000   0.712   0.279   3.672  0.9126 -0.3766 -0.0617
  191SAPI   O2222001   0.830   0.265   3.656 -0.2740 -0.5237  0.0833
  191SAPI   C2222002   0.632   0.194   3.770  0.2130  0.6668 -0.8226
  191SAPI   H2R22003   0.584   0.255   3.849  1.0328  0.6105 -0.2639
  191SAPI   H2S22004   0.553   0.147   3.708  0.6856 -1.3820  0.0386
  191SAPI    C322005   0.586   0.605   3.573 -0.4138  0.3947  0.8063
  191SAPI    HX22006   0.489   0.556   3.554 -0.8323  1.0567  1.2025
  191SAPI    HY22007   0.614   0.685   3.502  1.5734  0.1666  1.2665
  191SAPI   O3122008   0.606   0.649   3.703 -0.2200  0.3530 -0.3424
  191SAPI   C3122009   0.505   0.727   3.740 -0.0980  0.2322 -0.7923
  191SAPI   O3222010   0.415   0.756   3.672 -0.2495  0.3113  0.1420
  191SAPI   C3222011   0.535   0.777   3.882 -0.0239  0.0410 -0.2322
  191SAPI   H2X22012   0.466   0.862   3.901  0.7613  0.5596  0.3785
  191SAPI   H2Y22013   0.640   0.813   3.880 -1.0066  3.2187 -0.4763
  191SAPI   C2322014   0.713   0.074   3.828 -0.0975 -0.1874  0.0143
  191SAPI   H3R22015   0.774   0.014   3.757 -1.7227 -0.0929 -1.5302
  191SAPI   H3S22016   0.640   0.002   3.870  0.3828 -0.1969  0.8732
  191SAPI   C2422017   0.798   0.123   3.940 -0.6313 -0.2292  0.1946
  191SAPI   H4R22018   0.855   0.214   3.914 -1.0660  0.4570  1.5485
  191SAPI   H4S22019   0.865   0.035   3.953 -1.2108 -0.4835  1.6180
  191SAPI   C2522020   0.723   0.146   4.069  0.3057  0.8972 -0.0600
  191SAPI   H5R22021   0.644   0.072   4.089  0.5239  1.0039  1.2935
  191SAPI   C2622022   0.741   0.244   4.157 -0.4952  0.1948  0.7000
  191SAPI   H6R22023   0.682   0.239   4.250 -1.2111  0.8147  0.2926
  191SAPI   C2722024   0.848   0.351   4.159 -0.0334  0.5224 -0.1811
  191SAPI   H7R22025   0.852   0.411   4.065  0.5586  1.2354  0.2908
  191SAPI   H7S22026   0.945   0.299   4.170 -0.7916 -0.4870  2.4135
  191SAPI   C2822027   0.850   0.446   4.284  0.1443  0.7348  0.0910
  191SAPI   H8R22028   0.824   0.548   4.252 -0.0501  0.0733 -1.9765
  191SAPI   C2922029   0.861   0.411   4.414  0.4598  0.0482  0.9621
  191SAPI   H9R22030   0.850   0.482   4.497 -1.5241 -0.5621  1.2732
  191SAPI  C21022031   0.896   0.278   4.480 -0.0809 -0.4444  1.1288
  191SAPI  H10R22032   0.986   0.292   4.542  1.0880 -1.3018 -0.3180
  191SAPI  H10S22033   0.912   0.202   4.401 -1.7083  1.7106 -1.4925
  191SAPI  C21122034   0.788   0.225   4.558 -0.5745  0.7933  0.0563
  191SAPI  H11R22035   0.706   0.184   4.497  0.1051 -2.1641  0.9431
  191SAPI  C21222036   0.773   0.211   4.693  0.8771 -0.2101  1.0283
  191SAPI  H12R22037   0.684   0.161   4.735  1.0714 -1.5950 -0.0996
  191SAPI  C21322038   0.876   0.266   4.789  0.1662 -0.6523 -0.1540
  191SAPI  H13R22039   0.969   0.296   4.736  0.1923 -2.3019 -1.1071
  191SAPI  H13S22040   0.914   0.178   4.846  2.1081 -0.7049 -1.4436
  191SAPI  C21422041   0.823   0.372   4.888  0.4304 -0.8997  0.4310
  191SAPI  H14R22042   0.775   0.456   4.836  0.1368 -2.1638 -1.4497
  191SAPI  C21522043   0.829   0.357   5.021  0.8120 -1.0179  0.6866
  191SAPI  H15R22044   0.773   0.431   5.081  2.2653  1.1617 -0.4797
  191SAPI  C21622045   0.897   0.245   5.092  0.4435  0.6332  0.3173
  191SAPI  H16R22046   0.987   0.206   5.041  0.4082  0.8570  0.0844
  191SAPI  H16S22047   0.836   0.154   5.110  0.5720  0.4713 -0.0617
  191SAPI  C21722048   0.953   0.292   5.227 -0.4267 -0.2728  0.0127
  191SAPI  H17R22049   1.036   0.362   5.203 -1.4883  0.3280 -2.2981
  191SAPI  H17S22050   0.994   0.208   5.286  0.1543 -0.2540 -0.3542
  191SAPI  C21822051   0.840   0.359   5.315 -0.2635 -0.1183 -0.2002
  191SAPI  H18R22052   0.756   0.286   5.319 -1.6954  1.4178 -1.0284
  191SAPI  H18S22053   0.804   0.456   5.274  0.5878 -0.7560 -2.5789
  191SAPI  C21922054   0.900   0.403   5.449 -0.2643 -0.2398  0.6048
  191SAPI  H19R22055   0.939   0.313   5.502 -0.0360  0.6302  1.9646
  191SAPI  H19S22056   0.823   0.448   5.516 -1.5292 -0.3178 -0.7302
  191SAPI  C22022057   1.009   0.502   5.437  0.1245 -1.0951  0.1569
  191SAPI  H20R22058   0.978   0.591   5.377 -0.2843 -1.4821 -0.2096
  191SAPI  H20S22059   1.101   0.458   5.395  1.0400  0.6152  0.2662
  191SAPI  H20T22060   1.039   0.539   5.537 -3.7337 -2.4696  2.0027
  191SAPI   C3322061   0.513   0.672   3.991 -0.1906  0.3499  1.1804
  191SAPI   H3X22062   0.574   0.583   3.965 -0.0055  1.4102 -2.5465
  191SAPI   H3Y22063   0.406   0.644   3.992 -0.6097  1.3658 -2.1117
  191SAPI   C3422064   0.558   0.731   4.126 -0.1169 -0.3503 -0.4388
  191SAPI   H4X22065   0.497   0.824   4.130  1.0632  0.4017  1.4908
  191SAPI   H4Y22066   0.666   0.757   4.124 -0.4572  1.1055 -2.2831
  191SAPI   C3522067   0.515   0.666   4.259  0.3151 -0.0476 -0.0764
  191SAPI   H5X22068   0.562   0.566   4.268  0.6248 -0.0008 -1.0871
  191SAPI   H5Y22069   0.404   0.662   4.262  0.3508 -1.2226  1.6944
  191SAPI   C3622070   0.567   0.748   4.381  0.5989 -0.0151  0.3945
  191SAPI   H6X22071   0.544   0.855   4.361 -1.3042 -0.4971 -0.1742
  191SAPI   H6Y22072   0.678   0.756   4.385  0.5676  0.2183  0.9763
  191SAPI   C3722073   0.500   0.702   4.515  0.3775  0.0580 -0.5092
  191SAPI   H7X22074   0.486   0.591   4.513 -0.7615  0.1740  0.1624
  191SAPI   H7Y22075   0.404   0.758   4.517  1.2402  1.6027 -1.4285
  191SAPI   C3822076   0.582   0.738   4.645  0.6103 -0.0200  0.3850
  191SAPI   H8X22077   0.521   0.703   4.731 -0.2759 -1.8923 -0.9501
  191SAPI   H8Y22078   0.601   0.847   4.659  1.6454 -0.2986  1.2636
  191SAPI   C3922079   0.715   0.679   4.651  0.6535 -0.1345  0.7721
  191SAPI   H9X22080   0.767   0.718   4.560  0.6194  0.1229  0.8631
  191SAPI   H9Y22081   0.707   0.568   4.639 -0.9748 -0.0146  0.4721
  191SAPI  C31022082   0.790   0.718   4.773 -1.2020 -0.0326  0.6462
  191SAPI  H10X22083   0.742   0.673   4.863 -4.0269 -0.1983 -0.8467
  191SAPI  H10Y22084   0.777   0.826   4.797 -1.5488  0.4711 -1.6077
  191SAPI  C31122085   0.936   0.678   4.759 -0.8816 -0.6027 -0.0660
  191SAPI  H11X22086   0.942   0.569   4.738  0.1213 -0.3713 -1.0708
  191SAPI  H11Y22087   0.991   0.711   4.850 -0.4881  2.4282 -1.2752
  191SAPI  C31222088   1.011   0.738   4.646  0.2785 -0.0401 -0.4264
  191SAPI  H12X22089   1.014   0.849   4.653 -0.3369  0.0110 -0.9509
  191SAPI  H12Y22090   0.968   0.720   4.546  1.4658 -0.4919 -0.8765
  191SAPI  C31322091   1.156   0.687   4.644  0.1844  0.1031 -0.0259
  191SAPI  H13X22092   1.195   0.751   4.561  2.2753  2.2632  2.4257
  191SAPI  H13Y22093   1.168   0.587   4.598 -0.4666 -0.6538  1.3756
  191SAPI  C31422094   1.239   0.697   4.771 -0.3943 -0.3404 -0.2143
  191SAPI  H14X22095   1.194   0.638   4.854  3.0802 -0.8459  1.5050
  191SAPI  H14Y22096   1.223   0.803   4.800  0.3354 -0.1856 -0.3682
  191SAPI  C31522097   1.387   0.665   4.773  0.1687 -0.4166 -0.1786
  191SAPI  H15X22098   1.400   0.571   4.715 -1.3740 -0.0626 -1.1334
  191SAPI  H15Y22099   1.425   0.649   4.876 -1.8325  0.6337  0.7927
  191SAPI  C31622100   1.489   0.770   4.721  0.2683  0.5843  0.0010
  191SAPI  H16X22101   1.586   0.748   4.770  0.2661  2.0992  0.7342
  191SAPI  H16Y22102   1.477   0.872   4.764  0.3332  0.5676  0.0595
  191SAPI  C31722103   1.512   0.750   4.567 -0.4364 -0.4302  0.5795
  191SAPI  H17X22104   1.426   0.756   4.497  0.7543  0.3189 -0.8697
  191SAPI  H17Y22105   1.562   0.654   4.543  0.6294  0.5791 -1.5013
  191SAPI  C31822106   1.614   0.860   4.520  0.1480 -0.1120  0.0161
  191SAPI  H18X22107   1.650   0.820   4.423  0.0326 -1.3199  0.4501
  191SAPI  H18Y22108   1.707   0.863   4.581  0.9768 -0.7613 -1.1856
  191SAPI  H18Z22109   1.566   0.960   4.532  0.1521 -0.1712  0.5447
  192SAPI   C1222110   3.999   3.670   2.572  0.1071  0.7931  0.1756
  192SAPI    H222111   4.107   3.678   2.547  0.0392  1.4887  0.0808
  192SAPI    O222112   3.927   3.749   2.468 -0.4684  0.4102 -0.2193
  192SAPI   HO222113   3.988   3.781   2.401 -1.8117  1.8064 -0.8454
  192SAPI   C1322114   3.960   3.524   2.587 -0.1979 -0.6574 -0.6759
  192SAPI    H322115   4.007   3.485   2.679  2.3503 -1.8400 -2.3484
  192SAPI    O322116   4.013   3.453   2.479  0.4725  0.1308  0.4957
  192SAPI   HO322117   4.006   3.358   2.493 -4.0001  0.5502  3.1062
  192SAPI   C1422118   3.813   3.510   2.597  0.7296  0.2887 -0.2663
  192SAPI    H422119   3.771   3.545   2.500  0.7989  0.9745 -0.0518
  192SAPI    O422120   3.767   3.375   2.608 -0.3297  0.6226 -0.3906
  192SAPI   HO422121   3.804   3.347   2.692 -3.3213 -0.3976  0.7269
  192SAPI   C1522122   3.751   3.605   2.706  0.3044 -0.4761 -0.6815
  192SAPI    H522123   3.741   3.537   2.794  0.4346 -1.6103 -1.5147
  192SAPI    O522124   3.614   3.628   2.672 -0.4292 -0.2411 -0.1553
  192SAPI   HO522125   3.561   3.609   2.750  0.1429  0.4803  0.4279
  192SAPI   C1622126   3.836   3.724   2.757 -0.1593  0.2673 -0.5485
  192SAPI    H622127   3.783   3.810   2.711 -1.8280  0.0718  0.9136
  192SAPI    O622128   3.828   3.750   2.901 -0.6335  0.1120 -0.4015
  192SAPI   HO622129   3.837   3.670   2.953  1.9661  0.7724  0.3020
  192SAPI   C1122130   3.981   3.728   2.706 -0.1070 -0.4080  0.4265
  192SAPI    H122131   4.039   3.667   2.778  3.2452  0.3614 -1.4254
  192SAPI     P22132   4.163   3.922   2.793 -0.0893 -0.0523 -0.0626
  192SAPI   O1322133   4.166   4.066   2.767 -0.3634  0.1281  0.1345
  192SAPI   O1422134   4.284   3.844   2.752  0.1401  0.4870 -0.4697
  192SAPI   O1222135   4.027   3.864   2.724 -0.2095  0.3834 -0.4177
  192SAPI   O1122136   4.142   3.904   2.948 -0.1113 -0.3669 -0.1038
  192SAPI    C122137   4.089   4.009   3.028  0.4295 -0.4696 -0.7183
  192SAPI    HA22138   4.032   4.093   2.982  0.5093 -0.0513 -0.0676
  192SAPI    HB22139   4.032   3.968   3.114 -1.1330 -0.1981 -1.5853
  192SAPI    C222140   4.203   4.083   3.103  0.2213  0.2037  0.4580
  192SAPI    HS22141   4.278   4.119   3.030 -0.2179  1.0556  0.4144
  192SAPI   O2122142   4.258   3.982   3.197 -0.0061 -0.2067  0.2856
  192SAPI   C2122143   4.380   3.999   3.224 -0.5510 -0.1025 -0.3038
  192SAPI   O2222144   4.458   4.073   3.166 -0.5723 -0.1065 -0.7920
  192SAPI   C2222145   4.428   3.904   3.334 -0.0347  0.1198  0.0507
  192SAPI   H2R22146   4.374   3.941   3.424 -0.1913  1.1760 -0.4621
  192SAPI   H2S22147   4.400   3.797   3.324 -2.6194  0.6316  1.1659
  192SAPI    C322148   4.141   4.208   3.175 -0.0846  0.0699 -0.0520
  192SAPI    HX22149   4.056   4.158   3.227  0.9078 -1.4485  0.1811
  192SAPI    HY22150   4.105   4.281   3.099  1.1002 -0.5749 -1.2879
  192SAPI   O3122151   4.233   4.268   3.270  0.0059 -0.5484 -0.2571
  192SAPI   C3122152   4.312   4.361   3.224  0.0651  0.2308 -0.1646
  192SAPI   O3222153   4.300   4.417   3.114  0.1346 -0.5765  0.1519
  192SAPI   C3222154   4.421   4.396   3.326  0.4216  0.1238 -0.5260
  192SAPI   H2X22155   4.432   4.507   3.327  1.1726  0.0712  1.0606
  192SAPI   H2Y22156   4.515   4.344   3.295  0.0400 -0.3787 -0.8488
  192SAPI   C2322157   4.577   3.907   3.362 -0.2721  0.2868  0.2304
  192SAPI   H3R22158   4.632   3.889   3.267 -1.1599  0.9352 -0.4272
  192SAPI   H3S22159   4.597   3.812   3.417 -2.1152 -0.0386  0.4012
  192SAPI   C2422160   4.628   4.030   3.442  0.7803 -0.2429  0.3775
  192SAPI   H4R22161   4.566   4.049   3.532 -0.7646  0.3501 -0.7640
  192SAPI   H4S22162   4.609   4.116   3.375 -0.4023 -2.0503 -1.7284
  192SAPI   C2522163   4.772   4.023   3.475  0.0581 -0.2703  0.0867
  192SAPI   H5R22164   4.832   4.024   3.383  2.1014 -0.0564  1.3545
  192SAPI   C2622165   4.836   3.998   3.593 -0.3181 -0.0089 -0.2047
  192SAPI   H6R22166   4.945   3.986   3.586 -0.3507 -0.2927 -0.2668
  192SAPI   C2722167   4.773   3.980   3.733  0.6258  0.1202  0.1070
  192SAPI   H7R22168   4.755   3.872   3.753  1.9309 -0.1435 -0.0100
  192SAPI   H7S22169   4.674   4.029   3.733  0.2515 -0.5380  1.8414
  192SAPI   C2822170   4.862   4.035   3.836  0.6867 -0.2602 -0.3509
  192SAPI   H8R22171   4.933   4.116   3.812  0.4241 -0.0189 -0.3153
  192SAPI   C2922172   4.867   4.003   3.970  0.1612 -0.0105 -0.2753
  192SAPI   H9R22173   4.920   4.068   4.042 -1.9746  2.2802 -0.6310
  192SAPI  C21022174   4.771   3.909   4.036  0.6962  0.2286 -0.0650
  192SAPI  H10R22175   4.821   3.849   4.115  0.4490 -0.1488 -0.1916
  192SAPI  H10S22176   4.734   3.829   3.968  3.2258 -2.6972  1.6974
  192SAPI  C21122177   4.643   3.977   4.089  0.0355  0.2955 -0.5583
  192SAPI  H11R22178   4.558   3.975   4.020  1.0731 -0.9958 -1.8478
  192SAPI  C21222179   4.633   4.041   4.211  0.8050  0.0298  0.1388
  192SAPI  H12R22180   4.535   4.087   4.233  1.0141  0.9671 -0.8243
  192SAPI  C21322181   4.731   4.042   4.319  0.2882 -0.4170  0.3788
  192SAPI  H13R22182   4.724   4.138   4.375  0.1658 -0.5954  0.6726
  192SAPI  H13S22183   4.829   4.031   4.268  0.1682 -0.8566  0.2331
  192SAPI  C21422184   4.745   3.927   4.419  0.5250 -0.0229 -0.1089
  192SAPI  H14R22185   4.745   3.827   4.374  1.3298 -1.0170  1.9598
  192SAPI  C21522186   4.790   3.940   4.545  0.2315  0.1791 -0.7635
  192SAPI  H15R22187   4.803   3.851   4.608  1.2483  0.1160 -1.0515
  192SAPI  C21622188   4.825   4.063   4.627 -0.2022 -0.4548 -0.7607
  192SAPI  H16R22189   4.860   4.147   4.563 -1.3923 -0.4612 -1.4573
  192SAPI  H16S22190   4.905   4.049   4.702 -0.1368  1.1084 -0.5081
  192SAPI  C21722191   4.700   4.124   4.689  0.3505 -0.1913  0.2628
  192SAPI  H17R22192   4.616   4.127   4.617  0.1130  0.7181  0.5589
  192SAPI  H17S22193   4.726   4.225   4.727  0.2097  0.2711 -0.8494
  192SAPI  C21822194   4.640   4.050   4.810  0.0217  0.5488  0.0820
  192SAPI  H18R22195   4.639   3.942   4.782  0.3432  0.8571 -1.1556
  192SAPI  H18S22196   4.533   4.073   4.830 -0.4360 -1.0770 -0.3402
  192SAPI  C21922197   4.726   4.059   4.937 -0.3851  0.0422  0.5443
  192SAPI  H19R22198   4.735   4.164   4.970  0.6979  0.2785 -0.4482
  192SAPI  H19S22199   4.828   4.020   4.916 -1.1441 -0.5292 -2.5730
  192SAPI  C22022200   4.682   3.982   5.059  0.7235 -0.2042 -0.9317
  192SAPI  H20R22201   4.753   4.004   5.142  0.4391 -2.1023 -0.1426
  192SAPI  H20S22202   4.665   3.873   5.052 -1.5902 -0.0707  1.1606
  192SAPI  H20T22203   4.587   4.018   5.103  0.6219  0.2452 -1.4972
  192SAPI   C3322204   4.381   4.358   3.473 -0.1632  0.1820  0.0958
  192SAPI   H3X22205   4.361   4.248   3.471 -1.0856  0.2982 -3.5385
  192SAPI   H3Y22206   4.280   4.400   3.491 -0.0863  0.1350  0.6418
  192SAPI   C3422207   4.476   4.393   3.591 -0.0210 -0.0816  0.0466
  192SAPI   H4X22208   4.511   4.499   3.596  0.1694 -0.2173  3.0378
  192SAPI   H4Y22209   4.569   4.341   3.558  0.1930 -0.2565  0.9103
  192SAPI   C3522210   4.432   4.341   3.734  0.3385  0.9157  0.4431
  192SAPI   H5X22211   4.470   4.238   3.752  3.6095  1.6349 -1.4188
  192SAPI   H5Y22212   4.322   4.346   3.744  0.2581  0.2134 -0.0636
  192SAPI   C3622213   4.470   4.432   3.850 -0.2314 -0.6168 -0.0978
  192SAPI   H6X22214   4.441   4.537   3.828  5.2240  1.2457  0.2950
  192SAPI   H6Y22215   4.580   4.440   3.862 -0.4501  1.1666  1.1227
  192SAPI   C3722216   4.392   4.381   3.975  0.6545  0.5974 -0.2853
  192SAPI   H7X22217   4.428   4.279   3.997 -0.1189  0.0910 -1.2997
  192SAPI   H7Y22218   4.286   4.365   3.948  0.1755  0.5554  1.5016
  192SAPI   C3822219   4.393   4.470   4.100  0.4295  0.3499 -0.5061
  192SAPI   H8X22220   4.330   4.562   4.102  3.1588  2.3681  2.8444
  192SAPI   H8Y22221   4.497   4.508   4.102  0.1733  1.0955 -0.9647
  192SAPI   C3922222   4.363   4.395   4.231 -0.5250 -0.4427  0.6026
  192SAPI   H9X22223   4.441   4.317   4.243  0.4199  0.0337 -1.6917
  192SAPI   H9Y22224   4.263   4.348   4.225 -0.5022 -0.3126 -2.0396
  192SAPI  C31022225   4.361   4.490   4.355 -0.1217 -0.1934 -0.2758
  192SAPI  H10X22226   4.264   4.543   4.350  0.0699  0.1949 -0.0154
  192SAPI  H10Y22227   4.450   4.556   4.346  1.6986 -2.4855 -0.0572
  192SAPI  C31122228   4.377   4.420   4.491 -0.5089  0.2032  0.2220
  192SAPI  H11X22229   4.458   4.345   4.481 -2.2311 -1.5471 -1.9391
  192SAPI  H11Y22230   4.285   4.358   4.502 -0.9978  0.5667 -1.4869
  192SAPI  C31222231   4.370   4.504   4.620  0.1869  0.6649  0.3528
  192SAPI  H12X22232   4.275   4.563   4.615  0.8352  2.0541  2.8014
  192SAPI  H12Y22233   4.451   4.580   4.624  0.7508  0.0476  0.6653
  192SAPI  C31322234   4.374   4.406   4.746  0.3116 -0.0035 -0.3913
  192SAPI  H13X22235   4.475   4.369   4.770 -0.6672 -1.6251  1.4531
  192SAPI  H13Y22236   4.302   4.321   4.741  0.3272 -0.3857  3.2028
  192SAPI  C31422237   4.330   4.495   4.870  0.0513  0.5643  0.3794
  192SAPI  H14X22238   4.233   4.538   4.839 -0.4697 -1.8101 -1.6888
  192SAPI  H14Y22239   4.405   4.570   4.901  0.2854 -0.1391  1.5698
  192SAPI  C31522240   4.280   4.402   4.984 -0.6553  0.3001 -0.0338
  192SAPI  H15X22241   4.333   4.305   4.984 -1.1676 -0.0235  2.0576
  192SAPI  H15Y22242   4.177   4.378   4.950 -0.8661  0.4070  0.5132
  192SAPI  C31622243   4.293   4.466   5.124  0.5577  0.3689  0.1519
  192SAPI  H16X22244   4.196   4.520   5.135  1.4805  1.6726  2.4802
  192SAPI  H16Y22245   4.359   4.555   5.131 -0.0728  1.1970 -2.8471
  192SAPI  C31722246   4.315   4.363   5.231 -0.0143 -0.2760  0.5447
  192SAPI  H17X22247   4.253   4.272   5.211  0.6186 -0.8039  0.9280
  192SAPI  H17Y22248   4.268   4.392   5.327 -2.9403 -0.5926 -0.6581
  192SAPI  C31822249   4.462   4.313   5.247 -0.1185  0.2696  0.1007
  192SAPI  H18X22250   4.472   4.244   5.334  1.5111 -0.6179 -0.7524
  192SAPI  H18Y22251   4.534   4.397   5.251 -0.2302  0.4520 -1.3318
  192SAPI  H18Z22252   4.503   4.254   5.162  3.3201 -0.7822  2.2928
  193SOD    SOD22253   6.344   5.204   2.452  0.3297  0.1524  0.3221
  194SOD    SOD22254   1.803   6.769   8.342 -0.2795 -0.5701 -0.1877
  195SOD    SOD22255   4.781   2.612   8.528 -0.3067 -0.1634  0.0214
  196SOD    SOD22256   2.063   6.721   1.622 -0.4709  0.6033  0.2870
  197SOD    SOD22257   5.659   3.262   7.589  0.1707  0.3208 -0.2349
  198SOD    SOD22258   4.590   1.199   7.689 -0.3723 -0.1821  0.4000
  199SOD    SOD22259   3.322   0.044   8.227 -0.3114 -0.1654  0.1152
  200SOD    SOD22260   4.101   3.457   0.279  0.1962 -0.1510  0.0381
  201SOD    SOD22261   3.559   4.057   7.708  0.3249  1.1213  0.3940
  202SOD    SOD22262   4.043   4.453   2.511 -0.0198  0.1094  0.2424
  203SOD    SOD22263   2.390   5.560   7.410 -0.1976 -0.2813  0.3091
  204SOD    SOD22264   0.231   6.762   1.733 -0.1398  0.1687 -0.0538
  205SOD    SOD22265   5.284   4.602   0.314 -0.0739  0.3416 -0.3089
  206SOD    SOD22266   3.564   6.491   8.666 -0.4808  0.1332 -0.0550
  207SOD    SOD22267   1.441   1.795   0.040 -0.1137  0.4707 -0.1747
  208SOD    SOD22268   1.136   6.571   2.485  0.2205 -0.1505 -0.2044
  209SOD    SOD22269   2.062   2.449   7.949 -0.0913  0.2951 -0.3584
  210SOD    SOD22270   2.578   0.195   3.391  0.3442  0.0178 -0.6568
  211SOD    SOD22271   2.256   0.139   7.602  0.3152  0.4842  0.1284
  212SOD    SOD22272   1.430   3.852   2.619  0.1879  0.4290 -0.9934
  213SOD    SOD22273   4.865   0.297   2.843 -0.0923 -0.6356  0.2021
  214SOD    SOD22274   0.789   3.664   3.290  0.2236 -0.0855  0.0888
  215SOD    SOD22275   0.703   1.005   0.946  0.0903 -0.3870  0.2429
  216SOD    SOD22276   5.817   3.699   8.879 -0.3035  0.0664  0.3775
  217SOD    SOD22277   6.760   3.464   8.054  0.4636 -0.2317 -0.1209
  218SOD    SOD22278   1.840   4.955   2.329 -0.0072 -0.2101 -0.2482
  219SOD    SOD22279   4.240   2.056   1.224 -0.1617  0.1179  0.1003
  220SOD    SOD22280   3.410   6.465   1.959  0.2270  0.5211  0.4861
  221SOD    SOD22281   3.064   4.559   2.166  0.0295 -0.1543  0.3661
  222SOD    SOD22282   2.966   6.122   3.505  0.3701  0.8128  0.4263
  223SOD    SOD22283   0.337   1.451   1.118 -0.2471  0.4562  0.2183
  224SOD    SOD22284   1.733   0.548   1.547  0.6520 -0.2761 -0.5475
  225SOD    SOD22285   6.519   5.856   0.506  0.6839  0.4598 -0.2296
  226SOD    SOD22286   3.311   5.744   1.161  0.2870  0.1880 -0.0259
  227SOD    SOD22287   0.838   6.509   2.015  0.2369 -0.2478 -0.1347
  228SOD    SOD22288   3.885   1.055   7.429  0.9001 -0.4175 -0.1418
  229SOD    SOD22289   4.409   0.219   1.756  0.2714  0.3006  0.2813
  230SOD    SOD22290   2.776   4.283   2.691 -0.0378 -0.3442 -0.6049
  231SOD    SOD22291   3.986   5.152   1.650  0.1905  0.0862 -0.1408
  232SOD    SOD22292   1.838   1.868   0.515 -0.0378 -0.2141  0.1329
  233SOD    SOD22293   3.505   5.101   8.698 -0.0655 -0.6954 -0.0582
  234CLA    CLA22294   3.714   0.015   0.483 -0.0231  0.0166 -0.2005
  235CLA    CLA22295   2.987   5.977   7.968 -0.1441  0.3224 -0.3961
  236CLA    CLA22296   0.788   1.420   0.115  0.7005 -0.2209 -0.2420
  237CLA    CLA22297   0.610   3.906   2.201 -0.0710  0.3004  0.1193
  238CLA    CLA22298   3.388   5.031   1.994  0.6131 -0.4313 -0.3310
  239CLA    CLA22299   4.243   4.881   0.202  0.0051  0.0146  0.1076
  240CLA    CLA22300   2.734   3.100   0.418 -0.0458  0.2026  0.0775
  241CLA    CLA22301   5.264   0.026   1.215 -0.0065  0.4640  0.1520
  242CLA    CLA22302   1.889   0.449   1.371  0.2160  0.2130  0.0932
  243CLA    CLA22303   4.624   2.977   0.334  0.3457 -0.3152 -0.2357
  244CLA    CLA22304   4.074   2.422   8.426  0.4519  0.0903 -0.2374
  245CLA    CLA22305   2.910   6.507   1.771 -0.0470  0.5164  0.3202
  246CLA    CLA22306   3.756   0.522   2.247  0.1710 -0.1862 -0.0587
  247CLA    CLA22307   4.728   1.761   8.058  0.0641 -0.2300  0.2387
  248CLA    CLA22308   0.543   5.213   1.569  0.0064 -0.1410  0.0143
  249CLA    CLA22309   2.006   1.044   1.485  0.0224 -0.0899  0.2942
  250CLA    CLA22310   2.607   0.168   8.022  0.2568 -0.3351  0.1581
  251TIP3   OH222311   3.080   2.707   0.339 -0.2087  0.1719 -0.3612
  251TIP3    H122312   3.168   2.725   0.305  0.3209 -3.0145 -1.0171
  251TIP3    H222313   3.034   2.666   0.266 -0.7086 -2.2808  1.2186
  252TIP3   OH222314   0.707   4.267   7.703 -0.0972 -0.4460  0.6003
  252TIP3    H122315   0.644   4.334   7.732 -0.8371 -0.2742 -1.2659
  252TIP3    H222316   0.773   4.265   7.772  0.4345  2.8446  0.3772
  253TIP3   OH222317   2.636   6.135   0.691 -0.0060  0.7745  0.3237
  253TIP3    H122318   2.583   6.210   0.716 -1.0042  0.1514  0.1046
  253TIP3    H222319   2.602   6.109   0.606 -0.7088 -0.8580  1.0650
  254TIP3   OH222320   3.567   1.115   1.537  0.1452 -0.3374 -0.0542
  254TIP3    H122321   3.557   1.032   1.490  1.0581  0.5495 -1.9416
  254TIP3    H222322   3.640   1.099   1.598  1.7088 -0.3797 -1.8425
  255TIP3   OH222323   5.309   3.469   0.644  1.2317 -0.3528  0.2858
  255TIP3    H122324   5.260   3.485   0.725 -2.5158  1.1751 -2.0196
  255TIP3    H222325   5.303   3.374   0.631 -1.2493 -0.2480  0.1588
  256TIP3   OH222326   1.404   1.019   2.702  0.3522  0.0293 -0.0432
  256TIP3    H122327   1.338   0.968   2.655  0.5914 -0.1591 -0.1746
  256TIP3    H222328   1.451   0.955   2.755 -0.1644  0.2915  0.7567
  257TIP3   OH222329   2.094   6.254   2.448  0.3331 -0.3444  0.5693
  257TIP3    H122330   2.152   6.322   2.481  0.4657 -0.6844  1.0698
  257TIP3    H222331   2.035   6.298   2.387  3.2688 -0.5624 -2.6710
  258TIP3   OH222332   6.317   3.219   0.267 -0.1098 -0.4185  0.3060
  258TIP3    H122333   6.263   3.298   0.270  0.4780 -0.0519  1.8940
  258TIP3    H222334   6.356   3.220   0.179  0.1265  1.2273  0.4020
  259TIP3   OH222335   1.665   1.278   8.346 -0.6162  0.3883  0.3651
  259TIP3    H122336   1.736   1.246   8.292 -1.3439  0.6717 -0.7915
  259TIP3    H222337   1.633   1.201   8.393 -2.1318 -0.6170 -2.1150
  260TIP3   OH222338   2.893   1.899   1.799 -0.2871 -0.7546 -0.2002
  260TIP3    H122339   2.827   1.877   1.864 -0.5428 -0.6872 -0.4344
  260TIP3    H222340   2.854   1.872   1.715 -0.8449  1.0673 -0.5656
  261TIP3   OH222341   4.856   4.234   3.011  0.9859  0.3459 -0.0308
  261TIP3    H122342   4.873   4.290   2.935 -1.2495  1.4822  0.1928
  261TIP3    H222343   4.760   4.235   3.019  0.9731 -2.3108  0.9373
  262TIP3   OH222344   2.531   0.076   3.753  0.1975 -0.3044  0.5386
  262TIP3    H122345   2.507   0.163   3.786 -0.7339  0.0969 -1.1178
  262TIP3    H222346   2.447   0.031   3.742  0.3831 -0.1360 -1.9759
  263TIP3   OH222347   5.017   1.372   8.560  0.1230 -0.4204  0.7868
  263TIP3    H122348   5.010   1.300   8.498 -0.0159  1.5467 -1.6630
  263TIP3    H222349   4.975   1.340   8.639 -0.8948 -2.6517 -0.5658
  264TIP3   OH222350   4.689   0.414   2.695 -0.0829  0.8238  0.3347
  264TIP3    H122351   4.643   0.496   2.711 -2.0336 -0.2671  0.7579
  264TIP3    H222352   4.622   0.347   2.708  1.0277 -0.7561 -1.5938
  265TIP3   OH222353   6.707   6.004   0.477 -0.0516  1.1308  0.2290
  265TIP3    H122354   6.789   5.959   0.495 -0.5440  0.2069  0.1776
  265TIP3    H222355   6.729   6.097   0.484  0.3883  0.8890  2.8616
  266TIP3   OH222356   6.238   3.433   1.786 -0.0406 -0.5328 -0.0420
  266TIP3    H122357   6.232   3.352   1.735  0.0780  0.0222 -0.9638
  266TIP3    H222358   6.332   3.446   1.799 -0.0983 -1.9739  2.5153
  267TIP3   OH222359   4.216   0.117   8.715 -0.6660  0.0094 -0.3190
  267TIP3    H122360   4.257   0.203   8.719 -0.5553 -0.0509 -0.1103
  267TIP3    H222361   4.123   0.134   8.728 -0.5425  0.0190  0.6873
  268TIP3   OH222362   4.420   0.440   0.082 -0.3147 -0.1824  0.7597
  268TIP3    H122363   4.381   0.458  -0.004  0.8768  0.8190  0.4082
  268TIP3    H222364   4.496   0.386   0.062  2.1032  2.9694  0.7160
  269TIP3   OH222365   1.967   3.468   0.661 -0.2015  0.1301 -0.2375
  269TIP3    H122366   1.882   3.459   0.617  0.5047 -0.1781 -1.6052
  269TIP3    H222367   1.987   3.562   0.654  0.3178 -0.0553 -1.4075
  270TIP3   OH222368   6.574   6.634   0.666  0.4655  0.0563  0.2339
  270TIP3    H122369   6.624   6.686   0.602 -2.3109  0.8853 -1.4152
  270TIP3    H222370   6.549   6.697   0.733 -2.5791  0.9523 -1.5741
  271TIP3   OH222371   4.500   6.453   1.052  0.3838  0.0314  0.0001
  271TIP3    H122372   4.546   6.416   1.127  2.1142 -0.5957 -1.2997
  271TIP3    H222373   4.546   6.535   1.034 -0.4229  0.4891  0.0174
  272TIP3   OH222374   2.133   4.191   2.877 -0.2345  0.2464 -0.0815
  272TIP3    H122375   2.037   4.192   2.872 -0.3155  0.0702  1.2159
  272TIP3    H222376   2.152   4.203   2.969  0.9654 -1.1270 -0.1217
  273TIP3   OH222377   0.200   4.881   8.755 -0.1244  0.3666  0.0365
  273TIP3    H122378   0.210   4.819   8.827 -0.6813 -0.6116 -0.7032
  273TIP3    H222379   0.273   4.942   8.766  2.9801 -2.7335 -1.5091
  274TIP3   OH222380   6.042   4.494   2.882 -0.0570 -0.3719  0.1197
  274TIP3    H122381   5.960   4.544   2.882 -0.0368 -0.2519  2.1686
  274TIP3    H222382   6.108   4.557   2.853 -0.5753 -0.3012 -0.9571
  275TIP3   OH222383   5.159   6.690   7.581  0.2822  0.5989  0.4029
  275TIP3    H122384   5.245   6.684   7.539 -0.7912  0.1253 -1.8459
  275TIP3    H222385   5.156   6.779   7.617  0.9446  1.3528 -1.2913
  276TIP3   OH222386   6.237   2.440   8.630 -0.5575  0.3599  0.2734
  276TIP3    H122387   6.329   2.459   8.650 -0.3940 -0.2320  0.0982
  276TIP3    H222388   6.210   2.378   8.698 -0.8111  0.4786  0.2828
  277TIP3   OH222389   0.517   1.567   1.927 -0.7969  0.5139 -0.2474
  277TIP3    H122390   0.509   1.622   1.849  0.4541  0.8633 -0.1444
  277TIP3    H222391   0.604   1.586   1.961 -0.7339 -0.7843  0.3662
  278TIP3   OH222392   0.057   3.485   8.265  0.3969  0.5720 -0.4149
  278TIP3    H122393  -0.027   3.492   8.310  0.6950 -0.0184  0.2680
  278TIP3    H222394   0.113   3.438   8.328  1.9302  2.9465  0.1201
  279TIP3   OH222395   0.021   2.747   1.319 -0.0258 -0.1035  0.0128
  279TIP3    H122396  -0.070   2.723   1.304 -0.4880  1.9458 -0.9631
  279TIP3    H222397   0.064   2.732   1.234  0.2590  0.0232  0.1316
  280TIP3   OH222398   2.172   0.292   7.940  0.7261  0.1649 -0.3060
  280TIP3    H122399   2.079   0.288   7.918 -0.2417  1.4428  2.9769
  280TIP3    H222400   2.206   0.206   7.913 -2.0942 -1.5074  0.9368
  281TIP3   OH222401   3.979   1.421   3.370 -0.0368  0.1905 -0.1032
  281TIP3    H122402   4.027   1.340   3.391 -0.6847 -0.4164 -0.8904
  281TIP3    H222403   4.005   1.482   3.439  0.4908 -0.6810  0.5029
  282TIP3   OH222404   2.309   4.341   0.301 -0.5330  0.1962 -0.3720
  282TIP3    H122405   2.306   4.331   0.206 -0.3776  3.8540 -0.9211
  282TIP3    H222406   2.397   4.313   0.326 -1.0935 -2.3188 -0.9867
  283TIP3   OH222407   0.195   2.025   8.634 -0.5653  0.5190 -0.4127
  283TIP3    H122408   0.233   1.992   8.715 -1.4894 -1.1438 -0.6337
  283TIP3    H222409   0.114   2.067   8.661 -1.8980 -1.7856 -0.6386
  284TIP3   OH222410   1.360   2.335   7.889 -0.1200 -0.2559  1.0133
  284TIP3    H122411   1.419   2.409   7.873  0.3496 -1.1867 -2.1927
  284TIP3    H222412   1.273   2.370   7.870  0.0083 -0.2668  0.3765
  285TIP3   OH222413   3.927   0.262   2.780  0.0406 -0.2051  0.0521
  285TIP3    H122414   3.954   0.343   2.736 -0.7980  0.3281  0.4844
  285TIP3    H222415   3.865   0.222   2.719  1.8187 -1.5023 -1.0074
  286TIP3   OH222416   0.373   0.801   0.472  0.2733 -0.5375  0.0025
  286TIP3    H122417   0.444   0.783   0.411  0.5697 -1.2064  0.5279
  286TIP3    H222418   0.315   0.725   0.465  0.0398 -0.3791  0.1814
  287TIP3   OH222419   0.166   1.685   8.560  0.4103  0.5672 -0.5544
  287TIP3    H122420   0.206   1.639   8.486  0.6363  0.7396 -0.5435
  287TIP3    H222421   0.232   1.750   8.586  1.3950 -1.0693  1.3381
  288TIP3   OH222422   6.380   3.153   8.735  0.3534  0.3634  0.0301
  288TIP3    H122423   6.343   3.147   8.647 -1.4673  1.0300  0.6957
  288TIP3    H222424   6.328   3.092   8.787 -0.5256  2.0292  1.2112
  289TIP3   OH222425   5.425   3.125   8.434 -0.2357 -0.0318 -0.0026
  289TIP3    H122426   5.439   3.096   8.524 -0.0610  1.3675  0.4543
  289TIP3    H222427   5.471   3.209   8.429  0.1293 -0.2992 -1.5368
  290TIP3   OH222428   2.826   0.115   8.224 -0.4955 -0.4952  0.0675
  290TIP3    H122429   2.759   0.126   8.157 -0.1052  0.4695 -0.1882
  290TIP3    H222430   2.785   0.062   8.292 -0.7480 -1.9363 -1.1498
  291TIP3   OH222431   3.468   4.716   2.003 -0.0641 -0.7597 -0.1250
  291TIP3    H122432   3.432   4.805   1.997 -1.3056 -1.1958  0.4876
  291TIP3    H222433   3.541   4.724   2.064 -1.0788 -0.4066  1.0849
  292TIP3   OH222434   5.822   0.105   2.207  0.4213  0.0165 -0.0261
  292TIP3    H122435   5.758   0.108   2.278  0.9601 -0.2792  0.4802
  292TIP3    H222436   5.880   0.179   2.225 -0.0886  0.6214 -0.7937
  293TIP3   OH222437   5.658   6.681   1.431  0.0999  0.4389  0.6759
  293TIP3    H122438   5.579   6.730   1.455  0.0061  0.6586 -0.0511
  293TIP3    H222439   5.625   6.595   1.404  0.2647 -0.0449  1.9507
  294TIP3   OH222440   5.659   3.881   2.431  0.1718  0.5624  0.0641
  294TIP3    H122441   5.661   3.874   2.526  0.6872 -0.1912 -0.0016
  294TIP3    H222442   5.614   3.964   2.415 -1.0044  0.1261  0.9399
  295TIP3   OH222443   2.359   1.741   2.314 -0.4180  0.1938  0.2376
  295TIP3    H122444   2.402   1.816   2.356  2.2279 -0.2479 -1.4242
  295TIP3    H222445   2.355   1.675   2.382  0.8960  0.5363  0.6736
  296TIP3   OH222446   4.882   3.119   1.909 -0.1450  0.2682 -0.3027
  296TIP3    H122447   4.905   3.118   2.002 -0.7322 -4.0197 -0.0318
  296TIP3    H222448   4.963   3.093   1.864 -0.5400 -0.2360 -0.7274
  297TIP3   OH222449   5.857   0.455   0.501  0.0385  0.5826 -0.3845
  297TIP3    H122450   5.798   0.380   0.494 -0.2793  0.8167 -0.2739
  297TIP3    H222451   5.909   0.453   0.421  1.0292 -0.5840  0.2529
  298TIP3   OH222452   2.088   5.357   0.961  0.5559  0.0174 -0.0088
  298TIP3    H122453   2.030   5.320   0.894  0.2170  0.1565  0.2048
  298TIP3    H222454   2.033   5.419   1.008  1.0675  0.6730 -0.2547
  299TIP3   OH222455   4.211   4.421   1.410  0.3097 -0.5313 -0.0099
  299TIP3    H122456   4.306   4.431   1.420  0.2728  0.1997 -0.2941
  299TIP3    H222457   4.177   4.511   1.418 -0.5425 -0.9571  1.9053
  300TIP3   OH222458   3.382   6.170   1.218  0.4364  0.1840  0.8447
  300TIP3    H122459   3.370   6.264   1.233 -1.8556  0.3711 -1.4605
  300TIP3    H222460   3.469   6.151   1.252  1.8083  3.5713 -0.3445
  301TIP3   OH222461   1.399   5.782   8.499  0.3082  0.0033 -0.1467
  301TIP3    H122462   1.491   5.794   8.523  0.5444  1.0877 -1.4977
  301TIP3    H222463   1.401   5.758   8.407 -0.7474 -0.6240 -0.0259
  302TIP3   OH222464   1.167   3.642   3.154 -0.1183 -0.1164  0.5671
  302TIP3    H122465   1.188   3.565   3.208  0.7750 -0.5827 -0.4104
  302TIP3    H222466   1.246   3.657   3.102 -1.0443  0.1392 -0.8163
  303TIP3   OH222467   0.382   0.682   0.152  0.4343  0.5353 -0.6785
  303TIP3    H122468   0.436   0.757   0.128  2.2854 -0.6032 -0.3181
  303TIP3    H222469   0.421   0.609   0.105 -0.9514 -0.3087 -0.5472
  304TIP3   OH222470   5.906   3.379   2.771 -0.5809 -0.0480 -0.1368
  304TIP3    H122471   5.944   3.466   2.782  1.8383 -1.2288  2.2114
  304TIP3    H222472   5.857   3.363   2.852  1.2921 -1.7722  0.7739
  305TIP3   OH222473   3.123   3.650   1.167  0.7665  0.0489 -0.6906
  305TIP3    H122474   3.122   3.628   1.260 -0.6682 -2.8161 -1.2909
  305TIP3    H222475   3.035   3.628   1.136  0.6116  2.6478 -2.4337
  306TIP3   OH222476   0.115   2.910   2.976 -0.1679 -0.4662  0.5106
  306TIP3    H122477   0.118   3.005   2.987 -0.0599 -0.6461  2.2921
  306TIP3    H222478   0.073   2.877   3.056 -2.3249 -1.7927 -1.0577
  307TIP3   OH222479   6.755   4.749   2.191  0.0664  0.3046  0.1817
  307TIP3    H122480   6.680   4.731   2.134  0.0600  3.2799 -0.9280
  307TIP3    H222481   6.828   4.765   2.131  0.7502  0.8214  1.1161
  308TIP3   OH222482   4.397   1.649   8.142 -0.2284  0.2830 -0.4858
  308TIP3    H122483   4.475   1.597   8.120 -0.8379 -0.8507 -0.0288
  308TIP3    H222484   4.329   1.615   8.083 -0.4407  1.1244 -0.7364
  309TIP3   OH222485   3.059   0.445   0.941 -0.1679  0.4464 -0.8938
  309TIP3    H122486   3.110   0.374   0.981  1.0977  1.5155 -0.5458
  309TIP3    H222487   2.989   0.400   0.893 -0.3631 -0.9649  0.6167
  310TIP3   OH222488   5.498   0.539   2.368  0.2171 -0.2998 -0.1484
  310TIP3    H122489   5.417   0.553   2.417 -0.6695 -1.4259 -1.2398
  310TIP3    H222490   5.527   0.452   2.395  1.4286  0.3215  0.6841
  311TIP3   OH222491   3.775   0.266   1.597 -0.3133 -0.4899  0.1189
  311TIP3    H122492   3.693   0.259   1.547  0.3514  1.4550 -1.3503
  311TIP3    H222493   3.800   0.175   1.615 -2.0460 -1.1569 -0.6472
  312TIP3   OH222494   3.029   5.655   7.994  0.2644 -0.7083 -0.0499
  312TIP3    H122495   3.027   5.750   7.990  1.7642 -0.4674  2.6236
  312TIP3    H222496   2.941   5.630   8.021 -0.7658 -0.3313 -2.7538
  313TIP3   OH222497   2.906   6.168   0.784  0.4166  0.2629 -0.0132
  313TIP3    H122498   2.826   6.163   0.731 -0.9389  2.2038  1.6909
  313TIP3    H222499   2.955   6.241   0.745  0.7965 -0.1396 -0.3022
  314TIP3   OH222500   4.409   2.470   8.785 -0.4505 -1.0385 -0.3597
  314TIP3    H122501   4.394   2.558   8.819 -0.4208 -0.3094 -2.1508
  314TIP3    H222502   4.344   2.416   8.830 -2.1322  0.3495 -1.0050
  315TIP3   OH222503   5.836   5.648   0.560  0.3416 -1.1168 -0.0460
  315TIP3    H122504   5.754   5.661   0.513  0.8010 -1.5029 -0.9810
  315TIP3    H222505   5.903   5.644   0.492  1.1096 -1.0943  0.6796
  316TIP3   OH222506   5.513   4.393   2.342 -0.1382  0.1329  0.2615
  316TIP3    H122507   5.482   4.397   2.433 -3.1420  0.0062 -0.6449
  316TIP3    H222508   5.485   4.476   2.304 -2.2783 -1.2134 -1.4017
  317TIP3   OH222509   5.338   5.994   8.231 -0.2731 -0.0687 -0.2370
  317TIP3    H122510   5.321   6.073   8.283  1.5479 -0.0196  0.3444
  317TIP3    H222511   5.409   6.019   8.172 -0.2793 -1.0176 -0.6625
  318TIP3   OH222512   1.715   6.458   0.639 -0.0165 -0.2781 -0.5736
  318TIP3    H122513   1.777   6.527   0.664 -0.2639  0.1362 -1.1038
  318TIP3    H222514   1.713   6.461   0.544 -0.1459 -0.9235 -0.5950
  319TIP3   OH222515   1.665   6.493   0.377 -0.2853 -0.7720 -0.4776
  319TIP3    H122516   1.620   6.478   0.294 -0.3816  1.5162 -0.8995
  319TIP3    H222517   1.684   6.587   0.378  0.7796 -0.9415  1.5688
  320TIP3   OH222518   6.516   5.099   7.705  0.2685 -0.2669  0.1055
  320TIP3    H122519   6.607   5.069   7.711  0.4774  0.2863 -0.2187
  320TIP3    H222520   6.511   5.140   7.618  0.4499  2.1196  1.1594
  321TIP3   OH222521   2.176   4.835   8.622 -0.5008 -0.5224 -0.2705
  321TIP3    H122522   2.114   4.768   8.594 -0.5293 -1.0472  0.9694
  321TIP3    H222523   2.257   4.814   8.577 -0.5532 -1.3101 -0.0139
  322TIP3   OH222524   2.259   6.077   2.309 -0.1200 -0.5099 -0.5125
  322TIP3    H122525   2.223   5.992   2.335  0.6781 -0.2229  1.7728
  322TIP3    H222526   2.198   6.141   2.345  0.8681 -0.0830  0.4346
  323TIP3   OH222527   1.101   3.721   0.731  0.8208 -0.1872  0.4648
  323TIP3    H122528   1.016   3.719   0.686 -0.2630 -1.8028  2.4058
  323TIP3    H222529   1.165   3.716   0.661 -0.7425 -1.2969 -0.9799
  324TIP3   OH222530   2.730   6.589   2.655 -0.0850  0.0614  0.0537
  324TIP3    H122531   2.774   6.509   2.683  1.4660 -0.0173 -2.3452
  324TIP3    H222532   2.789   6.629   2.591 -0.8427  3.1280  1.0893
  325TIP3   OH222533   2.662   3.558   2.412 -0.1580  0.4117 -0.1448
  325TIP3    H122534   2.748   3.537   2.377 -0.3721 -0.6897 -0.0494
  325TIP3    H222535   2.630   3.629   2.356  0.7318  0.7142 -0.2852
  326TIP3   OH222536   2.654   5.362   2.344  0.0296  0.3242 -0.7031
  326TIP3    H122537   2.600   5.332   2.417 -0.7837 -0.5630 -1.6478
  326TIP3    H222538   2.719   5.294   2.332 -1.0447 -0.5047 -2.0403
  327TIP3   OH222539   0.203   3.510   8.601 -0.2505  0.3593  0.3690
  327TIP3    H122540   0.239   3.563   8.672 -0.4316  0.5587  0.3143
  327TIP3    H222541   0.273   3.506   8.536  0.4046 -0.9126  1.1067
  328TIP3   OH222542   0.336   2.179   3.543  0.3485  0.3343 -0.2605
  328TIP3    H122543   0.283   2.251   3.577 -0.1175 -0.8063  1.5803
  328TIP3    H222544   0.415   2.181   3.597  0.2818 -0.5935 -0.1261
  329TIP3   OH222545   3.127   1.156   2.489 -0.1320  0.7096  0.5741
  329TIP3    H122546   3.073   1.164   2.410 -0.0412  1.8404  0.6196
  329TIP3    H222547   3.065   1.164   2.561 -0.0917  0.5966  0.6215
  330TIP3   OH222548   3.573   1.402   0.092 -0.5360  0.1949  0.2169
  330TIP3    H122549   3.574   1.414  -0.003  0.0497 -0.1956  0.1696
  330TIP3    H222550   3.586   1.490   0.127  2.0394  0.0146 -0.1061
  331TIP3   OH222551   3.261   2.001   1.414 -0.1106 -0.4995 -0.5285
  331TIP3    H122552   3.235   1.930   1.356  1.1774  0.7887 -2.8387
  331TIP3    H222553   3.335   1.966   1.464 -0.2295 -1.1222 -0.7818
  332TIP3   OH222554   1.704   2.037   2.596  0.2283  0.2599  0.2688
  332TIP3    H122555   1.768   1.967   2.584  0.0765 -0.1473  1.5725
  332TIP3    H222556   1.757   2.114   2.620  0.3706  0.5284 -0.8472
  333TIP3   OH222557   5.666   4.494   1.294 -0.0095 -0.4703  0.1038
  333TIP3    H122558   5.576   4.520   1.313 -0.0364 -0.3208 -0.2138
  333TIP3    H222559   5.695   4.448   1.372 -0.5589 -1.0191 -0.0089
  334TIP3   OH222560   1.019   5.785   0.249 -0.0996  0.4376 -0.0769
  334TIP3    H122561   1.063   5.858   0.205  0.1256  0.7722  0.6998
  334TIP3    H222562   0.955   5.754   0.185 -0.9468  1.9974 -0.0344
  335TIP3   OH222563   0.673   2.087   1.144 -0.1439 -0.2784  0.2785
  335TIP3    H122564   0.731   2.131   1.081 -1.8124  0.1070 -1.0692
  335TIP3    H222565   0.695   1.995   1.136  0.7168 -0.0830  0.2585
  336TIP3   OH222566   2.095   4.411   2.574 -0.1555 -0.1769 -0.2125
  336TIP3    H122567   2.069   4.324   2.543 -0.4267  0.2512 -1.2110
  336TIP3    H222568   2.131   4.454   2.497  0.1539  0.5341  0.3210
  337TIP3   OH222569   2.819   2.026   0.736 -0.9236  0.1985 -0.2732
  337TIP3    H122570   2.871   2.073   0.670 -2.2720 -1.2627 -2.5165
  337TIP3    H222571   2.729   2.057   0.722 -1.4760 -1.3061 -0.2738
  338TIP3   OH222572   3.341   4.899   2.324  0.6866 -0.6708 -0.0133
  338TIP3    H122573   3.417   4.916   2.380 -0.9407  0.8881  1.8620
  338TIP3    H222574   3.359   4.949   2.244  0.2415  2.5917  1.7348
  339TIP3   OH222575   4.043   1.131   2.920  0.3698  0.0436  0.2710
  339TIP3    H122576   3.952   1.150   2.896  0.6634  0.3537 -0.6316
  339TIP3    H222577   4.045   1.143   3.015 -0.4854  0.2172  0.2796
  340TIP3   OH222578   2.735   5.947   1.939  0.1730 -0.5552  0.1422
  340TIP3    H122579   2.805   6.010   1.920 -0.8646  0.8819  0.8949
  340TIP3    H222580   2.721   5.955   2.034 -0.7608 -1.0771  0.0608
  341TIP3   OH222581   6.675   2.350   8.150 -0.2958 -0.4794  0.2096
  341TIP3    H122582   6.756   2.381   8.109 -0.5216  0.3634  0.3780
  341TIP3    H222583   6.636   2.291   8.085  0.5346 -1.0338  0.1983
  342TIP3   OH222584   3.789   2.172   1.810  0.5626 -0.1144  0.3843
  342TIP3    H122585   3.703   2.129   1.809  0.6548 -0.3195  0.9853
  342TIP3    H222586   3.852   2.100   1.820  0.6519  0.2104  2.9193
  343TIP3   OH222587   5.259   6.210   1.969  0.3586 -0.3452  0.7626
  343TIP3    H122588   5.323   6.196   2.039 -0.2112  1.6942  1.7785
  343TIP3    H222589   5.311   6.229   1.892  1.0040 -2.5997  0.5686
  344TIP3   OH222590   6.655   3.803   0.825 -0.3987  0.0367  0.1020
  344TIP3    H122591   6.569   3.776   0.795 -0.3851  0.0189  0.0790
  344TIP3    H222592   6.700   3.722   0.846 -0.5834  0.0715  0.6499
  345TIP3   OH222593   5.313   0.554   2.087  0.7958  0.4152  0.0976
  345TIP3    H122594   5.323   0.459   2.094  0.4793  0.3748 -0.0096
  345TIP3    H222595   5.403   0.587   2.086  0.9651 -0.0067 -1.6267
  346TIP3   OH222596   0.557   2.440   8.487  0.1539 -0.2064  0.1153
  346TIP3    H122597   0.576   2.397   8.403  0.1036 -0.0962  0.0471
  346TIP3    H222598   0.632   2.419   8.542  0.9992  1.0854 -0.4752
  347TIP3   OH222599   4.297   3.995   0.835 -0.3908 -0.0483 -0.3765
  347TIP3    H122600   4.318   4.027   0.922 -1.0570  0.6639 -0.4578
  347TIP3    H222601   4.236   4.060   0.800 -0.4637 -0.5443 -1.2101
  348TIP3   OH222602   4.581   6.324   1.724 -0.4071  0.6190 -0.4179
  348TIP3    H122603   4.493   6.349   1.697 -0.1662 -0.7668 -2.6978
  348TIP3    H222604   4.569   6.241   1.770 -0.5795  2.0054  2.2576
  349TIP3   OH222605   5.035   3.084   1.643  0.2985 -0.1980  0.2054
  349TIP3    H122606   5.045   2.989   1.645 -0.5932 -0.3341 -0.8725
  349TIP3    H222607   5.105   3.115   1.587  1.5469 -0.0384  1.7722
  350TIP3   OH222608   4.912   0.199   2.628  0.2099 -0.1342 -0.2003
  350TIP3    H122609   4.877   0.225   2.542 -0.3382 -2.5240 -0.7688
  350TIP3    H222610   4.969   0.124   2.609  0.6422 -0.2659  1.4566
  351TIP3   OH222611   2.856   1.617   8.700 -0.1138 -0.3583  0.6748
  351TIP3    H122612   2.828   1.530   8.729 -0.1935  0.1276  2.1418
  351TIP3    H222613   2.841   1.617   8.605  0.0498 -1.9894  0.6294
  352TIP3   OH222614   1.585   0.418   0.262 -0.0575  0.1526  0.8591
  352TIP3    H122615   1.589   0.505   0.222 -1.1131  0.1698  0.7791
  352TIP3    H222616   1.508   0.377   0.223  1.4285 -1.5183 -0.4886
  353TIP3   OH222617   1.040   0.542   2.122 -0.2268 -0.0214 -0.0462
  353TIP3    H122618   1.001   0.510   2.040 -0.2318 -1.5861  0.5409
  353TIP3    H222619   1.079   0.465   2.162 -0.1382  0.7414  1.4004
  354TIP3   OH222620   5.372   1.222   8.139  0.3511  0.4031  0.0204
  354TIP3    H122621   5.355   1.316   8.132 -1.6423  0.1273  0.3862
  354TIP3    H222622   5.449   1.215   8.196  0.1424  1.8010  0.5007
  355TIP3   OH222623   5.775   5.993   1.319 -0.4164 -0.2328  0.9127
  355TIP3    H122624   5.757   6.086   1.337 -3.3359 -0.7020  1.0305
  355TIP3    H222625   5.785   5.953   1.405 -3.0699 -0.5724  1.1750
  356TIP3   OH222626   4.257   5.424   1.750 -0.0953  0.4873 -0.0920
  356TIP3    H122627   4.217   5.481   1.815  0.9757  0.6083  0.4922
  356TIP3    H222628   4.301   5.357   1.801 -0.4272 -0.2369 -0.7460
  357TIP3   OH222629   4.764   6.013   1.583  0.4155  0.1949 -0.0338
  357TIP3    H122630   4.802   5.937   1.627  0.1070 -0.4534 -0.8816
  357TIP3    H222631   4.792   6.087   1.637  1.6826 -0.3989  0.1697
  358TIP3   OH222632   3.082   2.898   0.618  0.1008  0.2349  0.4452
  358TIP3    H122633   2.997   2.942   0.624  0.4844  1.3089 -1.1991
  358TIP3    H222634   3.066   2.819   0.567 -0.0124  0.1029  0.6825
  359TIP3   OH222635   6.479   1.529   0.462 -1.0064 -0.0967 -0.0165
  359TIP3    H122636   6.509   1.469   0.530 -0.8215  0.4222  0.3658
  359TIP3    H222637   6.432   1.597   0.510 -2.3303 -0.6031 -0.5533
  360TIP3   OH222638   2.059   2.104   8.765  0.8539  0.4088 -0.0616
  360TIP3    H122639   2.003   2.077   8.693  0.8030  0.2194  0.0468
  360TIP3    H222640   2.144   2.063   8.746  0.5726 -0.4559  0.4855
  361TIP3   OH222641   0.864   4.527   7.004 -0.6193 -0.6451  0.2582
  361TIP3    H122642   0.870   4.463   7.076 -2.4123 -2.6150 -1.2276
  361TIP3    H222643   0.776   4.564   7.011 -0.4445 -0.0985 -0.3184
  362TIP3   OH222644   1.242   2.931   7.228 -0.5184  0.1987  0.1633
  362TIP3    H122645   1.254   3.023   7.253 -0.1212 -0.0207  0.7948
  362TIP3    H222646   1.258   2.882   7.308 -0.9960 -0.4107 -0.1111
  363TIP3   OH222647   4.482   6.172   0.245  0.2338 -0.0813 -0.3433
  363TIP3    H122648   4.490   6.157   0.150 -1.6587 -0.3565 -0.4949
  363TIP3    H222649   4.483   6.084   0.283  2.7418  0.0627  0.1274
  364TIP3   OH222650   1.959   0.937   1.201 -0.2505 -0.2590 -0.4229
  364TIP3    H122651   2.004   0.951   1.284 -0.5658  0.5560 -0.3710
  364TIP3    H222652   2.026   0.902   1.143  0.0809 -0.4301  0.0527
  365TIP3   OH222653   1.297   3.644   8.747  0.6437 -0.0842  0.0242
  365TIP3    H122654   1.226   3.593   8.709  0.0992  0.7242 -0.0772
  365TIP3    H222655   1.280   3.642   8.841  0.6207 -0.0876  0.0201
  366TIP3   OH222656   6.108   1.776   0.778 -0.2608  0.1614 -0.1211
  366TIP3    H122657   6.052   1.854   0.772 -1.8100 -0.7156  1.8729
  366TIP3    H222658   6.092   1.742   0.866  3.6401 -0.0369  0.6606
  367TIP3   OH222659   0.786   1.867   2.576  0.3863 -0.0640  0.2319
  367TIP3    H122660   0.735   1.937   2.617 -1.4668 -0.2609 -1.5572
  367TIP3    H222661   0.782   1.887   2.482 -0.5670 -2.7763 -0.3827
  368TIP3   OH222662   3.509   0.894   1.415 -0.1739  0.0194  0.1224
  368TIP3    H122663   3.440   0.831   1.438 -0.2559  0.0573 -0.0206
  368TIP3    H222664   3.527   0.877   1.323 -1.9355  1.8360 -0.6479
  369TIP3   OH222665   1.791   6.504   2.326  0.5050 -0.1722  0.0097
  369TIP3    H122666   1.771   6.578   2.383 -1.3008 -0.5409 -0.0750
  369TIP3    H222667   1.887   6.502   2.321  0.6670  0.5900  2.0430
  370TIP3   OH222668   1.898   3.032   1.567  0.0489 -1.0019 -0.8766
  370TIP3    H122669   1.933   3.077   1.490  0.7766 -2.1075 -1.2189
  370TIP3    H222670   1.805   3.053   1.567  0.2017 -0.2603 -1.5364
  371TIP3   OH222671   1.586   6.116   1.702 -0.2701  0.2841 -0.0406
  371TIP3    H122672   1.661   6.169   1.729 -0.4935  1.1804 -1.1239
  371TIP3    H222673   1.509   6.170   1.723 -0.6448 -0.6460  1.1079
  372TIP3   OH222674   4.243   2.994   8.719 -0.0766  0.5269  0.5878
  372TIP3    H122675   4.237   3.074   8.667 -0.7659  0.2697  0.2640
  372TIP3    H222676   4.236   2.923   8.655  1.0880  0.1925  0.8073
  373TIP3   OH222677   1.501   4.571   1.290  0.0015  0.2441  0.4199
  373TIP3    H122678   1.433   4.551   1.226  1.9137  0.2860 -1.7360
  373TIP3    H222679   1.486   4.509   1.361 -1.6634 -0.4054 -0.4501
  374TIP3   OH222680   5.210   1.224   2.623  1.1546 -0.1307 -0.2039
  374TIP3    H122681   5.200   1.225   2.718 -0.2785 -0.3803 -0.3287
  374TIP3    H222682   5.164   1.145   2.594  0.7146  0.4528 -1.1722
  375TIP3   OH222683   4.834   6.367   7.511 -0.0732  0.4261  0.0231
  375TIP3    H122684   4.900   6.411   7.457 -0.4984  0.2018 -0.6879
  375TIP3    H222685   4.753   6.374   7.461 -0.6164  0.7660  0.9310
  376TIP3   OH222686   5.477   2.458   1.276 -0.0520 -0.1356  0.3770
  376TIP3    H122687   5.510   2.497   1.195  0.9630  1.4774  1.5192
  376TIP3    H222688   5.382   2.466   1.269 -0.0264 -0.6568 -0.9266
  377TIP3   OH222689   2.007   3.001   7.916  0.0649 -0.4440  0.1158
  377TIP3    H122690   2.024   3.005   7.822  1.2454 -3.4284  0.0738
  377TIP3    H222691   2.086   3.036   7.957 -0.5200  1.0195  0.0413
  378TIP3   OH222692   0.528   0.222   2.384 -0.7967  0.0525 -0.2542
  378TIP3    H122693   0.458   0.212   2.448  0.8043 -0.8571  1.4278
  378TIP3    H222694   0.483   0.250   2.304 -2.7899  1.8993  1.3891
  379TIP3   OH222695   0.416   5.074   0.700  0.1785  0.4688 -1.1477
  379TIP3    H122696   0.393   5.073   0.793  0.8381  0.5255 -0.9771
  379TIP3    H222697   0.341   5.034   0.656 -0.1612  0.4872 -0.5983
  380TIP3   OH222698   3.445   3.613   8.615  0.3459 -0.0579  0.6771
  380TIP3    H122699   3.510   3.676   8.583 -0.4580  1.0299  1.1304
  380TIP3    H222700   3.428   3.557   8.539 -1.6681  2.5953 -1.0126
  381TIP3   OH222701   2.354   0.584   1.514  0.1172  0.6078  0.0064
  381TIP3    H122702   2.284   0.648   1.513 -0.8556 -0.4250 -0.6218
  381TIP3    H222703   2.434   0.635   1.499 -0.3078  1.9706  2.0134
  382TIP3   OH222704   4.048   1.318   1.185 -0.3215 -0.8715 -0.0578
  382TIP3    H122705   4.111   1.249   1.163 -0.3471 -0.4220 -1.7325
  382TIP3    H222706   4.003   1.336   1.102 -2.5194 -1.0309  1.0316
  383TIP3   OH222707   0.297   6.607   2.220  0.1880  0.1692  0.0333
  383TIP3    H122708   0.312   6.540   2.287  1.3271 -0.2916 -0.6610
  383TIP3    H222709   0.204   6.629   2.229 -0.2619 -1.6326  0.1751
  384TIP3   OH222710   0.775   0.951   0.647 -0.4039 -0.1752 -0.3341
  384TIP3    H122711   0.851   0.963   0.590 -0.2355  1.8968  0.2580
  384TIP3    H222712   0.717   1.023   0.625 -0.3501  0.6807  2.0561
  385TIP3   OH222713   2.888   4.151   7.502 -0.7196  0.3956 -0.2575
  385TIP3    H122714   2.951   4.103   7.555 -2.0873 -0.9812  0.1985
  385TIP3    H222715   2.938   4.224   7.465  0.8911 -0.1217  0.8047
  386TIP3   OH222716   4.166   5.413   3.159  0.5214  0.0452 -0.4563
  386TIP3    H122717   4.229   5.427   3.229 -0.1534 -0.5254  0.2860
  386TIP3    H222718   4.087   5.460   3.188 -0.2831 -1.4827 -0.0647
  387TIP3   OH222719   4.298   6.211   7.040  0.6561 -0.0289 -0.5822
  387TIP3    H122720   4.320   6.302   7.063 -1.0181  0.2804 -0.0234
  387TIP3    H222721   4.290   6.166   7.124 -0.5196 -0.1701 -0.7551
  388TIP3   OH222722   0.585   5.732   8.849  0.2845  0.4614  0.1126
  388TIP3    H122723   0.531   5.654   8.864 -0.3561  1.3267  2.9856
  388TIP3    H222724   0.524   5.805   8.851  1.2884  1.3575  2.1911
  389TIP3   OH222725   3.353   6.640   8.309 -0.5073  0.8438  0.2431
  389TIP3    H122726   3.307   6.577   8.364  0.3980  0.7983  0.9772
  389TIP3    H222727   3.406   6.586   8.251  2.2992  0.8184  2.5892
  390TIP3   OH222728   6.502   5.587   0.847  0.6488 -0.3928  0.6602
  390TIP3    H122729   6.562   5.519   0.817 -0.5119 -0.7850 -0.8883
  390TIP3    H222730   6.424   5.539   0.875  0.5630  0.1957  1.4668
  391TIP3   OH222731   2.915   3.862   2.456  0.1100 -0.0976 -0.5339
  391TIP3    H122732   2.861   3.937   2.481  1.4230  0.9222 -0.6744
  391TIP3    H222733   2.869   3.823   2.381 -2.1345 -1.2316  1.2815
  392TIP3   OH222734   0.747   6.070   1.472  0.3253 -0.1031 -0.0572
  392TIP3    H122735   0.717   6.049   1.561  0.2063 -0.2194 -0.1258
  392TIP3    H222736   0.673   6.118   1.433 -0.3507 -1.6192 -0.7199
  393TIP3   OH222737   3.739   2.365   1.217  0.4199  0.6364  0.2978
  393TIP3    H122738   3.762   2.430   1.151 -0.6648  1.3182  0.5806
  393TIP3    H222739   3.644   2.355   1.209  0.7302 -2.3262 -1.0419
  394TIP3   OH222740   4.511   0.753   2.025  0.3471  0.0808 -0.6406
  394TIP3    H122741   4.588   0.734   1.971  1.1142  2.2849 -0.4178
  394TIP3    H222742   4.474   0.833   1.988 -0.5651  0.2517  0.5676
  395TIP3   OH222743   4.828   6.177   8.526  0.2902  1.3753  0.1795
  395TIP3    H122744   4.920   6.202   8.530  0.6382  0.0676  1.0078
  395TIP3    H222745   4.803   6.193   8.435  2.1328 -0.7643 -0.8112
  396TIP3   OH222746   6.570   2.206   8.375 -0.0133 -0.2472 -0.3792
  396TIP3    H122747   6.523   2.283   8.407  0.3088 -0.8278  1.6258
  396TIP3    H222748   6.639   2.242   8.319  0.8958  1.0657  1.4826
  397TIP3   OH222749   2.783   1.999   0.382  0.1443 -0.2524 -0.2074
  397TIP3    H122750   2.716   1.949   0.428 -0.2517  0.9717  0.5568
  397TIP3    H222751   2.843   2.028   0.451  1.3352 -1.0977 -0.8451
  398TIP3   OH222752   6.737   3.669   1.848  0.8415 -0.4718 -0.6606
  398TIP3    H122753   6.783   3.728   1.788  1.2971  1.2913  1.2875
  398TIP3    H222754   6.664   3.721   1.881 -0.5819 -2.0929 -1.1461
  399TIP3   OH222755   3.733   6.673   2.758  0.4710 -0.4646 -0.6607
  399TIP3    H122756   3.767   6.693   2.671 -0.2720  1.6085 -0.5224
  399TIP3    H222757   3.647   6.715   2.761  0.2360 -0.9856  0.8835
  400TIP3   OH222758   2.457   0.272   7.570  0.2311  0.0493 -0.1559
  400TIP3    H122759   2.526   0.209   7.591  0.0665  0.7649  3.0890
  400TIP3    H222760   2.499   0.357   7.582 -0.8407  0.4978  0.4845
  401TIP3   OH222761   0.558   3.516   8.508 -0.4035  0.2514 -0.3787
  401TIP3    H122762   0.495   3.586   8.529 -0.2738  0.4194 -0.5506
  401TIP3    H222763   0.503   3.440   8.488 -0.6149  0.7845 -1.9744
  402TIP3   OH222764   2.339   5.154   1.959  0.3633  0.4062 -0.3361
  402TIP3    H122765   2.334   5.192   1.872 -1.3308 -1.6726 -1.2241
  402TIP3    H222766   2.382   5.221   2.012  1.7059  1.6070 -2.8003
  403TIP3   OH222767   2.424   0.047   7.799  0.0645  0.0748 -0.0635
  403TIP3    H122768   2.445   0.095   7.879  0.0904  0.2742 -0.1912
  403TIP3    H222769   2.414  -0.044   7.828 -0.5262  0.2418  0.2698
  404TIP3   OH222770   6.436   6.578   2.305 -0.7007 -0.0879  0.0144
  404TIP3    H122771   6.421   6.579   2.399  0.7963  1.8075  0.2965
  404TIP3    H222772   6.518   6.530   2.293 -1.2544 -0.9599 -0.4256
  405TIP3   OH222773   3.471   5.778   1.000 -0.1707 -0.1669  0.6066
  405TIP3    H122774   3.471   5.783   0.905 -0.1864 -1.4872  0.5239
  405TIP3    H222775   3.555   5.738   1.023  0.8022  2.1093  1.3054
  406TIP3   OH222776   5.474   2.015   0.513  0.1988  0.2175 -0.6281
  406TIP3    H122777   5.411   2.075   0.473 -0.6457 -0.3729 -0.2194
  406TIP3    H222778   5.498   2.057   0.596 -0.8403 -0.2661 -0.0673
  407TIP3   OH222779   1.492   3.047   1.810 -0.3115 -0.4154 -0.0301
  407TIP3    H122780   1.585   3.065   1.825  0.3025 -2.1816 -1.4040
  407TIP3    H222781   1.459   3.018   1.895  0.9571 -1.8958 -0.0075
  408TIP3   OH222782   0.532   2.966   8.388 -0.2599  0.2809 -0.1469
  408TIP3    H122783   0.484   3.032   8.437  0.9883  0.5853  0.7317
  408TIP3    H222784   0.499   2.973   8.298 -1.4579  0.8067  0.3214
  409TIP3   OH222785   2.642   0.360   2.936  0.4989  0.3818 -0.0541
  409TIP3    H122786   2.707   0.306   2.981  0.7086  0.5634 -0.1370
  409TIP3    H222787   2.682   0.381   2.852 -0.1323 -0.4398 -0.5742
  410TIP3   OH222788   2.174   5.796   2.486 -1.1128  0.6209  0.1103
  410TIP3    H122789   2.118   5.843   2.424 -0.6181  1.5368  0.3450
  410TIP3    H222790   2.184   5.856   2.560  0.7871  0.8054 -0.2475
  411TIP3   OH222791   4.117   1.737   0.744  0.4290  0.1504 -0.1602
  411TIP3    H122792   4.106   1.692   0.660 -0.3415  0.5471 -0.2741
  411TIP3    H222793   4.192   1.693   0.784  1.0291  0.1857 -1.2015
  412TIP3   OH222794   5.215   6.371   0.169 -0.0567  0.1859  0.1376
  412TIP3    H122795   5.299   6.327   0.153  0.7799  1.3311  1.2078
  412TIP3    H222796   5.202   6.366   0.263 -1.7295 -0.8513 -0.0967
  413TIP3   OH222797   2.550   1.190   1.850  0.0100  0.6229 -0.0182
  413TIP3    H122798   2.546   1.283   1.829 -1.6450  1.0516  1.9564
  413TIP3    H222799   2.474   1.152   1.806  0.0925  0.3827  0.0434
  414TIP3   OH222800   1.299   0.271   8.043 -0.9031 -0.0409  0.3033
  414TIP3    H122801   1.218   0.253   8.092 -2.9721  1.9436 -2.1558
  414TIP3    H222802   1.303   0.366   8.038  0.9563 -0.1359 -0.6951
  415TIP3   OH222803   6.341   2.262   2.330  0.0732  0.1537 -0.3710
  415TIP3    H122804   6.401   2.323   2.373 -1.0322  0.1796  1.2127
  415TIP3    H222805   6.333   2.295   2.240 -0.3774  2.2737  0.4034
  416TIP3   OH222806   6.758   4.254   2.010 -0.0000 -0.2360  0.6002
  416TIP3    H122807   6.712   4.319   1.957  0.6116  1.0542  1.5980
  416TIP3    H222808   6.696   4.182   2.017 -1.6045  1.1246  1.2548
  417TIP3   OH222809   2.101   1.623   8.495 -0.0865  0.4403  0.6793
  417TIP3    H122810   2.122   1.585   8.409 -0.6521 -0.5912  0.9751
  417TIP3    H222811   2.064   1.709   8.474  0.3780  0.4737 -0.0707
  418TIP3   OH222812   4.405   5.945   2.547  0.2825 -1.1672 -0.0687
  418TIP3    H122813   4.408   5.956   2.452  0.0529 -1.1872 -0.0792
  418TIP3    H222814   4.457   6.017   2.581 -1.5927  0.3005 -0.1122
  419TIP3   OH222815   3.863   4.623   0.403  0.0736 -0.0765 -1.1590
  419TIP3    H122816   3.790   4.561   0.407  2.6533 -3.3721  0.0830
  419TIP3    H222817   3.837   4.687   0.337 -3.4057 -1.7179 -1.5993
  420TIP3   OH222818   2.960   6.439   2.755  0.9650 -1.0051 -0.8734
  420TIP3    H122819   2.927   6.349   2.757 -3.1457  0.1657  3.4563
  420TIP3    H222820   3.014   6.447   2.833  2.1657  0.0814 -1.7752
  421TIP3   OH222821   5.740   3.829   1.315 -0.0525  0.1908 -0.1214
  421TIP3    H122822   5.720   3.820   1.222  1.8596 -1.3113 -0.4544
  421TIP3    H222823   5.655   3.821   1.359 -0.7548 -1.2970 -1.6256
  422TIP3   OH222824   3.574   1.588   7.545 -0.0735 -0.0187 -0.0513
  422TIP3    H122825   3.552   1.495   7.548 -0.2796  0.0345  2.1174
  422TIP3    H222826   3.619   1.600   7.462 -0.7391 -1.8920 -0.7251
  423TIP3   OH222827   1.166   2.113   2.319  0.0247 -0.2155 -0.1496
  423TIP3    H122828   1.169   2.033   2.372  0.8171  0.1864  0.4399
  423TIP3    H222829   1.255   2.123   2.286 -0.2821 -0.0366 -0.9405
  424TIP3   OH222830   3.467   0.136   8.426 -0.3821  0.5941 -0.0377
  424TIP3    H122831   3.443   0.213   8.477 -1.4868  0.1872  0.0862
  424TIP3    H222832   3.556   0.154   8.395 -0.3541  1.5936  0.5895
  425TIP3   OH222833   2.261   5.800   0.738  0.1877  0.4172  0.4662
  425TIP3    H122834   2.267   5.856   0.815  0.0396  1.3253 -0.1637
  425TIP3    H222835   2.238   5.860   0.667  0.1920 -0.4236 -0.2589
  426TIP3   OH222836   0.092   4.205   1.116 -0.0454 -0.0126  0.3815
  426TIP3    H122837   0.089   4.117   1.078  0.1489  0.0179  0.2964
  426TIP3    H222838   0.008   4.244   1.092 -0.0175 -0.0743  0.1762
  427TIP3   OH222839   6.523   2.337   0.144 -0.2388 -0.2156 -0.0000
  427TIP3    H122840   6.543   2.243   0.143  1.4932  0.1246 -0.4144
  427TIP3    H222841   6.591   2.377   0.088  0.4528  1.5252  1.9510
  428TIP3   OH222842   5.835   3.400   1.770 -0.5031 -0.0526 -0.0085
  428TIP3    H122843   5.741   3.399   1.753 -0.4203 -1.5237 -0.5348
  428TIP3    H222844   5.851   3.483   1.813 -1.8507  0.7890 -1.0586
  429TIP3   OH222845   3.380   3.486   1.630  0.0958  0.7543  0.7459
  429TIP3    H122846   3.409   3.395   1.642  2.3872  1.4279  0.8008
  429TIP3    H222847   3.347   3.489   1.540 -0.3148 -0.1932  0.8511
  430TIP3   OH222848   2.336   6.280   8.728  0.0640 -0.0966  0.3443
  430TIP3    H122849   2.266   6.292   8.794  0.8103  0.9674  0.9768
  430TIP3    H222850   2.345   6.185   8.720 -1.3534 -0.2622  0.3522
  431TIP3   OH222851   6.585   1.584   2.195 -0.1805  0.2929 -0.4216
  431TIP3    H122852   6.496   1.580   2.161 -0.6697 -0.1216  0.8607
  431TIP3    H222853   6.577   1.628   2.279  0.4827 -1.5699  0.6957
  432TIP3   OH222854   3.533   5.805   2.738  0.2553  0.0328 -0.1222
  432TIP3    H122855   3.498   5.789   2.826 -0.8283  1.7003 -0.2106
  432TIP3    H222856   3.622   5.769   2.741 -0.1843 -1.0368  1.2555
  433TIP3   OH222857   3.981   5.573   2.869  0.5157  0.0621 -0.4499
  433TIP3    H122858   3.996   5.480   2.855  2.3495  0.3866 -0.8526
  433TIP3    H222859   4.032   5.594   2.947  1.1031  0.9630 -1.0613
  434TIP3   OH222860   5.968   1.581   8.446 -0.5074 -0.6579  0.1307
  434TIP3    H122861   5.878   1.614   8.441 -0.2920  0.1726  1.3262
  434TIP3    H222862   5.987   1.580   8.540  1.0536  0.1062 -0.1540
  435TIP3   OH222863   5.135   1.210   0.454  0.3294 -0.1349 -0.0186
  435TIP3    H122864   5.094   1.176   0.533  0.2152  1.5723  0.6975
  435TIP3    H222865   5.083   1.288   0.431  0.2599 -0.6643 -1.8807
  436TIP3   OH222866   1.427   0.976   0.056  0.0144 -0.4016 -0.2378
  436TIP3    H122867   1.369   1.053   0.056 -0.8441 -1.0328 -0.0325
  436TIP3    H222868   1.444   0.958  -0.036 -1.2290 -1.0178 -0.3608
  437TIP3   OH222869   2.242   6.059   6.928 -0.9302  0.2683  0.4498
  437TIP3    H122870   2.217   6.150   6.948 -1.0868  0.4813 -0.6601
  437TIP3    H222871   2.326   6.047   6.973  1.0352  2.2048 -2.3325
  438TIP3   OH222872   0.934   1.660   8.577 -0.4227 -0.5877  0.6697
  438TIP3    H122873   0.876   1.607   8.632 -1.0596 -1.2595 -0.6053
  438TIP3    H222874   0.971   1.597   8.515  0.7468  0.0509  0.7002
  439TIP3   OH222875   1.332   0.827   3.369  0.0342 -0.6678 -0.1349
  439TIP3    H122876   1.325   0.793   3.458  1.5444 -0.3356  0.1360
  439TIP3    H222877   1.243   0.854   3.347  0.2741  4.0905  3.2221
  440TIP3   OH222878   6.440   0.341   8.606  0.3967  0.0197  0.4331
  440TIP3    H122879   6.485   0.378   8.530 -0.5484  0.6518  0.1649
  440TIP3    H222880   6.476   0.388   8.681  0.2938  0.4118  0.2359
  441TIP3   OH222881   6.535   6.166   2.147 -0.4330 -0.4606 -0.2709
  441TIP3    H122882   6.606   6.109   2.117  1.0076 -2.5083  5.6653
  441TIP3    H222883   6.457   6.111   2.145  0.3205 -1.7969  2.3386
  442TIP3   OH222884   3.194   1.992   0.140  0.3758 -0.1721  0.4383
  442TIP3    H122885   3.281   2.004   0.178  0.3561  1.3961  0.0599
  442TIP3    H222886   3.163   2.081   0.122 -0.9701 -0.7365 -0.1917
  443TIP3   OH222887   0.506   2.923   0.314  0.8183 -0.5951  0.1216
  443TIP3    H122888   0.458   2.845   0.341  0.1647  0.2860  1.6620
  443TIP3    H222889   0.456   2.960   0.242 -0.6108  0.0709  1.4177
  444TIP3   OH222890   3.199   4.466   0.534 -0.0688  0.1705 -0.5460
  444TIP3    H122891   3.106   4.488   0.525 -0.1179  0.0283 -0.3839
  444TIP3    H222892   3.208   4.381   0.491 -0.0943 -0.0081 -0.2033
  445TIP3   OH222893   6.693   4.981   0.681  0.2730  0.2097 -0.5504
  445TIP3    H122894   6.626   5.037   0.641 -0.4926 -0.8614 -0.8146
  445TIP3    H222895   6.712   5.022   0.765  0.1583  1.1833 -0.9885
  446TIP3   OH222896   5.400   3.210   7.998  0.5645  0.5213  0.2919
  446TIP3    H122897   5.379   3.118   8.016 -0.6637  0.8679  0.7115
  446TIP3    H222898   5.441   3.208   7.912 -1.8819 -0.1715 -0.9740
  447TIP3   OH222899   2.179   4.642   0.050 -0.4579 -0.0958  0.6084
  447TIP3    H122900   2.123   4.705   0.096  0.3035  2.0237 -1.1672
  447TIP3    H222901   2.123   4.605  -0.018  0.1510  2.1318 -1.2626
  448TIP3   OH222902   5.710   3.811   7.706 -0.0168  0.1388 -0.4700
  448TIP3    H122903   5.688   3.817   7.613  3.8322 -1.6768 -1.7050
  448TIP3    H222904   5.648   3.746   7.742 -0.1415 -0.8299 -2.3264
  449TIP3   OH222905   3.980   0.961   2.134  0.2407 -0.4169  0.2585
  449TIP3    H122906   4.030   1.042   2.146  0.7835 -0.5032 -1.1887
  449TIP3    H222907   3.934   0.948   2.217 -1.3298  2.3631 -0.0785
  450TIP3   OH222908   6.389   4.363   8.637  0.0438  0.2675  0.3617
  450TIP3    H122909   6.468   4.368   8.583 -0.6606 -1.4728 -0.9439
  450TIP3    H222910   6.421   4.347   8.726  1.2176 -2.0213 -0.3788
  451TIP3   OH222911   0.389   1.995   0.231  0.0512 -0.2815  0.3152
  451TIP3    H122912   0.373   2.037   0.316 -0.6904 -0.4374  0.2666
  451TIP3    H222913   0.475   1.955   0.239 -0.5981 -1.5592  1.5524
  452TIP3   OH222914   0.979   4.560   2.972  0.4831  0.0128 -0.6022
  452TIP3    H122915   0.895   4.562   2.927  0.1022 -2.1958 -0.0664
  452TIP3    H222916   0.963   4.608   3.053 -0.7456 -1.6398  0.1967
  453TIP3   OH222917   4.159   2.124   1.671  0.1001  0.7679 -0.1650
  453TIP3    H122918   4.254   2.114   1.680  0.0799  0.8386  0.1503
  453TIP3    H222919   4.123   2.085   1.751 -0.1223  0.9701 -0.1659
  454TIP3   OH222920   2.785   2.645   1.413 -0.7832  0.0199  0.0777
  454TIP3    H122921   2.770   2.555   1.383 -0.7349 -0.3895  1.2141
  454TIP3    H222922   2.855   2.637   1.478  1.1282  1.2592 -1.6875
  455TIP3   OH222923   5.941   6.204   0.642  0.1173 -0.0212 -0.0437
  455TIP3    H122924   6.024   6.236   0.678  0.8578  0.9406 -2.4250
  455TIP3    H222925   5.938   6.111   0.666  1.0189  0.3263  1.5393
  456TIP3   OH222926   2.879   3.118   2.491  0.0355 -0.0866  0.3422
  456TIP3    H122927   2.896   3.103   2.584 -0.2990 -0.6522  0.3185
  456TIP3    H222928   2.882   3.213   2.481  2.0302 -0.0817  0.5398
  457TIP3   OH222929   1.951   3.033   1.835  0.0080  0.2084 -0.4354
  457TIP3    H122930   1.982   2.960   1.782 -2.7564 -0.7402 -0.9163
  457TIP3    H222931   1.932   3.103   1.771 -0.9597 -0.0581 -0.4658
  458TIP3   OH222932   0.854   3.680   2.083 -0.0571  0.2819  0.0744
  458TIP3    H122933   0.798   3.756   2.099  1.0675  1.0752  0.3853
  458TIP3    H222934   0.796   3.604   2.093 -1.0562  1.0730  0.4060
  459TIP3   OH222935   2.807   2.554   8.590 -0.0677  0.4074 -0.2062
  459TIP3    H122936   2.809   2.527   8.498  1.0138 -0.8081  0.1454
  459TIP3    H222937   2.752   2.633   8.591 -2.1857 -0.9494 -1.5045
  460TIP3   OH222938   4.346   6.441   7.182 -0.2198  0.0601 -0.4145
  460TIP3    H122939   4.266   6.492   7.194 -0.2622  0.0954 -0.8283
  460TIP3    H222940   4.414   6.507   7.166  0.2480  0.1440  1.7079
  461TIP3   OH222941   0.941   2.138   2.123 -0.0237  0.2700  0.1820
  461TIP3    H122942   0.900   2.221   2.148  1.5354  0.9426  0.6322
  461TIP3    H222943   0.993   2.113   2.199 -1.2795 -1.7282  0.4886
  462TIP3   OH222944   4.092   1.308   0.411  0.2461  0.1701  0.1525
  462TIP3    H122945   4.109   1.243   0.343  3.0426 -0.0985  0.9854
  462TIP3    H222946   4.012   1.278   0.454 -0.1925 -1.0153 -1.4047
  463TIP3   OH222947   4.682   3.169   0.092 -0.2114 -0.0909  0.2705
  463TIP3    H122948   4.677   3.106   0.164  0.3776 -0.3829  0.0587
  463TIP3    H222949   4.760   3.144   0.042  0.9804  1.7576  1.0836
  464TIP3   OH222950   5.956   2.858   8.724  0.6455 -0.5196  0.2280
  464TIP3    H122951   5.885   2.822   8.777 -0.6668 -0.2785 -1.2642
  464TIP3    H222952   5.989   2.782   8.674 -0.1051 -0.2423 -0.7216
  465TIP3   OH222953   5.187   0.737   8.386  0.4144 -0.6190 -0.7968
  465TIP3    H122954   5.267   0.776   8.420  1.4288 -1.8121 -1.7590
  465TIP3    H222955   5.143   0.809   8.339 -0.3375  0.6916  1.7113
  466TIP3   OH222956   0.850   5.269   1.220 -0.4193  0.6974  0.0181
  466TIP3    H122957   0.812   5.349   1.256 -1.7872  0.5267 -0.9495
  466TIP3    H222958   0.785   5.201   1.238  0.2639  0.0126 -0.0704
  467TIP3   OH222959   6.362   0.048   2.606 -0.5231 -0.0944 -0.7554
  467TIP3    H122960   6.419   0.038   2.530 -2.0191  0.3114 -1.9730
  467TIP3    H222961   6.372  -0.035   2.654  0.6445 -0.2500 -1.2448
  468TIP3   OH222962   6.792   0.470   8.187  0.8794 -0.7086 -0.5107
  468TIP3    H122963   6.730   0.398   8.173  0.5018 -0.2559 -1.1835
  468TIP3    H222964   6.875   0.436   8.156  0.6358 -0.7448 -1.1294
  469TIP3   OH222965   3.194   0.915   3.172  0.3527 -0.1836  0.0494
  469TIP3    H122966   3.133   0.855   3.214 -0.9509  1.1668  0.1710
  469TIP3    H222967   3.264   0.859   3.138 -1.2013 -1.8377 -0.5559
  470TIP3   OH222968   4.588   0.495   8.074  0.1589 -0.0784 -0.3313
  470TIP3    H122969   4.548   0.548   8.143 -1.1949 -1.0856 -0.2980
  470TIP3    H222970   4.516   0.476   8.014  1.0231 -0.3533 -1.3031
  471TIP3   OH222971   2.152   1.225   8.162  0.2327  0.1759 -0.0755
  471TIP3    H122972   2.111   1.300   8.120  0.2210 -0.2469 -0.8345
  471TIP3    H222973   2.171   1.255   8.251  2.0779  1.7718 -0.9144
  472TIP3   OH222974   6.708   4.082   0.732 -0.6291  0.0539 -0.1824
  472TIP3    H122975   6.621   4.121   0.724 -1.1113 -0.3593  2.3929
  472TIP3    H222976   6.760   4.127   0.665 -2.2391  1.9205 -0.2703
  473TIP3   OH222977   4.642   1.768   2.853  0.6397  0.0559  0.1436
  473TIP3    H122978   4.671   1.841   2.798  0.4197 -1.9648 -2.9293
  473TIP3    H222979   4.565   1.801   2.898 -0.1168  1.4227 -2.0108
  474TIP3   OH222980   0.232   6.212   2.132 -0.0357 -0.2978  0.2030
  474TIP3    H122981   0.160   6.230   2.192  0.1275  0.6732  0.1264
  474TIP3    H222982   0.239   6.116   2.130 -1.1261 -0.3889  0.4283
  475TIP3   OH222983   6.420   1.772   1.920  0.4524  0.0567  0.2284
  475TIP3    H122984   6.335   1.810   1.897  0.5459  0.6833  0.8585
  475TIP3    H222985   6.404   1.727   2.003  0.3881 -1.1615 -0.4252
  476TIP3   OH222986   3.771   6.534   7.688 -0.4013 -0.1594  0.1901
  476TIP3    H122987   3.718   6.555   7.611 -0.2285  0.1556  0.1569
  476TIP3    H222988   3.817   6.615   7.709 -0.9449 -0.0493  1.0170
  477TIP3   OH222989   1.892   4.587   1.705  0.5747  0.1207 -0.3651
  477TIP3    H122990   1.920   4.525   1.637 -2.0090 -1.2397 -0.3106
  477TIP3    H222991   1.842   4.653   1.657 -1.1486 -0.7730  0.1238
  478TIP3   OH222992   5.116   0.682   2.250 -0.3600 -0.4523 -0.0686
  478TIP3    H122993   5.134   0.643   2.336  0.4394  1.5938  0.7564
  478TIP3    H222994   5.192   0.659   2.197  1.0031  1.4191  0.9668
  479TIP3   OH222995   3.630   5.591   1.335 -0.0704  0.0145 -0.1489
  479TIP3    H122996   3.559   5.551   1.285  0.6543 -0.1405 -1.1029
  479TIP3    H222997   3.595   5.675   1.364 -0.3244  0.4007 -1.4763
  480TIP3   OH222998   4.206   0.307   1.643 -0.3835 -0.0851  0.0550
  480TIP3    H122999   4.129   0.320   1.699  2.0160  1.8482  3.2759
  480TIP3    H223000   4.191   0.363   1.567 -1.8917  0.7020  0.8933
  481TIP3   OH223001   1.077   0.504   2.472  0.1613 -0.2886 -0.3446
  481TIP3    H123002   1.051   0.539   2.386  1.8623 -0.0291 -0.7958
  481TIP3    H223003   1.102   0.413   2.454 -0.6824 -0.6221  0.1282
  482TIP3   OH223004   2.961   0.832   3.301  0.3499  0.1154 -0.1935
  482TIP3    H123005   2.975   0.839   3.395  1.4825  1.1867 -0.4229
  482TIP3    H223006   2.875   0.791   3.293  0.2795 -0.0908  1.2994
  483TIP3   OH223007   5.857   3.311   1.495 -0.7276 -0.0921  0.4556
  483TIP3    H123008   5.897   3.320   1.582  0.3464  0.2414 -0.0462
  483TIP3    H223009   5.799   3.387   1.488  1.4256  1.5858 -0.2254
  484TIP3   OH223010   0.554   3.104   1.721  0.0227 -0.1019  0.1329
  484TIP3    H123011   0.523   3.184   1.764  1.7244  0.3341  0.6034
  484TIP3    H223012   0.622   3.070   1.778 -0.5386 -1.8173 -0.1599
  485TIP3   OH223013   1.900   5.693   0.626 -0.3980  0.2885  0.4799
  485TIP3    H123014   1.961   5.659   0.691  1.4393  3.0665  0.3934
  485TIP3    H223015   1.865   5.615   0.582  6.0059 -1.7435 -2.1234
  486TIP3   OH223016   1.640   5.412   7.828 -0.7942  0.0049  0.3860
  486TIP3    H123017   1.568   5.469   7.803 -1.6982  0.0099  2.7472
  486TIP3    H223018   1.599   5.327   7.843  0.2203 -0.7980 -1.1380
  487TIP3   OH223019   2.512   6.238   1.125  0.2587 -0.0684  0.0485
  487TIP3    H123020   2.439   6.181   1.099  1.5102 -0.6416 -2.5130
  487TIP3    H223021   2.587   6.179   1.129  1.4953  1.2336 -2.2071
  488TIP3   OH223022   1.887   3.702   8.475  0.1521 -0.3449 -0.5265
  488TIP3    H123023   1.933   3.656   8.404  0.2972  1.4449 -1.6580
  488TIP3    H223024   1.794   3.690   8.455  0.1583 -1.2936 -0.0255
  489TIP3   OH223025   2.151   6.587   8.257  0.1382  0.4139 -0.1342
  489TIP3    H123026   2.242   6.570   8.282 -0.1326  0.2718  0.8054
  489TIP3    H223027   2.154   6.601   8.163  0.9625 -0.7964 -0.3159
  490TIP3   OH223028   6.180   6.306   0.785  0.3817 -0.3348 -0.1130
  490TIP3    H123029   6.261   6.357   0.781  0.1180  0.1529  0.5498
  490TIP3    H223030   6.165   6.292   0.878 -1.6125  1.7610 -0.0226
  491TIP3   OH223031   0.606   3.730   0.675 -0.4674  0.5417 -0.2480
  491TIP3    H123032   0.637   3.795   0.738  0.9473  1.9947 -2.3171
  491TIP3    H223033   0.555   3.781   0.612 -1.6489 -0.8276 -0.4543
  492TIP3   OH223034   5.965   6.794   0.676 -0.4617  0.4525 -0.2909
  492TIP3    H123035   6.012   6.876   0.662  2.1192 -0.4997  1.8491
  492TIP3    H223036   5.932   6.801   0.766 -1.0122 -0.4659 -0.4162
  493TIP3   OH223037   0.437   3.964   1.556  0.5908 -0.0408 -0.0741
  493TIP3    H123038   0.421   4.028   1.625  0.1439 -0.9906  0.7321
  493TIP3    H223039   0.376   3.893   1.575  0.7380 -0.4918 -1.2312
  494TIP3   OH223040   4.138   4.697   1.396  0.3592 -0.0688 -0.1782
  494TIP3    H123041   4.049   4.670   1.375  1.0493 -1.5129 -1.4817
  494TIP3    H223042   4.182   4.702   1.311  2.0996 -1.6816  0.5575
  495TIP3   OH223043   0.875   5.236   0.546  0.0947  0.0157 -0.6133
  495TIP3    H123044   0.891   5.301   0.615  0.0421 -0.4648 -0.1451
  495TIP3    H223045   0.781   5.220   0.550  0.1085 -0.0933 -0.7254
  496TIP3   OH223046   2.760   5.569   7.975  0.5914  0.0213 -0.0593
  496TIP3    H123047   2.734   5.660   7.986 -0.0017 -0.0536 -0.7299
  496TIP3    H223048   2.694   5.519   8.024  0.6798 -0.0673 -0.0298
  497TIP3   OH223049   4.877   5.378   2.180  0.5552  0.2304  0.2675
  497TIP3    H123050   4.790   5.354   2.151  1.3422 -0.3426 -1.8180
  497TIP3    H223051   4.918   5.295   2.205  2.1377 -0.4521 -3.7334
  498TIP3   OH223052   6.706   5.174   7.297  0.6336 -0.2472  0.0981
  498TIP3    H123053   6.670   5.228   7.368  0.4052  1.1686 -1.0453
  498TIP3    H223054   6.800   5.175   7.312  0.4906 -1.3280  1.2849
  499TIP3   OH223055   0.658   0.761   1.372 -0.7494  0.2037  0.0090
  499TIP3    H123056   0.650   0.754   1.467  1.3637 -2.1175  0.1289
  499TIP3    H223057   0.749   0.739   1.354 -0.6250  2.3130 -2.4836
  500TIP3   OH223058   1.348   1.947   2.476  0.1461  0.5777 -0.1288
  500TIP3    H123059   1.375   1.991   2.556  1.7536 -1.9268  0.8016
  500TIP3    H223060   1.261   1.911   2.496  0.1166  0.7860  0.1180
  501TIP3   OH223061   3.508   1.174   2.235 -0.1954  0.3160 -0.2109
  501TIP3    H123062   3.560   1.103   2.272 -0.1606 -0.1927 -1.1897
  501TIP3    H223063   3.451   1.202   2.307  0.0649 -0.4363  0.3038
  502TIP3   OH223064   0.295   6.469   8.740  0.0733  0.2573  0.0646
  502TIP3    H123065   0.330   6.445   8.655 -1.8636 -2.1270 -0.1751
  502TIP3    H223066   0.212   6.512   8.721 -0.3800 -0.2979  0.7133
  503TIP3   OH223067   4.137   3.858   8.620  0.1429 -0.3518  0.0798
  503TIP3    H123068   4.164   3.944   8.587 -0.5524 -0.3604 -0.5316
  503TIP3    H223069   4.103   3.813   8.543  0.4302 -1.1496  0.4148
  504TIP3   OH223070   5.926   0.348   1.016  0.1870 -0.1654 -0.3944
  504TIP3    H123071   5.928   0.269   1.071  2.5490 -0.1448 -0.3579
  504TIP3    H223072   5.958   0.418   1.073 -1.8604  0.8728 -0.4354
  505TIP3   OH223073   5.853   4.285   7.676 -0.5672  0.2812  0.4772
  505TIP3    H123074   5.883   4.267   7.587  0.4546  0.4845  0.7710
  505TIP3    H223075   5.759   4.300   7.667 -0.6305 -0.5611 -0.4360
  506TIP3   OH223076   1.554   5.630   2.611 -0.1728  0.1193  0.3426
  506TIP3    H123077   1.592   5.692   2.673  1.7727 -2.2768  1.7191
  506TIP3    H223078   1.480   5.591   2.658  1.1507 -1.5174  1.1688
  507TIP3   OH223079   6.208   1.408   0.775 -0.4942 -0.1679 -0.2257
  507TIP3    H123080   6.156   1.374   0.703  0.6531 -0.5041 -0.9201
  507TIP3    H223081   6.282   1.348   0.783 -0.1718  0.3179  0.7021
  508TIP3   OH223082   0.992   0.551   8.270  0.5822  0.0232 -0.1266
  508TIP3    H123083   0.946   0.472   8.241  0.8582 -0.4745  0.7691
  508TIP3    H223084   0.954   0.621   8.216 -1.0377 -0.4043  0.3861
  509TIP3   OH223085   0.288   1.955   1.106 -0.0304  0.0100 -0.4459
  509TIP3    H123086   0.323   1.887   1.047 -1.5009 -1.9640  0.8368
  509TIP3    H223087   0.211   1.988   1.060 -1.3577 -1.7468  0.3958
  510TIP3   OH223088   0.063   0.663   0.126 -0.5658  0.0596 -0.1215
  510TIP3    H123089   0.153   0.680   0.100  0.0410 -0.0874  1.6970
  510TIP3    H223090   0.009   0.710   0.062  0.7890  0.1154 -1.2550
  511TIP3   OH223091   2.874   4.346   0.307 -0.6563 -0.5611 -0.4532
  511TIP3    H123092   2.811   4.394   0.255 -0.5495  1.8566  1.4908
  511TIP3    H223093   2.959   4.380   0.279 -0.6423  1.8800  2.0994
  512TIP3   OH223094   0.711   1.167   3.102  0.7078 -0.3599  0.2591
  512TIP3    H123095   0.801   1.137   3.108  0.4580 -1.0659  0.6747
  512TIP3    H223096   0.659   1.092   3.133  0.0051  0.1430  0.3223
  513TIP3   OH223097   2.629   0.944   8.521  0.3050  0.5562 -0.3658
  513TIP3    H123098   2.645   0.960   8.429 -0.8132  0.3698 -0.6050
  513TIP3    H223099   2.699   0.991   8.567  0.9366  0.5449 -1.3030
  514TIP3   OH223100   6.139   4.249   2.499 -0.2057 -0.3709 -0.0804
  514TIP3    H123101   6.204   4.205   2.554 -0.8020 -2.3827 -0.8811
  514TIP3    H223102   6.184   4.327   2.466  1.1014 -0.6375  0.9807
  515TIP3   OH223103   1.002   5.365   8.375 -0.1170 -0.5167 -0.4009
  515TIP3    H123104   1.075   5.314   8.409  0.3538  0.2280 -0.2758
  515TIP3    H223105   1.037   5.410   8.299 -0.9094 -1.4352 -1.3425
  516TIP3   OH223106   0.203   2.879   8.300  0.6759 -0.0910 -0.4570
  516TIP3    H123107   0.119   2.900   8.341  0.9072 -0.3964  0.1906
  516TIP3    H223108   0.229   2.796   8.340  0.1400 -1.2605 -2.4017
  517TIP3   OH223109   6.391   5.077   7.389  0.3307 -0.5760 -0.0173
  517TIP3    H123110   6.423   5.023   7.317 -0.5187 -1.6447  0.3875
  517TIP3    H223111   6.373   5.162   7.348  0.2468 -1.0383 -0.9860
  518TIP3   OH223112   4.389   2.234   1.178 -0.7185 -0.7491  0.0680
  518TIP3    H123113   4.359   2.322   1.200 -2.0627 -0.8252 -1.3259
  518TIP3    H223114   4.423   2.241   1.089  3.0601 -0.8088  1.2872
  519TIP3   OH223115   4.123   6.002   1.977  0.1574 -0.4502  0.5231
  519TIP3    H123116   4.027   6.001   1.978  0.1329 -0.5303 -0.7634
  519TIP3    H223117   4.146   6.090   2.009 -0.3661 -0.0722 -0.1198
  520TIP3   OH223118   4.558   1.106   8.084 -0.7531 -0.4843 -0.1680
  520TIP3    H123119   4.498   1.032   8.078  2.5214 -3.3435 -1.0110
  520TIP3    H223120   4.632   1.074   8.135  0.4529  2.5731  0.2546
  521TIP3   OH223121   0.764   3.198   2.795 -0.0196 -0.0610 -0.0675
  521TIP3    H123122   0.750   3.149   2.875 -0.5479  0.0234 -0.1066
  521TIP3    H223123   0.741   3.288   2.817 -1.0038 -0.1824 -0.5396
  522TIP3   OH223124   4.968   4.274   8.316 -0.1392 -0.1249 -0.1083
  522TIP3    H123125   4.909   4.212   8.361 -0.0804 -0.3268 -0.3058
  522TIP3    H223126   4.968   4.351   8.372  0.5740 -0.6703  0.6635
  523TIP3   OH223127   2.309   3.503   0.694  1.0180 -0.3623 -0.0366
  523TIP3    H123128   2.343   3.456   0.618  1.5906 -1.3061  0.7583
  523TIP3    H223129   2.218   3.523   0.672  2.3323  3.6477 -2.8933
  524TIP3   OH223130   2.456   1.383   7.847  0.2607 -0.3503  0.0246
  524TIP3    H123131   2.420   1.471   7.837  0.9500 -0.0392  0.2060
  524TIP3    H223132   2.438   1.339   7.764  1.0942  0.4042 -0.5647
  525TIP3   OH223133   0.910   2.775   1.907 -0.2830  0.2592 -0.1106
  525TIP3    H123134   0.939   2.692   1.944  0.2244  0.3542 -0.2848
  525TIP3    H223135   0.819   2.783   1.935 -0.5871 -0.7264 -0.7475
  526TIP3   OH223136   1.159   6.521   0.534 -0.7608 -0.5145  0.0335
  526TIP3    H123137   1.254   6.528   0.521 -0.8263  1.4912  0.2562
  526TIP3    H223138   1.148   6.536   0.628 -1.1749 -2.8564  0.4032
  527TIP3   OH223139   0.453   2.246   1.048 -0.3537 -0.1004 -0.3958
  527TIP3    H123140   0.528   2.191   1.066  0.0299  0.5427  0.0181
  527TIP3    H223141   0.473   2.286   0.963 -0.1986  0.1074 -0.2637
  528TIP3   OH223142   1.378   2.333   8.166 -0.4129  0.1744 -0.2510
  528TIP3    H123143   1.388   2.321   8.072 -1.3927  0.0235 -0.3417
  528TIP3    H223144   1.434   2.266   8.205  1.5700  1.4772 -0.6820
  529TIP3   OH223145   2.759   0.341   2.679  0.3521 -0.0428  0.6384
  529TIP3    H123146   2.808   0.276   2.630  0.6689  0.9290 -0.3841
  529TIP3    H223147   2.710   0.390   2.613 -1.8723 -0.8455  1.6083
  530TIP3   OH223148   3.111   3.365   2.186  0.2886 -0.4830  0.4817
  530TIP3    H123149   3.090   3.271   2.189  2.4704 -1.0104  1.0418
  530TIP3    H223150   3.131   3.381   2.093  1.1839 -0.9172  0.5833
  531TIP3   OH223151   0.783   1.095   8.706  0.0958  0.3863 -0.6548
  531TIP3    H123152   0.808   1.161   8.642 -0.0493  0.1588 -0.9456
  531TIP3    H223153   0.722   1.037   8.660 -0.7938  0.7951 -0.0300
  532TIP3   OH223154   0.981   5.009   8.595  0.5953  0.4016  0.8336
  532TIP3    H123155   0.930   4.935   8.629 -1.7627  1.2396 -0.5956
  532TIP3    H223156   1.021   4.975   8.514 -1.1404  0.8090 -0.2595
  533TIP3   OH223157   5.123   6.507   1.771 -0.1968 -0.0107  0.1206
  533TIP3    H123158   5.076   6.537   1.694 -2.1389 -0.3880  1.1050
  533TIP3    H223159   5.192   6.450   1.737 -0.8288  0.0646 -1.3305
  534TIP3   OH223160   1.753   3.055   2.012  0.5287 -0.6637 -0.0305
  534TIP3    H123161   1.808   3.034   1.937  1.3408 -0.5463  0.5256
  534TIP3    H223162   1.764   2.981   2.072  1.1400 -0.0157  0.6718
  535TIP3   OH223163   6.322   6.719   0.862  0.9551 -0.4653  0.7906
  535TIP3    H123164   6.276   6.702   0.944 -0.0448 -0.9925  0.1346
  535TIP3    H223165   6.384   6.789   0.883 -0.5615  0.6880  1.5442
  536TIP3   OH223166   4.216   3.664   0.269  0.3158  0.1930  0.2354
  536TIP3    H123167   4.199   3.728   0.339 -1.0693  0.8238 -0.6326
  536TIP3    H223168   4.308   3.678   0.247  0.4160  0.9148  1.0167
  537TIP3   OH223169   1.129   6.469   0.060 -0.0751 -0.5270 -0.3634
  537TIP3    H123170   1.197   6.509   0.113 -1.0050  0.4131  0.1772
  537TIP3    H223171   1.082   6.411   0.120 -0.5406 -0.1835 -0.3852
  538TIP3   OH223172   2.124   0.875   2.249 -0.2159 -0.1534 -0.1119
  538TIP3    H123173   2.143   0.785   2.274 -1.3385 -0.6447 -0.9339
  538TIP3    H223174   2.182   0.928   2.304 -0.9886 -1.2582  1.8777
  539TIP3   OH223175   2.596   3.208   0.665 -0.5287  0.0290  0.1578
  539TIP3    H123176   2.644   3.167   0.594 -1.1892 -0.4701 -0.0159
  539TIP3    H223177   2.630   3.298   0.669 -0.9128  0.2602 -1.1966
  540TIP3   OH223178   2.578   0.530   7.752  0.4193 -0.2794  0.1506
  540TIP3    H123179   2.560   0.624   7.745 -1.2115 -0.5148  0.7567
  540TIP3    H223180   2.502   0.494   7.797  1.7606 -1.6596  1.4329
  541TIP3   OH223181   4.426   0.893   2.720 -0.0288  0.7108 -0.0975
  541TIP3    H123182   4.495   0.941   2.766  1.1141  0.8394 -1.8297
  541TIP3    H223183   4.435   0.921   2.629 -0.8261 -1.0797 -0.7666
  542TIP3   OH223184   6.318   3.971   3.476 -0.1978  0.0642 -0.1624
  542TIP3    H123185   6.291   4.044   3.532 -1.2589  0.4250 -1.1002
  542TIP3    H223186   6.286   3.893   3.520 -0.6095  0.3035 -0.0331
  543TIP3   OH223187   3.520   0.215   1.455  0.3860 -0.1145 -0.7011
  543TIP3    H123188   3.447   0.209   1.393  1.2393 -0.4322 -1.7176
  543TIP3    H223189   3.486   0.266   1.528 -0.2344  1.5804 -2.0943
  544TIP3   OH223190   2.100   3.946   2.154 -0.2740  0.1095  0.4784
  544TIP3    H123191   2.126   3.925   2.243  0.2112 -1.7064 -0.0555
  544TIP3    H223192   2.017   3.899   2.141  0.8895 -1.7248 -0.7868
  545TIP3   OH223193   5.489   4.149   0.786  0.3555 -0.0748 -0.3647
  545TIP3    H123194   5.517   4.135   0.696  0.8376 -1.6966 -0.0019
  545TIP3    H223195   5.498   4.244   0.800  0.4683  0.1646 -1.9360
  546TIP3   OH223196   4.404   0.688   1.310 -0.2553 -0.8221  0.0763
  546TIP3    H123197   4.457   0.693   1.231 -0.0991 -0.3926  0.2037
  546TIP3    H223198   4.456   0.732   1.377 -1.7413  1.7928 -0.3387
  547TIP3   OH223199   6.745   5.512   0.249 -0.1482  0.1174 -0.9969
  547TIP3    H123200   6.819   5.490   0.306 -0.4902  1.6698  0.1232
  547TIP3    H223201   6.724   5.431   0.203  0.4998 -1.0663  0.7128
  548TIP3   OH223202   0.299   6.003   1.209  0.0410  0.0325  0.1824
  548TIP3    H123203   0.212   5.967   1.192 -0.1040 -0.4674  1.8227
  548TIP3    H223204   0.358   5.947   1.159 -0.5366  0.1961 -0.7143
  549TIP3   OH223205   5.274   6.307   0.591  0.5314 -0.7126  0.2627
  549TIP3    H123206   5.286   6.343   0.678  1.1541 -0.5615  0.1160
  549TIP3    H223207   5.319   6.368   0.533  2.6236 -2.2812  0.1185
  550TIP3   OH223208   1.927   5.211   0.037 -0.0800 -0.1161 -0.1868
  550TIP3    H123209   1.956   5.153   0.108 -0.4246 -1.8968 -1.4373
  550TIP3    H223210   2.005   5.223  -0.017  0.1003  0.9879  0.2827
  551TIP3   OH223211   2.681   6.287   2.276  0.0945 -0.0481 -0.2477
  551TIP3    H123212   2.668   6.291   2.181  0.5231  1.0948 -0.2696
  551TIP3    H223213   2.604   6.332   2.312 -0.3139 -0.9037 -0.0174
  552TIP3   OH223214   0.318   2.124   0.450  0.1883  0.2497 -0.1668
  552TIP3    H123215   0.316   2.220   0.440  0.3285  0.0583 -2.5450
  552TIP3    H223216   0.227   2.099   0.464 -0.0235  0.6408 -0.8020
  553TIP3   OH223217   5.599   5.937   2.786  0.6910  0.3594  0.1280
  553TIP3    H123218   5.623   5.868   2.847  0.5098 -0.3248 -0.5699
  553TIP3    H223219   5.561   6.005   2.842 -2.2882 -1.4681  0.5481
  554TIP3   OH223220   4.358   6.221   2.854 -0.3685  0.5512  0.2023
  554TIP3    H123221   4.320   6.227   2.942  0.5354  0.9198  0.5768
  554TIP3    H223222   4.439   6.172   2.866  0.4197  1.7170 -0.2040
  555TIP3   OH223223   3.570   3.116   3.459  0.3566 -0.1374  0.1161
  555TIP3    H123224   3.501   3.182   3.448  0.6037  0.4279  1.6898
  555TIP3    H223225   3.643   3.149   3.406 -0.2866 -0.3294 -0.9204
  556TIP3   OH223226   3.323   0.937   0.037  0.7933 -0.1645 -0.1767
  556TIP3    H123227   3.252   0.995   0.010  0.9637 -0.0087 -0.2915
  556TIP3    H223228   3.359   0.902  -0.045  0.0498 -1.2176 -0.0813
  557TIP3   OH223229   5.732   5.139   1.695 -0.1755 -0.2174 -0.1525
  557TIP3    H123230   5.810   5.190   1.718 -0.8294  0.6529  0.2353
  557TIP3    H223231   5.727   5.071   1.762 -0.6650  0.7533  0.8211
  558TIP3   OH223232   2.588   1.038   0.128 -0.1638  0.2067 -0.6493
  558TIP3    H123233   2.561   1.043   0.220 -1.3004 -0.7063 -0.9114
  558TIP3    H223234   2.583   0.945   0.106  0.2642  0.3913 -1.5958
  559TIP3   OH223235   4.063   1.151   8.796  0.0664 -0.4469  0.3229
  559TIP3    H123236   4.092   1.180   8.710 -2.9405  1.5678 -0.1683
  559TIP3    H223237   4.047   1.057   8.786  1.6600 -0.6518 -0.6725
  560TIP3   OH223238   1.271   0.919   1.429  0.4919  0.0803 -0.6629
  560TIP3    H123239   1.327   0.960   1.363 -1.2233  0.9033 -1.6673
  560TIP3    H223240   1.283   0.974   1.507 -1.4990  2.4532 -1.8830
  561TIP3   OH223241   2.012   2.873   8.369  0.2512 -0.1304 -0.4471
  561TIP3    H123242   2.036   2.799   8.425 -1.9419  0.6408  1.6530
  561TIP3    H223243   2.075   2.942   8.392 -2.3941  1.2870  3.7344
  562TIP3   OH223244   0.989   0.033   3.592  0.0917  0.1720 -0.3503
  562TIP3    H123245   0.924   0.092   3.555 -0.0306  0.8720  0.9248
  562TIP3    H223246   0.960  -0.055   3.565 -1.2494  0.4875 -0.0095
  563TIP3   OH223247   6.617   3.598   0.509  0.0355  0.4657  0.1389
  563TIP3    H123248   6.600   3.507   0.486 -0.8650  0.9593 -1.3270
  563TIP3    H223249   6.576   3.610   0.595 -0.3386 -0.3620  0.0826
  564TIP3   OH223250   0.869   6.166   1.784 -0.1245 -0.1963  0.0949
  564TIP3    H123251   0.833   6.238   1.731  2.7549  1.6612  0.4410
  564TIP3    H223252   0.960   6.158   1.755  0.8096 -0.8895  2.9012
  565TIP3   OH223253   5.771   5.977   1.591 -0.0056 -0.5977 -0.2103
  565TIP3    H123254   5.821   5.897   1.606 -0.4415 -0.7473  0.5019
  565TIP3    H223255   5.761   6.015   1.678  1.4342  0.9937 -0.6916
  566TIP3   OH223256   5.251   0.089   8.654  0.1995 -0.2721 -0.0806
  566TIP3    H123257   5.214   0.143   8.724  0.7661 -0.8501  0.6825
  566TIP3    H223258   5.230  -0.001   8.680  0.1244 -0.4826 -0.8324
  567TIP3   OH223259   1.113   3.815   1.509  0.2615 -0.0770 -0.2675
  567TIP3    H123260   1.192   3.811   1.456  0.8872 -0.3254  0.6564
  567TIP3    H223261   1.136   3.769   1.590  0.2491  2.6577  1.3965
  568TIP3   OH223262   4.409   3.218   8.288  0.6485 -0.3969 -0.0653
  568TIP3    H123263   4.468   3.229   8.213 -1.2237  1.1204 -1.4313
  568TIP3    H223264   4.351   3.146   8.262  0.6840 -0.6044  0.4253
  569TIP3   OH223265   4.507   4.402   1.890 -0.2355 -0.0673 -0.6851
  569TIP3    H123266   4.504   4.362   1.803 -0.9242  0.9982 -1.1787
  569TIP3    H223267   4.458   4.484   1.880 -1.6954 -0.6505  1.0975
  570TIP3   OH223268   2.483   3.492   7.856 -0.2410  0.5829 -0.0492
  570TIP3    H123269   2.553   3.550   7.824 -0.9458  1.0609 -0.7636
  570TIP3    H223270   2.425   3.482   7.781  0.1818 -1.5855 -0.1582
  571TIP3   OH223271   0.385   4.942   1.475 -0.0250 -0.3841  0.1317
  571TIP3    H123272   0.414   5.010   1.536  0.8000 -0.2974 -0.3400
  571TIP3    H223273   0.364   4.990   1.395 -1.0396 -0.5056  0.3160
  572TIP3   OH223274   4.659   2.210   1.799  0.3512  0.3523 -0.0177
  572TIP3    H123275   4.704   2.165   1.728  0.5404 -0.7558  0.7705
  572TIP3    H223276   4.613   2.140   1.846  0.1112  1.0851  0.8609
  573TIP3   OH223277   4.307   1.613   0.915  0.1963  0.1772 -0.2669
  573TIP3    H123278   4.304   1.575   1.003 -1.4883 -1.6384 -1.0201
  573TIP3    H223279   4.392   1.588   0.880  0.6277  0.3916  0.5994
  574TIP3   OH223280   1.632   1.937   0.387  0.3374  0.0937 -0.3184
  574TIP3    H123281   1.618   2.027   0.360 -0.5611 -0.2241 -0.9600
  574TIP3    H223282   1.556   1.916   0.442 -0.3700 -0.8026 -1.5928
  575TIP3   OH223283   3.041   5.015   0.297  0.1985 -0.2272 -0.0060
  575TIP3    H123284   3.060   5.104   0.265 -0.3262 -0.3886 -0.7801
  575TIP3    H223285   3.123   4.967   0.283  0.2392 -0.0719 -0.3080
  576TIP3   OH223286   5.330   3.107   0.154  0.0494  0.0189 -0.2593
  576TIP3    H123287   5.244   3.088   0.190  0.4484  1.7611  1.8049
  576TIP3    H223288   5.315   3.177   0.090 -0.2430 -0.8418 -1.1572
  577TIP3   OH223289   5.963   2.481   8.208  0.5232  0.1334 -0.4045
  577TIP3    H123290   5.938   2.420   8.278  1.8117 -0.2422 -0.2398
  577TIP3    H223291   6.052   2.508   8.231 -0.2699  2.7480 -0.0421
  578TIP3   OH223292   4.235   3.485   1.633  0.0275 -0.2422 -0.7560
  578TIP3    H123293   4.320   3.523   1.658 -0.7201  1.1967 -0.2916
  578TIP3    H223294   4.245   3.391   1.649  1.0533  0.0947  0.7489
  579TIP3   OH223295   2.295   0.129   8.245  0.2817  0.1528 -0.1865
  579TIP3    H123296   2.281   0.072   8.169  0.7350  0.1484 -0.2727
  579TIP3    H223297   2.382   0.167   8.230  0.6561 -0.3440  0.6449
  580TIP3   OH223298   3.183   2.617   7.904 -0.0228 -0.6591 -0.7027
  580TIP3    H123299   3.263   2.616   7.956 -0.0774 -0.4291 -0.6182
  580TIP3    H223300   3.140   2.700   7.925 -0.0206 -0.5411 -1.1482
  581TIP3   OH223301   4.548   1.244   3.837 -0.1113  0.3963  0.1665
  581TIP3    H123302   4.475   1.293   3.874 -0.3045  2.3088 -2.5062
  581TIP3    H223303   4.510   1.160   3.811 -0.9298  0.6770  0.4273
  582TIP3   OH223304   1.970   1.747   1.860 -0.4394  0.1482 -0.1138
  582TIP3    H123305   2.039   1.814   1.864  1.1744 -1.2984 -1.9999
  582TIP3    H223306   1.949   1.729   1.952  1.7594  0.6125  0.5309
  583TIP3   OH223307   3.569   2.801   3.287 -0.1958 -0.3449 -0.1200
  583TIP3    H123308   3.548   2.751   3.208 -0.3858 -0.3043 -0.0956
  583TIP3    H223309   3.580   2.891   3.257 -1.5736 -0.0808  0.0805
  584TIP3   OH223310   4.273   5.777   8.375  0.0172 -0.0775 -0.3793
  584TIP3    H123311   4.279   5.750   8.284 -5.2975 -0.8709 -0.8615
  584TIP3    H223312   4.243   5.867   8.372 -2.6939 -0.8540  0.2956
  585TIP3   OH223313   6.251   1.874   8.497  0.5675  0.5009  0.4225
  585TIP3    H123314   6.215   1.803   8.444  0.7416 -0.2223  1.2448
  585TIP3    H223315   6.263   1.946   8.436 -0.0705 -0.0152 -0.3376
  586TIP3   OH223316   5.660   2.080   2.727  0.2716  0.2627 -0.6340
  586TIP3    H123317   5.579   2.073   2.677 -0.1099  1.0636 -0.1462
  586TIP3    H223318   5.726   2.101   2.661  0.0416 -0.1140 -0.9938
  587TIP3   OH223319   4.137   3.986   2.430  0.1512 -0.1436 -0.1196
  587TIP3    H123320   4.151   4.028   2.514 -0.3728  0.8420 -0.5090
  587TIP3    H223321   4.218   3.939   2.413  0.0468 -0.8632  1.2059
  588TIP3   OH223322   4.683   0.140   2.852 -0.0167  0.2276  0.6512
  588TIP3    H123323   4.597   0.109   2.823  1.4106 -1.3939 -2.2711
  588TIP3    H223324   4.697   0.096   2.936 -1.8957  0.3515  1.0820
  589TIP3   OH223325   1.673   4.928   1.025 -0.4961 -0.4296  0.2370
  589TIP3    H123326   1.595   4.898   1.072 -1.3173 -0.2582 -0.9640
  589TIP3    H223327   1.687   4.862   0.957  0.8671 -0.8478  0.8856
  590TIP3   OH223328   5.195   0.666   8.710 -0.4152  0.0094  0.7460
  590TIP3    H123329   5.109   0.701   8.733 -1.4934 -2.1425  0.2924
  590TIP3    H223330   5.202   0.678   8.615 -0.7216 -0.7725  0.6129
  591TIP3   OH223331   1.881   3.127   8.148 -0.3461 -0.3421  0.2104
  591TIP3    H123332   1.959   3.142   8.096  0.1462 -1.0515  0.7227
  591TIP3    H223333   1.835   3.211   8.147  0.7288  0.2740  0.4031
  592TIP3   OH223334   5.245   5.928   2.630  0.1211 -0.1273 -0.8143
  592TIP3    H123335   5.154   5.904   2.614 -0.3942  0.8169  0.5290
  592TIP3    H223336   5.254   6.015   2.593 -0.2411  0.7978  1.1358
  593TIP3   OH223337   2.803   0.780   1.496 -0.5589  0.3376 -0.1661
  593TIP3    H123338   2.860   0.796   1.571 -1.3594  2.0710  0.1102
  593TIP3    H223339   2.835   0.697   1.459  2.7706  1.6552 -0.6058
  594TIP3   OH223340   5.450   2.034   8.777  0.1809  0.5269 -0.5931
  594TIP3    H123341   5.404   1.964   8.822  2.4798  0.0150  1.1669
  594TIP3    H223342   5.482   1.995   8.696  0.5986 -0.1846 -0.0907
  595TIP3   OH223343   2.177   5.593   1.185 -0.4175  0.8797 -0.0909
  595TIP3    H123344   2.217   5.666   1.137  0.8821  0.5739  0.4638
  595TIP3    H223345   2.091   5.582   1.145 -0.5194  2.5172 -0.3838
  596TIP3   OH223346   5.017   6.560   2.017  0.6475  0.1924 -0.1487
  596TIP3    H123347   4.938   6.605   1.987  0.7048 -0.4053 -1.2763
  596TIP3    H223348   5.063   6.538   1.936  1.9377  0.4673  0.4996
  597TIP3   OH223349   4.196   5.994   6.894 -0.0230  0.4019  0.6955
  597TIP3    H123350   4.187   6.010   6.799 -2.0027  0.8703  0.9113
  597TIP3    H223351   4.245   6.070   6.926 -2.7041  2.3841  0.5401
  598TIP3   OH223352   2.786   2.982   7.962  0.2434  0.4863  0.1384
  598TIP3    H123353   2.813   3.052   7.902 -2.4150  1.9186  0.4594
  598TIP3    H223354   2.725   2.929   7.911  4.2091 -3.5559 -1.0542
  599TIP3   OH223355   3.245   2.674   1.719 -0.4886 -0.9172 -0.1855
  599TIP3    H123356   3.285   2.760   1.708 -1.1164 -0.3892  1.3665
  599TIP3    H223357   3.311   2.612   1.686  0.1925  0.1053 -0.8042
  600TIP3   OH223358   2.501   2.707   2.354 -0.0091 -0.0944  0.7072
  600TIP3    H123359   2.443   2.667   2.290  0.0419  0.8643  0.0298
  600TIP3    H223360   2.482   2.801   2.347  1.7609  0.2776  0.2837
  601TIP3   OH223361   5.000   4.164   0.283 -0.4924  0.3402  0.0893
  601TIP3    H123362   5.011   4.153   0.188  1.4629 -0.6295  0.3727
  601TIP3    H223363   4.998   4.075   0.317 -1.0335  0.6874  0.9719
  602TIP3   OH223364   1.541   3.707   0.364 -0.4401 -0.1216  0.7138
  602TIP3    H123365   1.618   3.652   0.351 -0.2610  0.3122 -0.1168
  602TIP3    H223366   1.576   3.793   0.389 -0.5515  0.5839 -1.4142
  603TIP3   OH223367   0.228   3.720   7.126 -0.1745 -0.5211  0.1152
  603TIP3    H123368   0.197   3.754   7.209  0.8241  0.8408 -0.0387
  603TIP3    H223369   0.202   3.785   7.061 -0.6395 -1.3987 -0.6048
  604TIP3   OH223370   5.780   3.430   8.686  0.3572 -0.2405 -0.7890
  604TIP3    H123371   5.753   3.389   8.604 -1.3119 -0.5659 -0.1024
  604TIP3    H223372   5.751   3.369   8.754 -3.5877  2.5923  0.3913
  605TIP3   OH223373   6.745   5.041   2.308  0.4206  0.1917 -0.4310
  605TIP3    H123374   6.826   5.004   2.271  0.5356  0.5386 -0.5316
  605TIP3    H223375   6.771   5.072   2.394  0.9228  2.1874 -1.2428
  606TIP3   OH223376   0.535   5.129   1.013  0.2670  0.2030 -0.0539
  606TIP3    H123377   0.499   5.054   0.966 -1.5556  0.6683  0.4963
  606TIP3    H223378   0.553   5.097   1.101  0.9897  0.0269 -0.2646
  607TIP3   OH223379   2.072   4.804   1.734 -0.6494  0.0478 -0.5861
  607TIP3    H123380   2.043   4.714   1.721 -1.3823  0.0750  0.6735
  607TIP3    H223381   2.080   4.814   1.829  3.8972 -0.0285 -0.7360
  608TIP3   OH223382   1.456   4.608   8.884  0.2419 -0.1477  0.2789
  608TIP3    H123383   1.470   4.694   8.845 -0.9998  0.1167  0.3713
  608TIP3    H223384   1.543   4.582   8.916  0.5309  1.3245  0.7858
  609TIP3   OH223385   4.374   4.914   2.493  0.0916 -0.4166 -0.1791
  609TIP3    H123386   4.369   4.913   2.589  0.8526  1.2716 -0.0778
  609TIP3    H223387   4.418   4.997   2.473 -0.1191 -0.7147 -1.9971
  610TIP3   OH223388   1.981   4.658   8.547 -0.3303 -0.4125  0.5456
  610TIP3    H123389   1.971   4.563   8.537 -0.8687 -0.2280 -0.8798
  610TIP3    H223390   1.926   4.695   8.479  0.4689  0.9214  0.5959
  611TIP3   OH223391   5.609   5.643   0.805  0.2044  0.2210  0.0247
  611TIP3    H123392   5.575   5.647   0.715 -1.0690 -0.5627  0.4516
  611TIP3    H223393   5.585   5.556   0.835  0.2936  0.6109  1.2590
  612TIP3   OH223394   1.085   3.925   8.736  0.1638 -0.3734 -0.1376
  612TIP3    H123395   1.076   3.848   8.679 -0.7935 -0.7991  0.5580
  612TIP3    H223396   1.177   3.923   8.764  0.0505 -1.5213  0.2111
  613TIP3   OH223397   0.531   4.088   8.470  0.0788 -0.8380  0.3391
  613TIP3    H123398   0.551   4.111   8.561  0.1624 -1.5231  0.5005
  613TIP3    H223399   0.581   4.007   8.455 -2.5842 -2.6935  0.7863
  614TIP3   OH223400   5.996   2.707   2.649  0.4252  0.0302  0.3505
  614TIP3    H123401   6.082   2.699   2.609  0.4465  1.5424  0.0479
  614TIP3    H223402   6.007   2.675   2.738  1.4769  0.8614  0.5361
  615TIP3   OH223403   5.034   1.905   0.267  0.5875 -0.1468 -0.2082
  615TIP3    H123404   5.009   1.822   0.307 -0.4743  0.4116  0.3114
  615TIP3    H223405   5.018   1.892   0.173 -1.0722 -0.0398  0.0264
  616TIP3   OH223406   2.348   4.402   8.442 -0.2175 -0.5820  0.3636
  616TIP3    H123407   2.427   4.433   8.485  0.3827 -1.3059 -0.2073
  616TIP3    H223408   2.321   4.325   8.493 -0.4213 -0.4712  0.4234
  617TIP3   OH223409   0.729   6.034   3.034  0.2693 -0.4317  0.3507
  617TIP3    H123410   0.768   5.974   2.971  1.1417 -0.2670  0.7242
  617TIP3    H223411   0.635   6.033   3.013  0.2921 -1.7569  0.2250
  618TIP3   OH223412   1.155   6.039   1.137 -0.2865  0.4690 -0.6597
  618TIP3    H123413   1.134   6.043   1.044  1.6345 -0.5915 -1.2150
  618TIP3    H223414   1.194   5.952   1.148  0.7280  1.0747  0.8455
  619TIP3   OH223415   1.000   0.215   8.112 -1.0995 -0.2642  0.2192
  619TIP3    H123416   0.978   0.296   8.065 -2.7681  1.0599  3.0220
  619TIP3    H223417   0.964   0.145   8.058 -1.0777  0.9796 -1.4796
  620TIP3   OH223418   4.341   2.722   0.080 -0.5559  0.0339 -0.5764
  620TIP3    H123419   4.423   2.755   0.043 -1.4204 -0.0012 -2.6312
  620TIP3    H223420   4.280   2.795   0.072 -0.8794 -0.0989  0.4920
  621TIP3   OH223421   0.828   6.459   8.321 -0.5883  0.2497  0.2607
  621TIP3    H123422   0.850   6.370   8.349  2.9336  0.0659 -2.3329
  621TIP3    H223423   0.906   6.510   8.341 -0.7580  1.6694 -2.2416
  622TIP3   OH223424   6.683   2.070   2.295  0.2603 -0.1688 -0.7149
  622TIP3    H123425   6.636   2.033   2.369  0.7574 -0.0368 -0.3277
  622TIP3    H223426   6.667   2.009   2.223 -0.6981  0.0012 -0.6612
  623TIP3   OH223427   6.605   2.694   1.045 -0.0983 -0.0116 -0.0543
  623TIP3    H123428   6.616   2.603   1.072  0.4956  0.2560  0.6376
  623TIP3    H223429   6.566   2.689   0.958 -0.2207 -0.9232  0.0457
  624TIP3   OH223430   4.002   3.747   8.087  0.0018  0.1295  0.0203
  624TIP3    H123431   3.969   3.746   7.998  1.1248  0.5803 -0.4206
  624TIP3    H223432   3.955   3.817   8.130  0.6211  1.0096 -0.7003
  625TIP3   OH223433   5.608   5.723   0.425 -0.1811  0.5520  0.2445
  625TIP3    H123434   5.550   5.743   0.351  0.6174 -2.4513 -1.3515
  625TIP3    H223435   5.560   5.656   0.474  1.1944 -0.8609 -0.2487
  626TIP3   OH223436   3.017   3.155   3.138 -0.3325 -0.9720  0.0394
  626TIP3    H123437   3.071   3.134   3.062 -0.1180  0.0473 -0.1046
  626TIP3    H223438   2.928   3.163   3.103 -0.0827  0.5031 -0.3046
  627TIP3   OH223439   5.955   1.527   3.094  0.0229 -0.3256  0.3489
  627TIP3    H123440   5.987   1.495   3.179 -0.2846  0.1112  0.6333
  627TIP3    H223441   5.961   1.622   3.101  1.7563 -0.3282 -0.8148
  628TIP3   OH223442   0.860   1.534   1.647 -0.3440 -0.0581  0.0373
  628TIP3    H123443   0.784   1.501   1.599 -1.3753  1.1403  0.7764
  628TIP3    H223444   0.909   1.455   1.672  0.4099 -0.7279 -3.1532
  629TIP3   OH223445   4.492   0.307   0.456  0.5747 -0.3031 -0.5335
  629TIP3    H123446   4.483   0.247   0.530 -0.7351  0.1506 -0.3048
  629TIP3    H223447   4.491   0.250   0.379  1.9346 -0.7778 -0.2229
  630TIP3   OH223448   2.275   4.634   2.360  0.1830 -0.3258 -0.5010
  630TIP3    H123449   2.236   4.720   2.374 -0.6664 -0.3264 -2.4674
  630TIP3    H223450   2.368   4.646   2.381  0.0855  1.0839 -0.7747
  631TIP3   OH223451   0.182   5.375   2.801 -0.1486 -0.1829 -0.5515
  631TIP3    H123452   0.233   5.367   2.881  1.0952  0.8261 -1.2121
  631TIP3    H223453   0.238   5.337   2.732 -0.5552  0.3525 -1.1892
  632TIP3   OH223454   4.482   0.985   1.867  0.2770 -0.3034 -1.0031
  632TIP3    H123455   4.410   1.045   1.888  0.3115 -0.7827  0.5736
  632TIP3    H223456   4.550   1.041   1.830 -0.5553  0.2837 -1.6844
  633TIP3   OH223457   6.373   0.892   1.058  0.2479  0.1249 -0.2586
  633TIP3    H123458   6.309   0.960   1.040 -0.7455 -0.7306 -0.0539
  633TIP3    H223459   6.331   0.810   1.031  0.8488 -0.5662  0.8031
  634TIP3   OH223460   4.977   0.874   0.025  0.2789 -0.0840 -0.2678
  634TIP3    H123461   4.905   0.934   0.045  1.5871  1.4369  0.0295
  634TIP3    H223462   4.970   0.806   0.093 -1.5766 -0.6535 -0.9637
  635TIP3   OH223463   0.363   3.553   0.700  0.0578  0.7296  0.0489
  635TIP3    H123464   0.402   3.478   0.655  0.7450  0.5544  0.9160
  635TIP3    H223465   0.420   3.627   0.678  0.9689  0.4598  1.3728
  636TIP3   OH223466   0.002   3.513   1.160  0.1973  0.1401 -0.1936
  636TIP3    H123467   0.053   3.452   1.106  0.2911  0.8443 -0.9281
  636TIP3    H223468  -0.089   3.494   1.136  0.1213 -0.8023  0.7776
  637TIP3   OH223469   0.244   4.873   8.478  0.5015 -0.1850  0.1505
  637TIP3    H123470   0.270   4.784   8.454 -0.5756 -0.2193 -0.9734
  637TIP3    H223471   0.173   4.861   8.540 -0.0280 -0.1252 -0.4355
  638TIP3   OH223472   0.259   1.548   1.313 -0.1972  0.0177 -0.1178
  638TIP3    H123473   0.270   1.503   1.397  0.7276 -0.7743 -0.6470
  638TIP3    H223474   0.265   1.641   1.335  0.6065 -0.1915  0.6267
  639TIP3   OH223475   4.456   1.760   0.364  0.0148 -0.2086 -0.0148
  639TIP3    H123476   4.388   1.727   0.306  0.7418 -1.6240 -0.1161
  639TIP3    H223477   4.536   1.755   0.312  0.2887  0.9157  0.2764
  640TIP3   OH223478   2.189   2.459   0.909  0.1036  0.2622 -0.1820
  640TIP3    H123479   2.205   2.409   0.989  0.6663 -0.5413 -0.7631
  640TIP3    H223480   2.242   2.538   0.919 -0.7538  0.7302  0.7329
  641TIP3   OH223481   4.848   3.359   8.270 -1.0857 -0.2689  0.6662
  641TIP3    H123482   4.879   3.268   8.265  2.1202  0.7684 -0.9364
  641TIP3    H223483   4.809   3.375   8.184  0.6199  0.5362  0.0067
  642TIP3   OH223484   4.952   0.147   2.989  0.5706  0.1196  0.0615
  642TIP3    H123485   5.017   0.084   3.020 -0.2504 -0.7443  0.0503
  642TIP3    H223486   4.872   0.126   3.037  0.4216  1.5316  0.4874
  643TIP3   OH223487   2.136   1.896   2.438 -0.5199  0.0194 -0.1521
  643TIP3    H123488   2.213   1.841   2.431 -1.9730 -1.9554 -4.1961
  643TIP3    H223489   2.109   1.890   2.529  3.6367  0.3790  1.3153
  644TIP3   OH223490   5.377   0.845   2.856  0.3878  0.3735  0.0156
  644TIP3    H123491   5.335   0.918   2.901  1.1028  1.4538 -1.0106
  644TIP3    H223492   5.461   0.880   2.827  1.0839 -1.0953  0.1586
  645TIP3   OH223493   2.904   4.762   7.639 -0.1345  0.3404  1.3165
  645TIP3    H123494   2.996   4.777   7.618 -0.3267 -1.0562 -0.8439
  645TIP3    H223495   2.899   4.669   7.661 -1.1652  0.1580  0.3957
  646TIP3   OH223496   6.399   3.791   2.763  0.3686  0.0519 -0.2079
  646TIP3    H123497   6.465   3.838   2.814 -0.5964  0.4218  0.7441
  646TIP3    H223498   6.382   3.711   2.813  0.0497 -0.0081 -0.4042
  647TIP3   OH223499   4.706   0.930   0.753  0.0882 -0.6614 -0.3022
  647TIP3    H123500   4.705   1.024   0.771 -1.8946 -0.9672  1.6091
  647TIP3    H223501   4.742   0.891   0.832 -0.4807 -1.5851 -0.4827
  648TIP3   OH223502   3.174   3.949   1.555 -0.0136 -0.8572 -0.2990
  648TIP3    H123503   3.268   3.937   1.571  0.3029  1.1509 -0.3606
  648TIP3    H223504   3.168   3.971   1.462 -0.4733 -0.4773 -0.1855
  649TIP3   OH223505   3.932   4.335   7.986  0.0092 -1.0043 -0.1734
  649TIP3    H123506   3.979   4.411   8.021  0.2799 -0.7811 -0.9925
  649TIP3    H223507   3.982   4.310   7.908 -2.2388  0.4057 -2.1860
  650TIP3   OH223508   3.754   3.449   1.580 -0.3015 -0.2103 -0.1063
  650TIP3    H123509   3.757   3.354   1.580 -1.2533 -0.2534  0.3295
  650TIP3    H223510   3.845   3.476   1.570 -0.1378 -1.1581 -1.3683
  651TIP3   OH223511   2.701   4.503   0.150 -0.3893 -0.2039  0.9055
  651TIP3    H123512   2.625   4.561   0.160 -1.0997 -1.0686  0.6764
  651TIP3    H223513   2.735   4.524   0.064 -1.7643 -1.3749  0.0274
  652TIP3   OH223514   6.666   0.639   2.660 -0.0933  0.0355 -0.8947
  652TIP3    H123515   6.743   0.674   2.705 -0.2773  0.7087 -1.0772
  652TIP3    H223516   6.658   0.549   2.690 -0.2587  0.4835  0.4814
  653TIP3   OH223517   1.886   5.110   2.518 -0.1252  0.1308 -0.2482
  653TIP3    H123518   1.971   5.096   2.560  0.3655  0.2177 -1.1778
  653TIP3    H223519   1.825   5.121   2.590  0.1770 -2.5303  0.5286
  654TIP3   OH223520   5.971   0.808   0.443 -0.2759 -0.1415  0.3266
  654TIP3    H123521   6.000   0.789   0.532 -1.6692  2.8688  1.5674
  654TIP3    H223522   6.052   0.824   0.394  0.4704 -0.6299  1.3717
  655TIP3   OH223523   2.520   5.455   8.053  0.6489  0.4580  0.4039
  655TIP3    H123524   2.490   5.406   8.130 -2.3268  0.6831 -0.5025
  655TIP3    H223525   2.484   5.407   7.979  1.3775  1.6375 -0.7406
  656TIP3   OH223526   3.303   6.350   0.382  0.1248 -0.1667 -0.7415
  656TIP3    H123527   3.350   6.286   0.436  1.1283  0.3559 -0.9677
  656TIP3    H223528   3.213   6.317   0.379  0.7200 -1.8360 -1.2718
  657TIP3   OH223529   3.074   4.617   7.974 -0.5418  0.1023 -0.1341
  657TIP3    H123530   3.065   4.582   7.885  0.9483  0.0101 -0.2817
  657TIP3    H223531   3.098   4.541   8.027  1.1470  0.5828 -0.1589
  658TIP3   OH223532   2.578   2.929   2.899  0.0753  0.1736  0.0839
  658TIP3    H123533   2.516   3.001   2.890  1.0248  0.8911 -1.0033
  658TIP3    H223534   2.554   2.887   2.982 -0.6596  1.5744  0.6123
  659TIP3   OH223535   6.799   6.501   2.192 -0.3915  0.1662 -0.1185
  659TIP3    H123536   6.751   6.508   2.109 -0.5820  1.1287  0.0526
  659TIP3    H223537   6.781   6.584   2.236  0.0784 -0.1523  0.6893
  660TIP3   OH223538   3.520   1.964   1.183  0.3728  0.2178  0.5719
  660TIP3    H123539   3.513   1.886   1.238  0.3791 -0.8919 -0.9553
  660TIP3    H223540   3.559   1.933   1.102  1.9121  2.1135  0.5059
  661TIP3   OH223541   6.142   1.029   2.490 -0.2034  0.5168 -0.1856
  661TIP3    H123542   6.114   1.116   2.521 -0.1340  0.4389  0.0889
  661TIP3    H223543   6.061   0.978   2.488 -0.0032  0.1134  1.1773
  662TIP3   OH223544   4.885   2.936   0.462 -0.0953  0.2321  0.2773
  662TIP3    H123545   4.917   2.870   0.401 -0.9835 -0.5896  0.6856
  662TIP3    H223546   4.797   2.956   0.432 -0.0754  0.7476  0.5484
  663TIP3   OH223547   0.169   5.597   8.587  0.0790  0.6246  0.1320
  663TIP3    H123548   0.236   5.648   8.544 -0.1258  1.2493  0.5413
  663TIP3    H223549   0.101   5.585   8.520  0.5722  0.0025 -0.2771
  664TIP3   OH223550   1.301   0.692   2.078  0.3543  0.1305  0.5866
  664TIP3    H123551   1.265   0.604   2.067 -2.0080  1.0206  0.5132
  664TIP3    H223552   1.267   0.722   2.162 -2.1835  2.2941 -1.0268
  665TIP3   OH223553   0.856   2.848   1.378 -0.6385 -0.5218  0.1118
  665TIP3    H123554   0.783   2.907   1.397 -1.7976 -1.8830  0.0752
  665TIP3    H223555   0.906   2.845   1.459 -0.3854  0.6945  0.0319
  666TIP3   OH223556   3.842   6.732   0.856  0.0483  0.4698 -0.1363
  666TIP3    H123557   3.818   6.682   0.778  0.1564 -1.1121  0.7952
  666TIP3    H223558   3.937   6.724   0.861 -0.1698 -2.5680  2.0422
  667TIP3   OH223559   3.899   2.381   7.894 -0.2078 -0.2767 -0.1042
  667TIP3    H123560   3.891   2.402   7.987  0.2668  2.3487 -0.5673
  667TIP3    H223561   3.836   2.439   7.851  0.4501 -0.5592 -1.5195
  668TIP3   OH223562   2.181   5.362   8.492  0.3283 -0.1401  0.0066
  668TIP3    H123563   2.272   5.358   8.522 -0.0070  1.4496  1.3982
  668TIP3    H223564   2.183   5.418   8.415  0.3605  1.2146  0.9568
  669TIP3   OH223565   4.645   4.232   0.355  0.5401 -0.0663 -0.1619
  669TIP3    H123566   4.606   4.319   0.354  0.9592  0.1348  0.3822
  669TIP3    H223567   4.694   4.226   0.273 -2.1671 -1.0713 -1.8376
  670TIP3   OH223568   4.374   4.760   2.925 -0.3621  0.1614 -0.0129
  670TIP3    H123569   4.393   4.667   2.915 -1.8230 -0.1801  0.2269
  670TIP3    H223570   4.359   4.772   3.018  0.9014  0.8800  0.1274
  671TIP3   OH223571   2.102   4.550   2.164  0.2083  0.3829 -0.2077
  671TIP3    H123572   2.172   4.495   2.129 -2.4095 -2.4384 -1.4724
  671TIP3    H223573   2.136   4.583   2.247  1.8784 -3.5831  0.8869
  672TIP3   OH223574   1.056   4.509   0.544  0.2159  0.0294  0.1510
  672TIP3    H123575   0.986   4.562   0.505  0.0504  0.6130  1.1932
  672TIP3    H223576   1.063   4.432   0.487 -1.1882  0.0228 -0.0493
  673TIP3   OH223577   1.751   2.113   1.317  0.3669  0.1842  0.1037
  673TIP3    H123578   1.740   2.121   1.222 -0.7582 -3.4170 -0.2154
  673TIP3    H223579   1.662   2.114   1.352  0.5849 -1.1842  0.7674
  674TIP3   OH223580   4.379   4.664   1.860  0.8717 -0.4829  0.0856
  674TIP3    H123581   4.452   4.725   1.850  0.6958 -0.1624  0.6582
  674TIP3    H223582   4.316   4.691   1.793  1.2233 -0.6786 -0.3243
  675TIP3   OH223583   0.568   3.190   0.427 -0.3607  0.3333  0.1915
  675TIP3    H123584   0.549   3.102   0.391 -0.3941  0.6666 -0.6433
  675TIP3    H223585   0.485   3.237   0.417  0.2446  1.1443 -1.4919
  676TIP3   OH223586   0.128   6.361   1.937 -0.2682  0.5119 -0.0999
  676TIP3    H123587   0.180   6.343   2.016 -2.2238 -0.8210  0.9453
  676TIP3    H223588   0.111   6.275   1.899 -1.2058  0.9649 -0.7507
  677TIP3   OH223589   2.849   5.269   8.556  0.5788 -0.3434  0.5256
  677TIP3    H123590   2.872   5.274   8.463  0.9828 -2.9310  0.4145
  677TIP3    H223591   2.904   5.335   8.598  2.0735 -0.6606 -0.8323
  678TIP3   OH223592   5.325   2.041   1.781 -0.1893  0.0426 -0.6868
  678TIP3    H123593   5.251   1.980   1.790 -0.2859 -0.0423 -1.9571
  678TIP3    H223594   5.284   2.127   1.773 -0.0975  0.1276 -0.2866
  679TIP3   OH223595   6.405   4.031   3.212  0.5953  0.4398  0.5863
  679TIP3    H123596   6.381   4.005   3.301  0.3599 -0.5029  0.2546
  679TIP3    H223597   6.499   4.013   3.207  0.7685  1.1953  0.8693
  680TIP3   OH223598   0.238   6.091   7.464  0.9750  0.0689  0.6043
  680TIP3    H123599   0.162   6.034   7.453 -0.2549  1.5545  1.1684
  680TIP3    H223600   0.252   6.130   7.378  2.0459 -1.2801  0.1187
  681TIP3   OH223601   4.067   1.572   2.268  0.1464 -0.2883  0.2360
  681TIP3    H123602   4.038   1.499   2.212  0.2514  1.4610 -2.2524
  681TIP3    H223603   4.160   1.555   2.283  0.3439 -0.3391 -0.9327
  682TIP3   OH223604   5.649   0.699   1.807  0.2194  0.0109  0.1481
  682TIP3    H123605   5.691   0.614   1.822 -2.9013 -1.5966  0.7216
  682TIP3    H223606   5.626   0.699   1.714  0.3204  0.2767  0.1224
  683TIP3   OH223607   3.647   6.376   8.865 -0.6388 -0.6086 -0.3437
  683TIP3    H123608   3.584   6.305   8.879 -0.4582 -0.5740  0.7582
  683TIP3    H223609   3.722   6.352   8.919  0.3221 -0.6709 -1.6799
  684TIP3   OH223610   2.068   0.374   1.642 -0.2236 -0.4098  0.6551
  684TIP3    H123611   2.138   0.331   1.592 -1.1449 -1.0274 -0.1505
  684TIP3    H223612   2.057   0.459   1.599 -1.4418 -1.1875 -0.6554
  685TIP3   OH223613   5.568   6.255   8.081  0.6533  0.4429  0.6482
  685TIP3    H123614   5.556   6.196   8.007 -0.2325  1.3517  0.0506
  685TIP3    H223615   5.599   6.337   8.042  1.1233  0.6339  1.3900
  686TIP3   OH223616   1.319   2.821   2.429 -0.0246  0.2583 -0.0263
  686TIP3    H123617   1.336   2.752   2.365 -2.4027 -2.3694  1.8624
  686TIP3    H223618   1.252   2.876   2.389 -0.7996 -0.7839 -0.1991
  687TIP3   OH223619   3.753   4.913   7.612 -0.3854 -0.2203  0.5483
  687TIP3    H123620   3.784   4.823   7.615  1.5716  0.4268  1.4040
  687TIP3    H223621   3.785   4.947   7.528 -3.5973 -1.0566 -1.1868
  688TIP3   OH223622   1.193   3.975   2.975 -0.6382 -0.4717  0.3379
  688TIP3    H123623   1.188   4.052   2.919 -0.7982 -0.0166  0.9723
  688TIP3    H223624   1.240   4.004   3.053  0.3206 -1.3191  0.0920
  689TIP3   OH223625   3.823   1.668   2.754  0.4934 -0.4351  0.3319
  689TIP3    H123626   3.794   1.673   2.845 -1.1526  5.0327 -0.1851
  689TIP3    H223627   3.919   1.661   2.759  0.8808  3.7914  2.7875
  690TIP3   OH223628   5.350   1.691   1.280  0.6980 -0.5648  0.4067
  690TIP3    H123629   5.299   1.764   1.315 -0.1095  0.2111 -2.1740
  690TIP3    H223630   5.385   1.647   1.358 -0.7606  1.1318  2.1330
  691TIP3   OH223631   4.350   2.603   8.358 -0.4189 -0.5337 -0.2563
  691TIP3    H123632   4.401   2.630   8.435 -0.0685  0.6658 -0.8807
  691TIP3    H223633   4.277   2.554   8.394 -0.9607  1.0563  0.9697
  692TIP3   OH223634   3.707   3.467   8.151  0.0683 -0.0447  0.2681
  692TIP3    H123635   3.621   3.424   8.155  0.8128 -1.5646  0.3509
  692TIP3    H223636   3.725   3.474   8.057  0.1688 -0.3984  0.2580
  693TIP3   OH223637   0.388   6.610   1.601  0.2086  0.7168 -0.2020
  693TIP3    H123638   0.431   6.641   1.521  0.7674  1.2322  0.2826
  693TIP3    H223639   0.351   6.525   1.577  0.8403  0.6146 -0.8607
  694TIP3   OH223640   6.362   4.419   2.170  0.2924  0.0692 -0.0520
  694TIP3    H123641   6.351   4.476   2.245  0.9596 -0.4438  0.4454
  694TIP3    H223642   6.441   4.450   2.126  1.2109 -1.0444  0.7639
  695TIP3   OH223643   0.079   4.921   8.244  0.1817  0.5241  0.3042
  695TIP3    H123644   0.050   4.832   8.224  0.7376  0.5977 -0.9685
  695TIP3    H223645   0.121   4.915   8.330 -1.1834 -0.1118  0.9503
  696TIP3   OH223646   2.469   3.828   0.027 -0.5078 -0.4724  0.4971
  696TIP3    H123647   2.543   3.873  -0.014 -2.1178  0.8425 -1.1250
  696TIP3    H223648   2.492   3.825   0.120  2.9124 -2.8199 -0.2162
  697TIP3   OH223649   1.243   4.306   2.122 -0.3823  0.0073  0.2754
  697TIP3    H123650   1.288   4.256   2.053 -1.7330 -0.5255 -0.2534
  697TIP3    H223651   1.246   4.396   2.092  1.2589  0.1545  0.7806
  698TIP3   OH223652   2.950   3.311   0.467 -0.1884  0.3780  0.3948
  698TIP3    H123653   2.920   3.229   0.428  0.9734  0.1473 -0.0485
  698TIP3    H223654   2.881   3.335   0.528 -1.8586  0.4836 -1.4183
  699TIP3   OH223655   6.709   4.477   7.705  0.0921 -0.7588  0.0103
  699TIP3    H123656   6.791   4.468   7.657  0.2591 -0.1721  0.1744
  699TIP3    H223657   6.717   4.416   7.778  1.9994  1.8536  2.2139
  700TIP3   OH223658   2.860   1.876   1.510  0.1872 -0.7044 -0.1331
  700TIP3    H123659   2.878   1.966   1.484  0.7119 -0.6465  0.4185
  700TIP3    H223660   2.946   1.834   1.512  0.1830 -0.6834  1.5889
  701TIP3   OH223661   1.019   1.206   0.959  0.4893 -0.5318  0.1390
  701TIP3    H123662   1.065   1.206   1.043  2.4616 -0.9850 -0.8886
  701TIP3    H223663   1.030   1.117   0.925  0.4489 -0.1292 -0.9730
  702TIP3   OH223664   4.205   0.360   8.568  0.3622  0.1408  0.1839
  702TIP3    H123665   4.246   0.445   8.581 -1.6259  1.0839  0.6537
  702TIP3    H223666   4.216   0.342   8.475  1.0412  0.7658  0.1345
  703TIP3   OH223667   5.899   1.916   2.237 -0.2423 -0.2863 -0.0330
  703TIP3    H123668   5.924   1.847   2.298  1.3915  0.3021  0.0118
  703TIP3    H223669   5.811   1.891   2.208 -0.1578 -1.7578  0.8476
  704TIP3   OH223670   3.071   4.533   0.966 -0.0044  0.4096 -0.0560
  704TIP3    H123671   3.067   4.573   0.879  1.2915  0.2445 -0.2191
  704TIP3    H223672   3.019   4.453   0.958 -0.8141  0.9576 -0.3513
  705TIP3   OH223673   6.136   4.485   3.310 -0.0143 -0.1187 -0.2315
  705TIP3    H123674   6.046   4.454   3.304 -0.0076 -0.1217 -0.3138
  705TIP3    H223675   6.189   4.405   3.304 -0.0208 -0.1752  0.3342
  706TIP3   OH223676   4.712   2.485   0.888 -0.1231 -0.3148 -0.2191
  706TIP3    H123677   4.683   2.546   0.821 -0.6699 -0.5206 -0.1774
  706TIP3    H223678   4.746   2.541   0.958  1.8609 -0.1265 -1.2628
  707TIP3   OH223679   2.244   6.341   2.158  0.1085 -0.0082 -0.3284
  707TIP3    H123680   2.267   6.420   2.109 -0.8174  0.6867  0.3061
  707TIP3    H223681   2.293   6.271   2.116  0.8002  0.8758 -1.0319
  708TIP3   OH223682   4.629   5.267   2.018  0.3267  0.1712  0.0510
  708TIP3    H123683   4.687   5.254   1.943  0.2533  0.2385 -0.0173
  708TIP3    H223684   4.630   5.183   2.064 -1.3035 -0.5684 -1.2040
  709TIP3   OH223685   2.012   6.356   0.918  0.2513  0.8289 -0.0762
  709TIP3    H123686   1.983   6.385   0.832 -0.6287  1.9866  0.5761
  709TIP3    H223687   1.958   6.278   0.936  2.7472 -1.5295 -1.9060
  710TIP3   OH223688   0.647   4.102   8.118 -0.1230  0.0324  0.2600
  710TIP3    H123689   0.566   4.087   8.166  0.1193 -2.0571  0.1129
  710TIP3    H223690   0.623   4.089   8.026 -0.0398  1.5040  0.0041
  711TIP3   OH223691   6.050   2.106   3.589  0.6119 -0.1247 -0.6685
  711TIP3    H123692   5.995   2.028   3.596  1.8668 -1.0276 -0.6001
  711TIP3    H223693   6.140   2.074   3.596  1.2916  1.0145 -3.0402
  712TIP3   OH223694   6.225   6.607   2.980 -0.7559 -0.5066 -0.4707
  712TIP3    H123695   6.288   6.597   2.910  0.3799 -0.4937  0.5156
  712TIP3    H223696   6.270   6.661   3.045 -1.3608 -1.3990  0.7364
  713TIP3   OH223697   1.329   2.153   1.920  0.0225 -0.4046  0.2347
  713TIP3    H123698   1.341   2.187   1.832  1.6072 -1.1171  0.1467
  713TIP3    H223699   1.382   2.073   1.923 -1.7226 -1.6006  1.1605
  714TIP3   OH223700   2.259   2.297   3.401 -0.6480  0.1118  0.2817
  714TIP3    H123701   2.168   2.312   3.377 -0.3596  1.2127 -0.1866
  714TIP3    H223702   2.306   2.374   3.369  0.4520 -0.4320  0.5135
  715TIP3   OH223703   5.659   2.351   0.326 -0.0982  0.7838 -0.2418
  715TIP3    H123704   5.719   2.423   0.308  1.5629 -0.7617 -1.1811
  715TIP3    H223705   5.615   2.335   0.242  0.4942 -0.1215 -0.3869
  716TIP3   OH223706   0.830   3.243   0.349  0.7570  0.0693  0.1392
  716TIP3    H123707   0.836   3.290   0.265  0.7130 -1.7377 -0.9359
  716TIP3    H223708   0.736   3.224   0.358  1.0910 -2.5049 -1.0721
  717TIP3   OH223709   2.913   0.333   3.626 -0.9167  0.5953  0.4077
  717TIP3    H123710   2.996   0.339   3.674 -0.2943  3.2398 -0.8437
  717TIP3    H223711   2.846   0.348   3.693 -0.0635  4.2994  0.6675
  718TIP3   OH223712   3.470   2.122   0.508 -0.2983 -0.6227 -0.2903
  718TIP3    H123713   3.470   2.027   0.504  1.3306 -0.6350 -3.3615
  718TIP3    H223714   3.550   2.144   0.556 -1.2728 -0.7096  1.4746
  719TIP3   OH223715   6.688   4.451   1.816  0.3080 -0.4219 -0.3087
  719TIP3    H123716   6.754   4.520   1.816 -0.6606  0.5419  0.4853
  719TIP3    H223717   6.677   4.428   1.724 -0.5131  1.6678 -0.7996
  720TIP3   OH223718   5.454   0.623   0.473  0.7744  0.0157  0.0798
  720TIP3    H123719   5.528   0.662   0.520  0.6188  1.4493 -0.8309
  720TIP3    H223720   5.430   0.688   0.407 -0.5265 -0.9520 -0.4358
  721TIP3   OH223721   6.349   5.957   2.146 -0.2010  0.0909  0.1012
  721TIP3    H123722   6.302   5.880   2.113 -1.4139  0.8923 -0.0988
  721TIP3    H223723   6.395   5.925   2.224  0.9315 -1.2988 -1.0624
  722TIP3   OH223724   4.658   0.842   8.880  0.0952  0.3390 -0.3096
  722TIP3    H123725   4.593   0.776   8.904 -0.5309  0.2696 -2.0443
  722TIP3    H223726   4.651   0.849   8.785  0.7496  2.2775 -0.2679
  723TIP3   OH223727   2.620   2.111   8.053  0.2086 -0.5476 -0.0770
  723TIP3    H123728   2.663   2.141   7.973 -1.0226  1.0685 -0.1949
  723TIP3    H223729   2.680   2.135   8.123  0.6910 -0.7543 -0.4112
  724TIP3   OH223730   0.124   5.513   3.441  0.6036 -0.2518 -0.4875
  724TIP3    H123731   0.208   5.469   3.431  0.5900  0.0807 -2.4482
  724TIP3    H223732   0.107   5.553   3.355 -0.1182  2.2834  0.7313
  725TIP3   OH223733   3.694   4.756   2.130  0.5005 -0.2231  0.1433
  725TIP3    H123734   3.789   4.768   2.135  0.7374 -1.4225 -0.9075
  725TIP3    H223735   3.668   4.729   2.218  0.7213  2.4542  1.1253
  726TIP3   OH223736   2.847   4.038   0.411 -0.0770 -0.4154 -0.2427
  726TIP3    H123737   2.764   4.053   0.456  1.3596 -0.2315  2.5747
  726TIP3    H223738   2.886   4.125   0.403  1.3152 -0.7961  1.6880
  727TIP3   OH223739   6.073   5.636   2.387  0.8324  0.0286  0.6228
  727TIP3    H123740   6.063   5.688   2.307  1.6513  2.1203  1.8105
  727TIP3    H223741   5.990   5.648   2.434  0.8684 -0.0843  0.7165
  728TIP3   OH223742   4.053   3.939   7.845  0.1628  0.1519  0.0781
  728TIP3    H123743   4.135   3.918   7.800  0.9470  1.3925  0.8578
  728TIP3    H223744   3.996   3.863   7.828  1.7010 -1.0596  0.1171
  729TIP3   OH223745   5.445   1.720   8.275 -0.7837 -0.1185  0.2984
  729TIP3    H123746   5.490   1.804   8.265  0.3969 -0.8294 -0.7681
  729TIP3    H223747   5.381   1.735   8.344  0.8317  1.0673  1.6198
  730TIP3   OH223748   1.456   4.935   8.144 -0.5389 -0.0906  0.0519
  730TIP3    H123749   1.487   4.903   8.060 -0.1095  1.2636 -0.3323
  730TIP3    H223750   1.360   4.939   8.134 -0.3618  2.3727 -1.2863
  731TIP3   OH223751   2.748   4.928   6.988 -0.1450  0.4064  0.2455
  731TIP3    H123752   2.676   4.898   6.933 -0.5847 -0.8497  1.4651
  731TIP3    H223753   2.744   5.024   6.981 -1.5887  0.3488 -0.1515
  732TIP3   OH223754   4.496   6.024   1.548  0.6229 -0.8830  0.1127
  732TIP3    H123755   4.588   6.029   1.575  0.2951  0.1733  1.1146
  732TIP3    H223756   4.488   6.086   1.476  0.4897 -0.2538  0.6652
  733TIP3   OH223757   4.948   0.385   3.255  0.5660  0.0043 -0.3573
  733TIP3    H123758   4.962   0.298   3.293  0.0877  1.4605  3.5004
  733TIP3    H223759   4.853   0.395   3.254  0.6499  1.1561  1.0245
  734TIP3   OH223760   4.814   6.007   0.449  0.4133  0.1559 -0.5239
  734TIP3    H123761   4.858   6.090   0.428  2.7255 -1.1775 -1.3145
  734TIP3    H223762   4.871   5.967   0.516  0.4986 -1.7028 -1.6555
  735TIP3   OH223763   0.782   1.635   1.902 -0.1470  0.0280  0.0481
  735TIP3    H123764   0.772   1.611   1.810 -2.2435 -2.2936  0.7832
  735TIP3    H223765   0.876   1.624   1.919 -0.2060 -2.8974 -1.0095
  736TIP3   OH223766   1.451   1.949   0.630 -0.1454 -0.0729 -0.0556
  736TIP3    H123767   1.366   1.942   0.672 -0.0761  1.2578  0.3722
  736TIP3    H223768   1.446   2.031   0.580  0.6524 -0.3136 -0.5491
  737TIP3   OH223769   0.226   0.037   1.514 -0.0043  0.5127  0.0335
  737TIP3    H123770   0.138   0.036   1.477 -0.3182 -0.2269  0.7501
  737TIP3    H223771   0.284   0.024   1.439 -0.6904 -2.5610 -0.1105
  738TIP3   OH223772   0.186   1.368   3.062 -0.0675 -0.2155 -0.1169
  738TIP3    H123773   0.239   1.441   3.093 -0.5398  0.1703 -0.2055
  738TIP3    H223774   0.212   1.355   2.971 -1.0417  0.8382 -0.5761
  739TIP3   OH223775   2.455   2.515   7.391  0.0541  0.0094 -0.3007
  739TIP3    H123776   2.362   2.513   7.414  0.0098 -0.1616 -0.4912
  739TIP3    H223777   2.464   2.447   7.325  0.2466  0.2700 -0.5422
  740TIP3   OH223778   0.474   3.787   7.886 -0.7164  0.0838  0.0124
  740TIP3    H123779   0.515   3.868   7.857  0.0635  0.1504  1.2412
  740TIP3    H223780   0.501   3.722   7.821  1.8999 -0.0115  1.0703
  741TIP3   OH223781   2.369   0.126   3.453 -0.4162 -0.4003  0.1439
  741TIP3    H123782   2.332   0.041   3.475 -0.6073 -0.4249 -0.2665
  741TIP3    H223783   2.297   0.172   3.409  0.4510 -0.9637 -1.9624
  742TIP3   OH223784   1.172   4.143   1.487  0.2224  0.3677  0.1013
  742TIP3    H123785   1.243   4.093   1.527 -1.2103 -0.6361  1.5047
  742TIP3    H223786   1.142   4.090   1.414  1.6780  1.3812 -1.3025
  743TIP3   OH223787   5.115   1.383   1.458 -0.1253  0.3785  0.2184
  743TIP3    H123788   5.149   1.339   1.536 -1.4332  0.5657  0.9313
  743TIP3    H223789   5.151   1.333   1.385  2.4020  1.1445  0.8526
  744TIP3   OH223790   5.120   3.239   8.046  0.0302  0.0897 -0.0811
  744TIP3    H123791   5.077   3.250   7.962  0.2408  0.4195 -0.1443
  744TIP3    H223792   5.213   3.229   8.025  0.1631  0.8032  0.1553
  745TIP3   OH223793   2.167   0.635   2.384 -0.5681 -0.3354 -0.3639
  745TIP3    H123794   2.086   0.621   2.335 -0.5512  0.4475 -0.6424
  745TIP3    H223795   2.160   0.578   2.460 -2.0242  0.7286  0.3393
  746TIP3   OH223796   6.450   3.735   1.815 -0.0647  0.0157 -0.2736
  746TIP3    H123797   6.445   3.765   1.906 -0.1175 -1.0201  0.0800
  746TIP3    H223798   6.479   3.644   1.822 -1.6752 -0.6008 -1.1962
  747TIP3   OH223799   1.042   0.590   1.825 -0.2392  0.2996 -0.0927
  747TIP3    H123800   1.127   0.560   1.791  0.5278  1.3494  0.8093
  747TIP3    H223801   1.033   0.679   1.792 -0.4264  0.6128  0.7868
  748TIP3   OH223802   1.311   3.839   8.566  0.4610  0.1104 -0.0090
  748TIP3    H123803   1.316   3.767   8.629  1.4580  0.4720  0.3414
  748TIP3    H223804   1.350   3.804   8.486 -0.4656 -0.2290 -0.3181
  749TIP3   OH223805   0.988   5.033   2.341  0.0163 -0.2385 -0.6469
  749TIP3    H123806   1.065   5.026   2.398 -1.6438 -0.1537  1.7398
  749TIP3    H223807   0.989   4.953   2.288  1.6768 -0.2629 -0.6329
  750TIP3   OH223808   1.873   5.222   0.861  0.6844 -0.4213 -0.4845
  750TIP3    H123809   1.820   5.281   0.914  1.6215  1.4884 -1.5483
  750TIP3    H223810   1.810   5.180   0.802  0.1546  0.8013 -0.8314
  751TIP3   OH223811   5.963   6.618   0.078 -0.0447  0.3435  0.4566
  751TIP3    H123812   5.895   6.627   0.011 -0.6769  1.4348  1.2082
  751TIP3    H223813   6.018   6.695   0.066  0.1988  0.2217  0.7983
  752TIP3   OH223814   3.617   1.197   7.695 -1.3100 -0.2285  0.1255
  752TIP3    H123815   3.570   1.269   7.652  1.1986  0.5357 -1.5775
  752TIP3    H223816   3.653   1.146   7.622  1.3303 -0.1167  1.2312
  753TIP3   OH223817   1.601   5.758   8.840 -0.3607  0.0861 -0.2024
  753TIP3    H123818   1.688   5.732   8.871  0.3079 -0.2845 -2.2461
  753TIP3    H223819   1.554   5.675   8.828 -0.4593  0.1949 -0.5753
  754TIP3   OH223820   5.215   2.189   1.426 -0.3459 -0.1889 -0.0741
  754TIP3    H123821   5.212   2.182   1.521 -0.5553  1.6321  0.0862
  754TIP3    H223822   5.286   2.131   1.400  0.4884  0.1609  1.3076
  755TIP3   OH223823   5.667   1.326   8.477  0.0205  0.4282 -0.4986
  755TIP3    H123824   5.625   1.384   8.413  0.4072  1.6404  0.3179
  755TIP3    H223825   5.760   1.346   8.468  0.1148  0.2512  0.0989
  756TIP3   OH223826   6.036   6.315   8.382  0.4718  0.3676  0.7653
  756TIP3    H123827   6.029   6.245   8.316  0.6933 -0.6707  1.8003
  756TIP3    H223828   6.111   6.367   8.353  0.8819 -0.3761  0.4379
  757TIP3   OH223829   2.013   0.207   1.961 -0.4426  0.0747 -0.3912
  757TIP3    H123830   1.971   0.287   1.930 -0.5009  0.3068  0.2869
  757TIP3    H223831   2.027   0.221   2.054 -0.1050 -0.5530 -0.3417
  758TIP3   OH223832   2.681   0.189   1.772  0.4343  0.1777 -0.5798
  758TIP3    H123833   2.675   0.269   1.823  0.8419 -1.0498  1.5188
  758TIP3    H223834   2.765   0.196   1.726  0.6621  0.7743 -0.0866
  759TIP3   OH223835   6.529   3.951   8.823 -0.4710  0.1249  0.8644
  759TIP3    H123836   6.604   4.009   8.817 -1.7115  1.9780  2.1071
  759TIP3    H223837   6.556   3.883   8.885  1.2251 -1.0734 -1.0935
  760TIP3   OH223838   5.405   1.111   3.133 -0.0418  0.0265  0.2359
  760TIP3    H123839   5.478   1.055   3.107  0.1370  0.8452 -1.0898
  760TIP3    H223840   5.424   1.135   3.224  0.9909 -0.3037  0.1156
  761TIP3   OH223841   1.054   4.286   1.680 -0.0689  0.2826  0.1078
  761TIP3    H123842   1.097   4.232   1.614 -0.1772  0.5053 -0.1451
  761TIP3    H223843   0.960   4.273   1.664 -0.1039  1.4733 -0.7215
  762TIP3   OH223844   2.002   3.536   8.264 -0.2681 -0.2456 -0.5330
  762TIP3    H123845   1.974   3.540   8.172  1.2662 -2.6944 -1.2066
  762TIP3    H223846   2.010   3.442   8.282  1.5499  0.2262  1.4485
  763TIP3   OH223847   2.627   5.597   2.200  0.2631  0.4729 -0.1767
  763TIP3    H123848   2.635   5.533   2.271  2.3260 -0.6210 -1.3027
  763TIP3    H223849   2.539   5.632   2.209  0.0076 -0.5880  2.1054
  764TIP3   OH223850   3.171   2.010   1.702 -0.6839  0.1155  0.0196
  764TIP3    H123851   3.169   1.990   1.608  2.0347 -2.9246  0.4068
  764TIP3    H223852   3.101   1.957   1.739 -0.1880 -0.6217 -0.0756
  765TIP3   OH223853   2.342   6.572   7.854 -0.0126  0.3835  0.1358
  765TIP3    H123854   2.427   6.576   7.810 -0.0895  3.2576  0.0965
  765TIP3    H223855   2.301   6.492   7.820  0.7443  1.3860 -3.5300
  766TIP3   OH223856   6.111   2.757   1.637  0.2124 -0.5533  0.1422
  766TIP3    H123857   6.091   2.731   1.727 -1.1119 -0.6501 -0.1624
  766TIP3    H223858   6.204   2.779   1.639  1.0744 -3.7055  0.7836
  767TIP3   OH223859   3.980   1.905   1.578  0.0954  0.2088  0.4461
  767TIP3    H123860   4.020   1.992   1.578 -1.2138  0.8509 -0.6373
  767TIP3    H223861   4.011   1.865   1.496  1.1526 -0.5888  1.2156
  768TIP3   OH223862   3.514   1.175   3.118  0.1164  0.2685 -0.4647
  768TIP3    H123863   3.597   1.142   3.154 -0.2968  0.2982  0.5639
  768TIP3    H223864   3.488   1.244   3.179 -0.3788  0.6610 -1.1106
  769TIP3   OH223865   3.377   6.412   8.750  0.8525 -0.2184  0.3660
  769TIP3    H123866   3.296   6.375   8.715  0.8157  1.5372 -1.6287
  769TIP3    H223867   3.366   6.409   8.845 -1.1265 -0.9169  0.1591
  770TIP3   OH223868   1.447   2.403   8.749  0.1407 -0.5551  0.4091
  770TIP3    H123869   1.385   2.381   8.819 -0.2894  1.0554  0.5744
  770TIP3    H223870   1.531   2.412   8.794 -0.2723  1.2398  0.8992
  771TIP3   OH223871   2.105   4.818   2.026 -0.3154  0.2626 -0.3593
  771TIP3    H123872   2.077   4.732   2.057 -1.3129  0.6309 -0.2083
  771TIP3    H223873   2.092   4.876   2.101 -1.1746  0.8438 -0.9361
  772TIP3   OH223874   0.179   6.253   3.397 -0.1490  0.1219  0.1100
  772TIP3    H123875   0.250   6.209   3.443 -0.9132 -0.8470  0.3906
  772TIP3    H223876   0.169   6.205   3.315  0.2826  0.9822 -0.4705
  773TIP3   OH223877   0.803   4.476   8.865  0.5429  0.3504  0.0762
  773TIP3    H123878   0.780   4.490   8.957 -1.5129 -0.8021 -0.2094
  773TIP3    H223879   0.720   4.481   8.818  0.6523 -4.0469 -1.0459
  774TIP3   OH223880   4.495   3.991   8.363  0.3427 -0.4468  0.0689
  774TIP3    H123881   4.427   3.997   8.296 -1.2280 -1.3960  1.4876
  774TIP3    H223882   4.526   3.900   8.358  1.3094 -0.1142 -0.3344
  775TIP3   OH223883   3.158   2.560   8.167  0.0830 -0.4064  0.8295
  775TIP3    H123884   3.083   2.568   8.109 -0.7505 -1.3231  1.7479
  775TIP3    H223885   3.228   2.526   8.110 -0.0842  0.6927 -0.0817
  776TIP3   OH223886   4.224   3.061   2.913  0.1413  0.1278  0.1920
  776TIP3    H123887   4.233   3.022   3.000 -2.2960 -0.6390  0.1716
  776TIP3    H223888   4.290   3.130   2.911  2.8646 -2.2494  1.1986
  777TIP3   OH223889   2.134   0.632   7.687 -0.1206 -0.1400  0.2943
  777TIP3    H123890   2.132   0.727   7.696 -0.6561 -0.3333  3.2262
  777TIP3    H223891   2.045   0.610   7.660  0.6476  0.2728 -2.9167
  778TIP3   OH223892   0.305   2.254   8.085  0.1008 -0.0269 -0.1960
  778TIP3    H123893   0.396   2.253   8.113 -0.2374  2.0863  1.1775
  778TIP3    H223894   0.282   2.346   8.080 -1.0594 -0.3429 -3.8224
  779TIP3   OH223895   5.120   0.468   7.810  0.2768  0.0600 -0.0139
  779TIP3    H123896   5.059   0.396   7.827  1.0555 -0.3567  1.1322
  779TIP3    H223897   5.183   0.431   7.748  0.6217 -0.2258  0.5001
  780TIP3   OH223898   3.570   0.531   8.742  0.8452  0.6029 -0.2647
  780TIP3    H123899   3.584   0.543   8.836  0.6737  2.7304 -0.4610
  780TIP3    H223900   3.646   0.480   8.713  1.0100  0.1088  0.9701
  781TIP3   OH223901   0.908   4.338   0.821  0.1021  0.1764 -0.0115
  781TIP3    H123902   0.988   4.285   0.812 -0.9047 -1.9730  2.3870
  781TIP3    H223903   0.932   4.408   0.882  0.9791  1.5849 -1.8836
  782TIP3   OH223904   4.599   6.638   1.602  0.1837  0.2085 -0.0563
  782TIP3    H123905   4.525   6.693   1.575 -0.5601 -0.3326  0.8087
  782TIP3    H223906   4.560   6.552   1.619  0.9735 -0.0280  0.6326
  783TIP3   OH223907   4.343   0.542   1.997  0.5711  0.2146 -0.5660
  783TIP3    H123908   4.416   0.604   1.997  0.4739  0.3284 -0.6702
  783TIP3    H223909   4.276   0.583   1.943  0.4618  0.0709 -0.5408
  784TIP3   OH223910   2.280   1.035   0.706  0.1695 -0.1530 -0.6529
  784TIP3    H123911   2.364   0.991   0.717  0.0979 -0.4110 -1.1223
  784TIP3    H223912   2.299   1.128   0.716 -0.0823 -0.3276  3.1901
  785TIP3   OH223913   3.168   1.831   2.566  0.5287 -0.0221 -0.1316
  785TIP3    H123914   3.168   1.742   2.602  0.5381  0.3927  0.9410
  785TIP3    H223915   3.260   1.858   2.569  0.5304  0.0174 -0.4839
  786TIP3   OH223916   1.542   2.292   8.520 -0.3388  0.0431  0.5678
  786TIP3    H123917   1.527   2.301   8.614 -1.0318  1.0337  0.3749
  786TIP3    H223918   1.560   2.381   8.490  1.1266 -0.4363 -0.0442
  787TIP3   OH223919   5.284   5.669   2.578  0.0391 -0.2028 -0.2787
  787TIP3    H123920   5.305   5.755   2.615  0.3939 -0.6081  0.4775
  787TIP3    H223921   5.210   5.685   2.520  1.1846  0.9341 -1.5056
  788TIP3   OH223922   2.963   6.123   1.983 -0.0268 -0.2177  0.2253
  788TIP3    H123923   3.001   6.098   1.899 -1.0835 -0.7366 -0.1280
  788TIP3    H223924   3.022   6.085   2.048  1.2664  0.9165 -0.2518
  789TIP3   OH223925   3.186   0.247   0.151 -0.4507 -0.0518  0.2502
  789TIP3    H123926   3.217   0.169   0.105  1.1410  1.2757 -1.0632
  789TIP3    H223927   3.138   0.296   0.084 -1.3379  0.1732  1.0312
  790TIP3   OH223928   3.813   1.304   7.432  0.4154  0.6554  0.1396
  790TIP3    H123929   3.853   1.361   7.366  0.2530  0.8146  0.1787
  790TIP3    H223930   3.723   1.336   7.441 -0.5633 -1.3025 -1.8236
  791TIP3   OH223931   0.238   2.428   3.254 -0.5463 -0.0607  0.2556
  791TIP3    H123932   0.304   2.367   3.222  1.1260  1.4631  0.6687
  791TIP3    H223933   0.218   2.397   3.342  1.3460  0.7399  1.0115
  792TIP3   OH223934   4.583   4.497   0.313 -0.3149 -0.1612  0.4636
  792TIP3    H123935   4.588   4.589   0.337  1.1598 -0.3063  0.7686
  792TIP3    H223936   4.507   4.491   0.255  1.4195  1.8309 -2.2376
  793TIP3   OH223937   1.197   1.111   1.195 -0.2220 -0.2111 -0.0951
  793TIP3    H123938   1.219   1.178   1.260  0.8326  2.7242 -3.1357
  793TIP3    H223939   1.280   1.093   1.151 -1.3622  0.5571 -2.7570
  794TIP3   OH223940   6.679   2.869   2.172  0.1019  0.1834 -0.6194
  794TIP3    H123941   6.603   2.832   2.129  0.7596 -0.3477 -1.3642
  794TIP3    H223942   6.650   2.891   2.260 -0.7769 -0.4387 -0.7523
  795TIP3   OH223943   5.549   3.868   0.440  0.0827  0.0455 -0.3788
  795TIP3    H123944   5.582   3.913   0.517  0.2524  0.3359 -0.6170
  795TIP3    H223945   5.583   3.779   0.447 -1.9806 -0.6696  1.1750
  796TIP3   OH223946   0.738   3.651   0.421 -0.1496 -0.1411 -0.0635
  796TIP3    H123947   0.668   3.588   0.401 -1.0711  0.1794  1.9227
  796TIP3    H223948   0.718   3.682   0.509  0.9282  2.1062 -0.5371
  797TIP3   OH223949   2.092   1.854   0.881 -0.0077  0.0439 -0.1683
  797TIP3    H123950   2.065   1.773   0.925 -0.0078  0.7060  1.0850
  797TIP3    H223951   2.186   1.858   0.893  0.0859 -0.0763 -0.7908
  798TIP3   OH223952   3.293   3.768   2.173  0.0762 -0.1304  0.7185
  798TIP3    H123953   3.369   3.772   2.116 -1.2276 -2.1909 -1.3148
  798TIP3    H223954   3.297   3.681   2.213 -1.9942 -0.9816 -0.7297
  799TIP3   OH223955   5.652   1.454   0.760 -0.9232 -0.1997 -0.1002
  799TIP3    H123956   5.699   1.435   0.841 -2.1128 -0.9000  0.4552
  799TIP3    H223957   5.673   1.545   0.740  0.8301 -0.5579 -0.0081
  800TIP3   OH223958   6.478   2.645   0.798 -0.2532  0.5870  0.2411
  800TIP3    H123959   6.411   2.577   0.786  1.2642 -1.1831  1.3052
  800TIP3    H223960   6.491   2.680   0.710 -1.4057 -0.1682 -0.2633
  801TIP3   OH223961   2.243   2.508   2.236 -0.4497  0.1007  0.1457
  801TIP3    H123962   2.246   2.502   2.331  0.0110 -1.3545  0.0658
  801TIP3    H223963   2.157   2.545   2.216 -1.0581 -0.7863  1.0791
  802TIP3   OH223964   3.956   2.958   8.158  0.7985  0.2802  0.1257
  802TIP3    H123965   3.966   2.879   8.105  0.4541 -0.2134  0.7752
  802TIP3    H223966   3.947   2.925   8.248  0.4698  1.0493  0.3802
  803TIP3   OH223967   3.093   5.933   1.764 -0.2541  0.4134 -0.8374
  803TIP3    H123968   3.106   5.847   1.724 -0.8925 -0.2944  0.4130
  803TIP3    H223969   3.128   5.995   1.700  1.8102 -0.8725 -1.0221
  804TIP3   OH223970   1.824   2.572   7.682 -0.2116 -0.1686 -0.1547
  804TIP3    H123971   1.854   2.497   7.732  0.0574  0.5350  0.7726
  804TIP3    H223972   1.805   2.639   7.748 -1.4206  0.2423 -0.8876
  805TIP3   OH223973   1.717   6.257   2.525 -0.1718 -0.3446  0.0521
  805TIP3    H123974   1.765   6.196   2.581 -0.8259 -1.0089 -0.0954
  805TIP3    H223975   1.653   6.298   2.584  0.6841  0.6809  0.2916
  806TIP3   OH223976   0.453   5.463   0.684  0.3020 -0.1554 -0.0667
  806TIP3    H123977   0.529   5.505   0.643 -0.2701  0.9180 -0.0688
  806TIP3    H223978   0.400   5.432   0.611 -0.6898  1.7083 -0.2135
  807TIP3   OH223979   2.897   1.050   1.526 -0.1992  0.6617  0.3433
  807TIP3    H123980   2.860   0.971   1.564 -0.3885  0.2578 -0.6536
  807TIP3    H223981   2.882   1.118   1.592 -1.9689  0.3322  0.3215
  808TIP3   OH223982   3.850   4.520   8.490  0.6073 -0.1437 -0.5321
  808TIP3    H123983   3.810   4.445   8.533 -0.5183  0.8083  0.1449
  808TIP3    H223984   3.928   4.540   8.542 -0.6672  0.9184  1.0694
  809TIP3   OH223985   2.668   1.965   1.289  0.4239 -0.2950  0.0885
  809TIP3    H123986   2.749   2.014   1.306 -0.0783  0.9479 -0.9659
  809TIP3    H223987   2.620   2.019   1.227  0.0308 -2.3279 -1.4936
  810TIP3   OH223988   2.512   6.433   1.971  0.1428  0.2622 -0.2113
  810TIP3    H123989   2.602   6.415   1.995  0.9236  2.0801 -1.5452
  810TIP3    H223990   2.484   6.502   2.031 -1.5567 -2.3869  2.3591
  811TIP3   OH223991   1.862   0.630   2.553  0.0911  0.0895 -0.1160
  811TIP3    H123992   1.834   0.721   2.565  1.4390  0.5410 -0.2232
  811TIP3    H223993   1.871   0.596   2.641 -2.3248 -0.5867 -0.0772
  812TIP3   OH223994   3.125   0.576   7.776 -0.1886  0.2042 -0.1094
  812TIP3    H123995   3.170   0.577   7.691  0.2059 -0.2164  0.0898
  812TIP3    H223996   3.151   0.493   7.816  1.1443  1.1975  1.2256
  813TIP3   OH223997   0.304   5.969   0.341  0.3560 -0.3602  0.1727
  813TIP3    H123998   0.393   6.003   0.343  0.1867  0.1071  0.0794
  813TIP3    H223999   0.274   5.986   0.251  0.9701 -2.6573 -0.5348
  814TIP3   OH224000   5.538   0.182   0.685 -0.1281  0.8265  0.0895
  814TIP3    H124001   5.515   0.201   0.594 -1.3849 -0.7154  0.0425
  814TIP3    H224002   5.514   0.090   0.698 -3.7049  1.8904  3.0081
  815TIP3   OH224003   0.044   2.981   2.460 -0.3662 -0.3842 -0.2064
  815TIP3    H124004   0.119   3.034   2.488 -0.3133 -1.0565  0.9780
  815TIP3    H224005  -0.023   3.045   2.437  0.5059  0.2217 -1.1420
  816TIP3   OH224006   1.996   5.731   1.391  0.3533  0.2927 -0.2491
  816TIP3    H124007   2.055   5.685   1.331 -1.3906 -0.1588 -1.6713
  816TIP3    H224008   2.052   5.797   1.433  2.3684 -1.5104  0.0930
  817TIP3   OH224009   5.547   2.434   8.744 -0.5025 -0.1360  0.6764
  817TIP3    H124010   5.632   2.389   8.738  0.0547  1.0151 -0.4217
  817TIP3    H224011   5.510   2.404   8.827 -0.4021 -3.0071 -0.2069
  818TIP3   OH224012   5.710   2.035   1.604  0.0135  0.3963  0.6544
  818TIP3    H124013   5.800   2.044   1.634 -0.6094  1.5759  2.3025
  818TIP3    H224014   5.717   2.028   1.509  1.9169 -1.0416  0.8460
  819TIP3   OH224015   5.697   2.189   8.788  0.2736  0.6878 -0.0581
  819TIP3    H124016   5.763   2.155   8.848 -0.3205  0.8650  0.7130
  819TIP3    H224017   5.625   2.126   8.793  0.1976  0.7299 -0.5532
  820TIP3   OH224018   1.279   4.858   6.990  0.0133 -0.0742  0.7786
  820TIP3    H124019   1.211   4.803   6.952 -0.8769  0.5251  1.4632
  820TIP3    H224020   1.309   4.913   6.917 -0.3081 -0.2615  0.5026
  821TIP3   OH224021   2.502   1.300   8.107  0.9113  0.5705 -0.2813
  821TIP3    H124022   2.554   1.229   8.070 -0.6174 -1.1085  0.6928
  821TIP3    H224023   2.457   1.339   8.031  0.0802 -0.9232 -0.5869
  822TIP3   OH224024   3.074   2.046   3.251 -0.5921  0.2402  0.4543
  822TIP3    H124025   3.012   2.078   3.186 -1.0896  0.5349  1.0672
  822TIP3    H224026   3.028   2.055   3.334  0.1246  0.0842  0.8721
  823TIP3   OH224027   4.909   6.433   7.997 -0.2741  0.4418  0.4181
  823TIP3    H124028   4.944   6.450   7.909 -1.2501 -0.7517 -0.2478
  823TIP3    H224029   4.881   6.518   8.029  0.0792  0.8924 -0.4356
  824TIP3   OH224030   1.572   0.727   1.470 -0.9272  0.1365 -0.1014
  824TIP3    H124031   1.558   0.653   1.412 -1.3357 -0.2684  0.5093
  824TIP3    H224032   1.485   0.748   1.504 -0.7542  0.6405  0.0389
  825TIP3   OH224033   4.556   4.808   7.838 -0.0633  0.2445  0.0536
  825TIP3    H124034   4.609   4.876   7.797  0.5028 -0.3172 -0.1614
  825TIP3    H224035   4.516   4.851   7.914 -0.6377  1.1265 -0.7242
  826TIP3   OH224036   2.304   2.176   0.579 -0.9856  0.4970  0.0342
  826TIP3    H124037   2.321   2.166   0.672 -1.5223  0.2099  0.1062
  826TIP3    H224038   2.288   2.086   0.547  0.1482  0.4797 -0.5276
  827TIP3   OH224039   0.312   0.570   2.454 -0.1522 -0.2199  0.0162
  827TIP3    H124040   0.407   0.576   2.442 -0.1357 -0.3492  0.0802
  827TIP3    H224041   0.299   0.587   2.547 -0.3708  1.8367 -0.3594
  828TIP3   OH224042   6.316   2.199   2.661 -0.5108  0.4208  0.1339
  828TIP3    H124043   6.334   2.226   2.571  0.1430 -1.1933 -0.2471
  828TIP3    H224044   6.397   2.156   2.690 -1.6316 -1.5448  0.5069
  829TIP3   OH224045   1.647   6.501   7.931 -0.2818  0.4028  0.2889
  829TIP3    H124046   1.575   6.506   7.993  0.1643  3.0083  0.6863
  829TIP3    H224047   1.618   6.553   7.856  0.0471 -0.9510 -0.8308
  830TIP3   OH224048   0.175   5.614   1.704 -0.1217  0.3791 -0.0295
  830TIP3    H124049   0.114   5.575   1.642 -1.0565  0.8847  0.5631
  830TIP3    H224050   0.259   5.613   1.658 -0.3172 -1.3946 -0.4178
  831TIP3   OH224051   2.102   5.571   0.762  0.2589 -0.2155 -0.2811
  831TIP3    H124052   2.122   5.509   0.832  0.8161 -0.8022 -0.9431
  831TIP3    H224053   2.177   5.630   0.759  1.2284 -1.4378 -1.7047
  832TIP3   OH224054   4.969   1.051   8.686  0.2997  0.0456 -0.1505
  832TIP3    H124055   4.971   0.962   8.719 -0.1531 -0.5939 -1.7287
  832TIP3    H224056   4.922   1.101   8.752  0.2609 -0.9576  0.5922
  833TIP3   OH224057   3.707   0.325   8.568  0.0109  0.2995 -0.1889
  833TIP3    H124058   3.690   0.274   8.488  0.5353  0.7156 -0.5704
  833TIP3    H224059   3.784   0.377   8.547 -0.1734  0.8154  0.4079
  834TIP3   OH224060   0.771   2.379   8.621 -0.0367 -0.0405 -0.3331
  834TIP3    H124061   0.853   2.391   8.669  0.9015 -0.8671 -1.6565
  834TIP3    H224062   0.796   2.330   8.543 -1.7449  0.0143 -0.9563
  835TIP3   OH224063   4.056   2.638   8.648 -0.4830  0.1730 -0.8099
  835TIP3    H124064   4.063   2.552   8.607  0.1088 -0.1771  0.0095
  835TIP3    H224065   4.041   2.620   8.740 -0.4534  0.9502 -0.6443
  836TIP3   OH224066   0.746   2.978   8.193 -0.1554 -0.4364  0.6054
  836TIP3    H124067   0.714   2.996   8.104 -1.2353 -0.6979  0.9192
  836TIP3    H224068   0.666   2.971   8.245  0.4742 -0.1697  1.6244
  837TIP3   OH224069   6.734   2.732   2.820 -0.2475 -0.4609 -0.0154
  837TIP3    H124070   6.788   2.808   2.841 -0.1375  0.0232 -1.8321
  837TIP3    H224071   6.758   2.666   2.885  0.8976  0.5024  0.5716
  838TIP3   OH224072   5.605   2.621   1.011 -0.5347  0.3081  0.0262
  838TIP3    H124073   5.548   2.604   0.936 -1.7845  0.2203  0.9743
  838TIP3    H224074   5.563   2.693   1.058  1.2368  1.6737 -0.3602
  839TIP3   OH224075   4.086   6.190   8.133 -0.0700 -0.1181 -0.2700
  839TIP3    H124076   4.016   6.129   8.112  0.7771 -0.2441 -3.1797
  839TIP3    H224077   4.155   6.170   8.070  1.4460  1.8926  0.6159
  840TIP3   OH224078   5.347   2.927   8.028  0.4674  0.1034  0.3871
  840TIP3    H124079   5.263   2.883   8.034 -0.3931  1.7942  1.8093
  840TIP3    H224080   5.404   2.865   7.983 -1.1754 -1.6025  0.5495
  841TIP3   OH224081   0.432   3.343   1.813  0.1355 -0.9575  0.1891
  841TIP3    H124082   0.435   3.434   1.781  0.0304 -0.8078  0.5999
  841TIP3    H224083   0.340   3.328   1.834 -0.0225 -1.5024 -0.8452
  842TIP3   OH224084   6.503   2.553   8.573 -0.4036 -0.4895  0.2229
  842TIP3    H124085   6.477   2.645   8.578 -0.0496 -0.4418  1.3875
  842TIP3    H224086   6.541   2.544   8.486 -1.6434  0.1370 -0.4105
  843TIP3   OH224087   1.186   0.026   0.106 -0.5718  0.3055  0.2576
  843TIP3    H124088   1.157  -0.060   0.136 -0.0501 -0.9450 -2.6011
  843TIP3    H224089   1.106   0.068   0.074 -0.4095 -0.3197 -1.0341
  844TIP3   OH224090   2.688   5.818   0.026  0.1802 -0.0247 -0.0411
  844TIP3    H124091   2.765   5.770  -0.007  0.1622  0.6850 -1.1530
  844TIP3    H224092   2.623   5.810  -0.043  0.5437  2.4868 -0.7445
  845TIP3   OH224093   5.451   0.094   1.499  0.2611  0.1513  0.1767
  845TIP3    H124094   5.420   0.113   1.411  2.0989  0.4790 -0.4375
  845TIP3    H224095   5.495   0.174   1.527 -0.7137  0.2328  1.6190
  846TIP3   OH224096   3.099   0.403   2.894 -0.1625 -0.7355  0.1646
  846TIP3    H124097   3.166   0.442   2.950 -0.7719  0.3482  0.1595
  846TIP3    H224098   3.044   0.352   2.953  0.1466 -0.9269  0.2928
  847TIP3   OH224099   4.117   0.883   2.434  0.3272  0.2661  0.3317
  847TIP3    H124100   4.147   0.952   2.376  0.6281 -0.8986 -0.9347
  847TIP3    H224101   4.121   0.922   2.522  1.5616  1.4734 -0.2306
  848TIP3   OH224102   2.632   2.509   0.473 -0.3871 -0.6925  0.4497
  848TIP3    H124103   2.574   2.461   0.532 -0.9807 -0.1616  0.3074
  848TIP3    H224104   2.576   2.575   0.432  0.0504 -0.9435 -0.5856
  849TIP3   OH224105   1.600   4.122   8.125  0.2912  0.2556  0.0902
  849TIP3    H124106   1.538   4.154   8.191 -2.2080 -3.3247 -0.2458
  849TIP3    H224107   1.681   4.106   8.173 -1.2088 -1.4708  2.2112
  850TIP3   OH224108   2.882   6.671   0.938 -0.3394  1.0136  0.3099
  850TIP3    H124109   2.858   6.741   0.998 -1.9497  0.9451 -0.1955
  850TIP3    H224110   2.799   6.647   0.895  0.6531  0.7525 -1.5810
  851TIP3   OH224111   5.945   6.726   8.267  0.1589  0.1011 -0.8285
  851TIP3    H124112   5.950   6.821   8.261 -1.2883  0.4108  1.5296
  851TIP3    H224113   5.867   6.703   8.216 -0.0546  0.2876 -0.5857
  852TIP3   OH224114   1.061   2.779   0.175  0.1301 -0.1912 -0.5842
  852TIP3    H124115   0.987   2.839   0.184 -0.5025 -1.0873  0.2997
  852TIP3    H224116   1.076   2.774   0.080 -0.1690  0.9048 -0.7048
  853TIP3   OH224117   4.363   4.336   8.520  0.2825  0.2199 -0.7854
  853TIP3    H124118   4.450   4.313   8.553 -1.3599 -2.7246  2.0935
  853TIP3    H224119   4.319   4.252   8.507 -2.5131  1.6068 -0.9818
  854TIP3   OH224120   1.091   6.207   8.314  0.6505  0.1945  0.1431
  854TIP3    H124121   0.997   6.203   8.328  0.4826 -0.4487 -1.0912
  854TIP3    H224122   1.119   6.115   8.313  1.3945  0.3922  1.0741
  855TIP3   OH224123   3.241   5.630   7.811 -0.4444  0.0171 -0.0432
  855TIP3    H124124   3.164   5.607   7.864 -0.0871 -3.2275 -0.7244
  855TIP3    H224125   3.211   5.621   7.721  0.0155  1.6271 -0.3869
  856TIP3   OH224126   0.952   0.900   2.761  0.3959 -0.4211  0.2383
  856TIP3    H124127   0.871   0.951   2.768  0.1562 -0.8920  0.9967
  856TIP3    H224128   0.998   0.916   2.843  2.9326  2.8473 -1.5935
  857TIP3   OH224129   4.217   0.220   3.196  0.3794 -0.1271  0.2591
  857TIP3    H124130   4.270   0.141   3.185  0.9531  0.2989 -0.1445
  857TIP3    H224131   4.268   0.288   3.151  1.3740  1.0905  2.9958
  858TIP3   OH224132   5.796   4.077   2.257 -0.4711 -0.7738  0.4512
  858TIP3    H124133   5.885   4.064   2.224 -0.7052 -1.7745  0.1870
  858TIP3    H224134   5.772   3.993   2.296 -0.5480  0.0789  2.3669
  859TIP3   OH224135   2.511   0.817   1.529 -0.3089  0.3671 -0.5192
  859TIP3    H124136   2.607   0.810   1.533 -0.1999  1.6759 -0.2779
  859TIP3    H224137   2.484   0.826   1.621 -0.5549  1.0308 -0.6505
  860TIP3   OH224138   4.169   4.188   1.827 -0.0248  0.3594  0.0364
  860TIP3    H124139   4.104   4.142   1.774 -0.4223  0.5564  0.3511
  860TIP3    H224140   4.253   4.158   1.793 -0.2377 -1.9387  1.3385
  861TIP3   OH224141   1.415   6.559   0.492  0.2818 -0.2857 -0.3260
  861TIP3    H124142   1.446   6.584   0.579 -0.5529 -0.6461  0.0828
  861TIP3    H224143   1.492   6.522   0.449  0.4216 -1.2265  0.6868
  862TIP3   OH224144   3.119   0.737   2.848 -0.2687 -0.4332 -0.7815
  862TIP3    H124145   3.199   0.742   2.899 -0.9209  0.3810  0.2134
  862TIP3    H224146   3.148   0.738   2.757  0.8474 -0.0615 -0.4355
  863TIP3   OH224147   2.871   2.138   7.380 -0.1896  0.0180  0.0162
  863TIP3    H124148   2.924   2.060   7.364 -0.0522  0.5458 -2.6325
  863TIP3    H224149   2.919   2.209   7.336 -2.3400  0.7756 -1.2708
  864TIP3   OH224150   5.624   3.741   2.178 -0.0024 -0.0059 -0.3165
  864TIP3    H124151   5.620   3.801   2.252  0.5816  0.9063 -0.9911
  864TIP3    H224152   5.716   3.713   2.174 -0.0039  0.0370 -0.7476
  865TIP3   OH224153   1.384   6.515   0.184 -0.1258  0.0164 -0.1073
  865TIP3    H124154   1.353   6.571   0.256  1.0828  1.2501 -0.4981
  865TIP3    H224155   1.375   6.426   0.218 -0.8264  0.5032  1.0642
  866TIP3   OH224156   1.040   2.030   0.208 -0.1850  0.2712  0.1088
  866TIP3    H124157   0.969   2.013   0.147  2.0211 -0.8497 -2.3287
  866TIP3    H224158   1.034   1.961   0.273 -1.8293  0.7454  0.4996
  867TIP3   OH224159   0.406   4.081   1.841  0.0827 -0.2025 -0.3735
  867TIP3    H124160   0.329   4.138   1.830  0.9064  0.6567 -2.1716
  867TIP3    H224161   0.469   4.135   1.890  0.5932  0.2053 -1.4463
  868TIP3   OH224162   5.279   3.411   1.756 -0.6858 -0.5796  0.0482
  868TIP3    H124163   5.348   3.358   1.795  1.3281 -0.1251 -2.5826
  868TIP3    H224164   5.248   3.360   1.681 -1.0886  0.5022 -0.5558
  869TIP3   OH224165   6.776   4.466   2.679 -0.6548 -0.9341 -0.3074
  869TIP3    H124166   6.868   4.479   2.654 -0.6609  1.1417  0.5688
  869TIP3    H224167   6.778   4.396   2.744  0.6320  0.5346  1.3356
  870TIP3   OH224168   4.410   1.000   2.484 -0.4143  0.3963 -0.0505
  870TIP3    H124169   4.441   1.091   2.489 -1.3701  0.7571 -0.3537
  870TIP3    H224170   4.411   0.979   2.391 -0.8476  0.3460 -0.0475
  871TIP3   OH224171   4.334   2.761   7.725 -0.4156 -0.1370  0.5789
  871TIP3    H124172   4.316   2.844   7.680 -1.7957  0.1413  1.5867
  871TIP3    H224173   4.370   2.787   7.810  1.2114 -0.6463  0.0871
  872TIP3   OH224174   5.981   2.790   0.827 -0.7053  0.1182 -0.5185
  872TIP3    H124175   5.940   2.785   0.741 -2.8746  1.5906  0.3380
  872TIP3    H224176   5.993   2.884   0.843 -0.7502 -0.0920  0.9246
  873TIP3   OH224177   2.802   0.521   3.179 -0.7208 -0.0086  0.3025
  873TIP3    H124178   2.789   0.534   3.085 -1.3814 -0.0442  0.3834
  873TIP3    H224179   2.777   0.604   3.219  1.3292  0.6487  0.3200
  874TIP3   OH224180   5.150   2.390   2.780  0.1416 -0.0475 -0.0198
  874TIP3    H124181   5.225   2.400   2.721  0.1253 -0.7527 -0.1614
  874TIP3    H224182   5.160   2.462   2.843 -0.0203  0.9169 -1.0580
  875TIP3   OH224183   5.207   6.559   1.078  0.1356  0.3290  0.0477
  875TIP3    H124184   5.126   6.573   1.028  0.3033 -0.6721 -0.5413
  875TIP3    H224185   5.217   6.639   1.130 -1.2344  0.4693  0.1485
  876TIP3   OH224186   3.162   5.750   8.682 -0.3269 -0.5067  0.5783
  876TIP3    H124187   3.214   5.676   8.649  0.4146 -0.3007  1.2597
  876TIP3    H224188   3.201   5.826   8.639  0.6390 -0.2371  1.8960
  877TIP3   OH224189   4.559   3.307   8.679  0.1981 -0.7367  0.2641
  877TIP3    H124190   4.477   3.270   8.647 -1.0083  1.2681  0.8076
  877TIP3    H224191   4.548   3.310   8.774  0.6769  0.0386  0.3043
  878TIP3   OH224192   0.556   5.059   0.304  0.3409 -0.5785 -0.0794
  878TIP3    H124193   0.499   4.985   0.285  0.1018 -0.6345  0.8008
  878TIP3    H224194   0.536   5.123   0.235 -2.2967  0.2348  1.2524
  879TIP3   OH224195   6.800   1.196   1.692  0.3574  0.0989  0.6356
  879TIP3    H124196   6.752   1.135   1.749  0.4057  0.0808  0.6573
  879TIP3    H224197   6.869   1.143   1.653 -0.7859 -0.3382 -0.8707
  880TIP3   OH224198   3.319   0.995   1.099 -0.4526 -0.6054  0.3159
  880TIP3    H124199   3.392   0.934   1.109  0.0839  0.1805  1.4521
  880TIP3    H224200   3.245   0.940   1.072  0.4001 -1.4987 -0.2850
  881TIP3   OH224201   2.797   1.004   0.743  0.1818  0.0616  0.4861
  881TIP3    H124202   2.832   1.016   0.655 -0.0374  0.0568  0.3971
  881TIP3    H224203   2.862   1.044   0.801  0.7493 -0.7154  0.3879
  882TIP3   OH224204   1.068   5.979   2.369  0.5838  0.2494  0.1916
  882TIP3    H124205   1.012   5.923   2.423 -1.7632  1.3125 -0.9991
  882TIP3    H224206   1.151   5.931   2.363 -0.4870 -1.8875  1.2408
  883TIP3   OH224207   1.639   0.731   0.606  0.0765  0.1242 -0.1770
  883TIP3    H124208   1.576   0.659   0.605 -0.8819  0.9406 -0.2063
  883TIP3    H224209   1.585   0.810   0.613  1.0280  0.9240 -1.4346
  884TIP3   OH224210   0.778   6.019   1.043  0.3263  0.2243 -0.6805
  884TIP3    H124211   0.709   6.030   1.109  0.8786  2.2270 -0.3816
  884TIP3    H224212   0.846   5.968   1.088  0.2673  0.7008 -0.0329
  885TIP3   OH224213   5.196   6.760   0.441  0.1388 -0.6296  0.1559
  885TIP3    H124214   5.251   6.782   0.517  1.0731  0.6157 -0.8397
  885TIP3    H224215   5.125   6.707   0.477 -0.0547  0.8278  2.1052
  886TIP3   OH224216   6.191   2.505   2.551  0.3625  0.4404  0.2751
  886TIP3    H124217   6.183   2.452   2.631 -2.4373  1.3711  0.7194
  886TIP3    H224218   6.285   2.518   2.541  0.9531 -1.7533  2.0261
  887TIP3   OH224219   4.814   1.575   0.644 -0.1069  0.0812  0.0903
  887TIP3    H124220   4.830   1.661   0.684 -0.4982 -0.5663  1.7321
  887TIP3    H224221   4.897   1.528   0.655 -0.0316  0.0864 -0.4160
  888TIP3   OH224222   5.454   2.497   2.360  0.0600  0.3153  0.1795
  888TIP3    H124223   5.447   2.403   2.380 -3.1292  0.3617 -0.3465
  888TIP3    H224224   5.460   2.539   2.445  1.7871 -0.3134  0.4175
  889TIP3   OH224225   4.085   0.131   2.476 -0.3226  0.2438  0.6099
  889TIP3    H124226   4.112   0.212   2.519 -1.6964  0.7178  0.6364
  889TIP3    H224227   3.989   0.136   2.475 -0.3725 -0.6111 -0.8802
  890TIP3   OH224228   3.395   4.994   8.238 -0.4365 -0.1468 -0.3079
  890TIP3    H124229   3.392   5.029   8.149 -0.1266 -1.8638 -1.0146
  890TIP3    H224230   3.349   5.060   8.291  2.6927  2.9062 -1.0002
  891TIP3   OH224231   3.191   2.179   8.304  0.1528 -0.2430 -0.6667
  891TIP3    H124232   3.197   2.095   8.350  2.0062 -0.3805 -1.0835
  891TIP3    H224233   3.176   2.156   8.213  0.8186 -0.1412 -0.8071
  892TIP3   OH224234   3.453   4.133   3.026  0.6031 -0.2301  0.1135
  892TIP3    H124235   3.529   4.185   2.999  0.0458 -0.3159 -1.7338
  892TIP3    H224236   3.470   4.046   2.992 -0.4292 -0.1854 -0.5447
  893TIP3   OH224237   3.416   2.579   8.064  0.3941 -0.2339  0.1297
  893TIP3    H124238   3.441   2.671   8.066 -1.3456  0.2536  0.6358
  893TIP3    H224239   3.454   2.543   8.145 -0.1681  0.3990  0.6908
  894TIP3   OH224240   0.467   3.166   2.913  0.4664  0.0319  0.3116
  894TIP3    H124241   0.375   3.159   2.940  0.1345 -0.3549 -0.8474
  894TIP3    H224242   0.504   3.232   2.971 -0.4712 -0.0033  0.9818
  895TIP3   OH224243   5.187   0.758   2.642 -0.0435  0.1289 -0.2721
  895TIP3    H124244   5.268   0.772   2.691  0.5934  0.9077 -1.4976
  895TIP3    H224245   5.177   0.837   2.589 -1.3327 -0.1845 -0.5268
  896TIP3   OH224246   5.626   0.419   8.386 -0.0840 -0.1016  0.1954
  896TIP3    H124247   5.669   0.334   8.388 -0.3981 -0.3920 -2.3103
  896TIP3    H224248   5.698   0.482   8.391  0.1838 -0.4828  1.5504
  897TIP3   OH224249   3.888   4.705   0.671 -0.2592 -0.4525 -0.2753
  897TIP3    H124250   3.869   4.690   0.578  0.7585 -1.5216 -0.3311
  897TIP3    H224251   3.982   4.693   0.679 -0.1639  0.7189  0.7191
  898TIP3   OH224252   5.944   2.360   0.884  0.7023 -0.0789  0.6087
  898TIP3    H124253   5.909   2.277   0.915  0.7878  0.5217  2.4343
  898TIP3    H224254   5.949   2.350   0.789 -1.2457 -1.3998  0.5841
  899TIP3   OH224255   1.017   3.478   7.987 -0.0932 -0.5359  0.2651
  899TIP3    H124256   1.040   3.427   7.910  1.6684  0.4370  0.0783
  899TIP3    H224257   1.089   3.541   7.996 -1.8770  1.5738  0.7700
  900TIP3   OH224258   4.205   5.283   0.745  0.0211  0.5349 -0.0677
  900TIP3    H124259   4.215   5.370   0.705  0.1849  0.8567  0.6666
  900TIP3    H224260   4.287   5.238   0.724  0.0683  0.6684 -0.1791
  901TIP3   OH224261   6.268   1.436   1.842 -0.1377 -0.4428  0.8531
  901TIP3    H124262   6.363   1.420   1.843 -0.2622 -1.4611  2.9497
  901TIP3    H224263   6.254   1.495   1.768  1.7128 -2.5916 -1.4043
  902TIP3   OH224264   6.268   6.266   1.819 -0.0458 -0.2655 -0.3632
  902TIP3    H124265   6.318   6.184   1.824 -0.2769 -0.3923 -0.1174
  902TIP3    H224266   6.190   6.244   1.768  0.3117  0.0181 -1.0468
  903TIP3   OH224267   0.293   4.815   2.412 -0.7722 -0.1589 -0.4826
  903TIP3    H124268   0.312   4.761   2.335 -0.2552  1.0530 -1.2415
  903TIP3    H224269   0.360   4.790   2.475  0.6059  0.8174 -1.4838
  904TIP3   OH224270   0.081   6.535   1.702 -0.3148 -0.2413  0.7488
  904TIP3    H124271   0.004   6.504   1.655 -0.6989  1.9324 -0.1857
  904TIP3    H224272   0.117   6.457   1.743 -1.9306 -1.6369 -0.3399
  905TIP3   OH224273   3.446   2.665   8.725  0.2278  0.2593  0.4615
  905TIP3    H124274   3.529   2.630   8.691  0.5658  0.6467  0.8735
  905TIP3    H224275   3.397   2.588   8.753  0.1089 -0.0414 -0.5171
  906TIP3   OH224276   1.091   2.987   2.347  0.0925  0.1328 -0.4531
  906TIP3    H124277   1.093   3.068   2.296  1.0718 -1.6201 -3.4160
  906TIP3    H224278   1.029   2.931   2.301 -1.1893 -0.6235  2.0040
  907TIP3   OH224279   5.081   6.173   1.510 -0.2074  0.0084  0.7386
  907TIP3    H124280   5.147   6.242   1.510 -0.6249  0.4087  0.2599
  907TIP3    H224281   5.006   6.211   1.556 -0.2809 -0.2841  0.8635
  908TIP3   OH224282   2.389   1.412   8.326 -0.3080  0.2178 -0.1503
  908TIP3    H124283   2.419   1.365   8.248 -1.3668 -0.5010 -0.1525
  908TIP3    H224284   2.415   1.503   8.312  0.0848 -0.0258 -1.0345
  909TIP3   OH224285   6.152   3.505   2.053  0.1882 -0.1454 -0.0361
  909TIP3    H124286   6.060   3.476   2.056 -0.1982  1.0875  0.9929
  909TIP3    H224287   6.171   3.513   1.960 -1.1777  0.7950 -0.2792
  910TIP3   OH224288   4.257   5.202   2.652 -0.4461 -0.3018 -1.1988
  910TIP3    H124289   4.211   5.207   2.568 -0.4980  0.9240 -1.1291
  910TIP3    H224290   4.252   5.110   2.677  1.6203 -1.1717 -3.6324
  911TIP3   OH224291   2.141   5.708   8.849 -0.3050 -0.4303 -0.3921
  911TIP3    H124292   2.144   5.671   8.761  0.4416 -2.1563  0.3270
  911TIP3    H224293   2.049   5.701   8.874 -0.3814 -0.6622 -0.7253
  912TIP3   OH224294   0.406   2.963   1.992 -0.2029  0.8468  0.0666
  912TIP3    H124295   0.439   3.048   2.024 -3.1675  2.4881 -0.8670
  912TIP3    H224296   0.437   2.958   1.902 -2.8011  2.7480 -1.0658
  913TIP3   OH224297   4.468   4.745   0.376  0.4170  0.5487 -0.0432
  913TIP3    H124298   4.420   4.768   0.296 -1.1504  0.6856  0.8914
  913TIP3    H224299   4.407   4.763   0.447  2.0841  1.2885  1.2786
  914TIP3   OH224300   0.458   6.722   8.604 -0.2059 -0.3262 -0.0192
  914TIP3    H124301   0.430   6.652   8.545  1.0136  0.0787 -1.1188
  914TIP3    H224302   0.413   6.800   8.571 -1.0774 -0.4500  0.8265
  915TIP3   OH224303   6.685   3.578   8.491 -0.3280  0.6353 -0.0334
  915TIP3    H124304   6.633   3.498   8.487  0.3147  0.2530 -1.3152
  915TIP3    H224305   6.733   3.571   8.574 -1.1453  0.2697  0.4245
  916TIP3   OH224306   5.381   1.490   2.723 -0.0028 -0.3334 -0.4163
  916TIP3    H124307   5.331   1.413   2.750 -0.2731 -0.4215 -1.1568
  916TIP3    H224308   5.466   1.480   2.766 -0.2050 -0.7917 -0.1194
  917TIP3   OH224309   0.154   3.324   1.879 -0.0026  0.1026 -0.0465
  917TIP3    H124310   0.099   3.252   1.848 -1.3146  1.6566 -1.5536
  917TIP3    H224311   0.132   3.333   1.971  0.0472 -1.2934  0.1226
  918TIP3   OH224312   5.795   2.629   8.529 -0.3290 -0.0675  0.2574
  918TIP3    H124313   5.759   2.547   8.563 -0.7211  0.2702  0.6775
  918TIP3    H224314   5.890   2.619   8.538 -0.4265  0.4622  2.6339
  919TIP3   OH224315   1.118   4.328   3.017 -0.3370 -0.0397  0.7326
  919TIP3    H124316   1.119   4.305   3.110  0.0866 -0.0313  0.7329
  919TIP3    H224317   1.096   4.421   3.016  0.8167  0.2425  0.8918
  920TIP3   OH224318   5.961   0.002   1.812 -0.5904  0.2241  0.0253
  920TIP3    H124319   5.901  -0.022   1.882 -0.2595 -0.5998  0.0249
  920TIP3    H224320   6.013   0.074   1.848 -2.6281  2.0730 -0.5052
  921TIP3   OH224321   5.952   4.193   1.681  0.3395 -0.1628 -0.5211
  921TIP3    H124322   5.891   4.166   1.750 -0.5777  0.1585 -1.2027
  921TIP3    H224323   6.014   4.252   1.725  0.0544 -0.3469  0.1294
  922TIP3   OH224324   1.728   5.387   1.566 -0.2142 -0.0540  0.4057
  922TIP3    H124325   1.665   5.405   1.636 -1.3557  0.9090 -0.8256
  922TIP3    H224326   1.698   5.305   1.526 -0.2937  0.0552  0.2422
  923TIP3   OH224327   2.538   0.356   3.231  0.5881  0.2036 -0.3225
  923TIP3    H124328   2.568   0.356   3.140  1.6858  0.8405  0.0147
  923TIP3    H224329   2.500   0.442   3.244  0.5154  0.1455 -0.1514
  924TIP3   OH224330   4.723   1.569   8.765  0.6290  0.5355  0.0287
  924TIP3    H124331   4.714   1.644   8.706  0.8274  0.4002 -0.1754
  924TIP3    H224332   4.730   1.493   8.708 -0.7415  0.2160  0.2535
  925TIP3   OH224333   4.194   1.836   8.831  0.6181  0.7434  0.4356
  925TIP3    H124334   4.226   1.912   8.783 -2.1337  0.8273 -1.4703
  925TIP3    H224335   4.104   1.857   8.852 -0.4764 -2.2088 -0.7809
  926TIP3   OH224336   0.573   5.826   7.721  0.0639 -0.0662  1.2313
  926TIP3    H124337   0.664   5.819   7.691 -0.0826 -0.3248  0.8339
  926TIP3    H224338   0.557   5.742   7.765 -0.3077 -0.4697  0.3643
  927TIP3   OH224339   1.579   0.714   0.199  0.1371 -0.0025  0.4128
  927TIP3    H124340   1.504   0.719   0.259 -0.2940 -2.0588  0.1131
  927TIP3    H224341   1.552   0.768   0.124  0.2975  1.8266  1.6062
  928TIP3   OH224342   1.024   0.623   0.550 -0.0779  0.7336 -0.1494
  928TIP3    H124343   0.973   0.547   0.578  1.1665 -0.1853 -0.3325
  928TIP3    H224344   1.043   0.670   0.631  2.7047 -1.4060  0.5820
  929TIP3   OH224345   1.167   1.056   2.202 -0.2904  0.2890  0.1286
  929TIP3    H124346   1.128   0.977   2.164 -0.4462  0.8445 -0.8919
  929TIP3    H224347   1.240   1.023   2.255 -0.0269 -0.4997 -0.7000
  930TIP3   OH224348   6.074   4.649   1.096  0.2154 -0.3846 -0.2187
  930TIP3    H124349   6.034   4.565   1.076  1.3661 -0.7414 -1.1142
  930TIP3    H224350   6.125   4.633   1.175 -1.2272  0.0376  0.8474
  931TIP3   OH224351   6.320   5.477   0.611  0.0290 -0.0256 -0.3226
  931TIP3    H124352   6.339   5.452   0.701 -0.8796 -1.6963 -0.5567
  931TIP3    H224353   6.350   5.568   0.604  1.5549 -0.3781  1.1965
  932TIP3   OH224354   4.230   5.127   2.146  0.0974  0.4905  0.0006
  932TIP3    H124355   4.283   5.056   2.183  0.2422  0.6044  0.0101
  932TIP3    H224356   4.141   5.106   2.174 -0.2713 -1.0937 -2.1097
  933TIP3   OH224357   5.290   4.238   2.164  0.1451 -0.3760  0.4313
  933TIP3    H124358   5.366   4.281   2.204  2.0450 -2.3214 -0.8585
  933TIP3    H224359   5.262   4.174   2.229  0.8290 -0.9246  0.2062
  934TIP3   OH224360   0.970   2.146   2.626  0.6819  0.4233 -0.1213
  934TIP3    H124361   0.884   2.150   2.668  0.7300 -1.2594  0.2451
  934TIP3    H224362   0.978   2.228   2.578 -1.8268 -0.0313 -1.4977
  935TIP3   OH224363   3.572   0.018   2.582  0.0863  0.3194  0.2841
  935TIP3    H124364   3.529   0.035   2.666  1.1889  3.4465  0.3318
  935TIP3    H224365   3.500   0.013   2.519 -0.6069  1.1954  0.9769
  936TIP3   OH224366   4.873   6.121   1.813  0.6041 -0.6258  0.0470
  936TIP3    H124367   4.820   6.128   1.893 -1.4753 -1.0724 -1.2074
  936TIP3    H224368   4.949   6.068   1.839  0.1596 -0.4699  1.7947
  937TIP3   OH224369   3.792   1.618   1.880  0.2215 -0.0974  0.3216
  937TIP3    H124370   3.761   1.674   1.808  1.2945  0.0327 -0.0703
  937TIP3    H224371   3.713   1.578   1.915 -0.3985  0.3569 -0.5014
  938TIP3   OH224372   6.464   4.869   1.370 -0.6706  0.4319  0.5887
  938TIP3    H124373   6.393   4.828   1.419 -1.1349  0.3845 -0.1105
  938TIP3    H224374   6.441   4.856   1.278 -0.0160  0.8641  0.3526
  939TIP3   OH224375   3.351   4.595   0.214  0.2291 -0.2208  0.3138
  939TIP3    H124376   3.444   4.614   0.200  0.6285 -0.6055  2.1260
  939TIP3    H224377   3.309   4.681   0.218  0.7386  0.0103  0.7802
  940TIP3   OH224378   6.415   4.052   7.844 -0.0419 -0.1134 -0.6885
  940TIP3    H124379   6.351   4.007   7.899  0.8622  0.9040  1.3226
  940TIP3    H224380   6.363   4.094   7.775 -1.3894 -0.3578  0.1501
  941TIP3   OH224381   1.660   1.257   0.048 -0.5746  0.4233 -0.1938
  941TIP3    H124382   1.621   1.329  -0.002 -0.1474  0.4333 -0.5280
  941TIP3    H224383   1.671   1.187  -0.017 -2.3072 -0.4848  0.4326
  942TIP3   OH224384   2.391   3.446   0.447  0.3020 -0.2575  0.1697
  942TIP3    H124385   2.317   3.394   0.416 -0.4101  0.8396 -0.0448
  942TIP3    H224386   2.402   3.513   0.379  0.3771  0.6289  1.0371
  943TIP3   OH224387   3.945   5.971   8.553 -0.2600 -0.6928  0.3304
  943TIP3    H124388   3.876   5.929   8.501 -1.1791 -0.7945  1.5823
  943TIP3    H224389   3.960   6.055   8.510 -1.6721 -0.3646  0.4250
  944TIP3   OH224390   0.170   1.291   7.211  0.0098 -0.3801 -0.2584
  944TIP3    H124391   0.160   1.229   7.139 -3.1470 -0.4878  0.1441
  944TIP3    H224392   0.243   1.256   7.263  2.0542 -0.5567 -3.0231
  945TIP3   OH224393   4.664   0.219   1.482  0.0106  0.3178  0.4244
  945TIP3    H124394   4.571   0.215   1.458  0.6640 -1.9354 -2.3282
  945TIP3    H224395   4.668   0.181   1.570 -1.5302 -1.0960 -0.0764
  946TIP3   OH224396   2.182   3.393   2.579 -0.3529  0.2685 -0.0960
  946TIP3    H124397   2.252   3.430   2.524  2.0689  0.1353  2.6420
  946TIP3    H224398   2.121   3.354   2.517  0.5245  2.8043 -2.8029
  947TIP3   OH224399   4.432   1.194   2.897 -0.2774 -0.4929 -0.1159
  947TIP3    H124400   4.467   1.237   2.819 -2.3992  0.0871 -0.7976
  947TIP3    H224401   4.446   1.257   2.967  1.0996 -0.7783 -0.0917
  948TIP3   OH224402   4.767   4.406   0.026  0.4519  1.0282 -0.0408
  948TIP3    H124403   4.731   4.491   0.051 -1.6495  0.6517 -1.5304
  948TIP3    H224404   4.692   4.348   0.023  1.4088 -0.2178 -1.7494
  949TIP3   OH224405   4.753   0.679   1.902 -0.0704  0.2946  0.5914
  949TIP3    H124406   4.721   0.620   1.833 -0.1117  1.5497 -0.5080
  949TIP3    H224407   4.827   0.633   1.941 -0.7046 -0.9017  0.4248
  950TIP3   OH224408   6.796   0.342   1.641  0.6900  0.3835  0.4427
  950TIP3    H124409   6.705   0.314   1.655  1.0229 -0.2786  1.4022
  950TIP3    H224410   6.814   0.400   1.715  1.9080 -1.6957  1.8835
  951TIP3   OH224411   1.295   2.950   1.424  0.1260 -0.3646  0.5732
  951TIP3    H124412   1.276   2.913   1.337 -0.1210  0.9505  0.0402
  951TIP3    H224413   1.257   2.888   1.485  1.2310 -1.8745 -0.2053
  952TIP3   OH224414   4.114   6.555   2.044 -0.1800  0.5242  0.5293
  952TIP3    H124415   4.178   6.598   2.100  0.1121 -0.2619  0.8074
  952TIP3    H224416   4.052   6.624   2.022 -0.1555  0.9054  1.5991
  953TIP3   OH224417   4.565   6.381   2.172 -0.0576 -0.2739  0.5222
  953TIP3    H124418   4.575   6.406   2.264 -0.1783 -1.2438  0.8066
  953TIP3    H224419   4.471   6.376   2.158 -0.0739  1.1482 -0.0239
  954TIP3   OH224420   5.865   4.302   2.414 -0.2660 -0.1975 -0.7650
  954TIP3    H124421   5.948   4.270   2.451 -0.0140  0.2097 -0.9694
  954TIP3    H224422   5.834   4.230   2.359  1.0093  0.4028 -2.3533
  955TIP3   OH224423   1.284   6.163   2.253 -0.1355 -0.6137 -0.0441
  955TIP3    H124424   1.220   6.108   2.299  0.6904 -1.2024  0.4299
  955TIP3    H224425   1.367   6.117   2.263  0.4289  0.2946 -0.3775
  956TIP3   OH224426   3.384   3.393   0.901  0.2376  0.7130 -0.0692
  956TIP3    H124427   3.343   3.407   0.815  0.2483 -0.3296 -0.2631
  956TIP3    H224428   3.471   3.359   0.881  1.2293  2.8740  0.3503
  957TIP3   OH224429   3.964   6.644   1.314  0.4255  0.0325  0.4747
  957TIP3    H124430   3.995   6.622   1.227  2.3272 -0.0373  1.1151
  957TIP3    H224431   3.897   6.711   1.300  0.7308  0.0536 -1.0208
  958TIP3   OH224432   2.509   5.028   2.216  0.1696  0.0104 -0.0473
  958TIP3    H124433   2.565   5.087   2.165 -0.1201  2.3338  2.1188
  958TIP3    H224434   2.476   4.965   2.152  1.7137  1.2633 -2.2215
  959TIP3   OH224435   5.883   6.329   8.725 -1.1177 -0.0797 -0.1359
  959TIP3    H124436   5.893   6.246   8.677  1.0107  1.1279 -1.9774
  959TIP3    H224437   5.939   6.318   8.802  0.5336  0.1620 -1.2355
  960TIP3   OH224438   5.312   0.236   2.040 -1.0810  0.7353  0.5473
  960TIP3    H124439   5.335   0.175   2.111 -0.7525  1.2069  0.8555
  960TIP3    H224440   5.379   0.221   1.973  1.6299  3.5702  2.2962
  961TIP3   OH224441   0.378   0.900   1.398 -0.2055  0.1288  0.3147
  961TIP3    H124442   0.368   0.880   1.305  0.7099  3.3922 -0.6216
  961TIP3    H224443   0.470   0.881   1.416  0.0893  1.2177  0.0227
  962TIP3   OH224444   5.246   2.146   0.852  0.3722  0.0649 -0.0125
  962TIP3    H124445   5.339   2.134   0.832  0.2417 -0.6420 -0.2449
  962TIP3    H224446   5.202   2.087   0.791 -0.3659  1.8600 -1.3165
  963TIP3   OH224447   4.371   6.649   2.273 -0.6843 -0.6235 -0.4312
  963TIP3    H124448   4.317   6.726   2.289 -1.3450 -1.1049 -0.3126
  963TIP3    H224449   4.435   6.678   2.208 -1.3617 -0.1585 -0.9043
  964TIP3   OH224450   1.595   3.628   8.739  0.0084  0.0505  0.5560
  964TIP3    H124451   1.646   3.561   8.784 -0.3936 -1.2650 -0.8352
  964TIP3    H224452   1.505   3.615   8.771 -0.1115 -0.2663  0.1123
  965TIP3   OH224453   4.262   1.223   8.190  0.0559  0.3050 -0.0094
  965TIP3    H124454   4.210   1.183   8.120  0.9289  1.4494 -1.3592
  965TIP3    H224455   4.338   1.261   8.145  1.2130  0.1335  1.7038
  966TIP3   OH224456   2.787   6.525   3.532  0.0985 -0.2270 -0.0489
  966TIP3    H124457   2.708   6.534   3.478  0.9779 -3.1448 -2.0450
  966TIP3    H224458   2.754   6.530   3.622 -2.4728 -1.7035 -0.7842
  967TIP3   OH224459   4.101   1.600   1.469 -0.1741  0.1142  0.0368
  967TIP3    H124460   4.074   1.509   1.458 -0.6621  0.3115 -0.4438
  967TIP3    H224461   4.079   1.620   1.560 -0.5152 -0.1059  0.0074
  968TIP3   OH224462   4.153   1.668   8.600  0.2342 -0.2477 -0.5022
  968TIP3    H124463   4.170   1.696   8.690  1.9539 -0.2298 -0.7926
  968TIP3    H224464   4.237   1.636   8.568  0.0042  0.9202 -2.5200
  969TIP3   OH224465   3.247   3.775   0.675 -0.8300  0.3007 -0.2765
  969TIP3    H124466   3.200   3.743   0.751 -1.0228  0.6363 -0.2516
  969TIP3    H224467   3.311   3.837   0.710 -0.3571 -0.1676 -0.3088
  970TIP3   OH224468   0.321   4.104   7.637 -0.4103 -0.0082  0.3381
  970TIP3    H124469   0.237   4.059   7.638 -0.1893 -0.4452  1.7126
  970TIP3    H224470   0.350   4.102   7.728  2.9103 -3.3657 -0.5380
  971TIP3   OH224471   1.396   6.315   1.792 -0.3380  0.4625  0.2770
  971TIP3    H124472   1.451   6.318   1.870 -0.9251  1.7505  0.6615
  971TIP3    H224473   1.361   6.404   1.783 -1.3402  0.0014 -0.6889
  972TIP3   OH224474   6.589   1.956   1.835  0.0639  0.3082 -0.1834
  972TIP3    H124475   6.679   1.935   1.860  0.3296  2.1487  0.5740
  972TIP3    H224476   6.535   1.899   1.890  0.7521  0.1837  0.3759
  973TIP3   OH224477   3.778   1.197   8.447 -0.3779 -0.4549 -0.0448
  973TIP3    H124478   3.869   1.175   8.424  0.0071 -0.0681  1.0588
  973TIP3    H224479   3.780   1.207   8.542 -1.7203 -1.0772  0.0631
  974TIP3   OH224480   3.150   6.576   2.226 -0.2610 -0.5217  1.2450
  974TIP3    H124481   3.133   6.507   2.290 -0.7395 -0.8969  0.7216
  974TIP3    H224482   3.186   6.649   2.278 -1.1618 -0.6141  2.0171
  975TIP3   OH224483   5.098   6.577   0.051 -0.1131 -0.0765 -0.0771
  975TIP3    H124484   5.154   6.650   0.077 -0.3812  0.3873 -0.7828
  975TIP3    H224485   5.134   6.502   0.099  0.3466  0.4519  0.4297
  976TIP3   OH224486   6.700   5.174   8.073  0.1531  0.5463 -0.2301
  976TIP3    H124487   6.677   5.209   7.987  0.6232  1.2456 -0.0871
  976TIP3    H224488   6.725   5.083   8.057 -1.1419  0.2381 -0.6149
  977TIP3   OH224489   5.502   2.735   1.430  0.4077  0.1285 -0.1086
  977TIP3    H124490   5.534   2.814   1.473 -1.6239  1.2803 -0.5968
  977TIP3    H224491   5.448   2.692   1.496  3.3979 -2.2746  1.0198
  978TIP3   OH224492   5.066   3.399   0.492 -0.0396  0.5382 -0.6094
  978TIP3    H124493   5.014   3.403   0.572  0.6392  0.3028 -0.1518
  978TIP3    H224494   5.152   3.369   0.520  0.6953  1.9910 -1.1843
  979TIP3   OH224495   5.144   4.531   2.430  0.0374  0.0719  0.2554
  979TIP3    H124496   5.110   4.506   2.516 -0.2122  1.0322  0.4441
  979TIP3    H224497   5.070   4.573   2.386  0.1549 -0.4413 -0.4479
  980TIP3   OH224498   5.907   6.129   8.547 -0.4826  0.0471  0.4968
  980TIP3    H124499   5.989   6.084   8.525 -1.4553 -1.6491  0.1573
  980TIP3    H224500   5.911   6.211   8.498  0.0671 -0.9759 -1.2542
  981TIP3   OH224501   1.871   4.710   3.169  0.3319 -0.0112  0.5288
  981TIP3    H124502   1.951   4.673   3.134 -0.4044 -1.5485  0.3657
  981TIP3    H224503   1.809   4.637   3.170 -0.8570  0.9537  1.3066
  982TIP3   OH224504   0.010   4.035   1.814  0.0813 -0.5503  0.3418
  982TIP3    H124505   0.070   4.101   1.780 -1.1513  0.8644  0.8115
  982TIP3    H224506  -0.002   3.974   1.741 -0.7382  1.1616 -1.0454
  983TIP3   OH224507   6.196   5.347   7.945  0.4785  0.0457 -0.9134
  983TIP3    H124508   6.154   5.389   7.870 -1.1027  2.1482  1.0009
  983TIP3    H224509   6.123   5.315   7.999  1.5147 -0.4931  0.2255
  984TIP3   OH224510   5.771   6.721   8.783 -0.1341 -0.3821  0.3940
  984TIP3    H124511   5.740   6.810   8.797  2.1540  0.3411  1.2523
  984TIP3    H224512   5.835   6.727   8.712 -0.3204 -1.4386  0.1120
  985TIP3   OH224513   6.305   4.920   1.740  0.2261  0.3086  0.5853
  985TIP3    H124514   6.395   4.942   1.719  0.3838  0.9975  1.9091
  985TIP3    H224515   6.255   4.999   1.718  0.2342  0.6283  1.6709
  986TIP3   OH224516   6.171   6.577   1.090  0.0532  0.2742 -0.1391
  986TIP3    H124517   6.090   6.627   1.091  0.3409  0.8080 -1.2320
  986TIP3    H224518   6.144   6.486   1.084 -0.4678  0.3913  0.4350
  987TIP3   OH224519   3.396   6.422   0.121  0.2079 -0.4565  0.5116
  987TIP3    H124520   3.377   6.389   0.208 -0.0742  0.3054  0.7473
  987TIP3    H224521   3.476   6.473   0.132 -0.4932  0.6659  0.5949
  988TIP3   OH224522   4.638   3.908   0.079  0.5640  0.4181 -0.7200
  988TIP3    H124523   4.587   3.829   0.095  0.7859  0.5894  1.0128
  988TIP3    H224524   4.649   3.911  -0.016 -1.3796 -0.4021 -1.0116
  989TIP3   OH224525   4.347   2.183   7.382 -0.4460  0.3215 -0.3730
  989TIP3    H124526   4.274   2.125   7.405 -0.8029  0.4999 -1.0381
  989TIP3    H224527   4.387   2.142   7.306  0.9343 -0.4408  0.7021
  990TIP3   OH224528   4.136   4.961   1.695 -0.2031 -0.2206  0.0956
  990TIP3    H124529   4.140   4.868   1.673 -0.3476  0.0128 -0.9739
  990TIP3    H224530   4.227   4.991   1.690 -0.3278  0.0111 -1.0631
  991TIP3   OH224531   3.862   5.320   1.117 -0.0241  0.3429 -0.2991
  991TIP3    H124532   3.942   5.300   1.068 -0.2446  1.7588 -1.3034
  991TIP3    H224533   3.873   5.411   1.144  0.2909 -0.5091  2.7858
  992TIP3   OH224534   4.093   4.246   7.789  0.0391 -0.5088 -0.3135
  992TIP3    H124535   4.055   4.221   7.705 -0.6767 -0.4054 -0.0266
  992TIP3    H224536   4.176   4.198   7.793  0.6610  0.3996 -1.6013
  993TIP3   OH224537   0.604   5.474   1.400  0.4033 -0.2022  0.2038
  993TIP3    H124538   0.675   5.486   1.463  0.2306 -0.4693  0.4583
  993TIP3    H224539   0.572   5.385   1.417  1.1682 -0.7519 -1.1085
  994TIP3   OH224540   1.104   5.778   0.667 -0.0951  0.2735  0.2058
  994TIP3    H124541   1.175   5.732   0.713 -0.8913 -1.1430  0.0779
  994TIP3    H224542   1.084   5.722   0.593 -0.4238  1.3662 -0.5529
  995TIP3   OH224543   0.016   3.869   7.818  0.0967  0.4460 -0.2847
  995TIP3    H124544   0.040   3.897   7.730 -0.4387 -0.9799 -0.9091
  995TIP3    H224545  -0.024   3.947   7.857  1.1275  1.3503 -0.9704
  996TIP3   OH224546   4.535   0.691   1.042 -0.5877  0.2971 -0.0036
  996TIP3    H124547   4.500   0.659   0.959  1.0925 -1.7774  0.0053
  996TIP3    H224548   4.560   0.782   1.023 -1.6304  0.3522 -1.3015
  997TIP3   OH224549   4.727   2.434   1.622  0.7782 -0.0973 -0.2250
  997TIP3    H124550   4.661   2.434   1.553  0.4837  2.6432 -0.0587
  997TIP3    H224551   4.678   2.417   1.702  1.0943 -3.1019 -0.5694
  998TIP3   OH224552   2.797   2.648   7.877  0.3668  0.1702  0.2390
  998TIP3    H124553   2.775   2.555   7.867 -1.4843  0.4355  1.4331
  998TIP3    H224554   2.807   2.660   7.972 -0.4851  1.3984  0.1904
  999TIP3   OH224555   1.483   3.154   2.682  0.5406 -0.0428  0.1629
  999TIP3    H124556   1.455   3.189   2.597  0.8446 -0.3211 -0.0513
  999TIP3    H224557   1.430   3.203   2.745  1.4678  1.3439 -0.0860
 1000TIP3   OH224558   1.329   1.595   0.029  0.4477  0.1752  0.0647
 1000TIP3    H124559   1.240   1.571   0.003  1.0780  0.6518 -2.9014
 1000TIP3    H224560   1.385   1.531  -0.013  1.6141  1.1790  0.0261
 1001TIP3   OH224561   0.342   0.451   1.816  0.0075 -0.7159  0.6528
 1001TIP3    H124562   0.426   0.473   1.775 -0.9716  0.9134 -0.6436
 1001TIP3    H224563   0.282   0.518   1.782 -1.1515  0.0694  3.9242
 1002TIP3   OH224564   4.539   3.540   7.626  0.1325 -0.6140 -0.1283
 1002TIP3    H124565   4.513   3.508   7.540  0.5419 -0.0695 -0.4587
 1002TIP3    H224566   4.457   3.543   7.676 -0.1724 -0.5401 -0.6277
 1003TIP3   OH224567   1.529   5.182   1.701  0.1303 -0.0148  0.2566
 1003TIP3    H124568   1.503   5.243   1.770 -0.0238  0.4068 -0.1651
 1003TIP3    H224569   1.475   5.206   1.626 -0.2582 -0.9861  0.2215
 1004TIP3   OH224570   0.298   3.773   1.208 -0.2912  0.3218  0.0663
 1004TIP3    H124571   0.308   3.699   1.268  1.0623  0.5389  0.1356
 1004TIP3    H224572   0.232   3.828   1.250 -1.1572 -0.7180  0.1250
 1005TIP3   OH224573   4.005   3.260   7.276 -0.5519 -1.2156 -0.2618
 1005TIP3    H124574   3.998   3.207   7.197  2.6272  0.9282 -2.2057
 1005TIP3    H224575   3.941   3.331   7.263 -1.5038 -1.9683  0.1528
 1006TIP3   OH224576   5.158   0.883   0.726 -0.0686 -0.2949  0.0156
 1006TIP3    H124577   5.079   0.907   0.677  0.0591 -2.1548 -1.1941
 1006TIP3    H224578   5.230   0.914   0.671  0.0661  0.3035  0.5201
 1007TIP3   OH224579   4.875   1.092   0.274 -0.1197  0.1431 -0.1542
 1007TIP3    H124580   4.890   1.118   0.365  0.2393 -1.2168  0.1958
 1007TIP3    H224581   4.811   1.021   0.280  0.6216 -0.5999 -0.8858
 1008TIP3   OH224582   2.380   2.502   7.682  0.4303  0.0948 -0.2460
 1008TIP3    H124583   2.312   2.474   7.621 -0.2207  1.2274 -0.0607
 1008TIP3    H224584   2.380   2.597   7.677 -0.6708  0.3449  2.5767
 1009TIP3   OH224585   4.572   4.546   2.814  0.1723  0.0982  0.0795
 1009TIP3    H124586   4.587   4.545   2.909 -0.5806 -0.9072  0.2148
 1009TIP3    H224587   4.654   4.576   2.777  0.1225  1.6266  1.0979
 1010TIP3   OH224588   1.655   5.958   7.981 -0.5028 -0.8066 -0.3316
 1010TIP3    H124589   1.709   5.945   8.059 -0.1433 -0.0171 -0.4366
 1010TIP3    H224590   1.705   5.915   7.911  0.5831  0.8835 -0.6430
 1011TIP3   OH224591   0.497   3.236   2.047 -0.1076  0.3691  0.1130
 1011TIP3    H124592   0.569   3.252   2.108 -0.3019  1.7242  0.0308
 1011TIP3    H224593   0.493   3.315   1.994 -0.5879 -0.3872 -1.0030
 1012TIP3   OH224594   1.277   1.192   8.343 -0.8498  0.2870  0.6554
 1012TIP3    H124595   1.274   1.161   8.433 -0.9219 -0.8872  0.2590
 1012TIP3    H224596   1.294   1.286   8.351 -1.5978  0.3473  1.9119
 1013TIP3   OH224597   3.231   2.139   2.062  0.0848  0.3336  0.2237
 1013TIP3    H124598   3.276   2.091   1.992  0.2170  0.4206  0.2486
 1013TIP3    H224599   3.231   2.230   2.033  0.1377  0.3697  0.3346
 1014TIP3   OH224600   3.330   4.447   1.484 -0.0491 -0.0256 -0.0465
 1014TIP3    H124601   3.395   4.378   1.494 -1.3416 -1.4045 -0.7962
 1014TIP3    H224602   3.356   4.494   1.405 -0.3878 -1.0779 -0.7959
 1015TIP3   OH224603   0.115   3.655   0.808  0.0936  0.8638 -0.2008
 1015TIP3    H124604   0.157   3.732   0.846  2.5998 -1.1157  1.3718
 1015TIP3    H224605   0.185   3.610   0.762 -1.1579 -0.8010 -0.5640
 1016TIP3   OH224606   4.735   5.644   0.603 -0.1414  0.2141 -0.1778
 1016TIP3    H124607   4.665   5.683   0.550  0.1571  0.2227 -0.5713
 1016TIP3    H224608   4.692   5.618   0.685 -1.3562 -2.8682 -1.6614
 1017TIP3   OH224609   6.065   6.140   1.640 -0.4452 -0.0951 -0.2812
 1017TIP3    H124610   6.015   6.203   1.588  0.3763  0.1327 -0.8127
 1017TIP3    H224611   6.102   6.080   1.575 -0.6044 -0.6759  0.1648
 1018TIP3   OH224612   4.354   1.142   8.588 -0.1529  0.8625  0.4760
 1018TIP3    H124613   4.333   1.071   8.528 -1.1552  1.0966  0.5367
 1018TIP3    H224614   4.307   1.121   8.669 -0.9739  1.9040  0.2869
 1019TIP3   OH224615   4.497   5.295   1.612  0.0522  0.6473  0.1153
 1019TIP3    H124616   4.569   5.284   1.674 -0.0223  1.9310  0.4641
 1019TIP3    H224617   4.437   5.356   1.656  1.1259  3.5356 -2.1130
 1020TIP3   OH224618   5.311   3.061   1.235 -0.1098  0.4782 -0.6187
 1020TIP3    H124619   5.244   3.025   1.293 -0.5116 -0.3620 -1.5780
 1020TIP3    H224620   5.285   3.153   1.222 -0.4695  0.4488 -0.1325
 1021TIP3   OH224621   4.203   2.804   8.523 -0.2042  0.0546 -0.4904
 1021TIP3    H124622   4.220   2.783   8.431  1.3047 -0.6336 -0.0797
 1021TIP3    H224623   4.143   2.735   8.553 -1.1508  0.5983 -1.0837
 1022TIP3   OH224624   2.957   1.518   0.628  0.4587 -0.9128 -0.0684
 1022TIP3    H124625   2.921   1.453   0.688 -0.8210 -0.8415 -0.7451
 1022TIP3    H224626   3.010   1.468   0.567  1.0632 -1.0820  0.5738
 1023TIP3   OH224627   2.853   6.505   0.263  0.0025  0.0454 -0.2538
 1023TIP3    H124628   2.900   6.573   0.311  0.2487  0.0820 -0.5425
 1023TIP3    H224629   2.795   6.553   0.204 -2.4659  0.0494  1.9983
 1024TIP3   OH224630   4.796   4.162   2.242  0.4968  0.4000 -0.0769
 1024TIP3    H124631   4.722   4.186   2.298  1.7934  2.5008  0.9093
 1024TIP3    H224632   4.782   4.211   2.161 -1.5422 -2.8844 -1.9108
 1025TIP3   OH224633   0.109   5.110   8.877  0.2202  0.5014  0.1758
 1025TIP3    H124634   0.128   5.189   8.825 -0.7100 -0.3232 -1.4869
 1025TIP3    H224635   0.108   5.039   8.814 -2.3703 -0.3638  1.0490
 1026TIP3   OH224636   5.068   0.067   1.739  0.7625  0.3220 -0.4582
 1026TIP3    H124637   4.979   0.040   1.719  1.0459 -0.8802 -0.1773
 1026TIP3    H224638   5.077   0.052   1.833  1.4062 -0.0175 -0.5704
 1027TIP3   OH224639   2.897   5.504   1.869 -0.6158  0.5265  0.5936
 1027TIP3    H124640   2.818   5.465   1.833 -0.9220  0.4260  1.3524
 1027TIP3    H224641   2.916   5.579   1.813  1.2790 -1.9258 -2.3820
 1028TIP3   OH224642   4.166   5.316   8.217 -0.1994  0.3003 -0.1469
 1028TIP3    H124643   4.141   5.310   8.125  0.8532 -2.2530 -0.3638
 1028TIP3    H224644   4.104   5.259   8.263  0.6040 -0.1801  0.3780
 1029TIP3   OH224645   5.263   1.549   0.300  0.2757 -0.1869 -0.3315
 1029TIP3    H124646   5.354   1.567   0.277  0.1975 -0.8327 -1.1720
 1029TIP3    H224647   5.259   1.565   0.395  0.8622  1.4647 -0.5445
 1030TIP3   OH224648   6.087   5.479   7.703 -0.1422 -1.1529  0.0395
 1030TIP3    H124649   6.092   5.392   7.665  0.3070 -0.5546 -1.3195
 1030TIP3    H224650   6.016   5.522   7.656  0.3087 -0.4510 -0.0155
 1031TIP3   OH224651   0.888   6.772   3.179 -0.3922  0.1881  0.2781
 1031TIP3    H124652   0.794   6.783   3.171 -0.5096 -0.6867  0.2919
 1031TIP3    H224653   0.900   6.721   3.259  0.1814  1.3035  0.9258
 1032TIP3   OH224654   2.291   3.245   0.878 -0.3274  0.1099 -0.0163
 1032TIP3    H124655   2.333   3.328   0.899 -2.2699  0.4765  3.0803
 1032TIP3    H224656   2.358   3.179   0.895  0.2045  0.8763  0.9612
 1033TIP3   OH224657   0.156   3.475   1.621 -0.4081  0.0229 -0.3789
 1033TIP3    H124658   0.131   3.443   1.707  2.6601  0.8546  0.9621
 1033TIP3    H224659   0.181   3.396   1.572 -1.1239 -0.3480 -0.1630
 1034TIP3   OH224660   4.113   5.920   0.349 -0.7051  0.2584 -0.4239
 1034TIP3    H124661   4.081   5.845   0.298 -0.9852  0.0665  0.0201
 1034TIP3    H224662   4.038   5.945   0.404 -0.1256 -0.1453  0.5855
 1035TIP3   OH224663   5.174   0.600   0.780 -0.3966  0.1142 -0.1548
 1035TIP3    H124664   5.151   0.690   0.759 -1.3832 -0.0210  0.3048
 1035TIP3    H224665   5.178   0.555   0.696 -0.0089  0.5502 -0.3769
 1036TIP3   OH224666   0.578   3.844   2.661 -0.0204  0.1414  0.3748
 1036TIP3    H124667   0.643   3.780   2.634  0.0966 -0.4634  1.9858
 1036TIP3    H224668   0.629   3.924   2.679  0.2373 -0.2139  1.2534
 1037TIP3   OH224669   2.853   4.761   2.002 -0.4872 -0.1198  0.7444
 1037TIP3    H124670   2.763   4.730   1.991 -1.3857  2.3750  0.3374
 1037TIP3    H224671   2.894   4.746   1.917 -1.8371  2.3673 -0.4642
 1038TIP3   OH224672   6.132   2.679   0.489 -0.1797 -0.0178 -0.3737
 1038TIP3    H124673   6.155   2.697   0.397 -0.3199 -0.1595 -0.4358
 1038TIP3    H224674   6.216   2.684   0.535  0.1697 -1.6321 -0.7737
 1039TIP3   OH224675   0.113   2.070   0.725 -0.3251  0.7469 -0.1987
 1039TIP3    H124676   0.173   2.144   0.722 -0.1157  0.5599 -0.6873
 1039TIP3    H224677   0.082   2.060   0.635 -4.0750  3.2579  0.5825
 1040TIP3   OH224678   4.897   4.865   7.761 -0.1099 -0.1495 -0.1696
 1040TIP3    H124679   4.873   4.840   7.851 -1.6664 -0.3058 -0.5873
 1040TIP3    H224680   4.817   4.906   7.726 -0.1955 -1.8188 -2.0966
 1041TIP3   OH224681   4.221   2.995   8.246 -0.3840 -0.1187  0.2501
 1041TIP3    H124682   4.251   2.919   8.196  2.1371  1.1468 -0.3745
 1041TIP3    H224683   4.131   3.008   8.218  0.2145 -0.8304 -2.2856
 1042TIP3   OH224684   3.523   0.506   1.760  0.6218  0.2942  0.0324
 1042TIP3    H124685   3.468   0.429   1.747  0.7865 -0.4442  2.9811
 1042TIP3    H224686   3.599   0.473   1.809  1.5171  2.0636 -0.0936
 1043TIP3   OH224687   6.644   4.486   2.434  0.3466 -0.5635 -0.2007
 1043TIP3    H124688   6.695   4.454   2.360  0.6905  2.2703 -1.3097
 1043TIP3    H224689   6.704   4.484   2.508  0.5525 -1.7074 -0.3788
 1044TIP3   OH224690   1.032   5.697   1.699 -0.2679 -0.3212 -0.2928
 1044TIP3    H124691   1.074   5.631   1.643  0.8047 -1.1629  1.4355
 1044TIP3    H224692   1.074   5.780   1.674 -0.3805 -0.5407 -1.2659
 1045TIP3   OH224693   0.015   4.449   2.207  0.1623 -0.1753 -0.5312
 1045TIP3    H124694  -0.038   4.522   2.177  0.7269  0.7821  0.7485
 1045TIP3    H224695   0.001   4.381   2.141  0.4324  1.4252 -2.3277
 1046TIP3   OH224696   3.143   6.281   2.985  0.4385  0.5047 -0.3321
 1046TIP3    H124697   3.103   6.215   3.042 -2.2990  2.8787  0.7818
 1046TIP3    H224698   3.226   6.302   3.027  0.9255 -1.5165 -0.2063
 1047TIP3   OH224699   6.031   0.739   0.694  0.5907 -0.6042  0.5231
 1047TIP3    H124700   5.978   0.777   0.765  0.9273 -0.3651  0.6539
 1047TIP3    H224701   6.014   0.645   0.699 -2.2625 -0.3062 -1.4430
 1048TIP3   OH224702   1.124   6.036   0.871 -0.1261  0.3055 -0.3293
 1048TIP3    H124703   1.167   6.096   0.810 -1.3346  0.4731 -1.0627
 1048TIP3    H224704   1.036   6.024   0.835  0.2076 -2.3127 -0.4886
 1049TIP3   OH224705   5.868   1.329   8.066  0.5033  0.4017 -0.6600
 1049TIP3    H124706   5.776   1.349   8.049  0.3904  0.0312 -0.5076
 1049TIP3    H224707   5.915   1.408   8.041 -0.0144  1.2319  0.8396
 1050TIP3   OH224708   5.094   1.504   2.273  0.1990 -0.1690  0.6472
 1050TIP3    H124709   4.999   1.516   2.264  0.3303  0.5349  0.0859
 1050TIP3    H224710   5.114   1.427   2.219  0.0670  0.2240  0.0239
 1051TIP3   OH224711   5.627   2.597   2.787 -0.0390  0.1331 -0.4835
 1051TIP3    H124712   5.590   2.550   2.862 -1.4210  0.9928 -0.5826
 1051TIP3    H224713   5.675   2.670   2.827  3.2374 -1.9475 -0.2571
 1052TIP3   OH224714   3.500   1.340   0.734 -0.1983 -0.2620 -0.6876
 1052TIP3    H124715   3.564   1.295   0.789 -0.8509  0.6251  0.8632
 1052TIP3    H224716   3.417   1.297   0.753 -0.5238  0.4017 -0.5666
 1053TIP3   OH224717   0.235   1.416   2.780  0.4575 -0.0864 -0.1927
 1053TIP3    H124718   0.247   1.398   2.687 -0.4413  0.1148 -0.3597
 1053TIP3    H224719   0.250   1.511   2.789 -0.0241 -0.0051 -0.2349
 1054TIP3   OH224720   3.464   2.048   0.247 -0.0894 -0.1663 -0.4749
 1054TIP3    H124721   3.461   2.058   0.342 -1.4745 -1.9126 -0.2865
 1054TIP3    H224722   3.477   2.137   0.214  1.7216  0.3101  1.3571
 1055TIP3   OH224723   2.172   2.636   2.814 -0.5243 -0.2166 -0.2089
 1055TIP3    H124724   2.243   2.574   2.832  0.6232  1.1222  0.0729
 1055TIP3    H224725   2.216   2.712   2.777 -1.3968  1.8031  2.5556
 1056TIP3   OH224726   2.131   1.941   1.449  0.3449 -0.2203  0.0851
 1056TIP3    H124727   2.168   1.854   1.465 -0.9818 -0.8659 -0.2253
 1056TIP3    H224728   2.187   2.001   1.498  0.2282 -1.4458  1.7867
 1057TIP3   OH224729   6.401   1.102   8.776 -0.2189 -0.3745 -0.4144
 1057TIP3    H124730   6.491   1.080   8.800  0.0183  0.5968 -0.3950
 1057TIP3    H224731   6.408   1.135   8.686 -0.7289 -1.4239 -0.8570
 1058TIP3   OH224732   6.422   4.831   2.873  0.1033 -0.8536  0.0250
 1058TIP3    H124733   6.438   4.915   2.914  2.2931 -0.9780 -0.4545
 1058TIP3    H224734   6.488   4.825   2.804 -0.5708 -2.5883 -0.5279
 1059TIP3   OH224735   5.808   4.913   0.994 -0.5436 -0.3446  0.0515
 1059TIP3    H124736   5.878   4.884   0.936 -0.0477  0.2224  0.3519
 1059TIP3    H224737   5.819   4.861   1.073  0.4893  0.7605  0.6804
 1060TIP3   OH224738   6.256   5.182   1.666 -0.3250 -0.4505  0.3940
 1060TIP3    H124739   6.250   5.270   1.629 -0.3100 -0.8285 -0.5364
 1060TIP3    H224740   6.344   5.152   1.641 -0.3088 -0.7045  0.7519
 1061TIP3   OH224741   0.155   3.519   7.920 -0.1720 -0.2130 -0.0055
 1061TIP3    H124742   0.180   3.610   7.904  0.7511 -0.2846  0.8866
 1061TIP3    H224743   0.237   3.474   7.940 -0.8311 -0.7150  1.8943
 1062TIP3   OH224744   3.056   5.598   0.266  0.4818 -0.2709 -0.3179
 1062TIP3    H124745   3.137   5.628   0.309  1.3586  0.5716 -2.4069
 1062TIP3    H224746   2.987   5.619   0.329  1.8238 -0.8209  1.4515
 1063TIP3   OH224747   0.119   5.641   2.787 -0.4274  0.1151  0.2419
 1063TIP3    H124748   0.139   5.552   2.816 -3.7743  0.0739  3.0996
 1063TIP3    H224749   0.129   5.638   2.692  2.2217 -2.4686  0.4604
 1064TIP3   OH224750   3.230   2.238   0.594 -0.5554 -0.5787  0.0442
 1064TIP3    H124751   3.318   2.201   0.601 -1.1514 -2.1066 -0.0139
 1064TIP3    H224752   3.188   2.214   0.676 -1.5225 -1.6412 -0.7230
 1065TIP3   OH224753   5.047   0.595   3.086 -0.1567  0.5913 -0.0997
 1065TIP3    H124754   5.045   0.610   3.180  1.4296  0.3246 -0.0072
 1065TIP3    H224755   5.137   0.569   3.067 -0.5241  0.3357 -1.6470
 1066TIP3   OH224756   4.208   2.711   2.420  0.7488  0.0610  0.1787
 1066TIP3    H124757   4.200   2.661   2.502 -1.2868 -0.0863 -0.0566
 1066TIP3    H224758   4.145   2.670   2.361  1.7761  0.5336 -1.3012
 1067TIP3   OH224759   3.167   1.425   2.891  0.4689 -0.4305 -0.2013
 1067TIP3    H124760   3.164   1.330   2.907  1.3884 -0.3757  0.4055
 1067TIP3    H224761   3.160   1.464   2.978 -0.7473  0.1000 -0.5228
 1068TIP3   OH224762   3.929   0.007   8.566  0.4994  0.3767  0.4295
 1068TIP3    H124763   3.912   0.029   8.474 -0.1711  0.2593  0.5282
 1068TIP3    H224764   4.003  -0.055   8.562  0.3239  0.1930 -0.0461
 1069TIP3   OH224765   2.497   4.096   1.634 -0.4942  0.0288 -0.6089
 1069TIP3    H124766   2.586   4.063   1.620 -1.8596 -3.7447 -1.4446
 1069TIP3    H224767   2.499   4.132   1.723  1.8182 -0.0592 -0.5690
 1070TIP3   OH224768   5.817   2.175   1.071 -0.5446 -0.0677  0.2334
 1070TIP3    H124769   5.761   2.204   1.143 -1.3035  1.3984 -0.8712
 1070TIP3    H224770   5.890   2.131   1.113 -1.6474 -0.4586  1.8162
 1071TIP3   OH224771   0.217   6.326   7.292 -0.0759 -0.3221  0.3258
 1071TIP3    H124772   0.176   6.333   7.378  0.1264 -0.6767  0.4537
 1071TIP3    H224773   0.281   6.397   7.290 -1.0791  0.6086 -0.0987
 1072TIP3   OH224774   1.905   1.462   2.974  0.2364 -0.0247  0.2447
 1072TIP3    H124775   1.983   1.518   2.979  0.5798 -0.3240 -1.3261
 1072TIP3    H224776   1.860   1.491   2.895 -0.8864 -0.3461  0.7445
 1073TIP3   OH224777   2.076   2.197   7.539  0.0060  0.1335  0.7378
 1073TIP3    H124778   2.004   2.134   7.539 -0.0442  0.1901  1.2427
 1073TIP3    H224779   2.143   2.157   7.594  0.8947 -0.5079 -0.7563
 1074TIP3   OH224780   1.630   0.146   2.684  0.7472  0.6098  0.6950
 1074TIP3    H124781   1.621   0.053   2.703 -0.3738  0.6361  0.3981
 1074TIP3    H224782   1.540   0.175   2.667  1.2348  1.4075 -0.7169
 1075TIP3   OH224783   4.362   1.998   0.301 -0.0801  0.5763 -0.2289
 1075TIP3    H124784   4.404   1.921   0.341 -0.2045  1.3944  1.5902
 1075TIP3    H224785   4.270   1.974   0.295 -0.2052  0.7339  0.8104
 1076TIP3   OH224786   6.463   0.298   2.622 -0.4027  0.5349  0.1460
 1076TIP3    H124787   6.553   0.265   2.620 -0.2241  1.0338 -0.3331
 1076TIP3    H224788   6.409   0.220   2.631  0.0730  0.2218  0.3447
 1077TIP3   OH224789   1.591   0.570   1.242  0.0515 -0.4183  0.5753
 1077TIP3    H124790   1.634   0.652   1.218 -0.6965 -0.0436  0.4864
 1077TIP3    H224791   1.659   0.504   1.235  0.6042  0.1634  0.4207
 1078TIP3   OH224792   4.258   0.097   2.272 -0.2993 -0.4825  0.1260
 1078TIP3    H124793   4.199   0.114   2.346 -0.1452 -0.1025  0.1637
 1078TIP3    H224794   4.285   0.184   2.243 -1.7344 -0.5204 -1.5084
 1079TIP3   OH224795   0.103   0.123   0.296 -0.0048 -0.1240  0.2595
 1079TIP3    H124796   0.195   0.113   0.320  0.3152  0.0152 -0.8146
 1079TIP3    H224797   0.093   0.217   0.281  0.4025 -0.3921 -2.1744
 1080TIP3   OH224798   1.063   1.904   0.819 -0.4391 -0.2665  0.2908
 1080TIP3    H124799   1.068   1.845   0.895 -3.1365  1.7047  2.1958
 1080TIP3    H224800   1.151   1.943   0.814  0.5182 -2.2214  0.8103
 1081TIP3   OH224801   1.289   1.472   1.984 -0.0117 -0.4661 -0.8564
 1081TIP3    H124802   1.379   1.450   1.959  0.4315 -0.5664  0.7646
 1081TIP3    H224803   1.282   1.445   2.075 -0.7936  2.0998 -0.0589
 1082TIP3   OH224804   6.790   2.280   1.606 -0.4446  0.2107  0.0921
 1082TIP3    H124805   6.850   2.238   1.545 -1.6975 -1.4703 -0.0432
 1082TIP3    H224806   6.836   2.359   1.635  1.5388 -0.6945 -0.4734
 1083TIP3   OH224807   1.514   4.168   1.755 -0.0651 -0.2199 -0.4859
 1083TIP3    H124808   1.450   4.191   1.823 -0.8176 -0.5452 -1.0628
 1083TIP3    H224809   1.580   4.117   1.800  0.3268  0.9667  0.3308
 1084TIP3   OH224810   2.181   4.929   0.484  0.4029 -0.4904  0.3778
 1084TIP3    H124811   2.086   4.943   0.492  0.6348  2.0449 -0.4580
 1084TIP3    H224812   2.220   4.996   0.540  1.6897 -0.7186 -0.2125
 1085TIP3   OH224813   5.803   2.899   2.595 -0.5746 -0.0016 -0.6488
 1085TIP3    H124814   5.870   2.831   2.602  0.8960  1.4744  0.2221
 1085TIP3    H224815   5.769   2.907   2.684  0.8126  1.8651 -0.2389
 1086TIP3   OH224816   1.211   6.343   3.571 -0.1375  0.2012 -0.9085
 1086TIP3    H124817   1.120   6.351   3.603  0.4848  1.3204  0.7348
 1086TIP3    H224818   1.243   6.262   3.611  0.6395  1.6005  1.5040
 1087TIP3   OH224819   0.445   5.149   8.633 -0.1849  0.3494  0.0888
 1087TIP3    H124820   0.389   5.224   8.615 -0.1425  1.1708  2.9123
 1087TIP3    H224821   0.534   5.185   8.635 -0.0726  0.0532  0.5758
 1088TIP3   OH224822   5.189   1.748   2.221  0.0604 -0.0735 -0.2208
 1088TIP3    H124823   5.149   1.664   2.246  0.0170  0.2953  1.0060
 1088TIP3    H224824   5.115   1.808   2.212  0.1209 -0.0709 -0.7816
 1089TIP3   OH224825   4.467   4.384   1.001  0.0495 -0.1971 -1.1235
 1089TIP3    H124826   4.547   4.352   0.958  0.7572 -0.2602  0.1698
 1089TIP3    H224827   4.498   4.450   1.063 -0.8787 -0.3450 -0.4717
 1090TIP3   OH224828   5.539   0.092   1.170  0.5719  0.0409  0.1313
 1090TIP3    H124829   5.554   0.053   1.084 -0.0571 -2.5083  1.0844
 1090TIP3    H224830   5.445   0.084   1.185  0.5066  1.4727  0.6297
 1091TIP3   OH224831   3.594   0.406   8.149  0.2665  0.3222 -0.1813
 1091TIP3    H124832   3.543   0.475   8.191  1.3238  1.4128 -0.6225
 1091TIP3    H224833   3.575   0.416   8.056  2.0197  1.4640 -0.4864
 1092TIP3   OH224834   0.207   3.090   8.760 -0.2604 -0.2103  0.2626
 1092TIP3    H124835   0.165   3.088   8.674  0.1558 -0.1470  0.0507
 1092TIP3    H224836   0.206   3.182   8.785  0.3542 -0.1107 -0.0542
 1093TIP3   OH224837   0.043   2.108   0.436  0.0525  0.3142 -0.1696
 1093TIP3    H124838   0.024   2.038   0.374 -1.6349  0.3727  0.2263
 1093TIP3    H224839  -0.025   2.173   0.419  0.0117  0.6669  1.2427
 1094TIP3   OH224840   4.363   6.692   0.238 -0.0696 -0.5563  0.1494
 1094TIP3    H124841   4.399   6.607   0.212  0.9741  0.1444 -0.8265
 1094TIP3    H224842   4.393   6.704   0.328 -1.4318 -1.8242  0.8133
 1095TIP3   OH224843   3.759   0.493   3.149  0.0123  0.2818  0.2547
 1095TIP3    H124844   3.762   0.500   3.245  0.9759 -0.4841  0.3008
 1095TIP3    H224845   3.691   0.554   3.122 -0.9681 -0.2376  1.5029
 1096TIP3   OH224846   1.717   4.209   1.135 -0.2781  0.3766  0.1704
 1096TIP3    H124847   1.800   4.255   1.147 -0.1750 -0.0614  1.2698
 1096TIP3    H224848   1.741   4.123   1.102 -0.1537 -0.2825  1.8844
 1097TIP3   OH224849   2.816   5.987   3.316  0.0778 -0.4317 -0.0030
 1097TIP3    H124850   2.847   5.902   3.283 -1.6444 -1.2815  0.4746
 1097TIP3    H224851   2.721   5.984   3.303 -0.1305  0.9697  1.0661
 1098TIP3   OH224852   0.422   1.196   2.964 -0.5586  0.5786 -0.3036
 1098TIP3    H124853   0.413   1.232   2.876 -0.3356 -0.8512 -0.9323
 1098TIP3    H224854   0.417   1.101   2.952  1.2525  0.2600  0.9954
 1099TIP3   OH224855   4.647   4.525   7.309 -0.1659 -0.0708  0.0727
 1099TIP3    H124856   4.687   4.446   7.345 -0.2704  0.6119  1.7968
 1099TIP3    H224857   4.689   4.597   7.357 -0.8428  0.8494 -0.6810
 1100TIP3   OH224858   6.045   3.248   3.093 -0.4782 -0.0293 -0.3935
 1100TIP3    H124859   6.005   3.195   3.162  0.2905 -1.0092 -0.6632
 1100TIP3    H224860   6.117   3.193   3.060 -0.9170  0.3493 -2.0641
 1101TIP3   OH224861   1.307   2.112   0.178  0.1598  0.0162  0.1658
 1101TIP3    H124862   1.218   2.120   0.211  0.2653  1.8218  0.1268
 1101TIP3    H224863   1.325   2.195   0.135  1.3015 -0.9327 -1.3117
 1102TIP3   OH224864   5.140   1.293   2.065  0.0145  0.4056 -0.1270
 1102TIP3    H124865   5.063   1.251   2.027  0.4356 -1.7588  1.2456
 1102TIP3    H224866   5.203   1.299   1.993  0.5173 -2.8733 -0.0963
 1103TIP3   OH224867   0.349   5.897   8.871 -0.2506  0.5118  0.0601
 1103TIP3    H124868   0.280   5.933   8.927  0.3476  1.0964  0.4361
 1103TIP3    H224869   0.308   5.822   8.828 -0.1207 -1.4839  3.0275
 1104TIP3   OH224870   6.567   1.397   0.684  0.1116  0.2207 -0.4945
 1104TIP3    H124871   6.602   1.321   0.638  1.4328 -1.0561  2.3844
 1104TIP3    H224872   6.500   1.361   0.742 -0.5730  1.5715 -0.3998
 1105TIP3   OH224873   5.777   1.081   2.339 -0.5880  0.1196  0.0642
 1105TIP3    H124874   5.777   1.101   2.432 -0.2997  0.1811  0.0528
 1105TIP3    H224875   5.772   0.986   2.334 -2.4826  0.1809  0.1136
 1106TIP3   OH224876   5.013   2.412   0.984  0.6199  0.0562  0.3759
 1106TIP3    H124877   4.922   2.382   0.986  0.8392 -0.6139  0.3595
 1106TIP3    H224878   5.040   2.414   1.076  0.8721 -0.6228  0.3198
 1107TIP3   OH224879   6.605   3.290   0.646 -0.1391  0.2153  0.8020
 1107TIP3    H124880   6.518   3.270   0.611 -0.6691 -0.8738  2.5922
 1107TIP3    H224881   6.652   3.207   0.638  1.2735  1.1400 -1.4266
 1108TIP3   OH224882   3.933   0.195   0.994 -0.0534 -0.9711 -0.3816
 1108TIP3    H124883   3.971   0.180   0.908 -1.2124 -2.0450 -0.7554
 1108TIP3    H224884   3.885   0.277   0.986 -2.1921 -2.2218 -1.5939
 1109TIP3   OH224885   0.957   6.553   0.852 -0.2460 -0.2463 -0.3683
 1109TIP3    H124886   0.982   6.522   0.939 -2.0206  3.1649  1.5885
 1109TIP3    H224887   1.033   6.604   0.823 -0.8047  1.3020  0.7486
 1110TIP3   OH224888   3.839   6.390   2.796  0.0290  0.3232 -0.1834
 1110TIP3    H124889   3.880   6.355   2.717 -1.3254  1.1336 -1.2918
 1110TIP3    H224890   3.790   6.466   2.765 -1.4276  0.0084  1.2547
 1111TIP3   OH224891   2.556   2.934   1.894 -0.1774  0.3811 -0.0190
 1111TIP3    H124892   2.536   2.998   1.962  2.4994  0.6328  0.6582
 1111TIP3    H224893   2.619   2.875   1.935  0.4253 -0.2989 -1.8399
 1112TIP3   OH224894   0.862   3.149   2.502 -0.5673 -0.1572  0.5894
 1112TIP3    H124895   0.891   3.059   2.492 -0.3670 -0.0556  0.1871
 1112TIP3    H224896   0.906   3.181   2.581  0.1091 -0.1344  0.2206
 1113TIP3   OH224897   6.095   4.647   2.313  0.3127  0.2742  0.6874
 1113TIP3    H124898   6.116   4.736   2.284  1.4171 -0.4619 -0.9288
 1113TIP3    H224899   6.177   4.616   2.352  0.0308 -0.1347  0.9488
 1114TIP3   OH224900   3.786   4.461   1.490 -0.1491  0.3159  0.7873
 1114TIP3    H124901   3.785   4.406   1.569  0.6032  0.1055  0.6602
 1114TIP3    H224902   3.832   4.408   1.424 -0.1256  0.7767  0.4277
 1115TIP3   OH224903   3.253   5.909   0.033  0.6047  0.4049 -0.1022
 1115TIP3    H124904   3.237   5.875  -0.055  0.3677 -0.5077  0.2880
 1115TIP3    H224905   3.166   5.915   0.073  0.6873  1.0463 -0.0097
 1116TIP3   OH224906   6.381   5.521   1.706  0.5192 -0.4093 -0.7687
 1116TIP3    H124907   6.298   5.483   1.676 -0.1231  0.4323 -0.1371
 1116TIP3    H224908   6.386   5.606   1.662  0.0732  0.3796  0.6153
 1117TIP3   OH224909   0.635   5.250   7.464  0.0395 -0.2661  0.2401
 1117TIP3    H124910   0.690   5.286   7.534 -1.6466  0.5731  1.2302
 1117TIP3    H224911   0.620   5.324   7.405 -0.1053 -0.4604  0.0323
 1118TIP3   OH224912   5.844   3.035   1.099 -0.4637  0.2705  0.1259
 1118TIP3    H124913   5.769   3.021   1.157  0.1127 -1.3631  0.5288
 1118TIP3    H224914   5.917   3.053   1.158 -0.2520  0.4450 -0.1877
 1119TIP3   OH224915   2.470   5.826   2.050 -0.4703  0.4795  0.1965
 1119TIP3    H124916   2.479   5.742   2.005 -1.1209  0.2887  0.4085
 1119TIP3    H224917   2.551   5.836   2.101 -0.6662 -0.3215  0.6722
 1120TIP3   OH224918   2.959   5.972   0.098  0.1732 -0.1096  0.3135
 1120TIP3    H124919   2.945   5.913   0.024  2.6921 -1.0588  0.4920
 1120TIP3    H224920   2.923   5.925   0.174  2.3177 -1.6350  0.4878
 1121TIP3   OH224921   3.190   0.093   8.815 -0.5653 -0.4409  0.2955
 1121TIP3    H124922   3.160   0.129   8.732 -0.2435 -0.2339  0.2696
 1121TIP3    H224923   3.225   0.007   8.792  0.5363  0.0579  0.0375
 1122TIP3   OH224924   6.419   4.130   8.129  0.3584 -0.6140 -0.2051
 1122TIP3    H124925   6.346   4.191   8.138  2.2661  1.7697  0.1196
 1122TIP3    H224926   6.421   4.109   8.035 -1.8337 -2.2930  0.0380
 1123TIP3   OH224927   4.952   3.249   7.805  0.2786  0.5334  0.2622
 1123TIP3    H124928   4.899   3.328   7.804  0.2882  0.5402  0.2873
 1123TIP3    H224929   4.897   3.183   7.761 -0.7763 -0.1094  2.3680
 1124TIP3   OH224930   4.169   0.799   1.467  0.5337 -0.1021  0.1129
 1124TIP3    H124931   4.209   0.834   1.388  1.7446 -0.0147  0.7423
 1124TIP3    H224932   4.136   0.713   1.442 -1.9341  1.1713 -1.2955
 1125TIP3   OH224933   5.802   2.909   2.128  0.3362  0.1548 -0.3828
 1125TIP3    H124934   5.805   2.820   2.093  3.5977 -0.1869  0.4417
 1125TIP3    H224935   5.749   2.903   2.207 -1.7154 -0.4038 -1.7140
 1126TIP3   OH224936   3.796   2.091   1.185  0.4702 -0.1770  0.7347
 1126TIP3    H124937   3.705   2.064   1.199  0.2823  0.2965  0.4635
 1126TIP3    H224938   3.803   2.176   1.228  1.1796 -0.8372  1.9752
 1127TIP3   OH224939   4.829   2.952   1.473 -0.3588  0.2639 -0.2084
 1127TIP3    H124940   4.875   2.989   1.548  0.8839  0.2203 -0.9311
 1127TIP3    H224941   4.740   2.988   1.479  0.1748  1.5108  0.4013
 1128TIP3   OH224942   4.240   5.580   8.167 -0.4273  0.3380 -0.2843
 1128TIP3    H124943   4.276   5.575   8.078 -0.5827  0.7731 -0.3743
 1128TIP3    H224944   4.236   5.489   8.196  1.5054  0.3195  0.0448
 1129TIP3   OH224945   2.838   4.695   2.301 -1.0180 -0.3813  0.3831
 1129TIP3    H124946   2.788   4.647   2.236  1.1736 -1.1706 -0.8257
 1129TIP3    H224947   2.879   4.767   2.252 -1.0344  0.3167  1.3493
 1130TIP3   OH224948   1.225   2.804   3.644  0.2549  0.6093  0.3786
 1130TIP3    H124949   1.186   2.840   3.564  1.1866 -0.5879 -0.6532
 1130TIP3    H224950   1.151   2.794   3.704 -0.7910 -0.2243 -0.9965
 1131TIP3   OH224951   0.304   5.767   8.428  0.1791  0.2085  0.7328
 1131TIP3    H124952   0.339   5.704   8.365 -0.7481  0.2486  0.1592
 1131TIP3    H224953   0.275   5.840   8.374  1.2118  1.1375  1.3849
 1132TIP3   OH224954   0.497   3.300   8.815  0.5394  0.0291  0.0975
 1132TIP3    H124955   0.415   3.349   8.818  1.8451  2.3348  1.0615
 1132TIP3    H224956   0.563   3.363   8.787  1.9593 -1.8581 -1.1091
 1133TIP3   OH224957   3.332   5.417   1.649 -0.8780 -0.0707 -0.0089
 1133TIP3    H124958   3.286   5.358   1.709  0.9962 -0.5805  0.9883
 1133TIP3    H224959   3.370   5.360   1.583 -1.2812  0.3065 -0.5746
 1134TIP3   OH224960   0.416   3.506   2.773  0.7633 -0.1513  0.2486
 1134TIP3    H124961   0.340   3.455   2.746  0.4742  0.4513 -0.0916
 1134TIP3    H224962   0.381   3.593   2.793  1.5486  0.5158 -1.1660
 1135TIP3   OH224963   1.389   0.933   8.658 -0.1611 -0.2348 -0.1368
 1135TIP3    H124964   1.301   0.964   8.636  0.1381  0.1395 -0.8374
 1135TIP3    H224965   1.383   0.838   8.649  0.5565 -0.0943 -4.6114
 1136TIP3   OH224966   3.481   3.333   7.569 -0.6925  0.4493  0.0442
 1136TIP3    H124967   3.554   3.318   7.508 -2.1673  0.0968 -1.7106
 1136TIP3    H224968   3.416   3.268   7.545 -2.3845  1.9753  0.2864
 1137TIP3   OH224969   4.437   4.969   1.627  0.0327  0.3287 -0.4275
 1137TIP3    H124970   4.393   4.947   1.544 -0.1770 -0.2951 -0.1536
 1137TIP3    H224971   4.494   5.043   1.605 -0.4259  0.5148 -1.0086
 1138TIP3   OH224972   2.015   3.575   8.672  0.0546  0.9744 -0.5852
 1138TIP3    H124973   1.961   3.611   8.601 -2.4526  1.6696  1.5369
 1138TIP3    H224974   2.034   3.650   8.728 -0.0338  0.0458  0.7143
 1139TIP3   OH224975   4.741   4.159   8.426 -0.2440 -0.1750 -0.6977
 1139TIP3    H124976   4.659   4.111   8.432 -0.0982 -0.4757 -1.1057
 1139TIP3    H224977   4.763   4.181   8.516 -0.7653 -0.1028 -0.5855
 1140TIP3   OH224978   2.446   4.854   7.196  0.5409 -0.2618 -0.0941
 1140TIP3    H124979   2.540   4.856   7.180  0.5285 -0.4117 -0.1883
 1140TIP3    H224980   2.414   4.937   7.161  0.7260  0.0727  0.5125
 1141TIP3   OH224981   1.432   6.134   8.606  0.2264  0.8589  0.3616
 1141TIP3    H124982   1.354   6.184   8.581  0.4789  1.0530 -0.0532
 1141TIP3    H224983   1.400   6.066   8.666 -0.9286 -1.4412 -2.5800
 1142TIP3   OH224984   0.341   4.046   2.798  0.2321 -0.3795  0.1343
 1142TIP3    H124985   0.310   4.093   2.875  0.0328  0.2048 -0.2966
 1142TIP3    H224986   0.364   4.115   2.735 -0.7492 -0.8446 -0.7697
 1143TIP3   OH224987   2.404   5.673   2.390  0.5956 -0.2897 -0.0897
 1143TIP3    H124988   2.480   5.705   2.438  1.2493 -1.9418  0.0254
 1143TIP3    H224989   2.329   5.693   2.447  0.7604  2.2807 -0.6514
 1144TIP3   OH224990   4.119   1.840   0.329  0.2099  0.1925  0.5126
 1144TIP3    H124991   4.138   1.775   0.398 -1.8322  0.8151  1.7437
 1144TIP3    H224992   4.129   1.791   0.247 -1.8269 -1.9037  1.4056
 1145TIP3   OH224993   3.092   5.670   2.509 -0.1684 -0.6521  0.5539
 1145TIP3    H124994   3.081   5.675   2.604  0.0211 -0.7954  0.5848
 1145TIP3    H224995   3.024   5.610   2.479 -1.1266  0.4667  0.4289
 1146TIP3   OH224996   6.380   2.606   8.880 -0.2730  0.1001 -0.5775
 1146TIP3    H124997   6.466   2.565   8.869 -0.0222  1.0288 -2.5445
 1146TIP3    H224998   6.328   2.541   8.926  1.5563 -0.3731  0.9384
 1147TIP3   OH224999   2.144   0.812   1.623 -0.2124  0.1461 -0.1085
 1147TIP3    H125000   2.119   0.902   1.602  1.5999  0.5296 -0.8189
 1147TIP3    H225001   2.110   0.760   1.549 -0.5051  0.3639 -0.1288
 1148TIP3   OH225002   5.734   0.875   8.320  0.1494 -0.4183 -0.4665
 1148TIP3    H125003   5.736   0.935   8.245 -0.8088  1.0094  0.5914
 1148TIP3    H225004   5.788   0.801   8.292  0.8041  0.5989 -2.1087
 1149TIP3   OH225005   2.265   0.016   1.519  0.0425  0.2615  0.0292
 1149TIP3    H125006   2.265   0.078   1.447 -0.5742 -0.6159 -0.7531
 1149TIP3    H225007   2.318   0.057   1.587  1.6262  0.6038 -1.3592
 1150TIP3   OH225008   5.578   4.194   2.151 -0.3642 -0.5699 -0.0830
 1150TIP3    H125009   5.561   4.255   2.223  2.6621  1.3904 -0.8422
 1150TIP3    H225010   5.663   4.154   2.173 -0.1106 -1.0569 -1.8058
 1151TIP3   OH225011   4.706   4.613   7.692 -0.2219  0.4763 -1.0660
 1151TIP3    H125012   4.695   4.678   7.762  0.9678 -0.8867  0.4669
 1151TIP3    H225013   4.753   4.660   7.624  1.3593  1.0703  0.3578
 1152TIP3   OH225014   6.357   2.878   2.514 -0.0754 -0.0924  0.0677
 1152TIP3    H125015   6.446   2.861   2.484  0.4928  2.2952  0.1893
 1152TIP3    H225016   6.365   2.894   2.608 -0.0038  3.1819 -0.3544
 1153TIP3   OH225017   1.128   1.067   8.576 -0.2135  0.1528  0.0949
 1153TIP3    H125018   1.060   1.132   8.592 -0.0064  0.0099  1.7459
 1153TIP3    H225019   1.080   0.985   8.563 -0.4122  0.3587 -0.5182
 1154TIP3   OH225020   2.005   2.911   2.734  0.5214 -0.1961 -0.4501
 1154TIP3    H125021   1.920   2.908   2.777 -1.0161 -0.3673 -3.2364
 1154TIP3    H225022   2.067   2.935   2.803 -1.8287  0.4095  1.5730
 1155TIP3   OH225023   6.432   0.407   7.841  0.1351  0.1161  0.0027
 1155TIP3    H125024   6.377   0.481   7.815 -1.0772 -0.9184 -0.4554
 1155TIP3    H225025   6.415   0.397   7.935  0.0311  0.1893 -0.0083
 1156TIP3   OH225026   6.505   0.602   2.179  0.2888  0.9180  0.3524
 1156TIP3    H125027   6.444   0.643   2.241 -0.8224 -1.0618  0.6726
 1156TIP3    H225028   6.582   0.581   2.232 -1.0559 -1.7123  1.4940
 1157TIP3   OH225029   4.942   5.464   0.857  0.1280  0.4604  0.2632
 1157TIP3    H125030   5.022   5.427   0.820 -0.3609  0.2203 -0.5760
 1157TIP3    H225031   4.962   5.557   0.869  0.0245  0.7328 -1.4185
 1158TIP3   OH225032   5.602   1.794   0.433 -0.2603  0.1780 -0.4575
 1158TIP3    H125033   5.555   1.877   0.444  0.4481  0.4205  0.9495
 1158TIP3    H225034   5.616   1.763   0.522  0.7335 -0.7457 -0.9211
 1159TIP3   OH225035   1.689   0.191   8.426 -0.4725  0.5668  0.2019
 1159TIP3    H125036   1.611   0.193   8.482  0.2492 -0.6168  1.3171
 1159TIP3    H225037   1.761   0.214   8.484 -0.0631  2.6213 -1.0435
 1160TIP3   OH225038   3.721   3.315   2.343 -0.9783  0.4629 -0.7178
 1160TIP3    H125039   3.704   3.409   2.335 -1.4278  0.3094 -1.7124
 1160TIP3    H225040   3.726   3.300   2.437 -0.6085  1.5325 -0.5497
 1161TIP3   OH225041   0.253   2.895   3.520  0.6298 -0.1663  0.2089
 1161TIP3    H125042   0.294   2.975   3.488  1.4298 -0.6816 -0.1031
 1161TIP3    H225043   0.274   2.892   3.613 -0.5180  0.6344  0.5105
 1162TIP3   OH225044   3.902   0.438   0.237 -0.4130 -0.1200  0.3031
 1162TIP3    H125045   3.956   0.424   0.159  0.9323 -0.0392  1.1778
 1162TIP3    H225046   3.876   0.350   0.263  0.4059 -0.2921  0.5964
 1163TIP3   OH225047   4.978   0.766   1.681 -0.0926 -0.1925  0.2809
 1163TIP3    H125048   4.954   0.676   1.705  0.6697 -0.5145 -0.1223
 1163TIP3    H225049   5.000   0.808   1.763 -2.9702  0.4455  0.8342
 1164TIP3   OH225050   6.515   2.910   7.693  0.8244 -0.9445 -0.0075
 1164TIP3    H125051   6.605   2.905   7.661  0.2504  0.1007 -1.9325
 1164TIP3    H225052   6.461   2.910   7.614 -0.7633  0.5460  0.9998
 1165TIP3   OH225053   2.142   0.962   7.501 -0.1397  0.3781 -0.1495
 1165TIP3    H125054   2.077   0.928   7.562 -0.4128  0.2401 -0.5160
 1165TIP3    H225055   2.092   0.999   7.429  0.1800  0.6029 -0.2616
 1166TIP3   OH225056   3.541   4.260   2.636  0.5061  0.0109 -0.3812
 1166TIP3    H125057   3.483   4.233   2.565 -0.4287 -0.8206  0.6728
 1166TIP3    H225058   3.539   4.356   2.634 -0.3584 -0.0112 -0.7985
 1167TIP3   OH225059   5.754   1.340   2.243  0.4493 -0.0562 -0.3340
 1167TIP3    H125060   5.829   1.360   2.188  0.3450  0.5055 -0.2749
 1167TIP3    H225061   5.768   1.249   2.269  1.1161  0.0434 -0.3142
 1168TIP3   OH225062   2.001   5.347   0.600 -0.5138 -0.0579 -0.1878
 1168TIP3    H125063   2.051   5.427   0.615 -0.5787 -0.0622  0.0449
 1168TIP3    H225064   1.912   5.369   0.626 -1.0869  0.5907 -2.4805
 1169TIP3   OH225065   0.170   5.677   2.172  0.1713 -0.5157  0.1320
 1169TIP3    H125066   0.258   5.651   2.200  0.0099  0.2111  1.3457
 1169TIP3    H225067   0.126   5.595   2.150  0.9687 -0.9236  0.0340
 1170TIP3   OH225068   3.396   2.446   8.540  0.0099 -0.6872 -0.2365
 1170TIP3    H125069   3.455   2.377   8.571 -0.2527 -0.9155 -0.2489
 1170TIP3    H225070   3.321   2.441   8.599  0.9568  1.0681  1.2451
 1171TIP3   OH225071   2.430   0.017   1.934  0.1203  0.6461 -0.5287
 1171TIP3    H125072   2.489  -0.010   2.004  0.2677  0.8760 -0.5619
 1171TIP3    H225073   2.481   0.006   1.854 -0.4513 -0.8005 -0.7340
 1172TIP3   OH225074   6.555   0.081   8.681  0.0550 -0.5351  0.1257
 1172TIP3    H125075   6.527   0.007   8.627  0.3646  0.3223 -1.2599
 1172TIP3    H225076   6.479   0.139   8.683  0.1121 -0.4697  0.4635
 1173TIP3   OH225077   5.949   3.074   0.864 -0.2561 -0.0200 -0.0781
 1173TIP3    H125078   5.897   3.082   0.944 -1.3547  2.7084 -0.9518
 1173TIP3    H225079   5.891   3.107   0.795  0.6911 -2.2081 -2.0277
 1174TIP3   OH225080   2.783   6.438   8.459 -0.0570  0.1659 -0.6641
 1174TIP3    H125081   2.705   6.409   8.507 -1.2880  3.3943 -0.4541
 1174TIP3    H225082   2.757   6.434   8.367 -0.2700  0.6226 -0.6281
 1175TIP3   OH225083   0.906   0.236   0.109  0.1668  0.0064  0.3228
 1175TIP3    H125084   0.910   0.329   0.085  0.9525 -0.2315 -0.4753
 1175TIP3    H225085   0.846   0.197   0.046 -1.3214  0.2260  1.5492
 1176TIP3   OH225086   5.861   5.103   2.206 -0.2627  0.0429  0.2174
 1176TIP3    H125087   5.842   5.132   2.295  1.0926 -3.1335  1.7190
 1176TIP3    H225088   5.779   5.067   2.173 -0.2214 -1.0012  1.2035
 1177TIP3   OH225089   3.761   3.505   2.141 -0.0506 -0.0517  0.1127
 1177TIP3    H125090   3.768   3.418   2.180 -0.6915 -0.7450 -1.2422
 1177TIP3    H225091   3.702   3.552   2.200  0.0021 -0.6520  0.6610
 1178TIP3   OH225092   1.105   4.405   1.345 -0.7148 -0.5531  0.0689
 1178TIP3    H125093   1.067   4.338   1.401 -1.4642 -1.2018 -1.1588
 1178TIP3    H225094   1.199   4.396   1.356 -0.8485 -0.7797  1.0724
 1179TIP3   OH225095   5.692   3.121   8.554 -0.6610  0.1565 -0.1555
 1179TIP3    H125096   5.636   3.131   8.631  0.5427  0.8495  0.6546
 1179TIP3    H225097   5.687   3.027   8.534 -0.3565 -0.1949  1.2643
 1180TIP3   OH225098   0.021   0.431   2.041  0.7280 -0.0083 -0.4259
 1180TIP3    H125099   0.092   0.454   2.101 -0.2353 -0.3414  0.9021
 1180TIP3    H225100   0.027   0.494   1.970  1.8779  0.4465  0.0577
 1181TIP3   OH225101   2.348   4.134   0.637 -0.2255 -0.3155 -0.2001
 1181TIP3    H125102   2.372   4.227   0.630 -3.1656  0.4511 -1.7996
 1181TIP3    H225103   2.370   4.111   0.727  0.4819  1.9823  0.2988
 1182TIP3   OH225104   0.894   0.518   0.036 -0.3120 -0.2893 -0.1053
 1182TIP3    H125105   0.948   0.593   0.012 -0.6943 -0.0922 -0.3712
 1182TIP3    H225106   0.867   0.480  -0.048  4.3666 -4.1700 -0.2764
 1183TIP3   OH225107   6.203   5.383   2.770  0.4180 -0.0930 -0.1607
 1183TIP3    H125108   6.124   5.433   2.786  1.3787  1.8442 -1.1194
 1183TIP3    H225109   6.230   5.352   2.857 -1.4096 -0.8936  0.1591
 1184TIP3   OH225110   4.837   0.771   1.373 -0.3237  0.0420  0.3640
 1184TIP3    H125111   4.891   0.698   1.344  0.4186  0.2046  1.2728
 1184TIP3    H225112   4.786   0.736   1.446 -0.8559  0.1198  0.0415
 1185TIP3   OH225113   4.293   2.442   2.522 -0.0922 -0.2523 -0.2169
 1185TIP3    H125114   4.204   2.452   2.555  0.2883  0.5667  0.5841
 1185TIP3    H225115   4.283   2.393   2.440 -1.4343  1.2749 -1.0100
 1186TIP3   OH225116   2.781   0.435   7.944 -0.5796 -0.0026  0.2143
 1186TIP3    H125117   2.730   0.355   7.957 -0.1371 -0.6871 -1.9186
 1186TIP3    H225118   2.729   0.486   7.882 -0.1341  0.6972  0.4128
 1187TIP3   OH225119   6.527   1.281   2.416  0.0646  0.4407 -0.1429
 1187TIP3    H125120   6.482   1.340   2.477  0.1774 -0.7724  1.1799
 1187TIP3    H225121   6.465   1.210   2.401  0.7048 -0.1561 -0.0219
 1188TIP3   OH225122   2.565   2.052   2.152  0.4255  0.5881 -0.4195
 1188TIP3    H125123   2.617   2.034   2.230  1.3106 -0.8866 -1.3004
 1188TIP3    H225124   2.622   2.106   2.097  0.0557  1.0782 -0.3267
 1189TIP3   OH225125   1.728   4.839   3.337 -0.3745 -0.3919 -0.0655
 1189TIP3    H125126   1.783   4.857   3.413 -0.7065 -0.6971  0.2504
 1189TIP3    H225127   1.788   4.805   3.272 -0.0747 -0.0652  0.0319
 1190TIP3   OH225128   3.800   4.398   2.120 -0.4974  0.8068  0.6425
 1190TIP3    H125129   3.807   4.338   2.195 -1.8498  1.6648  1.4789
 1190TIP3    H225130   3.819   4.343   2.044 -1.7076 -0.7002  1.3889
 1191TIP3   OH225131   3.346   6.379   7.797 -0.5361  0.0372  0.6636
 1191TIP3    H125132   3.291   6.306   7.824  1.4717 -1.9600 -0.3481
 1191TIP3    H225133   3.348   6.374   7.702 -2.8649  3.4388  0.2722
 1192TIP3   OH225134   4.285   0.005   2.610 -0.0700  0.0928  0.2126
 1192TIP3    H125135   4.236   0.017   2.691 -2.3162 -0.1151 -1.0630
 1192TIP3    H225136   4.225   0.032   2.541  1.7983  0.3085 -1.4209
 1193TIP3   OH225137   0.745   2.543   0.807 -0.0388  0.1797  0.1818
 1193TIP3    H125138   0.717   2.583   0.724  0.9792 -1.2471 -0.9133
 1193TIP3    H225139   0.840   2.554   0.809  0.3262 -2.2449 -0.2937
 1194TIP3   OH225140   4.481   1.380   2.714 -0.0438 -0.3706 -0.0773
 1194TIP3    H125141   4.414   1.447   2.699 -0.2549 -0.3632  0.8177
 1194TIP3    H225142   4.549   1.425   2.764 -0.5736 -1.0057  1.2729
 1195TIP3   OH225143   4.658   5.859   8.147 -0.3772  0.7177  0.2763
 1195TIP3    H125144   4.641   5.809   8.227 -0.2473  0.1268 -0.0547
 1195TIP3    H225145   4.747   5.892   8.158  0.6225 -1.4562 -0.6632
 1196TIP3   OH225146   6.047   6.357   0.071 -0.4101  0.5641 -0.3309
 1196TIP3    H125147   6.018   6.448   0.073 -1.3408  0.2800 -0.5768
 1196TIP3    H225148   6.019   6.321   0.156  1.6380  0.9963  0.5796
 1197TIP3   OH225149   4.606   3.536   1.938  0.1334 -0.2923 -0.6948
 1197TIP3    H125150   4.642   3.473   1.876  1.0154 -1.4619  0.9339
 1197TIP3    H225151   4.682   3.571   1.985 -0.1970  2.9296 -2.3166
 1198TIP3   OH225152   4.226   3.853   0.029 -0.1207  0.2889  0.5030
 1198TIP3    H125153   4.234   3.879  -0.062  0.6219 -1.3579  0.0812
 1198TIP3    H225154   4.146   3.801   0.032  0.1027 -0.0436  0.7037
 1199TIP3   OH225155   6.480   6.238   0.318  0.5610 -0.8221  0.1821
 1199TIP3    H125156   6.502   6.269   0.406  0.5874 -0.8645  0.1906
 1199TIP3    H225157   6.523   6.301   0.259  0.6159 -0.8440  0.1991
 1200TIP3   OH225158   3.304   2.970   1.684 -0.1351 -0.1136  0.0268
 1200TIP3    H125159   3.219   2.954   1.642 -0.5589  2.6237 -0.3382
 1200TIP3    H225160   3.282   2.992   1.775 -0.0880  2.3760 -0.4893
 1201TIP3   OH225161   4.216   5.896   0.866  0.0035 -0.1451 -0.5828
 1201TIP3    H125162   4.134   5.902   0.817  0.4890  2.1235 -1.2161
 1201TIP3    H225163   4.193   5.848   0.946 -1.8498  0.0869 -0.9405
 1202TIP3   OH225164   4.420   3.007   7.860  0.3898  0.0746 -0.2165
 1202TIP3    H125165   4.467   3.080   7.901  1.0654 -1.4145  1.8469
 1202TIP3    H225166   4.453   3.005   7.770  1.5006  1.3656  0.1290
 1203TIP3   OH225167   5.515   5.923   1.498 -0.1408 -0.3559 -1.4804
 1203TIP3    H125168   5.609   5.935   1.510 -0.3714 -0.0689  0.3712
 1203TIP3    H225169   5.476   6.003   1.535 -1.1847 -1.4756 -0.0122
 1204TIP3   OH225170   1.974   4.333   0.291  0.1073 -0.0402  0.0811
 1204TIP3    H125171   1.895   4.298   0.250  0.7189  1.0950 -2.2179
 1204TIP3    H225172   2.016   4.256   0.331 -0.8082 -1.1184 -0.9531
 1205TIP3   OH225173   4.906   2.839   8.030  0.2682  0.0218  0.1818
 1205TIP3    H125174   4.818   2.821   8.062 -0.0207  0.6686 -0.2199
 1205TIP3    H225175   4.938   2.755   7.996 -1.1788  0.2750 -1.9986
 1206TIP3   OH225176   6.195   5.406   8.419  0.1417  0.1091 -0.2916
 1206TIP3    H125177   6.236   5.340   8.363 -0.0415  0.5962 -1.0169
 1206TIP3    H225178   6.114   5.365   8.449 -0.1211  0.1121 -0.9827
 1207TIP3   OH225179   4.640   6.534   8.136  0.0047  0.5257 -0.2626
 1207TIP3    H125180   4.695   6.510   8.210 -0.1356  0.6780 -0.1085
 1207TIP3    H225181   4.560   6.484   8.149  0.5207 -0.5610 -1.0787
 1208TIP3   OH225182   1.581   1.101   0.950  0.0036  0.4427  0.2722
 1208TIP3    H125183   1.642   1.036   0.916 -1.4011  0.1073 -1.7981
 1208TIP3    H225184   1.526   1.053   1.012  0.3307  0.1818  0.3578
 1209TIP3   OH225185   0.536   5.903   8.427  0.6284  0.2969  0.2412
 1209TIP3    H125186   0.593   5.892   8.503 -0.1826  0.7936  0.9336
 1209TIP3    H225187   0.453   5.863   8.453  0.7710 -0.8487 -0.9316
 1210TIP3   OH225188   6.218   6.030   1.218 -0.0290  0.0630  0.4777
 1210TIP3    H125189   6.128   6.038   1.184  0.0480 -0.6512  0.0841
 1210TIP3    H225190   6.269   6.090   1.164 -0.2251  0.2965  0.5471
 1211TIP3   OH225191   1.670   5.108   0.723  0.2513 -0.0425  0.2162
 1211TIP3    H125192   1.672   5.014   0.703  1.5480  0.1497 -0.6101
 1211TIP3    H225193   1.587   5.120   0.769  0.4243 -1.7397  1.0555
 1212TIP3   OH225194   5.197   3.277   2.470 -0.5299  0.6668  0.7188
 1212TIP3    H125195   5.222   3.305   2.382 -0.4705  1.1621  0.8875
 1212TIP3    H225196   5.152   3.354   2.508 -1.8144 -0.0040  0.6244
 1213TIP3   OH225197   1.519   6.263   2.049  0.2069  0.0058 -0.2406
 1213TIP3    H125198   1.478   6.239   2.132  1.4716  1.3258  0.8291
 1213TIP3    H225199   1.604   6.220   2.051  0.3122  0.1783 -0.7746
 1214TIP3   OH225200   5.816   6.576   0.342 -0.4874 -1.0006 -0.1912
 1214TIP3    H125201   5.896   6.554   0.391 -0.3087 -1.8821 -0.8422
 1214TIP3    H225202   5.848   6.604   0.256 -0.7607  1.2143  0.3830
 1215TIP3   OH225203   2.504   3.837   1.870 -0.4325  0.2937  0.3322
 1215TIP3    H125204   2.454   3.808   1.946  0.2468  1.5578  1.2984
 1215TIP3    H225205   2.505   3.761   1.812 -0.1451 -1.0443  1.9997
 1216TIP3   OH225206   0.656   0.206   0.289  0.2552 -0.0569  0.0886
 1216TIP3    H125207   0.734   0.249   0.322  0.6202  0.4060 -1.3087
 1216TIP3    H225208   0.686   0.154   0.214 -1.1557  2.6529 -2.5516
 1217TIP3   OH225209   3.375   0.648   8.369  0.4345  0.0336  0.2739
 1217TIP3    H125210   3.419   0.731   8.354 -1.1478  0.7611 -0.5550
 1217TIP3    H225211   3.311   0.666   8.437 -0.5356 -0.2554 -0.5345
 1218TIP3   OH225212   1.383   3.838   2.860 -0.2833 -0.3026 -0.0194
 1218TIP3    H125213   1.316   3.897   2.895  0.5175  0.0166  1.0306
 1218TIP3    H225214   1.382   3.763   2.919  1.7106  0.6433  1.3290
 1219TIP3   OH225215   3.843   3.516   0.819  0.4389  0.4149 -0.1018
 1219TIP3    H125216   3.771   3.494   0.760  0.1134 -2.8340  1.2472
 1219TIP3    H225217   3.800   3.538   0.902  0.9250  0.0642  0.2542
 1220TIP3   OH225218   2.068   6.037   3.192  0.2560  0.4856  0.2126
 1220TIP3    H125219   2.088   6.113   3.246 -0.1618 -0.1165  1.2597
 1220TIP3    H225220   2.131   5.970   3.221 -2.2773 -1.0643  2.7486
 1221TIP3   OH225221   3.903   2.839   8.790 -0.0931  0.4412  0.4313
 1221TIP3    H125222   3.855   2.918   8.763 -2.3459 -0.3849  1.7152
 1221TIP3    H225223   3.949   2.811   8.711 -0.5546  2.1351 -0.4946
 1222TIP3   OH225224   4.562   1.544   7.907  0.6075  0.0715 -0.1309
 1222TIP3    H125225   4.569   1.460   7.952 -1.2037  1.3859  2.8851
 1222TIP3    H225226   4.608   1.606   7.963 -1.5246  1.7711 -0.1067
 1223TIP3   OH225227   5.432   2.405   2.669 -0.0372  0.2745 -0.4795
 1223TIP3    H125228   5.496   2.469   2.702 -0.1289 -0.2708  0.8314
 1223TIP3    H225229   5.481   2.352   2.606  0.4692  0.6521 -0.4122
 1224TIP3   OH225230   4.905   2.939   0.740 -0.5795 -0.0247  0.1048
 1224TIP3    H125231   4.913   2.958   0.646 -0.2030  0.6180  0.2556
 1224TIP3    H225232   4.987   2.895   0.762 -1.1197 -1.1364 -0.0815
 1225TIP3   OH225233   0.165   4.429   7.613  0.3853  0.3695 -0.9431
 1225TIP3    H125234   0.183   4.509   7.662  0.6989 -1.2253  1.7341
 1225TIP3    H225235   0.249   4.405   7.574  0.4514  0.9524 -1.1668
 1226TIP3   OH225236   0.679   4.198   1.651  0.1533  0.4898  0.3624
 1226TIP3    H125237   0.647   4.115   1.616  1.2068 -0.2695  1.1527
 1226TIP3    H225238   0.687   4.254   1.573 -0.8800 -0.0202 -0.1349
 1227TIP3   OH225239   1.200   3.185   8.750  0.1275  0.5509  0.0254
 1227TIP3    H125240   1.280   3.170   8.699  0.3666  2.8697 -0.4340
 1227TIP3    H225241   1.131   3.196   8.683 -0.0902  0.9034  0.3001
 1228TIP3   OH225242   3.788   6.519   8.662  0.2922 -0.6180  0.0304
 1228TIP3    H125243   3.864   6.481   8.707 -0.0565  0.1985  1.3971
 1228TIP3    H225244   3.821   6.601   8.625  0.2388 -0.5804  0.0654
 1229TIP3   OH225245   4.520   0.396   1.290  0.0335  0.1248  0.3717
 1229TIP3    H125246   4.612   0.422   1.290  0.3005 -0.7614 -0.3392
 1229TIP3    H225247   4.472   0.478   1.277  0.7447  0.5292  0.2087
 1230TIP3   OH225248   3.626   4.640   2.358  0.2256 -0.3212  0.0425
 1230TIP3    H125249   3.709   4.624   2.402  1.9056  3.1976 -1.4904
 1230TIP3    H225250   3.574   4.689   2.422  0.7561  0.5682 -0.1983
 1231TIP3   OH225251   3.034   0.230   3.148 -0.3377  0.1104  0.0338
 1231TIP3    H125252   2.963   0.234   3.212  1.1592 -0.0371  1.7474
 1231TIP3    H225253   3.074   0.316   3.151 -1.2572  0.6676 -1.9662
 1232TIP3   OH225254   5.465   2.945   0.466  0.4165 -0.1226 -0.6247
 1232TIP3    H125255   5.371   2.933   0.483  0.3187  0.1460 -0.9715
 1232TIP3    H225256   5.508   2.899   0.538  0.0018  0.9873  0.3598
 1233TIP3   OH225257   3.598   4.071   0.983  0.4113 -0.2398 -0.3190
 1233TIP3    H125258   3.646   4.123   0.917 -0.3184  0.9495  0.0472
 1233TIP3    H225259   3.666   4.028   1.034  1.2042  2.2612  0.8797
 1234TIP3   OH225260   2.250   3.907   8.238 -0.3256  0.6634  0.6614
 1234TIP3    H125261   2.288   3.978   8.185 -1.1879  0.0743 -0.8152
 1234TIP3    H225262   2.173   3.879   8.188 -0.0638 -1.2443  1.2569
 1235TIP3   OH225263   0.477   3.724   0.159  0.4497 -0.3403  0.3037
 1235TIP3    H125264   0.558   3.695   0.118  0.6827  0.9442 -0.1868
 1235TIP3    H225265   0.449   3.799   0.107 -0.9694 -0.6645  0.5719
 1236TIP3   OH225266   4.749   5.627   8.474  0.0334  0.0091  0.0732
 1236TIP3    H125267   4.732   5.721   8.473  1.1394  0.2293  0.7993
 1236TIP3    H225268   4.673   5.588   8.430 -0.7850  1.1754  0.4268
 1237TIP3   OH225269   2.180   1.206   3.105 -0.5421 -0.9907 -0.2882
 1237TIP3    H125270   2.206   1.298   3.115 -0.3170 -1.0004 -0.7761
 1237TIP3    H225271   2.102   1.198   3.160 -2.6110  0.3494 -2.7951
 1238TIP3   OH225272   6.689   0.738   1.629 -0.1729 -0.0760  0.3545
 1238TIP3    H125273   6.594   0.750   1.623  0.0375  1.7951 -0.0429
 1238TIP3    H225274   6.701   0.644   1.640 -2.0783 -0.3325  0.6046
 1239TIP3   OH225275   3.483   0.683   2.332 -0.3106 -0.0758  0.1320
 1239TIP3    H125276   3.413   0.620   2.319 -1.0935 -0.0165  3.1736
 1239TIP3    H225277   3.563   0.637   2.305 -1.1760 -1.2746 -0.4647
 1240TIP3   OH225278   0.451   1.460   0.091  0.2048 -0.1102  0.1194
 1240TIP3    H125279   0.543   1.465   0.119  0.1162 -1.3509  0.7368
 1240TIP3    H225280   0.408   1.411   0.162 -1.0205  0.8011  0.0274
 1241TIP3   OH225281   3.587   6.610   7.476  0.0812 -0.3039 -0.3598
 1241TIP3    H125282   3.498   6.611   7.511  0.3005  1.3298  0.2155
 1241TIP3    H225283   3.577   6.638   7.385 -0.0961 -1.2516 -0.6499
 1242TIP3   OH225284   5.392   4.785   1.268  0.8605  0.0670  0.2030
 1242TIP3    H125285   5.323   4.831   1.316  0.0450 -1.2583  0.3651
 1242TIP3    H225286   5.474   4.814   1.307  0.2636 -0.1838  1.6901
 1243TIP3   OH225287   0.246   1.454   2.476  0.4867 -0.0364  0.3253
 1243TIP3    H125288   0.158   1.418   2.474  0.1222  0.8116 -2.5809
 1243TIP3    H225289   0.302   1.384   2.442  0.3844  0.6154 -1.2463
 1244TIP3   OH225290   4.787   0.546   8.839  0.1588 -0.0177 -0.3442
 1244TIP3    H125291   4.827   0.511   8.760  0.6653 -1.4952  0.5287
 1244TIP3    H225292   4.704   0.583   8.810  0.6163  0.0151 -1.6482
 1245TIP3   OH225293   4.298   0.724   0.451 -0.2083 -0.5595 -0.4114
 1245TIP3    H125294   4.390   0.703   0.468 -0.5108 -0.8532  0.9532
 1245TIP3    H225295   4.251   0.642   0.468 -0.8393 -0.1370 -0.0862
 1246TIP3   OH225296   1.317   3.895   7.670 -0.1312 -0.4934  0.0340
 1246TIP3    H125297   1.363   3.942   7.739 -1.4091  1.4865 -0.3892
 1246TIP3    H225298   1.379   3.827   7.642  2.2249  1.5196  0.0031
 1247TIP3   OH225299   4.460   3.685   0.085 -0.7564 -0.2859  0.4335
 1247TIP3    H125300   4.392   3.750   0.066 -0.5867 -0.2722 -0.1499
 1247TIP3    H225301   4.462   3.629   0.007 -1.0617 -1.1410  1.0258
 1248TIP3   OH225302   1.377   3.542   7.544 -0.2247 -0.7469  1.1908
 1248TIP3    H125303   1.433   3.607   7.586 -2.4935  0.1861  2.9624
 1248TIP3    H225304   1.435   3.499   7.480  2.2429  0.6824  2.2971
 1249TIP3   OH225305   2.840   1.625   8.177  0.1815  0.0997 -0.1121
 1249TIP3    H125306   2.912   1.659   8.123  0.4654 -1.3407 -0.6910
 1249TIP3    H225307   2.829   1.535   8.148  1.1324 -1.1601  2.9887
 1250TIP3   OH225308   1.788   2.085   7.798 -0.3405 -0.3100 -0.7075
 1250TIP3    H125309   1.842   2.009   7.820  0.5944  0.3996 -0.4413
 1250TIP3    H225310   1.729   2.055   7.729 -0.9208 -1.6374  0.3289
 1251TIP3   OH225311   3.832   4.011   8.642 -0.1017  0.2825  0.9465
 1251TIP3    H125312   3.814   4.030   8.550 -2.3106  0.1120  1.2902
 1251TIP3    H225313   3.834   3.916   8.647  0.5875  0.2894  1.0124
 1252TIP3   OH225314   0.945   1.267   8.561  0.3604 -0.1824  0.1169
 1252TIP3    H125315   0.959   1.286   8.468 -0.5965  0.6752  0.1257
 1252TIP3    H225316   0.914   1.350   8.598  2.5348  0.0479  1.6175
 1253TIP3   OH225317   2.582   6.610   3.379 -0.7276 -0.1981 -0.3461
 1253TIP3    H125318   2.584   6.675   3.308  1.1244  0.4913  0.2909
 1253TIP3    H225319   2.501   6.629   3.427 -0.5206  1.2295 -0.5396
 1254TIP3   OH225320   1.920   2.375   8.538  0.2018  0.6363 -0.1375
 1254TIP3    H125321   1.942   2.283   8.527 -2.2443  0.2704 -3.6301
 1254TIP3    H225322   2.004   2.420   8.535  1.3197 -1.3349 -0.2317
 1255TIP3   OH225323   4.835   3.770   2.779  0.0756  0.5856 -0.5476
 1255TIP3    H125324   4.847   3.829   2.854 -0.0984 -0.2701  0.1774
 1255TIP3    H225325   4.865   3.685   2.811  0.1231  0.2309 -1.5077
 1256TIP3   OH225326   1.917   1.269   7.848  0.5759 -0.0175  0.1314
 1256TIP3    H125327   1.875   1.195   7.803 -1.0813  0.5586  0.6516
 1256TIP3    H225328   1.851   1.339   7.845  1.8297  1.2096  0.2925
 1257TIP3   OH225329   1.730   6.005   3.211  0.1460 -0.7011 -0.8258
 1257TIP3    H125330   1.796   6.058   3.255 -0.2592 -0.2082 -0.8070
 1257TIP3    H225331   1.780   5.943   3.157  0.7052 -2.0187  1.0948
 1258TIP3   OH225332   4.576   4.679   0.666  0.3932 -0.4319 -0.2112
 1258TIP3    H125333   4.552   4.591   0.637 -1.6840  0.4321 -1.2671
 1258TIP3    H225334   4.557   4.735   0.591 -0.1988  1.1837  1.0918
 1259TIP3   OH225335   6.181   5.126   1.933 -0.3021 -0.0302  0.3185
 1259TIP3    H125336   6.189   5.164   1.845 -0.6182  1.2135  0.8078
 1259TIP3    H225337   6.189   5.031   1.919  1.1048  0.2321 -0.8677
 1260TIP3   OH225338   1.255   1.426   8.649 -0.0816  0.0258 -0.1165
 1260TIP3    H125339   1.235   1.510   8.606 -1.1500 -0.3009 -0.2949
 1260TIP3    H225340   1.350   1.424   8.655  0.0089  0.8037 -1.0219
 1261TIP3   OH225341   3.789   4.026   0.660 -0.5691 -0.1409 -0.0397
 1261TIP3    H125342   3.851   3.955   0.677 -0.8545 -0.4315 -0.2248
 1261TIP3    H225343   3.793   4.040   0.566 -0.1733  0.4001  0.0538
 1262TIP3   OH225344   3.435   2.771   1.523 -0.4109  0.5439  0.0776
 1262TIP3    H125345   3.482   2.697   1.562  1.7124  0.8473 -1.6794
 1262TIP3    H225346   3.396   2.734   1.443  0.4148  1.2031 -0.6533
 1263TIP3   OH225347   4.669   1.505   3.175  0.6157 -0.1273 -0.5079
 1263TIP3    H125348   4.583   1.470   3.152  0.1382  1.4155 -1.2414
 1263TIP3    H225349   4.709   1.437   3.229 -0.6615 -1.2996 -0.9767
 1264TIP3   OH225350   5.722   5.578   1.777 -0.5643  0.0503  0.1241
 1264TIP3    H125351   5.719   5.671   1.798 -2.3222 -0.0380  0.4024
 1264TIP3    H225352   5.758   5.574   1.689  0.1232  0.9364  0.3513
 1265TIP3   OH225353   2.449   3.748   3.164  0.0479  0.1390 -0.1841
 1265TIP3    H125354   2.495   3.669   3.193 -0.4545  0.1357  0.6511
 1265TIP3    H225355   2.515   3.817   3.169  0.4746 -0.2069 -0.8642
 1266TIP3   OH225356   0.646   6.118   0.085  0.5550 -0.0034 -0.0245
 1266TIP3    H125357   0.574   6.167   0.044  0.5395  0.8440  0.9756
 1266TIP3    H225358   0.604   6.038   0.118  0.3399 -0.1466 -0.6420
 1267TIP3   OH225359   6.263   3.359   0.578 -0.6340 -0.0523  0.4721
 1267TIP3    H125360   6.286   3.431   0.520 -1.5198 -0.6887 -0.7216
 1267TIP3    H225361   6.279   3.392   0.666 -0.5470  1.4193 -0.0744
 1268TIP3   OH225362   5.694   1.260   0.109  0.0618 -0.0714  0.2792
 1268TIP3    H125363   5.695   1.189   0.044 -0.6586  0.1009  0.0694
 1268TIP3    H225364   5.733   1.221   0.187 -0.7810 -0.8595  0.3236
 1269TIP3   OH225365   3.579   2.894   1.759  0.3639 -0.2842 -0.0578
 1269TIP3    H125366   3.625   2.821   1.716  0.2586 -0.4372  0.0891
 1269TIP3    H225367   3.491   2.892   1.722 -0.5656 -2.0465  2.0115
 1270TIP3   OH225368   1.928   0.487   0.791  0.4507  0.0313 -0.1145
 1270TIP3    H125369   1.910   0.577   0.764 -0.1969 -0.5926 -1.8927
 1270TIP3    H225370   1.928   0.491   0.887 -1.1564  1.6329 -0.1102
 1271TIP3   OH225371   2.639   5.885   1.185 -0.7800 -0.3440 -0.2467
 1271TIP3    H125372   2.585   5.865   1.262  0.0462 -1.3799  0.0997
 1271TIP3    H225373   2.611   5.821   1.120 -0.0903 -0.8019 -0.1077
 1272TIP3   OH225374   3.419   0.177   1.992 -0.3394 -0.2061 -0.2149
 1272TIP3    H125375   3.450   0.266   2.011  0.3739 -0.3862 -0.5001
 1272TIP3    H225376   3.354   0.159   2.060 -3.2047  1.8875 -2.1570
 1273TIP3   OH225377   3.553   3.240   1.332 -0.3937  0.0294  0.1852
 1273TIP3    H125378   3.488   3.169   1.334 -0.8496  0.4525  1.4472
 1273TIP3    H225379   3.501   3.320   1.340  0.1586  0.5014 -0.7160
 1274TIP3   OH225380   1.732   3.356   2.376  0.3184  0.9656 -0.3335
 1274TIP3    H125381   1.826   3.354   2.392  0.7468 -0.4490 -2.5879
 1274TIP3    H225382   1.724   3.369   2.281 -1.6124 -2.4984 -0.8005
 1275TIP3   OH225383   0.127   2.147   7.919  0.3637 -0.3922  0.8831
 1275TIP3    H125384   0.100   2.234   7.890  0.7083 -0.6600 -0.3212
 1275TIP3    H225385   0.194   2.164   7.986  1.1666  0.2857 -0.0624
 1276TIP3   OH225386   6.739   4.817   0.234 -0.3035 -0.0492  0.2607
 1276TIP3    H125387   6.703   4.745   0.182  0.2618 -0.1207 -0.0306
 1276TIP3    H225388   6.824   4.785   0.264  0.3533  0.8232 -0.6097
 1277TIP3   OH225389   1.015   6.306   3.223 -0.0336  0.3310 -0.2031
 1277TIP3    H125390   0.997   6.342   3.310 -1.3107 -0.8625  0.0597
 1277TIP3    H225391   1.033   6.213   3.238 -2.2085 -0.3348 -1.3594
 1278TIP3   OH225392   4.612   4.777   1.316  0.4291  0.0390  0.6372
 1278TIP3    H125393   4.595   4.727   1.396 -2.4442 -0.8672 -0.4210
 1278TIP3    H225394   4.577   4.864   1.334  1.8462  0.5408  1.0994
 1279TIP3   OH225395   1.639   2.800   1.746  0.2641 -0.5269 -0.3952
 1279TIP3    H125396   1.589   2.878   1.770  1.8060  0.0985  0.9803
 1279TIP3    H225397   1.638   2.799   1.650  0.1002  1.1111 -0.4323
 1280TIP3   OH225398   5.153   2.286   8.580 -0.3955  0.0624 -0.0165
 1280TIP3    H125399   5.143   2.253   8.670 -1.2459 -0.4769 -0.2991
 1280TIP3    H225400   5.245   2.314   8.575 -0.0766 -0.7947  0.7238
 1281TIP3   OH225401   4.820   2.595   2.042  0.4854 -0.5425 -0.0569
 1281TIP3    H125402   4.822   2.681   1.999 -2.7414  0.2286  1.0484
 1281TIP3    H225403   4.851   2.612   2.131 -0.1410 -0.5247  0.1579
 1282TIP3   OH225404   1.997   2.774   2.317 -0.4293 -0.1726 -0.6351
 1282TIP3    H125405   2.079   2.821   2.305 -1.1040  2.0545  2.2995
 1282TIP3    H225406   2.021   2.696   2.367 -0.1105  1.0037  1.1597
 1283TIP3   OH225407   4.088   0.106   0.795  0.1082  0.1169  0.5747
 1283TIP3    H125408   4.078   0.162   0.717  0.5314  0.5012  0.7906
 1283TIP3    H225409   4.107   0.019   0.759 -0.4347  0.1329  0.2368
 1284TIP3   OH225410   0.752   0.712   2.540  0.1280  0.2858 -0.0373
 1284TIP3    H125411   0.706   0.630   2.559  1.5703 -0.3450  0.8501
 1284TIP3    H225412   0.802   0.694   2.461  0.9725  0.0851  0.5375
 1285TIP3   OH225413   0.567   5.679   0.867 -0.5470 -0.2262 -0.6198
 1285TIP3    H125414   0.538   5.605   0.920  0.8532 -0.2226  0.1812
 1285TIP3    H225415   0.660   5.664   0.853 -0.1067  1.6505  0.0220
 1286TIP3   OH225416   0.907   6.363   2.183  0.4016 -0.4226 -0.2024
 1286TIP3    H125417   0.978   6.375   2.245 -0.5675 -1.2358  1.1112
 1286TIP3    H225418   0.881   6.271   2.193 -0.6232 -0.2295 -0.8829
 1287TIP3   OH225419   6.477   5.271   7.915 -0.9916  0.2177 -0.3514
 1287TIP3    H125420   6.498   5.220   7.837 -1.3107 -2.3107  1.1168
 1287TIP3    H225421   6.386   5.250   7.935 -0.3968 -0.7083  1.7096
 1288TIP3   OH225422   1.079   5.450   8.848  0.2726  0.6748 -0.2088
 1288TIP3    H125423   1.136   5.464   8.924 -1.7351  0.9148  1.3377
 1288TIP3    H225424   1.112   5.370   8.808  1.2154  0.3692  1.1041
 1289TIP3   OH225425   2.523   1.675   8.340  0.2920 -0.0570 -0.3508
 1289TIP3    H125426   2.448   1.720   8.301 -0.8699 -1.2341  0.4352
 1289TIP3    H225427   2.598   1.730   8.318 -0.8737  1.4865 -0.6499
 1290TIP3   OH225428   3.023   6.742   0.256  0.0655 -0.3723 -0.5383
 1290TIP3    H125429   3.056   6.684   0.187  2.1388  0.7410 -0.5796
 1290TIP3    H225430   3.101   6.789   0.287 -1.3575  1.7586  0.0831
 1291TIP3   OH225431   0.235   0.551   2.703 -0.1327  0.8443  0.0864
 1291TIP3    H125432   0.159   0.602   2.732 -0.9394 -0.1476 -0.2481
 1291TIP3    H225433   0.240   0.478   2.764  0.8979  1.1982  0.4398
 1292TIP3   OH225434   1.904   1.998   7.538  0.5805 -0.2437  0.1250
 1292TIP3    H125435   1.953   1.937   7.592  0.4919 -0.0630  0.4101
 1292TIP3    H225436   1.848   1.943   7.484 -0.3417 -0.3713  1.1950
 1293TIP3   OH225437   6.588   1.189   1.377 -0.2944 -0.0433  0.3119
 1293TIP3    H125438   6.605   1.161   1.467  0.3106  0.2369  0.2913
 1293TIP3    H225439   6.672   1.225   1.347 -0.5172 -0.0434 -0.3299
 1294TIP3   OH225440   4.804   4.732   7.451  0.3713 -0.3139 -0.1067
 1294TIP3    H125441   4.760   4.816   7.457  0.6769  0.0018 -1.6662
 1294TIP3    H225442   4.891   4.753   7.417  0.3067 -1.2762 -0.9197
 1295TIP3   OH225443   3.001   6.270   0.327 -0.6577  0.1458 -0.4097
 1295TIP3    H125444   2.943   6.307   0.260  0.4370  1.1611 -0.8375
 1295TIP3    H225445   3.002   6.336   0.397 -2.0134 -1.0322  0.7759
 1296TIP3   OH225446   1.777   6.673   2.532 -0.2196 -0.1806 -0.3657
 1296TIP3    H125447   1.766   6.768   2.531 -1.6994 -0.2971 -2.3795
 1296TIP3    H225448   1.709   6.641   2.591 -0.1488 -0.0259 -0.2015
 1297TIP3   OH225449   2.115   3.801   1.506  0.0637  0.0748  0.2776
 1297TIP3    H125450   2.027   3.833   1.523  0.2492  1.4673 -1.1485
 1297TIP3    H225451   2.110   3.707   1.525 -2.0544 -0.1214 -0.8786
 1298TIP3   OH225452   3.111   5.392   1.189  0.0822  0.2100 -0.2138
 1298TIP3    H125453   3.071   5.340   1.119 -0.0258 -0.8705  0.6083
 1298TIP3    H225454   3.137   5.327   1.254 -0.2867  1.2247  0.9795
 1299TIP3   OH225455   5.409   2.116   1.187  0.0475 -0.4664  0.3141
 1299TIP3    H125456   5.476   2.185   1.187 -0.5860  0.1757 -0.9255
 1299TIP3    H225457   5.457   2.037   1.211  0.8718  0.3094  1.3654
 1300TIP3   OH225458   4.290   1.566   7.495 -0.4862  0.0467  0.3169
 1300TIP3    H125459   4.273   1.639   7.435 -0.6977  0.3696  0.7596
 1300TIP3    H225460   4.294   1.607   7.581  1.6582 -0.1563  0.3519
 1301TIP3   OH225461   5.387   2.889   8.303 -0.5437 -0.6549 -0.3026
 1301TIP3    H125462   5.393   2.979   8.334 -1.3441 -1.2416  1.7256
 1301TIP3    H225463   5.394   2.896   8.208  0.0468  1.4702 -0.1562
 1302TIP3   OH225464   2.465   5.323   2.146 -0.6302  0.4374 -0.0311
 1302TIP3    H125465   2.517   5.357   2.219 -0.7153  0.7813 -0.1243
 1302TIP3    H225466   2.528   5.276   2.091 -0.2373  1.5432 -0.5738
 1303TIP3   OH225467   3.289   4.478   2.538  0.1349  0.0393 -0.0200
 1303TIP3    H125468   3.323   4.416   2.474 -0.7929 -0.7336  0.2118
 1303TIP3    H225469   3.365   4.499   2.593  0.7459  0.0802 -0.8637
 1304TIP3   OH225470   3.652   5.516   8.529  0.0785  0.0697  0.3834
 1304TIP3    H125471   3.679   5.513   8.438 -0.5178  1.6741  0.1101
 1304TIP3    H225472   3.727   5.555   8.575  1.0906 -2.3522  0.9348
 1305TIP3   OH225473   1.088   4.247   1.096  0.3306 -0.2993 -0.8284
 1305TIP3    H125474   1.089   4.208   1.008  1.0446 -4.4163  0.8026
 1305TIP3    H225475   1.180   4.247   1.123  0.2207  1.7043 -0.2780
 1306TIP3   OH225476   4.573   5.047   8.271  0.2147 -0.0657 -0.5522
 1306TIP3    H125477   4.484   5.024   8.245  0.0415 -0.1003  0.0533
 1306TIP3    H225478   4.612   4.964   8.301 -0.9166  0.5327  3.1356
 1307TIP3   OH225479   3.165   3.314   1.070  0.0569 -0.0162 -0.1013
 1307TIP3    H125480   3.144   3.387   1.128 -0.9822 -0.4913  0.1421
 1307TIP3    H225481   3.226   3.351   1.006  0.1384  0.8621  0.4703
 1308TIP3   OH225482   3.573   4.405   7.353  0.1722 -0.2981 -0.6636
 1308TIP3    H125483   3.528   4.452   7.282 -0.8766  1.5343  1.0885
 1308TIP3    H225484   3.637   4.468   7.387 -0.8374 -0.2730  1.3548
 1309TIP3   OH225485   1.419   4.278   1.091  0.5206  1.0098 -0.4561
 1309TIP3    H125486   1.515   4.285   1.096  0.5151  0.6338  0.4902
 1309TIP3    H225487   1.399   4.199   1.142 -0.1110 -0.4383 -2.8259
 1310TIP3   OH225488   3.286   4.531   8.623 -0.4573 -0.1262 -0.2500
 1310TIP3    H125489   3.380   4.530   8.604 -0.4861  0.7525 -0.4775
 1310TIP3    H225490   3.248   4.470   8.560  0.0636 -1.2345  0.4784
 1311TIP3   OH225491   1.548   2.620   8.016 -0.4386  0.6200  0.3380
 1311TIP3    H125492   1.461   2.645   7.984 -0.7188 -0.9042 -0.1777
 1311TIP3    H225493   1.605   2.627   7.940 -0.5642 -0.4480  0.1313
 1312TIP3   OH225494   3.626   4.799   0.633  0.1334  0.3315 -0.0468
 1312TIP3    H125495   3.705   4.750   0.655 -1.6102 -1.7007  2.2357
 1312TIP3    H225496   3.584   4.746   0.565  0.8785  1.6434 -1.5885
 1313TIP3   OH225497   4.350   5.188   1.040 -0.1715  0.1180 -0.0252
 1313TIP3    H125498   4.375   5.096   1.033 -0.1059  0.0155  1.3585
 1313TIP3    H225499   4.425   5.237   1.005  0.5789 -0.3090  0.9329
 1314TIP3   OH225500   0.687   1.962   0.260  0.1436 -0.6177  0.3820
 1314TIP3    H125501   0.682   1.876   0.219  0.7944 -0.2728 -0.4634
 1314TIP3    H225502   0.690   2.023   0.186 -1.3758  0.2177  0.9626
 1315TIP3   OH225503   6.540   3.461   1.824 -0.7101 -0.7333  0.0545
 1315TIP3    H125504   6.625   3.503   1.840 -1.4708  1.3389 -0.9467
 1315TIP3    H225505   6.561   3.383   1.773  0.6691 -0.8901  0.7968
 1316TIP3   OH225506   3.246   2.933   3.305 -0.3456  0.2551  0.3804
 1316TIP3    H125507   3.332   2.963   3.276 -0.9329  2.0949  0.3697
 1316TIP3    H225508   3.262   2.890   3.389  0.8311 -1.4195 -0.6417
 1317TIP3   OH225509   0.879   3.693   8.131  1.0829 -0.3641  0.0881
 1317TIP3    H125510   0.917   3.780   8.136 -0.8065  0.5404 -0.4900
 1317TIP3    H225511   0.942   3.642   8.080  2.0136  0.7641  0.0743
 1318TIP3   OH225512   5.946   3.687   8.322 -0.2817 -0.4410  0.4650
 1318TIP3    H125513   6.040   3.693   8.306 -0.3892  0.4764  0.1351
 1318TIP3    H225514   5.927   3.593   8.317  0.5260 -0.5917  0.0365
 1319TIP3   OH225515   1.672   2.498   1.093 -0.0705 -0.1153 -0.1058
 1319TIP3    H125516   1.691   2.455   1.176 -0.5813 -1.9095 -0.8635
 1319TIP3    H225517   1.626   2.578   1.117 -0.0110 -0.4945  1.3437
 1320TIP3   OH225518   2.713   3.462   0.572  0.4406  0.5428 -0.1800
 1320TIP3    H125519   2.689   3.546   0.612 -0.3262 -0.0099  0.5582
 1320TIP3    H225520   2.668   3.462   0.488  1.0466  1.1803 -0.5149
 1321TIP3   OH225521   5.323   1.252   2.312  0.0299 -0.1129 -0.5453
 1321TIP3    H125522   5.270   1.288   2.241  2.5298  3.0767 -1.0237
 1321TIP3    H225523   5.299   1.305   2.389  0.7345 -0.2890 -0.1962
 1322TIP3   OH225524   4.571   5.758   0.221 -0.4580 -0.1683 -0.0983
 1322TIP3    H125525   4.516   5.807   0.160 -1.4617 -1.0957  0.0133
 1322TIP3    H225526   4.599   5.681   0.171  1.6518  0.7822 -0.4940
 1323TIP3   OH225527   6.776   0.737   8.026  0.5349  0.3667 -0.3169
 1323TIP3    H125528   6.816   0.818   8.057  2.3752 -0.7905  0.4798
 1323TIP3    H225529   6.698   0.727   8.082  0.2508  1.5700 -0.4522
 1324TIP3   OH225530   5.582   0.671   2.053  0.1237 -0.5315  0.1161
 1324TIP3    H125531   5.593   0.670   1.958  2.4848  0.4113  0.3289
 1324TIP3    H225532   5.610   0.759   2.079 -1.1365 -0.5352  1.6576
 1325TIP3   OH225533   1.258   0.590   7.848 -0.3431 -0.2034  0.0261
 1325TIP3    H125534   1.165   0.590   7.872 -0.2036 -0.2076  0.5701
 1325TIP3    H225535   1.304   0.594   7.931  0.1609 -1.2734 -0.1870
 1326TIP3   OH225536   0.873   5.725   0.833  0.3628 -0.5748  0.2675
 1326TIP3    H125537   0.909   5.693   0.915 -1.0582 -0.8178  0.8107
 1326TIP3    H225538   0.947   5.723   0.772  2.0356  1.7550  2.0796
 1327TIP3   OH225539   5.741   0.972   8.555  0.0169 -0.4508  0.1703
 1327TIP3    H125540   5.734   0.912   8.481 -0.6451  0.3741 -0.4608
 1327TIP3    H225541   5.748   1.059   8.515 -2.2962  0.2075  1.0455
 1328TIP3   OH225542   5.206   2.856   2.372 -0.7143 -0.4710  0.0891
 1328TIP3    H125543   5.111   2.855   2.380 -0.7130  1.8317  1.4686
 1328TIP3    H225544   5.222   2.856   2.277 -2.0983 -0.4188 -0.1674
 1329TIP3   OH225545   0.870   4.753   3.170 -0.4058  1.2072  0.2790
 1329TIP3    H125546   0.932   4.812   3.128  0.9087 -1.5126 -2.0349
 1329TIP3    H225547   0.784   4.787   3.145  0.2982  1.9521 -1.2756
 1330TIP3   OH225548   4.609   6.120   2.623 -0.6273 -0.0588  0.1167
 1330TIP3    H125549   4.590   6.213   2.605  2.6289  0.5968 -0.5117
 1330TIP3    H225550   4.616   6.115   2.718  2.1595  1.1245  0.0589
 1331TIP3   OH225551   6.640   5.725   1.659 -0.1928 -0.1868 -0.2808
 1331TIP3    H125552   6.559   5.739   1.609 -0.9338 -1.3266  0.5470
 1331TIP3    H225553   6.651   5.805   1.710 -0.2342  0.3836 -1.1383
 1332TIP3   OH225554   2.658   6.666   7.978 -0.4157  0.3099 -0.4207
 1332TIP3    H125555   2.671   6.760   7.968 -3.2438  0.6878 -1.3899
 1332TIP3    H225556   2.632   6.636   7.892  0.3539 -1.3840 -0.0973
 1333TIP3   OH225557   6.116   1.279   2.602 -0.4701 -0.0859  0.1410
 1333TIP3    H125558   6.068   1.292   2.684 -0.6672  0.2270 -0.0222
 1333TIP3    H225559   6.136   1.367   2.571 -0.3585 -0.2024 -0.1288
 1334TIP3   OH225560   1.526   2.932   8.541  0.0969 -0.0101 -0.6035
 1334TIP3    H125561   1.564   2.855   8.584  0.2660  0.5307  0.2470
 1334TIP3    H225562   1.601   2.977   8.503  0.2274  0.6611  0.4269
 1335TIP3   OH225563   2.595   4.923   1.800  0.0956 -0.3312  0.0646
 1335TIP3    H125564   2.647   5.002   1.814  0.4195 -0.7099  1.0780
 1335TIP3    H225565   2.562   4.900   1.886  1.2115 -2.1166  0.0675
 1336TIP3   OH225566   5.511   0.793   0.734 -0.2352  0.1891 -0.2123
 1336TIP3    H125567   5.587   0.736   0.722  0.6816  1.1280  0.9744
 1336TIP3    H225568   5.463   0.753   0.807 -0.0250  0.4809  0.0867
 1337TIP3   OH225569   3.107   2.082   2.470 -0.2118  0.0908 -0.1205
 1337TIP3    H125570   3.139   2.001   2.510 -0.4643 -0.8085 -1.6546
 1337TIP3    H225571   3.183   2.140   2.470 -0.1687  0.0823  1.4891
 1338TIP3   OH225572   6.526   6.496   1.351 -0.3503  0.4155 -0.0008
 1338TIP3    H125573   6.546   6.432   1.282  1.1401  0.5562  0.2746
 1338TIP3    H225574   6.433   6.515   1.339 -0.8877 -1.9101 -0.0027
 1339TIP3   OH225575   5.918   1.695   0.587  0.0335 -0.0878  0.4460
 1339TIP3    H125576   5.983   1.732   0.647  0.4579 -1.9847  1.2090
 1339TIP3    H225577   5.953   1.714   0.499  2.3616 -2.1675  0.8110
 1340TIP3   OH225578   5.583   2.820   1.922 -0.1284  0.2137 -0.4852
 1340TIP3    H125579   5.618   2.738   1.887  0.8700 -0.0857  1.0876
 1340TIP3    H225580   5.532   2.794   1.999 -0.5154  0.9998 -0.4660
 1341TIP3   OH225581   0.564   6.211   8.560 -0.1188  0.1673  0.1631
 1341TIP3    H125582   0.556   6.198   8.655  0.5147 -2.4025 -0.0600
 1341TIP3    H225583   0.490   6.162   8.523 -0.2426  0.9811 -0.7032
 1342TIP3   OH225584   4.444   5.286   8.109  0.1259  0.0925  0.2606
 1342TIP3    H125585   4.380   5.271   8.040  0.2156  0.2972  0.1310
 1342TIP3    H225586   4.422   5.222   8.177 -0.2880  0.2440  0.2690
 1343TIP3   OH225587   3.623   3.280   0.270 -0.0587  0.5005  0.6072
 1343TIP3    H125588   3.601   3.246   0.184  1.5732 -1.0798  0.7476
 1343TIP3    H225589   3.541   3.319   0.303 -0.6285  1.4151 -1.7292
 1344TIP3   OH225590   1.559   1.379   1.983  0.9173  0.2644  0.2757
 1344TIP3    H125591   1.554   1.321   2.058  0.6455  0.2771  0.2651
 1344TIP3    H225592   1.624   1.338   1.926 -0.2993 -0.8008 -0.3947
 1345TIP3   OH225593   2.161   3.309   2.110 -0.0418  0.0335 -0.4779
 1345TIP3    H125594   2.068   3.300   2.128  0.3788 -0.7407  1.6555
 1345TIP3    H225595   2.193   3.219   2.105  0.8946  0.2757  0.7705
 1346TIP3   OH225596   3.854   6.299   1.898 -0.2034  0.5539  0.6978
 1346TIP3    H125597   3.844   6.210   1.931 -1.4438 -0.0743 -1.2225
 1346TIP3    H225598   3.767   6.337   1.904 -0.0607  1.0352 -0.1499
 1347TIP3   OH225599   5.637   4.874   1.904  0.1700  0.2017  0.1242
 1347TIP3    H125600   5.601   4.856   1.817 -0.0119 -0.4796  0.3344
 1347TIP3    H225601   5.653   4.787   1.941  1.3164  0.4908  0.3343
 1348TIP3   OH225602   2.216   0.920   3.795  0.0800  0.0931  0.5990
 1348TIP3    H125603   2.305   0.886   3.782  1.4058  3.7813 -1.6196
 1348TIP3    H225604   2.163   0.871   3.733  0.8170 -1.2512  0.9853
 1349TIP3   OH225605   3.904   1.032   1.025 -0.6429  0.6672  0.8761
 1349TIP3    H125606   3.862   0.996   1.103  0.3984 -0.7520  0.8378
 1349TIP3    H225607   3.998   1.028   1.044 -0.4127  1.2887 -0.0429
 1350TIP3   OH225608   1.598   0.256   8.100  0.4390 -0.0392 -0.2401
 1350TIP3    H125609   1.618   0.163   8.086  2.9043  0.1094  1.5879
 1350TIP3    H225610   1.504   0.263   8.083 -0.1664 -3.1918  0.9926
 1351TIP3   OH225611   3.945   1.840   1.101 -0.2340  0.3392  0.3466
 1351TIP3    H125612   3.893   1.918   1.120  0.7616  0.8088  1.2379
 1351TIP3    H225613   3.911   1.808   1.017 -2.0550  0.5171  0.9686
 1352TIP3   OH225614   1.551   5.584   8.310 -0.0236 -0.0943  0.2699
 1352TIP3    H125615   1.628   5.635   8.286 -0.1992  0.1542  0.2282
 1352TIP3    H225616   1.586   5.508   8.357  0.3632 -0.8223 -1.1432
 1353TIP3   OH225617   2.342   5.624   0.155 -0.2947 -0.0504  0.2803
 1353TIP3    H125618   2.303   5.541   0.182 -1.6884  0.4864  0.0303
 1353TIP3    H225619   2.275   5.665   0.100  1.1765  0.3442 -1.3004
 1354TIP3   OH225620   3.270   1.037   8.285  0.0681  0.0225 -0.4260
 1354TIP3    H125621   3.248   1.008   8.374 -1.7990 -0.3657 -0.9753
 1354TIP3    H225622   3.362   1.064   8.291  0.2732 -0.8912  1.3947
 1355TIP3   OH225623   2.310   2.013   8.762 -0.1957 -0.3446  0.2308
 1355TIP3    H125624   2.367   2.015   8.839  1.0150 -0.4340 -0.6267
 1355TIP3    H225625   2.338   1.936   8.713  1.7096  1.6829 -2.1803
 1356TIP3   OH225626   2.986   1.862   8.185  0.1396 -0.0241 -0.2094
 1356TIP3    H125627   2.927   1.804   8.233 -0.8498  1.2021  0.1249
 1356TIP3    H225628   3.045   1.896   8.252  1.3986 -1.4069 -0.5783
 1357TIP3   OH225629   5.061   2.453   1.627 -0.1322  0.4494 -1.2953
 1357TIP3    H125630   5.003   2.514   1.674 -0.5085  0.6278 -1.9739
 1357TIP3    H225631   5.009   2.424   1.552  0.1929 -0.4013 -1.2020
 1358TIP3   OH225632   4.874   5.196   7.995 -0.1870 -0.3924  0.8489
 1358TIP3    H125633   4.795   5.218   7.946  1.0058 -0.2327 -1.0870
 1358TIP3    H225634   4.891   5.273   8.049 -0.5141  0.1651  0.1681
 1359TIP3   OH225635   2.432   0.300   2.398 -0.4355 -0.2842  0.1294
 1359TIP3    H125636   2.386   0.381   2.421  2.3464  0.8334  2.3771
 1359TIP3    H225637   2.524   0.320   2.412  0.7572 -2.7199 -3.0674
 1360TIP3   OH225638   4.460   1.305   3.132 -0.0419  0.3957  0.3229
 1360TIP3    H125639   4.525   1.258   3.184  0.2187 -2.7718 -2.5389
 1360TIP3    H225640   4.376   1.271   3.163  0.0086 -0.1010 -0.0858
 1361TIP3   OH225641   3.168   6.346   0.715  0.2751 -0.2809 -1.0272
 1361TIP3    H125642   3.178   6.345   0.810 -1.0035 -1.8838 -0.8547
 1361TIP3    H225643   3.248   6.306   0.682 -0.1182 -1.5958 -0.4671
 1362TIP3   OH225644   0.056   1.039   3.561 -0.0722  0.3781  0.3852
 1362TIP3    H125645   0.033   1.084   3.480  0.6336 -1.4430 -0.9114
 1362TIP3    H225646  -0.028   1.013   3.599 -0.4021 -0.2029 -0.6790
 1363TIP3   OH225647   6.155   4.029   8.202 -0.0530  0.4206 -0.4276
 1363TIP3    H125648   6.149   4.025   8.107  0.3474  1.1841 -0.4886
 1363TIP3    H225649   6.189   3.943   8.228  0.0362  0.2878 -0.9829
 1364TIP3   OH225650   4.841   4.647   1.614 -0.3348  0.3333 -0.1477
 1364TIP3    H125651   4.872   4.675   1.700 -0.3510 -0.1066  0.0045
 1364TIP3    H225652   4.812   4.556   1.627  0.6010 -0.0863 -0.8436
 1365TIP3   OH225653   2.910   5.939   2.697  0.0047  0.6432 -0.0906
 1365TIP3    H125654   3.004   5.929   2.716  0.1999  0.7617 -0.9484
 1365TIP3    H225655   2.867   5.878   2.757  0.7037 -0.2550 -0.4782
 1366TIP3   OH225656   2.963   2.152   0.534 -0.1848 -0.1983  0.3850
 1366TIP3    H125657   3.048   2.154   0.491  0.6060 -1.1220  1.8494
 1366TIP3    H225658   2.911   2.217   0.487  1.6564  1.1799  0.1687
 1367TIP3   OH225659   0.282   5.156   8.372 -0.0998 -0.7707 -0.0335
 1367TIP3    H125660   0.211   5.128   8.316 -1.2120 -0.3597  1.1155
 1367TIP3    H225661   0.282   5.093   8.444  1.0078 -1.0328 -0.2458
 1368TIP3   OH225662   1.424   3.201   2.426 -0.2242 -0.1361 -0.0601
 1368TIP3    H125663   1.515   3.227   2.412 -0.3431  0.6073  0.5033
 1368TIP3    H225664   1.373   3.279   2.404 -0.5908  0.1090  1.5942
 1369TIP3   OH225665   5.742   6.450   8.314 -0.4014 -0.4475 -0.2041
 1369TIP3    H125666   5.802   6.380   8.288 -1.2757 -1.3726  0.1975
 1369TIP3    H225667   5.754   6.519   8.248  0.2871 -1.0801 -0.7499
 1370TIP3   OH225668   2.021   0.987   0.604  0.0619  0.3962 -0.1201
 1370TIP3    H125669   1.960   1.051   0.641  0.0273 -0.3678  1.2507
 1370TIP3    H225670   2.105   1.007   0.645  0.2935  0.2440 -0.5158
 1371TIP3   OH225671   0.931   4.845   2.163 -0.0255  0.3652  1.0769
 1371TIP3    H125672   0.980   4.786   2.107 -1.3559 -0.3518  0.6173
 1371TIP3    H225673   0.876   4.788   2.216 -1.4277  1.1627  0.5411
 1372TIP3   OH225674   3.016   6.681   2.002  0.1619 -0.6918 -0.3435
 1372TIP3    H125675   2.981   6.622   1.936 -1.5132 -1.7440  1.3795
 1372TIP3    H225676   3.079   6.627   2.050  0.1062 -0.4654 -0.0177
 1373TIP3   OH225677   4.368   1.405   1.782 -0.1027  1.0396 -0.0432
 1373TIP3    H125678   4.365   1.413   1.687  0.6529 -0.9072 -0.2940
 1373TIP3    H225679   4.321   1.323   1.800  0.7515  0.7897  1.1470
 1374TIP3   OH225680   1.081   1.877   2.486 -0.3022  0.4712 -0.3758
 1374TIP3    H125681   1.018   1.808   2.503 -0.0826  0.5947  1.0580
 1374TIP3    H225682   1.037   1.958   2.513  0.4151  0.5683  0.5502
 1375TIP3   OH225683   1.964   5.390   0.340 -0.2544 -0.0820  0.3612
 1375TIP3    H125684   1.876   5.364   0.314  0.7412 -2.4319 -0.9705
 1375TIP3    H225685   1.983   5.336   0.417  1.2572 -2.4153 -1.5021
 1376TIP3   OH225686   3.989   3.977   8.313 -0.4561  0.1734  0.5609
 1376TIP3    H125687   3.895   3.990   8.319 -0.5217 -0.0329  0.0363
 1376TIP3    H225688   4.010   3.991   8.220 -0.2185 -1.3388  0.3666
 1377TIP3   OH225689   0.798   6.131   7.892 -0.1176  0.0221  0.2880
 1377TIP3    H125690   0.826   6.222   7.896 -1.9048  0.6166  0.0763
 1377TIP3    H225691   0.767   6.120   7.802  0.1758 -0.8290  0.2867
 1378TIP3   OH225692   4.072   3.082   7.583 -0.4894  0.0998  0.1411
 1378TIP3    H125693   4.015   3.004   7.581 -1.1120  0.5525  0.0320
 1378TIP3    H225694   4.153   3.053   7.543 -1.4211  0.0535 -1.8155
 1379TIP3   OH225695   4.601   6.623   8.640 -0.1428  0.1281  0.0509
 1379TIP3    H125696   4.621   6.568   8.564 -0.1369  1.0258 -0.6164
 1379TIP3    H225697   4.645   6.580   8.713 -0.7458 -1.1468 -0.3144
 1380TIP3   OH225698   2.815   0.827   8.833  0.0182  0.2022 -0.2184
 1380TIP3    H125699   2.868   0.889   8.883 -0.6377 -0.0936  0.8804
 1380TIP3    H225700   2.780   0.767   8.899 -0.9504 -0.1500 -1.0280
 1381TIP3   OH225701   3.584   0.821   1.156 -0.6218  0.2431 -0.1894
 1381TIP3    H125702   3.658   0.765   1.178 -1.2249 -0.7300 -0.5492
 1381TIP3    H225703   3.593   0.837   1.062  0.3335  1.9540  0.1720
 1382TIP3   OH225704   5.050   6.120   0.101  0.0360 -0.1426  0.8631
 1382TIP3    H125705   5.074   6.213   0.102  0.1052 -0.1591  0.8011
 1382TIP3    H225706   5.045   6.098   0.008  0.8334 -0.4080  0.8746
 1383TIP3   OH225707   0.366   6.414   8.184  0.4089 -0.3513  0.2579
 1383TIP3    H125708   0.440   6.364   8.150 -0.2857 -0.3588 -1.3453
 1383TIP3    H225709   0.289   6.362   8.160 -0.1583 -0.2062  1.6472
 1384TIP3   OH225710   0.826   6.388   1.564  0.6603  0.2310 -0.0433
 1384TIP3    H125711   0.838   6.441   1.485  1.1591 -1.6945 -1.3101
 1384TIP3    H225712   0.733   6.368   1.566  0.8000 -0.5469 -0.7331
 1385TIP3   OH225713   3.051   6.196   8.671  0.4392 -0.5561  0.3859
 1385TIP3    H125714   3.044   6.291   8.674 -1.3763 -0.6456  0.1413
 1385TIP3    H225715   3.007   6.166   8.750  3.4800 -1.1675  1.9892
 1386TIP3   OH225716   5.697   1.036   8.848  0.2719  0.0626 -0.3719
 1386TIP3    H125717   5.785   1.041   8.886  0.4990  1.6785 -0.9915
 1386TIP3    H225718   5.710   0.991   8.764  0.9334  2.0550 -1.4164
 1387TIP3   OH225719   5.189   0.505   0.517  0.1796 -0.3766  0.1042
 1387TIP3    H125720   5.284   0.511   0.524  0.1271 -0.0943  0.6582
 1387TIP3    H225721   5.168   0.542   0.431  0.4206  1.4117  0.7753
 1388TIP3   OH225722   5.759   4.883   8.536  0.4816  0.3276  0.5751
 1388TIP3    H125723   5.671   4.918   8.525  0.8065  1.2135  0.7474
 1388TIP3    H225724   5.766   4.815   8.468 -0.5011 -0.1055  0.8900
 1389TIP3   OH225725   5.734   0.189   8.770 -0.1828 -0.2114 -0.1620
 1389TIP3    H125726   5.806   0.194   8.707 -0.0477 -0.3742 -0.0195
 1389TIP3    H225727   5.655   0.197   8.716 -0.1281 -2.0953 -0.5843
 1390TIP3   OH225728   4.518   4.987   0.118  0.0794 -0.1032  0.2846
 1390TIP3    H125729   4.518   5.081   0.137 -0.5017 -0.0564  0.0677
 1390TIP3    H225730   4.430   4.958   0.142 -0.7671 -0.0196 -2.4145
 1391TIP3   OH225731   2.603   3.925   0.768  0.3354 -0.0557  0.1303
 1391TIP3    H125732   2.563   3.914   0.855  0.2188 -0.8860 -0.0238
 1391TIP3    H225733   2.697   3.918   0.784  0.2580 -1.9830 -0.0317
 1392TIP3   OH225734   3.120   2.735   2.418  0.3163  0.1080 -0.2126
 1392TIP3    H125735   3.127   2.830   2.403  1.0945  0.0085 -0.4612
 1392TIP3    H225736   3.064   2.704   2.347  0.8756  0.2254 -0.7045
 1393TIP3   OH225737   1.646   4.644   1.521 -0.6313 -0.2484 -0.3418
 1393TIP3    H125738   1.572   4.641   1.461 -1.2748  0.9210  0.3464
 1393TIP3    H225739   1.706   4.708   1.483 -0.9135  0.2902  0.0961
 1394TIP3   OH225740   5.563   6.566   2.652  0.2129  0.1002  0.1773
 1394TIP3    H125741   5.579   6.515   2.731 -0.9424 -0.9385 -0.2253
 1394TIP3    H225742   5.626   6.638   2.656  0.0392  0.1903  2.1367
 1395TIP3   OH225743   5.489   3.700   0.674  0.5753 -0.5321  0.4731
 1395TIP3    H125744   5.518   3.645   0.600  2.1248  0.4354  0.3166
 1395TIP3    H225745   5.395   3.709   0.661  0.4917 -2.0424 -0.2431
 1396TIP3   OH225746   4.520   1.256   1.060  0.2687 -0.3272  0.7150
 1396TIP3    H125747   4.589   1.317   1.034 -0.4018  0.1085 -0.1080
 1396TIP3    H225748   4.559   1.203   1.129  1.0378  0.6828  1.0815
 1397TIP3   OH225749   6.650   5.044   1.884 -0.5262  0.5681 -0.8822
 1397TIP3    H125750   6.739   5.047   1.848 -1.2365  3.5031 -2.7270
 1397TIP3    H225751   6.594   5.032   1.807 -1.7874 -1.3070  0.2602
 1398TIP3   OH225752   5.877   2.075   0.043  0.1700 -0.4215 -0.4782
 1398TIP3    H125753   5.876   1.980   0.056 -0.9206 -0.3617 -0.0155
 1398TIP3    H225754   5.854   2.111   0.129 -1.5596  0.1763 -1.1531
 1399TIP3   OH225755   1.416   5.539   8.830  0.5760  0.4069  0.1709
 1399TIP3    H125756   1.370   5.491   8.899 -0.0049 -1.6895 -1.5616
 1399TIP3    H225757   1.357   5.611   8.808 -0.7618 -0.7476 -0.2381
 1400TIP3   OH225758   3.271   4.918   0.966  0.0330 -0.0995 -0.0087
 1400TIP3    H125759   3.228   4.918   0.880  0.1886  0.7075 -0.0889
 1400TIP3    H225760   3.204   4.949   1.026  0.3773  0.7794 -0.0725
 1401TIP3   OH225761   6.365   0.076   1.179  0.0749 -0.3736 -0.1585
 1401TIP3    H125762   6.327   0.162   1.161 -0.3827 -0.4863  0.2606
 1401TIP3    H225763   6.295   0.027   1.222  0.3377 -0.9551 -0.3834
 1402TIP3   OH225764   6.205   4.323   7.378  0.2802  0.4640  0.1514
 1402TIP3    H125765   6.179   4.367   7.459  1.6676 -0.1033  0.9215
 1402TIP3    H225766   6.235   4.394   7.321 -1.5831  0.9808 -0.2690
 1403TIP3   OH225767   1.245   0.037   7.349  0.1609  0.4623 -0.0180
 1403TIP3    H125768   1.257   0.129   7.372  0.2321  1.3348 -3.1204
 1403TIP3    H225769   1.151   0.029   7.330  0.1515 -0.1283  0.2487
 1404TIP3   OH225770   3.528   5.507   7.934  0.0634 -0.0523  0.6728
 1404TIP3    H125771   3.484   5.578   7.981  1.0803  0.6913  0.5427
 1404TIP3    H225772   3.457   5.450   7.904 -0.6741  0.0913  2.0776
 1405TIP3   OH225773   0.986   3.845   0.223  0.2652 -0.5124  0.0120
 1405TIP3    H125774   1.020   3.926   0.187  0.0396  0.0965  1.1355
 1405TIP3    H225775   1.062   3.788   0.232  0.5078 -0.2308 -0.2588
 1406TIP3   OH225776   1.603   3.847   1.180 -0.4153  0.5505  0.1671
 1406TIP3    H125777   1.606   3.883   1.091 -2.4160  3.4697  1.1300
 1406TIP3    H225778   1.584   3.754   1.168 -3.7786  1.4040 -2.5054
 1407TIP3   OH225779   2.484   5.794   7.794 -0.3027  0.4165  0.7658
 1407TIP3    H125780   2.483   5.805   7.699 -1.8196 -4.1483  0.0551
 1407TIP3    H225781   2.406   5.841   7.824 -0.3946  1.0056 -0.3272
 1408TIP3   OH225782   5.582   0.138   2.355  0.2759 -0.2069 -0.1127
 1408TIP3    H125783   5.546   0.060   2.397  0.9246 -0.2945  0.3007
 1408TIP3    H225784   5.587   0.203   2.426  0.8874 -0.1860 -0.1698
 1409TIP3   OH225785   2.615   2.180   0.627 -0.8286  0.6969 -0.7049
 1409TIP3    H125786   2.599   2.274   0.637 -2.1112  0.3548  0.9731
 1409TIP3    H225787   2.539   2.147   0.579 -2.4598 -0.0164  2.1228
 1410TIP3   OH225788   5.850   4.465   8.824 -0.2583  0.5476 -0.1060
 1410TIP3    H125789   5.844   4.554   8.859 -0.5751  0.1087  1.0002
 1410TIP3    H225790   5.854   4.410   8.902 -1.1150 -0.4793 -0.7815
 1411TIP3   OH225791   4.957   1.696   0.426  0.1866 -0.4909 -0.2699
 1411TIP3    H125792   4.899   1.644   0.481 -1.0965  0.8131 -0.3274
 1411TIP3    H225793   5.042   1.693   0.471 -0.7840  0.4479  1.7431
 1412TIP3   OH225794   1.701   0.488   7.392 -0.5975  0.5229 -0.4758
 1412TIP3    H125795   1.677   0.494   7.485  0.5829  1.6598 -0.2102
 1412TIP3    H225796   1.632   0.537   7.347  0.1283  2.1467  0.0853
 1413TIP3   OH225797   1.588   5.357   3.336 -0.0191  0.1520 -0.0582
 1413TIP3    H125798   1.598   5.393   3.424  2.4381  1.0837 -0.6558
 1413TIP3    H225799   1.513   5.405   3.299 -0.6482  0.2299  1.2690
 1414TIP3   OH225800   1.019   4.650   0.838  0.8744  0.1698 -0.0731
 1414TIP3    H125801   0.938   4.687   0.805  0.0074 -1.8246 -0.3392
 1414TIP3    H225802   1.048   4.591   0.769  0.6280 -1.8181  1.4379
 1415TIP3   OH225803   0.030   6.476   1.312 -0.1364  0.2566 -0.4675
 1415TIP3    H125804   0.036   6.571   1.322 -1.0590  0.1726  1.4076
 1415TIP3    H225805  -0.051   6.462   1.263 -1.3975  0.4105  1.4661
 1416TIP3   OH225806   0.816   4.837   0.129  0.2600 -0.3933  0.7390
 1416TIP3    H125807   0.736   4.785   0.137  0.8780 -1.3368  0.9094
 1416TIP3    H225808   0.814   4.870   0.039 -0.5059 -0.0863  0.8635
 1417TIP3   OH225809   2.122   0.367   2.214 -0.0600  0.2410  0.4906
 1417TIP3    H125810   2.134   0.438   2.150  1.4032  0.5611  1.0854
 1417TIP3    H225811   2.070   0.407   2.284 -0.9685  0.1238 -0.0971
 1418TIP3   OH225812   0.351   0.700   1.622  0.1208 -0.0858 -0.0046
 1418TIP3    H125813   0.287   0.756   1.667  0.4694 -0.6643  1.2534
 1418TIP3    H225814   0.349   0.731   1.532  2.1675  3.7884  1.0395
 1419TIP3   OH225815   2.822   4.593   1.587 -0.2531 -0.6722 -0.3199
 1419TIP3    H125816   2.890   4.640   1.636 -1.1275  0.3166 -0.0301
 1419TIP3    H225817   2.815   4.508   1.632 -1.8080  0.5959  2.0571
 1420TIP3   OH225818   3.871   6.375   0.827  0.3589 -0.4437  0.0618
 1420TIP3    H125819   3.882   6.444   0.761 -0.0821 -0.5784 -0.1630
 1420TIP3    H225820   3.894   6.295   0.781  2.7029 -0.2797  0.8535
 1421TIP3   OH225821   2.903   3.095   2.794 -0.2252  0.0892 -0.0453
 1421TIP3    H125822   2.994   3.109   2.818 -0.3302  0.3492  0.2061
 1421TIP3    H225823   2.853   3.133   2.866 -0.5420  0.6395 -0.5535
 1422TIP3   OH225824   6.232   6.733   2.232 -0.2290 -0.5366 -0.5322
 1422TIP3    H125825   6.280   6.815   2.218 -1.5886  0.4156  0.1774
 1422TIP3    H225826   6.300   6.668   2.247  0.9933 -0.0147 -3.2575
 1423TIP3   OH225827   0.117   4.723   8.059 -0.0494  0.2614 -0.2440
 1423TIP3    H125828   0.120   4.628   8.067  0.1699  0.2321 -0.6595
 1423TIP3    H225829   0.195   4.746   8.008 -0.2563  0.6357 -0.4004
 1424TIP3   OH225830   6.335   5.411   8.663  0.3246 -0.2124 -0.3861
 1424TIP3    H125831   6.351   5.504   8.678  0.4603 -0.0271 -1.5207
 1424TIP3    H225832   6.279   5.409   8.585  0.9315 -1.0823 -0.8215
 1425TIP3   OH225833   5.472   0.379   1.166 -0.0628  0.4220  0.3193
 1425TIP3    H125834   5.481   0.294   1.208 -0.7124  0.6852  1.0134
 1425TIP3    H225835   5.470   0.359   1.072 -0.5861 -0.3701  0.4834
 1426TIP3   OH225836   6.471   3.025   0.777 -0.4050 -0.5524 -0.4367
 1426TIP3    H125837   6.537   3.092   0.795 -1.6752  0.0181  2.8437
 1426TIP3    H225838   6.414   3.065   0.712 -0.3379  1.0750  0.4447
 1427TIP3   OH225839   1.843   5.572   8.586 -0.6510  0.2628  0.1818
 1427TIP3    H125840   1.937   5.577   8.604 -0.8473 -1.3731  1.8339
 1427TIP3    H225841   1.838   5.549   8.493  0.5696  0.2432  0.1043
 1428TIP3   OH225842   0.944   2.501   1.683  0.2834  0.1334  0.1327
 1428TIP3    H125843   0.852   2.522   1.664  0.2888  1.1025  1.0923
 1428TIP3    H225844   0.939   2.434   1.752  0.3075 -0.2329 -0.2134
 1429TIP3   OH225845   0.366   2.485   8.700 -0.6966  0.3404  0.0309
 1429TIP3    H125846   0.433   2.495   8.768 -0.1121 -1.4571 -0.2100
 1429TIP3    H225847   0.416   2.476   8.619 -1.2879  0.1701 -0.3164
 1430TIP3   OH225848   1.041   0.746   8.758 -0.2914  0.1828  0.0630
 1430TIP3    H125849   1.016   0.763   8.668  0.3866 -1.3400 -0.4556
 1430TIP3    H225850   1.136   0.760   8.760 -0.3885  0.8431  0.7153
 1431TIP3   OH225851   1.371   4.210   8.862  0.0901 -0.2770  0.4130
 1431TIP3    H125852   1.421   4.182   8.785  1.3822 -0.3700  1.2493
 1431TIP3    H225853   1.325   4.289   8.834  1.0041  0.0238 -0.2806
 1432TIP3   OH225854   0.195   3.166   0.704  0.4245 -0.5311  0.5050
 1432TIP3    H125855   0.255   3.114   0.652  0.3796 -0.8604  0.7788
 1432TIP3    H225856   0.247   3.241   0.734  1.1208 -1.5503  1.9440
 1433TIP3   OH225857   2.354   6.077   1.591 -0.1264 -0.0864 -0.0049
 1433TIP3    H125858   2.443   6.044   1.604  1.1097  2.1985 -1.9448
 1433TIP3    H225859   2.344   6.147   1.655 -0.2991  0.0600 -0.1908
 1434TIP3   OH225860   6.269   2.399   2.065 -0.2683  0.0902 -0.2911
 1434TIP3    H125861   6.199   2.449   2.023 -0.9765  0.3669  1.1492
 1434TIP3    H225862   6.348   2.423   2.017 -1.0576  0.2505 -1.5535
 1435TIP3   OH225863   6.325   3.158   1.093  0.2128 -0.1913  0.7795
 1435TIP3    H125864   6.277   3.207   1.159  0.1228  0.7582  0.0357
 1435TIP3    H225865   6.314   3.066   1.118  1.1508  0.1734  2.7237
 1436TIP3   OH225866   4.911   1.455   2.707 -0.1589 -0.2613  0.2122
 1436TIP3    H125867   4.944   1.449   2.797 -0.0526 -0.5056  0.1556
 1436TIP3    H225868   4.834   1.511   2.714  1.4237  2.1012  0.0392
 1437TIP3   OH225869   3.824   6.493   8.368 -0.4756 -0.1403  0.5517
 1437TIP3    H125870   3.860   6.577   8.342 -0.2926 -0.5689 -0.6136
 1437TIP3    H225871   3.733   6.513   8.394 -0.5210  0.3616  0.0151
 1438TIP3   OH225872   6.750   2.001   8.085 -0.3883 -0.1924 -0.6615
 1438TIP3    H125873   6.823   2.038   8.037  0.2126 -0.7830 -0.2122
 1438TIP3    H225874   6.681   2.067   8.079 -0.1555 -0.0455 -1.8995
 1439TIP3   OH225875   5.287   4.922   0.875  0.1751  0.8686 -0.1861
 1439TIP3    H125876   5.376   4.895   0.898 -1.3746 -2.2792  3.0653
 1439TIP3    H225877   5.278   5.009   0.912  1.2265  0.2595  1.6301
 1440TIP3   OH225878   4.801   3.129   0.928 -0.4834  0.0881  0.6198
 1440TIP3    H125879   4.821   3.042   0.892 -1.0590 -0.3160  1.2403
 1440TIP3    H225880   4.835   3.126   1.017 -1.3609  0.1387  0.9736
 1441TIP3   OH225881   2.434   0.772   0.131 -0.6710 -0.3333 -0.1606
 1441TIP3    H125882   2.468   0.699   0.081  0.8302  0.9042 -1.0234
 1441TIP3    H225883   2.395   0.830   0.066 -0.2137  0.4918  0.2799
 1442TIP3   OH225884   3.091   5.530   7.064 -0.4528 -0.7030  0.1381
 1442TIP3    H125885   3.078   5.586   7.140 -0.0012  0.4612 -0.6102
 1442TIP3    H225886   3.181   5.550   7.035 -0.5422 -1.2747 -0.5648
 1443TIP3   OH225887   1.806   5.759   7.541 -0.3958 -0.0353  0.5939
 1443TIP3    H125888   1.750   5.762   7.619  0.2513  1.3804  1.0436
 1443TIP3    H225889   1.793   5.844   7.499  2.0249  0.6975  1.1958
 1444TIP3   OH225890   5.138   2.898   0.895 -0.2106  0.1338  0.6053
 1444TIP3    H125891   5.209   2.861   0.841 -0.2708  0.3251  0.3976
 1444TIP3    H225892   5.078   2.825   0.907 -1.3998  0.6749 -1.5667
 1445TIP3   OH225893   5.350   0.357   8.354 -0.3527  0.1004 -0.2329
 1445TIP3    H125894   5.342   0.398   8.440 -1.2620 -0.4907 -0.0188
 1445TIP3    H225895   5.444   0.358   8.336 -0.2139  0.8526  0.4515
 1446TIP3   OH225896   3.156   2.324   1.125  0.0270 -0.3371 -0.2357
 1446TIP3    H125897   3.074   2.373   1.114 -0.0304 -0.1560  0.9539
 1446TIP3    H225898   3.152   2.256   1.058 -0.8199  0.0376 -0.5776
 1447TIP3   OH225899   0.034   1.823   8.280  0.7609  0.1366 -0.0877
 1447TIP3    H125900   0.032   1.887   8.209 -0.3223 -0.7797 -0.9191
 1447TIP3    H225901  -0.045   1.842   8.331 -0.7809 -1.7841 -1.5586
 1448TIP3   OH225902   6.330   0.260   7.628  0.4460 -0.0613 -0.2574
 1448TIP3    H125903   6.359   0.305   7.707 -0.5845 -0.0231  0.1260
 1448TIP3    H225904   6.326   0.329   7.561 -0.1276  0.2237  0.0601
 1449TIP3   OH225905   2.326   2.827   1.499 -0.0066  0.6361 -0.2425
 1449TIP3    H125906   2.240   2.808   1.461  0.0777 -0.0677 -0.0848
 1449TIP3    H225907   2.308   2.889   1.570 -0.4259  0.2006  0.0304
 1450TIP3   OH225908   0.595   4.743   8.043 -0.0009 -0.0804 -0.1193
 1450TIP3    H125909   0.635   4.659   8.063 -1.3554 -0.2934  1.9297
 1450TIP3    H225910   0.643   4.806   8.098  0.5125  0.3892 -1.0831
 1451TIP3   OH225911   1.442   6.242   0.543  0.4613 -0.0716 -0.0993
 1451TIP3    H125912   1.435   6.247   0.448 -1.3940 -3.5880 -0.3237
 1451TIP3    H225913   1.520   6.189   0.559  0.1030 -0.5060  0.2504
 1452TIP3   OH225914   3.626   3.117   8.328  0.0620 -0.0466 -0.5412
 1452TIP3    H125915   3.650   3.056   8.258 -0.5086 -0.2982 -0.5249
 1452TIP3    H225916   3.556   3.073   8.375  0.0012  0.4009 -0.2039
 1453TIP3   OH225917   5.251   0.164   7.849 -0.0727  0.3910 -0.0472
 1453TIP3    H125918   5.272   0.224   7.777 -1.3592  0.1335 -0.6720
 1453TIP3    H225919   5.160   0.185   7.872 -0.2844 -0.7723  0.2591
 1454TIP3   OH225920   6.714   5.919   8.562  0.2193 -0.3890 -0.3128
 1454TIP3    H125921   6.666   5.836   8.567 -0.8913  0.1211 -1.5914
 1454TIP3    H225922   6.734   5.929   8.469  0.7485  0.5482 -0.1105
 1455TIP3   OH225923   3.079   3.572   3.414  0.8146  0.7498 -0.2523
 1455TIP3    H125924   3.095   3.480   3.393  0.1746  0.0008  2.2374
 1455TIP3    H225925   3.164   3.606   3.441  1.4243  1.4457 -2.7483
 1456TIP3   OH225926   6.460   5.210   1.010 -0.2064  0.3918 -0.5197
 1456TIP3    H125927   6.471   5.169   1.096  0.7682 -0.6203 -1.1055
 1456TIP3    H225928   6.539   5.187   0.961 -2.4490 -2.6110 -3.1201
 1457TIP3   OH225929   2.261   6.791   8.511  0.4045  0.1879  0.4670
 1457TIP3    H125930   2.250   6.721   8.576 -1.9821 -1.1064 -1.2027
 1457TIP3    H225931   2.318   6.754   8.445  0.4029  0.3986  0.3455
 1458TIP3   OH225932   6.750   3.444   0.832  0.3233  0.3797  0.2502
 1458TIP3    H125933   6.806   3.517   0.805  0.8402 -0.3329 -0.6824
 1458TIP3    H225934   6.722   3.404   0.750 -0.9136  0.2284  0.7256
 1459TIP3   OH225935   1.544   5.161   0.974 -0.3479  0.2043  0.4020
 1459TIP3    H125936   1.611   5.096   0.991  1.4249  1.9504  0.4979
 1459TIP3    H225937   1.464   5.125   1.012  0.8229 -1.3393  1.5029
 1460TIP3   OH225938   3.984   3.575   1.495 -0.6671  0.4287  0.3958
 1460TIP3    H125939   4.061   3.533   1.535  0.8791  0.4039 -2.3782
 1460TIP3    H225940   3.962   3.646   1.556 -0.1244 -1.1648  2.5820
 1461TIP3   OH225941   2.613   6.374   0.020  0.0130  0.0921 -0.1776
 1461TIP3    H125942   2.563   6.365   0.101 -1.2679  0.6923 -0.8695
 1461TIP3    H225943   2.567   6.317  -0.043  1.1056 -0.5258 -0.4403
 1462TIP3   OH225944   5.014   5.705   0.680  0.2963  0.1582 -0.3852
 1462TIP3    H125945   5.016   5.800   0.665  0.5561  0.0253 -1.2498
 1462TIP3    H225946   4.935   5.676   0.633 -0.3602  0.0750  0.7369
 1463TIP3   OH225947   4.190   1.259   0.724  0.1930  0.4716 -0.6457
 1463TIP3    H125948   4.257   1.192   0.739  0.6040  0.7680 -1.1105
 1463TIP3    H225949   4.200   1.282   0.632 -1.2154 -0.1796 -0.9855
 1464TIP3   OH225950   6.164   0.839   2.111  0.3166 -0.5263  0.3468
 1464TIP3    H125951   6.174   0.754   2.067 -2.7788 -1.1119  0.5665
 1464TIP3    H225952   6.097   0.885   2.060  0.1296  0.7573  1.6761
 1465TIP3   OH225953   0.184   6.436   0.669 -0.0237 -0.0081  0.3178
 1465TIP3    H125954   0.277   6.459   0.666 -0.0298 -0.0330 -0.5157
 1465TIP3    H225955   0.161   6.438   0.762  1.1812 -1.5295  0.6920
 1466TIP3   OH225956   5.909   4.329   0.171 -0.1963  0.2625  0.0886
 1466TIP3    H125957   5.844   4.260   0.183  0.1114 -0.3879 -1.6999
 1466TIP3    H225958   5.991   4.290   0.199  0.0130 -0.2077 -1.1170
 1467TIP3   OH225959   4.179   3.597   0.614  0.3425  0.3962 -0.1080
 1467TIP3    H125960   4.190   3.580   0.708 -0.1120 -0.5043 -0.2092
 1467TIP3    H225961   4.144   3.515   0.579 -1.5811  1.4125 -0.6993
 1468TIP3   OH225962   2.698   5.840   7.997  0.0949  0.8462  0.1502
 1468TIP3    H125963   2.761   5.908   7.972  0.0356 -0.0350 -2.7387
 1468TIP3    H225964   2.627   5.848   7.934  0.5239 -2.4231 -0.9712
 1469TIP3   OH225965   4.404   4.995   8.028  0.1857 -0.2079 -0.1469
 1469TIP3    H125966   4.479   5.053   8.013 -0.2843  0.9362  1.5378
 1469TIP3    H225967   4.328   5.050   8.010 -0.2507 -0.8260 -0.1870
 1470TIP3   OH225968   2.086   6.294   8.054  0.1841  0.2059 -0.8441
 1470TIP3    H125969   2.109   6.309   7.962  2.1262  0.4016 -0.3702
 1470TIP3    H225970   2.020   6.361   8.073  0.9251  1.2073 -1.6778
 1471TIP3   OH225971   4.634   4.037   2.694 -0.1169 -0.0674 -1.3246
 1471TIP3    H125972   4.622   4.010   2.785 -0.2840  0.3565 -1.2215
 1471TIP3    H225973   4.567   4.103   2.679 -1.0211 -1.1363 -2.1731
 1472TIP3   OH225974   5.100   3.494   2.639  0.0534 -0.1234  0.7360
 1472TIP3    H125975   5.023   3.452   2.601  0.2447  0.4743 -0.3619
 1472TIP3    H225976   5.077   3.509   2.730 -0.0430 -2.5625  1.1878
 1473TIP3   OH225977   4.635   1.335   0.330  0.0662 -0.5569 -0.1767
 1473TIP3    H125978   4.594   1.406   0.281 -0.1842  1.3484  2.5440
 1473TIP3    H225979   4.710   1.309   0.276 -0.6605  0.7908 -1.9326
 1474TIP3   OH225980   3.294   5.536   8.117  0.4446 -0.4891 -0.0304
 1474TIP3    H125981   3.217   5.563   8.067  0.3519 -0.5349  0.0871
 1474TIP3    H225982   3.291   5.591   8.195  1.1989  0.3643 -0.5911
 1475TIP3   OH225983   5.093   0.508   1.734 -0.0763  0.4191 -0.5615
 1475TIP3    H125984   5.074   0.419   1.703 -1.4917  1.0199 -1.5267
 1475TIP3    H225985   5.178   0.530   1.696  0.6529 -0.7646  0.3001
 1476TIP3   OH225986   3.907   2.676   1.192 -0.0250 -0.7770  0.0450
 1476TIP3    H125987   3.992   2.711   1.164 -1.1087  1.8511 -0.2651
 1476TIP3    H225988   3.861   2.655   1.111  0.5002 -2.8702  0.2203
 1477TIP3   OH225989   5.575   4.838   8.836 -0.1746 -0.0578  0.2820
 1477TIP3    H125990   5.597   4.882   8.754 -2.0727 -1.3204 -0.9734
 1477TIP3    H225991   5.533   4.906   8.889  1.8058  0.9806  0.6134
 1478TIP3   OH225992   2.708   5.597   1.370 -0.5927  0.6015  0.5582
 1478TIP3    H125993   2.777   5.634   1.426  0.0077  1.2104 -0.5574
 1478TIP3    H225994   2.641   5.665   1.368 -1.6366 -0.3083  2.2897
 1479TIP3   OH225995   5.571   5.607   2.508 -0.4095  0.3947 -0.0269
 1479TIP3    H125996   5.576   5.535   2.571 -1.3172  0.0631 -0.3163
 1479TIP3    H225997   5.497   5.660   2.538 -0.3552  0.6644 -0.3673
 1480TIP3   OH225998   2.828   1.563   8.442 -0.7032 -0.4420 -0.5400
 1480TIP3    H125999   2.757   1.498   8.444 -0.5422 -0.6117 -0.1596
 1480TIP3    H226000   2.829   1.595   8.352 -0.6781 -1.0857 -0.7728
 1481TIP3   OH226001   0.446   6.160   1.837 -0.2335  0.0941 -0.2453
 1481TIP3    H126002   0.497   6.084   1.810 -0.1095  0.5331 -1.2723
 1481TIP3    H226003   0.408   6.134   1.921  1.7184 -0.2204  0.5998
 1482TIP3   OH226004   6.499   0.701   7.853 -0.2705 -0.0034  0.5268
 1482TIP3    H126005   6.563   0.759   7.813 -0.6941  0.4783  0.5279
 1482TIP3    H226006   6.414   0.734   7.822 -0.5463 -0.2422  1.0067
 1483TIP3   OH226007   5.743   0.783   3.138 -0.1313  0.0372  0.2372
 1483TIP3    H126008   5.682   0.735   3.194 -0.1625 -0.0756  0.1073
 1483TIP3    H226009   5.762   0.722   3.066  1.5819 -0.6599  1.2395
 1484TIP3   OH226010   6.015   6.019   2.488 -0.6022  0.1280  0.3724
 1484TIP3    H126011   6.077   5.977   2.428 -0.1881 -0.3925  1.1527
 1484TIP3    H226012   5.943   6.048   2.431  0.4767  1.0274 -0.5974
 1485TIP3   OH226013   2.861   4.233   1.543 -0.1115 -0.8937 -0.3851
 1485TIP3    H126014   2.910   4.156   1.572  0.2053 -0.6346 -0.2336
 1485TIP3    H226015   2.917   4.274   1.477 -0.5157 -1.0847 -0.8568
 1486TIP3   OH226016   4.636   3.667   2.348 -0.4663 -0.2578  0.3238
 1486TIP3    H126017   4.650   3.728   2.421 -1.8384  0.1666  0.2670
 1486TIP3    H226018   4.594   3.591   2.388 -1.4742  0.0902 -0.0463
 1487TIP3   OH226019   6.060   2.697   7.695  0.3711  0.6239  0.0334
 1487TIP3    H126020   6.155   2.699   7.712  0.6712  1.3659 -1.5608
 1487TIP3    H226021   6.034   2.789   7.694  0.2303  0.6338 -2.3508
 1488TIP3   OH226022   4.317   2.728   0.740 -0.2746 -0.0726  0.0332
 1488TIP3    H126023   4.365   2.755   0.818 -1.1495 -2.1807  1.3647
 1488TIP3    H226024   4.276   2.809   0.709 -1.1579  0.5908  2.6637
 1489TIP3   OH226025   5.655   2.856   0.684 -0.7516 -0.8955 -0.0109
 1489TIP3    H126026   5.740   2.853   0.640 -0.5058 -1.3679  0.4920
 1489TIP3    H226027   5.657   2.938   0.734  0.4320 -2.0820  2.0082
 1490TIP3   OH226028   5.770   0.468   2.572 -0.1114 -0.2302 -0.1449
 1490TIP3    H126029   5.825   0.454   2.649 -0.6961 -1.0912  0.1188
 1490TIP3    H226030   5.689   0.421   2.591 -0.3140 -0.3339 -1.2303
 1491TIP3   OH226031   2.029   0.465   0.132 -0.3081  0.2302 -0.3235
 1491TIP3    H126032   2.070   0.472   0.218  0.3083  1.1241 -0.6745
 1491TIP3    H226033   1.969   0.540   0.128  0.3154  0.7101 -0.9966
 1492TIP3   OH226034   3.296   0.035   7.732  0.0469  0.6486 -0.2508
 1492TIP3    H126035   3.300  -0.028   7.804  0.4538  1.4721  0.4638
 1492TIP3    H226036   3.203   0.040   7.710  0.1119 -0.9923 -1.0546
 1493TIP3   OH226037   6.409   3.672   1.217 -0.5485  0.6322 -0.3304
 1493TIP3    H126038   6.446   3.750   1.259 -0.1990  0.0490  0.4717
 1493TIP3    H226039   6.339   3.644   1.277  0.0111 -0.2626 -0.0782
 1494TIP3   OH226040   4.950   6.095   1.276 -0.3394 -0.1121 -0.4322
 1494TIP3    H126041   5.002   6.025   1.238 -0.5127 -0.3450 -0.2420
 1494TIP3    H226042   4.986   6.107   1.364 -0.5255 -0.1863 -0.3460
 1495TIP3   OH226043   2.367   3.424   8.827  0.0011  0.2179 -0.1862
 1495TIP3    H126044   2.289   3.476   8.848 -1.3977 -2.0526  0.6277
 1495TIP3    H226045   2.373   3.427   8.731 -0.4808  1.2689 -0.1915
 1496TIP3   OH226046   5.300   3.706   1.015 -0.6027 -0.3633  0.3422
 1496TIP3    H126047   5.378   3.755   0.993 -1.2538  1.9855  2.6665
 1496TIP3    H226048   5.239   3.724   0.944 -1.3757  3.7989  1.7671
 1497TIP3   OH226049   2.611   3.030   0.066 -0.5419  0.7230 -0.3569
 1497TIP3    H126050   2.580   3.114   0.032 -0.6243  0.7923 -0.1102
 1497TIP3    H226051   2.639   3.049   0.156 -1.2152  0.3372 -0.0632
 1498TIP3   OH226052   2.871   0.322   8.413 -0.5079  0.4775 -0.2314
 1498TIP3    H126053   2.869   0.231   8.384 -0.6014  0.1474  0.7665
 1498TIP3    H226054   2.962   0.337   8.439 -0.6636  0.4186  0.3589
 1499TIP3   OH226055   2.711   1.258   3.317  0.0102  0.1558 -0.1903
 1499TIP3    H126056   2.684   1.225   3.403  1.5373  1.9456  1.0763
 1499TIP3    H226057   2.646   1.325   3.296 -0.3410 -0.2544 -0.4324
 1500TIP3   OH226058   0.133   0.754   2.377  0.0558 -0.4484 -0.0171
 1500TIP3    H126059   0.161   0.806   2.453 -0.4755 -2.4507  1.6659
 1500TIP3    H226060   0.198   0.684   2.371  0.1612 -0.2348 -1.5363
 1501TIP3   OH226061   3.751   0.726   0.566  0.2403  0.2178  0.3266
 1501TIP3    H126062   3.770   0.635   0.542  0.1785  0.5276 -0.9225
 1501TIP3    H226063   3.792   0.736   0.652  2.3800 -0.2947 -0.5626
 1502TIP3   OH226064   2.727   5.947   2.223 -0.3948 -0.1593  0.3084
 1502TIP3    H126065   2.701   6.024   2.273  2.0075  1.2550 -0.4187
 1502TIP3    H226066   2.772   5.891   2.286  1.3475  0.9488  0.1282
 1503TIP3   OH226067   4.118   6.648   0.662  0.1465  0.4309  0.1667
 1503TIP3    H126068   4.192   6.606   0.618 -0.3928  0.2295 -0.5597
 1503TIP3    H226069   4.048   6.648   0.597 -0.3411  1.0681  0.6824
 1504TIP3   OH226070   5.498   1.702   8.801  0.4193 -0.2826  0.1221
 1504TIP3    H126071   5.496   1.702   8.897 -1.9306 -0.0303  0.1157
 1504TIP3    H226072   5.468   1.614   8.777 -0.8943  0.2741 -0.3560
 1505TIP3   OH226073   1.540   1.195   2.162 -0.3700  0.0906 -0.3990
 1505TIP3    H126074   1.468   1.140   2.194 -0.2665 -0.7120 -1.4872
 1505TIP3    H226075   1.608   1.186   2.229 -0.9414  0.1538  0.2038
 1506TIP3   OH226076   6.507   6.351   0.576  0.0707 -0.2588 -0.5282
 1506TIP3    H126077   6.554   6.428   0.609 -0.5884 -0.1987  0.3219
 1506TIP3    H226078   6.525   6.283   0.641  0.5428 -0.7948 -1.2075
 1507TIP3   OH226079   5.560   4.393   1.835  0.7187  0.4378 -0.0172
 1507TIP3    H126080   5.488   4.337   1.806  1.6708 -0.2536 -1.1691
 1507TIP3    H226081   5.520   4.479   1.846 -0.3816 -0.0281 -0.1624
 1508TIP3   OH226082   3.555   5.071   0.671  0.5168 -0.3700  0.3246
 1508TIP3    H126083   3.588   4.982   0.676  0.1639 -0.8639 -3.6124
 1508TIP3    H226084   3.625   5.121   0.629  0.0056  0.8201  0.8282
 1509TIP3   OH226085   3.998   4.525   8.230  0.2713 -0.3459  0.1113
 1509TIP3    H126086   3.931   4.515   8.298 -0.9878 -0.1625 -1.0524
 1509TIP3    H226087   4.054   4.596   8.262  0.7235 -1.3804  1.7214
 1510TIP3   OH226088   3.714   0.861   1.712  0.1012  0.2090  0.7809
 1510TIP3    H126089   3.744   0.930   1.771  1.0206  0.0807  0.4740
 1510TIP3    H226090   3.619   0.873   1.708  0.3259  2.2245 -0.1885
 1511TIP3   OH226091   6.313   5.410   0.872  0.1200 -0.1212  1.2408
 1511TIP3    H126092   6.226   5.408   0.911 -0.2589 -0.0915  0.4102
 1511TIP3    H226093   6.352   5.326   0.896 -0.6824 -0.7526  0.4104
 1512TIP3   OH226094   4.935   4.530   1.182  0.1121  0.1578 -0.2505
 1512TIP3    H126095   5.004   4.469   1.210  1.2932  1.9593  0.9708
 1512TIP3    H226096   4.973   4.575   1.106  0.0059  0.6492 -0.0142
 1513TIP3   OH226097   5.899   5.413   2.256 -0.1740  0.2819 -0.4973
 1513TIP3    H126098   5.861   5.397   2.169  0.1784  0.0636 -0.6098
 1513TIP3    H226099   5.948   5.495   2.245  0.6897 -0.2673 -0.7640
 1514TIP3   OH226100   6.561   5.305   2.492  0.6810  0.3564  0.1732
 1514TIP3    H126101   6.642   5.347   2.521  1.3599  0.6820 -2.0501
 1514TIP3    H226102   6.559   5.222   2.539  2.1413  0.4842  0.5156
 1515TIP3   OH226103   4.430   2.870   7.273 -0.5728  0.2673 -0.8344
 1515TIP3    H126104   4.360   2.821   7.316  0.7311 -1.9166 -1.0214
 1515TIP3    H226105   4.450   2.819   7.194  0.1415  1.7202 -1.6310
 1516TIP3   OH226106   3.873   4.835   2.565 -0.8094 -0.2225  0.2371
 1516TIP3    H126107   3.795   4.805   2.613 -0.5986 -0.9613  0.1367
 1516TIP3    H226108   3.930   4.758   2.562  0.1080  0.4275  0.6597
 1517TIP3   OH226109   0.992   2.393   8.787 -0.3248  0.0031 -0.2057
 1517TIP3    H126110   1.012   2.381   8.879  0.9776  0.0701 -0.4581
 1517TIP3    H226111   1.022   2.481   8.767  1.0125 -0.6229 -1.0800
 1518TIP3   OH226112   2.376   2.397   0.026 -0.2729  0.2734 -0.5525
 1518TIP3    H126113   2.461   2.352   0.025 -0.6999 -0.5429 -1.2727
 1518TIP3    H226114   2.376   2.447   0.107  0.7013 -0.1034 -0.3119
 1519TIP3   OH226115   2.680   1.784   1.928  0.2811  0.2653 -0.2496
 1519TIP3    H126116   2.604   1.836   1.955  0.3419  0.5997 -0.7051
 1519TIP3    H226117   2.672   1.702   1.977 -0.0725  0.5183  0.1229
 1520TIP3   OH226118   0.379   1.335   1.958  0.1069  0.2381 -0.2225
 1520TIP3    H126119   0.301   1.351   1.906 -0.0520 -1.8454 -0.6952
 1520TIP3    H226120   0.425   1.419   1.958 -1.2724  1.0353 -1.3672
 1521TIP3   OH226121   6.779   0.368   2.586  0.6733 -0.0115  0.5204
 1521TIP3    H126122   6.790   0.307   2.513 -0.8502  0.3459 -0.0308
 1521TIP3    H226123   6.852   0.347   2.645  0.5000 -1.9962  0.0921
 1522TIP3   OH226124   3.844   1.055   7.207  0.3918  0.8466 -0.5846
 1522TIP3    H126125   3.831   0.969   7.167 -3.7360  0.5575  0.8500
 1522TIP3    H226126   3.825   1.118   7.138  0.9200  0.5478 -1.0031
 1523TIP3   OH226127   5.764   3.372   0.293  0.5978  0.0969  0.4774
 1523TIP3    H126128   5.841   3.316   0.284  0.7211  0.3479 -0.0412
 1523TIP3    H226129   5.690   3.312   0.302  0.7461 -0.1476  0.0654
 1524TIP3   OH226130   3.568   0.146   8.701 -0.4452 -0.2119  0.3599
 1524TIP3    H126131   3.644   0.200   8.678 -1.3587  0.7756 -0.4947
 1524TIP3    H226132   3.530   0.189   8.777 -1.2723  0.5001 -0.4236
 1525TIP3   OH226133   1.244   5.721   8.717  0.4254  0.0103 -0.0396
 1525TIP3    H126134   1.275   5.798   8.766  0.3595  0.7458 -1.1293
 1525TIP3    H226135   1.267   5.739   8.626 -1.2501 -0.4153 -0.5790
 1526TIP3   OH226136   6.040   4.022   2.391  0.1118  0.0380 -0.3679
 1526TIP3    H126137   6.068   3.941   2.434  0.1956 -0.1363 -0.7422
 1526TIP3    H226138   6.091   4.091   2.433  0.9493 -0.2493 -0.8904
 1527TIP3   OH226139   0.785   2.954   0.998 -0.0216  0.4043  0.1436
 1527TIP3    H126140   0.828   2.992   1.074  0.7930  0.7836 -0.4871
 1527TIP3    H226141   0.829   2.870   0.985 -0.5394  0.0802  0.4067
 1528TIP3   OH226142   2.323   2.471   2.554 -0.3523 -0.2585 -0.6478
 1528TIP3    H126143   2.299   2.448   2.644 -2.2096 -0.7283 -1.2286
 1528TIP3    H226144   2.415   2.498   2.560  0.2233 -2.3012  1.0484
 1529TIP3   OH226145   0.237   4.641   2.078  0.6499 -0.2457 -0.1706
 1529TIP3    H126146   0.333   4.637   2.084  0.6514  0.9366  0.8889
 1529TIP3    H226147   0.207   4.570   2.135  0.8652 -1.9067 -1.9957
 1530TIP3   OH226148   1.763   5.884   1.928 -0.3971 -0.6825 -0.5900
 1530TIP3    H126149   1.803   5.814   1.980  1.1364  1.3815  1.2187
 1530TIP3    H226150   1.816   5.887   1.848  2.4457  1.0868  1.1670
 1531TIP3   OH226151   1.317   4.720   0.873  0.3515 -0.9457  0.4129
 1531TIP3    H126152   1.289   4.683   0.789 -0.0085 -0.9787  0.5457
 1531TIP3    H226153   1.302   4.650   0.936 -0.6555 -0.4694  0.7202
 1532TIP3   OH226154   0.811   4.801   1.840 -0.0560  0.3410  0.1180
 1532TIP3    H126155   0.752   4.745   1.891 -0.4976  2.2304  1.8145
 1532TIP3    H226156   0.770   4.807   1.754  0.4678 -2.5652 -0.4617
 1533TIP3   OH226157   5.584   3.482   2.227  0.0419  0.2486 -0.6608
 1533TIP3    H126158   5.650   3.481   2.297 -2.3025  2.8540  1.8150
 1533TIP3    H226159   5.602   3.562   2.178 -2.3844  2.2078  1.4025
 1534TIP3   OH226160   2.323   5.243   0.954 -0.4128 -0.1571  0.0364
 1534TIP3    H126161   2.327   5.169   1.015 -1.3977 -1.1783 -1.0721
 1534TIP3    H226162   2.234   5.278   0.964  0.0884  0.9968  0.6461
 1535TIP3   OH226163   2.821   0.632   0.640  0.2599  0.7199  0.1386
 1535TIP3    H126164   2.745   0.611   0.586 -0.7874  0.6783  1.5378
 1535TIP3    H226165   2.840   0.724   0.620  0.2167  0.5552 -0.6639
 1536TIP3   OH226166   4.002   5.806   1.332  0.2023 -0.0686  0.3515
 1536TIP3    H126167   3.970   5.860   1.260  1.7500 -1.0228 -1.1212
 1536TIP3    H226168   4.061   5.863   1.380  0.6565  0.0131 -0.2935
 1537TIP3   OH226169   6.222   4.831   2.040 -0.4754 -0.0067 -0.4432
 1537TIP3    H126170   6.192   4.857   2.127 -2.1031  1.7587 -1.4690
 1537TIP3    H226171   6.145   4.793   1.999  0.4848 -1.5835 -0.9063
 1538TIP3   OH226172   2.056   5.126   1.797  0.3182  0.0238  0.6095
 1538TIP3    H126173   2.044   5.109   1.704 -1.2532  0.1077  0.7621
 1538TIP3    H226174   2.137   5.176   1.802 -0.2160  1.1384 -0.8704
 1539TIP3   OH226175   0.974   2.757   0.984 -0.1110 -0.2233  0.1929
 1539TIP3    H126176   0.940   2.681   1.030 -4.1094  1.6679  0.8093
 1539TIP3    H226177   1.014   2.722   0.904  0.8414 -3.0789  1.8178
 1540TIP3   OH226178   5.126   5.086   7.932  0.1693 -0.2005  0.1320
 1540TIP3    H126179   5.031   5.098   7.941  0.1207 -1.3335  1.5058
 1540TIP3    H226180   5.164   5.169   7.960 -0.4014  0.2948 -0.5180
 1541TIP3   OH226181   4.879   4.439   2.137  0.5315  0.1833  0.0220
 1541TIP3    H126182   4.829   4.513   2.103  0.9656  0.4866  0.0347
 1541TIP3    H226183   4.873   4.447   2.232  0.0953 -0.1315  0.0226
 1542TIP3   OH226184   6.195   4.162   0.516  0.4116  0.0619  0.0727
 1542TIP3    H126185   6.148   4.181   0.435  0.4356 -0.4495 -0.0633
 1542TIP3    H226186   6.137   4.195   0.585  0.7615  1.2488 -0.1734
 1543TIP3   OH226187   4.052   2.516   0.012  0.2663 -0.0331 -0.2393
 1543TIP3    H126188   4.117   2.446   0.022  1.7911  1.1058 -1.5460
 1543TIP3    H226189   4.090   2.590   0.060 -0.3251  0.4913 -0.5697
 1544TIP3   OH226190   1.753   0.302   0.977  0.0264  0.0356 -0.3066
 1544TIP3    H126191   1.820   0.370   0.982  0.6120 -0.3520 -2.3358
 1544TIP3    H226192   1.672   0.347   1.002  0.5851  1.1990 -0.5372
 1545TIP3   OH226193   0.494   4.396   0.153  0.0559  0.3411  0.2113
 1545TIP3    H126194   0.430   4.401   0.224 -0.9974 -0.3502 -0.6517
 1545TIP3    H226195   0.572   4.438   0.188  0.5624 -2.4503  2.8080
 1546TIP3   OH226196   1.514   2.823   8.250  0.0284 -0.5113 -0.6729
 1546TIP3    H126197   1.509   2.760   8.178  0.7513 -0.0636 -1.1425
 1546TIP3    H226198   1.432   2.812   8.298  1.0965 -3.4669  0.7018
 1547TIP3   OH226199   4.770   2.650   3.521 -0.0606 -0.2381 -0.3043
 1547TIP3    H126200   4.854   2.643   3.567 -0.0305  1.1849 -0.0785
 1547TIP3    H226201   4.780   2.727   3.465 -0.7730 -0.8301 -1.2580
 1548TIP3   OH226202   4.339   5.253   1.955  0.0140  0.3466  0.3713
 1548TIP3    H126203   4.293   5.211   2.028 -0.4922  1.6984  0.8577
 1548TIP3    H226204   4.431   5.242   1.975 -0.0790 -1.0255  0.1800
 1549TIP3   OH226205   0.373   3.342   8.460 -0.0753  0.0686 -0.4225
 1549TIP3    H126206   0.332   3.301   8.384  0.3074  1.0014 -1.1512
 1549TIP3    H226207   0.405   3.269   8.513 -0.6120 -0.5946 -0.9988
 1550TIP3   OH226208   0.736   1.510   8.706  0.1232  0.0648  0.2911
 1550TIP3    H126209   0.734   1.485   8.798 -0.1816  0.2631  0.3419
 1550TIP3    H226210   0.644   1.512   8.680 -0.1814  3.6132  0.9999
 1551TIP3   OH226211   6.018   5.242   8.539  0.7245  0.1547  0.0905
 1551TIP3    H126212   6.038   5.155   8.574 -0.3008 -0.0761  0.1351
 1551TIP3    H226213   5.959   5.281   8.605 -1.1309 -0.2301 -1.2511
 1552TIP3   OH226214   0.871   6.589   2.457  0.2606  0.4089 -0.2491
 1552TIP3    H126215   0.823   6.574   2.539  0.3417  0.1728 -0.2434
 1552TIP3    H226216   0.804   6.598   2.390  0.2098 -0.1209 -0.2750
 1553TIP3   OH226217   2.248   4.175   8.519 -0.4330  0.6511 -0.2325
 1553TIP3    H126218   2.328   4.134   8.552  0.4608  2.5524  0.0478
 1553TIP3    H226219   2.189   4.101   8.503  1.3389 -0.8045 -0.4167
 1554TIP3   OH226220   6.241   5.932   7.215  0.3724  0.0041 -0.1599
 1554TIP3    H126221   6.327   5.955   7.249  0.8761 -2.4054  0.3759
 1554TIP3    H226222   6.253   5.927   7.120  0.7985 -0.2243 -0.0946
 1555TIP3   OH226223   0.286   4.177   2.534  0.1156 -0.2618 -0.1174
 1555TIP3    H126224   0.270   4.258   2.486 -1.3835  0.9349  2.2177
 1555TIP3    H226225   0.336   4.123   2.473  2.0350  2.7417 -1.4700
 1556TIP3   OH226226   2.161   2.397   8.713 -0.3219  0.4204 -0.2024
 1556TIP3    H126227   2.138   2.305   8.726 -1.0795  0.5399 -0.6738
 1556TIP3    H226228   2.241   2.409   8.765  1.1623 -1.1200 -1.9858
 1557TIP3   OH226229   0.013   4.453   1.544 -0.2720  0.3628 -0.1616
 1557TIP3    H126230   0.042   4.484   1.459  1.0250  2.5286  0.9825
 1557TIP3    H226231   0.089   4.465   1.601 -1.4599  0.0726  1.5704
 1558TIP3   OH226232   2.070   5.804   7.444  0.2760  0.3040 -0.2764
 1558TIP3    H126233   2.018   5.751   7.504  0.0685 -0.0350 -0.7538
 1558TIP3    H226234   2.134   5.743   7.407 -0.1964  0.2997 -1.1014
 1559TIP3   OH226235   3.554   4.562   8.591  0.8983 -0.5848 -0.3884
 1559TIP3    H126236   3.597   4.497   8.646 -1.7646  0.1960  2.9164
 1559TIP3    H226237   3.607   4.641   8.601  0.1338 -0.2851  1.6949
 1560TIP3   OH226238   1.000   2.931   7.433 -0.0361  0.1016 -0.2229
 1560TIP3    H126239   0.999   3.025   7.452 -1.6494  0.2267 -0.7642
 1560TIP3    H226240   1.092   2.905   7.443  0.1834  1.3728  1.6394
 1561TIP3   OH226241   4.833   0.618   2.297  0.3092  0.1711 -0.0842
 1561TIP3    H126242   4.840   0.601   2.391  0.8111  0.2948 -0.0993
 1561TIP3    H226243   4.922   0.635   2.268  0.2164 -0.2670 -0.6616
 1562TIP3   OH226244   6.328   2.082   1.270 -0.1502 -0.1040  0.4180
 1562TIP3    H126245   6.334   1.988   1.291  1.3490  0.1636  1.3329
 1562TIP3    H226246   6.245   2.091   1.224 -0.6143 -1.7876  0.8589
 1563TIP3   OH226247   5.202   0.817   1.273  0.0971 -0.6278  0.6654
 1563TIP3    H126248   5.214   0.857   1.359 -0.0538  1.9998 -0.4470
 1563TIP3    H226249   5.117   0.773   1.279 -0.2585  0.1432  1.6460
 1564TIP3   OH226250   6.192   3.291   1.323 -0.1039  0.3037  0.4192
 1564TIP3    H126251   6.133   3.216   1.318  0.4434 -0.1472  0.5491
 1564TIP3    H226252   6.200   3.309   1.417  0.3645  0.0337  0.4340
 1565TIP3   OH226253   0.008   3.240   3.265  0.0940  0.2140  0.0278
 1565TIP3    H126254   0.067   3.282   3.328  2.0083  0.7186 -1.9926
 1565TIP3    H226255  -0.014   3.156   3.306 -0.3473  1.3094  2.2079
 1566TIP3   OH226256   3.507   6.129   8.276 -0.1470 -0.0628  0.1863
 1566TIP3    H126257   3.476   6.132   8.185  0.0946  1.2351  0.1200
 1566TIP3    H226258   3.448   6.067   8.319 -0.6011 -0.2992 -0.7338
 1567TIP3   OH226259   3.199   2.634   1.276  0.5379  0.2108  0.0977
 1567TIP3    H126260   3.164   2.723   1.279  1.7574  0.7053  0.2762
 1567TIP3    H226261   3.130   2.582   1.236 -0.7194  0.9823  1.1822
 1568TIP3   OH226262   4.596   4.186   8.673 -0.2593  0.0913 -0.2177
 1568TIP3    H126263   4.606   4.193   8.768  0.2599 -0.1139 -0.2543
 1568TIP3    H226264   4.607   4.093   8.655  0.6751  0.2697 -0.5907
 1569TIP3   OH226265   6.259   3.025   1.848  0.6166  0.2812  0.0182
 1569TIP3    H126266   6.316   3.087   1.893 -0.1648  0.4210  0.8456
 1569TIP3    H226267   6.183   3.076   1.823  1.1574  0.2783 -1.7806
 1570TIP3   OH226268   1.653   4.399   0.225 -0.1791  0.5614 -0.2703
 1570TIP3    H126269   1.696   4.449   0.156 -1.0279  0.5338 -0.8399
 1570TIP3    H226270   1.590   4.344   0.178 -0.7177  0.4881  0.5268
 1571TIP3   OH226271   3.128   4.288   0.788 -0.1647  0.1702  0.3990
 1571TIP3    H126272   3.107   4.232   0.713  1.5153 -2.2262  1.6114
 1571TIP3    H226273   3.219   4.314   0.774  0.2585 -0.5239  1.7059
 1572TIP3   OH226274   6.186   3.834   1.895 -0.0331  0.1557 -0.1072
 1572TIP3    H126275   6.263   3.795   1.936 -0.8016 -1.2793  0.0341
 1572TIP3    H226276   6.196   3.814   1.802 -2.1562 -3.7723  0.2987
 1573TIP3   OH226277   1.449   0.087   0.382 -0.3467  0.3993  0.1797
 1573TIP3    H126278   1.441   0.015   0.445 -0.4002 -0.7312 -1.0983
 1573TIP3    H226279   1.458   0.045   0.297  2.3961  1.8434 -0.3537
 1574TIP3   OH226280   0.112   1.079   7.980 -0.5904  0.3567  0.0691
 1574TIP3    H126281   0.137   1.031   7.901 -0.9830 -0.5219  0.4639
 1574TIP3    H226282   0.048   1.143   7.951  0.6506  1.3084 -0.6290
 1575TIP3   OH226283   2.768   4.460   1.144  0.2767 -0.1021 -0.4893
 1575TIP3    H126284   2.778   4.372   1.109 -0.8175 -0.4787  0.0673
 1575TIP3    H226285   2.744   4.513   1.069 -0.8547 -0.6608 -0.5548
 1576TIP3   OH226286   6.628   6.105   7.478  0.2266  0.0721 -0.0300
 1576TIP3    H126287   6.712   6.064   7.458  0.3582 -0.4321  1.3946
 1576TIP3    H226288   6.650   6.175   7.540 -0.3907 -0.0174  0.2954
 1577TIP3   OH226289   0.101   5.641   3.191 -0.0157  0.8262 -0.1000
 1577TIP3    H126290   0.160   5.709   3.157  0.8782 -0.1954 -0.6543
 1577TIP3    H226291   0.030   5.690   3.232  0.1429  2.0990 -1.2630
 1578TIP3   OH226292   5.215   3.397   0.886  0.5541  0.8884  0.6278
 1578TIP3    H126293   5.161   3.331   0.843  0.7534  1.1102  0.0265
 1578TIP3    H226294   5.281   3.346   0.933 -0.3846  0.6007  1.6856
 1579TIP3   OH226295   5.987   5.128   0.116 -0.4289  0.0541 -0.1892
 1579TIP3    H126296   5.972   5.185   0.041 -1.2584  1.9663  1.3294
 1579TIP3    H226297   6.080   5.107   0.113  0.1298  2.3111 -0.3111
 1580TIP3   OH226298   1.276   3.054   2.933  1.1907  0.6926 -0.6175
 1580TIP3    H126299   1.217   3.067   3.007  2.0397  0.6355  0.0885
 1580TIP3    H226300   1.223   3.011   2.867  0.9297 -1.1874  0.7425
 1581TIP3   OH226301   2.485   5.836   0.245  0.2679  0.0507  0.1155
 1581TIP3    H126302   2.571   5.827   0.204  0.0047  2.0873 -0.9892
 1581TIP3    H226303   2.435   5.762   0.210  1.0268 -0.1235 -0.6587
 1582TIP3   OH226304   5.394   6.720   2.148  0.1988 -0.5761 -0.4918
 1582TIP3    H126305   5.299   6.710   2.155  0.0352  0.5824 -0.8289
 1582TIP3    H226306   5.421   6.752   2.233  0.5003 -2.2282  0.0662
 1583TIP3   OH226307   0.146   3.850   3.510 -0.2247  0.2029  0.6513
 1583TIP3    H126308   0.118   3.876   3.598 -1.0650 -1.8525  1.0545
 1583TIP3    H226309   0.106   3.914   3.452  0.9774  2.0700  1.7666
 1584TIP3   OH226310   6.042   1.797   1.231 -0.0562  0.0879 -0.4018
 1584TIP3    H126311   6.100   1.744   1.287 -1.9638  0.4759  2.1307
 1584TIP3    H226312   6.010   1.735   1.166  1.8813 -0.5191 -0.8404
 1585TIP3   OH226313   3.650   6.064   0.696  0.6183 -0.0983  0.3420
 1585TIP3    H126314   3.645   6.108   0.781  0.5934  0.5970 -0.0123
 1585TIP3    H226315   3.608   5.979   0.710 -1.1883  0.7643  0.5469
 1586TIP3   OH226316   4.806   1.334   1.250  0.1292  0.2576 -0.0269
 1586TIP3    H126317   4.901   1.326   1.261  0.0174 -3.8682 -0.4455
 1586TIP3    H226318   4.793   1.333   1.155 -0.3787  0.1583  0.0424
 1587TIP3   OH226319   3.875   0.499   0.496 -0.0256  0.2892  0.7701
 1587TIP3    H126320   3.932   0.429   0.529  0.1830  0.2536  0.3324
 1587TIP3    H226321   3.877   0.490   0.401 -0.0017  0.8870  0.7095
 1588TIP3   OH226322   3.137   0.399   8.473 -0.6129 -0.0809  0.6167
 1588TIP3    H126323   3.226   0.386   8.439 -1.2043 -3.3315 -0.0350
 1588TIP3    H226324   3.150   0.435   8.561  1.2930  0.3230  0.2062
 1589TIP3   OH226325   1.688   6.632   8.517 -0.6056  0.2076  0.4700
 1589TIP3    H126326   1.668   6.636   8.610 -1.2729  0.9571  0.2983
 1589TIP3    H226327   1.625   6.569   8.481  1.5270 -2.4355  0.9721
 1590TIP3   OH226328   4.137   1.571   0.470 -0.1850 -0.2443  0.3669
 1590TIP3    H126329   4.220   1.574   0.519  2.3269  1.1013 -3.4905
 1590TIP3    H226330   4.125   1.478   0.450  0.7948 -0.4001  0.4282
 1591TIP3   OH226331   4.436   6.339   0.807 -0.4341 -0.4431 -0.5535
 1591TIP3    H126332   4.447   6.381   0.892 -0.4480 -2.3554  0.4424
 1591TIP3    H226333   4.522   6.300   0.788 -0.5297 -0.3233 -1.2504
 1592TIP3   OH226334   5.960   4.268   3.231  0.0847 -0.3293  0.0788
 1592TIP3    H126335   5.920   4.181   3.221  0.9492 -0.9259  1.4951
 1592TIP3    H226336   5.892   4.321   3.273  0.0469 -0.7311  0.5291
 1593TIP3   OH226337   5.206   2.705   7.944 -0.2136  0.2922  0.4581
 1593TIP3    H126338   5.267   2.631   7.951 -0.8197 -0.2067  0.5140
 1593TIP3    H226339   5.120   2.666   7.958 -0.7459  0.6559 -1.5619
 1594TIP3   OH226340   5.599   0.608   3.276  0.2358  0.4702  0.4205
 1594TIP3    H126341   5.677   0.559   3.251  0.5679  1.4977 -0.6524
 1594TIP3    H226342   5.527   0.546   3.266  0.3688  0.6855 -2.9744
 1595TIP3   OH226343   4.112   4.155   0.749 -0.1805  0.2237 -0.3124
 1595TIP3    H126344   4.128   4.108   0.667  0.4710 -1.2570  0.6380
 1595TIP3    H226345   4.020   4.135   0.770 -0.2324  0.2931 -0.4703
 1596TIP3   OH226346   2.898   0.643   2.931 -0.1389  0.2704 -0.3612
 1596TIP3    H126347   2.967   0.706   2.914  0.3648  0.1374  1.0691
 1596TIP3    H226348   2.938   0.558   2.915 -0.1561  0.2189 -0.1337
 1597TIP3   OH226349   0.316   1.975   2.795 -0.7460 -0.4573 -0.4274
 1597TIP3    H126350   0.310   1.903   2.858 -0.9473  0.6251  0.8234
 1597TIP3    H226351   0.373   2.039   2.837  1.2282 -0.7542 -2.4376
 1598TIP3   OH226352   4.942   3.792   8.533  0.4747  0.0082  0.5337
 1598TIP3    H126353   4.948   3.708   8.577  1.6931 -0.9920 -1.3773
 1598TIP3    H226354   4.893   3.774   8.453  2.5068  0.5870 -0.9257
 1599TIP3   OH226355   1.898   5.492   6.998  0.1865  0.4498  0.1450
 1599TIP3    H126356   1.866   5.463   7.083  1.2318  2.2182  1.1984
 1599TIP3    H226357   1.858   5.578   6.984  0.1998  0.2863 -1.0526
 1600TIP3   OH226358   0.513   0.660   8.629  0.6630  1.2695 -0.0849
 1600TIP3    H126359   0.478   0.650   8.541  1.6880  2.1361 -0.6195
 1600TIP3    H226360   0.455   0.608   8.685  0.3360  0.2531 -1.3413
 1601TIP3   OH226361   0.128   3.546   0.523 -0.1683 -0.0939 -0.2476
 1601TIP3    H126362   0.111   3.621   0.581 -2.0399 -0.8276  0.2282
 1601TIP3    H226363   0.055   3.546   0.461  0.8833 -0.3615 -1.5227
 1602TIP3   OH226364   3.545   0.604   0.708 -0.1061 -0.5157  0.2334
 1602TIP3    H126365   3.546   0.541   0.636 -1.9197 -0.4661  0.1191
 1602TIP3    H226366   3.600   0.676   0.676 -0.3690 -0.7667 -0.8537
 1603TIP3   OH226367   2.655   0.423   1.890 -0.3476 -0.1783 -0.2059
 1603TIP3    H126368   2.615   0.440   1.975 -2.3417  1.8736 -1.4502
 1603TIP3    H226369   2.714   0.496   1.875 -0.3450 -0.2865 -0.7656
 1604TIP3   OH226370   3.143   4.060   0.619 -0.3186  0.1365  0.1798
 1604TIP3    H126371   3.176   3.971   0.623  1.1801  0.6527  0.1739
 1604TIP3    H226372   3.099   4.066   0.534 -0.4890 -0.6149  0.2135
 1605TIP3   OH226373   1.441   1.176   1.527 -0.8631 -0.4517 -0.1919
 1605TIP3    H126374   1.497   1.113   1.483 -1.2285 -0.7780 -0.1970
 1605TIP3    H226375   1.448   1.256   1.475  1.7646  0.4349  1.2978
 1606TIP3   OH226376   2.451   6.401   2.357  0.5911  0.0224 -0.0154
 1606TIP3    H126377   2.403   6.476   2.322  0.2197 -0.5723 -0.8048
 1606TIP3    H226378   2.391   6.327   2.349  0.4114 -0.1056  2.1356
 1607TIP3   OH226379   1.185   3.645   8.122 -0.1485  0.2540  0.3345
 1607TIP3    H126380   1.163   3.605   8.206 -1.9884  0.1224 -0.1723
 1607TIP3    H226381   1.213   3.734   8.145 -1.3498  0.4731  1.0586
 1608TIP3   OH226382   6.304   5.814   1.101  0.2687 -0.3652  0.0403
 1608TIP3    H126383   6.323   5.748   1.167  1.8821  0.8676  0.8666
 1608TIP3    H226384   6.283   5.893   1.151 -2.7082 -0.4424 -0.9042
 1609TIP3   OH226385   5.159   4.568   1.396 -0.5929  0.1549 -0.0408
 1609TIP3    H126386   5.129   4.603   1.312  0.1752  0.2201 -0.2935
 1609TIP3    H226387   5.204   4.487   1.374 -2.2576 -0.9650  0.5313
 1610TIP3   OH226388   2.675   2.439   2.497 -0.2313 -0.2891  0.2161
 1610TIP3    H126389   2.767   2.419   2.516 -0.9726 -1.5011  3.1279
 1610TIP3    H226390   2.650   2.503   2.564 -0.9614  1.9385 -2.0177
 1611TIP3   OH226391   2.176   0.916   3.023  0.6456  0.4795  0.4820
 1611TIP3    H126392   2.152   0.867   3.102  0.5800 -1.2288 -0.5419
 1611TIP3    H226393   2.170   1.007   3.049  0.1767 -0.0269  2.3261
 1612TIP3   OH226394   5.840   0.580   8.499 -0.2455 -0.3444  0.5131
 1612TIP3    H126395   5.865   0.619   8.583 -0.3604 -0.5131  0.6267
 1612TIP3    H226396   5.922   0.573   8.450 -0.5843  2.8404 -0.7269
 1613TIP3   OH226397   2.550   0.406   3.531  0.3111 -0.1482  0.1501
 1613TIP3    H126398   2.525   0.488   3.489  1.2834  0.1384  0.1179
 1613TIP3    H226399   2.493   0.400   3.609 -0.9664 -0.3116 -0.7584
 1614TIP3   OH226400   5.183   1.247   1.696 -0.0052  0.4221 -0.6623
 1614TIP3    H126401   5.221   1.298   1.768 -0.9661  1.6882 -1.0377
 1614TIP3    H226402   5.250   1.181   1.676  1.0623  1.2288  0.1444
 1615TIP3   OH226403   3.726   5.764   0.181  0.3547  0.1102  0.5660
 1615TIP3    H126404   3.671   5.710   0.124  1.2181 -0.1160 -0.0669
 1615TIP3    H226405   3.728   5.849   0.139  1.6314 -0.2674 -0.1982
 1616TIP3   OH226406   0.208   4.828   2.996  0.0124  0.2055  0.0987
 1616TIP3    H126407   0.136   4.866   3.047 -1.4297 -2.5356  0.2804
 1616TIP3    H226408   0.225   4.893   2.927 -1.0411  1.9571  1.4012
 1617TIP3   OH226409   5.256   4.143   0.552  0.0307  0.6945 -0.1144
 1617TIP3    H126410   5.311   4.222   0.552  1.8108 -0.4820 -0.2510
 1617TIP3    H226411   5.201   4.152   0.630  1.8817  0.9891  1.2151
 1618TIP3   OH226412   6.598   5.697   8.624 -0.6602 -0.1399  0.9985
 1618TIP3    H126413   6.624   5.667   8.711  0.5564 -0.9949  0.3702
 1618TIP3    H226414   6.568   5.618   8.579 -3.4017  0.6243  1.2965
 1619TIP3   OH226415   0.339   0.150   1.819  0.4483  0.5124  0.3346
 1619TIP3    H126416   0.330   0.095   1.896 -1.1688  2.6907  1.8283
 1619TIP3    H226417   0.340   0.239   1.853  0.5331  1.5402 -2.1190
 1620TIP3   OH226418   1.871   2.794   0.655  0.3510 -0.0765  0.0070
 1620TIP3    H126419   1.841   2.705   0.675  0.5832  0.0070  0.7767
 1620TIP3    H226420   1.798   2.850   0.682  0.0080 -0.0615 -0.9394
 1621TIP3   OH226421   6.312   6.216   2.466  0.2457 -0.1166 -0.1217
 1621TIP3    H126422   6.303   6.128   2.502  0.8761 -0.2205 -0.2112
 1621TIP3    H226423   6.256   6.271   2.522  0.1094 -0.5163  0.1373
 1622TIP3   OH226424   6.136   5.095   2.534  0.1118 -0.4018  0.3837
 1622TIP3    H126425   6.067   5.143   2.487 -0.0072 -0.0432  0.9064
 1622TIP3    H226426   6.116   5.111   2.626  0.4890 -0.8847  0.5485
 1623TIP3   OH226427   6.180   0.188   7.883  0.4539 -0.1921  0.2859
 1623TIP3    H126428   6.228   0.162   7.805 -0.0888  0.9329 -0.4455
 1623TIP3    H226429   6.091   0.154   7.870  0.7022 -1.2284  1.0889
 1624TIP3   OH226430   5.176   3.644   1.552  0.0135 -0.7347 -0.3675
 1624TIP3    H126431   5.170   3.672   1.644  0.2181  0.2027 -0.6244
 1624TIP3    H226432   5.140   3.556   1.551 -1.8893 -0.0274  0.2954
 1625TIP3   OH226433   4.565   2.484   1.401 -0.1803  0.7502  0.3178
 1625TIP3    H126434   4.535   2.489   1.310 -2.7378  1.4978  1.1144
 1625TIP3    H226435   4.605   2.569   1.417  1.6394  0.0992 -0.4703
 1626TIP3   OH226436   3.921   4.526   8.857  0.1572  0.2528 -0.7686
 1626TIP3    H126437   3.947   4.601   8.910 -0.0670 -0.2296  0.0546
 1626TIP3    H226438   4.001   4.474   8.848 -0.0378 -0.2287  0.0783
 1627TIP3   OH226439   5.806   0.197   8.127  0.7129  0.3516  0.6535
 1627TIP3    H126440   5.747   0.197   8.203  0.5630 -0.1236  0.5388
 1627TIP3    H226441   5.891   0.218   8.164  0.5184  0.8084  0.8551
 1628TIP3   OH226442   5.762   5.384   0.323 -0.1458  0.3425 -0.3940
 1628TIP3    H126443   5.839   5.424   0.282 -0.0944  1.6986  0.9567
 1628TIP3    H226444   5.687   5.425   0.279 -0.2051 -1.5820 -2.3062
 1629TIP3   OH226445   5.618   2.310   2.502 -0.0343  0.7215 -0.0514
 1629TIP3    H126446   5.699   2.307   2.552  0.4724 -2.3335 -0.8462
 1629TIP3    H226447   5.645   2.300   2.411 -1.2574 -3.0482 -0.1782
 1630TIP3   OH226448   6.063   5.444   0.531 -0.0963  0.0310 -0.6721
 1630TIP3    H126449   6.085   5.363   0.486  0.8169 -0.5891  0.8316
 1630TIP3    H226450   6.144   5.473   0.572 -0.9796  0.3127  0.9578
 1631TIP3   OH226451   1.520   0.372   8.575 -0.1826 -0.3024 -0.3339
 1631TIP3    H126452   1.456   0.333   8.635 -0.4355  0.4168 -0.1363
 1631TIP3    H226453   1.599   0.384   8.628 -0.2783 -0.0374 -0.2531
 1632TIP3   OH226454   0.497   1.601   2.687 -0.0479 -1.2534  0.6786
 1632TIP3    H126455   0.477   1.690   2.716  0.3410 -1.0947  0.4804
 1632TIP3    H226456   0.433   1.583   2.618  2.0475  0.2850 -1.8898
 1633TIP3   OH226457   3.131   4.768   2.147 -0.2057  0.2179  0.1267
 1633TIP3    H126458   3.207   4.803   2.193  0.0367  0.7277 -0.6327
 1633TIP3    H226459   3.096   4.843   2.097 -1.0571 -0.0665  0.2708
 1634TIP3   OH226460   5.748   0.371   7.911 -0.1314 -0.1240  0.0785
 1634TIP3    H126461   5.762   0.290   7.960 -0.6612 -1.9640 -2.6028
 1634TIP3    H226462   5.836   0.408   7.900  0.3220 -1.2040 -0.0550
 1635TIP3   OH226463   4.027   1.658   2.006 -0.1197  0.0726  0.1298
 1635TIP3    H126464   3.937   1.650   1.973 -0.0960 -3.3960  0.5961
 1635TIP3    H226465   4.020   1.640   2.099  0.9616  0.7893  0.3619
 1636TIP3   OH226466   0.961   6.033   0.409  0.4496 -1.0561 -0.2586
 1636TIP3    H126467   1.040   6.042   0.462  1.0782  0.9924 -1.4240
 1636TIP3    H226468   0.989   5.984   0.332  0.1071 -1.9727  0.1896
 1637TIP3   OH226469   0.193   3.470   2.365 -0.4542  0.5106 -0.0005
 1637TIP3    H126470   0.267   3.417   2.336  0.1065  1.6152 -0.6455
 1637TIP3    H226471   0.228   3.559   2.371 -2.0252  1.2720 -1.4695
 1638TIP3   OH226472   1.076   6.440   1.938  0.5674  0.0853  0.0299
 1638TIP3    H126473   1.084   6.345   1.925  1.5015 -0.1662  2.0832
 1638TIP3    H226474   1.152   6.477   1.894  0.0825 -0.0625 -0.9733
 1639TIP3   OH226475   3.767   1.293   0.955  0.4334  0.1916 -0.2589
 1639TIP3    H126476   3.784   1.215   1.008  1.0457  0.4277 -0.0995
 1639TIP3    H226477   3.844   1.302   0.899 -0.3925 -0.3072 -1.5345
 1640TIP3   OH226478   4.396   3.451   7.424 -0.1421  0.0626  0.2601
 1640TIP3    H126479   4.316   3.412   7.461 -0.9479  1.3371 -0.0456
 1640TIP3    H226480   4.367   3.492   7.343  1.3665 -1.6384 -1.2291
 1641TIP3   OH226481   0.588   1.414   2.248 -0.1334  0.6154  0.1488
 1641TIP3    H126482   0.589   1.509   2.236 -0.2624  0.5179 -0.6475
 1641TIP3    H226483   0.667   1.383   2.204 -0.2547  0.3192  0.1398
 1642TIP3   OH226484   1.023   4.573   1.657 -0.2293 -0.1510  0.6785
 1642TIP3    H126485   1.061   4.486   1.644  0.1485  0.2540 -1.1361
 1642TIP3    H226486   0.932   4.556   1.680 -0.4585 -1.0226 -0.7818
 1643TIP3   OH226487   3.340   5.884   0.477  0.2380  0.0682  0.6889
 1643TIP3    H126488   3.250   5.915   0.469  0.4035  0.5072  0.4626
 1643TIP3    H226489   3.383   5.915   0.397  0.6346  0.0296  0.8847
 1644TIP3   OH226490   0.406   5.002   1.771  0.0274 -0.3531  0.0657
 1644TIP3    H126491   0.462   5.073   1.737  0.8845  0.3831  2.7600
 1644TIP3    H226492   0.453   4.970   1.848 -0.7889 -3.3225 -0.5636
 1645TIP3   OH226493   2.507   0.824   8.131  0.4971  0.4809 -0.8078
 1645TIP3    H126494   2.590   0.858   8.098 -0.0855  0.5740 -2.2618
 1645TIP3    H226495   2.441   0.883   8.094 -0.3156 -0.5282 -1.0067
 1646TIP3   OH226496   0.638   5.685   1.711  0.2381 -0.1931  0.3182
 1646TIP3    H126497   0.663   5.601   1.748  2.1247  0.8674  1.6133
 1646TIP3    H226498   0.705   5.703   1.645 -0.8003 -0.1915 -0.7667
 1647TIP3   OH226499   4.994   1.901   2.154 -0.5862 -0.0315 -0.4532
 1647TIP3    H126500   5.031   1.980   2.193 -1.0069  1.8557 -3.5762
 1647TIP3    H226501   4.923   1.933   2.098 -0.5291 -2.5577 -2.1250
 1648TIP3   OH226502   1.421   4.781   0.466 -0.2617  0.1074  0.2133
 1648TIP3    H126503   1.357   4.843   0.502  0.2677  0.6857  0.1753
 1648TIP3    H226504   1.440   4.815   0.378  0.1904  0.0035  0.2733
 1649TIP3   OH226505   2.521   6.212   0.458  0.2157  0.1278  0.0135
 1649TIP3    H126506   2.445   6.225   0.515  0.4636  0.3431  0.2959
 1649TIP3    H226507   2.545   6.301   0.430  0.9645  0.1481  0.7063
 1650TIP3   OH226508   4.639   5.356   6.983 -0.0367 -0.2519  0.4514
 1650TIP3    H126509   4.569   5.316   6.930  0.0871  0.6531 -0.4237
 1650TIP3    H226510   4.713   5.296   6.974 -0.6627 -1.2015  1.3530
 1651TIP3   OH226511   0.543   5.516   7.346 -0.6418  0.1392  0.7280
 1651TIP3    H126512   0.552   5.610   7.328  0.3515 -0.0570  0.1468
 1651TIP3    H226513   0.607   5.474   7.288 -0.7539 -0.8661  1.3124
 1652TIP3   OH226514   1.783   5.902   8.246  0.0718 -0.7391 -0.1765
 1652TIP3    H126515   1.836   5.950   8.182  0.0757 -0.5366 -0.0225
 1652TIP3    H226516   1.752   5.969   8.306 -1.8422 -0.5475 -1.2844
 1653TIP3   OH226517   5.178   4.532   0.544 -0.3698 -0.1517  0.4355
 1653TIP3    H126518   5.086   4.559   0.538 -0.5626 -0.7544  0.6496
 1653TIP3    H226519   5.205   4.559   0.631  0.1103  1.3974 -0.1570
 1654TIP3   OH226520   0.628   2.874   8.627  0.4972  0.0073  0.0267
 1654TIP3    H126521   0.604   2.872   8.535 -0.2859  1.8284  0.1427
 1654TIP3    H226522   0.557   2.826   8.671  1.1368 -1.2997 -0.3515
 1655TIP3   OH226523   5.494   4.685   8.482 -0.6920 -0.4028 -0.1638
 1655TIP3    H126524   5.420   4.625   8.489  0.0247 -1.3043 -0.0518
 1655TIP3    H226525   5.463   4.767   8.519 -1.2839 -1.0907  0.8974
 1656TIP3   OH226526   2.243   5.890   3.325 -0.0795 -0.5054  0.0136
 1656TIP3    H126527   2.256   5.928   3.411  1.4126  0.8360 -0.7572
 1656TIP3    H226528   2.257   5.796   3.337 -1.6638 -0.5861  1.5354
 1657TIP3   OH226529   5.406   6.318   1.781 -0.0435 -0.6332  0.1203
 1657TIP3    H126530   5.421   6.405   1.818 -1.8333 -0.2185 -0.0554
 1657TIP3    H226531   5.493   6.289   1.752  0.7946  0.5341  1.3572
 1658TIP3   OH226532   2.542   3.889   0.314  0.2236 -0.2402  0.1963
 1658TIP3    H126533   2.575   3.940   0.387 -0.6720  0.2068  0.3001
 1658TIP3    H226534   2.610   3.824   0.297  0.4472 -0.3337  1.4064
 1659TIP3   OH226535   5.507   4.805   3.116  0.0199 -0.3132 -0.0708
 1659TIP3    H126536   5.491   4.733   3.055  0.7718  0.9676 -1.8999
 1659TIP3    H226537   5.452   4.876   3.084 -0.3191  0.0947  1.3772
 1660TIP3   OH226538   4.253   6.358   3.045  0.2305  0.0110 -0.6845
 1660TIP3    H126539   4.245   6.302   3.123 -1.0518  0.9667 -0.0954
 1660TIP3    H226540   4.288   6.440   3.079 -0.6894  0.5617 -1.0389
 1661TIP3   OH226541   3.505   0.640   1.533 -0.0910 -0.4795 -0.8694
 1661TIP3    H126542   3.539   0.728   1.547 -0.6929 -0.0955 -1.7720
 1661TIP3    H226543   3.499   0.602   1.621 -0.8034  0.7360 -0.3763
 1662TIP3   OH226544   1.329   4.834   1.591  0.7235  0.1679  0.3728
 1662TIP3    H126545   1.274   4.775   1.540  0.7695  0.4142  0.0311
 1662TIP3    H226546   1.285   4.841   1.676  1.0023 -0.7669  0.6004
 1663TIP3   OH226547   1.161   3.233   1.313  0.7351 -0.3270 -0.1861
 1663TIP3    H126548   1.150   3.158   1.371  3.1271 -0.2021  0.5392
 1663TIP3    H226549   1.142   3.309   1.369 -0.2569 -0.3076 -0.5265
 1664TIP3   OH226550   3.723   2.855   2.431  0.3107  0.6272 -0.2266
 1664TIP3    H126551   3.686   2.931   2.477  2.7583  1.2781  0.8622
 1664TIP3    H226552   3.731   2.788   2.498 -0.1560  0.0285 -0.7616
 1665TIP3   OH226553   6.233   2.931   8.868  0.6704  0.2044 -0.5522
 1665TIP3    H126554   6.183   2.895   8.941  0.7993 -2.1392 -1.5376
 1665TIP3    H226555   6.167   2.959   8.805  0.4351  4.6695  1.3476
 1666TIP3   OH226556   1.045   0.145   8.376  0.2017 -0.3059 -0.1616
 1666TIP3    H126557   1.120   0.093   8.347  0.1577 -0.4353 -0.0428
 1666TIP3    H226558   1.015   0.189   8.297 -0.2865 -1.1161 -0.4375
 1667TIP3   OH226559   2.557   4.142   2.089 -0.3422  0.6505  0.0635
 1667TIP3    H126560   2.563   4.118   2.182  0.5120  0.0201 -0.1417
 1667TIP3    H226561   2.503   4.221   2.089 -1.8668 -0.3376  0.9155
 1668TIP3   OH226562   0.778   0.285   2.284  0.1967  0.2612  0.4413
 1668TIP3    H126563   0.748   0.342   2.214 -1.3129 -3.7809 -2.6150
 1668TIP3    H226564   0.698   0.261   2.332  0.7207  0.3142  1.3732
 1669TIP3   OH226565   0.476   2.234   1.522  0.1796 -0.0421 -0.3024
 1669TIP3    H126566   0.498   2.168   1.457 -0.7318 -2.1189  1.3658
 1669TIP3    H226567   0.555   2.245   1.574 -0.0766 -0.9134  0.2862
 1670TIP3   OH226568   3.746   4.178   7.723 -0.0588 -0.4546  0.0808
 1670TIP3    H126569   3.755   4.262   7.678 -1.0316 -0.7234 -0.6342
 1670TIP3    H226570   3.833   4.138   7.717  0.3226  0.3546  0.1429
 1671TIP3   OH226571   3.633   4.042   2.038  0.2982  0.9654 -0.2602
 1671TIP3    H126572   3.547   4.051   1.995  0.1872  1.7816  0.1067
 1671TIP3    H226573   3.657   3.951   2.025 -1.8222 -0.0092  1.8771
 1672TIP3   OH226574   5.252   4.491   8.208  0.1958  0.1541 -0.6552
 1672TIP3    H126575   5.229   4.496   8.115 -0.2645  1.3754 -0.4927
 1672TIP3    H226576   5.168   4.487   8.253  0.4006  0.2831 -0.2606
 1673TIP3   OH226577   1.642   0.743   2.023 -0.5214 -0.3163  0.0102
 1673TIP3    H126578   1.554   0.741   2.061 -0.5172 -1.3332 -0.0080
 1673TIP3    H226579   1.630   0.711   1.934 -0.1608 -0.2685 -0.0563
 1674TIP3   OH226580   4.788   2.494   2.427  0.5753  0.6552 -0.3122
 1674TIP3    H126581   4.696   2.478   2.406  0.3292  2.2704 -0.6207
 1674TIP3    H226582   4.803   2.446   2.508 -0.4957  0.2134 -0.3581
 1675TIP3   OH226583   1.070   0.724   0.282 -0.5664  0.0733 -0.6131
 1675TIP3    H126584   1.039   0.804   0.239  0.1802  0.7666  0.0861
 1675TIP3    H226585   1.007   0.709   0.353 -0.8255 -0.0739 -0.8767
 1676TIP3   OH226586   6.602   4.904   2.678 -0.3525  0.0169  0.6200
 1676TIP3    H126587   6.690   4.903   2.715  0.6754 -1.3000 -1.5887
 1676TIP3    H226588   6.614   4.869   2.589 -3.4361 -2.3852  0.9960
 1677TIP3   OH226589   4.705   1.360   8.611  0.0835  0.3936 -0.7977
 1677TIP3    H126590   4.660   1.401   8.537 -1.5520  1.6056  0.7684
 1677TIP3    H226591   4.682   1.267   8.605 -1.7154  0.7927 -0.7396
 1678TIP3   OH226592   6.210   2.896   1.178 -0.0424 -0.5372 -0.6930
 1678TIP3    H126593   6.278   2.863   1.119 -0.2778 -1.1444 -0.6360
 1678TIP3    H226594   6.131   2.850   1.150 -0.3794 -0.0174 -0.6024
 1679TIP3   OH226595   0.247   6.627   1.928  0.0505  0.4250 -0.1069
 1679TIP3    H126596   0.197   6.548   1.903 -1.3516  1.8415 -2.1052
 1679TIP3    H226597   0.282   6.606   2.015 -1.1198 -2.0034 -0.1195
 1680TIP3   OH226598   4.957   1.619   8.509 -0.1140 -0.2348  0.5399
 1680TIP3    H126599   4.975   1.527   8.526 -1.3110 -0.4757  0.5721
 1680TIP3    H226600   4.897   1.618   8.435 -0.4774  0.5037  0.8162
 1681TIP3   OH226601   4.582   4.873   1.867 -0.8715 -0.5502  0.1992
 1681TIP3    H126602   4.507   4.914   1.822 -0.5320  1.0543  1.0085
 1681TIP3    H226603   4.659   4.916   1.829 -0.3971 -1.5020  0.0565
 1682TIP3   OH226604   2.995   6.076   3.098  0.8062 -0.1990  0.3416
 1682TIP3    H126605   2.945   6.100   3.020  0.3560 -0.8637  0.4148
 1682TIP3    H226606   2.931   6.078   3.169  1.0961 -0.1258  0.6050
 1683TIP3   OH226607   6.275   0.746   1.430  0.0447  0.8422  0.3620
 1683TIP3    H126608   6.343   0.723   1.366 -0.8980  0.3544 -0.4933
 1683TIP3    H226609   6.323   0.782   1.505  1.3874 -0.9895  0.4504
 1684TIP3   OH226610   5.826   5.051   7.826  0.2947  0.6373 -0.2546
 1684TIP3    H126611   5.778   5.115   7.878  0.7565  3.2438 -2.7316
 1684TIP3    H226612   5.771   5.038   7.748  0.3343 -1.9001  0.0694
 1685TIP3   OH226613   5.860   2.758   8.264 -0.5543  0.0708  0.4467
 1685TIP3    H126614   5.870   2.664   8.252  0.2319  0.2876 -0.7968
 1685TIP3    H226615   5.948   2.790   8.281 -0.8385  0.5632  1.0244
 1686TIP3   OH226616   3.496   6.369   2.814  0.7353 -0.4116  0.5383
 1686TIP3    H126617   3.569   6.330   2.766  0.0890 -1.2529  0.2162
 1686TIP3    H226618   3.435   6.297   2.828  0.9442 -0.2185  2.7337
 1687TIP3   OH226619   0.293   5.902   7.897  0.0019  0.3918  0.3280
 1687TIP3    H126620   0.265   5.847   7.824  1.8175  0.3256 -0.3699
 1687TIP3    H226621   0.243   5.869   7.972 -1.4114  0.0292 -0.7294
 1688TIP3   OH226622   6.034   0.966   8.199  0.1690 -0.7201 -0.2312
 1688TIP3    H126623   6.065   0.966   8.289  0.0685  0.5670 -0.1807
 1688TIP3    H226624   5.956   1.022   8.200  1.9055  1.9435 -1.6451
 1689TIP3   OH226625   1.675   1.506   2.310  0.0751 -0.6219  0.3212
 1689TIP3    H126626   1.720   1.585   2.338 -1.5342  0.9546 -1.2561
 1689TIP3    H226627   1.662   1.455   2.390 -2.2270  2.5013  2.1534
 1690TIP3   OH226628   4.987   3.662   7.960  0.1318 -0.0890  0.1983
 1690TIP3    H126629   5.016   3.744   7.920 -1.8280  1.0322  0.9054
 1690TIP3    H226630   5.067   3.621   7.993  1.3796  0.5824 -1.8430
 1691TIP3   OH226631   3.973   3.753   8.846  0.2597  0.1826  0.1628
 1691TIP3    H126632   4.030   3.761   8.770  1.1603  0.6402  0.8756
 1691TIP3    H226633   3.885   3.763   8.810  0.4311 -2.3019 -1.2439
 1692TIP3   OH226634   0.224   3.790   7.987  0.3153 -0.2273  0.5800
 1692TIP3    H126635   0.156   3.830   7.933 -0.0257 -2.9582 -1.2049
 1692TIP3    H226636   0.306   3.816   7.944  0.0955 -1.3819 -0.6138
 1693TIP3   OH226637   0.371   0.958   8.687 -0.5056  0.4105 -0.2652
 1693TIP3    H126638   0.458   0.938   8.652  0.0670  1.9127  0.2020
 1693TIP3    H226639   0.334   0.873   8.710 -0.1118 -0.4602 -2.5894
 1694TIP3   OH226640   0.318   2.242   2.027 -0.3515 -0.2287  0.5200
 1694TIP3    H126641   0.273   2.171   2.073  0.6516 -0.6966  0.8190
 1694TIP3    H226642   0.404   2.206   2.005 -0.7665 -0.0294 -1.7415
 1695TIP3   OH226643   2.736   1.933   0.989 -0.4926  0.6978 -0.0835
 1695TIP3    H126644   2.784   1.922   0.907 -0.2869  0.6201  0.0458
 1695TIP3    H226645   2.803   1.958   1.053 -0.8247  1.8844 -0.1880
 1696TIP3   OH226646   5.813   2.616   2.168 -0.4470 -0.2818  0.5977
 1696TIP3    H126647   5.821   2.609   2.263 -0.1428 -0.9934  0.5281
 1696TIP3    H226648   5.733   2.569   2.147  0.8775 -2.5345  0.2609
 1697TIP3   OH226649   5.248   2.601   1.021  0.2307 -0.0959 -0.2948
 1697TIP3    H126650   5.215   2.599   0.931 -0.0900 -0.3614 -0.1724
 1697TIP3    H226651   5.257   2.509   1.045 -0.4325 -0.0368  0.2106
 1698TIP3   OH226652   4.098   4.082   0.492 -0.0227  0.2550  0.2996
 1698TIP3    H126653   4.062   4.159   0.447 -1.3654 -1.0222 -0.9088
 1698TIP3    H226654   4.178   4.063   0.443  0.8990  1.4660  1.2674
 1699TIP3   OH226655   1.237   4.504   2.551  0.0147  0.3746 -0.1546
 1699TIP3    H126656   1.291   4.556   2.611 -0.1882  0.6178 -0.1798
 1699TIP3    H226657   1.242   4.414   2.585 -1.1813  0.7229  1.0478
 1700TIP3   OH226658   6.543   2.530   1.856 -0.3995  0.4350 -0.2271
 1700TIP3    H126659   6.502   2.616   1.859 -1.1005  0.1620 -1.4410
 1700TIP3    H226660   6.546   2.507   1.763  0.3583 -0.5817  0.0194
 1701TIP3   OH226661   1.063   0.087   0.952 -0.3036 -0.2433  0.2795
 1701TIP3    H126662   1.038   0.009   1.002 -2.0681  0.2142  0.1977
 1701TIP3    H226663   1.066   0.056   0.861 -1.3329 -0.1713  0.2069
 1702TIP3   OH226664   5.119   2.691   0.564 -0.0766  0.1009  0.2314
 1702TIP3    H126665   5.120   2.638   0.484  1.8824 -0.4886  0.5988
 1702TIP3    H226666   5.069   2.638   0.626  0.7356 -0.7419  0.1910
 1703TIP3   OH226667   0.489   2.640   1.855 -0.4866 -0.4840 -0.2202
 1703TIP3    H126668   0.463   2.661   1.765 -0.7794  0.8520  0.1626
 1703TIP3    H226669   0.407   2.615   1.898 -0.5218 -0.0665 -0.0420
 1704TIP3   OH226670   4.734   2.701   1.436  0.2206 -0.0203  0.2247
 1704TIP3    H126671   4.782   2.646   1.375 -0.9274  1.6148 -2.3521
 1704TIP3    H226672   4.766   2.790   1.418 -2.3562  0.8816 -0.2969
 1705TIP3   OH226673   4.121   2.577   0.860 -0.1054  0.3376 -0.4485
 1705TIP3    H126674   4.181   2.615   0.795 -0.0681 -1.0237 -1.2458
 1705TIP3    H226675   4.034   2.597   0.827 -0.0842  0.2041 -0.5886
 1706TIP3   OH226676   1.225   6.579   0.811  0.6952 -0.0902 -0.2896
 1706TIP3    H126677   1.287   6.507   0.818  0.1694 -0.7173 -1.6895
 1706TIP3    H226678   1.270   6.654   0.850  0.9095 -1.3414  2.0522
 1707TIP3   OH226679   5.502   2.840   1.161  0.1978 -0.6942 -0.0264
 1707TIP3    H126680   5.523   2.927   1.196  0.4837 -1.3293  1.4649
 1707TIP3    H226681   5.435   2.806   1.221  0.9667 -1.9724  0.1327
 1708TIP3   OH226682   3.636   5.477   0.618  0.1433 -0.2008 -0.0122
 1708TIP3    H126683   3.590   5.506   0.539 -2.4282  1.6106  1.9829
 1708TIP3    H226684   3.717   5.528   0.618 -0.2541  0.4601 -1.0433
 1709TIP3   OH226685   5.828   0.127   0.428  0.1743 -0.1862 -0.7389
 1709TIP3    H126686   5.814   0.057   0.491  0.0324  1.1458  0.7711
 1709TIP3    H226687   5.759   0.191   0.447  1.3683  1.1973 -0.8369
 1710TIP3   OH226688   0.477   1.247   8.191 -0.3210  0.3763 -0.1303
 1710TIP3    H126689   0.553   1.298   8.219  0.7534 -0.3704 -1.4963
 1710TIP3    H226690   0.433   1.302   8.127  0.7743 -0.2697 -1.5197
 1711TIP3   OH226691   4.009   1.456   0.211  0.2163 -0.3366  0.4962
 1711TIP3    H126692   4.090   1.481   0.166  0.9508  1.3727  2.5960
 1711TIP3    H226693   4.038   1.394   0.278 -0.2076  0.2603  1.2392
 1712TIP3   OH226694   2.762   1.706   0.646  0.1377 -0.5524  0.2490
 1712TIP3    H126695   2.805   1.788   0.622 -0.8275 -0.2638 -0.5531
 1712TIP3    H226696   2.831   1.640   0.642  0.5202 -0.0873 -0.9518
 1713TIP3   OH226697   1.895   4.265   8.120  0.5004  0.1506  0.3952
 1713TIP3    H126698   1.849   4.295   8.199  0.4517  1.0022  0.0558
 1713TIP3    H226699   1.911   4.172   8.136 -0.6701  0.0079  0.8439
 1714TIP3   OH226700   0.020   5.056   2.563 -0.2030 -0.0104 -0.2910
 1714TIP3    H126701   0.049   4.969   2.591 -0.9205 -0.3191 -0.4842
 1714TIP3    H226702   0.005   5.104   2.644  0.8173  0.1547 -0.1859
 1715TIP3   OH226703   1.747   1.859   1.740  0.0223 -0.6823 -0.3804
 1715TIP3    H126704   1.818   1.838   1.801  1.2468  0.5033 -1.3459
 1715TIP3    H226705   1.790   1.864   1.654 -1.5229 -1.5446 -1.2572
 1716TIP3   OH226706   2.863   2.613   0.600 -0.5233 -0.2457  0.7707
 1716TIP3    H126707   2.846   2.706   0.615  1.0700  0.2845 -0.4431
 1716TIP3    H226708   2.784   2.581   0.556 -0.0793  1.1720 -1.1598
 1717TIP3   OH226709   3.013   1.549   2.445 -0.1136  0.3178  0.4988
 1717TIP3    H126710   3.086   1.543   2.505  0.8943  1.5900 -0.5390
 1717TIP3    H226711   2.941   1.505   2.490  1.6516 -2.4038  0.9091
 1718TIP3   OH226712   3.412   2.964   2.147  0.2061  0.0125  0.0488
 1718TIP3    H126713   3.334   2.954   2.091  0.1521  2.5423 -0.4527
 1718TIP3    H226714   3.432   3.057   2.144  2.0427 -0.2430  1.8730
 1719TIP3   OH226715   0.976   0.903   1.744 -0.1762  0.2953  0.2229
 1719TIP3    H126716   1.030   0.906   1.665  0.1898 -0.5015  0.4343
 1719TIP3    H226717   0.896   0.951   1.721 -1.3098 -2.2560 -1.5848
 1720TIP3   OH226718   3.113   5.983   1.442  0.5007  0.4749  0.2429
 1720TIP3    H126719   3.072   6.069   1.454 -0.0129  0.2621  0.0073
 1720TIP3    H226720   3.125   5.974   1.348  1.2278  0.5976  0.3194
 1721TIP3   OH226721   4.465   4.498   1.428 -0.5669  0.4245  0.6511
 1721TIP3    H126722   4.515   4.552   1.489 -0.9716 -0.5869  1.9103
 1721TIP3    H226723   4.532   4.456   1.373  0.1477 -1.7100  2.9652
 1722TIP3   OH226724   5.715   6.683   8.473  0.5757  0.1690  0.2450
 1722TIP3    H126725   5.746   6.700   8.562  0.8475  0.4583  0.1004
 1722TIP3    H226726   5.771   6.612   8.442  0.5541  0.1424  0.2676
 1723TIP3   OH226727   6.643   2.646   0.482 -0.0614  0.1146 -0.4249
 1723TIP3    H126728   6.679   2.633   0.395 -2.3347 -1.1041 -1.2503
 1723TIP3    H226729   6.616   2.559   0.511  0.1843  0.5621  1.3166
 1724TIP3   OH226730   6.262   0.387   3.309  0.8927  0.5805 -0.0612
 1724TIP3    H126731   6.185   0.379   3.252  0.9616 -0.3820 -0.0233
 1724TIP3    H226732   6.329   0.334   3.267  1.7323  1.8408 -0.3873
 1725TIP3   OH226733   3.781   3.440   8.819 -0.3148 -0.4208 -0.3335
 1725TIP3    H126734   3.775   3.533   8.841 -0.1962 -0.7235  1.1172
 1725TIP3    H226735   3.691   3.409   8.823 -0.2593 -0.5398  0.0601
 1726TIP3   OH226736   5.235   0.275   2.591  0.7770  0.5653 -0.2022
 1726TIP3    H126737   5.259   0.185   2.613 -0.6491 -0.0993 -1.1593
 1726TIP3    H226738   5.208   0.313   2.674 -0.2899 -0.4864 -0.0228
 1727TIP3   OH226739   3.835   0.622   1.613 -0.6890 -0.0481  0.1197
 1727TIP3    H126740   3.744   0.607   1.587 -1.1891 -0.3991  1.9023
 1727TIP3    H226741   3.830   0.700   1.669  0.0412 -0.3216  0.5687
 1728TIP3   OH226742   6.101   6.502   3.212 -0.0929  0.3908  0.3881
 1728TIP3    H126743   6.108   6.528   3.120  0.9046 -0.2001  0.2866
 1728TIP3    H226744   6.033   6.434   3.212  1.2394 -1.0023 -0.2477
 1729TIP3   OH226745   1.007   6.447   0.303 -0.5779  0.0508 -0.0507
 1729TIP3    H126746   1.066   6.445   0.377 -1.3441 -0.0401  0.5710
 1729TIP3    H226747   0.980   6.538   0.295 -1.5374 -0.1587  0.6390
 1730TIP3   OH226748   4.385   1.899   7.628 -0.0443  0.4700 -0.2220
 1730TIP3    H126749   4.353   1.835   7.691 -0.4515  0.8866  0.0046
 1730TIP3    H226750   4.325   1.974   7.637  1.5344  1.6816  0.9191
 1731TIP3   OH226751   3.233   1.972   1.102  0.1947 -0.0086  0.1648
 1731TIP3    H126752   3.267   1.885   1.083  0.4115 -0.0491  0.7215
 1731TIP3    H226753   3.311   2.024   1.123  0.1446  0.5159 -0.9033
 1732TIP3   OH226754   6.076   2.053   2.688  0.1406  0.4231 -0.0172
 1732TIP3    H126755   6.029   2.126   2.648 -2.4180 -0.7496  0.5885
 1732TIP3    H226756   6.168   2.076   2.681 -0.3318  1.8995 -3.3508
 1733TIP3   OH226757   1.066   3.641   1.273  0.3062  0.8165  0.1105
 1733TIP3    H126758   1.093   3.728   1.243  0.4823  0.6677 -0.1774
 1733TIP3    H226759   0.971   3.647   1.283  0.6425  2.0785  3.5542
 1734TIP3   OH226760   1.186   6.404   8.064  0.0008  0.0157  0.1160
 1734TIP3    H126761   1.166   6.405   7.971 -1.1249  1.0690  0.3460
 1734TIP3    H226762   1.122   6.345   8.103  0.1222  0.0044  0.3031
 1735TIP3   OH226763   1.699   6.637   1.007  0.1873 -0.2115 -0.1941
 1735TIP3    H126764   1.637   6.572   1.040  1.5883 -0.4781  2.1135
 1735TIP3    H226765   1.784   6.595   1.017  0.9457  1.1170 -0.9034
 1736TIP3   OH226766   2.227   5.453   7.550 -0.4037 -0.2968  0.0748
 1736TIP3    H126767   2.210   5.467   7.643  2.1808 -0.2423  0.6270
 1736TIP3    H226768   2.151   5.405   7.518 -1.4652 -0.1001  2.1589
 1737TIP3   OH226769   3.468   5.233   1.501 -0.8251 -0.2917 -0.3904
 1737TIP3    H126770   3.478   5.147   1.541  0.2511 -0.4528 -0.9484
 1737TIP3    H226771   3.558   5.263   1.487 -1.1828  0.7937 -0.4851
 1738TIP3   OH226772   6.170   3.794   0.799  0.0975 -0.0980 -0.2894
 1738TIP3    H126773   6.219   3.864   0.756  2.2015 -0.5188  1.2678
 1738TIP3    H226774   6.107   3.840   0.854  2.1468  0.7315  1.5277
 1739TIP3   OH226775   3.480   2.284   1.137 -0.1848  0.3810 -0.0186
 1739TIP3    H126776   3.456   2.200   1.097 -0.2183 -0.1854  1.1282
 1739TIP3    H226777   3.396   2.321   1.165 -0.0546  0.0323  0.8883
 1740TIP3   OH226778   2.952   5.511   0.039 -0.2982 -0.0276  0.0792
 1740TIP3    H126779   2.911   5.590   0.002 -2.0794 -1.3573 -0.9693
 1740TIP3    H226780   2.959   5.529   0.132 -1.5064  1.0396 -0.0068
 1741TIP3   OH226781   2.531   2.436   8.233 -0.1541 -0.1056  0.0489
 1741TIP3    H126782   2.545   2.450   8.140 -1.4654 -0.3419 -0.1990
 1741TIP3    H226783   2.459   2.373   8.238 -2.0559  2.0021  1.1954
 1742TIP3   OH226784   4.331   6.403   1.684  0.0605  0.1745  0.3202
 1742TIP3    H126785   4.285   6.426   1.603  2.3204 -1.5479 -1.6159
 1742TIP3    H226786   4.275   6.336   1.724 -0.4234  0.0262 -0.5633
 1743TIP3   OH226787   2.492   2.963   6.943  0.7335 -0.2863  0.2952
 1743TIP3    H126788   2.552   2.913   6.999  2.1964  0.6487 -0.3673
 1743TIP3    H226789   2.501   2.922   6.857  1.5261  0.7347 -0.1278
 1744TIP3   OH226790   3.628   4.620   0.136  0.5977 -0.3293 -0.3741
 1744TIP3    H126791   3.673   4.587   0.058 -0.9725  0.6172 -1.7506
 1744TIP3    H226792   3.689   4.684   0.173  2.1685 -2.1552  0.3190
 1745TIP3   OH226793   1.844   0.667   0.230  0.6679  0.5884 -0.1775
 1745TIP3    H126794   1.756   0.701   0.214  0.1141 -1.3221 -1.6817
 1745TIP3    H226795   1.837   0.622   0.314 -0.3957 -1.1539 -1.1282
 1746TIP3   OH226796   4.694   0.890   0.290  0.2902 -0.1457  0.1308
 1746TIP3    H126797   4.637   0.861   0.362 -3.2295  1.7455 -1.6089
 1746TIP3    H226798   4.654   0.852   0.212  1.4538  1.3099 -1.2266
 1747TIP3   OH226799   3.476   6.144   2.460  0.0105 -0.9801 -0.0208
 1747TIP3    H126800   3.425   6.143   2.379 -1.8215 -1.7280  1.0739
 1747TIP3    H226801   3.435   6.077   2.515  1.3719 -0.6926  1.4336
 1748TIP3   OH226802   0.255   2.303   0.679 -0.8141  0.5019 -0.1458
 1748TIP3    H126803   0.326   2.332   0.736 -0.5033 -0.9374  0.2223
 1748TIP3    H226804   0.209   2.384   0.656  0.4512  1.3630  0.2539
 1749TIP3   OH226805   1.648   3.220   1.043 -0.0716  0.2601 -0.0983
 1749TIP3    H126806   1.622   3.129   1.051  0.3439  0.0847 -0.6689
 1749TIP3    H226807   1.572   3.263   1.004 -0.2355  0.1450  0.0916
 1750TIP3   OH226808   3.490   2.874   1.188 -0.0705  0.3225  0.0386
 1750TIP3    H126809   3.477   2.946   1.125 -0.8072  1.3059  1.2624
 1750TIP3    H226810   3.448   2.799   1.147 -0.0826  0.8063 -0.8799
 1751TIP3   OH226811   4.509   4.314   2.416  0.5479 -0.0581  0.0256
 1751TIP3    H126812   4.423   4.344   2.444  1.1642  2.0869 -0.1891
 1751TIP3    H226813   4.496   4.221   2.395 -1.4994  0.0030  0.7430
 1752TIP3   OH226814   3.650   2.074   8.783  0.0961 -0.9021  0.1709
 1752TIP3    H126815   3.682   2.108   8.866  0.3673 -2.5953  0.8109
 1752TIP3    H226816   3.724   2.084   8.723 -0.8634  2.5526 -0.6221
 1753TIP3   OH226817   1.139   5.238   1.617  0.4260 -0.5403 -0.1366
 1753TIP3    H126818   1.177   5.324   1.596 -1.0157  0.3716  0.8553
 1753TIP3    H226819   1.193   5.205   1.689  2.8005 -1.8348 -2.3415
 1754TIP3   OH226820   1.243   0.488   0.467 -0.9050  1.2095 -0.1035
 1754TIP3    H126821   1.211   0.462   0.380 -2.1627 -2.7733  1.3219
 1754TIP3    H226822   1.171   0.540   0.504 -2.3393 -0.7343  0.0237
 1755TIP3   OH226823   2.634   3.761   2.220 -0.8390 -0.5932 -0.2508
 1755TIP3    H126824   2.670   3.849   2.213 -0.9708 -0.4085  1.1242
 1755TIP3    H226825   2.541   3.771   2.200 -1.1956 -0.1002  1.4701
 1756TIP3   OH226826   1.378   5.252   2.930  0.0726  0.7975 -0.6476
 1756TIP3    H126827   1.473   5.239   2.920  0.0716 -4.4719  2.3860
 1756TIP3    H226828   1.367   5.270   3.023 -1.9309 -0.8637 -0.5035
 1757TIP3   OH226829   6.057   0.021   1.286  0.6423 -0.3938  0.2269
 1757TIP3    H126830   6.056   0.097   1.344 -0.2947 -0.4013  0.2413
 1757TIP3    H226831   6.031  -0.052   1.342  3.2111 -1.0798  0.6341
 1758TIP3   OH226832   3.694   5.057   2.099 -0.0363 -0.0149  0.3741
 1758TIP3    H126833   3.735   4.981   2.056  1.6732  1.2739 -0.3914
 1758TIP3    H226834   3.604   5.028   2.116  0.6047 -2.2901  0.3356
 1759TIP3   OH226835   5.334   4.149   1.113  0.1286 -0.0479 -0.0338
 1759TIP3    H126836   5.294   4.090   1.049  1.0464  0.2415 -0.9002
 1759TIP3    H226837   5.403   4.097   1.153  0.0748  0.0190  0.1446
 1760TIP3   OH226838   2.432   4.033   1.291 -0.2754  0.3431  0.4511
 1760TIP3    H126839   2.503   4.093   1.315  0.0538  0.2079 -0.1754
 1760TIP3    H226840   2.420   3.978   1.369 -0.0096  0.6650  0.7251
 1761TIP3   OH226841   6.615   1.041   0.041  0.1988 -0.0237 -0.1334
 1761TIP3    H126842   6.558   1.042   0.119 -1.6881 -0.3596 -1.4407
 1761TIP3    H226843   6.663   1.123   0.046 -1.8956  1.2792  0.0084
 1762TIP3   OH226844   2.652   0.234   8.802  0.0327  0.1608  0.6201
 1762TIP3    H126845   2.619   0.302   8.744 -3.0450 -0.7421  1.1212
 1762TIP3    H226846   2.602   0.245   8.883  1.1907 -1.2017  1.5855
 1763TIP3   OH226847   0.707   2.088   2.748  0.1667 -0.2932 -0.1823
 1763TIP3    H126848   0.622   2.127   2.729  0.4639  0.8091  0.6671
 1763TIP3    H226849   0.705   2.070   2.842  1.4762  1.3238  0.1986
 1764TIP3   OH226850   1.527   2.330   1.731 -0.4201  0.4433 -0.0453
 1764TIP3    H126851   1.575   2.289   1.803  0.7978  1.9881  0.0843
 1764TIP3    H226852   1.486   2.408   1.770 -0.6667  0.6926 -0.7810
 1765TIP3   OH226853   4.856   1.614   2.181  0.3171  0.1384  0.5596
 1765TIP3    H126854   4.819   1.671   2.249  1.8604  0.8006  0.8897
 1765TIP3    H226855   4.895   1.675   2.118  0.4165 -0.5231 -0.0244
 1766TIP3   OH226856   0.106   0.890   0.909 -0.4015  0.4274 -0.6549
 1766TIP3    H126857   0.073   0.806   0.938 -0.4813  0.5895 -0.2762
 1766TIP3    H226858   0.129   0.936   0.990  0.8481  0.2765 -0.8958
 1767TIP3   OH226859   2.732   1.528   0.986  0.4261 -0.2280 -0.1428
 1767TIP3    H126860   2.818   1.555   1.017 -0.0833 -0.0066  1.1074
 1767TIP3    H226861   2.671   1.589   1.026 -0.2605  0.1941 -1.7392
 1768TIP3   OH226862   4.564   1.233   2.450  0.0047  0.5419 -0.3711
 1768TIP3    H126863   4.540   1.283   2.528  0.0622 -1.7340  1.1916
 1768TIP3    H226864   4.610   1.296   2.394 -0.1677  2.2767  1.3604
 1769TIP3   OH226865   0.462   1.994   2.282  0.0037 -0.0477  0.0849
 1769TIP3    H126866   0.380   2.021   2.240  0.0036  0.0047  0.1182
 1769TIP3    H226867   0.443   1.997   2.376 -0.2054 -0.8453  0.0701
 1770TIP3   OH226868   4.506   3.178   2.618  0.4071  0.4911  0.0387
 1770TIP3    H126869   4.509   3.165   2.713 -2.3392 -0.9610  0.0019
 1770TIP3    H226870   4.583   3.233   2.600  2.6364 -1.4286  2.6968
 1771TIP3   OH226871   3.944   3.561   1.225  0.0875  0.0624 -0.1789
 1771TIP3    H126872   3.911   3.472   1.220  0.1818  0.0228 -0.1100
 1771TIP3    H226873   3.982   3.567   1.313  3.0413 -0.8703 -1.2631
 1772TIP3   OH226874   2.154   1.565   2.199  0.1254  0.0883 -0.5829
 1772TIP3    H126875   2.202   1.527   2.125 -0.7004  1.6770 -2.0185
 1772TIP3    H226876   2.197   1.650   2.214  0.3139 -0.2314  0.8448
 1773TIP3   OH226877   6.534   5.006   7.166  0.4539 -0.3462  0.1452
 1773TIP3    H126878   6.584   5.070   7.217 -0.3937 -0.3273  0.9760
 1773TIP3    H226879   6.595   4.977   7.098  0.6359  1.8826 -0.7320
 1774TIP3   OH226880   2.649   0.123   1.319  0.1280 -0.0405  1.0023
 1774TIP3    H126881   2.627   0.050   1.377  0.1770 -2.3622 -1.6412
 1774TIP3    H226882   2.565   0.147   1.278  0.4468 -0.1848  0.2396
 1775TIP3   OH226883   0.329   5.573   2.411  0.4310 -0.2745  0.1050
 1775TIP3    H126884   0.372   5.614   2.486 -1.2766  0.5055  0.7056
 1775TIP3    H226885   0.384   5.597   2.336  1.5847 -0.1777  0.9586
 1776TIP3   OH226886   4.456   0.266   2.659  0.5029 -0.0953  0.8168
 1776TIP3    H126887   4.412   0.181   2.647 -0.4682  0.4611  0.3482
 1776TIP3    H226888   4.385   0.327   2.679  1.0715  0.8108  0.1320
 1777TIP3   OH226889   5.848   4.186   8.536 -0.2113 -0.9015 -0.5090
 1777TIP3    H126890   5.782   4.173   8.604 -2.8361 -0.4829 -2.7809
 1777TIP3    H226891   5.863   4.281   8.534  0.2910 -0.9687 -0.1786
 1778TIP3   OH226892   1.179   1.490   3.213  0.5862 -0.2642  0.1382
 1778TIP3    H126893   1.097   1.443   3.198  0.3676  0.0306  0.3993
 1778TIP3    H226894   1.215   1.453   3.293  0.2790  0.1926  0.4924
 1779TIP3   OH226895   1.512   5.848   3.187  0.1318  0.4295 -0.1410
 1779TIP3    H126896   1.586   5.891   3.231  0.9969  0.1640 -1.2988
 1779TIP3    H226897   1.435   5.879   3.235  0.9378  1.2029  0.7019
 1780TIP3   OH226898   1.922   6.664   1.818  0.1137 -0.4879 -0.2706
 1780TIP3    H126899   1.954   6.669   1.909  0.4785 -1.2889 -0.3477
 1780TIP3    H226900   1.839   6.617   1.825 -0.0002 -0.2964 -0.3231
 1781TIP3   OH226901   1.388   2.035   1.077  0.1096 -0.2277 -0.4837
 1781TIP3    H126902   1.432   2.052   0.994 -0.2078 -0.5726 -0.7194
 1781TIP3    H226903   1.316   1.977   1.056  0.7656 -1.3394  0.2092
 1782TIP3   OH226904   4.846   1.361   2.448  0.5084  0.4685  0.2380
 1782TIP3    H126905   4.883   1.277   2.420 -0.1008 -0.3707  1.8253
 1782TIP3    H226906   4.878   1.374   2.537  0.4691  1.8668  0.0727
 1783TIP3   OH226907   0.343   0.717   0.805  0.8276  0.4917 -0.3733
 1783TIP3    H126908   0.360   0.764   0.724  1.4835  2.1478  0.6758
 1783TIP3    H226909   0.291   0.778   0.858 -0.5255 -0.9638  0.0590
 1784TIP3   OH226910   6.489   1.836   2.556  0.1607 -0.3648  0.3475
 1784TIP3    H126911   6.420   1.846   2.621 -0.4016  0.2044 -0.3219
 1784TIP3    H226912   6.570   1.842   2.606 -0.2465  0.7005  0.9218
 1785TIP3   OH226913   6.233   0.921   0.412 -0.3903 -0.1114 -0.1524
 1785TIP3    H126914   6.308   0.977   0.391 -0.3769 -0.7427 -1.9206
 1785TIP3    H226915   6.257   0.835   0.379 -0.2005 -1.3795  2.9649
 1786TIP3   OH226916   2.798   1.345   0.761 -0.0111 -0.2823 -0.4982
 1786TIP3    H126917   2.741   1.351   0.684 -0.7178  0.6162  0.0744
 1786TIP3    H226918   2.755   1.399   0.827  1.3304  0.1549  0.0622
 1787TIP3   OH226919   5.808   3.768   0.221 -0.0526 -0.2046  0.6155
 1787TIP3    H126920   5.831   3.861   0.227  2.7677 -0.6477 -1.2092
 1787TIP3    H226921   5.713   3.766   0.227 -0.2354  2.8465  0.2774
 1788TIP3   OH226922   2.905   0.146   0.624  0.3476 -0.3305 -0.0432
 1788TIP3    H126923   2.913   0.236   0.591  1.4438 -0.1106  0.7665
 1788TIP3    H226924   2.877   0.156   0.714  4.4724 -0.5062  1.4880
 1789TIP3   OH226925   0.941   5.360   0.970  0.1572 -0.2334  0.3541
 1789TIP3    H126926   0.927   5.280   0.920  0.4378 -0.0655  0.0002
 1789TIP3    H226927   0.957   5.330   1.059 -0.0609 -0.5517  0.2879
 1790TIP3   OH226928   3.641   1.042   7.453 -0.1728 -0.1456  0.2487
 1790TIP3    H126929   3.616   0.974   7.391 -0.6765 -0.4913  0.8238
 1790TIP3    H226930   3.620   1.124   7.408 -2.2056 -0.4136  0.6342
 1791TIP3   OH226931   6.629   3.174   2.750  0.1424  0.4166  0.1387
 1791TIP3    H126932   6.607   3.081   2.755  0.5904  0.2813 -0.3351
 1791TIP3    H226933   6.651   3.199   2.840  0.7852 -0.1233  0.1370
 1792TIP3   OH226934   2.370   6.095   2.051  0.3441 -0.1499 -0.1773
 1792TIP3    H126935   2.417   6.018   2.020  0.6506  0.7106 -1.9355
 1792TIP3    H226936   2.321   6.063   2.127  2.0183 -1.5910  0.3822
 1793TIP3   OH226937   2.624   2.821   7.780 -0.1620 -0.0231  0.0813
 1793TIP3    H126938   2.688   2.761   7.818  1.1276  1.2123 -0.0916
 1793TIP3    H226939   2.621   2.797   7.688 -1.9719 -1.8352  0.5376
 1794TIP3   OH226940   4.654   3.597   8.713 -0.0831  0.1390 -0.4661
 1794TIP3    H126941   4.731   3.587   8.657  0.6999 -0.2207  0.6219
 1794TIP3    H226942   4.651   3.516   8.763  0.1122  1.0091  1.0268
 1795TIP3   OH226943   5.388   3.564   0.380  0.3565 -0.4149  0.1024
 1795TIP3    H126944   5.467   3.515   0.402  0.5104 -0.4278 -0.4517
 1795TIP3    H226945   5.328   3.549   0.453  1.4522  0.9073  1.3215
 1796TIP3   OH226946   3.121   1.657   0.800  0.0568 -0.2896 -0.0187
 1796TIP3    H126947   3.176   1.731   0.772 -1.3443  0.5767 -0.6155
 1796TIP3    H226948   3.049   1.657   0.737 -2.0351  0.2777  2.2586
 1797TIP3   OH226949   6.151   0.202   1.482  0.2246 -0.8224  0.2528
 1797TIP3    H126950   6.190   0.137   1.541  0.1111 -0.0069  1.2574
 1797TIP3    H226951   6.224   0.260   1.460  0.5460 -1.7947 -1.4054
 1798TIP3   OH226952   0.625   5.430   1.844 -0.0405  0.3449 -0.2676
 1798TIP3    H126953   0.539   5.409   1.881  0.2094 -0.0457  0.1011
 1798TIP3    H226954   0.638   5.364   1.776  0.4580 -0.3063  0.4458
 1799TIP3   OH226955   3.451   1.472   7.795  0.1324  0.4546  0.0817
 1799TIP3    H126956   3.429   1.551   7.746 -0.0095  0.1973 -0.2817
 1799TIP3    H226957   3.409   1.484   7.880 -2.6176 -0.5649 -0.9916
 1800TIP3   OH226958   1.968   3.154   1.055  0.2935  0.6203 -0.1442
 1800TIP3    H126959   2.054   3.114   1.067  0.1737  0.3342 -0.2114
 1800TIP3    H226960   1.974   3.199   0.971  0.4404  0.7763 -0.0523
 1801TIP3   OH226961   1.020   3.933   8.166  0.7085 -0.0931 -0.6850
 1801TIP3    H126962   0.995   4.008   8.220  0.4903 -1.2415  0.8852
 1801TIP3    H226963   1.116   3.937   8.161  0.7131  0.1526 -0.3954
 1802TIP3   OH226964   5.337   3.364   2.258 -0.1144 -0.3837  0.2777
 1802TIP3    H126965   5.429   3.388   2.248 -1.0023  3.4749  0.0485
 1802TIP3    H226966   5.324   3.291   2.197  2.0959  1.0802 -2.1341
 1803TIP3   OH226967   3.994   0.844   1.873  0.0789  0.6365  0.4849
 1803TIP3    H126968   4.011   0.898   1.950  1.4656 -2.4111  2.4985
 1803TIP3    H226969   3.908   0.805   1.890 -0.2341  1.0248 -0.1959
 1804TIP3   OH226970   5.275   0.712   0.102 -0.5632  0.0490  0.1604
 1804TIP3    H126971   5.262   0.692   0.009 -1.3937  1.2871 -0.0142
 1804TIP3    H226972   5.328   0.792   0.102  0.9842 -0.9211  0.8067
 1805TIP3   OH226973   0.713   1.580   0.841  0.4045  0.7174  0.2878
 1805TIP3    H126974   0.740   1.672   0.831 -1.1332  1.1540 -0.1682
 1805TIP3    H226975   0.755   1.535   0.768  0.0761  1.3310 -0.2935
 1806TIP3   OH226976   3.981   4.208   7.519 -0.0403 -0.0223 -0.1953
 1806TIP3    H126977   3.939   4.293   7.538 -0.6160 -0.5404  0.9956
 1806TIP3    H226978   3.944   4.181   7.435 -1.2322  0.0849  0.2760
 1807TIP3   OH226979   5.923   6.015   1.870  0.0209 -0.3170 -0.5428
 1807TIP3    H126980   5.979   6.054   1.937  1.2802 -2.6288 -0.1124
 1807TIP3    H226981   5.961   6.044   1.787 -0.9350  1.7445 -0.3046
 1808TIP3   OH226982   4.235   0.825   8.786 -0.3943 -0.1583  0.1044
 1808TIP3    H126983   4.144   0.851   8.799 -0.1814  0.2508  0.8252
 1808TIP3    H226984   4.275   0.833   8.872 -0.0003 -1.6790  0.0974
 1809TIP3   OH226985   1.309   6.195   0.077  0.0095  0.4260 -0.2359
 1809TIP3    H126986   1.383   6.217   0.134  2.2818 -1.3018 -2.2894
 1809TIP3    H226987   1.318   6.254   0.002 -1.3204  0.8667 -0.0701
 1810TIP3   OH226988   4.644   0.203   7.891  0.2326  0.2136 -0.0935
 1810TIP3    H126989   4.572   0.165   7.942  0.4724 -1.2949 -0.8048
 1810TIP3    H226990   4.634   0.164   7.804  0.3829  2.0190 -0.9553
 1811TIP3   OH226991   0.973   2.300   3.664  0.3120  0.0424  0.3459
 1811TIP3    H126992   0.949   2.208   3.677 -0.0369 -0.1087 -1.1954
 1811TIP3    H226993   1.032   2.299   3.588  2.2469  0.8429  1.7298
 1812TIP3   OH226994   4.842   5.266   2.520  0.0465  0.4375  0.2979
 1812TIP3    H126995   4.907   5.267   2.590 -1.4861  0.6160  1.7805
 1812TIP3    H226996   4.830   5.173   2.499  0.5901  0.3927  0.1769
 1813TIP3   OH226997   5.518   1.451   3.172  0.3752 -0.6252 -0.7036
 1813TIP3    H126998   5.505   1.526   3.115  1.4102 -1.0562 -1.5533
 1813TIP3    H226999   5.430   1.421   3.194 -0.1040  1.5902  0.7288
 1814TIP3   OH227000   6.285   6.176   7.971 -0.1851  0.4567  0.2792
 1814TIP3    H127001   6.215   6.199   7.910 -1.0474 -1.1101  0.6013
 1814TIP3    H227002   6.269   6.084   7.991 -0.3418  1.0620  3.3763
 1815TIP3   OH227003   0.101   2.679   8.529 -0.4755 -0.0297  0.5000
 1815TIP3    H127004   0.107   2.651   8.438  0.0171 -0.5663  0.6914
 1815TIP3    H227005   0.019   2.728   8.534 -0.5396 -0.0579 -0.2122
 1816TIP3   OH227006   1.206   0.271   7.798  0.1277  0.3904 -0.0527
 1816TIP3    H127007   1.205   0.360   7.762  2.1825 -0.0040 -1.2280
 1816TIP3    H227008   1.272   0.274   7.867  1.3253 -0.5392 -1.1137
 1817TIP3   OH227009   4.705   3.389   0.939  0.0054 -0.3679  0.4965
 1817TIP3    H127010   4.734   3.299   0.947  0.5422 -0.1422  1.1425
 1817TIP3    H227011   4.617   3.390   0.975 -1.0077 -1.1314 -1.7946
 1818TIP3   OH227012   2.630   3.755   1.004  0.7566 -0.2825  0.3862
 1818TIP3    H127013   2.574   3.832   1.012 -0.0612 -0.9813  1.9557
 1818TIP3    H227014   2.626   3.713   1.090  3.1391 -0.7751  0.3293
 1819TIP3   OH227015   6.181   4.054   7.406  0.1278  0.0464  0.1285
 1819TIP3    H127016   6.153   4.029   7.318  0.8767 -1.0627  0.1807
 1819TIP3    H227017   6.191   4.149   7.402  0.0802  0.0198 -0.9606
 1820TIP3   OH227018   0.372   2.800   1.357 -0.0995 -0.2416  0.4260
 1820TIP3    H127019   0.299   2.769   1.304  1.2693 -2.7580 -0.1386
 1820TIP3    H227020   0.350   2.891   1.377 -1.5726  0.2743 -2.8760
 1821TIP3   OH227021   2.781   3.045   1.418 -0.1414 -0.2141 -0.7017
 1821TIP3    H127022   2.781   3.119   1.479  0.2477  1.0379 -2.1396
 1821TIP3    H227023   2.701   2.997   1.436  0.5717 -0.6242  1.6211
 1822TIP3   OH227024   3.318   2.954   2.654  0.2243 -0.1773  0.6411
 1822TIP3    H127025   3.322   3.008   2.575 -0.5422  1.7620  1.8480
 1822TIP3    H227026   3.355   2.870   2.628  2.0445  1.1063 -1.1935
 1823TIP3   OH227027   6.103   1.800   0.397  0.3379  0.2599  0.3773
 1823TIP3    H127028   6.056   1.883   0.383 -1.1406 -0.4982  0.6763
 1823TIP3    H227029   6.183   1.809   0.345 -0.6559  1.1674 -1.0717
 1824TIP3   OH227030   3.104   1.422   2.199 -0.7611 -0.5375  0.1822
 1824TIP3    H127031   3.076   1.463   2.281 -2.5128  1.5312 -1.3116
 1824TIP3    H227032   3.188   1.463   2.178 -0.7852 -0.3414  0.4719
 1825TIP3   OH227033   1.403   6.473   2.947 -0.0681 -0.0445  0.4100
 1825TIP3    H127034   1.471   6.524   2.989 -0.7284  1.1797  0.0450
 1825TIP3    H227035   1.327   6.481   3.004 -0.9234  1.4988 -0.8555
 1826TIP3   OH227036   2.288   3.034   1.686 -0.3745 -0.2078  0.8575
 1826TIP3    H127037   2.329   3.098   1.745 -2.9714  2.2322  0.2117
 1826TIP3    H227038   2.244   2.972   1.744 -2.4773  1.8657  1.6110
 1827TIP3   OH227039   3.875   5.914   7.382 -0.0714 -0.1868  0.6303
 1827TIP3    H127040   3.814   5.962   7.438 -0.3109  0.5633 -0.2435
 1827TIP3    H227041   3.957   5.963   7.389  0.0263 -0.3542  0.6714
 1828TIP3   OH227042   3.921   5.426   2.451  0.3038  0.9261 -0.1198
 1828TIP3    H127043   4.010   5.398   2.428  0.4331  1.0472  0.2252
 1828TIP3    H227044   3.892   5.363   2.517  0.0497  0.7614 -0.3840
 1829TIP3   OH227045   0.845   4.870   7.119  0.2055  0.2105 -0.1609
 1829TIP3    H127046   0.788   4.896   7.047  0.4781 -0.3874 -0.6009
 1829TIP3    H227047   0.787   4.826   7.181  0.0587  0.2653 -0.2592
 1830TIP3   OH227048   3.945   6.761   1.972  0.2601  0.5959 -0.0102
 1830TIP3    H127049   3.932   6.729   1.882  0.9308  1.0809 -0.2894
 1830TIP3    H227050   3.907   6.849   1.970 -1.8974 -0.2367  0.8432
 1831TIP3   OH227051   0.906   3.588   7.649 -0.5615 -0.8036  0.4527
 1831TIP3    H127052   0.964   3.660   7.675 -2.1579  0.3191  1.0875
 1831TIP3    H227053   0.960   3.509   7.658  0.7810  0.1562  1.2439
 1832TIP3   OH227054   0.049   6.187   2.652  0.1938 -0.5325  0.2692
 1832TIP3    H127055   0.137   6.150   2.648  0.5080  0.2374 -0.0670
 1832TIP3    H227056  -0.006   6.114   2.682  0.9142 -1.0599  0.3404
 1833TIP3   OH227057   5.107   3.901   1.299  0.9469 -0.1511 -0.1396
 1833TIP3    H127058   5.139   3.991   1.291 -1.2313  0.6424 -0.5419
 1833TIP3    H227059   5.067   3.898   1.386  0.3031 -0.4611 -0.4378
 1834TIP3   OH227060   0.465   3.605   1.743 -0.7884 -0.3885  0.2920
 1834TIP3    H127061   0.529   3.673   1.763  1.1506 -0.8946 -3.3687
 1834TIP3    H227062   0.397   3.651   1.693 -1.6552 -0.4664  1.3592
 1835TIP3   OH227063   1.589   6.659   1.840 -0.0605 -0.1403 -0.2504
 1835TIP3    H127064   1.646   6.629   1.770 -0.2508  0.5097 -0.6989
 1835TIP3    H227065   1.616   6.750   1.855  0.6191 -0.5611  1.1872
 1836TIP3   OH227066   5.615   0.310   1.555 -0.1745  0.5150  0.1693
 1836TIP3    H127067   5.650   0.386   1.601 -0.9027  2.5335 -2.3420
 1836TIP3    H227068   5.690   0.252   1.542  0.3127  0.5184  2.5040
 1837TIP3   OH227069   6.504   1.400   1.665  0.0687 -0.8596  0.2010
 1837TIP3    H127070   6.578   1.459   1.671  1.4501 -2.3854 -0.9181
 1837TIP3    H227071   6.459   1.424   1.584  0.8056 -1.4939 -0.4118
 1838TIP3   OH227072   2.210   1.218   1.343  0.0560  0.2360 -0.4009
 1838TIP3    H127073   2.282   1.154   1.342  0.1042  0.2632  0.4597
 1838TIP3    H227074   2.134   1.167   1.370  0.0936  0.5304  0.2853
 1839TIP3   OH227075   2.914   4.176   2.330  0.0921  0.2673 -0.1837
 1839TIP3    H127076   2.832   4.150   2.373  0.6809 -0.1164  0.7341
 1839TIP3    H227077   2.933   4.105   2.270  0.0255  0.1050 -0.0134
 1840TIP3   OH227078   6.425   6.710   8.205 -0.2595 -0.9665  0.4018
 1840TIP3    H127079   6.388   6.682   8.122 -0.3553  1.6241 -0.5195
 1840TIP3    H227080   6.509   6.750   8.183 -0.9056  1.0484  1.2843
 1841TIP3   OH227081   6.152   5.399   0.033  0.2619 -0.7626  0.3510
 1841TIP3    H127082   6.208   5.437  -0.034  0.6325 -1.8627  0.0142
 1841TIP3    H227083   6.067   5.389  -0.010  0.4952 -1.4546  0.0357
 1842TIP3   OH227084   3.080   5.916   0.703  0.0575  0.1444 -0.6089
 1842TIP3    H127085   3.089   5.959   0.617 -2.1670 -0.3339 -1.1546
 1842TIP3    H227086   2.986   5.919   0.721 -0.4327 -4.9950 -0.9825
 1843TIP3   OH227087   2.008   2.274   0.611  0.6628  0.2189 -0.6671
 1843TIP3    H127088   2.042   2.364   0.608  0.2727  0.3562 -1.2670
 1843TIP3    H227089   2.086   2.219   0.607  0.9509  0.5221  0.4126
 1844TIP3   OH227090   2.250   4.322   3.072 -0.1475 -0.3917  0.0777
 1844TIP3    H127091   2.219   4.411   3.083  0.3343 -0.2568  0.4246
 1844TIP3    H227092   2.339   4.324   3.107 -0.1544 -1.0189  0.1425
 1845TIP3   OH227093   3.846   4.918   8.461  0.1019 -0.8850 -0.5683
 1845TIP3    H127094   3.762   4.920   8.506 -0.0310  0.8376 -0.8140
 1845TIP3    H227095   3.832   4.863   8.384 -0.8146 -0.6191 -0.5999
 1846TIP3   OH227096   0.488   1.084   0.950 -0.3702 -0.0468  0.1279
 1846TIP3    H127097   0.430   1.087   0.873 -1.9076 -1.1270  1.1965
 1846TIP3    H227098   0.472   1.168   0.994 -1.6244 -0.5828  0.7379
 1847TIP3   OH227099   5.111   4.324   0.790 -0.2870  0.0202 -0.9681
 1847TIP3    H127100   5.197   4.364   0.794 -0.4238  0.1848  1.1791
 1847TIP3    H227101   5.053   4.393   0.757 -0.2848  1.2414  1.4227
 1848TIP3   OH227102   4.690   0.124   2.279 -0.0561  0.2417  0.2111
 1848TIP3    H127103   4.604   0.139   2.239  0.2830 -1.8370 -1.4842
 1848TIP3    H227104   4.743   0.197   2.247 -0.3958 -0.1552 -1.3586
 1849TIP3   OH227105   6.207   3.212   1.601 -0.0538 -0.4421 -0.3900
 1849TIP3    H127106   6.250   3.133   1.567  1.8039  0.1559  0.4176
 1849TIP3    H227107   6.129   3.179   1.646  1.0540 -1.9195  0.5405
 1850TIP3   OH227108   4.724   3.623   0.557 -0.0183  0.1640 -0.1676
 1850TIP3    H127109   4.774   3.550   0.594 -0.3048 -0.0783 -0.2628
 1850TIP3    H227110   4.777   3.700   0.579  0.1727 -0.0455  0.1284
 1851TIP3   OH227111   0.115   3.061   2.166 -0.2395 -0.3901 -0.0984
 1851TIP3    H127112   0.029   3.021   2.177  0.1839 -1.0495  1.0465
 1851TIP3    H227113   0.157   3.009   2.097  0.2967 -1.9903  1.3592
 1852TIP3   OH227114   3.522   1.850   0.504  0.1187  0.3423 -0.5850
 1852TIP3    H127115   3.580   1.808   0.567  0.4818 -0.4513 -1.4320
 1852TIP3    H227116   3.577   1.865   0.427 -0.9153 -0.9813 -1.6383
 1853TIP3   OH227117   6.587   6.472   8.602  0.4015 -0.1847  0.1385
 1853TIP3    H127118   6.544   6.434   8.525  0.7292  0.3395 -0.3129
 1853TIP3    H227119   6.678   6.445   8.594  0.5599  0.3678  0.0154
 1854TIP3   OH227120   4.041   2.009   0.649  0.9279 -0.1240  0.4222
 1854TIP3    H127121   4.040   1.984   0.556 -0.2580 -0.7297  0.5824
 1854TIP3    H227122   4.054   1.927   0.696 -0.7035 -0.1699  0.8588
 1855TIP3   OH227123   2.655   3.715   7.905 -0.3212  0.3764 -0.4714
 1855TIP3    H127124   2.721   3.668   7.855  0.0589  0.2745  0.1067
 1855TIP3    H227125   2.628   3.787   7.848  0.2312  0.3712 -0.7493
 1856TIP3   OH227126   6.061   3.738   2.500 -0.3679 -0.1581  0.1901
 1856TIP3    H127127   6.119   3.686   2.445  0.4450 -0.7456  1.5315
 1856TIP3    H227128   6.032   3.677   2.568  0.7542  1.1341  1.9223
 1857TIP3   OH227129   2.071   3.049   0.421 -0.0127 -0.2030  0.7206
 1857TIP3    H127130   2.133   3.099   0.474 -0.8764 -1.4900  3.0946
 1857TIP3    H227131   1.985   3.079   0.449 -0.5416  0.4518 -1.4202
 1858TIP3   OH227132   5.488   2.758   2.187 -0.1075  0.3019 -0.2969
 1858TIP3    H127133   5.544   2.801   2.251 -1.0626  2.5905 -0.9060
 1858TIP3    H227134   5.449   2.685   2.234  1.3915  0.1874  0.8571
 1859TIP3   OH227135   1.898   6.509   8.051 -0.2060 -0.5927 -0.5676
 1859TIP3    H127136   1.858   6.570   8.112  0.2342 -0.1175 -0.7456
 1859TIP3    H227137   1.828   6.486   7.990 -0.7173 -1.2764  0.2529
 1860TIP3   OH227138   5.457   0.876   8.356 -0.5848  0.4413  0.3159
 1860TIP3    H127139   5.550   0.858   8.339 -0.7738  0.6063 -0.9249
 1860TIP3    H227140   5.457   0.961   8.400 -0.1878  0.6695 -0.1229
 1861TIP3   OH227141   1.079   4.198   0.487  0.6349  0.4016 -0.1115
 1861TIP3    H127142   1.077   4.105   0.466 -3.7371  0.2968  0.0175
 1861TIP3    H227143   1.075   4.201   0.583 -0.1736  0.6858 -0.1489
 1862TIP3   OH227144   3.631   0.954   2.326  0.5416  0.3243  0.3860
 1862TIP3    H127145   3.576   0.884   2.291 -0.9869  0.7341  1.8272
 1862TIP3    H227146   3.699   0.908   2.375  1.1609 -0.1769 -0.8860
 1863TIP3   OH227147   3.508   2.410   0.492 -0.0457  0.2718  0.1524
 1863TIP3    H127148   3.493   2.501   0.519  1.4524  0.2654  1.0653
 1863TIP3    H227149   3.600   2.394   0.512 -0.7548 -2.0786  1.8395
 1864TIP3   OH227150   4.629   5.459   2.651  0.1422 -0.0045  0.0040
 1864TIP3    H127151   4.697   5.444   2.584  1.0572  1.1743  0.6207
 1864TIP3    H227152   4.632   5.554   2.666  1.4471 -0.4372  3.2040
 1865TIP3   OH227153   1.409   3.306   1.746 -0.0476 -0.5714  0.6335
 1865TIP3    H127154   1.395   3.211   1.750  1.2850 -0.8522 -0.5435
 1865TIP3    H227155   1.449   3.321   1.661 -1.3198  1.2360  0.2873
 1866TIP3   OH227156   0.941   5.510   7.933 -0.6427 -0.6558  0.2687
 1866TIP3    H127157   0.916   5.510   7.840  0.9358  0.1637 -0.1893
 1866TIP3    H227158   0.955   5.417   7.954 -2.4455 -0.9963  0.1354
 1867TIP3   OH227159   0.845   5.361   1.520  0.4013  0.1000 -0.1405
 1867TIP3    H127160   0.923   5.307   1.533  0.5152  0.2468 -0.2141
 1867TIP3    H227161   0.772   5.303   1.542  0.5445  0.0532  0.2214
 1868TIP3   OH227162   1.491   2.529   0.214 -0.1027  0.1003  0.5316
 1868TIP3    H127163   1.571   2.529   0.266 -0.6963  0.1417  1.4752
 1868TIP3    H227164   1.429   2.580   0.266  0.1346  2.7597 -1.6065
 1869TIP3   OH227165   3.844   4.244   3.121 -0.3906 -0.1206 -0.1869
 1869TIP3    H127166   3.792   4.175   3.081 -1.6770 -0.0611  1.2905
 1869TIP3    H227167   3.873   4.298   3.047 -2.0100 -0.4583 -1.1233
 1870TIP3   OH227168   6.383   3.212   1.988 -0.0902  0.3664 -0.0545
 1870TIP3    H127169   6.469   3.210   1.945 -0.5734  1.2312 -1.0981
 1870TIP3    H227170   6.372   3.303   2.014 -0.9437  0.3846 -0.4569
 1871TIP3   OH227171   3.389   3.025   1.399 -0.1384  0.1160 -0.0573
 1871TIP3    H127172   3.413   2.973   1.322 -2.7096 -0.3496 -0.6378
 1871TIP3    H227173   3.390   2.963   1.472  1.1690  0.3030  0.1084
 1872TIP3   OH227174   6.328   0.668   8.317 -0.6033 -0.3097 -0.1239
 1872TIP3    H127175   6.404   0.704   8.272 -1.5348  1.5408 -0.3101
 1872TIP3    H227176   6.361   0.642   8.403  0.0631  1.4845  0.2036
 1873TIP3   OH227177   0.317   4.131   3.079 -0.3992 -0.4126 -0.4976
 1873TIP3    H127178   0.340   4.209   3.129  0.2276 -0.2195 -1.0839
 1873TIP3    H227179   0.223   4.121   3.092 -0.8012  1.3635 -1.7214
 1874TIP3   OH227180   3.315   1.576   8.695 -0.1989 -0.2905 -0.4242
 1874TIP3    H127181   3.274   1.643   8.750 -2.5693 -1.1683 -0.9810
 1874TIP3    H227182   3.249   1.557   8.628  0.8700 -2.3482 -0.9779
 1875TIP3   OH227183   2.258   3.475   8.576  0.3213 -0.3036 -0.3759
 1875TIP3    H127184   2.196   3.536   8.615 -1.5340 -1.4830 -1.3322
 1875TIP3    H227185   2.281   3.515   8.492 -2.0464 -1.4990 -1.6874
 1876TIP3   OH227186   5.300   2.010   7.468  0.3142  0.3615 -0.0770
 1876TIP3    H127187   5.363   1.957   7.516 -0.7404  0.3689  1.3844
 1876TIP3    H227188   5.353   2.076   7.423  1.5205 -1.0588 -0.8383
 1877TIP3   OH227189   4.938   6.646   0.586  0.3148  0.0567 -0.3069
 1877TIP3    H127190   4.939   6.715   0.652 -0.2992 -0.2350  0.0193
 1877TIP3    H227191   4.858   6.662   0.535  0.3958 -0.1607 -0.5067
 1878TIP3   OH227192   3.391   5.818   2.181  1.0312  0.0053 -0.2064
 1878TIP3    H127193   3.334   5.789   2.109 -0.7053 -1.3408  1.5815
 1878TIP3    H227194   3.479   5.793   2.154  0.5712  0.4252 -2.2559
 1879TIP3   OH227195   1.405   2.358   0.884  0.4213  0.2545  0.8135
 1879TIP3    H127196   1.402   2.414   0.807  0.9367 -0.1184  0.5213
 1879TIP3    H227197   1.497   2.356   0.909  0.4357 -0.6120  0.7110
 1880TIP3   OH227198   0.421   1.272   2.411 -0.3601 -0.1869 -0.2365
 1880TIP3    H127199   0.485   1.316   2.356  0.1524 -1.3675 -0.6113
 1880TIP3    H227200   0.466   1.255   2.493 -0.4465 -0.2885 -0.2086
 1881TIP3   OH227201   5.584   5.261   0.513  0.5020 -0.1386  0.4198
 1881TIP3    H127202   5.650   5.264   0.582  2.5560  0.0535 -1.4607
 1881TIP3    H227203   5.619   5.316   0.443 -1.4760 -0.3554 -0.8416
 1882TIP3   OH227204   1.873   1.385   0.905 -0.2958  0.5648 -0.9616
 1882TIP3    H127205   1.781   1.381   0.934 -0.8263 -0.1614 -2.6009
 1882TIP3    H227206   1.912   1.304   0.938 -0.4809  0.4549 -1.0121
 1883TIP3   OH227207   5.679   6.479   8.880  0.0616  0.1946  0.0835
 1883TIP3    H127208   5.721   6.559   8.848  1.3230  0.4888  2.2882
 1883TIP3    H227209   5.738   6.409   8.853  0.3791  0.3004  0.4874
 1884TIP3   OH227210   2.784   0.156   3.005 -0.1916  0.1515  0.0521
 1884TIP3    H127211   2.803   0.087   2.942 -0.8343 -0.7583  0.8193
 1884TIP3    H227212   2.870   0.188   3.034  0.1972 -1.8357  1.2875
 1885TIP3   OH227213   6.278   2.356   1.729 -0.1504  0.3411 -0.0705
 1885TIP3    H127214   6.330   2.384   1.655 -0.1532  2.0240  0.5336
 1885TIP3    H227215   6.302   2.264   1.742  1.7328  0.7244 -0.5720
 1886TIP3   OH227216   2.624   6.287   8.251  0.2382 -0.7701 -0.5472
 1886TIP3    H127217   2.650   6.199   8.278 -0.5045 -1.1183 -0.9498
 1886TIP3    H227218   2.533   6.295   8.279 -0.4075 -0.9657 -2.4974
 1887TIP3   OH227219   0.466   5.242   2.116 -0.2135 -0.3000  0.4409
 1887TIP3    H127220   0.550   5.200   2.097  0.7160  1.0053  1.4880
 1887TIP3    H227221   0.484   5.297   2.193 -2.0148  0.0587  0.6410
 1888TIP3   OH227222   4.363   4.333   7.900 -0.6291 -0.3607 -0.0619
 1888TIP3    H127223   4.333   4.250   7.863 -2.6138  0.2762  0.0219
 1888TIP3    H227224   4.343   4.327   7.993  1.0406 -0.5352  0.3126
 1889TIP3   OH227225   2.274   0.437   8.876  0.4784 -0.8218 -0.6078
 1889TIP3    H127226   2.180   0.438   8.895  0.7583 -1.4723  1.0213
 1889TIP3    H227227   2.307   0.364   8.928  2.2129  0.7079  0.5398
 1890TIP3   OH227228   1.336   5.869   2.369  0.4004 -0.0327 -0.6189
 1890TIP3    H127229   1.408   5.930   2.355 -1.6733  2.7206 -0.1914
 1890TIP3    H227230   1.316   5.836   2.281  0.7453  0.9400 -1.0787
 1891TIP3   OH227231   6.632   0.274   0.172  0.2111 -0.3488 -0.2189
 1891TIP3    H127232   6.695   0.310   0.234  0.3650 -1.1710  0.1279
 1891TIP3    H227233   6.589   0.350   0.134  1.7935  0.2662 -0.8803
 1892TIP3   OH227234   5.085   2.287   7.496  0.1852 -0.2361 -0.0266
 1892TIP3    H127235   5.169   2.320   7.529  0.7949 -1.9224  0.2601
 1892TIP3    H227236   5.025   2.360   7.504  1.5814  0.9560 -0.0322
 1893TIP3   OH227237   1.450   1.253   0.533 -0.3911  0.1182  0.1231
 1893TIP3    H127238   1.500   1.220   0.459  0.7455  1.0792  0.4237
 1893TIP3    H227239   1.377   1.301   0.493  0.8019  1.5486 -0.4556
 1894TIP3   OH227240   3.150   0.518   1.381 -0.0041  0.0466  0.2269
 1894TIP3    H127241   3.090   0.527   1.307 -0.4691  0.5768  0.6593
 1894TIP3    H227242   3.233   0.491   1.342 -0.9998 -2.6262 -0.2242
 1895TIP3   OH227243   3.343   2.238   2.420 -1.0294  0.2686  0.0811
 1895TIP3    H127244   3.301   2.318   2.389 -1.0895  0.9304  1.7459
 1895TIP3    H227245   3.424   2.268   2.463 -1.2960 -0.4911  1.1674
 1896TIP3   OH227246   4.459   6.010   8.574 -0.0135 -0.6698 -0.5798
 1896TIP3    H127247   4.401   5.952   8.525 -0.3176  0.4659 -1.6075
 1896TIP3    H227248   4.410   6.091   8.585  1.0595  0.0391 -0.7877
 1897TIP3   OH227249   6.262   2.203   3.225  0.0048  0.2417 -0.4616
 1897TIP3    H127250   6.241   2.286   3.268 -1.3369  0.2960 -1.1837
 1897TIP3    H227251   6.329   2.163   3.281 -0.2371  1.2317  0.5588
 1898TIP3   OH227252   3.997   5.579   0.965 -0.5256  0.0966 -0.4177
 1898TIP3    H127253   4.061   5.629   1.015 -1.5894  1.4803 -0.3651
 1898TIP3    H227254   4.044   5.551   0.887  0.4172  0.1971  0.1010
 1899TIP3   OH227255   3.654   4.373   1.108 -0.3564  0.3849  0.1611
 1899TIP3    H127256   3.654   4.278   1.122 -1.4598  0.3228 -0.1237
 1899TIP3    H227257   3.649   4.382   1.013  2.5979  0.7688 -0.0350
 1900TIP3   OH227258   2.150   1.049   7.818  0.1310 -0.3483  0.5173
 1900TIP3    H127259   2.105   1.005   7.746  0.1879  0.2515  0.1126
 1900TIP3    H227260   2.105   1.133   7.828  0.5379 -0.1515  0.7486
 1901TIP3   OH227261   1.127   6.003   1.992  0.0174 -0.0132  0.0106
 1901TIP3    H127262   1.139   6.087   2.035  0.3397 -0.0061 -0.0941
 1901TIP3    H227263   1.170   6.012   1.907 -0.9864  0.1247 -0.5082
 1902TIP3   OH227264   4.014   1.386   8.627  0.1207 -0.1958 -0.2252
 1902TIP3    H127265   4.043   1.305   8.585  0.2202 -0.0970 -0.3489
 1902TIP3    H227266   3.975   1.437   8.557  0.4978  0.0683 -0.2487
 1903TIP3   OH227267   3.777   3.804   1.965 -0.1106 -0.1403  0.0878
 1903TIP3    H127268   3.862   3.786   2.004 -1.1108 -2.0476  1.5773
 1903TIP3    H227269   3.759   3.728   1.910 -0.0193  1.1674 -1.8554
 1904TIP3   OH227270   4.367   4.733   8.142 -0.5504 -0.3274  0.4005
 1904TIP3    H127271   4.400   4.820   8.119 -2.6109 -0.0578 -1.8374
 1904TIP3    H227272   4.429   4.673   8.100 -0.9511  0.1281 -0.9031
 1905TIP3   OH227273   5.406   1.154   3.397 -0.1494  0.0786  0.4657
 1905TIP3    H127274   5.485   1.127   3.445 -1.0236 -0.1621  1.8360
 1905TIP3    H227275   5.335   1.143   3.461 -1.5254 -1.2326 -1.1890
 1906TIP3   OH227276   2.417   3.485   0.945  0.1450 -0.4488 -0.0503
 1906TIP3    H127277   2.365   3.536   1.007  0.9901  0.0928  0.2289
 1906TIP3    H227278   2.385   3.512   0.859 -0.1696 -0.2636  0.1243
 1907TIP3   OH227279   2.885   3.954   2.170 -0.2520 -0.4860 -0.2703
 1907TIP3    H127280   2.942   3.883   2.141  0.5395  0.5462 -1.3212
 1907TIP3    H227281   2.832   3.976   2.093 -0.6285 -0.0634  0.0981
 1908TIP3   OH227282   3.135   5.711   1.004  0.6050  0.1988 -0.2715
 1908TIP3    H127283   3.057   5.681   1.051  1.3469 -1.4403 -0.0397
 1908TIP3    H227284   3.100   5.754   0.926 -0.5302 -0.3602 -0.0946
 1909TIP3   OH227285   5.428   6.170   0.990 -0.4921  0.1861 -0.6289
 1909TIP3    H127286   5.453   6.086   0.952  1.1594  0.8503 -1.0670
 1909TIP3    H227287   5.407   6.150   1.082  2.0852 -0.3975 -0.0914
 1910TIP3   OH227288   4.905   2.349   0.607  0.2304 -0.0247 -0.1895
 1910TIP3    H127289   4.998   2.357   0.629  0.5598 -1.4676 -0.9269
 1910TIP3    H227290   4.885   2.428   0.558  0.6347  1.0750  1.3542
 1911TIP3   OH227291   6.284   1.150   2.107  0.7657 -0.3616  0.3832
 1911TIP3    H127292   6.368   1.194   2.092  0.3865  0.0194 -0.6596
 1911TIP3    H227293   6.308   1.070   2.154  1.4653  0.8720  2.2344
 1912TIP3   OH227294   0.229   1.840   0.813 -0.1247 -0.4682  0.0512
 1912TIP3    H127295   0.206   1.770   0.752 -0.6583 -0.1794 -0.0828
 1912TIP3    H227296   0.186   1.918   0.778 -1.5000 -0.5307  1.4350
 1913TIP3   OH227297   2.949   2.374   2.572  0.0554 -0.4405 -0.0194
 1913TIP3    H127298   2.986   2.460   2.592 -1.4454  0.2331 -0.0164
 1913TIP3    H227299   2.989   2.349   2.488 -1.8273  1.7436 -1.6913
 1914TIP3   OH227300   2.376   4.073   8.012  0.2055  0.0079  0.4798
 1914TIP3    H127301   2.370   4.145   8.074 -0.1196 -0.8993  1.5349
 1914TIP3    H227302   2.326   4.102   7.936 -1.0682  0.3521  1.4281
 1915TIP3   OH227303   4.288   1.689   0.150 -0.3000  0.6396  0.2963
 1915TIP3    H127304   4.280   1.732   0.065  0.6458  0.2790  0.0207
 1915TIP3    H227305   4.342   1.612   0.133  0.2394  0.7882  1.3006
 1916TIP3   OH227306   2.138   5.627   8.567  0.3857 -1.0035  0.1979
 1916TIP3    H127307   2.123   5.535   8.544 -1.4631 -0.8105  0.4478
 1916TIP3    H227308   2.208   5.656   8.509 -0.6786 -1.9124 -1.6301
 1917TIP3   OH227309   0.777   3.034   1.958 -0.4153 -0.3555 -0.1987
 1917TIP3    H127310   0.801   3.126   1.945  4.1021 -1.5732 -2.0903
 1917TIP3    H227311   0.720   3.036   2.035  0.2222  3.9154  0.4318
 1918TIP3   OH227312   0.737   2.212   8.374 -0.3615 -0.2283  0.6638
 1918TIP3    H127313   0.769   2.255   8.295  0.4606 -0.2435  0.9747
 1918TIP3    H227314   0.663   2.159   8.345 -0.1288 -0.1595 -0.0714
 1919TIP3   OH227315   4.484   3.384   0.031  0.4600 -0.0069  0.7872
 1919TIP3    H127316   4.508   3.295   0.056 -1.0967 -0.3211  1.2700
 1919TIP3    H227317   4.540   3.440   0.086 -0.0903 -0.6954  2.1052
 1920TIP3   OH227318   0.464   2.156   2.589  0.6978 -0.2177 -0.0332
 1920TIP3    H127319   0.424   2.072   2.565  2.0626 -0.4186 -1.8293
 1920TIP3    H227320   0.441   2.215   2.517  1.6614  0.3015  0.0691
 1921TIP3   OH227321   2.735   2.867   3.433 -0.7207  0.5052  0.0406
 1921TIP3    H127322   2.824   2.857   3.399 -0.2705 -0.9842  1.5098
 1921TIP3    H227323   2.744   2.927   3.507 -1.4765  2.6682 -1.5139
 1922TIP3   OH227324   3.657   1.758   8.021 -0.3845  0.6005  0.5845
 1922TIP3    H127325   3.620   1.801   8.098  0.3434  1.4374  0.4836
 1922TIP3    H227326   3.650   1.823   7.951  1.3561  0.8560  0.5980
 1923TIP3   OH227327   1.583   1.360   2.814  0.0124  0.0095 -0.0022
 1923TIP3    H127328   1.504   1.328   2.772 -0.6766 -0.5708  1.6691
 1923TIP3    H227329   1.571   1.455   2.817 -1.2629 -0.1457  1.3578
 1924TIP3   OH227330   2.423   0.488   8.361 -0.3410  0.3339 -0.0294
 1924TIP3    H127331   2.450   0.485   8.270  0.6154 -1.0405  0.2601
 1924TIP3    H227332   2.332   0.459   8.361 -1.2479  2.9649 -0.7993
 1925TIP3   OH227333   2.315   6.760   7.476 -0.0745  0.3423 -0.0737
 1925TIP3    H127334   2.251   6.700   7.437  1.2993 -1.8289  0.7869
 1925TIP3    H227335   2.399   6.714   7.467  0.5205  0.2252  4.2197
 1926TIP3   OH227336   1.442   5.910   2.679 -0.3702  0.5005 -0.0030
 1926TIP3    H127337   1.382   5.841   2.652  0.2323 -0.1575  0.3207
 1926TIP3    H227338   1.418   5.929   2.770  0.5583 -0.4858  0.4693
 1927TIP3   OH227339   2.027   4.177   0.776 -0.0809 -0.3157  0.0447
 1927TIP3    H127340   2.099   4.237   0.756 -0.8961  0.7113  0.0700
 1927TIP3    H227341   2.069   4.102   0.817  0.8865  0.7777  1.1514
 1928TIP3   OH227342   5.985   5.304   1.723  0.3164 -0.3405  0.2593
 1928TIP3    H127343   6.000   5.311   1.817 -1.8150 -1.9317  0.8048
 1928TIP3    H227344   6.070   5.280   1.687  1.2459  0.6212  1.7090
 1929TIP3   OH227345   5.161   4.353   1.251 -0.1407  0.8321 -0.2641
 1929TIP3    H127346   5.081   4.322   1.293 -0.3443  2.6557  0.7840
 1929TIP3    H227347   5.201   4.274   1.215 -1.3526 -0.4225  1.0148
 1930TIP3   OH227348   5.365   4.612   2.302  0.1745  0.1332  0.3759
 1930TIP3    H127349   5.302   4.598   2.230  0.9633  0.8450 -0.4796
 1930TIP3    H227350   5.325   4.567   2.377 -0.1257 -1.6518 -0.7728
 1931TIP3   OH227351   6.252   3.562   0.154 -0.4227  0.5125 -0.0271
 1931TIP3    H127352   6.293   3.569   0.240 -0.3917 -1.2563  0.1397
 1931TIP3    H227353   6.311   3.609   0.095  0.1177  0.8168  0.7413
 1932TIP3   OH227354   4.836   3.174   2.657 -0.3186 -0.0817  0.1552
 1932TIP3    H127355   4.798   3.219   2.582  0.1987  0.7922  0.3962
 1932TIP3    H227356   4.806   3.224   2.733 -1.5570 -1.4669  0.6275
 1933TIP3   OH227357   3.889   5.396   0.748 -0.6676  0.7400 -0.4125
 1933TIP3    H127358   3.894   5.436   0.834  2.0428  0.2888 -0.2709
 1933TIP3    H227359   3.900   5.302   0.764  1.3540  0.7622 -1.2501
 1934TIP3   OH227360   2.403   6.517   8.354 -0.1177  0.6886 -0.1771
 1934TIP3    H127361   2.447   6.448   8.403  0.2130  1.6185  0.8736
 1934TIP3    H227362   2.473   6.559   8.304 -0.3298  0.2315 -0.8680
 1935TIP3   OH227363   3.267   3.041   0.773 -0.4150  0.3319 -0.4290
 1935TIP3    H127364   3.245   3.011   0.861 -2.1319 -0.3770 -1.0480
 1935TIP3    H227365   3.227   2.976   0.715  2.2952 -0.2621 -1.7458
 1936TIP3   OH227366   6.280   1.181   1.230 -0.4076  0.1054 -0.0903
 1936TIP3    H127367   6.225   1.170   1.152 -1.7764 -0.0543  0.8638
 1936TIP3    H227368   6.260   1.106   1.285 -1.3239  1.4203  1.4751
 1937TIP3   OH227369   1.505   6.744   2.292 -0.2810  0.4162 -0.5817
 1937TIP3    H127370   1.581   6.795   2.264  1.4914 -1.0156  1.3449
 1937TIP3    H227371   1.498   6.674   2.227 -0.3557  0.8877 -1.0950
 1938TIP3   OH227372   3.459   5.000   0.191 -0.1979 -0.2792  0.2679
 1938TIP3    H127373   3.520   5.024   0.260  0.7070  0.3832 -0.7382
 1938TIP3    H227374   3.515   4.976   0.117 -1.1057  1.7605 -1.1689
 1939TIP3   OH227375   1.289   3.642   1.674 -0.0191  0.2883  0.2395
 1939TIP3    H127376   1.332   3.615   1.593  1.6036 -0.5266  1.3268
 1939TIP3    H227377   1.247   3.563   1.707  1.0175  0.1068  1.1852
 1940TIP3   OH227378   4.684   3.328   2.479  0.2629  0.0779 -0.0160
 1940TIP3    H127379   4.622   3.325   2.406  1.3378  0.7672 -0.9903
 1940TIP3    H227380   4.766   3.356   2.439  0.6082  1.6285  1.6495
 1941TIP3   OH227381   2.027   1.330   3.495  0.2135  0.3657  0.2726
 1941TIP3    H127382   1.990   1.413   3.524  1.0764  0.9980 -0.3921
 1941TIP3    H227383   2.013   1.328   3.401 -1.4272 -1.0951  0.4839
 1942TIP3   OH227384   1.808   1.498   0.179  0.7691 -0.1924 -0.4399
 1942TIP3    H127385   1.822   1.462   0.092 -0.3323  0.7018 -1.0166
 1942TIP3    H227386   1.741   1.443   0.219 -0.6360  0.9161 -1.1774
 1943TIP3   OH227387   3.504   6.612   7.846  0.8656  0.1178  1.1010
 1943TIP3    H127388   3.591   6.612   7.806  1.1029 -2.6022  1.4354
 1943TIP3    H227389   3.489   6.521   7.871 -0.6449  1.0883  4.2588
 1944TIP3   OH227390   3.643   0.943   7.976 -0.1825  0.2889 -0.2678
 1944TIP3    H127391   3.595   1.026   7.980  0.2627  0.5312  0.2138
 1944TIP3    H227392   3.618   0.904   7.892  0.4081  1.4110 -0.9938
 1945TIP3   OH227393   0.144   4.777   3.332  0.1755  0.1742 -0.2112
 1945TIP3    H127394   0.146   4.858   3.282  0.0038  0.9176  0.9701
 1945TIP3    H227395   0.064   4.781   3.383  0.7476 -0.2013  0.7399
 1946TIP3   OH227396   4.498   5.599   0.796  0.3826  0.0451 -0.0041
 1946TIP3    H127397   4.430   5.557   0.742  0.3928 -2.5768  1.8126
 1946TIP3    H227398   4.471   5.690   0.801 -2.0842 -0.5463 -0.7546
 1947TIP3   OH227399   3.144   1.626   1.278  0.2324  0.6139 -0.7355
 1947TIP3    H127400   3.231   1.589   1.290  0.2434  0.7451 -0.4192
 1947TIP3    H227401   3.114   1.590   1.194  0.1076 -0.3643 -0.2817
 1948TIP3   OH227402   6.361   4.350   0.675 -0.7072 -0.0935  0.5090
 1948TIP3    H127403   6.379   4.362   0.581  1.1630  0.6459  0.9110
 1948TIP3    H227404   6.266   4.360   0.683 -0.9275 -0.3599 -1.3249
 1949TIP3   OH227405   1.529   4.911   8.403 -0.0293  0.3921 -0.5584
 1949TIP3    H127406   1.558   4.820   8.409 -0.6378  0.2913  2.2969
 1949TIP3    H227407   1.480   4.915   8.321 -0.4358 -2.0181 -0.5107
 1950TIP3   OH227408   2.506   3.049   0.898 -0.3224 -0.2790 -0.0760
 1950TIP3    H127409   2.586   3.020   0.942 -1.2141 -0.4911  1.5140
 1950TIP3    H227410   2.536   3.094   0.820  1.4176  0.7036  1.0843
 1951TIP3   OH227411   4.651   0.233   3.800  0.5942  0.3613 -0.4085
 1951TIP3    H127412   4.582   0.294   3.773  1.3780  1.4543 -0.0129
 1951TIP3    H227413   4.708   0.226   3.723  0.3364 -0.1454 -0.5622
 1952TIP3   OH227414   2.459   3.039   2.338  0.6570 -0.2436  0.4295
 1952TIP3    H127415   2.372   3.017   2.373  1.1894 -4.4984 -0.3290
 1952TIP3    H227416   2.497   3.098   2.403 -2.8646  2.1544  0.5694
 1953TIP3   OH227417   2.622   5.569   1.705  0.3041 -0.0077 -0.2890
 1953TIP3    H127418   2.593   5.480   1.686  0.1060 -0.1468  0.6097
 1953TIP3    H227419   2.552   5.607   1.758  1.1605  0.0882  0.8083
 1954TIP3   OH227420   0.906   5.585   1.348  0.5181 -0.4330  0.1045
 1954TIP3    H127421   0.898   5.505   1.400 -0.0711 -0.3142  0.2106
 1954TIP3    H227422   0.868   5.653   1.403  2.1326  0.1682  0.5118
 1955TIP3   OH227423   0.050   6.798   3.193  0.3677  0.3143  0.0233
 1955TIP3    H127424   0.039   6.708   3.222  0.1403  0.6262  0.9370
 1955TIP3    H227425   0.082   6.845   3.270  1.3348  0.8417 -0.6803
 1956TIP3   OH227426   0.437   5.639   0.271  0.0726  0.2342  0.0468
 1956TIP3    H127427   0.522   5.596   0.263  0.8430  1.8900 -1.3397
 1956TIP3    H227428   0.458   5.732   0.279 -1.6191  0.7036 -0.5889
 1957TIP3   OH227429   1.611   6.692   8.211  0.0949  0.1883 -0.2789
 1957TIP3    H127430   1.627   6.733   8.126  1.6476 -0.2774 -0.2548
 1957TIP3    H227431   1.545   6.625   8.193  1.2669 -0.7262 -1.4140
 1958TIP3   OH227432   4.073   1.337   7.953 -0.2941 -0.1373  0.4718
 1958TIP3    H127433   4.072   1.249   7.989  0.3002 -0.7368 -0.9392
 1958TIP3    H227434   3.980   1.361   7.946 -0.4731 -0.8282  0.4329
 1959TIP3   OH227435   6.214   6.367   2.683 -0.1885 -1.2491  0.0621
 1959TIP3    H127436   6.132   6.414   2.668 -0.3329 -0.7679  2.0883
 1959TIP3    H227437   6.281   6.436   2.684 -0.2943 -1.1142  2.2158
 1960TIP3   OH227438   5.056   5.007   0.008 -0.3659 -0.6233  0.1876
 1960TIP3    H127439   5.077   5.047  -0.077  1.2206 -2.7499 -0.5261
 1960TIP3    H227440   4.980   4.952  -0.011 -1.1557  0.2780  0.6344
 1961TIP3   OH227441   2.535   0.082   0.914  0.4149 -0.2944  0.5054
 1961TIP3    H127442   2.609   0.073   0.973  1.3044  0.2532 -0.4922
 1961TIP3    H227443   2.553   0.163   0.865  1.2381 -2.1965 -2.6010
 1962TIP3   OH227444   2.422   2.916   7.402  0.5538  0.2233  0.0047
 1962TIP3    H127445   2.477   2.865   7.460  0.8394  1.0314  0.4594
 1962TIP3    H227446   2.424   2.868   7.319 -1.4916 -2.0733  1.1363
 1963TIP3   OH227447   6.533   0.944   8.362  0.1311  0.0449  0.2557
 1963TIP3    H127448   6.541   0.856   8.325  1.8357 -0.1230  0.9200
 1963TIP3    H227449   6.590   0.998   8.306 -0.5542  0.6551  0.1251
 1964TIP3   OH227450   2.798   0.002   7.778  0.6661 -0.0018 -0.0544
 1964TIP3    H127451   2.780   0.063   7.850 -0.4164  1.5143 -1.5255
 1964TIP3    H227452   2.718   0.004   7.725  2.2329  0.7119 -2.5276
 1965TIP3   OH227453   1.889   5.514   7.703  0.3384 -0.4365 -0.1981
 1965TIP3    H127454   1.839   5.465   7.768  3.3532 -2.8988  0.4801
 1965TIP3    H227455   1.880   5.463   7.623  1.0485 -0.4438 -0.2764
 1966TIP3   OH227456   1.262   3.100   3.393  0.4721  0.2016 -0.2728
 1966TIP3    H127457   1.209   3.028   3.428  2.6083 -1.5637 -0.5101
 1966TIP3    H227458   1.272   3.160   3.467 -2.0041  0.7660 -0.2903
 1967TIP3   OH227459   2.246   4.582   0.395 -0.0925 -0.9058 -0.8185
 1967TIP3    H127460   2.242   4.497   0.351 -2.4605 -0.3679 -1.7839
 1967TIP3    H227461   2.158   4.619   0.384  1.0199  1.9525 -0.9994
 1968TIP3   OH227462   0.026   5.107   8.509 -0.4396  0.3545 -0.5176
 1968TIP3    H127463  -0.043   5.130   8.447 -0.6229  1.5592  0.1135
 1968TIP3    H227464   0.067   5.190   8.533 -0.1184 -0.1207  0.6696
 1969TIP3   OH227465   1.476   4.037   7.888  0.3469 -0.0189 -0.3892
 1969TIP3    H127466   1.505   4.093   7.960 -1.6736 -1.0248  1.3115
 1969TIP3    H227467   1.557   4.011   7.844  1.4431  2.9132 -0.2976
 1970TIP3   OH227468   6.026   6.192   8.120 -0.1643 -0.3078  0.3917
 1970TIP3    H127469   6.104   6.139   8.136 -0.0946  0.1483  1.6921
 1970TIP3    H227470   6.041   6.231   8.033  1.1617 -0.0582  0.7087
 1971TIP3   OH227471   3.638   5.211   7.284  0.0838  0.0276  0.2605
 1971TIP3    H127472   3.599   5.298   7.278  0.5145  0.3942  2.0875
 1971TIP3    H227473   3.732   5.228   7.295  0.1990 -0.6645  0.3986
 1972TIP3   OH227474   5.148   5.698   2.333  0.2490 -0.4486 -0.2339
 1972TIP3    H127475   5.125   5.790   2.316  0.8482 -0.3928 -0.7769
 1972TIP3    H227476   5.064   5.656   2.352 -0.1579  0.0179 -0.9241
 1973TIP3   OH227477   2.791   5.364   1.497 -0.8537 -0.1943 -0.1764
 1973TIP3    H127478   2.762   5.431   1.436  0.4617 -0.4501 -1.1198
 1973TIP3    H227479   2.882   5.388   1.518 -1.0111 -0.5699  1.0455
 1974TIP3   OH227480   4.398   3.239   7.648  0.1851 -0.6725 -0.5238
 1974TIP3    H127481   4.479   3.270   7.608 -0.1323  2.6071  1.0376
 1974TIP3    H227482   4.332   3.251   7.579  0.4681  0.0834 -0.6770
 1975TIP3   OH227483   2.392   3.313   8.042  0.1523 -0.3477  0.5940
 1975TIP3    H127484   2.427   3.384   7.988 -3.3989  1.7309  0.6966
 1975TIP3    H227485   2.426   3.331   8.130  1.4644 -0.4747  0.1469
 1976TIP3   OH227486   6.411   2.803   8.686  0.3529 -0.2258 -0.1137
 1976TIP3    H127487   6.387   2.726   8.738  0.2808  0.2053  0.4992
 1976TIP3    H227488   6.362   2.875   8.725  1.0381  0.2814 -0.1771
 1977TIP3   OH227489   4.431   0.016   2.881  0.4370  0.3147 -0.2911
 1977TIP3    H127490   4.419  -0.017   2.970 -0.8001 -1.2618 -0.9815
 1977TIP3    H227491   4.345   0.052   2.858  0.2234 -0.8344 -1.4066
 1978TIP3   OH227492   1.756   1.930   7.312  0.7549  0.7254 -0.1090
 1978TIP3    H127493   1.825   1.888   7.261  0.8737  1.6469 -0.7181
 1978TIP3    H227494   1.736   2.010   7.264 -1.4916 -0.0298 -0.5490
 1979TIP3   OH227495   3.592   3.284   2.956  0.0942  0.1099  0.0731
 1979TIP3    H127496   3.682   3.317   2.948  0.5442 -0.9646  0.6450
 1979TIP3    H227497   3.560   3.322   3.038  0.9870 -1.6740  1.3024
 1980TIP3   OH227498   5.556   1.586   1.462 -0.3876  0.4903  0.4655
 1980TIP3    H127499   5.606   1.658   1.501  0.2647  0.4482 -0.2762
 1980TIP3    H227500   5.559   1.516   1.527  0.1148  0.6575  0.6255
 1981TIP3   OH227501   4.492   4.945   8.544  0.1373 -0.7052  0.3298
 1981TIP3    H127502   4.456   5.026   8.508 -0.4165 -1.2286 -0.3120
 1981TIP3    H227503   4.544   4.973   8.619 -0.7843  0.1654  0.6653
 1982TIP3   OH227504   0.495   6.444   2.911 -0.0485 -0.0782 -0.1900
 1982TIP3    H127505   0.470   6.352   2.910 -1.7955  0.3420  0.2841
 1982TIP3    H227506   0.448   6.482   2.837  2.5312  0.0603 -1.8981
 1983TIP3   OH227507   4.899   5.771   1.711  0.2458 -0.2113  0.4254
 1983TIP3    H127508   4.943   5.747   1.792  1.7172  0.0422 -0.2554
 1983TIP3    H227509   4.956   5.837   1.671 -0.1901 -0.6776 -1.0413
 1984TIP3   OH227510   5.542   2.170   0.740  0.0394  0.0126  0.0523
 1984TIP3    H127511   5.575   2.113   0.809  2.9994  0.4782 -0.8120
 1984TIP3    H227512   5.606   2.241   0.736 -2.9698  2.9832  0.4521
 1985TIP3   OH227513   2.605   2.982   1.641  0.3921 -0.0807  0.0414
 1985TIP3    H127514   2.599   2.982   1.736  0.7437  2.0388  0.1037
 1985TIP3    H227515   2.515   2.989   1.610  0.1041 -2.5179  0.1134
 1986TIP3   OH227516   4.430   4.080   1.749 -0.4080  0.4255  0.0516
 1986TIP3    H127517   4.430   4.123   1.664 -0.8835  2.2750  0.9229
 1986TIP3    H227518   4.522   4.057   1.764 -0.4052 -0.4243 -1.1808
 1987TIP3   OH227519   6.201   0.415   8.706  0.7616  0.0972 -0.0420
 1987TIP3    H127520   6.283   0.390   8.663 -0.1142 -0.1960 -1.5993
 1987TIP3    H227521   6.228   0.443   8.794  2.3856 -1.1608 -0.0935
 1988TIP3   OH227522   0.055   1.796   1.245  0.4660 -0.2998  0.2159
 1988TIP3    H127523   0.027   1.885   1.266  1.1045  0.1419 -0.7020
 1988TIP3    H227524   0.024   1.782   1.155  0.9393 -0.7547  0.1200
 1989TIP3   OH227525   3.369   1.266   0.421 -0.1406 -0.1199 -0.0955
 1989TIP3    H127526   3.411   1.217   0.351  2.7423  0.4150  1.1011
 1989TIP3    H227527   3.380   1.210   0.499  0.1851  0.9290  0.6369
 1990TIP3   OH227528   2.232   1.470   0.988  0.2282  0.2882  0.2769
 1990TIP3    H127529   2.166   1.534   1.017 -1.3511 -1.8947  1.9354
 1990TIP3    H227530   2.205   1.388   1.030  3.6057 -0.9280  0.3702
 1991TIP3   OH227531   6.590   6.550   3.182 -0.3665  0.7771 -0.4168
 1991TIP3    H127532   6.544   6.618   3.133  0.4488  1.0177 -0.8510
 1991TIP3    H227533   6.642   6.598   3.247 -0.5715  0.5141 -0.0545
 1992TIP3   OH227534   3.372   6.043   1.480 -0.0957  0.2186  0.4803
 1992TIP3    H127535   3.375   6.136   1.505 -1.3396  1.0335 -1.9698
 1992TIP3    H227536   3.278   6.024   1.471  0.1766 -0.5352 -1.2942
 1993TIP3   OH227537   3.816   3.729   1.047 -0.0287 -0.6631 -0.4176
 1993TIP3    H127538   3.880   3.678   1.096  1.2004  0.1228 -1.1556
 1993TIP3    H227539   3.742   3.669   1.034  1.0931 -2.0424 -0.6878
 1994TIP3   OH227540   4.990   4.005   0.688  0.1057  0.0110  0.4539
 1994TIP3    H127541   4.993   4.101   0.681  0.7260 -0.1017 -1.3051
 1994TIP3    H227542   4.911   3.980   0.640  0.2027 -0.3838  0.4992
 1995TIP3   OH227543   1.760   3.237   7.619 -0.0370 -0.4169  0.2046
 1995TIP3    H127544   1.780   3.298   7.690  0.4753 -0.9026  0.4913
 1995TIP3    H227545   1.776   3.287   7.539  1.7475 -0.5737  0.4237
 1996TIP3   OH227546   1.664   5.825   7.250 -0.2508 -0.1339  0.0581
 1996TIP3    H127547   1.686   5.890   7.318  3.0801 -1.0529  0.0462
 1996TIP3    H227548   1.599   5.769   7.291 -0.5461  1.0996  1.3714
 1997TIP3   OH227549   1.690   5.904   1.077 -0.3070 -0.9270  0.8481
 1997TIP3    H127550   1.778   5.911   1.039 -0.8852  0.1258 -0.3983
 1997TIP3    H227551   1.642   5.978   1.039 -1.3966 -0.7690  2.4594
 1998TIP3   OH227552   1.015   2.441   1.420 -0.5877 -0.4862 -0.3324
 1998TIP3    H127553   0.949   2.374   1.405  0.5991 -1.4921 -1.1622
 1998TIP3    H227554   1.000   2.469   1.511  0.3101 -3.5006  0.8670
 1999TIP3   OH227555   5.118   5.911   1.598  0.5056  0.2458 -1.0222
 1999TIP3    H127556   5.131   5.988   1.543  0.2324  1.2453  0.2450
 1999TIP3    H227557   5.138   5.942   1.687  1.4995 -1.4445 -0.5996
 2000TIP3   OH227558   2.690   0.025   0.237  0.0047  0.3131  0.8821
 2000TIP3    H127559   2.708  -0.041   0.170 -1.9930  0.8757 -0.2834
 2000TIP3    H227560   2.767   0.082   0.236  0.0638  0.2491 -0.8961
 2001TIP3   OH227561   2.551   4.714   8.537  0.2681 -0.2155  0.1039
 2001TIP3    H127562   2.524   4.735   8.447 -0.6154 -2.4310 -0.2389
 2001TIP3    H227563   2.607   4.637   8.527 -1.7937 -2.0493  1.5112
 2002TIP3   OH227564   0.483   4.291   7.944 -0.4034 -0.1813 -0.0909
 2002TIP3    H127565   0.429   4.321   8.017 -1.5287  3.0498 -2.0344
 2002TIP3    H227566   0.554   4.355   7.939 -0.7032  0.0490 -2.1260
 2003TIP3   OH227567   0.360   1.250   7.409 -0.0472  0.2652 -0.0183
 2003TIP3    H127568   0.296   1.255   7.480  0.6284 -1.3874  0.7470
 2003TIP3    H227569   0.393   1.340   7.401 -0.4913  0.5927  1.4329
 2004TIP3   OH227570   0.444   5.497   7.878 -0.1350 -0.7044  0.1547
 2004TIP3    H127571   0.440   5.433   7.949 -0.6984  0.0558  0.8302
 2004TIP3    H227572   0.529   5.540   7.890  0.3206 -1.4311 -0.4064
 2005TIP3   OH227573   4.077   0.519   0.913 -0.2534  0.3078 -0.0552
 2005TIP3    H127574   3.984   0.513   0.892 -0.0436  2.3727 -1.8576
 2005TIP3    H227575   4.112   0.584   0.852  2.3706 -0.3380  0.6286
 2006TIP3   OH227576   5.384   3.086   2.404  0.0956 -0.2848 -0.0886
 2006TIP3    H127577   5.341   3.001   2.409  1.0901 -0.7920  0.0686
 2006TIP3    H227578   5.314   3.149   2.419 -0.8911 -1.0199 -1.4019
 2007TIP3   OH227579   6.337   4.112   0.045  0.1244 -0.4922 -0.4344
 2007TIP3    H127580   6.370   4.198   0.019 -1.2522 -0.1485 -1.1754
 2007TIP3    H227581   6.390   4.050  -0.005  2.1000 -0.1891  1.1822
 2008TIP3   OH227582   2.851   4.946   7.836 -0.0232 -0.7348 -0.4361
 2008TIP3    H127583   2.815   4.880   7.895  0.1448 -1.5000 -1.1712
 2008TIP3    H227584   2.879   4.896   7.759  1.0111  0.0646 -0.5958
 2009TIP3   OH227585   4.677   1.510   2.868  0.2080 -0.5695  0.3345
 2009TIP3    H127586   4.665   1.604   2.854 -0.6754 -1.0436 -3.1052
 2009TIP3    H227587   4.725   1.504   2.951  2.3325  3.0182 -0.3869
 2010TIP3   OH227588   6.792   3.879   0.545  0.0056  0.3440 -0.4563
 2010TIP3    H127589   6.772   3.787   0.526  3.3864 -0.5312 -0.3457
 2010TIP3    H227590   6.758   3.893   0.633  0.3259 -1.1180 -0.0718
 2011TIP3   OH227591   4.189   2.900   0.427 -0.0664 -1.0227  0.8994
 2011TIP3    H127592   4.201   2.806   0.414 -0.2593 -0.9825  0.4053
 2011TIP3    H227593   4.192   2.937   0.339  0.8486 -0.4601  1.1543
 2012TIP3   OH227594   0.929   6.362   7.932  0.6204  0.2713  0.2263
 2012TIP3    H127595   0.988   6.390   7.862 -0.5789  0.4354 -0.7565
 2012TIP3    H227596   0.847   6.408   7.914 -0.8585 -2.4140 -0.3825
 2013TIP3   OH227597   3.883   2.723   1.535 -0.2672  0.2105 -0.6221
 2013TIP3    H127598   3.819   2.684   1.595  0.8161  0.1904  0.5494
 2013TIP3    H227599   3.831   2.745   1.458 -1.4732 -0.8654 -0.1742
 2014TIP3   OH227600   0.583   2.589   1.407 -0.0274 -0.0572  0.1806
 2014TIP3    H127601   0.520   2.639   1.355  0.5440 -0.3814 -0.8637
 2014TIP3    H227602   0.647   2.557   1.343 -0.5226 -2.3878  0.7513
 2015TIP3   OH227603   4.169   3.064   2.090  0.4913 -0.7814 -0.5398
 2015TIP3    H127604   4.123   3.027   2.166  0.5212  0.7028  0.2324
 2015TIP3    H227605   4.126   3.148   2.074  2.7393  0.5873  0.0979
 2016TIP3   OH227606   2.783   2.892   0.647  0.0546 -0.1310  0.1298
 2016TIP3    H127607   2.794   2.946   0.726 -1.1747 -0.0041  0.2298
 2016TIP3    H227608   2.750   2.953   0.581 -0.5436 -0.5908  0.0002
 2017TIP3   OH227609   1.013   1.281   1.476  0.3678  0.2123  0.5220
 2017TIP3    H127610   1.094   1.308   1.432  0.3162 -1.1468 -0.4442
 2017TIP3    H227611   1.029   1.301   1.568  2.1571 -0.8201  0.4756
 2018TIP3   OH227612   2.154   0.303   1.284 -0.2228 -0.1180  0.2407
 2018TIP3    H127613   2.201   0.290   1.366  1.3848 -1.3772 -0.8071
 2018TIP3    H227614   2.072   0.345   1.309  0.2566 -0.3979  2.4623
 2019TIP3   OH227615   0.160   3.165   3.032  0.3725  0.3340  0.1202
 2019TIP3    H127616   0.192   3.222   3.102 -0.2592  1.3042 -0.3647
 2019TIP3    H227617   0.071   3.195   3.015 -0.1232 -1.0523  0.1062
 2020TIP3   OH227618   6.505   4.714   7.988 -0.5152  0.6998  0.0522
 2020TIP3    H127619   6.460   4.777   7.931 -1.5972 -0.0246  0.0854
 2020TIP3    H227620   6.464   4.727   8.074  0.0325  0.7101  0.3139
 2021TIP3   OH227621   0.714   1.493   2.811 -0.3998 -0.1292 -0.1133
 2021TIP3    H127622   0.749   1.536   2.889  2.0790  0.4334 -1.4235
 2021TIP3    H227623   0.655   1.558   2.773  0.4389  0.6597 -0.1031
 2022TIP3   OH227624   0.723   4.535   0.248 -0.3433  0.1819 -0.0746
 2022TIP3    H127625   0.762   4.466   0.301  1.4301  1.0808 -0.1345
 2022TIP3    H227626   0.669   4.586   0.309 -1.9125 -1.3596 -0.0908
 2023TIP3   OH227627   4.402   1.970   1.374 -0.1665  0.6044  0.3970
 2023TIP3    H127628   4.379   1.952   1.465  4.1487 -1.1817  1.3830
 2023TIP3    H227629   4.492   2.003   1.378  0.2142  0.4142 -3.2300
 2024TIP3   OH227630   3.012   3.420   1.328 -0.3287  0.4288 -0.0732
 2024TIP3    H127631   3.035   3.328   1.315 -0.6314  0.3189  0.1676
 2024TIP3    H227632   2.918   3.419   1.348 -0.3863  0.8097 -0.3127
 2025TIP3   OH227633   5.346   6.441   2.238  0.6019 -0.5223  0.1933
 2025TIP3    H127634   5.373   6.427   2.147 -1.0446  1.2152 -0.6285
 2025TIP3    H227635   5.377   6.529   2.259  0.3413 -0.6366  1.0765
 2026TIP3   OH227636   2.653   6.029   8.324  0.2159  0.1034 -0.6085
 2026TIP3    H127637   2.725   5.969   8.307  0.9175  1.1685 -1.5466
 2026TIP3    H227638   2.651   6.038   8.419  0.1013 -1.3604 -0.4544
 2027TIP3   OH227639   3.643   4.435   0.357  0.3381 -0.1139 -0.4967
 2027TIP3    H127640   3.637   4.442   0.262 -0.5465  0.3330 -0.4129
 2027TIP3    H227641   3.572   4.490   0.390 -0.1956 -1.2950  0.3996
 2028TIP3   OH227642   6.694   6.760   0.177 -0.4308 -0.2405  0.0915
 2028TIP3    H127643   6.632   6.824   0.142  0.1839 -0.3291 -1.2227
 2028TIP3    H227644   6.773   6.811   0.194  0.0821 -0.6412 -1.0241
 2029TIP3   OH227645   5.175   3.800   7.576 -0.2329 -0.1587 -0.1735
 2029TIP3    H127646   5.210   3.743   7.644  0.2351  1.0413  0.6155
 2029TIP3    H227647   5.127   3.741   7.518 -0.7760 -1.1798  1.2697
 2030TIP3   OH227648   1.271   1.104   0.870 -0.1689 -0.5891  0.6688
 2030TIP3    H127649   1.293   1.198   0.874  0.6891 -0.6823 -0.8780
 2030TIP3    H227650   1.354   1.060   0.890 -0.1007 -0.9915 -0.4544
 2031TIP3   OH227651   5.554   5.907   0.626  0.2307 -0.2115  0.5131
 2031TIP3    H127652   5.572   5.835   0.565 -0.3819 -0.7982  1.0051
 2031TIP3    H227653   5.604   5.981   0.591  1.2005 -0.9742  0.2112
 2032TIP3   OH227654   2.579   5.215   0.179  0.0821  0.3282  0.0767
 2032TIP3    H127655   2.589   5.309   0.167 -0.4678  0.2173 -1.4791
 2032TIP3    H227656   2.657   5.177   0.137  0.0670  0.0703  0.2793
 2033TIP3   OH227657   4.142   0.658   1.173  0.6484  0.4209  0.2480
 2033TIP3    H127658   4.230   0.696   1.174  2.2973 -2.8399  3.7435
 2033TIP3    H227659   4.149   0.580   1.118  0.0554 -0.0390  0.8021
 2034TIP3   OH227660   1.130   2.362   2.463 -0.5223  0.4980 -0.1909
 2034TIP3    H127661   1.179   2.428   2.414  1.0806 -0.1242  0.4867
 2034TIP3    H227662   1.150   2.279   2.419  2.1892 -0.3034  2.2215
 2035TIP3   OH227663   1.392   6.340   0.785  0.0885  0.2435  0.1278
 2035TIP3    H127664   1.306   6.304   0.767 -0.3550  1.6394 -0.7413
 2035TIP3    H227665   1.440   6.330   0.702  0.7799 -0.5147  0.6007
 2036TIP3   OH227666   1.084   1.107   7.747  0.8092 -0.5407  0.3118
 2036TIP3    H127667   1.151   1.052   7.706 -0.0812 -0.9502 -0.6289
 2036TIP3    H227668   1.065   1.174   7.683 -0.2459 -0.8952  0.2258
 2037TIP3   OH227669   3.940   0.617   8.784  0.3320 -0.5834  0.5726
 2037TIP3    H127670   3.861   0.606   8.838  1.1974  0.5191  2.1498
 2037TIP3    H227671   3.975   0.702   8.810  2.1253 -1.0991 -0.0108
 2038TIP3   OH227672   0.983   2.994   8.318 -0.6612 -0.7287  0.0236
 2038TIP3    H127673   0.975   2.935   8.393 -0.3553 -2.4692 -1.2493
 2038TIP3    H227674   0.903   2.979   8.267 -0.3730 -0.3671 -0.5432
 2039TIP3   OH227675   4.168   2.210   8.638  0.4754 -0.3431 -0.0042
 2039TIP3    H127676   4.152   2.141   8.574  2.9646 -0.0012 -1.1057
 2039TIP3    H227677   4.136   2.290   8.595 -0.5924 -0.5110  0.4531
 2040TIP3   OH227678   4.587   6.349   8.361  0.3959  0.1791 -0.2732
 2040TIP3    H127679   4.665   6.311   8.320  0.3578  0.1337 -0.3034
 2040TIP3    H227680   4.517   6.335   8.297  0.1816 -0.5284  0.1013
 2041TIP3   OH227681   3.734   3.227   7.817  0.4271 -0.0449 -0.0788
 2041TIP3    H127682   3.721   3.318   7.844 -2.6954  0.3283 -2.2976
 2041TIP3    H227683   3.750   3.231   7.723  1.2943 -1.7671 -0.0486
 2042TIP3   OH227684   1.272   5.020   7.543 -0.0660  0.0973 -0.3293
 2042TIP3    H127685   1.339   4.964   7.580 -0.3226 -0.9492 -1.3967
 2042TIP3    H227686   1.270   4.998   7.450 -0.0370  2.0295 -0.8363
 2043TIP3   OH227687   6.007   3.272   0.502  0.1410 -0.5230 -0.2958
 2043TIP3    H127688   6.085   3.303   0.547  0.6121  0.9715 -2.0357
 2043TIP3    H227689   6.031   3.271   0.409 -2.0775  0.6187 -0.9620
 2044TIP3   OH227690   0.877   4.392   2.027 -0.3365 -0.6216 -0.3359
 2044TIP3    H127691   0.890   4.357   1.939  1.8995 -0.2486 -0.2027
 2044TIP3    H227692   0.855   4.316   2.080 -0.8287 -0.9762 -1.0233
 2045TIP3   OH227693   5.018   1.578   1.293  0.6359 -0.1732  0.2936
 2045TIP3    H127694   5.047   1.666   1.317 -0.5387  0.9423 -2.0005
 2045TIP3    H227695   5.053   1.521   1.362  0.7074  2.1677  2.3262
 2046TIP3   OH227696   2.452   5.855   8.724  0.1393 -0.7241 -0.0237
 2046TIP3    H127697   2.435   5.761   8.725  0.8165 -0.8730 -1.1076
 2046TIP3    H227698   2.380   5.893   8.776  1.2601 -2.0151  2.6882
 2047TIP3   OH227699   1.239   6.088   1.759  0.2680  0.3542  0.0823
 2047TIP3    H127700   1.172   6.131   1.704  0.2882 -1.5222 -1.5168
 2047TIP3    H227701   1.301   6.158   1.779 -0.0581  1.2740 -1.8287
 2048TIP3   OH227702   0.088   5.364   3.098 -0.1431 -0.3758  0.1062
 2048TIP3    H127703  -0.001   5.389   3.072 -0.2448  0.4110  1.1333
 2048TIP3    H227704   0.128   5.446   3.128  0.8784 -0.7501 -0.1719
 2049TIP3   OH227705   4.636   6.778   8.289 -0.0496  0.1058  0.2323
 2049TIP3    H127706   4.717   6.829   8.290  0.6284 -0.9315  1.2731
 2049TIP3    H227707   4.665   6.688   8.274 -1.0775 -0.1920 -0.0128
 2050TIP3   OH227708   1.191   6.143   2.975 -0.5240  0.2023 -0.1995
 2050TIP3    H127709   1.163   6.099   3.055  0.2315 -0.9820 -0.5544
 2050TIP3    H227710   1.114   6.190   2.944 -0.6271  1.2810  1.5950
 2051TIP3   OH227711   1.687   3.422   0.039  0.0709 -0.3339  0.2666
 2051TIP3    H127712   1.749   3.391  -0.026 -0.1968  1.0596 -0.7046
 2051TIP3    H227713   1.636   3.344   0.064 -0.6704 -0.7043 -2.1354
 2052TIP3   OH227714   1.745   2.851   2.897 -0.2370 -0.1312  0.2348
 2052TIP3    H127715   1.777   2.761   2.889  1.8157  0.1705  3.3409
 2052TIP3    H227716   1.662   2.843   2.944  0.1444 -0.3996  0.8727
 2053TIP3   OH227717   5.347   2.208   0.406 -0.3522 -0.0311  0.4082
 2053TIP3    H127718   5.251   2.208   0.413 -0.2707 -0.8667  1.9380
 2053TIP3    H227719   5.374   2.289   0.449 -0.2970 -0.7625  1.7947
 2054TIP3   OH227720   6.544   4.449   0.220  0.0846 -0.2257  0.6651
 2054TIP3    H127721   6.469   4.506   0.232 -0.3528 -0.8126  0.7436
 2054TIP3    H227722   6.538   4.386   0.292  0.2686 -0.6860  0.2843
 2055TIP3   OH227723   1.867   2.088   8.542 -0.8950 -0.3720  0.0245
 2055TIP3    H127724   1.948   2.071   8.494 -1.2230  2.3040 -1.7628
 2055TIP3    H227725   1.835   2.002   8.568  1.7636 -1.5976 -0.4754
 2056TIP3   OH227726   0.027   6.669   0.818  0.1782 -0.2972  0.7358
 2056TIP3    H127727  -0.052   6.630   0.780 -0.8302  1.0232  1.3842
 2056TIP3    H227728   0.028   6.758   0.784  0.9087 -0.0330  1.4208
 2057TIP3   OH227729   6.506   1.002   0.281 -0.0366  0.0032  0.4773
 2057TIP3    H127730   6.573   1.067   0.302 -0.5100  1.0137 -0.9712
 2057TIP3    H227731   6.537   0.921   0.322  1.1469  0.8674  1.3492
 2058TIP3   OH227732   1.957   4.612   0.650 -0.8976  0.0909 -0.4096
 2058TIP3    H127733   1.917   4.530   0.678 -1.7247  0.0267 -1.7077
 2058TIP3    H227734   1.940   4.616   0.556 -0.1832  1.3733 -0.5020
 2059TIP3   OH227735   1.454   1.278   7.435 -0.4999 -0.4146 -0.2967
 2059TIP3    H127736   1.455   1.370   7.408 -0.0914  0.2508  1.7720
 2059TIP3    H227737   1.536   1.267   7.485  0.3941 -2.4384 -2.0356
 2060TIP3   OH227738   2.628   6.620   3.742  0.1799 -0.0315  0.1058
 2060TIP3    H127739   2.634   6.707   3.782  1.8613 -0.4291  0.7984
 2060TIP3    H227740   2.551   6.625   3.685  1.0053  2.3180 -0.9089
 2061TIP3   OH227741   1.433   5.644   1.650  0.2487 -0.1203 -0.3664
 2061TIP3    H127742   1.451   5.634   1.743  0.6821  0.1398 -0.4227
 2061TIP3    H227743   1.446   5.737   1.632 -0.8227  0.0204 -0.4787
 2062TIP3   OH227744   6.134   4.769   8.850 -0.1852 -0.2580  0.0769
 2062TIP3    H127745   6.113   4.771   8.943  0.2419 -0.5117  0.1830
 2062TIP3    H227746   6.144   4.676   8.830 -1.6799 -0.3098 -0.5549
 2063TIP3   OH227747   1.215   5.310   0.524  0.5599 -0.2485 -0.4317
 2063TIP3    H127748   1.181   5.262   0.599 -0.9965 -0.4021 -1.2059
 2063TIP3    H227749   1.252   5.243   0.466  0.0867 -0.3295 -0.6445
 2064TIP3   OH227750   1.231   5.597   7.126  1.1385  0.4457 -0.2055
 2064TIP3    H127751   1.194   5.642   7.202 -0.6530 -0.1872 -0.6788
 2064TIP3    H227752   1.260   5.668   7.068 -0.7684  1.0115 -0.5096
 2065TIP3   OH227753   4.467   1.261   7.886  0.1101 -0.5089 -0.4580
 2065TIP3    H127754   4.493   1.209   7.963  0.2534 -0.6242 -0.5840
 2065TIP3    H227755   4.371   1.258   7.888  0.0705  0.7816  0.5899
 2066TIP3   OH227756   6.332   4.613   7.559  0.1895 -0.0340 -0.3937
 2066TIP3    H127757   6.265   4.648   7.618  0.2728  1.7300 -1.2608
 2066TIP3    H227758   6.414   4.654   7.589  0.2986  0.5458 -1.4196
 2067TIP3   OH227759   1.252   4.179   1.882 -0.7895 -0.2054  0.7415
 2067TIP3    H127760   1.176   4.200   1.828 -0.3056  0.8859  0.4655
 2067TIP3    H227761   1.258   4.083   1.878  0.2276 -0.1527 -2.6172
 2068TIP3   OH227762   3.361   1.583   2.334 -0.5955 -0.3783  0.3825
 2068TIP3    H127763   3.332   1.656   2.280 -0.7837  0.8687  2.1080
 2068TIP3    H227764   3.454   1.598   2.349 -0.6736 -0.3695  0.8997
 2069TIP3   OH227765   1.035   3.167   0.057 -0.5995 -0.0261 -0.3038
 2069TIP3    H127766   1.104   3.168  -0.009  1.1375 -0.7716  1.4017
 2069TIP3    H227767   1.032   3.256   0.091 -0.6237  0.0514 -0.5069
 2070TIP3   OH227768   3.555   2.015   7.566 -0.2358 -0.3159  0.9998
 2070TIP3    H127769   3.600   1.987   7.486  0.1005  1.1566  0.6360
 2070TIP3    H227770   3.545   2.110   7.555 -0.3873 -0.1274  2.6152
 2071TIP3   OH227771   5.515   4.553   0.340 -0.4222 -0.0804 -0.3402
 2071TIP3    H127772   5.575   4.617   0.378  1.4470 -1.7383 -0.3212
 2071TIP3    H227773   5.573   4.489   0.297 -2.2827 -0.6318 -2.1921
 2072TIP3   OH227774   3.234   3.061   1.946 -0.2733  0.0796  0.6166
 2072TIP3    H127775   3.155   3.039   1.995 -0.1249  0.6438  1.1098
 2072TIP3    H227776   3.222   3.152   1.919 -1.0336 -0.6241 -1.7177
 2073TIP3   OH227777   2.975   5.358   8.313 -0.4249 -0.2536 -0.6633
 2073TIP3    H127778   2.944   5.440   8.352  1.1330  0.1485 -0.2192
 2073TIP3    H227779   2.936   5.358   8.225 -0.1183  1.1831 -0.8292
 2074TIP3   OH227780   6.676   1.667   1.937  0.4486 -0.1689  0.0965
 2074TIP3    H127781   6.652   1.624   2.019  0.1711 -0.2883 -0.0459
 2074TIP3    H227782   6.596   1.665   1.885  0.4304  0.5131  0.0832
 2075TIP3   OH227783   3.705   5.840   7.825 -0.7666  0.4097 -0.1323
 2075TIP3    H127784   3.729   5.930   7.849  0.5713  0.3518 -1.1594
 2075TIP3    H227785   3.788   5.795   7.813 -1.4007 -1.3661  1.6520
 2076TIP3   OH227786   0.687   6.518   0.795  0.4028 -0.1626  0.4436
 2076TIP3    H127787   0.628   6.484   0.862  0.0487 -0.0172  0.2074
 2076TIP3    H227788   0.754   6.566   0.844  0.2903 -0.2781  0.7090
 2077TIP3   OH227789   3.073   2.847   3.053 -0.4357  0.0413  0.0443
 2077TIP3    H127790   3.084   2.813   3.142  0.4825  2.1554  0.8118
 2077TIP3    H227791   2.997   2.906   3.059 -0.2839  0.3017 -0.5192
 2078TIP3   OH227792   4.887   3.879   3.026  0.2686 -0.2825 -0.3805
 2078TIP3    H127793   4.967   3.931   3.037 -0.7935  0.9792  2.2079
 2078TIP3    H227794   4.884   3.824   3.105 -0.3020 -1.9695 -1.5333
 2079TIP3   OH227795   3.876   4.067   1.648  0.4819  0.1116 -0.0081
 2079TIP3    H127796   3.881   4.099   1.558 -1.3487 -0.7627 -0.4760
 2079TIP3    H227797   3.850   3.975   1.639 -1.5905  0.4873  1.4117
 2080TIP3   OH227798   2.211   1.483   8.724 -0.1266  0.5271 -0.0599
 2080TIP3    H127799   2.153   1.513   8.654 -0.8102 -0.0493  0.2452
 2080TIP3    H227800   2.157   1.487   8.803  0.2627  0.0483  0.2378
 2081TIP3   OH227801   4.010   3.697   8.445 -0.2236  0.1395  0.0348
 2081TIP3    H127802   4.101   3.677   8.425  0.7568  2.9597  1.1015
 2081TIP3    H227803   3.981   3.625   8.500  2.6023  0.7987  2.6915
 2082TIP3   OH227804   3.863   0.003   1.555 -0.5809  0.2970  0.4251
 2082TIP3    H127805   3.908  -0.038   1.482  0.7108  0.6951  0.9771
 2082TIP3    H227806   3.886  -0.050   1.631 -0.7183  0.7356  0.7794
 2083TIP3   OH227807   2.324   1.562   2.498 -0.6074  0.6977 -0.6036
 2083TIP3    H127808   2.283   1.480   2.471  1.3858 -0.8839  0.8153
 2083TIP3    H227809   2.312   1.565   2.592  1.9236  0.4132 -0.1986
 2084TIP3   OH227810   5.122   0.593   3.347 -0.8723 -0.1024 -0.1770
 2084TIP3    H127811   5.070   0.516   3.369  0.7620 -1.3597 -0.5547
 2084TIP3    H227812   5.203   0.582   3.396 -0.4594  1.2135 -0.5294
 2085TIP3   OH227813   2.341   1.447   1.352 -0.2117  0.7651  0.2983
 2085TIP3    H127814   2.279   1.377   1.331  1.4845 -1.2438  1.5997
 2085TIP3    H227815   2.387   1.415   1.430  2.0284  2.4139 -0.2660
 2086TIP3   OH227816   4.671   1.742   3.297  0.1352 -0.1477  0.1213
 2086TIP3    H127817   4.762   1.763   3.314  0.1873 -0.3127  0.0485
 2086TIP3    H227818   4.673   1.656   3.254  0.0176  0.3593 -0.9121
 2087TIP3   OH227819   4.681   5.587   1.703 -0.6731  0.3986  0.5545
 2087TIP3    H127820   4.661   5.572   1.610 -0.5811  3.0725  0.0401
 2087TIP3    H227821   4.751   5.651   1.702 -2.1268  2.1246  2.4664
 2088TIP3   OH227822   4.895   2.628   1.765 -0.3393  0.4187 -0.2191
 2088TIP3    H127823   4.822   2.626   1.703 -1.5069 -2.9249  1.0000
 2088TIP3    H227824   4.863   2.577   1.840  2.6779  0.2945  1.1133
 2089TIP3   OH227825   1.512   5.303   8.124 -0.8446  0.2824 -0.3719
 2089TIP3    H127826   1.454   5.380   8.127  0.6497  1.4344 -0.0700
 2089TIP3    H227827   1.576   5.319   8.193  0.7432 -0.2103 -1.6734
 2090TIP3   OH227828   1.910   5.735   0.299 -0.1140 -0.0557 -0.1025
 2090TIP3    H127829   1.916   5.829   0.320 -0.7914 -0.0604  0.1136
 2090TIP3    H227830   1.978   5.695   0.354  0.0426  0.2805 -0.0422
 2091TIP3   OH227831   4.684   4.638   3.069  0.2336  0.1411  0.0775
 2091TIP3    H127832   4.756   4.612   3.011 -0.4386 -0.0400 -0.6967
 2091TIP3    H227833   4.722   4.703   3.127  1.2557 -0.6164  0.2811
 2092TIP3   OH227834   3.770   1.191   8.742 -0.5786 -0.7990  0.7514
 2092TIP3    H127835   3.743   1.283   8.748 -0.4247 -0.6322 -0.5934
 2092TIP3    H227836   3.840   1.182   8.806  0.3749  0.4191 -0.0637
 2093TIP3   OH227837   5.085   6.470   7.423  0.0083  0.6707  0.0250
 2093TIP3    H127838   5.123   6.545   7.469 -0.6943  0.0796  1.6253
 2093TIP3    H227839   5.152   6.401   7.431 -0.0645  0.6011  0.0322
 2094TIP3   OH227840   4.848   2.077   8.772 -0.7460 -0.5085  0.2292
 2094TIP3    H127841   4.802   2.130   8.837 -2.3133 -1.6887  0.1454
 2094TIP3    H227842   4.778   2.029   8.726  0.3862 -0.4332 -1.6806
 2095TIP3   OH227843   4.855   1.170   0.020  0.2211 -0.4218  0.5028
 2095TIP3    H127844   4.874   1.166   0.114 -0.7335  0.1798  0.7303
 2095TIP3    H227845   4.759   1.168   0.014  0.2161  0.7932 -0.3761
 2096TIP3   OH227846   2.647   1.179   1.417  0.1324  0.1796 -0.0119
 2096TIP3    H127847   2.680   1.269   1.416  2.3282 -0.5733 -1.5042
 2096TIP3    H227848   2.722   1.126   1.442 -0.6108 -1.4111 -1.0178
 2097TIP3   OH227849   6.486   5.029   2.373  0.0418 -0.0213  0.0730
 2097TIP3    H127850   6.465   4.936   2.377  0.5353 -0.1325  0.1033
 2097TIP3    H227851   6.575   5.033   2.338  0.1741  0.4170  0.4451
 2098TIP3   OH227852   5.854   3.677   1.977 -0.4838 -0.1715  0.7340
 2098TIP3    H127853   5.831   3.763   1.940 -0.9216 -0.3443  0.6060
 2098TIP3    H227854   5.903   3.698   2.057 -1.0605  0.2000  0.9965
 2099TIP3   OH227855   1.234   5.445   0.187 -0.2814 -0.4626 -0.6489
 2099TIP3    H127856   1.263   5.367   0.235  1.4321  0.8108  0.5228
 2099TIP3    H227857   1.247   5.517   0.249 -1.6026  0.8046 -1.7736
 2100TIP3   OH227858   3.260   5.439   0.053 -0.1341  0.0456  0.3405
 2100TIP3    H127859   3.180   5.491   0.041 -0.3323 -0.4923 -0.8234
 2100TIP3    H227860   3.317   5.495   0.106 -0.7608  1.0050  0.0266
 2101TIP3   OH227861   2.224   2.556   8.099  0.1393  0.0495  0.2029
 2101TIP3    H127862   2.236   2.631   8.157 -0.8273 -0.3219  0.9201
 2101TIP3    H227863   2.299   2.559   8.039 -0.5110  2.3050 -0.6062
 2102TIP3   OH227864   6.552   5.236   0.647  0.0203  0.0353  0.6130
 2102TIP3    H127865   6.629   5.293   0.635 -0.3663  0.8272  1.6837
 2102TIP3    H227866   6.508   5.237   0.562 -0.2852  1.8411  0.7485
 2103TIP3   OH227867   1.701   2.176   1.055 -0.1878  0.3272 -0.0608
 2103TIP3    H127868   1.764   2.222   1.000  0.9386 -1.3678 -0.2851
 2103TIP3    H227869   1.648   2.125   0.993  0.4360 -0.8223  0.3254
 2104TIP3   OH227870   0.506   5.883   1.064 -0.0714 -0.6152 -0.3680
 2104TIP3    H127871   0.529   5.830   0.988  0.3401 -1.6809  0.4584
 2104TIP3    H227872   0.509   5.821   1.137 -3.8671 -0.4917  0.1040
 2105TIP3   OH227873   3.476   4.204   8.119  0.2805  0.1296  0.2665
 2105TIP3    H127874   3.451   4.208   8.212  1.9775 -0.0552  0.7627
 2105TIP3    H227875   3.571   4.189   8.120  0.0235 -2.0666 -1.5118
 2106TIP3   OH227876   5.688   3.852   3.070 -0.5177 -0.6029 -0.0714
 2106TIP3    H127877   5.775   3.892   3.078 -1.2342  1.1372 -0.5801
 2106TIP3    H227878   5.706   3.758   3.067  1.1857 -0.4280  1.9291
 2107TIP3   OH227879   0.812   6.572   1.796 -0.1757 -0.8665  0.5104
 2107TIP3    H127880   0.809   6.492   1.743 -0.7685 -0.8163  0.4538
 2107TIP3    H227881   0.882   6.624   1.757 -0.6580 -0.7964 -0.2876
 2108TIP3   OH227882   1.479   0.387   1.038 -0.4018 -0.5279  0.4625
 2108TIP3    H127883   1.499   0.444   1.111 -0.1974 -0.6799  0.5267
 2108TIP3    H227884   1.387   0.404   1.018  0.2146  1.5568 -1.0393
 2109TIP3   OH227885   3.248   6.237   2.743 -0.4875  0.3416 -0.4973
 2109TIP3    H127886   3.248   6.142   2.733 -0.0746  0.2144  0.5725
 2109TIP3    H227887   3.190   6.254   2.817  0.3994  0.8131  0.1076
 2110TIP3   OH227888   4.733   1.824   8.684  0.7117  0.0578  0.5010
 2110TIP3    H127889   4.813   1.771   8.679 -0.9077 -2.6366  0.9462
 2110TIP3    H227890   4.734   1.877   8.605  1.6367 -1.9486 -0.9336
 2111TIP3   OH227891   4.541   3.467   8.342 -0.4018  0.2158  0.0367
 2111TIP3    H127892   4.479   3.495   8.410 -2.0340 -1.2147 -0.7741
 2111TIP3    H227893   4.504   3.385   8.309  1.0236  0.2235 -1.7145
 2112TIP3   OH227894   6.740   1.281   0.070 -0.6064  0.6324 -0.5346
 2112TIP3    H127895   6.803   1.337   0.116 -0.7432 -0.2831  0.8285
 2112TIP3    H227896   6.682   1.342   0.025 -0.2187  1.5586  0.1963
 2113TIP3   OH227897   0.941   5.890   1.268  0.2033  0.0103  0.2652
 2113TIP3    H127898   0.885   5.876   1.344  1.3497  1.6449  1.5010
 2113TIP3    H227899   1.003   5.818   1.269 -1.3335 -1.3964 -0.6781
 2114TIP3   OH227900   4.921   5.403   1.699 -0.1439  0.4394  0.7221
 2114TIP3    H127901   4.997   5.460   1.713  0.2595  0.6193 -1.8036
 2114TIP3    H227902   4.848   5.464   1.683 -0.1561  0.2531  0.0670
 2115TIP3   OH227903   5.449   2.460   1.859  0.7596  0.0139 -0.5492
 2115TIP3    H127904   5.512   2.410   1.806  0.1665  0.3397 -1.6062
 2115TIP3    H227905   5.404   2.515   1.795 -0.7127 -0.3298  0.1668
 2116TIP3   OH227906   1.482   0.963   0.626  0.0878 -0.1157  0.0196
 2116TIP3    H127907   1.486   1.058   0.620  0.8841 -0.2242 -2.3580
 2116TIP3    H227908   1.389   0.943   0.630 -0.0812  0.7452  0.9147
 2117TIP3   OH227909   0.270   0.249   1.270  0.3391  0.1171 -0.3268
 2117TIP3    H127910   0.335   0.315   1.294  0.3151  0.0711 -0.1357
 2117TIP3    H227911   0.194   0.269   1.326  0.5964 -0.5259  0.2620
 2118TIP3   OH227912   6.662   1.181   2.881  0.4221  0.2352  0.3310
 2118TIP3    H127913   6.707   1.256   2.841 -0.5682  1.0906  0.7731
 2118TIP3    H227914   6.583   1.219   2.920 -1.6001 -1.4462 -1.8596
 2119TIP3   OH227915   2.147   6.519   1.349  0.6006 -0.0439  1.1880
 2119TIP3    H127916   2.229   6.563   1.327 -0.0492  0.5712 -0.1802
 2119TIP3    H227917   2.173   6.435   1.386  1.8629 -0.5003 -0.5977
 2120TIP3   OH227918   3.223   4.326   1.108 -0.0535  0.1483  0.4262
 2120TIP3    H127919   3.136   4.294   1.082 -0.6302  1.4652  0.6527
 2120TIP3    H227920   3.240   4.399   1.049  1.1360 -0.4122  0.0628
 2121TIP3   OH227921   1.439   6.045   3.508  0.1750  0.4750 -0.0689
 2121TIP3    H127922   1.438   5.979   3.577  0.7373 -0.2116 -0.7058
 2121TIP3    H227923   1.372   6.016   3.446 -0.8346  1.4701  0.5130
 2122TIP3   OH227924   2.215   5.388   0.219  0.2418  0.1692 -0.2915
 2122TIP3    H127925   2.131   5.383   0.266 -0.9290 -0.4394 -2.3613
 2122TIP3    H227926   2.265   5.314   0.252 -0.5334 -0.2163  0.0507
 2123TIP3   OH227927   5.993   4.657   2.569  0.3126 -0.3803  0.1009
 2123TIP3    H127928   5.995   4.740   2.616 -1.4797 -1.0576  1.5125
 2123TIP3    H227929   6.060   4.666   2.501  1.1427  1.6591  1.0979
 2124TIP3   OH227930   1.041   3.522   2.262 -0.2407  0.3492  1.1107
 2124TIP3    H127931   1.108   3.589   2.274  1.6333 -0.7049 -2.2308
 2124TIP3    H227932   0.967   3.568   2.222  1.0431  0.5442 -1.1914
 2125TIP3   OH227933   0.034   3.958   2.789  0.4343 -0.7792 -0.2246
 2125TIP3    H127934   0.041   3.943   2.695 -0.1546 -1.0487 -0.2275
 2125TIP3    H227935   0.042   4.053   2.798  1.6774 -0.8384 -0.4276
 2126TIP3   OH227936   3.907   3.976   7.162 -0.1233 -0.1142  0.1659
 2126TIP3    H127937   3.853   4.043   7.204  0.0218 -1.2775  2.3529
 2126TIP3    H227938   3.995   4.013   7.160 -0.0153 -0.2844  1.4928
 2127TIP3   OH227939   4.856   4.683   0.340 -0.2163 -0.2107  0.0675
 2127TIP3    H127940   4.875   4.594   0.311  0.1330 -0.2863  0.5045
 2127TIP3    H227941   4.858   4.678   0.436 -1.1990  0.0585  0.1168
 2128TIP3   OH227942   5.580   1.929   1.227  0.3273  0.0489  0.2282
 2128TIP3    H127943   5.667   1.931   1.267 -0.0801 -1.2627  1.2676
 2128TIP3    H227944   5.577   1.846   1.179  0.0875  0.6775 -0.8846
 2129TIP3   OH227945   0.415   5.557   8.258  0.3005 -0.6610  0.5344
 2129TIP3    H127946   0.341   5.496   8.259 -0.6478  0.4540  1.4234
 2129TIP3    H227947   0.489   5.505   8.287 -0.0446 -1.8829 -0.6597
 2130TIP3   OH227948   3.973   5.830   0.733 -0.7053  0.0577 -0.0038
 2130TIP3    H127949   3.919   5.891   0.681  0.7940  1.3450 -0.1138
 2130TIP3    H227950   3.980   5.752   0.677  0.7048  1.3304 -1.7147
 2131TIP3   OH227951   4.431   0.010   0.508  0.4155 -0.1390  0.0381
 2131TIP3    H127952   4.404  -0.055   0.573 -1.1986 -0.4958 -0.9138
 2131TIP3    H227953   4.525   0.020   0.521  0.1548 -0.2864  2.3095
 2132TIP3   OH227954   5.040   6.259   7.678 -0.2154 -0.0015  0.5916
 2132TIP3    H127955   5.063   6.254   7.585  2.8720  0.5335  1.2183
 2132TIP3    H227956   4.967   6.321   7.681  0.6001  1.1629 -1.3679
 2133TIP3   OH227957   3.488   1.141   0.201  0.3896  0.0037 -0.0106
 2133TIP3    H127958   3.426   1.101   0.139 -1.6315  2.0789  0.5342
 2133TIP3    H227959   3.502   1.229   0.166  0.6764  0.5684  1.4918
 2134TIP3   OH227960   2.931   5.363   0.419  0.1656 -0.4786 -0.1214
 2134TIP3    H127961   2.923   5.269   0.430 -0.5802 -0.3419  0.6001
 2134TIP3    H227962   2.997   5.390   0.482  0.6130 -0.5548 -0.5518
 2135TIP3   OH227963   0.665   3.715   8.295  0.5533  0.1032 -0.3668
 2135TIP3    H127964   0.585   3.692   8.248  0.0978  1.1985 -0.1755
 2135TIP3    H227965   0.735   3.704   8.231  0.4390 -2.0236 -0.1981
 2136TIP3   OH227966   1.528   5.950   7.026 -0.6139 -0.0691 -0.5310
 2136TIP3    H127967   1.517   5.915   7.115  0.4361 -1.0846 -0.7734
 2136TIP3    H227968   1.438   5.963   6.994 -1.0052  0.0112  0.5566
 2137TIP3   OH227969   3.552   6.760   0.050 -0.0190 -0.0568  0.0457
 2137TIP3    H127970   3.600   6.814  -0.013  0.9893 -0.3493  0.5517
 2137TIP3    H227971   3.500   6.823   0.101 -1.0759  0.1606 -1.2474
 2138TIP3   OH227972   2.751   0.090   1.060 -0.5790  0.3463  0.1730
 2138TIP3    H127973   2.806   0.168   1.053 -2.4364  1.6731 -0.4688
 2138TIP3    H227974   2.713   0.095   1.147 -0.4822 -0.0052  0.2370
 2139TIP3   OH227975   6.732   4.162   8.833 -0.2286 -0.0750  0.3232
 2139TIP3    H127976   6.813   4.150   8.882 -0.1468  0.9036  0.4502
 2139TIP3    H227977   6.760   4.204   8.751 -0.4907 -0.6968 -0.0959
 2140TIP3   OH227978   5.458   0.886   8.675 -0.2142 -0.1835 -0.3663
 2140TIP3    H127979   5.452   0.803   8.721 -0.1050  1.1420  2.1813
 2140TIP3    H227980   5.549   0.892   8.647  0.4135  0.1658  1.6611
 2141TIP3   OH227981   2.806   2.855   8.600  0.6573 -0.0091  0.0067
 2141TIP3    H127982   2.844   2.902   8.674 -0.0349 -0.1663  0.4729
 2141TIP3    H227983   2.712   2.858   8.616  0.5999 -1.8843  0.2668
 2142TIP3   OH227984   0.673   1.713   0.153 -0.1741 -0.4115  0.1872
 2142TIP3    H127985   0.707   1.628   0.182  1.6220 -0.1653 -1.0332
 2142TIP3    H227986   0.641   1.697   0.064 -0.8057 -0.0233  0.3362
 2143TIP3   OH227987   1.255   3.615   0.933  0.2490 -0.2142  0.0201
 2143TIP3    H127988   1.210   3.645   0.854 -0.4495  0.4155  0.6415
 2143TIP3    H227989   1.187   3.571   0.984  0.0044  1.7413  1.4994
 2144TIP3   OH227990   2.436   5.347   0.730  0.1855  0.0595 -0.1477
 2144TIP3    H127991   2.496   5.279   0.699  0.5100  0.0646  0.4572
 2144TIP3    H227992   2.399   5.311   0.810 -0.7520 -0.0097 -0.5960
 2145TIP3   OH227993   0.995   3.867   2.723 -1.0897  0.1866 -0.1343
 2145TIP3    H127994   0.963   3.779   2.744 -0.6665 -0.4391 -1.8939
 2145TIP3    H227995   0.944   3.926   2.778 -1.3189 -1.1679  1.1441
 2146TIP3   OH227996   0.866   1.275   2.851  0.3606  0.0134  0.4298
 2146TIP3    H127997   0.873   1.299   2.944 -0.9247  1.5240  0.1896
 2146TIP3    H227998   0.812   1.345   2.813  0.1404 -1.0421 -1.2851
 2147TIP3   OH227999   4.255   1.146   1.132 -0.2781 -0.2454  0.0195
 2147TIP3    H128000   4.280   1.105   1.214 -0.0503  1.3691  0.7982
 2147TIP3    H228001   4.331   1.200   1.108 -0.1673 -1.0257 -1.4920
 2148TIP3   OH228002   0.238   0.902   2.588 -0.1027 -0.0990 -0.1973
 2148TIP3    H128003   0.180   0.954   2.643  2.2899  1.1858  1.3095
 2148TIP3    H228004   0.309   0.876   2.646 -0.7855 -4.6000 -1.0494
 2149TIP3   OH228005   5.705   0.006   1.987 -0.2233  0.2588 -0.3615
 2149TIP3    H128006   5.647   0.061   1.934 -0.2471 -1.0346 -1.7464
 2149TIP3    H228007   5.711   0.051   2.071  0.1075  2.5721 -1.5687
 2150TIP3   OH228008   1.132   3.119   3.153  0.1632  0.4006  0.0484
 2150TIP3    H128009   1.064   3.064   3.193 -0.0146  0.5866  0.0014
 2150TIP3    H228010   1.195   3.133   3.223  0.1170  0.2868  0.1133
 2151TIP3   OH228011   4.507   6.202   1.354  0.8461 -0.3435 -0.1673
 2151TIP3    H128012   4.478   6.169   1.270 -0.7131  0.2323  0.1107
 2151TIP3    H228013   4.573   6.268   1.333  0.0706  0.1937 -0.9758
 2152TIP3   OH228014   2.591   3.690   2.719  0.1304 -0.4369 -0.6484
 2152TIP3    H128015   2.536   3.629   2.767 -0.6833  0.4515 -0.4204
 2152TIP3    H228016   2.628   3.639   2.647 -0.2074 -1.2887 -0.2218
 2153TIP3   OH228017   5.305   5.337   0.414  0.4886 -0.4999 -0.5666
 2153TIP3    H128018   5.292   5.247   0.444 -0.6500  0.0323  0.6035
 2153TIP3    H228019   5.217   5.367   0.389  0.8712  0.2566 -1.0550
 2154TIP3   OH228020   3.918   2.799   2.055 -0.6762 -0.1443 -0.3955
 2154TIP3    H128021   3.984   2.810   1.987  1.1573 -0.3708  1.2524
 2154TIP3    H228022   3.888   2.708   2.045  1.8488 -1.2213  0.9179
 2155TIP3   OH228023   4.058   6.596   2.431 -0.4516 -0.7399 -0.6351
 2155TIP3    H128024   3.964   6.582   2.444 -0.8965  0.8847 -1.7667
 2155TIP3    H228025   4.068   6.691   2.431  1.1164 -0.8744 -1.1837
 2156TIP3   OH228026   5.145   3.058   2.048  0.0814  0.2422 -0.4386
 2156TIP3    H128027   5.122   2.969   2.074  1.1440  0.2599  0.6360
 2156TIP3    H228028   5.199   3.046   1.970 -1.0620  0.0487 -1.2230
 2157TIP3   OH228029   0.179   1.992   3.382  0.3048 -0.1775 -0.0386
 2157TIP3    H128030   0.210   2.063   3.438 -0.6762 -0.3134  0.7180
 2157TIP3    H228031   0.251   1.929   3.382  0.7078  0.2682  0.2677
 2158TIP3   OH228032   3.046   5.132   8.813 -0.1008  0.1478 -0.0000
 2158TIP3    H128033   3.020   5.100   8.727 -0.1333 -0.4828  0.2396
 2158TIP3    H228034   3.136   5.103   8.824  0.3724  1.3971 -0.3734
 2159TIP3   OH228035   2.098   4.591   7.205  0.3407 -0.0435 -0.3045
 2159TIP3    H128036   2.171   4.585   7.267 -1.2732  0.7396  1.8251
 2159TIP3    H228037   2.070   4.682   7.210  0.4410  0.1571 -2.6097
 2160TIP3   OH228038   3.368   6.783   0.963  0.3746 -0.7240  0.2041
 2160TIP3    H128039   3.419   6.834   0.900 -0.3393  0.7610  0.7759
 2160TIP3    H228040   3.316   6.724   0.909  0.1472  0.1787 -0.6035
 2161TIP3   OH228041   0.405   1.007   0.089 -0.0355  0.3509 -0.2123
 2161TIP3    H128042   0.352   1.006   0.010 -0.1441  1.2447 -0.1648
 2161TIP3    H228043   0.490   1.041   0.060  0.6413 -1.3561 -0.3508
 2162TIP3   OH228044   3.764   5.886   2.584 -0.2729 -0.1567  0.2056
 2162TIP3    H128045   3.696   5.943   2.621 -0.9578 -1.6741  1.3981
 2162TIP3    H228046   3.744   5.882   2.491 -2.8925 -1.8630  0.7444
 2163TIP3   OH228047   5.708   2.561   1.549 -0.1996 -0.2905 -0.1117
 2163TIP3    H128048   5.771   2.520   1.491  0.4112  0.6025 -0.0999
 2163TIP3    H228049   5.633   2.583   1.493  0.0918 -0.0795 -0.4182
 2164TIP3   OH228050   0.862   3.200   3.365  0.2217 -0.1344 -0.0232
 2164TIP3    H128051   0.897   3.112   3.353 -1.7226 -0.8485 -0.8118
 2164TIP3    H228052   0.769   3.187   3.385 -0.0860  1.7286 -0.0342
 2165TIP3   OH228053   2.362   1.365   0.407  0.3928 -0.5402  0.3145
 2165TIP3    H128054   2.278   1.346   0.448 -0.1847  1.9290  0.3856
 2165TIP3    H228055   2.350   1.338   0.316 -0.5398 -0.1070  0.2948
 2166TIP3   OH228056   3.983   4.979   7.993 -0.6319 -0.0336 -0.6248
 2166TIP3    H128057   3.986   4.917   7.920  0.0919 -0.5944 -0.1317
 2166TIP3    H228058   4.012   5.062   7.956  1.3965 -0.6941 -0.6218
 2167TIP3   OH228059   4.866   3.722   8.230 -0.2358 -0.2531 -0.6773
 2167TIP3    H128060   4.858   3.634   8.267  0.2440 -0.3982 -0.9098
 2167TIP3    H228061   4.936   3.715   8.165  0.7492  0.6197  0.2665
 2168TIP3   OH228062   0.305   5.258   0.460  0.4476 -0.1545  0.1307
 2168TIP3    H128063   0.250   5.202   0.404  1.5338 -0.4729 -0.6454
 2168TIP3    H228064   0.389   5.262   0.415  1.0975  0.2604  1.3375
 2169TIP3   OH228065   3.255   5.213   1.324  0.3260 -0.7639  0.4614
 2169TIP3    H128066   3.329   5.237   1.379  1.3532  1.7317 -1.8280
 2169TIP3    H228067   3.266   5.119   1.308  2.9845 -0.4701  0.2251
 2170TIP3   OH228068   3.220   2.205   0.899 -0.5671  0.5099  0.4062
 2170TIP3    H128069   3.156   2.134   0.905  0.4624 -0.4577  0.2948
 2170TIP3    H228070   3.303   2.165   0.924  0.3984  1.1605 -1.5207
 2171TIP3   OH228071   3.281   6.336   7.259 -0.4001  0.4806  0.0866
 2171TIP3    H128072   3.192   6.371   7.256 -1.5923 -1.4783  4.3083
 2171TIP3    H228073   3.270   6.242   7.243  0.5580 -0.0661  2.3276
 2172TIP3   OH228074   0.995   6.777   7.993 -0.1648 -0.1914  0.3993
 2172TIP3    H128075   0.908   6.738   8.007  0.0261 -0.0477  2.2599
 2172TIP3    H228076   0.986   6.827   7.912 -0.9436 -2.5704 -1.0621
 2173TIP3   OH228077   3.189   6.119   7.775 -0.6828  0.0101 -0.3669
 2173TIP3    H128078   3.244   6.086   7.704 -0.9720 -1.4531  0.0650
 2173TIP3    H228079   3.147   6.042   7.811  0.2077  0.5590  2.0648
 2174TIP3   OH228080   6.604   5.704   2.044 -0.5105  0.2479 -0.1303
 2174TIP3    H128081   6.608   5.641   1.972  0.3279  1.2944 -1.0250
 2174TIP3    H228082   6.642   5.657   2.119 -1.2931 -0.8114 -0.3836
 2175TIP3   OH228083   2.488   6.772   2.898 -0.1187  0.3859  0.1426
 2175TIP3    H128084   2.536   6.840   2.850  0.9785  0.9053  1.8972
 2175TIP3    H228085   2.418   6.819   2.943  0.1642  0.2370  0.7401
 2176TIP3   OH228086   2.092   2.265   2.069 -0.0845 -0.0616 -0.2963
 2176TIP3    H128087   2.077   2.343   2.122 -1.7532  0.2757 -1.2053
 2176TIP3    H228088   2.183   2.240   2.089 -0.4332  0.3863  2.2356
 2177TIP3   OH228089   4.830   5.039   1.425  0.6045  0.0746  0.4318
 2177TIP3    H128090   4.862   4.957   1.389 -1.5715 -0.4625 -0.4225
 2177TIP3    H228091   4.747   5.056   1.380 -0.0773  1.6352  2.0880
 2178TIP3   OH228092   2.007   2.088   2.927  0.5049 -0.8219 -0.1448
 2178TIP3    H128093   1.938   2.039   2.971  0.8883 -0.4215  0.9370
 2178TIP3    H228094   2.039   2.149   2.994 -0.6772  1.6832 -1.7196
 2179TIP3   OH228095   3.427   1.920   2.531 -0.5008  0.0317 -0.2422
 2179TIP3    H128096   3.513   1.937   2.569 -0.9681  2.9049 -0.3084
 2179TIP3    H228097   3.445   1.908   2.437 -0.0588 -0.8001 -0.0672
 2180TIP3   OH228098   0.442   0.590   1.303  0.1895 -0.2626 -0.2238
 2180TIP3    H128099   0.499   0.667   1.301  0.0759 -0.1773 -0.2337
 2180TIP3    H228100   0.418   0.576   1.211 -1.9755  1.3479  0.0010
 2181TIP3   OH228101   5.636   5.156   1.449 -0.1831 -0.4485 -0.3246
 2181TIP3    H128102   5.687   5.147   1.530 -0.6317  0.3674  0.0644
 2181TIP3    H228103   5.549   5.122   1.471  0.1852 -1.9030 -1.0083
 2182TIP3   OH228104   2.716   2.524   1.870 -0.3757  0.1252 -0.6177
 2182TIP3    H128105   2.669   2.547   1.950 -0.5729  1.0795 -0.9937
 2182TIP3    H228106   2.690   2.591   1.807  0.5967 -0.0071 -1.1751
 2183TIP3   OH228107   3.401   6.224   1.994  0.3279 -0.2136 -0.0598
 2183TIP3    H128108   3.380   6.169   2.070 -1.5965 -0.5508 -0.7768
 2183TIP3    H228109   3.406   6.163   1.921 -2.5384  0.4853 -1.0058
 2184TIP3   OH228110   3.429   0.413   8.485  0.9238  0.1243 -0.5209
 2184TIP3    H128111   3.415   0.494   8.436  0.4882 -0.2088 -0.9518
 2184TIP3    H228112   3.517   0.422   8.522  2.1268 -0.4868 -3.0181
 2185TIP3   OH228113   2.439   5.098   1.323  0.0105 -0.1590 -0.5171
 2185TIP3    H128114   2.473   5.048   1.397  1.5439 -0.6827 -1.5221
 2185TIP3    H228115   2.363   5.048   1.293  0.4499 -0.9097 -0.3995
 2186TIP3   OH228116   6.304   5.690   8.693  0.6311 -0.4435 -0.1180
 2186TIP3    H128117   6.385   5.742   8.688  0.3403  0.0277  0.0187
 2186TIP3    H228118   6.277   5.698   8.784  1.0982 -1.6315  0.1380
 2187TIP3   OH228119   4.865   5.481   0.139 -0.4101  0.4398 -0.1709
 2187TIP3    H128120   4.900   5.423   0.206 -0.5433  0.4691 -0.0760
 2187TIP3    H228121   4.839   5.560   0.187  2.1998  1.6952 -0.6058
 2188TIP3   OH228122   4.756   2.870   1.979 -0.2159 -0.6100  0.2015
 2188TIP3    H128123   4.733   2.878   2.072  0.1925 -1.6211  0.4004
 2188TIP3    H228124   4.793   2.955   1.956 -0.0616 -0.4428  1.0387
 2189TIP3   OH228125   5.780   5.571   0.083  0.4739  0.3162 -0.4335
 2189TIP3    H128126   5.720   5.621   0.028  0.2676  0.7261  0.1573
 2189TIP3    H228127   5.841   5.636   0.118 -2.0253  0.9084  3.3611
 2190TIP3   OH228128   3.376   3.912   7.717 -0.2539 -0.7198  0.1882
 2190TIP3    H128129   3.334   3.943   7.797 -0.6357  1.1896 -0.6945
 2190TIP3    H228130   3.308   3.859   7.674 -0.6113 -0.4071  0.3617
 2191TIP3   OH228131   1.023   3.434   0.085 -0.0475  0.3723 -0.8338
 2191TIP3    H128132   0.942   3.479   0.108 -0.3359 -1.0271  1.0964
 2191TIP3    H228133   1.083   3.454   0.157 -0.0556 -1.8721 -0.1096
 2192TIP3   OH228134   0.182   3.581   0.080  0.0964 -0.4077  0.0143
 2192TIP3    H128135   0.193   3.634   0.159 -0.1063 -1.7810  0.9807
 2192TIP3    H228136   0.256   3.607   0.024  1.0610 -0.4391  1.2338
 2193TIP3   OH228137   6.370   1.903   2.812 -0.8627  0.2047  0.1582
 2193TIP3    H128138   6.296   1.957   2.841 -0.6249 -0.1751  1.4970
 2193TIP3    H228139   6.446   1.939   2.858 -0.2520  0.3554 -0.9281
 2194TIP3   OH228140   5.706   3.419   7.769  0.6272  0.0872  0.3518
 2194TIP3    H128141   5.645   3.492   7.756 -0.1604 -0.0077  3.0338
 2194TIP3    H228142   5.787   3.461   7.799  0.7513 -0.0513  0.2156
 2195TIP3   OH228143   1.453   0.574   7.644 -0.3463  0.2366 -0.0367
 2195TIP3    H128144   1.406   0.598   7.724 -0.9851  0.3760 -0.4483
 2195TIP3    H228145   1.417   0.632   7.577  1.1241  1.0580 -0.1750
 2196TIP3   OH228146   1.971   5.344   1.926 -0.4953 -0.3341  0.1808
 2196TIP3    H128147   1.877   5.358   1.933 -0.3700  0.5727  0.1886
 2196TIP3    H228148   1.980   5.261   1.880 -1.3135  0.5117 -1.6042
 2197TIP3   OH228149   4.757   2.068   0.334  0.1302 -0.0989 -0.1511
 2197TIP3    H128150   4.836   2.121   0.342  0.9223 -1.5067  1.7044
 2197TIP3    H228151   4.771   2.015   0.256  1.5642 -1.1886  0.8192
 2198TIP3   OH228152   6.289   2.999   1.428  0.0714  0.0872  0.1699
 2198TIP3    H128153   6.365   3.026   1.376 -1.2615  1.2690 -1.2287
 2198TIP3    H228154   6.239   2.941   1.370  0.6001 -1.9319  1.5977
 2199TIP3   OH228155   1.225   5.257   8.498  0.7589 -0.3288 -0.2474
 2199TIP3    H128156   1.295   5.322   8.494  0.9678 -0.5769 -0.7660
 2199TIP3    H228157   1.212   5.241   8.592  1.7091 -0.6045 -0.1500
 2200TIP3   OH228158   6.376   3.073   2.240 -0.5868 -0.1787 -0.0124
 2200TIP3    H128159   6.371   3.108   2.150 -1.7614  1.0449  0.4898
 2200TIP3    H228160   6.313   3.000   2.240  3.6162 -4.2977 -1.7676
 2201TIP3   OH228161   0.328   2.476   1.562 -0.2564  0.6135  0.1420
 2201TIP3    H128162   0.365   2.393   1.534  0.9011 -0.3283  3.9469
 2201TIP3    H228163   0.395   2.541   1.542  0.7914 -0.1066  1.2552
 2202TIP3   OH228164   2.391   5.764   8.465  0.2439  0.1148  0.0984
 2202TIP3    H128165   2.350   5.843   8.429  0.0062 -0.1723 -0.2673
 2202TIP3    H228166   2.393   5.780   8.560 -1.6223 -0.2459  0.2554
 2203TIP3   OH228167   5.301   3.961   0.344  0.2447  0.4302 -0.1588
 2203TIP3    H128168   5.367   3.897   0.371 -1.1983 -1.0441  0.0335
 2203TIP3    H228169   5.288   4.015   0.421  1.0382  0.5872 -0.1212
 2204TIP3   OH228170   6.718   1.767   1.011  0.1100  0.2600 -0.2513
 2204TIP3    H128171   6.705   1.745   0.919  0.3335  0.0215 -0.2267
 2204TIP3    H228172   6.631   1.793   1.042  0.5144  3.3677 -1.3060
 2205TIP3   OH228173   3.954   1.997   8.087 -0.0160  0.0030 -0.2393
 2205TIP3    H128174   4.002   2.075   8.058  0.8102 -0.2492  0.4325
 2205TIP3    H228175   3.920   1.959   8.006  1.0771  0.0812 -0.7492
 2206TIP3   OH228176   5.286   6.570   1.415 -0.0154 -0.0151  0.0129
 2206TIP3    H128177   5.295   6.664   1.400 -0.0430  0.1016  0.6924
 2206TIP3    H228178   5.198   6.549   1.384 -0.7694  0.5705  1.6420
 2207TIP3   OH228179   0.608   2.923   2.458 -0.2705  0.1463  0.1024
 2207TIP3    H128180   0.542   2.855   2.439 -3.3919  2.8558  0.3025
 2207TIP3    H228181   0.568   2.975   2.527  3.0414  0.9011  1.6050
 2208TIP3   OH228182   4.550   3.229   8.054  0.1349  0.5726 -0.4239
 2208TIP3    H128183   4.620   3.165   8.070  0.5388  1.1938  0.4234
 2208TIP3    H228184   4.596   3.309   8.029 -0.2401  1.0838  0.4694
 2209TIP3   OH228185   2.286   2.976   0.138 -0.1170 -0.2451 -0.0437
 2209TIP3    H128186   2.380   2.998   0.137 -0.5263  1.7311 -1.1649
 2209TIP3    H228187   2.267   2.960   0.230  1.4033 -1.1022  0.1581
 2210TIP3   OH228188   0.016   2.553   0.890  0.2023 -0.6701  0.0137
 2210TIP3    H128189   0.015   2.539   0.985  3.6484 -4.7686 -0.2392
 2210TIP3    H228190  -0.023   2.473   0.853 -0.8875  0.7367 -2.1217
 2211TIP3   OH228191   6.429   2.352   1.218 -0.1309 -0.6130 -0.3264
 2211TIP3    H128192   6.381   2.276   1.251 -1.7985 -0.2609 -1.7756
 2211TIP3    H228193   6.456   2.399   1.297  0.7624 -2.5623  0.5931
 2212TIP3   OH228194   5.262   2.220   8.821 -0.0697  0.2047  0.0539
 2212TIP3    H128195   5.196   2.155   8.845  0.4835  0.1224  1.4324
 2212TIP3    H228196   5.333   2.169   8.783  0.3199  0.0077  1.0379
 2213TIP3   OH228197   2.472   2.525   2.111  0.2389  0.5006 -0.0483
 2213TIP3    H128198   2.392   2.508   2.160  0.3757 -0.1726 -0.0507
 2213TIP3    H228199   2.541   2.485   2.163  0.3647 -0.4033 -0.8684
 2214TIP3   OH228200   5.216   5.132   8.441  0.2720  0.2565 -0.7219
 2214TIP3    H128201   5.179   5.182   8.368  1.0581 -0.1767 -1.4421
 2214TIP3    H228202   5.292   5.183   8.469 -1.5401  1.8355  1.6375
 2215TIP3   OH228203   1.984   4.044   1.855  0.3654  0.2424 -0.1473
 2215TIP3    H128204   1.969   4.031   1.949  0.9329  0.8085  0.0287
 2215TIP3    H228205   2.025   4.130   1.849 -0.7256  0.7338 -1.0223
 2216TIP3   OH228206   5.502   5.705   8.852  0.6079 -0.1353 -0.0798
 2216TIP3    H128207   5.440   5.645   8.811  0.6577 -0.5928  0.5028
 2216TIP3    H228208   5.459   5.732   8.933 -0.1180  1.8968 -1.0908
 2217TIP3   OH228209   0.899   4.058   3.301 -0.6029 -0.5120 -0.1484
 2217TIP3    H128210   0.953   4.136   3.291 -1.5954  0.4203  1.2316
 2217TIP3    H228211   0.814   4.083   3.266 -0.6550 -1.3351 -0.6292
 2218TIP3   OH228212   3.768   1.062   1.953  0.5260  0.6195 -0.1817
 2218TIP3    H128213   3.822   1.008   2.010  1.2898  1.7801  0.2064
 2218TIP3    H228214   3.729   1.127   2.011 -1.2539 -0.1283 -0.4631
 2219TIP3   OH228215   3.616   5.206   1.008 -0.2573  0.6055  0.1704
 2219TIP3    H128216   3.702   5.242   1.031 -0.1101  0.7600 -0.5949
 2219TIP3    H228217   3.631   5.112   1.003 -0.0458  0.6585 -0.2852
 2220TIP3   OH228218   6.432   4.038   1.740  0.4127  0.2316  0.0940
 2220TIP3    H128219   6.349   4.047   1.694  0.6767  0.1647 -0.4016
 2220TIP3    H228220   6.439   3.945   1.761 -0.3756  0.4720  1.5511
 2221TIP3   OH228221   1.211   5.195   8.187  0.1846  0.4038 -0.5727
 2221TIP3    H128222   1.299   5.229   8.201  0.0815  0.9072 -1.0855
 2221TIP3    H228223   1.195   5.209   8.094  0.3817 -1.6623 -0.9697
 2222TIP3   OH228224   3.940   4.172   8.820  0.5614  0.1498  0.2036
 2222TIP3    H128225   3.885   4.129   8.755 -1.2754  1.0704  1.0920
 2222TIP3    H228226   4.000   4.226   8.768  1.3158 -1.5642 -0.8175
 2223TIP3   OH228227   6.217   4.762   1.450 -0.0116  0.2950 -0.3023
 2223TIP3    H128228   6.171   4.771   1.533 -1.7780 -0.5829 -1.1404
 2223TIP3    H228229   6.150   4.773   1.383  1.5304  2.0391 -1.7012
 2224TIP3   OH228230   3.956   2.726   8.020 -0.1945 -0.1043 -0.2085
 2224TIP3    H128231   3.929   2.740   7.929 -0.2433 -0.9736 -0.3387
 2224TIP3    H228232   4.024   2.659   8.015 -0.6706 -0.6541  0.4512
 2225TIP3   OH228233   0.249   2.140   1.685 -0.1003  0.1969  0.3514
 2225TIP3    H128234   0.327   2.174   1.640 -0.0412 -0.1892  0.1501
 2225TIP3    H228235   0.260   2.165   1.776  0.0697  0.4828  0.2520
 2226TIP3   OH228236   3.304   6.019   0.869 -0.1676  0.8977  0.2579
 2226TIP3    H128237   3.225   5.987   0.826  1.2276  0.0302 -1.8255
 2226TIP3    H228238   3.330   5.948   0.928  0.7125 -0.2186 -1.3856
 2227TIP3   OH228239   5.637   6.489   1.737  0.3680 -0.1293  0.5724
 2227TIP3    H128240   5.667   6.413   1.787  0.6078 -0.2452  0.2501
 2227TIP3    H228241   5.609   6.551   1.804  1.4804  0.0472  0.8913
 2228TIP3   OH228242   0.446   2.637   2.430 -0.4700 -0.7242  0.4262
 2228TIP3    H128243   0.374   2.584   2.465 -0.1359 -1.8079 -0.4757
 2228TIP3    H228244   0.433   2.636   2.335 -0.1660  0.4077  0.3635
 2229TIP3   OH228245   6.720   5.448   0.644  0.0505 -0.7369 -0.3921
 2229TIP3    H128246   6.780   5.466   0.716  0.7645 -1.5972 -0.7426
 2229TIP3    H228247   6.733   5.521   0.583 -2.3182  1.2995  1.3812
 2230TIP3   OH228248   4.412   6.282   8.570  0.3938 -0.4235 -0.2645
 2230TIP3    H128249   4.425   6.340   8.645 -0.3254 -0.0618 -0.4029
 2230TIP3    H228250   4.493   6.287   8.520  0.6846 -0.2682  0.2252
 2231TIP3   OH228251   4.800   0.882   2.084 -0.2638 -0.0478 -0.1318
 2231TIP3    H128252   4.723   0.937   2.094 -0.0437  0.3127 -0.3747
 2231TIP3    H228253   4.784   0.832   2.004 -1.3066 -1.7488  1.0717
 2232TIP3   OH228254   2.409   6.537   1.721 -0.5152 -0.1689 -0.3881
 2232TIP3    H128255   2.432   6.529   1.814 -1.5130  0.3394 -0.0893
 2232TIP3    H228256   2.486   6.577   1.681 -0.0248 -0.5158  0.1867
 2233TIP3   OH228257   6.107   5.348   1.265  0.1265  0.1282  0.6558
 2233TIP3    H128258   6.097   5.385   1.177 -0.9210  1.3282  1.2385
 2233TIP3    H228259   6.017   5.340   1.297  0.5097 -0.1056  1.6844
 2234TIP3   OH228260   2.705   4.114   1.126 -0.3997  0.3769  0.5369
 2234TIP3    H128261   2.662   4.163   1.197 -0.4508  0.3900  0.4966
 2234TIP3    H228262   2.643   4.044   1.105 -0.1953  0.1133  0.7985
 2235TIP3   OH228263   6.155   2.321   0.467  0.1947 -0.2020 -0.3747
 2235TIP3    H128264   6.187   2.396   0.419  0.4936  0.7075  1.1710
 2235TIP3    H228265   6.231   2.287   0.513  0.0386 -1.3944 -0.9536
 2236TIP3   OH228266   0.219   0.452   8.708 -0.4644  0.5967 -0.6568
 2236TIP3    H128267   0.127   0.456   8.732 -0.1530 -0.1379  0.7463
 2236TIP3    H228268   0.240   0.358   8.707  0.5211  0.7853  0.1467
 2237TIP3   OH228269   6.772   4.169   2.334 -0.2280 -0.2230 -0.7389
 2237TIP3    H128270   6.787   4.174   2.240  0.3244 -1.3142 -0.7216
 2237TIP3    H228271   6.677   4.175   2.344 -0.2152  1.3394 -1.2499
 2238TIP3   OH228272   4.794   0.999   2.470 -0.0135  1.0389 -0.0551
 2238TIP3    H128273   4.838   0.975   2.389 -1.1279 -1.1896 -0.0456
 2238TIP3    H228274   4.701   0.989   2.452 -0.2605 -0.9848  1.8622
 2239TIP3   OH228275   1.415   2.183   0.500  1.0071 -0.2084  0.3654
 2239TIP3    H128276   1.458   2.269   0.498 -1.1186  0.9697  1.3343
 2239TIP3    H228277   1.330   2.198   0.458 -0.2682 -1.2616  2.4144
 2240TIP3   OH228278   6.587   3.719   0.276  0.4152 -0.1983 -0.2055
 2240TIP3    H128279   6.592   3.658   0.202  1.6513  0.3794 -0.6252
 2240TIP3    H228280   6.581   3.662   0.353 -0.4909 -0.8112 -0.7083
 2241TIP3   OH228281   6.130   5.215   7.643 -0.5757 -0.1644 -0.3088
 2241TIP3    H128282   6.087   5.180   7.564 -0.4304 -1.1287  0.0321
 2241TIP3    H228283   6.135   5.141   7.703  0.1362  0.3368  0.2703
 2242TIP3   OH228284   0.905   4.769   8.709  0.1458  0.3858 -0.0166
 2242TIP3    H128285   0.933   4.702   8.647  1.2349  1.0892 -0.3134
 2242TIP3    H228286   0.929   4.734   8.795 -0.5383 -0.1921 -0.0553
 2243TIP3   OH228287   1.998   3.243   2.423  0.1126 -0.2682 -0.4147
 2243TIP3    H128288   1.940   3.175   2.456 -1.3480  0.3117 -1.6338
 2243TIP3    H228289   2.015   3.218   2.332  0.6091  0.3247 -0.4948
 2244TIP3   OH228290   1.686   2.135   8.781  1.1125 -0.0515 -0.3638
 2244TIP3    H128291   1.763   2.147   8.837  0.5794 -1.3727  0.7193
 2244TIP3    H228292   1.722   2.103   8.698  1.7072 -2.3018  0.6682
 2245TIP3   OH228293   5.639   2.926   2.374  0.3237 -0.1958 -0.3963
 2245TIP3    H128294   5.711   2.929   2.436  0.2594 -1.8237 -0.2133
 2245TIP3    H228295   5.580   2.996   2.403  0.7596 -0.3000  0.7899
 2246TIP3   OH228296   5.776   1.619   7.853  0.4220  0.2081 -0.5022
 2246TIP3    H128297   5.849   1.639   7.795  0.5614  1.4835  0.0866
 2246TIP3    H228298   5.699   1.626   7.797  0.6657 -0.2397 -0.9093
 2247TIP3   OH228299   5.424   0.742   1.589  0.2061 -0.2888  0.0347
 2247TIP3    H128300   5.410   0.730   1.683  1.6865 -0.8902  0.2119
 2247TIP3    H228301   5.362   0.682   1.548  0.7368 -1.3238  0.6994
 2248TIP3   OH228302   4.964   5.556   2.699  0.0838 -0.3338  0.0886
 2248TIP3    H128303   5.035   5.492   2.691  1.1475  0.6298  1.3242
 2248TIP3    H228304   4.908   5.522   2.769 -0.3245 -0.7667 -0.4408
 2249TIP3   OH228305   5.899   4.416   8.187 -0.0179 -0.4918  0.4037
 2249TIP3    H128306   5.924   4.362   8.112  0.4779 -2.7921  2.1148
 2249TIP3    H228307   5.977   4.468   8.207 -0.4798  0.9165 -1.2210
 2250TIP3   OH228308   1.406   1.387   3.351  0.1248  0.0830 -0.1293
 2250TIP3    H128309   1.495   1.380   3.385  0.4134  0.9509 -0.6579
 2250TIP3    H228310   1.371   1.299   3.357  0.2634  0.1238  2.1012
 2251TIP3   OH228311   3.167   4.147   8.245  0.0062  0.0937  0.2728
 2251TIP3    H128312   3.149   4.053   8.236 -1.3292  0.3197  0.4145
 2251TIP3    H228313   3.091   4.181   8.292 -0.9935  1.7801 -2.3910
 2252TIP3   OH228314   3.166   4.289   2.893 -0.1336 -0.1337  0.0141
 2252TIP3    H128315   3.245   4.250   2.931  0.0230 -0.3024 -0.4724
 2252TIP3    H228316   3.103   4.218   2.890 -1.1199  0.5451  2.5687
 2253TIP3   OH228317   2.034   6.023   1.934 -0.1023  0.5782  0.2164
 2253TIP3    H128318   2.103   5.975   1.980  0.8560  2.1734  0.5161
 2253TIP3    H228319   2.001   5.961   1.869 -0.0666 -1.0312  1.6494
 2254TIP3   OH228320   5.179   6.351   1.268  0.2301 -0.5913  0.1436
 2254TIP3    H128321   5.204   6.413   1.199 -2.5398 -2.1075 -2.4205
 2254TIP3    H228322   5.244   6.281   1.261  0.4063 -0.3812 -0.4378
 2255TIP3   OH228323   1.210   5.771   2.599  0.4485  0.2993  0.1744
 2255TIP3    H128324   1.208   5.676   2.589  1.6096  0.3533 -0.8295
 2255TIP3    H228325   1.199   5.805   2.510  1.2022  1.0743  0.3611
 2256TIP3   OH228326   0.607   0.929   3.168 -0.1999 -0.4161  0.4426
 2256TIP3    H128327   0.547   0.931   3.242 -0.8353 -3.5706  0.1576
 2256TIP3    H228328   0.587   0.847   3.122  3.2233 -0.8612 -0.5928
 2257TIP3   OH228329   3.866   6.786   0.096 -0.0818 -0.1736  0.8788
 2257TIP3    H128330   3.961   6.787   0.100  0.0547  1.8581 -0.9651
 2257TIP3    H228331   3.843   6.693   0.095  2.0222 -0.7432 -0.5628
 2258TIP3   OH228332   1.026   3.396   2.992 -0.1714  0.4445  0.6747
 2258TIP3    H128333   1.086   3.404   3.067 -0.8989  1.1991  1.1969
 2258TIP3    H228334   1.031   3.304   2.968  2.4130  0.7735 -0.3432
 2259TIP3   OH228335   3.932   3.044   1.015  0.8756 -0.4706 -0.2380
 2259TIP3    H128336   4.006   3.002   1.059  0.0548 -1.1090  0.5778
 2259TIP3    H228337   3.963   3.132   0.996  0.9794  0.1841  2.5159
 2260TIP3   OH228338   1.567   3.511   2.533 -0.1572 -0.1837  0.4602
 2260TIP3    H128339   1.617   3.592   2.518 -0.5872  0.2444  1.2739
 2260TIP3    H228340   1.608   3.447   2.475 -0.4547  0.8626 -0.9522
 2261TIP3   OH228341   1.999   1.209   0.021  0.0607 -0.0028 -0.2479
 2261TIP3    H128342   1.984   1.233   0.113 -1.3854 -1.2051 -0.1283
 2261TIP3    H228343   2.081   1.160   0.022  0.2521  0.3141  0.3470
 2262TIP3   OH228344   6.125   2.511   0.105  0.9961  0.4934  0.0543
 2262TIP3    H128345   6.086   2.447   0.045  1.3690 -1.8411  2.1392
 2262TIP3    H228346   6.053   2.536   0.163  1.5073 -0.2782  1.0370
 2263TIP3   OH228347   3.890   1.172   0.246  0.1879 -0.2635 -0.0986
 2263TIP3    H128348   3.830   1.242   0.270  0.0583  0.1018 -1.4030
 2263TIP3    H228349   3.846   1.092   0.275  0.6134  0.1973  1.9441
 2264TIP3   OH228350   4.703   4.996   7.440  0.3964  0.2792  0.0990
 2264TIP3    H128351   4.728   5.071   7.386  0.7326  0.1224  0.0322
 2264TIP3    H228352   4.614   5.015   7.468 -0.0889 -0.0125 -1.1660
 2265TIP3   OH228353   0.300   5.341   0.876  0.1730  0.6678  0.2497
 2265TIP3    H128354   0.348   5.400   0.818  0.5081 -0.6438 -0.8748
 2265TIP3    H228355   0.368   5.283   0.912 -0.4733 -1.1628 -1.2991
 2266TIP3   OH228356   1.213   3.709   2.333 -0.2726 -0.9399  0.0244
 2266TIP3    H128357   1.211   3.711   2.429  0.2523 -0.0479  0.0304
 2266TIP3    H228358   1.259   3.789   2.309 -3.4133  0.7244 -1.0747
 2267TIP3   OH228359   6.455   3.446   2.320 -0.3853  0.6117 -0.3873
 2267TIP3    H128360   6.459   3.478   2.410  1.2241 -1.3483  0.3066
 2267TIP3    H228361   6.538   3.473   2.281  0.1259 -0.8957 -0.3928
 2268TIP3   OH228362   5.506   5.572   2.214 -0.2096  0.3215 -0.0486
 2268TIP3    H128363   5.440   5.503   2.217  1.9342 -1.9673 -1.6368
 2268TIP3    H228364   5.544   5.574   2.302  1.4999 -2.5392 -0.6065
 2269TIP3   OH228365   4.827   3.111   8.044 -0.1800  0.1996  0.1505
 2269TIP3    H128366   4.890   3.044   8.017  1.1767  1.7144 -0.6155
 2269TIP3    H228367   4.814   3.164   7.965  1.3089  2.7813  1.5352
 2270TIP3   OH228368   0.314   3.087   1.003 -0.3431 -0.5825  0.0662
 2270TIP3    H128369   0.320   3.007   1.055 -0.9563  0.6306  2.0910
 2270TIP3    H228370   0.404   3.109   0.981 -0.0260 -0.8000  1.1232
 2271TIP3   OH228371   5.026   5.750   2.006  0.0858 -0.1126  0.1766
 2271TIP3    H128372   4.932   5.745   2.019 -0.2269 -1.0436 -2.1211
 2271TIP3    H228373   5.060   5.670   2.046 -0.4556 -1.1767 -1.3912
 2272TIP3   OH228374   3.251   2.259   1.770 -0.0351 -0.3949  0.1751
 2272TIP3    H128375   3.272   2.174   1.733 -1.0545 -1.4543  1.9105
 2272TIP3    H228376   3.164   2.280   1.738  0.0561 -0.1724  0.0635
 2273TIP3   OH228377   2.273   1.416   3.320  0.1327 -0.0151  0.1864
 2273TIP3    H128378   2.207   1.467   3.367 -0.9101 -0.4684 -0.7191
 2273TIP3    H228379   2.271   1.330   3.361 -0.7520 -0.4000 -0.6277
 2274TIP3   OH228380   5.294   0.056   0.904 -0.3280 -0.4928 -0.5387
 2274TIP3    H128381   5.260   0.060   0.993 -0.7404  0.5394 -0.7256
 2274TIP3    H228382   5.295   0.148   0.875  3.8123 -0.2020 -0.1181
 2275TIP3   OH228383   1.030   2.606   0.748 -0.6043 -0.3955  0.0194
 2275TIP3    H128384   1.122   2.627   0.767 -1.4522  3.5158  0.6281
 2275TIP3    H228385   1.015   2.642   0.661 -2.0639  1.2809  0.8865
 2276TIP3   OH228386   4.305   1.856   1.067  0.3366 -0.4630 -0.4247
 2276TIP3    H128387   4.326   1.795   0.996 -0.1914 -0.7936 -0.2963
 2276TIP3    H228388   4.308   1.804   1.147  1.1611 -0.0421 -0.1616
 2277TIP3   OH228389   4.470   1.152   0.809 -0.6992 -0.0269  0.3649
 2277TIP3    H128390   4.511   1.180   0.891  1.0552 -2.1014  0.2907
 2277TIP3    H228391   4.499   1.217   0.745 -0.7702  0.7245  1.0749
 2278TIP3   OH228392   1.632   4.605   7.955  0.6163  0.4060 -0.1081
 2278TIP3    H128393   1.604   4.693   7.932  0.5306 -0.1047 -2.1492
 2278TIP3    H228394   1.708   4.618   8.010 -0.1405  1.7514  0.6830
 2279TIP3   OH228395   6.221   6.542   8.348  0.2152  0.4574  0.9587
 2279TIP3    H128396   6.139   6.581   8.379 -0.5515  0.6222 -1.0751
 2279TIP3    H228397   6.273   6.617   8.319  0.7170  0.2855  1.4106
 2280TIP3   OH228398   2.604   4.298   0.892 -0.2484  0.3573  0.5036
 2280TIP3    H128399   2.523   4.250   0.909  0.2462 -0.4993  0.4614
 2280TIP3    H228400   2.578   4.390   0.896 -1.3678  0.0938 -0.1912
 2281TIP3   OH228401   3.467   3.063   3.175 -0.2759 -0.0928  0.2521
 2281TIP3    H128402   3.400   3.086   3.111 -0.1748  0.2667  0.2698
 2281TIP3    H228403   3.504   3.148   3.202  0.0609 -0.2761  0.3729
 2282TIP3   OH228404   3.017   4.306   1.331 -0.4677  0.4368 -0.0392
 2282TIP3    H128405   2.963   4.366   1.279 -0.4131  1.0274  0.5737
 2282TIP3    H228406   3.097   4.296   1.279 -0.6980  0.4505 -0.4058
 2283TIP3   OH228407   1.411   5.053   8.660  0.0199  0.0249 -0.6584
 2283TIP3    H128408   1.412   5.030   8.567 -0.5982 -0.3026 -0.5836
 2283TIP3    H228409   1.328   5.019   8.693 -2.1884  4.2717 -1.0311
 2284TIP3   OH228410   0.344   2.416   2.937 -0.1806  0.1833  0.0669
 2284TIP3    H128411   0.327   2.457   2.852 -0.0965 -1.9076 -1.0443
 2284TIP3    H228412   0.433   2.382   2.929 -0.3403 -0.4280  0.8190
 2285TIP3   OH228413   1.831   4.373   0.734  0.0105  0.4945  0.2373
 2285TIP3    H128414   1.759   4.314   0.711  0.0066  0.5211  0.1794
 2285TIP3    H228415   1.905   4.315   0.752  0.4055  0.5059 -1.2022
 2286TIP3   OH228416   2.349   3.790   2.105 -0.2344  0.1298 -0.1359
 2286TIP3    H128417   2.293   3.713   2.116  0.0054 -0.5482 -2.9270
 2286TIP3    H228418   2.288   3.863   2.101 -0.5985 -0.1168  0.6499
 2287TIP3   OH228419   4.172   0.993   0.909 -0.9757 -0.4573  0.0847
 2287TIP3    H128420   4.233   1.030   0.972 -0.1939 -1.1057 -0.2773
 2287TIP3    H228421   4.226   0.937   0.854 -1.9516 -1.2925 -0.0398
 2288TIP3   OH228422   3.238   1.777   8.860 -0.5096  0.1034  0.2713
 2288TIP3    H128423   3.211   1.829   8.936  0.3545 -1.3011  1.5800
 2288TIP3    H228424   3.309   1.827   8.820 -0.5091  0.5139  0.7851
 2289TIP3   OH228425   5.672   3.549   0.477 -0.2869  0.2086  0.3308
 2289TIP3    H128426   5.743   3.590   0.527 -1.3018  0.5173  1.5770
 2289TIP3    H228427   5.716   3.494   0.413  1.0791  0.5429  0.9494
 2290TIP3   OH228428   0.421   2.990   8.151 -0.1098 -0.0533 -0.1989
 2290TIP3    H128429   0.407   3.057   8.084 -0.4405  1.8885  1.6943
 2290TIP3    H228430   0.336   2.981   8.193  0.0444 -1.4007 -0.1489
 2291TIP3   OH228431   0.256   4.670   0.063  0.1389 -0.0364 -0.4709
 2291TIP3    H128432   0.249   4.711   0.149 -0.0337 -0.0932 -0.4587
 2291TIP3    H228433   0.334   4.615   0.069  0.3608  0.2755 -0.4813
 2292TIP3   OH228434   4.469   4.322   0.626 -0.0577 -0.3123  0.3210
 2292TIP3    H128435   4.426   4.377   0.561  0.1994 -2.0924 -1.4148
 2292TIP3    H228436   4.469   4.234   0.589 -1.1529 -1.7273  3.3372
 2293TIP3   OH228437   6.492   3.997   0.394 -0.2411 -0.0486 -0.0275
 2293TIP3    H128438   6.472   3.939   0.320 -1.7490  0.0177  0.3107
 2293TIP3    H228439   6.581   3.973   0.419 -0.8996 -2.3918  0.2562
 2294TIP3   OH228440   6.428   3.690   0.702  0.4282  0.7706  0.3786
 2294TIP3    H128441   6.381   3.772   0.688 -0.2176  0.6053  1.4816
 2294TIP3    H228442   6.363   3.630   0.737  1.1898  0.1601  0.7860
 2295TIP3   OH228443   4.747   4.273   0.989 -0.3322  0.5564 -0.2415
 2295TIP3    H128444   4.837   4.240   0.987 -0.1084  1.1048  0.3679
 2295TIP3    H228445   4.697   4.208   0.941  0.1512 -0.5007  0.6380
 2296TIP3   OH228446   2.707   0.651   0.106 -0.3671 -0.1288  0.0428
 2296TIP3    H128447   2.690   0.587   0.175 -1.3245 -0.6075 -0.6062
 2296TIP3    H228448   2.654   0.621   0.032  0.0839  0.7648 -0.6661
 2297TIP3   OH228449   1.490   0.046   7.722 -0.3073 -0.8427  0.4105
 2297TIP3    H128450   1.461   0.133   7.694 -1.1988 -0.8620  1.2135
 2297TIP3    H228451   1.459  -0.013   7.653  0.3274 -0.5336 -0.1518
 2298TIP3   OH228452   0.908   4.367   0.363 -0.0749 -0.1709  0.3304
 2298TIP3    H128453   0.963   4.290   0.379 -2.0019 -1.7633 -0.3492
 2298TIP3    H228454   0.840   4.362   0.431 -1.3301 -0.1817 -0.8955
 2299TIP3   OH228455   2.418   4.804   2.680  0.2658  0.0752 -0.1725
 2299TIP3    H128456   2.353   4.853   2.730 -0.3410 -1.0116  0.1310
 2299TIP3    H228457   2.423   4.719   2.724 -0.8023 -1.1818 -2.3355
 2300TIP3   OH228458   1.903   3.564   1.125  0.0026  0.0216 -0.4944
 2300TIP3    H128459   1.853   3.645   1.131 -1.5675 -0.9815  1.0775
 2300TIP3    H228460   1.837   3.496   1.114  1.1913 -1.1721 -0.5265
 2301TIP3   OH228461   1.977   3.740   0.402 -0.0655 -0.8609  0.1034
 2301TIP3    H128462   1.916   3.672   0.374 -0.2483 -0.4799 -0.4410
 2301TIP3    H228463   1.924   3.820   0.403  0.2650 -0.6446  0.2692
 2302TIP3   OH228464   0.710   1.655   7.761  0.2818  0.1770 -0.0584
 2302TIP3    H128465   0.620   1.653   7.730  0.5016  0.4732 -0.7379
 2302TIP3    H228466   0.706   1.699   7.846 -0.0765  1.1648 -0.5732
 2303TIP3   OH228467   5.976   5.288   8.094 -0.2287 -0.2534 -0.8625
 2303TIP3    H128468   5.883   5.308   8.099  0.0118  0.6029  1.8039
 2303TIP3    H228469   5.990   5.219   8.158  1.1236  0.4838 -0.3101
 2304TIP3   OH228470   4.453   3.009   2.101 -0.0611 -0.4120  0.2342
 2304TIP3    H128471   4.359   3.026   2.106 -0.0666 -0.2046 -0.4824
 2304TIP3    H228472   4.485   3.071   2.035  0.6845 -0.0541  0.9157
 2305TIP3   OH228473   2.847   5.580   8.367  0.3630  0.3143 -0.6283
 2305TIP3    H128474   2.851   5.629   8.448 -0.3893 -0.3157 -0.1966
 2305TIP3    H228475   2.780   5.624   8.315 -0.3240 -0.2394 -0.2342
 2306TIP3   OH228476   2.177   5.240   1.322 -0.4379  0.1362 -0.4120
 2306TIP3    H128477   2.123   5.316   1.300 -0.4276  0.3840  0.3587
 2306TIP3    H228478   2.267   5.273   1.315 -0.4448  0.3955  0.5523
 2307TIP3   OH228479   2.843   4.448   7.665  0.4890  0.1881  0.1386
 2307TIP3    H128480   2.894   4.436   7.585  0.4562 -1.4643  0.3439
 2307TIP3    H228481   2.909   4.467   7.733  0.5895  0.6643 -0.0852
 2308TIP3   OH228482   0.500   6.200   7.983  0.1655  0.5704  0.1480
 2308TIP3    H128483   0.562   6.271   7.999  0.2031  0.3274  1.1067
 2308TIP3    H228484   0.507   6.144   8.060 -0.9708  0.3312  0.0952
 2309TIP3   OH228485   3.825   2.645   0.942 -0.2667  0.0904  0.5229
 2309TIP3    H128486   3.749   2.596   0.909 -0.8940  1.7177 -0.5670
 2309TIP3    H228487   3.798   2.737   0.938  0.9223  0.5823  2.3723
 2310TIP3   OH228488   1.430   4.354   1.434 -0.0542  0.4569 -0.6027
 2310TIP3    H128489   1.387   4.361   1.519  0.8664  1.1514 -0.1731
 2310TIP3    H228490   1.474   4.269   1.437  0.8105  0.9101  0.0384
 2311TIP3   OH228491   5.966   6.058   1.108 -0.2382 -0.3647  0.5382
 2311TIP3    H128492   5.948   5.992   1.042 -1.4470  1.4841 -1.0949
 2311TIP3    H228493   5.891   6.054   1.167 -1.4103  0.9297 -0.7986
 2312TIP3   OH228494   1.192   3.882   1.162 -0.0479 -0.1206 -0.5118
 2312TIP3    H128495   1.272   3.928   1.189 -1.1950  1.8730 -0.3533
 2312TIP3    H228496   1.190   3.892   1.067 -0.4502  0.4382 -0.4479
 2313TIP3   OH228497   4.658   6.534   1.919  0.0326  0.0967  0.2813
 2313TIP3    H128498   4.687   6.478   1.991 -1.6443 -0.5814  0.4778
 2313TIP3    H228499   4.616   6.474   1.857  0.4434  0.8194 -0.7298
 2314TIP3   OH228500   2.911   0.628   0.342  0.0864 -0.1104 -0.1030
 2314TIP3    H128501   2.838   0.569   0.319 -0.1665  0.1142  0.1107
 2314TIP3    H228502   2.984   0.569   0.359  0.1400 -0.3046 -0.9601
 2315TIP3   OH228503   2.546   1.530   2.272  0.0273  0.8194  0.0558
 2315TIP3    H128504   2.475   1.578   2.314 -0.7791 -0.3717  0.1359
 2315TIP3    H228505   2.619   1.591   2.268 -0.9202  1.9871  0.2354
 2316TIP3   OH228506   0.852   4.503   2.419  0.7054  0.4482  0.7917
 2316TIP3    H128507   0.845   4.471   2.508  1.9792  3.6313  2.1973
 2316TIP3    H228508   0.884   4.428   2.369 -0.8718 -1.6760  2.7631
 2317TIP3   OH228509   4.463   3.657   7.981  0.0747  0.6130  0.6409
 2317TIP3    H128510   4.407   3.649   7.903  1.5963  1.5730 -0.5925
 2317TIP3    H228511   4.426   3.730   8.029 -0.3856  0.5382  0.4100
 2318TIP3   OH228512   3.601   3.807   8.485 -0.2226  0.0715  0.0687
 2318TIP3    H128513   3.530   3.844   8.433  1.2081  3.3119  0.1920
 2318TIP3    H228514   3.674   3.798   8.424  1.5156  4.0263  1.2473
 2319TIP3   OH228515   0.922   6.233   2.938 -0.1169  0.0591  0.0956
 2319TIP3    H128516   0.944   6.279   3.019 -2.0776  1.6158 -0.1803
 2319TIP3    H228517   0.844   6.182   2.959  0.0814 -0.4961 -0.4834
 2320TIP3   OH228518   3.365   1.920   1.885  0.0808  0.4282 -0.1973
 2320TIP3    H128519   3.320   1.956   1.809 -0.1183  0.9550  0.1672
 2320TIP3    H228520   3.378   1.827   1.864  0.6626  0.7164 -1.1746
 2321TIP3   OH228521   4.957   6.533   7.743 -0.5530 -0.1056  0.0694
 2321TIP3    H128522   5.030   6.565   7.690 -0.9032 -1.1895 -1.1372
 2321TIP3    H228523   4.896   6.607   7.746  1.1591  1.3637  2.3714
 2322TIP3   OH228524   6.348   2.260   1.482 -0.8568 -0.1610  0.6756
 2322TIP3    H128525   6.330   2.182   1.430 -2.5227 -1.0304  2.4289
 2322TIP3    H228526   6.425   2.238   1.533 -1.5482 -0.8556  1.4517
 2323TIP3   OH228527   6.039   5.912   3.227 -0.1914 -0.4291  0.1424
 2323TIP3    H128528   6.006   5.830   3.189 -2.7558  1.0729 -1.1260
 2323TIP3    H228529   6.110   5.938   3.168 -0.7742 -0.6899 -0.6969
 2324TIP3   OH228530   1.069   1.352   2.706 -0.2705 -0.3116 -0.2044
 2324TIP3    H128531   1.141   1.299   2.740 -0.3591  0.0192  0.5170
 2324TIP3    H228532   0.991   1.314   2.747 -0.5509 -0.8683 -1.2248
 2325TIP3   OH228533   1.750   5.412   0.031 -1.1226 -0.3989  0.3671
 2325TIP3    H128534   1.665   5.370   0.017 -0.4962 -1.5243 -0.1741
 2325TIP3    H228535   1.809   5.341   0.055 -0.1290  0.2408 -0.1055
 2326TIP3   OH228536   6.108   4.546   8.390 -0.4573 -0.4660  0.0085
 2326TIP3    H128537   6.095   4.452   8.405 -1.1979 -0.1181  1.9133
 2326TIP3    H228538   6.197   4.562   8.420 -0.6621 -0.4242  0.6280
 2327TIP3   OH228539   1.661   2.455   8.220 -0.3748 -0.0031 -0.3525
 2327TIP3    H128540   1.677   2.513   8.294 -0.4142 -2.0757  1.3480
 2327TIP3    H228541   1.583   2.491   8.177 -1.1694  0.4663  1.4275
 2328TIP3   OH228542   6.740   0.811   8.817  0.4351 -0.1913 -0.3643
 2328TIP3    H128543   6.667   0.793   8.758 -0.9086 -0.1457  1.1944
 2328TIP3    H228544   6.714   0.890   8.864  1.9387  0.3764 -0.4412
 2329TIP3   OH228545   2.879   3.104   8.333  0.1665  0.7100  0.7506
 2329TIP3    H128546   2.863   3.185   8.284 -1.5318 -0.8674 -1.5323
 2329TIP3    H228547   2.968   3.079   8.309 -0.4973  0.1686 -1.4061
 2330TIP3   OH228548   1.898   3.160   1.324 -0.5318  0.1712  0.2875
 2330TIP3    H128549   1.978   3.199   1.359  0.1588 -1.4525  0.5557
 2330TIP3    H228550   1.917   3.146   1.231  0.8881 -3.4186  0.9803
 2331TIP3   OH228551   2.812   1.099   8.654  0.3000  0.1242  0.1566
 2331TIP3    H128552   2.874   1.122   8.585 -0.3579 -0.4590 -0.6439
 2331TIP3    H228553   2.864   1.049   8.717  0.7948  0.2171 -0.1741
 2332TIP3   OH228554   5.556   2.620   8.369  0.0919 -0.4289 -0.3656
 2332TIP3    H128555   5.629   2.641   8.428 -1.5428 -0.5952  1.8511
 2332TIP3    H228556   5.535   2.703   8.327 -0.0675  0.2362  0.9560
 2333TIP3   OH228557   1.016   2.182   2.904 -0.5183  0.3771 -0.1512
 2333TIP3    H128558   1.008   2.118   2.834  0.9926  0.1687 -0.1558
 2333TIP3    H228559   1.052   2.133   2.978  1.3895  1.3485 -0.3909
 2334TIP3   OH228560   1.158   0.521   3.416 -0.0793 -0.6240 -0.6571
 2334TIP3    H128561   1.216   0.565   3.478  2.2367 -0.6884 -2.6339
 2334TIP3    H228562   1.130   0.442   3.462 -0.0616  0.2976  1.0183
 2335TIP3   OH228563   1.370   0.217   8.783 -0.1914  0.0972 -0.0236
 2335TIP3    H128564   1.303   0.284   8.801  1.3570  1.2386  1.8995
 2335TIP3    H228565   1.397   0.186   8.870  0.7870 -1.3568 -0.8092
 2336TIP3   OH228566   0.866   4.436   8.109  0.1810  0.0871 -0.0333
 2336TIP3    H128567   0.864   4.354   8.158  1.3059 -0.6160 -1.0968
 2336TIP3    H228568   0.880   4.503   8.176  1.6781 -0.8368  0.6611
 2337TIP3   OH228569   3.276   3.290   8.407  0.3348  0.1636  0.1847
 2337TIP3    H128570   3.206   3.327   8.462  0.8617  2.3558 -0.5056
 2337TIP3    H228571   3.230   3.256   8.331 -0.0309  2.2949 -0.6386
 2338TIP3   OH228572   5.410   5.960   1.865  0.0036  0.2020 -0.1730
 2338TIP3    H128573   5.374   5.916   1.942 -0.0049  2.4303  1.1483
 2338TIP3    H228574   5.499   5.926   1.858 -0.0810 -0.2069  0.6474
 2339TIP3   OH228575   6.010   0.214   0.040  0.3322  0.1679  0.0922
 2339TIP3    H128576   6.067   0.155  -0.009 -1.1853  0.0964 -1.7019
 2339TIP3    H228577   5.958   0.258  -0.027 -0.7525  1.2417  1.5815
 2340TIP3   OH228578   2.176   1.249   8.455  0.2946 -0.5534 -0.1705
 2340TIP3    H128579   2.213   1.168   8.490  0.6456 -0.9494 -1.4012
 2340TIP3    H228580   2.251   1.307   8.443 -0.0953  0.5055  1.9749
 2341TIP3   OH228581   6.104   1.389   1.473 -0.2536 -0.1747 -0.0015
 2341TIP3    H128582   6.065   1.302   1.481 -1.3281  0.0442 -2.1130
 2341TIP3    H228583   6.153   1.386   1.391  0.8061  0.8224  0.5670
 2342TIP3   OH228584   4.681   6.241   0.717 -0.9922 -0.8382  0.1084
 2342TIP3    H128585   4.757   6.280   0.674 -1.7143 -1.2906 -1.6205
 2342TIP3    H228586   4.718   6.185   0.785  0.1745 -0.3885 -0.1356
 2343TIP3   OH228587   4.670   4.668   0.927  0.1244  0.5644  1.0291
 2343TIP3    H128588   4.646   4.665   0.834 -1.2299 -0.9889  1.3763
 2343TIP3    H228589   4.757   4.629   0.930  0.9949  2.3321  0.2326
 2344TIP3   OH228590   2.282   6.782   3.772  0.2647 -0.6217  0.1084
 2344TIP3    H128591   2.216   6.851   3.760  1.1294 -0.1483 -3.0119
 2344TIP3    H228592   2.231   6.703   3.792 -0.7937  0.6590  3.0703
 2345TIP3   OH228593   2.466   1.921   2.559  0.4303  0.1897 -0.0081
 2345TIP3    H128594   2.467   1.895   2.652 -1.8144  1.3438  0.4114
 2345TIP3    H228595   2.432   2.010   2.559  0.0601  0.0970 -1.9709
 2346TIP3   OH228596   0.138   1.741   2.437 -0.0129  0.0488  0.3362
 2346TIP3    H128597   0.134   1.735   2.342  0.3350  0.1883  0.3100
 2346TIP3    H228598   0.153   1.651   2.466 -3.4816 -0.6151  0.4767
 2347TIP3   OH228599   0.332   5.410   7.625 -0.8448  0.1754 -0.5688
 2347TIP3    H128600   0.361   5.448   7.709  0.2211 -1.7841  0.0067
 2347TIP3    H228601   0.381   5.460   7.559  0.5146 -0.1489  0.1567
 2348TIP3   OH228602   1.704   3.929   8.400  0.3723 -0.9033  0.2139
 2348TIP3    H128603   1.622   3.978   8.398 -0.6185 -2.4645  0.5564
 2348TIP3    H228604   1.677   3.839   8.417  2.2388 -1.2907  1.4140
 2349TIP3   OH228605   3.416   3.971   1.891  0.0346  0.1424 -0.4109
 2349TIP3    H128606   3.334   3.999   1.933 -0.2640 -0.7963 -0.3348
 2349TIP3    H228607   3.404   3.877   1.877  0.7081  0.1803 -1.3095
 2350TIP3   OH228608   6.119   0.520   3.482  0.0083 -0.2159 -0.1821
 2350TIP3    H128609   6.193   0.481   3.434 -0.3375 -0.5912 -0.4116
 2350TIP3    H228610   6.054   0.451   3.485  1.0037 -1.1749  3.1509
 2351TIP3   OH228611   0.072   1.751   0.520 -0.1101 -0.0670  0.0180
 2351TIP3    H128612   0.009   1.762   0.592 -2.4786  2.0052 -2.1527
 2351TIP3    H228613   0.136   1.687   0.553 -1.2113  0.5414  3.7797
 2352TIP3   OH228614   0.855   2.450   2.115  0.3715 -0.0993 -0.0907
 2352TIP3    H128615   0.828   2.450   2.207 -1.0153  2.6105 -0.3863
 2352TIP3    H228616   0.792   2.507   2.071  1.4346 -0.7136 -2.5974
 2353TIP3   OH228617   5.321   4.138   0.116  0.0797 -0.1625  0.7901
 2353TIP3    H128618   5.323   4.089   0.198 -0.3377 -1.1107  0.2606
 2353TIP3    H228619   5.250   4.097   0.066  0.1692  0.5528  0.0554
 2354TIP3   OH228620   0.084   3.275   0.985  0.1805 -0.2390 -0.3472
 2354TIP3    H128621   0.149   3.215   0.949  1.6115  1.1486 -0.1388
 2354TIP3    H228622   0.044   3.317   0.908  2.7918  2.2541 -0.4952
 2355TIP3   OH228623   3.276   3.771   8.814 -0.2577  0.0049  0.2364
 2355TIP3    H128624   3.307   3.693   8.768  0.9467  0.2426  0.5936
 2355TIP3    H228625   3.328   3.842   8.777 -0.6456  0.4868  0.6089
 2356TIP3   OH228626   6.735   3.620   8.835 -0.0346  0.2509  0.9080
 2356TIP3    H128627   6.782   3.682   8.779 -0.6221 -1.2119 -1.3321
 2356TIP3    H228628   6.801   3.589   8.897  1.3640  0.0077 -0.6368
 2357TIP3   OH228629   2.330   3.570   7.642  0.2976 -0.4761 -0.5196
 2357TIP3    H128630   2.238   3.579   7.669  0.9005  1.1454  1.2373
 2357TIP3    H228631   2.343   3.643   7.581  1.0402  0.9510  1.2616
 2358TIP3   OH228632   3.272   1.639   8.357  0.0183  0.3576  0.3221
 2358TIP3    H128633   3.253   1.594   8.274  1.8592 -2.6572  1.3844
 2358TIP3    H228634   3.233   1.584   8.424  0.3306  1.6495  1.6186
 2359TIP3   OH228635   3.945   6.398   7.882  0.2037 -0.1110  0.4611
 2359TIP3    H128636   3.904   6.454   7.815  1.4548  0.7614  0.3812
 2359TIP3    H228637   3.989   6.330   7.832 -1.0473 -1.0174  0.5450
 2360TIP3   OH228638   2.693   5.986   8.627 -0.2607  0.1071  0.6819
 2360TIP3    H128639   2.732   6.042   8.694  0.9931 -0.3451  0.3656
 2360TIP3    H228640   2.613   5.953   8.667  1.1110 -1.2282  2.5482
 2361TIP3   OH228641   5.603   2.656   0.183  0.4499  0.6627 -0.5768
 2361TIP3    H128642   5.523   2.609   0.207  0.1578  0.5463 -1.6962
 2361TIP3    H228643   5.578   2.749   0.187  0.3367  0.6361 -0.6389
 2362TIP3   OH228644   4.955   5.517   2.983 -0.0694 -0.2857  0.0070
 2362TIP3    H128645   4.957   5.436   3.034  2.0003  0.2922  0.9696
 2362TIP3    H228646   4.901   5.576   3.035  0.5994 -0.2445  0.6757
 2363TIP3   OH228647   0.398   4.328   7.508  0.6200 -0.5926 -0.1532
 2363TIP3    H128648   0.480   4.370   7.534  1.1823 -0.7414 -1.6034
 2363TIP3    H228649   0.389   4.254   7.569  1.0239  0.0157  0.6671
 2364TIP3   OH228650   2.587   6.750   2.168 -0.3139 -0.0573 -0.2731
 2364TIP3    H128651   2.561   6.665   2.203 -0.7125 -0.4030 -1.3770
 2364TIP3    H228652   2.676   6.763   2.202 -0.4686 -0.6356  0.3775
 2365TIP3   OH228653   5.136   0.284   7.351 -0.2971  0.3779 -0.2812
 2365TIP3    H128654   5.069   0.215   7.347 -0.1781  0.3237 -2.0938
 2365TIP3    H228655   5.091   0.359   7.390 -0.5047 -0.6075  1.4818
 2366TIP3   OH228656   0.728   2.886   0.738 -0.3711  0.8374 -0.2818
 2366TIP3    H128657   0.814   2.900   0.698  0.9687 -2.6779  0.9578
 2366TIP3    H228658   0.737   2.924   0.826  1.3844 -2.5848  1.1923
 2367TIP3   OH228659   2.106   3.694   0.640 -0.9506  0.2825  0.1722
 2367TIP3    H128660   2.197   3.723   0.637 -0.7209 -0.5054 -1.5829
 2367TIP3    H228661   2.072   3.712   0.552 -2.3232  0.0475  0.6297
 2368TIP3   OH228662   1.585   2.039   0.857  0.5265 -0.2758  0.2924
 2368TIP3    H128663   1.656   2.092   0.821  1.2607 -0.8786  0.8234
 2368TIP3    H228664   1.556   1.985   0.783 -2.0167  2.5961 -1.0325
 2369TIP3   OH228665   2.472   2.212   8.689  0.6135 -0.2364 -0.1556
 2369TIP3    H128666   2.537   2.143   8.702  0.7172  0.1945  2.1810
 2369TIP3    H228667   2.389   2.165   8.679  0.7800 -0.7385  0.7194
 2370TIP3   OH228668   1.202   2.413   1.069  0.2872 -0.2809  0.1612
 2370TIP3    H128669   1.263   2.405   0.995  0.2191  0.8059 -0.0277
 2370TIP3    H228670   1.244   2.476   1.127  0.2910 -1.0497  1.0199
 2371TIP3   OH228671   3.752   2.660   0.071  0.4215 -0.2069  0.3728
 2371TIP3    H128672   3.819   2.695   0.012  0.1799 -1.5074 -0.7317
 2371TIP3    H228673   3.716   2.737   0.115  0.1537  0.9260 -1.6902
 2372TIP3   OH228674   4.925   6.716   8.699 -0.0183 -0.0949 -0.0425
 2372TIP3    H128675   4.888   6.629   8.684  3.0602 -1.9478  1.9693
 2372TIP3    H228676   4.908   6.733   8.792  0.0217  1.1587 -0.2514
 2373TIP3   OH228677   0.115   1.924   1.560  0.4109  0.4386  0.5080
 2373TIP3    H128678   0.174   1.884   1.496  1.5179  1.0916  1.0877
 2373TIP3    H228679   0.160   2.003   1.588 -1.5358  1.9189 -0.3030
 2374TIP3   OH228680   4.702   2.403   2.674 -0.1260  0.6321  0.3382
 2374TIP3    H128681   4.777   2.397   2.733 -0.6563 -0.9635  0.8897
 2374TIP3    H228682   4.658   2.485   2.700  0.8315  1.0365  0.7149
 2375TIP3   OH228683   6.634   3.089   0.368  0.1003  0.6675  0.1816
 2375TIP3    H128684   6.658   3.064   0.457  0.5499 -0.7848 -0.3193
 2375TIP3    H228685   6.585   3.015   0.334 -1.4888  1.8712 -0.2618
 2376TIP3   OH228686   1.928   1.442   8.783  0.3161 -0.0797 -0.4370
 2376TIP3    H128687   1.912   1.426   8.690  0.1538 -1.0479 -0.2514
 2376TIP3    H228688   1.955   1.357   8.818  2.5133  0.7141 -0.0288
 2377TIP3   OH228689   3.325   1.216   1.604 -0.0057  0.4770  0.0163
 2377TIP3    H128690   3.416   1.192   1.585  0.2921  1.0369  0.6703
 2377TIP3    H228691   3.274   1.140   1.578  0.8166 -0.4738  1.1080
 2378TIP3   OH228692   3.209   1.534   2.653  0.3066  0.7273  0.7881
 2378TIP3    H128693   3.304   1.546   2.656  0.5261 -0.2797 -0.8956
 2378TIP3    H228694   3.188   1.485   2.732  1.3668 -0.0749  0.5958
 2379TIP3   OH228695   6.562   5.439   8.353  0.3174 -0.2082 -0.9869
 2379TIP3    H128696   6.513   5.517   8.329 -0.0229 -0.8830 -2.6387
 2379TIP3    H228697   6.500   5.384   8.400  0.8514  0.9127  1.1938
 2380TIP3   OH228698   4.431   5.764   1.506 -0.0540 -0.8550 -0.4009
 2380TIP3    H128699   4.457   5.856   1.512 -0.8420 -0.6533  0.1704
 2380TIP3    H228700   4.341   5.763   1.540 -0.8648 -1.4831 -2.4171
 2381TIP3   OH228701   6.274   0.878   8.722 -0.0145 -0.3540  0.3072
 2381TIP3    H128702   6.316   0.964   8.731 -1.2722  0.4176 -0.7572
 2381TIP3    H228703   6.185   0.899   8.694 -0.4207 -2.0180  0.2944
 2382TIP3   OH228704   4.842   1.536   8.245  0.2756  0.1025 -0.3076
 2382TIP3    H128705   4.820   1.455   8.200 -0.1206  0.3581 -0.5853
 2382TIP3    H228706   4.808   1.605   8.188  1.4157  0.5092 -0.5258
 2383TIP3   OH228707   2.473   2.642   8.731  0.4020  0.0968  0.2825
 2383TIP3    H128708   2.411   2.629   8.660  1.2500 -0.7674 -0.3248
 2383TIP3    H228709   2.450   2.577   8.796 -0.2162  0.7211  0.6938
 2384TIP3   OH228710   0.233   4.690   7.712 -0.0939 -0.4126 -0.2742
 2384TIP3    H128711   0.257   4.729   7.797 -1.3521  0.8503 -0.4647
 2384TIP3    H228712   0.313   4.698   7.660  0.1758  0.4234  0.2366
 2385TIP3   OH228713   6.585   3.369   0.352  0.5011  0.3806 -0.1139
 2385TIP3    H128714   6.548   3.357   0.264 -0.0772  0.5152  0.1076
 2385TIP3    H228715   6.614   3.281   0.377  1.5445  0.5114 -0.8180
 2386TIP3   OH228716   4.999   6.436   7.127  0.0551 -0.4040 -0.4058
 2386TIP3    H128717   5.053   6.482   7.191 -0.3562 -1.8425  1.0474
 2386TIP3    H228718   5.036   6.348   7.123 -1.1527 -0.9208 -0.6385
 2387TIP3   OH228719   2.099   1.907   8.449  0.1467 -0.1889 -0.0668
 2387TIP3    H128720   2.145   1.953   8.379  0.2866  0.6216  0.5396
 2387TIP3    H228721   2.169   1.873   8.506  0.0426  0.9899  0.8202
 2388TIP3   OH228722   3.948   1.781   3.005  0.3875 -0.3102  0.0141
 2388TIP3    H128723   4.032   1.796   2.962 -0.5937  2.0390 -1.2781
 2388TIP3    H228724   3.903   1.866   3.001 -2.0520 -1.4723  0.6275
 2389TIP3   OH228725   1.930   2.659   2.693 -0.1819 -0.1617  0.0149
 2389TIP3    H128726   1.939   2.753   2.679 -2.4818 -0.0078 -0.7362
 2389TIP3    H228727   2.011   2.634   2.740  0.1364  2.2874  0.9105
 2390TIP3   OH228728   1.895   5.795   7.840  0.5699  0.5816 -0.7653
 2390TIP3    H128729   1.875   5.713   7.795  1.1351  0.9916 -1.8016
 2390TIP3    H228730   1.930   5.852   7.771  4.4204  0.2570  0.6902
 2391TIP3   OH228731   4.701   4.566   8.643 -0.6211 -0.2639 -0.3049
 2391TIP3    H128732   4.620   4.613   8.624 -1.4387 -0.8444  1.5435
 2391TIP3    H228733   4.747   4.622   8.706  0.4356  0.0524 -1.3290
 2392TIP3   OH228734   2.412   5.093   8.088  0.7749 -0.7912  0.2967
 2392TIP3    H128735   2.408   5.130   8.176 -0.2447 -1.0666  0.3816
 2392TIP3    H228736   2.412   5.169   8.029 -1.5009 -0.5794  0.4603
 2393TIP3   OH228737   6.434   6.356   8.126 -0.4141 -0.1690  0.2849
 2393TIP3    H128738   6.426   6.436   8.074 -1.5291  0.5302  1.4791
 2393TIP3    H228739   6.384   6.291   8.078 -0.7550  0.2504  0.0646
 2394TIP3   OH228740   0.222   6.055   0.645 -0.3385 -0.6761 -0.0608
 2394TIP3    H128741   0.254   6.090   0.562  1.2813  0.4024  0.9510
 2394TIP3    H228742   0.240   5.961   0.640  0.4391 -0.5101 -0.6575
 2395TIP3   OH228743   5.717   0.671   0.575 -0.3589  0.1738  0.0388
 2395TIP3    H128744   5.784   0.602   0.578 -1.3964 -0.8371  1.2329
 2395TIP3    H228745   5.745   0.729   0.504  0.2448 -1.7911 -1.4153
 2396TIP3   OH228746   0.764   4.889   2.491  0.2613  0.5267  0.1445
 2396TIP3    H128747   0.673   4.913   2.511  1.0133  2.1700  2.0246
 2396TIP3    H228748   0.798   4.964   2.441  1.1745  1.0667  1.4845
 2397TIP3   OH228749   2.981   4.507   8.375 -0.3748 -0.0157  0.0529
 2397TIP3    H128750   2.947   4.435   8.322 -0.3111 -1.3604  1.7317
 2397TIP3    H228751   3.075   4.492   8.379 -0.3046  0.4156  0.0482
 2398TIP3   OH228752   4.669   5.014   2.133  0.2159  0.1962  0.5199
 2398TIP3    H128753   4.653   4.939   2.076 -0.9352  1.5720 -1.0571
 2398TIP3    H228754   4.751   4.993   2.179  1.9638 -0.4391 -2.6111
 2399TIP3   OH228755   0.336   1.916   2.535  0.0801  0.3461  0.0534
 2399TIP3    H128756   0.270   1.853   2.507  1.1492 -0.6841 -0.2167
 2399TIP3    H228757   0.325   1.922   2.630  0.3937 -0.7636  0.1738
 2400TIP3   OH228758   6.327   1.877   0.269 -0.0424  0.3942  0.2899
 2400TIP3    H128759   6.361   1.792   0.241 -1.4380 -0.4151  0.9562
 2400TIP3    H228760   6.320   1.928   0.188 -2.2030 -1.2393 -0.6692
 2401TIP3   OH228761   2.546   5.966   2.770 -0.9617 -0.3464 -0.4926
 2401TIP3    H128762   2.602   5.929   2.839 -1.2145  0.4881  0.1795
 2401TIP3    H228763   2.457   5.947   2.799 -1.1405  1.5704  0.3696
 2402TIP3   OH228764   0.506   0.936   7.601 -0.0252  0.1091  0.3891
 2402TIP3    H128765   0.481   0.974   7.517 -0.6081 -1.2366 -0.0692
 2402TIP3    H228766   0.591   0.894   7.584 -0.5261 -0.8708  0.2333
 2403TIP3   OH228767   0.202   2.774   2.558  0.1632  0.5869 -0.5504
 2403TIP3    H128768   0.194   2.723   2.477 -0.2705 -0.3257  0.0520
 2403TIP3    H228769   0.146   2.850   2.543  1.6646  1.4924 -1.8806
 2404TIP3   OH228770   3.742   0.777   8.411  0.2097 -0.4444 -0.7415
 2404TIP3    H128771   3.789   0.860   8.399  0.6801 -0.4970  0.5456
 2404TIP3    H228772   3.717   0.750   8.322  0.8348  0.6197 -1.2578
 2405TIP3   OH228773   2.869   0.513   1.453  0.3368 -0.1963 -0.1585
 2405TIP3    H128774   2.810   0.492   1.381 -0.9416 -1.4239  1.1831
 2405TIP3    H228775   2.957   0.504   1.416 -0.1985  2.3120 -2.3923
 2406TIP3   OH228776   1.876   3.899   1.634 -0.2038  0.5724 -0.0377
 2406TIP3    H128777   1.892   3.954   1.711  2.3947  0.1208 -0.1421
 2406TIP3    H228778   1.867   3.960   1.562 -1.2877  0.9484  0.3909
 2407TIP3   OH228779   6.500   5.963   7.275 -0.2778 -0.6163 -0.4201
 2407TIP3    H128780   6.575   5.944   7.219 -0.3823 -1.0331 -0.4203
 2407TIP3    H228781   6.537   6.011   7.349 -0.1431 -0.0301 -0.8543
 2408TIP3   OH228782   4.698   4.684   0.068  0.0674 -0.0136 -0.4277
 2408TIP3    H128783   4.629   4.631   0.109 -1.2201  0.8860 -1.3186
 2408TIP3    H228784   4.670   4.774   0.083  1.3782  0.3906 -0.3260
 2409TIP3   OH228785   6.490   4.947   0.142 -0.1191  0.1108 -0.2609
 2409TIP3    H128786   6.476   4.882   0.073  1.7448  0.7347 -1.2905
 2409TIP3    H228787   6.577   4.928   0.176  1.3121  3.0112 -1.8088
 2410TIP3   OH228788   3.309   3.535   2.330  0.1190  0.0391  0.7334
 2410TIP3    H128789   3.261   3.471   2.276 -1.1716  1.2302  0.3898
 2410TIP3    H228790   3.298   3.503   2.420 -0.9839  0.0428  0.6183
 2411TIP3   OH228791   0.796   3.458   3.390  0.1339 -0.3338  0.5197
 2411TIP3    H128792   0.703   3.452   3.411  0.4432 -1.5064  1.6547
 2411TIP3    H228793   0.827   3.368   3.391  1.1739 -0.0032 -0.4094
 2412TIP3   OH228794   3.060   4.967   2.978 -0.1763 -0.2701  0.1383
 2412TIP3    H128795   3.059   5.040   2.916  2.4260  0.2635  0.6031
 2412TIP3    H228796   2.991   4.988   3.040  0.2677  1.6663  0.0506
 2413TIP3   OH228797   1.652   5.817   0.654 -0.0077  0.1038  0.6837
 2413TIP3    H128798   1.625   5.768   0.731 -0.2970 -1.6859 -0.5056
 2413TIP3    H228799   1.729   5.770   0.620 -2.5610 -2.1334 -2.7271
 2414TIP3   OH228800   0.675   2.684   0.554  0.0684 -0.1705  0.4809
 2414TIP3    H128801   0.669   2.720   0.466 -0.7538 -1.3647  0.0178
 2414TIP3    H228802   0.687   2.760   0.611 -0.4787  0.7081 -0.5495
 2415TIP3   OH228803   6.526   5.031   1.602 -0.1373  0.4315 -0.0740
 2415TIP3    H128804   6.566   5.118   1.593 -2.2151  1.5542  0.6903
 2415TIP3    H228805   6.514   5.001   1.512  0.6057  0.9399 -0.3540
 2416TIP3   OH228806   2.675   4.243   8.620  0.7871  0.0835  0.5075
 2416TIP3    H128807   2.601   4.198   8.663  1.2244 -2.3283 -1.0570
 2416TIP3    H228808   2.752   4.212   8.668  0.8973  2.1007  1.7310
 2417TIP3   OH228809   6.040   6.558   1.736 -0.0992 -0.7059  0.6214
 2417TIP3    H128810   6.023   6.653   1.736  1.3625 -0.4237  0.1031
 2417TIP3    H228811   6.012   6.530   1.823 -3.0793 -0.3236 -0.1008
 2418TIP3   OH228812   5.572   2.742   8.729 -0.0352  0.6816  0.5425
 2418TIP3    H128813   5.552   2.660   8.774 -0.9373  0.7085  0.2125
 2418TIP3    H228814   5.658   2.728   8.691  0.1576  0.1699  1.1459
 2419TIP3   OH228815   0.899   1.964   3.204 -0.0682  0.0493  0.0041
 2419TIP3    H128816   0.922   1.915   3.283  0.3712  1.2523  0.6483
 2419TIP3    H228817   0.968   2.030   3.195 -1.5717  1.7373  0.2100
 2420TIP3   OH228818   3.519   5.002   7.387  0.3291  0.1946  0.0855
 2420TIP3    H128819   3.567   5.073   7.344 -2.9495  0.7348 -3.2059
 2420TIP3    H228820   3.574   4.925   7.373  1.2412  1.1020 -1.7339
 2421TIP3   OH228821   2.236   1.666   1.439  0.3695 -0.1888 -0.1027
 2421TIP3    H128822   2.195   1.627   1.517  1.0396 -1.2182 -0.2544
 2421TIP3    H228823   2.275   1.593   1.393  0.4248  0.4854 -1.1608
 2422TIP3   OH228824   5.908   2.172   2.098 -0.6194  0.5201  0.1158
 2422TIP3    H128825   6.002   2.165   2.078 -0.9076  0.4704 -1.3356
 2422TIP3    H228826   5.892   2.103   2.161  0.5753  1.3572  1.3955
 2423TIP3   OH228827   1.889   0.347   7.876 -0.0037  0.2201  0.0690
 2423TIP3    H128828   1.889   0.251   7.880  1.2974  0.1274 -1.3381
 2423TIP3    H228829   1.890   0.367   7.783  2.8340  1.5073  0.2692
 2424TIP3   OH228830   1.196   6.015   0.557 -0.0474  0.0684 -0.1569
 2424TIP3    H128831   1.285   5.983   0.543 -0.2880 -0.5440 -0.3355
 2424TIP3    H228832   1.154   5.947   0.609  0.0922  1.1690  1.4480
 2425TIP3   OH228833   0.880   3.952   1.073 -0.2906  0.3205  0.3195
 2425TIP3    H128834   0.976   3.946   1.074 -0.1807  0.8902 -1.8467
 2425TIP3    H228835   0.851   3.876   1.124  1.3073 -0.2118  0.4956
 2426TIP3   OH228836   4.415   3.338   2.006  0.1325 -1.1866 -0.0488
 2426TIP3    H128837   4.482   3.406   1.995 -0.0615 -0.7873  1.1128
 2426TIP3    H228838   4.339   3.371   1.958  0.3624 -1.0488 -0.3176
 2427TIP3   OH228839   3.167   2.173   8.701  0.1852  0.0715 -0.4442
 2427TIP3    H128840   3.261   2.169   8.683  0.4218 -0.6002  0.7790
 2427TIP3    H228841   3.162   2.186   8.796 -0.9601  1.2795 -0.6426
 2428TIP3   OH228842   0.346   0.497   7.636 -0.6497  0.5181  0.1304
 2428TIP3    H128843   0.350   0.505   7.540  1.4359 -0.0077  0.1277
 2428TIP3    H228844   0.319   0.407   7.651 -2.4844  1.0221  0.0825
 2429TIP3   OH228845   2.957   0.566   1.166 -0.0388 -0.5156 -0.4662
 2429TIP3    H128846   2.937   0.658   1.147  1.5035  0.1710  1.0431
 2429TIP3    H228847   2.995   0.532   1.085  0.0315  0.3684 -0.8093
 2430TIP3   OH228848   0.423   2.797   1.639  0.0278  0.2646  0.0057
 2430TIP3    H128849   0.474   2.868   1.599 -0.1538  1.2057  1.3824
 2430TIP3    H228850   0.368   2.764   1.568  1.8638 -0.1665 -1.2900
 2431TIP3   OH228851   5.717   3.774   1.040  0.2183 -0.1145  0.2339
 2431TIP3    H128852   5.634   3.784   0.994  1.1545 -0.9233 -1.7509
 2431TIP3    H228853   5.730   3.679   1.046  2.6373 -0.1375 -2.8330
 2432TIP3   OH228854   4.865   2.984   8.858 -0.3231  0.2935  0.0913
 2432TIP3    H128855   4.867   2.888   8.864 -0.2443  0.2844 -0.1002
 2432TIP3    H228856   4.852   3.002   8.765 -1.9839  0.4366  0.3113
 2433TIP3   OH228857   5.508   2.696   2.554 -0.2073  0.4702  0.4536
 2433TIP3    H128858   5.557   2.643   2.617  1.2089  2.0691  0.7786
 2433TIP3    H228859   5.575   2.731   2.495 -1.4376 -0.4378 -1.5836
 2434TIP3   OH228860   0.293   0.243   0.916 -0.0100 -0.3562  0.0964
 2434TIP3    H128861   0.208   0.286   0.928 -0.8728 -1.9519 -0.1512
 2434TIP3    H228862   0.295   0.174   0.982  0.1875 -1.6675 -1.2339
 2435TIP3   OH228863   5.885   5.501   1.540 -0.1411 -0.4400  0.1650
 2435TIP3    H128864   5.950   5.456   1.595 -0.3151 -2.1233 -0.9605
 2435TIP3    H228865   5.849   5.433   1.484 -0.8611  1.0076 -1.2011
 2436TIP3   OH228866   3.128   0.457   0.343 -0.3185 -0.5911  0.2238
 2436TIP3    H128867   3.185   0.509   0.287 -0.5566  1.2551  1.6207
 2436TIP3    H228868   3.150   0.366   0.321  1.3601  0.0625 -1.0444
 2437TIP3   OH228869   5.401   4.006   1.998  0.3600 -0.2050  0.2102
 2437TIP3    H128870   5.330   4.070   1.998  0.1966 -0.3749 -0.6950
 2437TIP3    H228871   5.464   4.041   2.061 -0.0950  0.4303  0.3258
 2438TIP3   OH228872   4.936   4.786   1.388 -0.1292  0.1106  0.1010
 2438TIP3    H128873   4.904   4.730   1.317 -0.9145  0.9869 -0.2711
 2438TIP3    H228874   4.913   4.739   1.468 -1.2367  0.1216 -0.1908
 2439TIP3   OH228875   0.340   4.374   0.364 -0.2468 -0.1029 -0.1582
 2439TIP3    H128876   0.387   4.385   0.447  0.7935 -0.4939 -0.6790
 2439TIP3    H228877   0.257   4.421   0.377 -0.2664 -0.4688  1.2257
 2440TIP3   OH228878   3.202   0.792   0.646  0.1232 -0.1217 -0.1562
 2440TIP3    H128879   3.114   0.816   0.618  0.0112  0.4019  0.6048
 2440TIP3    H228880   3.203   0.697   0.644 -0.0776 -0.1078 -1.3132
 2441TIP3   OH228881   4.885   0.268   0.004 -0.2395  1.1530  0.1034
 2441TIP3    H128882   4.918   0.252  -0.085 -0.5196  0.5475  0.1057
 2441TIP3    H228883   4.846   0.355  -0.001 -0.8081  0.8696 -0.5310
 2442TIP3   OH228884   1.375   1.356   0.777  0.7153  0.6775  0.7530
 2442TIP3    H128885   1.449   1.316   0.730  2.3269 -0.2308  3.7897
 2442TIP3    H228886   1.400   1.448   0.787  0.1207  1.0013 -0.4967
 2443TIP3   OH228887   0.143   5.214   0.684  0.0760  1.2043  0.6942
 2443TIP3    H128888   0.156   5.281   0.751  1.1737  1.6144  0.0900
 2443TIP3    H228889   0.201   5.239   0.613  0.6479 -0.4690  0.5258
 2444TIP3   OH228890   4.107   5.282   0.994 -0.1263  0.0136  0.2736
 2444TIP3    H128891   4.196   5.265   1.025  0.2024  1.0798 -0.0518
 2444TIP3    H228892   4.116   5.294   0.900 -0.5766  0.3913  0.2769
 2445TIP3   OH228893   2.362   1.781   0.765 -0.0014 -0.1105  0.4794
 2445TIP3    H128894   2.398   1.811   0.848  2.0108  0.6488 -0.5924
 2445TIP3    H228895   2.410   1.830   0.699 -2.5654  0.4027 -1.1553
 2446TIP3   OH228896   3.844   4.016   0.157 -0.1363 -0.0705 -0.2379
 2446TIP3    H128897   3.813   3.935   0.116 -2.1555  0.4584  0.1714
 2446TIP3    H228898   3.878   4.068   0.085 -0.8019 -0.4055 -0.8051
 2447TIP3   OH228899   2.500   6.794   8.813 -0.1709 -0.2966  0.4345
 2447TIP3    H128900   2.561   6.740   8.863 -0.5888 -1.4751 -0.2850
 2447TIP3    H228901   2.556   6.861   8.773  0.3279 -0.0579  1.4971
 2448TIP3   OH228902   1.373   2.417   2.069 -0.1062 -0.3490 -0.0141
 2448TIP3    H128903   1.438   2.478   2.034  0.1383  0.1835  1.2900
 2448TIP3    H228904   1.343   2.367   1.994 -2.0016  2.8776 -1.6294
 2449TIP3   OH228905   6.328   3.954   0.613 -0.2446 -0.2408 -0.1439
 2449TIP3    H128906   6.269   4.016   0.568 -0.5730  0.6260  1.3925
 2449TIP3    H228907   6.408   3.955   0.561  0.1520  2.3283  0.3790
 2450TIP3   OH228908   6.785   2.528   2.032  0.4567  0.4317 -0.2050
 2450TIP3    H128909   6.798   2.469   2.106 -0.7097  0.0549 -0.2767
 2450TIP3    H228910   6.703   2.499   1.992  0.7864  0.9803 -1.3206
 2451TIP3   OH228911   1.837   0.855   2.396 -0.0658 -0.0253 -0.5241
 2451TIP3    H128912   1.904   0.818   2.338 -3.0892 -0.6995 -3.9189
 2451TIP3    H228913   1.848   0.950   2.388  1.2045 -0.0998  0.0127
 2452TIP3   OH228914   4.791   2.423   8.661  0.1209  0.1335  0.3961
 2452TIP3    H128915   4.876   2.397   8.698  0.0123 -0.1154  0.4731
 2452TIP3    H228916   4.727   2.369   8.708 -0.3464  2.0970  2.1614
 2453TIP3   OH228917   3.247   5.999   8.610  0.0225  0.4983 -0.3579
 2453TIP3    H128918   3.271   5.997   8.517 -1.0215 -1.9103 -0.6419
 2453TIP3    H228919   3.198   6.081   8.619 -2.0750 -0.3828 -2.5812
 2454TIP3   OH228920   4.058   1.429   0.914  0.0329  0.5237  0.3414
 2454TIP3    H128921   4.107   1.391   0.841  0.5178 -0.2453  1.0504
 2454TIP3    H228922   4.084   1.520   0.916  0.2563  0.4764 -0.2490
 2455TIP3   OH228923   5.250   1.384   3.327  0.0655 -0.5510  0.7077
 2455TIP3    H128924   5.171   1.366   3.276  0.3783 -0.3106  0.1305
 2455TIP3    H228925   5.295   1.300   3.334  1.2315 -0.1761 -1.4816
 2456TIP3   OH228926   1.014   1.754   0.064 -0.4187  0.0646 -0.2137
 2456TIP3    H128927   0.932   1.749   0.113 -0.0154 -0.8238  0.3890
 2456TIP3    H228928   1.009   1.682   0.001 -0.2714  0.2494 -0.4362
 2457TIP3   OH228929   6.718   2.334   2.475 -0.2295 -0.5411  0.0544
 2457TIP3    H128930   6.761   2.276   2.537 -0.8793  0.6290  1.6762
 2457TIP3    H228931   6.695   2.278   2.401  0.4088 -2.0241  0.9365
 2458TIP3   OH228932   3.166   5.675   8.337 -0.5334  0.2181 -0.7027
 2458TIP3    H128933   3.071   5.673   8.339 -0.5421  1.0296  0.4690
 2458TIP3    H228934   3.193   5.596   8.385 -0.5900 -0.2881 -1.4754
 2459TIP3   OH228935   3.134   4.136   1.962 -0.2042  0.1987  0.3282
 2459TIP3    H128936   3.088   4.131   1.878  2.0952 -0.6225 -0.9788
 2459TIP3    H228937   3.101   4.217   2.003 -1.1804  0.7618 -1.4664
 2460TIP3   OH228938   6.690   0.594   2.363 -0.2302 -0.1282 -0.3156
 2460TIP3    H128939   6.671   0.601   2.457 -0.7952 -1.2366 -0.3278
 2460TIP3    H228940   6.783   0.617   2.356 -0.4698  1.1343  0.3438
 2461TIP3   OH228941   0.069   1.930   1.848 -0.0506 -0.1645  0.2974
 2461TIP3    H128942   0.158   1.896   1.854  0.4498  1.0591 -0.0415
 2461TIP3    H228943   0.043   1.913   1.758 -0.5234 -1.3476  0.6328
 2462TIP3   OH228944   4.403   0.267   7.708 -0.2304 -0.6668 -0.0318
 2462TIP3    H128945   4.436   0.277   7.797 -0.3619 -1.8634  0.1591
 2462TIP3    H228946   4.470   0.215   7.664 -0.9023 -1.3933 -0.2020
 2463TIP3   OH228947   3.861   4.176   1.944  0.1990 -0.2002  0.2645
 2463TIP3    H128948   3.793   4.128   1.990  0.5357 -0.7496  0.1891
 2463TIP3    H228949   3.885   4.121   1.870  1.6997 -0.6741  1.0631
 2464TIP3   OH228950   6.548   4.775   0.459  0.2775 -0.4930 -0.0650
 2464TIP3    H128951   6.639   4.768   0.428 -0.2192 -1.9293 -1.3095
 2464TIP3    H228952   6.543   4.712   0.531  0.6469  0.6999  1.0332
 2465TIP3   OH228953   6.417   5.343   2.142 -0.1450  0.0546 -0.2561
 2465TIP3    H128954   6.500   5.329   2.097 -0.7559  1.9077 -2.1060
 2465TIP3    H228955   6.433   5.418   2.199 -0.4157  0.1287 -0.2769
 2466TIP3   OH228956   5.571   6.292   2.258  0.1372 -0.0793 -0.3986
 2466TIP3    H128957   5.492   6.325   2.300  0.7094  0.1406  0.5316
 2466TIP3    H228958   5.568   6.197   2.272  1.7650  0.1897  2.8735
 2467TIP3   OH228959   2.064   2.829   1.421  0.2335  0.2374 -0.2660
 2467TIP3    H128960   1.982   2.867   1.450 -0.5126 -1.6914  0.3121
 2467TIP3    H228961   2.068   2.744   1.464  1.5924 -0.5448 -1.7996
 2468TIP3   OH228962   2.855   2.151   1.386 -0.2962 -0.4801  0.0693
 2468TIP3    H128963   2.940   2.195   1.380 -0.4678 -0.2801 -1.5092
 2468TIP3    H228964   2.793   2.223   1.397 -0.6417 -0.1216 -3.1364
 2469TIP3   OH228965   3.800   4.884   8.162 -0.0559  0.1180 -0.2816
 2469TIP3    H128966   3.870   4.918   8.107  2.6819 -0.4840  2.5347
 2469TIP3    H228967   3.732   4.951   8.159  2.0127  2.3242 -0.6672
 2470TIP3   OH228968   2.876   5.487   2.148 -0.0959 -0.2399  0.2183
 2470TIP3    H128969   2.880   5.499   2.054  0.8340 -0.1741  0.2600
 2470TIP3    H228970   2.802   5.541   2.176  0.5474  0.9358 -0.2875
 2471TIP3   OH228971   1.761   1.772   0.709  0.6201 -0.2562 -0.1569
 2471TIP3    H128972   1.772   1.763   0.803  1.5247  1.3116 -0.0782
 2471TIP3    H228973   1.736   1.685   0.679  1.1967 -0.9911  1.4120
 2472TIP3   OH228974   6.061   4.876   8.209 -0.0427 -0.5474 -0.3304
 2472TIP3    H128975   6.108   4.864   8.291  2.9423  3.4322 -1.1724
 2472TIP3    H228976   5.984   4.926   8.232  1.5372  1.8610  0.0358
 2473TIP3   OH228977   5.413   3.927   1.735  0.4689 -0.2960 -0.0152
 2473TIP3    H128978   5.427   3.943   1.828 -0.1420  0.3616 -0.0291
 2473TIP3    H228979   5.409   3.832   1.727 -3.6538 -0.4372  1.3170
 2474TIP3   OH228980   0.681   6.321   1.948 -0.4548  0.0931 -0.1679
 2474TIP3    H128981   0.601   6.323   2.002 -0.6400 -0.1211 -0.4312
 2474TIP3    H228982   0.707   6.229   1.947  0.5612  0.3482  1.0188
 2475TIP3   OH228983   4.650   1.280   3.573 -0.4296 -0.3605  0.1577
 2475TIP3    H128984   4.592   1.349   3.541 -0.3722 -0.1245  0.5469
 2475TIP3    H228985   4.652   1.293   3.668  1.8533  0.9116  0.0094
 2476TIP3   OH228986   5.799   2.971   1.746 -0.5863  0.2758 -0.1482
 2476TIP3    H128987   5.730   2.948   1.808 -0.5821 -1.8302 -0.8617
 2476TIP3    H228988   5.764   2.947   1.660  0.7601 -0.2102 -0.5924
 2477TIP3   OH228989   3.613   6.603   0.262 -0.2195 -0.1834 -0.0071
 2477TIP3    H128990   3.586   6.662   0.332 -1.7312 -0.7865 -0.0498
 2477TIP3    H228991   3.586   6.647   0.181 -1.3527 -0.8941 -0.0402
 2478TIP3   OH228992   3.635   2.699   8.494 -0.2621  0.3084  0.1722
 2478TIP3    H128993   3.663   2.608   8.508 -0.0791  0.7339  3.2047
 2478TIP3    H228994   3.562   2.691   8.432 -0.9714 -2.0756  1.1579
 2479TIP3   OH228995   1.893   2.827   8.126  0.0501 -0.4866 -0.1814
 2479TIP3    H128996   1.924   2.817   8.216 -0.4100 -0.6567 -0.0412
 2479TIP3    H228997   1.912   2.918   8.104  0.9809 -0.6782 -0.2231
 2480TIP3   OH228998   2.329   2.456   1.153  0.0497  0.1986 -0.5892
 2480TIP3    H128999   2.343   2.454   1.247 -2.5046 -0.6276 -0.1431
 2480TIP3    H229000   2.386   2.386   1.119  1.1188  0.6185  0.2869
 2481TIP3   OH229001   0.099   6.623   8.642 -0.1520  0.0899 -0.3386
 2481TIP3    H129002   0.108   6.665   8.557 -0.5134 -1.0703 -0.9756
 2481TIP3    H229003   0.064   6.691   8.699 -0.4090  0.7372 -1.2478
 2482TIP3   OH229004   2.911   4.737   8.171 -0.0015 -0.4952  0.5368
 2482TIP3    H129005   2.975   4.686   8.121  0.7733  1.5953 -0.7140
 2482TIP3    H229006   2.857   4.671   8.215 -0.1783 -2.4728 -2.3584
 2483TIP3   OH229007   5.323   4.814   0.395 -0.5142  0.7897 -0.1527
 2483TIP3    H129008   5.355   4.852   0.477 -1.2927  0.1837  0.4548
 2483TIP3    H229009   5.338   4.881   0.329  0.2715  1.2293  0.4586
 2484TIP3   OH229010   0.778   1.716   8.278  0.1037  0.4747 -0.2022
 2484TIP3    H129011   0.839   1.749   8.345  0.6197  0.0083 -0.4350
 2484TIP3    H229012   0.692   1.717   8.321  0.3837  0.4732  0.3643
 2485TIP3   OH229013   1.187   5.483   7.682 -0.6297  0.0226 -0.1465
 2485TIP3    H129014   1.203   5.408   7.625 -1.8396  0.5545 -1.2378
 2485TIP3    H229015   1.136   5.544   7.628 -0.7150  1.1012  1.1001
 2486TIP3   OH229016   0.243   5.368   8.704 -0.1095  0.2069 -0.4406
 2486TIP3    H129017   0.237   5.382   8.799 -1.5551 -1.8881 -0.1480
 2486TIP3    H229018   0.204   5.447   8.666 -0.8666  0.4390  0.7514
 2487TIP3   OH229019   1.506   2.566   1.853  0.5968 -1.0831 -0.3549
 2487TIP3    H129020   1.424   2.582   1.805 -0.2147 -0.5869  1.1280
 2487TIP3    H229021   1.561   2.641   1.832  0.3590 -0.9982 -0.6983
 2488TIP3   OH229022   2.005   4.381   0.023 -0.3298 -0.6931 -0.1894
 2488TIP3    H129023   2.098   4.376   0.044  0.1841 -0.1126 -2.1537
 2488TIP3    H229024   1.965   4.311   0.075  0.9245  0.0670  1.9220
 2489TIP3   OH229025   2.421   4.591   2.865 -0.5116 -0.7835 -0.1818
 2489TIP3    H129026   2.381   4.509   2.835 -1.7835 -0.4320  0.5154
 2489TIP3    H229027   2.349   4.642   2.900  0.3752  0.3795  0.0088
 2490TIP3   OH229028   5.894   2.800   0.561 -0.1311  0.5151 -1.0876
 2490TIP3    H129029   5.981   2.760   0.550  0.5427  1.7513 -0.5360
 2490TIP3    H229030   5.872   2.833   0.474  0.5110  1.2264 -0.9971
 2491TIP3   OH229031   2.131   3.907   7.805  0.0840 -0.6233  0.7589
 2491TIP3    H129032   2.210   3.961   7.798 -1.4660  1.9172  1.5995
 2491TIP3    H229033   2.120   3.869   7.718 -0.5187  3.1477 -1.0024
 2492TIP3   OH229034   5.932   2.182   8.412  0.3649 -0.0672  0.1625
 2492TIP3    H129035   5.891   2.159   8.329  2.8678  0.5285 -1.3313
 2492TIP3    H229036   5.918   2.105   8.467 -0.6257 -0.8110 -1.0780
 2493TIP3   OH229037   3.700   4.313   8.664  0.4581  0.0552  0.0221
 2493TIP3    H129038   3.742   4.245   8.716 -1.1289 -1.4580 -0.5733
 2493TIP3    H229039   3.639   4.266   8.607 -1.4765  2.0376  0.3118
 2494TIP3   OH229040   1.912   4.900   7.416  0.5185  0.4529  0.1016
 2494TIP3    H129041   1.899   4.994   7.428  2.1561  0.6880  0.3288
 2494TIP3    H229042   1.941   4.891   7.325  0.5069  0.1893  0.1211
 2495TIP3   OH229043   0.825   2.259   0.570  0.5198  0.4908 -0.5172
 2495TIP3    H129044   0.791   2.176   0.537  2.5882 -1.0328  0.9978
 2495TIP3    H229045   0.892   2.235   0.634  0.0573  3.3179  1.2122
 2496TIP3   OH229046   0.017   0.847   1.406  0.1161  0.0797  0.6831
 2496TIP3    H129047   0.077   0.775   1.389 -0.0815  0.0919 -0.0713
 2496TIP3    H229048  -0.021   0.826   1.492  1.4045  0.2305  1.3103
 2497TIP3   OH229049   6.167   3.975   7.916  0.2905 -1.4092  0.3107
 2497TIP3    H129050   6.160   4.038   7.844  0.5192 -0.4086  1.1440
 2497TIP3    H229051   6.090   3.919   7.905  0.0411 -0.9523 -0.4073
 2498TIP3   OH229052   3.719   2.186   7.284 -0.0300  0.3319  0.0135
 2498TIP3    H129053   3.787   2.192   7.217 -0.1811  0.8179 -0.1021
 2498TIP3    H229054   3.692   2.094   7.284  0.3338  0.2254 -0.2302
 2499TIP3   OH229055   2.310   3.748   0.350 -0.2081 -0.4087  0.2157
 2499TIP3    H129056   2.306   3.761   0.444  0.7345  0.5858  0.1349
 2499TIP3    H229057   2.387   3.797   0.322 -0.3367 -0.8846 -1.0444
 2500TIP3   OH229058   3.726   3.090   8.654 -0.1487  0.0510  0.1515
 2500TIP3    H129059   3.771   3.049   8.581  0.8510  0.6705  0.3930
 2500TIP3    H229060   3.647   3.037   8.667  0.1728 -0.6650 -0.7127
 2501TIP3   OH229061   0.487   1.699   2.269  0.5249  0.1963  0.0746
 2501TIP3    H129062   0.404   1.670   2.230  0.4668  2.4071 -1.5764
 2501TIP3    H229063   0.485   1.794   2.263  3.5156  0.2841 -0.6740
 2502TIP3   OH229064   1.696   5.329   2.016  0.2167  0.1747 -0.0657
 2502TIP3    H129065   1.619   5.318   1.961 -0.0801 -0.6501  0.4805
 2502TIP3    H229066   1.676   5.405   2.071 -0.6346 -0.5875  0.7228
 2503TIP3   OH229067   2.433   5.914   8.178  0.0209  0.5903 -0.4857
 2503TIP3    H129068   2.360   5.944   8.232 -0.3853 -1.3201  0.1006
 2503TIP3    H229069   2.511   5.947   8.221 -0.3989  0.7725  0.1421
 2504TIP3   OH229070   6.236   2.079   8.302 -0.0789  0.4385  0.1752
 2504TIP3    H129071   6.266   2.151   8.247 -2.0443  0.3288 -1.1169
 2504TIP3    H229072   6.143   2.096   8.316 -0.6076 -1.8613 -0.2257
 2505TIP3   OH229073   0.601   4.811   1.340  0.6149  1.0769  0.3885
 2505TIP3    H129074   0.546   4.858   1.403 -1.2435  0.0200 -0.3756
 2505TIP3    H229075   0.632   4.734   1.387 -0.2412  0.6283  0.2449
 2506TIP3   OH229076   5.077   4.882   2.440 -0.4069  0.0511 -0.2550
 2506TIP3    H129077   5.151   4.911   2.386  0.1753  0.7279  0.8763
 2506TIP3    H229078   5.095   4.918   2.526 -1.8468 -0.1571  0.1477
 2507TIP3   OH229079   1.053   0.002   0.707  0.7473 -0.1648 -0.1706
 2507TIP3    H129080   0.976  -0.049   0.683 -0.7874  0.9544  2.0194
 2507TIP3    H229081   1.039   0.087   0.665  0.1800  0.4014  1.1108
 2508TIP3   OH229082   4.856   0.088   0.229  0.1080  0.0882 -0.3240
 2508TIP3    H129083   4.926   0.120   0.286 -0.5486  0.2858  0.3820
 2508TIP3    H229084   4.865   0.139   0.148 -2.2603  3.8322  1.4959
 2509TIP3   OH229085   2.502   3.395   8.282 -0.4064  0.1095 -0.2719
 2509TIP3    H129086   2.557   3.458   8.329 -0.0406  0.2919 -0.9366
 2509TIP3    H229087   2.529   3.309   8.316 -0.7937  0.2881  0.5181
 2510TIP3   OH229088   1.127   2.348   0.667  0.7592  0.2306  0.3351
 2510TIP3    H129089   1.079   2.419   0.711  0.6767  0.7967 -0.6463
 2510TIP3    H229090   1.207   2.388   0.636  1.4950 -0.5160  1.2105
 2511TIP3   OH229091   6.236   1.074   1.506 -0.1120  0.2600  0.6242
 2511TIP3    H129092   6.284   1.093   1.586 -1.3178  0.6542  1.2698
 2511TIP3    H229093   6.214   1.160   1.470  0.3768  0.0858 -0.1123
 2512TIP3   OH229094   4.945   3.251   0.299  0.5256  0.8329 -0.0954
 2512TIP3    H129095   5.000   3.315   0.344  1.5553 -0.3454  0.3786
 2512TIP3    H229096   4.869   3.241   0.356  1.0938  0.5045  0.6303
 2513TIP3   OH229097   3.087   1.779   1.972  0.1076  0.2866  0.1058
 2513TIP3    H129098   3.031   1.705   1.997  0.6341 -0.0964  0.1580
 2513TIP3    H229099   3.029   1.835   1.920 -0.3300 -0.1072  0.1559
 2514TIP3   OH229100   2.828   6.180   2.629  0.3223  0.3321  0.0074
 2514TIP3    H129101   2.736   6.199   2.643  0.0803 -0.3022 -0.6576
 2514TIP3    H229102   2.843   6.097   2.675  0.2277 -0.2568 -1.0059
 2515TIP3   OH229103   3.112   6.757   8.188 -0.4882  0.1603  0.2474
 2515TIP3    H129104   3.106   6.662   8.180  0.9621  0.0107  0.4900
 2515TIP3    H229105   3.022   6.788   8.189 -0.9787 -1.2224  0.2576
 2516TIP3   OH229106   5.994   3.958   8.526 -0.3256  0.1177 -0.3149
 2516TIP3    H129107   5.946   3.930   8.448  0.2258 -1.9416  0.0312
 2516TIP3    H229108   5.973   4.051   8.535 -2.0216 -0.0784 -1.7432
 2517TIP3   OH229109   0.920   0.744   1.332  0.0076  0.1041 -0.4594
 2517TIP3    H129110   0.994   0.684   1.330 -0.3455 -0.4395  1.2029
 2517TIP3    H229111   0.952   0.818   1.384 -0.9624 -0.6911  1.3498
 2518TIP3   OH229112   1.468   1.210   2.523 -0.5576  0.7206  0.1601
 2518TIP3    H129113   1.457   1.132   2.578  0.5211  0.2274 -0.2945
 2518TIP3    H229114   1.378   1.241   2.507 -0.9790 -0.1930  0.6725
 2519TIP3   OH229115   4.383   5.528   0.530  0.4846  0.0123  0.3357
 2519TIP3    H129116   4.414   5.617   0.515 -0.0405  0.1714  0.1644
 2519TIP3    H229117   4.290   5.538   0.552 -0.1760 -0.6300 -1.8566
 2520TIP3   OH229118   2.521   3.701   8.179 -0.3313 -0.3876  0.1294
 2520TIP3    H129119   2.437   3.656   8.183 -1.2077  1.1319 -0.4232
 2520TIP3    H229120   2.539   3.711   8.086  0.8104 -1.2904  0.2349
 2521TIP3   OH229121   3.237   2.371   0.303  0.6454  0.0770  0.0295
 2521TIP3    H129122   3.258   2.323   0.383  1.0035 -1.4668 -0.9529
 2521TIP3    H229123   3.305   2.437   0.296  0.4849  0.3812  1.0947
 2522TIP3   OH229124   2.737   4.247   8.354  1.1440  0.2405  0.5974
 2522TIP3    H129125   2.699   4.229   8.439 -1.7772  0.2265 -0.6145
 2522TIP3    H229126   2.693   4.186   8.294  2.2357  1.0571 -1.1314
 2523TIP3   OH229127   1.179   2.826   1.651 -0.0275 -0.5051  0.2109
 2523TIP3    H129128   1.083   2.822   1.658 -0.2544 -1.0922 -2.4463
 2523TIP3    H229129   1.207   2.853   1.738 -2.6883  1.1339  0.6806
 2524TIP3   OH229130   5.622   3.103   1.271  0.0973  0.4668 -0.0233
 2524TIP3    H129131   5.662   3.188   1.254 -0.0817  0.6153  0.2897
 2524TIP3    H229132   5.528   3.120   1.273  0.0377  0.1929 -0.3337
 2525TIP3   OH229133   4.848   0.528   8.079 -0.4521  0.0649 -0.5229
 2525TIP3    H129134   4.756   0.508   8.064 -0.4959 -0.0557 -0.1150
 2525TIP3    H229135   4.850   0.571   8.165 -0.3010  1.4024 -1.1673
 2526TIP3   OH229136   3.658   3.481   1.026 -0.0502 -0.6048 -0.1388
 2526TIP3    H129137   3.612   3.484   1.110 -1.3278  1.1908 -0.8663
 2526TIP3    H229138   3.633   3.397   0.988 -0.4252 -0.8935  0.7155
 2527TIP3   OH229139   0.770   3.678   2.548 -0.7088 -0.2703 -0.2809
 2527TIP3    H129140   0.733   3.608   2.495 -1.6122  0.0591 -0.1018
 2527TIP3    H229141   0.823   3.729   2.487  2.0554 -2.4949  0.0468
 2528TIP3   OH229142   4.874   5.095   0.436 -0.4369 -0.1471  0.0794
 2528TIP3    H129143   4.863   5.188   0.454 -0.6253 -0.1620  0.0402
 2528TIP3    H229144   4.848   5.085   0.345  1.2674  0.0661 -0.4676
 2529TIP3   OH229145   0.593   5.148   8.061  0.2531 -0.3131 -0.3585
 2529TIP3    H129146   0.593   5.078   8.126 -0.2986 -0.1953 -0.2265
 2529TIP3    H229147   0.508   5.192   8.073  0.5869  0.3665 -0.4471
 2530TIP3   OH229148   3.706   3.786   8.752  0.0847 -0.4847  0.0021
 2530TIP3    H129149   3.663   3.833   8.823 -1.0604 -2.0791  0.4222
 2530TIP3    H229150   3.654   3.807   8.674  0.8082  0.5433 -0.2316
 2531TIP3   OH229151   2.127   4.697   0.866  0.2910  0.1534 -0.3476
 2531TIP3    H129152   2.106   4.789   0.885 -2.0034 -0.0156 -1.6119
 2531TIP3    H229153   2.098   4.685   0.775 -1.8705 -2.3998  0.5472
 2532TIP3   OH229154   2.697   4.593   8.242  0.1626 -0.1902  0.4105
 2532TIP3    H129155   2.643   4.567   8.167  0.2119 -0.2024  0.3793
 2532TIP3    H229156   2.682   4.525   8.307 -1.9030  1.1138  1.4327
 2533TIP3   OH229157   4.314   1.098   1.396 -0.0738 -0.1723  0.1608
 2533TIP3    H129158   4.367   1.027   1.433 -0.4897 -0.3230  0.4713
 2533TIP3    H229159   4.280   1.144   1.472  0.9082  0.9163 -0.0194
 2534TIP3   OH229160   0.683   3.359   3.656  0.3657  0.1869 -0.0165
 2534TIP3    H129161   0.772   3.336   3.686  0.4480  0.9695  0.3563
 2534TIP3    H229162   0.665   3.296   3.587  0.1046 -1.8189  1.7580
 2535TIP3   OH229163   5.556   5.466   1.320 -0.2880  0.2849 -0.2886
 2535TIP3    H129164   5.486   5.404   1.339 -1.4906  0.7177 -2.8690
 2535TIP3    H229165   5.537   5.542   1.374 -1.0668 -0.1025 -0.0027
 2536TIP3   OH229166   2.939   3.522   1.027 -0.0024 -0.3046  0.2028
 2536TIP3    H129167   2.855   3.550   0.989 -0.2985 -1.4375 -0.0073
 2536TIP3    H229168   2.927   3.429   1.046  1.0724 -0.3816  0.5690
 2537TIP3   OH229169   6.012   5.194   0.427  0.1526  0.2537 -0.0300
 2537TIP3    H129170   6.011   5.126   0.494 -0.4973  1.9179  1.7555
 2537TIP3    H229171   5.922   5.226   0.423  0.1228  0.0440 -1.9165
 2538TIP3   OH229172   3.377   1.258   2.016 -0.1954 -0.3766  0.0464
 2538TIP3    H129173   3.415   1.211   2.090  0.6835 -0.2614 -0.3185
 2538TIP3    H229174   3.442   1.326   1.995 -0.2997 -0.5799 -1.0017
 2539TIP3   OH229175   3.594   1.792   2.142 -0.5533 -0.4870  0.4612
 2539TIP3    H129176   3.662   1.836   2.195  0.2573 -0.8087 -0.2887
 2539TIP3    H229177   3.512   1.826   2.177  0.0315  2.0765 -0.4405
 2540TIP3   OH229178   3.031   1.412   7.396 -0.2502 -0.1131  0.2150
 2540TIP3    H129179   3.008   1.488   7.342 -0.5670 -1.0173 -0.9483
 2540TIP3    H229180   3.125   1.400   7.383 -0.2763 -0.1691  0.0797
 2541TIP3   OH229181   3.754   0.204   0.234 -0.6776 -0.6105  0.7130
 2541TIP3    H129182   3.746   0.159   0.319  1.1620 -0.1273  1.2004
 2541TIP3    H229183   3.772   0.134   0.172 -0.4502 -0.8217  1.0097
 2542TIP3   OH229184   6.641   5.487   1.792 -0.3401 -0.1153 -0.3608
 2542TIP3    H129185   6.546   5.491   1.792 -0.3214  1.3619  1.4484
 2542TIP3    H229186   6.669   5.568   1.750  0.1009  0.2101  0.5374
 2543TIP3   OH229187   3.122   3.590   8.298 -0.3074  0.2285 -0.1473
 2543TIP3    H129188   3.122   3.532   8.374 -0.9142  0.4182  0.0029
 2543TIP3    H229189   3.054   3.555   8.241 -1.0542  1.0924  0.1857
 2544TIP3   OH229190   0.488   4.699   2.563  0.2786  0.8905 -0.4215
 2544TIP3    H129191   0.529   4.614   2.550 -0.3230  0.5647 -0.2250
 2544TIP3    H229192   0.509   4.723   2.654  0.7390  1.1145 -0.5849
 2545TIP3   OH229193   2.434   4.043   8.661  0.4671 -0.3874 -0.5395
 2545TIP3    H129194   2.494   3.970   8.677  0.0300 -0.5524  0.3770
 2545TIP3    H229195   2.389   4.057   8.744 -0.0247  0.4150 -0.9241
 2546TIP3   OH229196   3.554   5.271   1.879 -0.4481  0.0887 -0.2548
 2546TIP3    H129197   3.536   5.229   1.795  0.4707  0.7214 -0.7953
 2546TIP3    H229198   3.532   5.206   1.945 -1.1556 -0.4276 -0.9902
 2547TIP3   OH229199   1.231   2.764   8.337 -0.5481  0.2247 -0.2283
 2547TIP3    H129200   1.228   2.847   8.290  0.1691  0.1939 -0.3495
 2547TIP3    H229201   1.173   2.776   8.412  0.1267  1.1117  0.1725
 2548TIP3   OH229202   5.110   0.155   0.295 -0.0349  0.7186  0.5719
 2548TIP3    H129203   5.179   0.221   0.298  0.7354 -0.0438 -0.0013
 2548TIP3    H229204   5.142   0.084   0.350 -1.4477  1.3298  2.2870
 2549TIP3   OH229205   6.045   3.700   0.406  0.5841  0.2464 -0.0102
 2549TIP3    H129206   5.995   3.660   0.477  0.2594  1.6926  0.6158
 2549TIP3    H229207   5.989   3.691   0.329 -0.3252  1.1507  0.5184
 2550TIP3   OH229208   0.424   2.198   0.059 -0.1257 -0.8379 -0.2795
 2550TIP3    H129209   0.343   2.246   0.077 -0.5947 -0.7761 -2.2577
 2550TIP3    H229210   0.430   2.133   0.128 -1.4454 -0.3343  0.3459
 2551TIP3   OH229211   3.463   6.114   8.884  0.5174 -0.1727  0.7277
 2551TIP3    H129212   3.460   6.036   8.827  1.3379  1.1750 -1.2883
 2551TIP3    H229213   3.374   6.150   8.880  0.6433  0.0727  0.0420
 2552TIP3   OH229214   1.890   6.330   0.299 -0.1270  0.4598 -0.1733
 2552TIP3    H129215   1.872   6.398   0.234  2.0826  3.7400  2.3310
 2552TIP3    H229216   1.824   6.343   0.367 -0.2271 -0.5609 -0.0555
 2553TIP3   OH229217   2.654   3.626   0.765  0.7185  0.0968 -0.1906
 2553TIP3    H129218   2.670   3.690   0.835  0.0849  0.8189 -0.6831
 2553TIP3    H229219   2.604   3.556   0.806  1.3179 -0.0366  0.3296
 2554TIP3   OH229220   4.872   2.423   2.915 -0.3191  0.6263 -0.4410
 2554TIP3    H129221   4.826   2.445   2.996 -1.6978  0.1097 -1.0524
 2554TIP3    H229222   4.933   2.353   2.940  0.9230  2.0047  0.5819
 2555TIP3   OH229223   6.092   1.002   3.840  0.4711 -0.0081  0.5963
 2555TIP3    H129224   6.066   0.969   3.754  2.5535  1.5782 -0.7366
 2555TIP3    H229225   6.010   1.032   3.879 -0.5817 -1.0880 -0.6599
 2556TIP3   OH229226   0.221   6.169   8.033 -0.2041 -0.3249  0.7707
 2556TIP3    H129227   0.302   6.155   7.984 -0.6371 -1.4192  0.3351
 2556TIP3    H229228   0.201   6.261   8.021  1.0317 -0.0113  0.9808
 2557TIP3   OH229229   2.068   6.667   0.791  0.0330 -0.0331 -0.3989
 2557TIP3    H129230   2.138   6.701   0.847  0.6485  0.8465 -1.6513
 2557TIP3    H229231   1.998   6.731   0.798  1.1739  1.6437 -2.7206
 2558TIP3   OH229232   5.468   3.819   0.136  0.0568 -0.3557  1.0424
 2558TIP3    H129233   5.457   3.860   0.050  0.9373 -0.1396  1.0175
 2558TIP3    H229234   5.457   3.891   0.198  0.5869 -0.2779  1.0494
 2559TIP3   OH229235   3.941   0.444   8.547  0.6168  0.2067 -0.0939
 2559TIP3    H129236   4.023   0.408   8.581 -0.0180 -1.2684 -0.0299
 2559TIP3    H229237   3.929   0.526   8.594  2.4651  0.8628 -0.7026
 2560TIP3   OH229238   3.457   3.267   8.628  0.0713 -0.1270  0.1784
 2560TIP3    H129239   3.501   3.186   8.605  4.0507  2.0049 -0.6267
 2560TIP3    H229240   3.400   3.286   8.554  0.3240 -1.3688 -0.3439
 2561TIP3   OH229241   2.101   1.430   0.171 -0.3185 -0.1652  0.7055
 2561TIP3    H129242   2.036   1.440   0.241 -0.4182 -0.5953  0.6765
 2561TIP3    H229243   2.101   1.515   0.127 -1.4630 -0.4046  0.1993
 2562TIP3   OH229244   4.639   5.742   8.794 -0.0964 -0.1290  0.0753
 2562TIP3    H129245   4.648   5.757   8.700 -0.2803 -0.3842  0.0148
 2562TIP3    H229246   4.681   5.657   8.810 -0.2281 -0.1751  0.1889
 2563TIP3   OH229247   0.272   0.215   0.640 -0.2083 -0.0204  0.7318
 2563TIP3    H129248   0.331   0.290   0.634 -2.5292  1.8487 -0.1519
 2563TIP3    H229249   0.249   0.210   0.733  1.8090 -1.2597  1.2348
 2564TIP3   OH229250   3.578   3.804   8.128  0.0340 -0.5064  0.4542
 2564TIP3    H129251   3.640   3.807   8.200  1.1525 -2.1427 -0.4016
 2564TIP3    H229252   3.522   3.729   8.147 -1.3491  0.5868  0.9026
 2565TIP3   OH229253   1.345   4.663   8.273  0.3047  0.0063 -0.2954
 2565TIP3    H129254   1.276   4.726   8.250 -1.9698 -1.2847  2.4930
 2565TIP3    H229255   1.317   4.581   8.234 -0.0206 -0.6291  1.2163
 2566TIP3   OH229256   4.983   5.991   0.651 -0.4842  0.4706  0.7055
 2566TIP3    H129257   5.049   6.053   0.621  0.9326 -0.3637  1.9748
 2566TIP3    H229258   4.984   5.998   0.747 -2.7725  0.9361  0.7643
 2567TIP3   OH229259   5.265   4.906   7.795 -0.2498  0.2359  0.0106
 2567TIP3    H129260   5.214   4.970   7.845 -1.3012  0.4052 -1.2229
 2567TIP3    H229261   5.285   4.950   7.712 -0.8443 -0.9325 -0.7889
 2568TIP3   OH229262   6.336   4.605   8.525 -0.1194 -0.4356  0.8483
 2568TIP3    H129263   6.343   4.513   8.552 -0.1704 -1.0063 -0.9441
 2568TIP3    H229264   6.425   4.628   8.496 -0.4433 -0.4490 -0.2112
 2569TIP3   OH229265   0.167   3.322   8.886 -0.2373  0.4594  0.3839
 2569TIP3    H129266   0.159   3.415   8.903  0.4884  0.4725  0.6641
 2569TIP3    H229267   0.084   3.285   8.916 -1.4299  1.2707 -1.6901
 2570TIP3   OH229268   4.333   4.285   0.141 -0.1488 -0.1281 -0.6759
 2570TIP3    H129269   4.251   4.307   0.097 -0.3760 -2.5769 -1.6251
 2570TIP3    H229270   4.330   4.333   0.224 -1.1931  2.0648 -1.8874
 2571TIP3   OH229271   3.095   6.607   7.582  0.4957 -0.3373  0.1295
 2571TIP3    H129272   3.118   6.595   7.674 -0.1056  1.7152  0.5922
 2571TIP3    H229273   3.048   6.690   7.579  1.6903  0.3665 -2.2351
 2572TIP3   OH229274   2.934   2.244   8.520 -0.4226 -0.5480  0.5236
 2572TIP3    H129275   2.981   2.278   8.596  0.1170  0.3391 -0.1877
 2572TIP3    H229276   2.962   2.299   8.447  1.4113 -3.2305 -0.9509
 2573TIP3   OH229277   0.761   0.967   2.005  0.9769 -0.2836 -0.0566
 2573TIP3    H129278   0.790   1.058   2.014  2.3284 -0.8070  1.3216
 2573TIP3    H229279   0.781   0.943   1.915 -1.8240  1.5311 -1.3259
 2574TIP3   OH229280   6.639   6.483   1.949 -0.0108  0.0938 -0.8375
 2574TIP3    H129281   6.551   6.444   1.952 -0.1094  0.3345 -0.5206
 2574TIP3    H229282   6.682   6.438   1.877 -0.4624  0.1075 -1.1255
 2575TIP3   OH229283   4.461   4.091   0.492  0.6012  0.1565  0.1110
 2575TIP3    H129284   4.509   4.145   0.429 -0.0883  0.4459 -0.1865
 2575TIP3    H229285   4.398   4.042   0.438  2.3567 -2.3017  0.1401
 2576TIP3   OH229286   2.842   2.952   2.291  0.4403 -0.0975  0.1133
 2576TIP3    H129287   2.851   2.876   2.349 -1.8456 -0.4673  0.0745
 2576TIP3    H229288   2.843   3.027   2.351  3.3603  0.0204  0.1048
 2577TIP3   OH229289   5.782   4.062   0.286 -0.2714 -0.4137  0.4056
 2577TIP3    H129290   5.735   4.066   0.369 -0.9249 -2.2669  0.1644
 2577TIP3    H229291   5.720   4.097   0.222 -0.1645 -0.0019  0.5198
 2578TIP3   OH229292   2.406   6.158   7.750 -0.8506  0.2158  0.1364
 2578TIP3    H129293   2.334   6.219   7.768 -0.5221  0.2216  1.5574
 2578TIP3    H229294   2.470   6.210   7.702 -0.1236  1.3248  2.2059
 2579TIP3   OH229295   4.587   3.017   1.599  0.2083  0.6053 -0.2111
 2579TIP3    H129296   4.497   3.009   1.569  0.2817 -1.3831 -0.0225
 2579TIP3    H229297   4.579   3.044   1.691 -0.1564  1.0353 -0.3634
 2580TIP3   OH229298   4.559   2.539   8.527 -0.5979 -0.3130 -0.2461
 2580TIP3    H129299   4.532   2.462   8.477 -1.7055 -0.5696  0.7014
 2580TIP3    H229300   4.553   2.511   8.619  0.0615  0.5621  0.0753
 2581TIP3   OH229301   5.112   2.771   2.114 -0.4543 -0.3849 -0.2481
 2581TIP3    H129302   5.162   2.698   2.079  2.3724 -0.3527  3.2021
 2581TIP3    H229303   5.027   2.733   2.139 -0.3963 -1.5892 -1.7314
 2582TIP3   OH229304   0.937   5.082   8.227  0.3224 -0.4346 -0.2158
 2582TIP3    H129305   0.893   5.097   8.310  0.3170 -0.3148 -0.2390
 2582TIP3    H229306   1.019   5.132   8.234  0.4244 -0.6031 -0.1976
 2583TIP3   OH229307   6.646   2.819   2.456  0.0888  0.0807 -0.3332
 2583TIP3    H129308   6.719   2.878   2.476  0.9254 -0.6964 -0.9932
 2583TIP3    H229309   6.673   2.734   2.492 -0.2374 -0.3434 -1.0570
 2584TIP3   OH229310   1.283   1.797   1.801 -0.5349 -0.3537 -0.8282
 2584TIP3    H129311   1.244   1.715   1.772 -1.0601 -0.5034  0.2502
 2584TIP3    H229312   1.220   1.833   1.864  0.1166  0.4094 -0.5974
 2585TIP3   OH229313   0.256   5.495   0.091 -0.0971  0.1119  0.4547
 2585TIP3    H129314   0.288   5.550   0.162 -1.4669  0.9807  0.4195
 2585TIP3    H229315   0.205   5.554   0.036  1.0657 -0.4939 -1.3729
 2586TIP3   OH229316   5.672   1.929   2.493 -0.4231 -0.3901  0.0233
 2586TIP3    H129317   5.601   1.989   2.518  1.0881  1.9064 -0.8718
 2586TIP3    H229318   5.637   1.879   2.420 -1.3591  0.2244  0.0341
 2587TIP3   OH229319   1.353   5.543   2.758 -0.0750  0.0361 -0.3885
 2587TIP3    H129320   1.301   5.524   2.679  0.5728 -1.0251 -0.5808
 2587TIP3    H229321   1.327   5.475   2.820 -1.4262  1.5307  0.7646
 2588TIP3   OH229322   1.956   0.390   8.479  0.5495  0.3828 -0.1284
 2588TIP3    H129323   2.043   0.352   8.463  0.8771  0.8128  0.5684
 2588TIP3    H229324   1.917   0.397   8.392  1.5485  0.9697 -0.5482
 2589TIP3   OH229325   5.455   3.152   7.735  0.3860 -0.1237 -0.8689
 2589TIP3    H129326   5.438   3.167   7.642 -0.4087 -0.4621 -0.7806
 2589TIP3    H229327   5.438   3.059   7.748 -2.4057  0.4577  0.2069
 2590TIP3   OH229328   1.801   4.560   1.115 -0.0449  0.4332  0.4159
 2590TIP3    H129329   1.725   4.504   1.095  0.8950 -0.4620 -0.7672
 2590TIP3    H229330   1.767   4.624   1.177 -2.0186  0.6060 -0.7420
 2591TIP3   OH229331   3.998   1.231   1.857 -0.5874  0.3232 -0.0112
 2591TIP3    H129332   3.916   1.182   1.849 -1.7468  2.1267  0.2559
 2591TIP3    H229333   3.987   1.306   1.798  1.7796 -0.4955 -1.6575
 2592TIP3   OH229334   1.902   2.669   1.822  0.2337 -0.6265 -0.0240
 2592TIP3    H129335   1.841   2.738   1.796  0.7671 -0.5318 -1.0832
 2592TIP3    H229336   1.852   2.588   1.810  0.0482 -0.5025 -0.1023
 2593TIP3   OH229337   3.765   5.528   2.177 -0.4559 -0.1014  0.0474
 2593TIP3    H129338   3.799   5.442   2.153  2.0812  0.5762  0.8214
 2593TIP3    H229339   3.834   5.589   2.149 -1.7713  1.5841  0.3337
 2594TIP3   OH229340   3.135   6.625   0.811  0.0806 -0.1984  0.1743
 2594TIP3    H129341   3.117   6.636   0.717 -0.7885  0.4112  0.4046
 2594TIP3    H229342   3.049   6.621   0.852  0.4224 -2.2065  0.7808
 2595TIP3   OH229343   6.426   5.665   8.285  0.5139  0.1595  0.1793
 2595TIP3    H129344   6.382   5.645   8.202  0.9407  2.8501 -0.8084
 2595TIP3    H229345   6.362   5.718   8.333  0.6385 -0.5659  1.1650
 2596TIP3   OH229346   6.673   0.208   0.679  0.3751  0.4025  0.2013
 2596TIP3    H129347   6.675   0.117   0.648  0.9421  0.9657 -1.4697
 2596TIP3    H229348   6.581   0.234   0.673  0.4047  0.3486 -0.5826
 2597TIP3   OH229349   3.469   2.061   8.361  0.1653 -0.3133 -0.4966
 2597TIP3    H129350   3.540   2.097   8.307  3.0199 -0.3548  2.8821
 2597TIP3    H229351   3.490   1.968   8.370  1.1213  0.0781  2.3139
 2598TIP3   OH229352   2.656   3.644   8.805 -0.0789  0.4857  0.5067
 2598TIP3    H129353   2.570   3.683   8.787 -0.5744 -0.6699  0.2834
 2598TIP3    H229354   2.682   3.681   8.889  0.0293  2.1955 -0.2386
 2599TIP3   OH229355   4.234   3.927   1.935  0.4864 -0.5526  0.0252
 2599TIP3    H129356   4.261   3.902   1.847 -2.5628 -0.4472 -1.0420
 2599TIP3    H229357   4.187   4.010   1.924 -1.2744 -1.2907  1.4855
 2600TIP3   OH229358   3.871   5.941   1.139  0.2177 -0.4213 -0.3026
 2600TIP3    H129359   3.916   6.001   1.080  0.1293 -0.6042 -0.5563
 2600TIP3    H229360   3.853   5.863   1.086 -0.0499 -0.5048 -0.0941
 2601TIP3   OH229361   4.716   2.734   8.341 -0.2128 -0.2907 -0.2822
 2601TIP3    H129362   4.644   2.795   8.329 -0.2525  0.1308  1.8481
 2601TIP3    H229363   4.728   2.694   8.254 -0.8844  1.9297 -1.4593
 2602TIP3   OH229364   2.889   2.290   0.020  0.5536 -0.0680 -0.3340
 2602TIP3    H129365   2.841   2.217   0.059  1.0006  0.8923  2.2189
 2602TIP3    H229366   2.821   2.342  -0.023 -0.1413 -0.7262 -0.0717
 2603TIP3   OH229367   1.941   6.473   1.166  0.1226 -0.5816  0.4270
 2603TIP3    H129368   2.024   6.472   1.214  0.0505 -0.2189  0.5629
 2603TIP3    H229369   1.958   6.420   1.088  0.3850 -0.7756  0.6136
 2604TIP3   OH229370   2.284   1.246   0.172 -0.2408  0.0413 -0.0217
 2604TIP3    H129371   2.270   1.160   0.132  0.6676  0.0618 -0.4211
 2604TIP3    H229372   2.203   1.294   0.156 -0.7916 -0.7641  0.2830
 2605TIP3   OH229373   6.103   5.970   8.842 -0.3322  0.5891  0.0108
 2605TIP3    H129374   6.046   6.011   8.777 -0.1456 -1.7595 -1.7904
 2605TIP3    H229375   6.191   5.979   8.805 -0.4460 -2.8993 -1.4908
 2606TIP3   OH229376   3.454   3.198   1.670 -0.7676  0.0129 -0.6759
 2606TIP3    H129377   3.407   3.115   1.674 -0.1875 -0.2737  0.7750
 2606TIP3    H229378   3.516   3.188   1.597  0.8070 -1.6857  0.7974
 2607TIP3   OH229379   5.845   6.334   1.571 -0.0711  0.1148  0.2978
 2607TIP3    H129380   5.792   6.407   1.601 -1.7005  0.8095 -3.6766
 2607TIP3    H229381   5.792   6.256   1.589 -1.1799  0.5454 -0.9496
 2608TIP3   OH229382   2.363   5.792   7.490 -0.5069  0.0455 -0.5476
 2608TIP3    H129383   2.300   5.847   7.535 -0.0001  0.9961 -0.9741
 2608TIP3    H229384   2.437   5.850   7.471 -0.5767 -0.4063 -2.3307
 2609TIP3   OH229385   3.696   1.363   8.167  0.0044 -0.1390  0.2739
 2609TIP3    H129386   3.692   1.308   8.245  0.0195 -2.4416 -1.2743
 2609TIP3    H229387   3.604   1.377   8.143  0.0095  0.2839  0.4848
 2610TIP3   OH229388   3.307   5.582   0.748  0.1570  0.1803  0.0751
 2610TIP3    H129389   3.306   5.640   0.824 -0.1426  0.7735 -0.3745
 2610TIP3    H229390   3.371   5.514   0.771 -0.2496  0.1092  1.0265
 2611TIP3   OH229391   1.926   2.217   1.476  0.1953 -0.0642  0.5541
 2611TIP3    H129392   1.848   2.181   1.434 -0.0230  0.5303  0.4373
 2611TIP3    H229393   1.914   2.197   1.569  0.0656 -0.2679  0.4936
 2612TIP3   OH229394   5.118   1.903   1.257 -0.2420 -0.3989  0.6501
 2612TIP3    H129395   5.193   1.930   1.310 -0.0733  1.1169 -0.2887
 2612TIP3    H229396   5.043   1.911   1.317  0.3152 -2.0151  1.6220
 2613TIP3   OH229397   3.338   6.553   2.642 -0.3780 -0.7853  0.3965
 2613TIP3    H129398   3.405   6.515   2.699  0.8456 -0.4864 -0.7919
 2613TIP3    H229399   3.311   6.481   2.585  0.9812 -0.2786 -0.9670
 2614TIP3   OH229400   3.720   2.173   0.619  0.0279 -0.0596 -0.1764
 2614TIP3    H129401   3.718   2.266   0.596 -1.9335 -0.2242 -0.9035
 2614TIP3    H229402   3.764   2.170   0.704  0.8083  1.4294 -0.4883
 2615TIP3   OH229403   4.518   3.939   1.206  0.7305  0.0259  0.4911
 2615TIP3    H129404   4.601   3.980   1.229  0.2658  1.0135  0.4315
 2615TIP3    H229405   4.539   3.879   1.134  1.6454 -0.8389  1.4435
 2616TIP3   OH229406   6.009   2.261   2.484  0.3413  0.2796 -0.1083
 2616TIP3    H129407   6.094   2.304   2.474 -0.4701  2.4774  1.5345
 2616TIP3    H229408   5.967   2.271   2.399  0.8423  1.3084 -0.2469
 2617TIP3   OH229409   4.356   1.661   1.604  0.2804  0.3498 -0.7223
 2617TIP3    H129410   4.346   1.576   1.562 -0.4602 -0.2359  0.5914
 2617TIP3    H229411   4.268   1.699   1.602  0.7945  1.5378 -2.1864
 2618TIP3   OH229412   0.711   2.314   3.274  0.1892  0.2361 -0.6631
 2618TIP3    H129413   0.803   2.289   3.271  0.6332  1.8251 -1.9221
 2618TIP3    H229414   0.712   2.404   3.306 -1.0223 -0.0366  0.2009
 2619TIP3   OH229415   0.028   5.901   2.334 -0.0220 -0.4228  0.3016
 2619TIP3    H129416   0.083   5.826   2.313 -1.0305 -1.3071  0.7261
 2619TIP3    H229417   0.077   5.949   2.402 -0.1386 -1.6550  1.2906
 2620TIP3   OH229418   5.896   2.460   1.350 -0.0753 -0.8101  0.4019
 2620TIP3    H129419   5.906   2.490   1.260 -0.4199 -0.5677  0.4426
 2620TIP3    H229420   5.984   2.463   1.386  0.3638 -2.5746 -0.4340
 2621TIP3   OH229421   4.199   2.428   7.377 -0.2945  0.4998  0.0907
 2621TIP3    H129422   4.225   2.337   7.364 -0.5459  0.4136  0.1844
 2621TIP3    H229423   4.276   2.479   7.350 -0.4238  0.2905 -0.7036
 2622TIP3   OH229424   1.910   1.679   2.113 -0.5771 -0.1937 -0.3187
 2622TIP3    H129425   1.970   1.609   2.139 -3.1992 -2.3149  0.5076
 2622TIP3    H229426   1.881   1.718   2.196 -0.4609  0.6888 -0.6880
 2623TIP3   OH229427   0.177   3.752   0.292 -0.4344 -0.2648  0.1842
 2623TIP3    H129428   0.146   3.842   0.295  1.6625  0.5341 -0.1841
 2623TIP3    H229429   0.186   3.726   0.383 -0.4046  0.1506  0.3001
 2624TIP3   OH229430   3.581   3.014   0.424 -0.4683  0.1362  0.2601
 2624TIP3    H129431   3.628   2.978   0.348 -2.2805 -0.1941 -0.7505
 2624TIP3    H229432   3.552   3.101   0.396 -0.5217  0.3148  0.8520
 2625TIP3   OH229433   3.999   1.017   0.498  0.6199 -0.2243  0.2997
 2625TIP3    H129434   4.091   1.042   0.506  0.1885  2.3198 -1.3350
 2625TIP3    H229435   3.959   1.049   0.580  0.9276  0.1475  0.3109
 2626TIP3   OH229436   3.136   2.488   0.661 -0.4307  0.3463  0.0902
 2626TIP3    H129437   3.069   2.507   0.595 -0.0154  0.0046 -0.4363
 2626TIP3    H229438   3.171   2.402   0.637  0.3346  0.6042  0.2401
 2627TIP3   OH229439   6.144   4.484   8.812  0.5198  0.2959 -0.1449
 2627TIP3    H129440   6.052   4.458   8.814  0.1971  1.4186  1.4004
 2627TIP3    H229441   6.178   4.447   8.731 -1.4991  0.5527 -1.1612
 2628TIP3   OH229442   5.219   2.251   8.290 -0.7871  0.0301  0.3596
 2628TIP3    H129443   5.215   2.283   8.380  0.3949 -1.4026  0.9711
 2628TIP3    H229444   5.186   2.161   8.295  0.0723 -0.3505 -0.4656
 2629TIP3   OH229445   2.072   2.590   1.584 -0.4345 -0.1929 -0.1712
 2629TIP3    H129446   2.155   2.561   1.622  0.8078  1.8911 -1.1500
 2629TIP3    H229447   2.007   2.572   1.652  1.1373  0.0337  1.4725
 2630TIP3   OH229448   1.849   1.869   1.470  0.0386  0.3801 -0.4021
 2630TIP3    H129449   1.941   1.894   1.456 -0.0667  1.1930  0.2619
 2630TIP3    H229450   1.800   1.921   1.406  0.1667 -1.4413 -2.0660
 2631TIP3   OH229451   0.566   5.367   2.359 -0.4602 -0.0322  0.2529
 2631TIP3    H129452   0.533   5.422   2.430 -0.4853 -0.9398  0.9596
 2631TIP3    H229453   0.645   5.411   2.328  0.0996 -0.1388  1.5014
 2632TIP3   OH229454   5.488   0.854   0.319  0.0669  0.3127  0.0619
 2632TIP3    H129455   5.452   0.923   0.262 -1.1142  0.5071  0.9825
 2632TIP3    H229456   5.582   0.869   0.318  0.0146  0.7334 -1.2817
 2633TIP3   OH229457   1.938   1.268   7.384  0.1775  0.0964 -0.5991
 2633TIP3    H129458   1.859   1.252   7.333 -0.2703 -0.1095  0.1481
 2633TIP3    H229459   1.981   1.182   7.388  1.1468  0.4686 -2.1337
 2634TIP3   OH229460   4.801   4.969   1.712 -0.1341  0.4304 -0.2122
 2634TIP3    H129461   4.892   4.946   1.726 -0.6495 -2.7051 -1.0914
 2634TIP3    H229462   4.796   4.993   1.620 -0.2673  0.0037 -0.3203
 2635TIP3   OH229463   3.807   2.364   8.845  0.3042  0.9752 -1.1187
 2635TIP3    H129464   3.790   2.314   8.925  1.6263 -1.1532 -2.0539
 2635TIP3    H229465   3.846   2.446   8.875 -0.7523  0.9257  0.4652
 2636TIP3   OH229466   0.069   4.856   7.579  0.6574 -0.3763  0.1857
 2636TIP3    H129467   0.132   4.927   7.566  1.9743 -1.9044 -2.6376
 2636TIP3    H229468   0.118   4.788   7.626  0.5259 -0.8267 -0.3248
 2637TIP3   OH229469   6.199   1.746   2.384 -0.3293  1.0615 -0.5363
 2637TIP3    H129470   6.109   1.716   2.398 -0.3044  1.0291 -0.4441
 2637TIP3    H229471   6.192   1.841   2.378 -0.2927  1.1127  0.1044
 2638TIP3   OH229472   1.734   0.771   1.136 -0.2116 -0.0861  0.4768
 2638TIP3    H129473   1.727   0.804   1.046  0.3692 -3.2544 -0.8934
 2638TIP3    H229474   1.811   0.815   1.172 -0.1252  0.8443 -0.7764
 2639TIP3   OH229475   2.917   1.075   3.136 -0.1441  0.4059  0.5816
 2639TIP3    H129476   2.927   1.149   3.196  0.0630 -0.3137  1.4453
 2639TIP3    H229477   2.959   1.002   3.180  2.6103  0.4564 -1.6404
 2640TIP3   OH229478   5.315   3.709   1.328  0.0998  0.4204 -0.3511
 2640TIP3    H129479   5.249   3.763   1.284 -0.3551 -1.4579 -2.1154
 2640TIP3    H229480   5.272   3.679   1.408 -1.0958 -0.4345 -1.2725
 2641TIP3   OH229481   0.426   6.782   8.878 -0.5292  0.2267 -0.0957
 2641TIP3    H129482   0.414   6.694   8.915 -0.7425 -0.0167 -0.7214
 2641TIP3    H229483   0.405   6.771   8.785  2.3733  0.2553 -0.8589
 2642TIP3   OH229484   0.413   5.121   7.425  0.4807 -0.1871  0.6413
 2642TIP3    H129485   0.479   5.186   7.450 -0.2852  0.4182  1.1482
 2642TIP3    H229486   0.461   5.056   7.375  1.2283  0.9474 -0.1789
 2643TIP3   OH229487   2.005   2.702   7.525  0.8441 -0.4795  0.3370
 2643TIP3    H129488   1.954   2.772   7.484  1.1370  0.5987  1.7484
 2643TIP3    H229489   1.946   2.664   7.591 -0.4118 -3.6362 -2.2832
 2644TIP3   OH229490   1.752   6.067   2.146  0.3830  0.0733 -0.2058
 2644TIP3    H129491   1.758   6.009   2.070 -0.2116  0.4164 -0.5250
 2644TIP3    H229492   1.810   6.140   2.125  2.1643 -0.9903  0.7654
 2645TIP3   OH229493   6.410   3.667   8.583 -0.5752  0.2264 -0.2988
 2645TIP3    H129494   6.471   3.739   8.563 -1.0749  0.7555  0.0473
 2645TIP3    H229495   6.324   3.708   8.584 -0.8650 -0.3750 -0.0605
 2646TIP3   OH229496   0.194   1.544   1.610  0.1226 -0.2138 -0.3243
 2646TIP3    H129497   0.104   1.562   1.582 -0.9802 -3.3628  0.7910
 2646TIP3    H229498   0.187   1.527   1.704  2.0348  0.1329 -0.0775
 2647TIP3   OH229499   5.488   5.116   0.006 -0.3170 -0.5137  0.0248
 2647TIP3    H129500   5.517   5.187  -0.051  1.1524 -2.3716 -1.6935
 2647TIP3    H229501   5.544   5.123   0.084 -1.2846  1.1141  0.6151
 2648TIP3   OH229502   1.154   2.534   7.867  0.2044  0.0539  0.4612
 2648TIP3    H129503   1.178   2.575   7.783  1.3854  1.1892  1.3214
 2648TIP3    H229504   1.060   2.518   7.859  0.6724 -2.2779 -2.0836
 2649TIP3   OH229505   0.150   2.485   2.409 -0.7266  0.0429 -0.0712
 2649TIP3    H129506   0.112   2.524   2.331 -0.8039  1.6405  0.7297
 2649TIP3    H229507   0.075   2.453   2.459 -1.0825  2.6784  1.2337
 2650TIP3   OH229508   1.953   5.212   8.068  0.4009 -0.5128  0.0079
 2650TIP3    H129509   1.922   5.200   8.158 -2.6112 -3.2991 -1.2281
 2650TIP3    H229510   2.015   5.140   8.054 -1.5142 -2.0523 -0.9905
 2651TIP3   OH229511   3.162   2.146   8.017 -0.0330 -0.1551 -0.3410
 2651TIP3    H129512   3.098   2.217   8.010  0.3001  0.1118 -0.6889
 2651TIP3    H229513   3.124   2.075   7.965  0.7299  0.5774 -1.9634
 2652TIP3   OH229514   6.554   2.163   1.619 -0.4587  0.0400  0.1457
 2652TIP3    H129515   6.638   2.206   1.612 -0.4933 -0.0294 -0.7744
 2652TIP3    H229516   6.573   2.081   1.665 -0.5411  1.3708  2.7625
 2653TIP3   OH229517   0.915   4.690   0.393  0.6060 -0.0781 -0.0767
 2653TIP3    H129518   0.942   4.686   0.302  0.8136  0.2758 -0.0342
 2653TIP3    H229519   0.831   4.735   0.391  0.0410 -1.1027 -0.2003
 2654TIP3   OH229520   2.530   5.403   1.090  0.3527  0.1528 -0.2647
 2654TIP3    H129521   2.601   5.342   1.109  0.3670  0.2400 -0.0392
 2654TIP3    H229522   2.465   5.350   1.044 -0.7328 -0.6485  2.0577
 2655TIP3   OH229523   5.694   1.718   0.714  0.2191  0.3563  0.1855
 2655TIP3    H129524   5.778   1.700   0.673  0.4473  0.9451  0.3815
 2655TIP3    H229525   5.706   1.802   0.757 -0.5479  0.5659  0.0084
 2656TIP3   OH229526   3.494   3.435   8.832  0.5336  0.4323  0.0899
 2656TIP3    H129527   3.471   3.524   8.808  0.3204  1.1170  2.5835
 2656TIP3    H229528   3.474   3.383   8.754 -0.9608  2.2945 -0.8444
 2657TIP3   OH229529   3.286   1.859   0.715  0.1141  0.0352 -0.2333
 2657TIP3    H129530   3.341   1.859   0.636  0.1095  1.9030 -0.2884
 2657TIP3    H229531   3.328   1.924   0.772 -1.5992  0.9913  0.0105
 2658TIP3   OH229532   0.003   0.039   1.393 -0.1028 -0.0414  0.3510
 2658TIP3    H129533  -0.075   0.018   1.445  0.1409  0.0477  0.7544
 2658TIP3    H229534  -0.030   0.048   1.304 -0.5097 -0.2916  0.4725
 2659TIP3   OH229535   5.400   3.960   7.535 -0.0283  1.0637 -0.2214
 2659TIP3    H129536   5.337   3.902   7.576  2.9869 -2.0742  0.4035
 2659TIP3    H229537   5.363   3.979   7.449 -0.8004 -2.6761 -0.8754
 2660TIP3   OH229538   1.842   4.160   0.107 -0.6495 -0.5897 -0.2237
 2660TIP3    H129539   1.868   4.078   0.064 -0.4029 -1.3118  1.2263
 2660TIP3    H229540   1.749   4.149   0.126 -0.8639 -0.0882 -0.9367
 2661TIP3   OH229541   0.532   0.698   3.054 -0.3173  0.0255  0.6190
 2661TIP3    H129542   0.615   0.650   3.045 -0.0626  0.3164  1.3167
 2661TIP3    H229543   0.469   0.631   3.082 -0.2639 -0.1520  0.3167
 2662TIP3   OH229544   4.025   2.202   3.012  0.0817  0.7843 -0.1208
 2662TIP3    H129545   4.106   2.177   3.056 -0.0206 -0.7954 -0.7730
 2662TIP3    H229546   3.957   2.155   3.060 -0.0250 -1.0413 -1.9539
 2663TIP3   OH229547   4.336   3.831   1.419  0.0136  0.0715  0.4888
 2663TIP3    H129548   4.420   3.856   1.381  1.3779 -1.7104  2.1056
 2663TIP3    H229549   4.322   3.741   1.390 -0.0923 -0.4874  2.1389
 2664TIP3   OH229550   3.844   0.780   2.382  0.0778 -0.0252 -0.4038
 2664TIP3    H129551   3.934   0.749   2.390 -0.7514 -2.6859 -0.2816
 2664TIP3    H229552   3.801   0.713   2.329 -1.7599  1.3916 -0.7995
 2665TIP3   OH229553   2.285   4.916   1.216  0.0595 -0.0020 -0.2444
 2665TIP3    H129554   2.334   4.837   1.191 -0.8751  0.1707 -2.9310
 2665TIP3    H229555   2.198   4.902   1.180 -0.3460  1.9281 -0.0868
 2666TIP3   OH229556   1.437   3.349   0.909  0.1368 -0.0691  0.0768
 2666TIP3    H129557   1.367   3.408   0.936  0.4476  0.3166  0.0406
 2666TIP3    H229558   1.431   3.346   0.813 -1.3259 -1.8768  0.1738
 2667TIP3   OH229559   3.827   1.146   1.607  0.9010  0.2649  0.3247
 2667TIP3    H129560   3.858   1.234   1.628  0.8297  0.2277  0.5840
 2667TIP3    H229561   3.906   1.094   1.597  1.0399  0.7576 -1.6507
 2668TIP3   OH229562   3.345   0.631   0.908 -0.1886 -0.7981  0.3429
 2668TIP3    H129563   3.289   0.607   0.834 -1.0790  1.2430  0.2775
 2668TIP3    H229564   3.424   0.668   0.867 -1.2725  1.6576  0.3025
 2669TIP3   OH229565   2.375   1.548   0.091  0.0106  0.0905 -0.2140
 2669TIP3    H129566   2.402   1.456   0.085  0.6941  0.3144 -0.6804
 2669TIP3    H229567   2.455   1.598   0.075 -0.5430  0.7661 -0.9856
 2670TIP3   OH229568   0.687   2.580   1.677  0.4846 -0.5577  0.0522
 2670TIP3    H129569   0.621   2.615   1.737  2.1667  1.7340  0.7235
 2670TIP3    H229570   0.651   2.597   1.590 -0.0556  0.1110  0.3943
 2671TIP3   OH229571   6.489   1.001   0.786  0.6317  0.5288  0.6018
 2671TIP3    H129572   6.584   0.995   0.777  0.4334 -1.4711 -0.7110
 2671TIP3    H229573   6.467   0.942   0.858  0.2497 -0.5651 -0.3759
 2672TIP3   OH229574   5.186   2.937   0.456  0.2841 -0.1768  0.3562
 2672TIP3    H129575   5.151   2.857   0.497 -1.2108  0.8697  1.2108
 2672TIP3    H229576   5.118   3.003   0.470  1.6480  1.3682  0.0033
 2673TIP3   OH229577   1.991   1.609   0.990  0.3022  0.0677  0.4412
 2673TIP3    H129578   1.947   1.543   0.936  1.0797  0.6369 -0.9413
 2673TIP3    H229579   1.962   1.590   1.079 -2.0286 -0.1445 -0.2832
 2674TIP3   OH229580   4.180   5.725   1.104  0.8952 -0.4608  0.2118
 2674TIP3    H129581   4.135   5.746   1.186  0.6837 -0.1418  0.0155
 2674TIP3    H229582   4.264   5.687   1.132  0.8097 -0.3832  0.5766
 2675TIP3   OH229583   0.221   5.205   1.565  0.7313 -0.0263 -0.2390
 2675TIP3    H129584   0.221   5.234   1.474  1.2025 -1.1496 -0.6125
 2675TIP3    H229585   0.310   5.219   1.595  0.9681 -1.0542 -0.4283
 2676TIP3   OH229586   1.929   4.592   7.694  0.2433 -0.1096  0.5782
 2676TIP3    H129587   1.999   4.564   7.634  0.6347  1.5568  0.2121
 2676TIP3    H229588   1.950   4.547   7.776  1.9043  0.5292  0.5516
 2677TIP3   OH229589   2.185   4.833   8.292  0.2282 -0.1432  0.2564
 2677TIP3    H129590   2.126   4.763   8.319 -0.0397  0.4380  1.2282
 2677TIP3    H229591   2.272   4.793   8.291 -0.0413 -0.7320 -0.1591
 2678TIP3   OH229592   5.629   4.852   1.426 -0.1970 -0.0380  0.0632
 2678TIP3    H129593   5.612   4.796   1.502  0.4860 -0.9047 -0.4066
 2678TIP3    H229594   5.622   4.942   1.460 -1.7651 -0.3762  0.7270
 2679TIP3   OH229595   6.164   2.563   0.860  0.6424  0.0948  0.2900
 2679TIP3    H129596   6.134   2.654   0.854  1.8685  0.4668 -0.5422
 2679TIP3    H229597   6.085   2.513   0.881 -0.2985  1.1867 -0.5279
 2680TIP3   OH229598   0.012   0.598   1.832  0.0680 -0.5842 -0.4191
 2680TIP3    H129599  -0.080   0.614   1.855 -0.1485 -1.3470 -0.7078
 2680TIP3    H229600   0.039   0.678   1.786 -0.1863  0.0023  0.4322
 2681TIP3   OH229601   2.005   4.390   8.550 -0.0363 -0.3957  0.2085
 2681TIP3    H129602   2.096   4.364   8.539 -0.0047 -0.8016  1.3362
 2681TIP3    H229603   1.964   4.317   8.597 -1.2966 -0.8594 -1.4786
 2682TIP3   OH229604   2.578   1.067   2.541 -0.1542  0.0415 -0.7179
 2682TIP3    H129605   2.588   1.104   2.629  1.0338  1.1705 -1.2966
 2682TIP3    H229606   2.648   1.108   2.489 -1.8256  0.6994 -2.6055
 2683TIP3   OH229607   1.947   4.613   0.372  0.4144 -0.2901  0.3037
 2683TIP3    H129608   1.928   4.519   0.370  0.0618 -0.2407  0.9716
 2683TIP3    H229609   1.925   4.644   0.284 -1.3878 -0.4808  0.6500
 2684TIP3   OH229610   6.267   3.804   8.361  0.4078  0.0394 -0.4874
 2684TIP3    H129611   6.201   3.802   8.431  1.1115 -0.2072  0.1760
 2684TIP3    H229612   6.337   3.859   8.395  0.9851 -0.4890 -0.7871
 2685TIP3   OH229613   1.819   5.458   8.054 -0.3957  0.2544  0.5398
 2685TIP3    H129614   1.751   5.440   7.989  0.4123  1.3963 -0.6881
 2685TIP3    H229615   1.886   5.392   8.038  0.0090  0.8119 -0.1245
 2686TIP3   OH229616   0.578   5.962   0.549  0.2936  0.6430  0.6575
 2686TIP3    H129617   0.588   6.035   0.488  0.3710 -0.2338 -0.4266
 2686TIP3    H229618   0.612   5.995   0.632  2.1544  1.2238 -0.2660
 2687TIP3   OH229619   1.835   5.810   3.062  0.5920 -0.5637  0.0085
 2687TIP3    H129620   1.918   5.767   3.083  0.4695  0.6492  3.6124
 2687TIP3    H229621   1.853   5.856   2.980  3.9425  0.5631  1.1890
 2688TIP3   OH229622   2.365   4.037   2.918  0.0711 -0.3443  0.1593
 2688TIP3    H129623   2.296   4.095   2.884 -1.7878 -2.2054  0.6106
 2688TIP3    H229624   2.326   3.994   2.993  1.7419 -1.5090  0.4130
 2689TIP3   OH229625   0.046   2.056   1.000  0.1057 -0.5736 -0.9940
 2689TIP3    H129626   0.052   2.069   0.906 -0.2075 -1.8647 -1.2222
 2689TIP3    H229627  -0.036   2.008   1.012 -0.4706  0.6204  0.0724
 2690TIP3   OH229628   0.942   1.370   0.395 -0.2860  0.7577 -0.3635
 2690TIP3    H129629   0.896   1.386   0.312 -0.1967  0.7565 -0.4135
 2690TIP3    H229630   0.877   1.391   0.462 -0.0978  1.5628 -0.4237
 2691TIP3   OH229631   3.747   0.437   0.815  0.6748 -0.3471 -0.0085
 2691TIP3    H129632   3.674   0.472   0.763 -0.0011 -1.0356  0.4494
 2691TIP3    H229633   3.751   0.345   0.790  0.0940 -0.7910  1.3987
 2692TIP3   OH229634   1.299   1.630   1.099  0.5556  0.0508 -0.3882
 2692TIP3    H129635   1.353   1.636   1.021  1.2277  0.5048  0.1032
 2692TIP3    H229636   1.338   1.692   1.161  1.3173 -1.8027  1.0777
 2693TIP3   OH229637   5.897   4.093   3.620 -0.1586  0.2731  0.0506
 2693TIP3    H129638   5.948   4.170   3.643 -0.0721  0.7298 -1.5862
 2693TIP3    H229639   5.935   4.022   3.673  2.0269  0.6470 -0.9216
 2694TIP3   OH229640   4.915   2.228   8.441 -0.5499  0.4576 -0.1115
 2694TIP3    H129641   5.005   2.244   8.472  0.2192 -1.4811 -1.1641
 2694TIP3    H229642   4.882   2.315   8.419  0.4246  1.4152  1.8895
 2695TIP3   OH229643   2.206   5.952   8.361 -0.1010  0.5160  0.1812
 2695TIP3    H129644   2.116   5.940   8.390 -0.1414  0.0388 -0.1396
 2695TIP3    H229645   2.212   6.045   8.340 -0.4759  0.5777  0.3459
 2696TIP3   OH229646   4.716   6.231   7.973  0.4791 -0.4430 -0.0929
 2696TIP3    H129647   4.783   6.292   8.004 -0.9689  1.1485 -0.0014
 2696TIP3    H229648   4.725   6.232   7.877  1.4640 -1.3251 -0.0386
 2697TIP3   OH229649   4.595   6.463   0.505 -0.4642  0.1113 -0.0049
 2697TIP3    H129650   4.633   6.536   0.457  0.1355  0.7739  1.4006
 2697TIP3    H229651   4.668   6.404   0.523 -1.1234 -1.4981 -2.1154
 2698TIP3   OH229652   6.774   5.051   7.718 -0.0373  0.3921 -0.7204
 2698TIP3    H129653   6.797   4.976   7.662 -2.1968 -1.5161  0.7701
 2698TIP3    H229654   6.852   5.107   7.715  1.8148 -2.0144 -1.7227
 2699TIP3   OH229655   6.112   3.617   1.298  0.8640 -0.6473 -0.5835
 2699TIP3    H129656   6.136   3.608   1.390  1.2509 -0.4145 -0.6569
 2699TIP3    H229657   6.035   3.561   1.287  1.6980 -1.8626 -0.4486
 2700TIP3   OH229658   4.760   5.414   1.249 -0.1889 -0.5782 -0.9127
 2700TIP3    H129659   4.694   5.422   1.318 -0.0937  0.2491 -0.8987
 2700TIP3    H229660   4.724   5.463   1.175  0.2404 -0.4230 -1.0244
 2701TIP3   OH229661   1.229   2.500   1.704 -0.2764  0.4311 -0.1156
 2701TIP3    H129662   1.203   2.412   1.674 -2.1668 -1.0166  4.7684
 2701TIP3    H229663   1.156   2.556   1.681 -0.5052 -0.0100 -0.4814
 2702TIP3   OH229664   0.964   0.051   2.806 -0.1208  0.3818 -0.7514
 2702TIP3    H129665   0.874   0.080   2.816 -0.1064  0.4440 -0.7999
 2702TIP3    H229666   0.986   0.010   2.889 -0.2671  0.1670 -0.8198
 2703TIP3   OH229667   4.367   3.135   0.296  0.1206 -0.1988 -0.3738
 2703TIP3    H129668   4.439   3.073   0.282 -1.2073 -1.9223 -0.0097
 2703TIP3    H229669   4.312   3.091   0.361 -0.7104  1.5619  0.1501
 2704TIP3   OH229670   1.964   1.274   3.235  0.0928 -0.4308  0.0834
 2704TIP3    H129671   1.934   1.339   3.172  0.4005 -1.4071 -1.1077
 2704TIP3    H229672   1.886   1.226   3.261  0.0581 -0.4349 -0.0311
 2705TIP3   OH229673   6.603   3.449   7.855 -0.0302 -0.2717 -0.2615
 2705TIP3    H129674   6.548   3.383   7.812 -1.8503  1.4152 -0.7053
 2705TIP3    H229675   6.569   3.533   7.823 -0.0074  1.0127  2.7357
 2706TIP3   OH229676   3.681   1.297   2.074  0.5231  0.1158 -0.4258
 2706TIP3    H129677   3.645   1.383   2.054  0.6394 -0.3385 -2.8783
 2706TIP3    H229678   3.606   1.246   2.105 -0.1770  0.3153 -1.7066
 2707TIP3   OH229679   0.681   2.681   2.080 -0.1353  0.0855 -0.2042
 2707TIP3    H129680   0.623   2.691   2.155 -0.0515  1.8341 -0.3224
 2707TIP3    H229681   0.623   2.685   2.004 -0.0064  0.3832 -0.2868
 2708TIP3   OH229682   6.446   6.707   8.501  0.1508 -0.1056  0.2637
 2708TIP3    H129683   6.470   6.708   8.408 -0.3384  0.1147  0.1366
 2708TIP3    H229684   6.498   6.636   8.538  0.6190  0.0359 -0.1052
 2709TIP3   OH229685   1.178   0.069   3.048 -0.1985 -0.2773  0.1623
 2709TIP3    H129686   1.165   0.070   3.143  1.1845 -0.6361  0.3670
 2709TIP3    H229687   1.151  -0.020   3.022  0.3806 -0.5157  0.3659
 2710TIP3   OH229688   4.119   4.343   2.691  0.1814  0.6520 -0.9609
 2710TIP3    H129689   4.108   4.258   2.733 -0.8353  0.4671 -1.5608
 2710TIP3    H229690   4.188   4.386   2.742 -1.9466  1.0338  1.8795
 2711TIP3   OH229691   5.867   4.446   8.541  0.2605  0.5730  0.1409
 2711TIP3    H129692   5.915   4.521   8.506  0.9235 -0.3163 -0.9550
 2711TIP3    H229693   5.851   4.467   8.632  1.6034  1.4736  0.1925
 2712TIP3   OH229694   3.809   0.062   1.210  0.1301 -0.1866 -0.2803
 2712TIP3    H129695   3.849   0.104   1.134 -0.5067  0.9454 -0.0106
 2712TIP3    H229696   3.718   0.047   1.184 -0.0113 -0.0767  0.1464
 2713TIP3   OH229697   6.728   2.458   1.128 -0.6060  0.1075 -0.3701
 2713TIP3    H129698   6.788   2.384   1.115 -1.2378 -0.3753 -0.5506
 2713TIP3    H229699   6.717   2.464   1.223 -0.0366  0.3947 -0.3165
 2714TIP3   OH229700   3.802   0.671   1.981  0.4057  0.2863 -0.4934
 2714TIP3    H129701   3.708   0.679   1.995  0.4997  1.0157 -0.2387
 2714TIP3    H229702   3.835   0.636   2.064  0.4576  0.7909 -0.2994
 2715TIP3   OH229703   3.849   1.327   2.406 -0.2495 -0.0274  0.1501
 2715TIP3    H129704   3.800   1.404   2.377  0.2820  0.1439 -0.2954
 2715TIP3    H229705   3.783   1.273   2.450 -0.8016  0.2948 -0.2594
 2716TIP3   OH229706   3.028   3.745   0.263 -0.3120 -0.0362  0.2007
 2716TIP3    H129707   3.075   3.796   0.330  1.0159 -0.4290 -0.3996
 2716TIP3    H229708   3.054   3.655   0.281 -0.2586 -0.1792 -0.5966
 2717TIP3   OH229709   6.170   2.953   2.794 -0.1468 -0.4378 -0.1005
 2717TIP3    H129710   6.102   2.886   2.784 -1.3424  0.7161  0.0354
 2717TIP3    H229711   6.167   2.976   2.887 -0.5890  0.6459 -0.3686
 2718TIP3   OH229712   3.437   4.181   7.850  0.7525 -0.3184  0.3251
 2718TIP3    H129713   3.468   4.207   7.937  1.3102  0.7389 -0.1689
 2718TIP3    H229714   3.377   4.251   7.825  0.8221 -0.4674 -0.2593
 2719TIP3   OH229715   1.835   5.531   7.281 -0.2502  0.9153 -0.4100
 2719TIP3    H129716   1.807   5.618   7.308 -1.6444 -0.1230  1.8961
 2719TIP3    H229717   1.868   5.491   7.362  1.3113 -0.3758 -1.6190
 2720TIP3   OH229718   0.747   5.977   0.782 -0.5678 -0.5939 -0.3634
 2720TIP3    H129719   0.804   5.901   0.785  1.8601  1.1290  2.0205
 2720TIP3    H229720   0.726   5.995   0.874  0.5510  2.5978 -0.5815
 2721TIP3   OH229721   3.051   0.393   3.862 -0.1577 -0.6131 -0.5630
 2721TIP3    H129722   3.130   0.395   3.915 -0.8222  0.8834  0.4248
 2721TIP3    H229723   3.002   0.470   3.888 -1.9393 -1.4744 -1.1895
 2722TIP3   OH229724   0.009   1.305   2.517 -0.4854  0.0335 -0.1172
 2722TIP3    H129725   0.017   1.216   2.553  0.0687  0.0333 -0.2189
 2722TIP3    H229726  -0.061   1.298   2.452 -0.3802 -0.3591 -0.1949
 2723TIP3   OH229727   0.091   5.009   1.103 -0.3387  0.5409 -0.3710
 2723TIP3    H129728   0.173   5.040   1.140  0.8908 -0.6964 -1.8913
 2723TIP3    H229729   0.082   4.919   1.135 -0.7189  0.4188 -0.7971
 2724TIP3   OH229730   4.975   0.560   8.355 -0.0219  0.1035 -0.1233
 2724TIP3    H129731   4.965   0.641   8.404  0.2775 -1.0492  1.9821
 2724TIP3    H229732   5.066   0.560   8.326 -0.5215  1.3503 -1.7732
 2725TIP3   OH229733   3.210   1.563   7.604  0.7080  0.1721 -0.3204
 2725TIP3    H129734   3.245   1.514   7.529  0.5594  0.3828 -0.5298
 2725TIP3    H229735   3.233   1.654   7.586  3.6040 -0.0822  1.4977
 2726TIP3   OH229736   2.176   5.154   2.177  0.1999 -0.4124  0.0102
 2726TIP3    H129737   2.211   5.234   2.215 -1.4745  0.0256  0.7210
 2726TIP3    H229738   2.205   5.157   2.085  0.8058  0.6040  0.2122
 2727TIP3   OH229739   4.521   0.046   1.165  0.7637  0.3244 -0.5431
 2727TIP3    H129740   4.505   0.016   1.255  1.3179 -2.8928 -1.4094
 2727TIP3    H229741   4.447   0.104   1.146 -2.0759 -2.6861  0.4187
 2728TIP3   OH229742   2.395   4.453   1.836  0.2106 -0.6891  0.0182
 2728TIP3    H129743   2.375   4.441   1.743 -1.6025  1.7095  0.0037
 2728TIP3    H229744   2.469   4.514   1.837 -1.0287  0.9087  0.0527
 2729TIP3   OH229745   5.860   1.477   0.044 -0.1899 -0.5537  0.6210
 2729TIP3    H129746   5.832   1.533   0.117  1.3565 -0.1793  0.9815
 2729TIP3    H229747   5.804   1.400   0.051  0.0100 -0.6033  2.3364
 2730TIP3   OH229748   4.787   0.928   8.137 -0.1092  0.2493  0.3316
 2730TIP3    H129749   4.862   0.960   8.088 -0.6513  0.7931 -0.1588
 2730TIP3    H229750   4.752   0.855   8.085  0.0806 -0.0108  0.5643
 2731TIP3   OH229751   5.666   1.247   7.711  0.1528 -0.2252  0.1087
 2731TIP3    H129752   5.641   1.180   7.648 -2.6853  0.5991  0.2092
 2731TIP3    H229753   5.738   1.294   7.669 -1.3373  0.0174 -2.3520
 2732TIP3   OH229754   6.662   5.657   2.308 -0.0204 -0.0629  0.0661
 2732TIP3    H129755   6.643   5.750   2.313  0.7173  0.0533  0.9175
 2732TIP3    H229756   6.579   5.617   2.282 -0.7802  0.6515  1.3301
 2733TIP3   OH229757   5.925   2.580   0.282 -0.5527 -0.1509  0.1742
 2733TIP3    H129758   5.858   2.648   0.275 -0.3016  0.1364  0.5556
 2733TIP3    H229759   5.966   2.595   0.367 -0.7413 -1.0014  0.4247
 2734TIP3   OH229760   1.711   1.171   0.729 -0.1633  0.4244  0.1564
 2734TIP3    H129761   1.782   1.142   0.786 -0.1640  1.4573  0.7101
 2734TIP3    H229762   1.638   1.187   0.788 -1.2905 -1.8057 -0.5381
 2735TIP3   OH229763   1.526   0.002   1.200 -0.2838 -0.6234  0.3809
 2735TIP3    H129764   1.467   0.070   1.167  2.3754  1.6437 -0.1258
 2735TIP3    H229765   1.533  -0.061   1.128 -1.0634 -0.2428 -0.0395
 2736TIP3   OH229766   3.792   2.449   2.375  0.6104  0.5305 -0.1914
 2736TIP3    H129767   3.831   2.425   2.291 -0.5379  0.9075 -0.8444
 2736TIP3    H229768   3.699   2.460   2.357  0.1821 -0.3168  1.3320
 2737TIP3   OH229769   4.118   1.930   8.560 -0.5101 -0.5923 -0.1945
 2737TIP3    H129770   4.130   1.837   8.540  0.4938 -0.8322  1.3914
 2737TIP3    H229771   4.024   1.940   8.576 -0.5516 -1.4377  0.1060
 2738TIP3   OH229772   6.457   3.306   0.042 -0.5809  0.0032 -0.5936
 2738TIP3    H129773   6.432   3.251  -0.033  1.1931 -0.7993 -0.6505
 2738TIP3    H229774   6.482   3.390   0.003  0.2661 -0.3882 -0.9305
 2739TIP3   OH229775   0.487   6.471   0.966 -0.2254 -0.1084 -0.9162
 2739TIP3    H129776   0.433   6.393   0.982  0.3382 -0.2560  0.3929
 2739TIP3    H229777   0.425   6.538   0.938 -0.9841 -0.4848 -0.1664
 2740TIP3   OH229778   3.426   3.971   8.312 -0.0461  0.2799  0.6984
 2740TIP3    H129779   3.345   3.923   8.330 -0.0853 -1.1780 -2.6688
 2740TIP3    H229780   3.452   3.943   8.224  3.5810  1.4904  1.2013
 2741TIP3   OH229781   2.881   5.780   1.770 -0.0878 -0.5932  0.1793
 2741TIP3    H129782   2.810   5.819   1.821 -0.6138 -1.2291 -0.0399
 2741TIP3    H229783   2.961   5.817   1.806 -0.5782  1.1532 -0.4341
 2742TIP3   OH229784   4.454   3.649   1.730 -0.3848  0.1377  0.8159
 2742TIP3    H129785   4.484   3.607   1.811  0.3781 -3.2574 -1.0418
 2742TIP3    H229786   4.534   3.665   1.680 -1.0127 -0.7020 -0.5180
 2743TIP3   OH229787   4.811   0.835   0.981  0.9918 -0.1884  0.4622
 2743TIP3    H129788   4.793   0.896   1.052  3.4735  1.4482 -0.1827
 2743TIP3    H229789   4.838   0.754   1.024 -0.7374 -0.3585  1.3242
 2744TIP3   OH229790   1.534   6.376   2.353  0.2726  0.1685 -0.1353
 2744TIP3    H129791   1.558   6.429   2.277 -0.7668 -0.0753 -0.6459
 2744TIP3    H229792   1.617   6.341   2.385  0.8319  1.0769 -0.5537
 2745TIP3   OH229793   0.679   4.487   7.926 -0.2515  0.0614 -0.3973
 2745TIP3    H129794   0.751   4.460   7.983 -1.5623  0.6208  1.6292
 2745TIP3    H229795   0.722   4.538   7.857  1.4507 -1.0842 -0.2617
 2746TIP3   OH229796   3.317   6.740   7.471 -0.4148  0.3812 -0.2728
 2746TIP3    H129797   3.230   6.716   7.504 -0.1474  0.8660  0.8598
 2746TIP3    H229798   3.361   6.777   7.548  0.1902  1.7500 -1.2418
 2747TIP3   OH229799   5.274   6.683   7.904  0.0652  0.0289  0.0812
 2747TIP3    H129800   5.356   6.682   7.954  0.4988  0.4498 -0.6030
 2747TIP3    H229801   5.261   6.775   7.882 -0.4801 -0.0648  0.0046
 2748TIP3   OH229802   3.089   1.479   8.529  0.0227 -0.1697  0.0971
 2748TIP3    H129803   3.080   1.439   8.615  0.6693 -0.7527 -0.1031
 2748TIP3    H229804   2.999   1.494   8.500 -0.2924 -2.7029 -0.3857
 2749TIP3   OH229805   6.070   4.813   0.878 -0.3899  0.4089 -0.1522
 2749TIP3    H129806   6.154   4.804   0.833 -0.5760  1.8533 -0.8672
 2749TIP3    H229807   6.080   4.764   0.959  0.6144 -0.6866 -0.9170
 2750TIP3   OH229808   2.024   4.158   2.438  0.1715 -0.0806  0.4448
 2750TIP3    H129809   1.934   4.124   2.438  0.5282 -1.3027 -2.2701
 2750TIP3    H229810   2.078   4.080   2.426  1.5282  0.7716  0.8870
 2751TIP3   OH229811   4.968   0.295   0.623  1.1303  0.3677 -0.1534
 2751TIP3    H129812   5.043   0.354   0.613  1.0622  0.4432 -0.2247
 2751TIP3    H229813   4.915   0.311   0.545  0.4971  1.0933  0.4145
 2752TIP3   OH229814   3.434   1.777   7.647  0.1269 -0.2165  0.2885
 2752TIP3    H129815   3.468   1.851   7.599 -0.2334 -0.0829  0.2337
 2752TIP3    H229816   3.472   1.700   7.605 -1.1814 -0.1766 -1.0506
 2753TIP3   OH229817   5.735   6.156   0.866  0.2417 -0.4335  0.1838
 2753TIP3    H129818   5.668   6.222   0.850 -0.1628 -1.0244 -0.5976
 2753TIP3    H229819   5.817   6.205   0.870 -0.4223  0.7349  3.9893
 2754TIP3   OH229820   4.047   3.751   1.996 -0.0698 -0.1708 -0.0187
 2754TIP3    H129821   4.101   3.830   1.996  3.0345 -1.9207 -4.0632
 2754TIP3    H229822   4.081   3.699   2.070  1.0165  0.4794 -0.0339
 2755TIP3   OH229823   6.496   3.023   3.058  0.2789 -0.3974 -0.3461
 2755TIP3    H129824   6.542   2.951   3.102 -1.4381 -1.0195  0.5733
 2755TIP3    H229825   6.549   3.043   2.981  2.4897 -0.4746  1.0609
 2756TIP3   OH229826   5.290   4.075   1.550 -0.3619 -0.7153 -0.1822
 2756TIP3    H129827   5.198   4.049   1.550 -0.4819 -0.4273  1.5005
 2756TIP3    H229828   5.330   4.024   1.621  0.4496  0.1820  0.0309
 2757TIP3   OH229829   2.340   6.713   3.209 -0.2157  0.2477  0.4010
 2757TIP3    H129830   2.278   6.784   3.194 -0.6062 -0.0184  0.7317
 2757TIP3    H229831   2.285   6.635   3.222  0.1908 -0.0256  0.5139
 2758TIP3   OH229832   1.626   3.666   8.481 -0.0690  0.3182  0.3188
 2758TIP3    H129833   1.561   3.611   8.437  1.4689 -1.7685  0.5662
 2758TIP3    H229834   1.610   3.651   8.574  1.1495 -0.7195  0.3783
 2759TIP3   OH229835   3.834   4.410   2.884 -0.9728 -0.3352 -0.1991
 2759TIP3    H129836   3.746   4.448   2.884 -1.0969 -0.5876  0.6857
 2759TIP3    H229837   3.891   4.481   2.914 -0.9518 -0.3180 -0.2812
 2760TIP3   OH229838   4.382   1.115   7.612 -0.3858 -0.0619  0.4345
 2760TIP3    H129839   4.379   1.183   7.546  3.4871 -0.4407 -0.3980
 2760TIP3    H229840   4.361   1.034   7.565 -0.3306  0.0057  0.2942
 2761TIP3   OH229841   5.783   6.466   2.361  0.1476 -0.1618 -0.6230
 2761TIP3    H129842   5.711   6.443   2.301 -0.7541  1.7926 -0.3869
 2761TIP3    H229843   5.830   6.536   2.315  1.2944 -0.7276 -0.3230
 2762TIP3   OH229844   4.179   4.974   0.990  0.6637 -0.2686 -0.1727
 2762TIP3    H129845   4.099   4.959   1.040 -0.0841  0.7397 -1.0161
 2762TIP3    H229846   4.191   5.069   0.991  1.1189 -0.2960 -1.1386
 2763TIP3   OH229847   4.527   2.643   2.652 -0.3124  0.9293  0.1843
 2763TIP3    H129848   4.462   2.711   2.669  0.7543  2.4430 -1.3800
 2763TIP3    H229849   4.492   2.594   2.578 -1.4268 -0.7759  1.7700
 2764TIP3   OH229850   0.854   2.720   7.339  0.3314  0.7892  0.1418
 2764TIP3    H129851   0.890   2.800   7.376  0.6421  0.0238  1.5881
 2764TIP3    H229852   0.907   2.703   7.261 -0.0560  2.2225 -0.4676
 2765TIP3   OH229853   4.290   4.751   1.122  0.2392 -0.0822 -0.0605
 2765TIP3    H129854   4.271   4.804   1.044  0.5147 -0.5082 -0.4262
 2765TIP3    H229855   4.385   4.753   1.128  0.2303 -0.2722  0.1122
 2766TIP3   OH229856   3.128   4.468   1.698 -0.2420 -0.1341 -0.3928
 2766TIP3    H129857   3.118   4.388   1.647  0.0285  0.2078 -0.9987
 2766TIP3    H229858   3.221   4.491   1.690 -0.3095  0.2224 -0.1992
 2767TIP3   OH229859   0.400   1.116   2.110 -0.0975  0.1805  0.0641
 2767TIP3    H129860   0.397   1.132   2.205 -0.7489  0.2071  0.0428
 2767TIP3    H229861   0.388   1.203   2.071  0.9599  0.2846 -0.0463
 2768TIP3   OH229862   4.145   2.505   2.006  0.5589  0.1139 -0.0630
 2768TIP3    H129863   4.082   2.471   1.943 -0.9519  1.0126  0.9145
 2768TIP3    H229864   4.168   2.592   1.973 -1.5561  1.3186  1.4348
 2769TIP3   OH229865   5.954   3.093   2.246 -0.2136  0.4805  0.5799
 2769TIP3    H129866   6.029   3.036   2.261 -0.9444 -0.6990 -0.0579
 2769TIP3    H229867   5.886   3.034   2.213 -1.9759  1.1855  2.7048
 2770TIP3   OH229868   3.808   1.036   1.278  0.3081  0.3310  0.1220
 2770TIP3    H129869   3.847   1.087   1.348 -0.7148  1.1358  0.1313
 2770TIP3    H229870   3.754   0.970   1.323  0.8502 -0.1413  0.0959
 2771TIP3   OH229871   6.001   3.464   8.173 -0.3467  0.0445 -0.4588
 2771TIP3    H129872   6.079   3.518   8.161 -1.3036  1.8604  1.0778
 2771TIP3    H229873   5.960   3.461   8.087  1.0706 -0.4485 -1.1501
 2772TIP3   OH229874   5.211   4.754   2.767 -0.0179 -0.0600 -0.1754
 2772TIP3    H129875   5.184   4.839   2.730  0.4292  0.4406  0.6086
 2772TIP3    H229876   5.146   4.692   2.736 -1.7591  0.9923  1.1636
 2773TIP3   OH229877   4.566   5.547   7.951  0.1734  0.3836 -0.7504
 2773TIP3    H129878   4.542   5.555   7.859 -0.3663  1.7569 -0.5125
 2773TIP3    H229879   4.484   5.557   7.999  0.4062 -0.6273 -0.1279
 2774TIP3   OH229880   0.037   2.999   3.336 -0.1831  0.0069 -0.0214
 2774TIP3    H129881  -0.019   2.934   3.294 -0.7867  0.1542  0.5451
 2774TIP3    H229882   0.085   2.949   3.402  1.1245 -0.3220 -1.1774
 2775TIP3   OH229883   1.956   4.814   0.157 -0.2639  0.0773 -0.0627
 2775TIP3    H129884   1.905   4.816   0.076  0.3300  0.7246 -0.4284
 2775TIP3    H229885   1.918   4.883   0.211  0.1659  0.5070 -0.3040
 2776TIP3   OH229886   0.266   1.922   0.010 -0.1143  0.3216  0.5824
 2776TIP3    H129887   0.334   1.872  -0.036  0.9773 -0.9804  3.4077
 2776TIP3    H229888   0.303   1.939   0.096 -2.9582  0.5738  1.8611
 2777TIP3   OH229889   5.487   6.372   7.530 -0.1376 -0.4684 -0.1388
 2777TIP3    H129890   5.574   6.412   7.530 -0.3588  0.0450  1.3792
 2777TIP3    H229891   5.462   6.368   7.622 -1.4882 -1.1335 -0.5144
 2778TIP3   OH229892   1.686   3.801   1.972 -0.4094 -0.5603  0.2035
 2778TIP3    H129893   1.753   3.742   1.937  0.8164  1.7669 -1.5995
 2778TIP3    H229894   1.603   3.766   1.939  0.1908 -1.7598 -0.0681
 2779TIP3   OH229895   1.197   6.433   2.705  0.2824 -0.4361 -0.1381
 2779TIP3    H129896   1.243   6.350   2.689  0.2688 -0.6392  0.8248
 2779TIP3    H229897   1.249   6.476   2.773  1.5432  1.3661 -2.0936
 2780TIP3   OH229898   1.314   6.741   8.669 -0.5985 -0.3789  0.2216
 2780TIP3    H129899   1.334   6.760   8.578  1.3846 -0.5573  0.5654
 2780TIP3    H229900   1.312   6.827   8.712  0.3692 -0.3885  0.3213
 2781TIP3   OH229901   5.752   1.704   8.130 -0.2544 -0.3026  0.5036
 2781TIP3    H129902   5.813   1.777   8.137 -0.6542  0.1505 -0.5519
 2781TIP3    H229903   5.765   1.670   8.041 -1.0798 -0.5961  0.4814
 2782TIP3   OH229904   6.032   1.788   3.194  0.7301 -0.4950  0.8013
 2782TIP3    H129905   6.123   1.812   3.210  0.7170 -0.4563  0.8187
 2782TIP3    H229906   5.983   1.834   3.261  0.4256  1.5830 -0.7495
 2783TIP3   OH229907   4.301   5.003   2.834  0.0026  0.5759  0.5186
 2783TIP3    H129908   4.275   5.044   2.916 -2.4469 -1.3918  0.8423
 2783TIP3    H229909   4.313   4.911   2.855 -1.9913 -0.2506 -1.4969
 2784TIP3   OH229910   3.804   6.014   0.119 -0.3908 -0.2720 -0.2681
 2784TIP3    H129911   3.842   6.057   0.043 -1.1851  1.0562  0.0450
 2784TIP3    H229912   3.848   6.054   0.194 -1.1625  0.0369  0.0335
 2785TIP3   OH229913   4.082   1.258   2.545  0.4102 -0.3990 -0.1160
 2785TIP3    H129914   4.159   1.272   2.490 -0.3969  1.3433 -0.8885
 2785TIP3    H229915   4.009   1.296   2.495 -0.5784 -0.0186  1.5212
 2786TIP3   OH229916   5.663   6.565   2.108  0.0407  0.1252  0.3099
 2786TIP3    H129917   5.723   6.639   2.096  0.3360 -0.0156  0.8827
 2786TIP3    H229918   5.576   6.602   2.090  0.0284  0.9828  1.9542
 2787TIP3   OH229919   6.329   2.755   2.960 -0.0717 -0.3464  0.0436
 2787TIP3    H129920   6.248   2.798   2.986 -0.7305 -1.6178  0.1707
 2787TIP3    H229921   6.368   2.725   3.042  1.5352  1.9005  0.1773
 2788TIP3   OH229922   1.678   4.623   8.276 -0.0871  0.4083 -0.0706
 2788TIP3    H129923   1.608   4.636   8.213 -0.7658  1.4312  0.8533
 2788TIP3    H229924   1.654   4.545   8.324  0.1452 -0.0512 -0.6906
 2789TIP3   OH229925   0.671   5.535   0.191 -0.2656  0.0907  0.7096
 2789TIP3    H129926   0.738   5.510   0.255 -1.1757 -2.3097  0.8109
 2789TIP3    H229927   0.721   5.566   0.115  0.8502  1.6733  2.0034
 2790TIP3   OH229928   4.032   1.349   1.451 -0.7925 -0.0659  0.0876
 2790TIP3    H129929   4.014   1.315   1.364  0.1682  1.9152 -0.9587
 2790TIP3    H229930   4.128   1.346   1.459 -0.7557  1.2452  0.3991
 2791TIP3   OH229931   0.585   1.168   0.313 -0.6567  0.3639 -0.4427
 2791TIP3    H129932   0.652   1.111   0.352 -0.6030  0.2199 -0.7422
 2791TIP3    H229933   0.603   1.165   0.219 -0.7852  0.7095 -0.4798
 2792TIP3   OH229934   3.461   2.140   7.995 -0.6076 -0.5331 -0.1618
 2792TIP3    H129935   3.365   2.139   7.991 -0.6449  1.5060 -0.6515
 2792TIP3    H229936   3.488   2.076   7.929 -1.6166 -0.6711 -0.4623
 2793TIP3   OH229937   6.576   1.032   7.933 -0.0057  0.9079 -0.1078
 2793TIP3    H129938   6.601   0.975   7.860  1.1303  1.1658  0.0635
 2793TIP3    H229939   6.627   1.112   7.921  1.6533  0.2594  1.9464
 2794TIP3   OH229940   0.300   3.265   2.221 -0.2391  0.1744  0.4145
 2794TIP3    H129941   0.386   3.252   2.180  0.0173  3.6979 -0.4965
 2794TIP3    H229942   0.242   3.204   2.175  1.4971 -1.3141  0.1084
 2795TIP3   OH229943   5.616   1.580   2.388  0.4377 -1.0239 -0.2806
 2795TIP3    H129944   5.523   1.569   2.373  0.2270  2.5145 -2.7409
 2795TIP3    H229945   5.655   1.497   2.363 -1.8024 -1.5773 -2.2320
 2796TIP3   OH229946   6.703   4.115   7.854  0.1564 -0.4455  0.2348
 2796TIP3    H129947   6.613   4.085   7.854  0.0670 -0.3270  2.4832
 2796TIP3    H229948   6.702   4.196   7.804 -0.7697 -0.9363 -0.5699
 2797TIP3   OH229949   4.292   2.139   8.325  0.5610  0.6522  0.3910
 2797TIP3    H129950   4.223   2.077   8.348 -1.3306  2.0416 -1.2032
 2797TIP3    H229951   4.363   2.085   8.290  0.1499 -0.7736  1.6257
 2798TIP3   OH229952   1.193   1.670   1.411 -0.5600 -0.4816 -0.8952
 2798TIP3    H129953   1.208   1.627   1.495  1.2893 -0.6876 -1.2720
 2798TIP3    H229954   1.266   1.732   1.403 -1.2284  0.1974 -1.9317
 2799TIP3   OH229955   0.872   3.990   7.909  0.0239 -0.2902 -0.1516
 2799TIP3    H129956   0.914   4.072   7.885 -0.5157 -0.0537 -0.2926
 2799TIP3    H229957   0.901   3.974   7.999 -0.7441  0.6366  0.2824
 2800TIP3   OH229958   2.523   5.321   1.593 -0.5720 -0.2053 -0.1843
 2800TIP3    H129959   2.505   5.355   1.505 -0.2477  2.2825  0.6523
 2800TIP3    H229960   2.617   5.303   1.593 -0.8331 -1.7403 -0.7953
 2801TIP3   OH229961   2.959   2.035   7.751  0.7343  0.1976 -0.2969
 2801TIP3    H129962   2.907   2.084   7.814 -0.2199  0.6741 -1.4260
 2801TIP3    H229963   2.896   1.984   7.701  0.9776  2.4636 -3.1963
 2802TIP3   OH229964   2.823   0.645   1.897 -0.8593  0.1477 -0.5403
 2802TIP3    H129965   2.837   0.732   1.858  0.5584  1.4441  2.4885
 2802TIP3    H229966   2.907   0.623   1.936 -1.8789 -1.4231  0.8992
 2803TIP3   OH229967   3.211   1.809   7.804 -0.4214  0.4478 -0.3270
 2803TIP3    H129968   3.299   1.785   7.775  0.0757 -0.3427  1.6522
 2803TIP3    H229969   3.167   1.840   7.725  0.9780 -1.0574 -1.7781
 2804TIP3   OH229970   6.438   3.593   2.566 -0.4901 -0.2345  0.2743
 2804TIP3    H129971   6.414   3.648   2.640  2.6754  1.4542  0.1929
 2804TIP3    H229972   6.500   3.530   2.602  1.5025  0.9432 -0.9229
 2805TIP3   OH229973   1.164   2.341   3.465 -0.0478 -0.0375  0.1325
 2805TIP3    H129974   1.206   2.423   3.492 -1.7853  0.7946  0.5231
 2805TIP3    H229975   1.236   2.282   3.444  1.2585  1.6381 -0.3038
 2806TIP3   OH229976   4.777   0.174   3.555 -0.2188  1.0912 -0.1030
 2806TIP3    H129977   4.846   0.146   3.495 -0.7715 -0.3217 -0.1026
 2806TIP3    H229978   4.712   0.104   3.553 -0.2190  0.9428  2.2067
 2807TIP3   OH229979   1.866   1.572   1.523  0.4270 -0.5453  0.6895
 2807TIP3    H129980   1.833   1.484   1.544  0.7870 -0.5544  1.2383
 2807TIP3    H229981   1.805   1.631   1.567  1.0326 -0.5592  1.5811
 2808TIP3   OH229982   3.085   5.100   2.124 -0.3059  0.1855  0.5337
 2808TIP3    H129983   3.180   5.095   2.117 -0.3975 -1.7146 -0.0890
 2808TIP3    H229984   3.058   5.164   2.059  0.5473  0.8270  0.8064
 2809TIP3   OH229985   2.169   0.344   7.600 -0.0039 -0.3139  0.3814
 2809TIP3    H129986   2.074   0.348   7.585 -0.1045 -2.9265 -0.2083
 2809TIP3    H229987   2.194   0.433   7.622 -2.4812  0.5958 -0.1946
 2810TIP3   OH229988   1.994   4.229   1.100  0.1613 -0.6020  0.0854
 2810TIP3    H129989   2.058   4.208   1.168 -1.4004  1.4934  2.4191
 2810TIP3    H229990   2.038   4.291   1.043  0.2742  1.0322  1.8234
 2811TIP3   OH229991   5.551   4.061   1.273 -0.1986 -0.0517  0.3110
 2811TIP3    H129992   5.636   4.043   1.234  0.3333  1.0805  0.9121
 2811TIP3    H229993   5.552   4.011   1.355  0.3462  0.8318  0.8562
 2812TIP3   OH229994   2.952   5.136   8.025 -0.0172  0.0588 -0.0925
 2812TIP3    H129995   2.997   5.081   8.089 -2.8783  0.0496  2.1308
 2812TIP3    H229996   2.911   5.074   7.965 -1.2464 -0.1964  0.9723
 2813TIP3   OH229997   3.033   2.616   2.650 -0.4155 -0.2274  0.3694
 2813TIP3    H129998   3.030   2.684   2.582  0.2270 -0.1628  0.3990
 2813TIP3    H229999   3.124   2.588   2.652 -0.8404 -1.7656 -0.2854
 2814TIP3   OH230000   1.562   1.001   8.217 -0.1298 -0.0976 -0.2338
 2814TIP3    H130001   1.592   0.954   8.295 -1.1183  0.8266  0.7392
 2814TIP3    H230002   1.508   1.072   8.251 -0.0650  0.7250 -1.7411
 2815TIP3   OH230003   3.877   6.193   0.355 -0.3223  0.1023 -0.1928
 2815TIP3    H130004   3.953   6.250   0.366 -0.2138 -0.2798  1.2684
 2815TIP3    H230005   3.803   6.254   0.347  0.1072  0.4789 -1.7367
 2816TIP3   OH230006   0.240   3.090   0.375  0.5812 -0.0994 -0.2120
 2816TIP3    H130007   0.276   3.092   0.286 -2.6072  0.6282 -1.6415
 2816TIP3    H230008   0.218   2.998   0.390 -0.3140 -0.0053 -0.8654
 2817TIP3   OH230009   2.771   4.777   0.470 -0.3128  0.3522  0.6830
 2817TIP3    H130010   2.814   4.849   0.516  0.6961  0.7414 -0.7959
 2817TIP3    H230011   2.727   4.819   0.396 -1.8047 -0.2696  1.1879
 2818TIP3   OH230012   4.670   3.578   2.628  0.8974  0.0896 -0.0258
 2818TIP3    H130013   4.747   3.591   2.683 -0.0309 -1.0090  1.6029
 2818TIP3    H230014   4.681   3.490   2.592 -1.0092 -1.4323  2.7519
 2819TIP3   OH230015   5.766   1.468   1.266 -0.0437  0.2663 -0.5013
 2819TIP3    H130016   5.840   1.492   1.323  0.7904  1.0503 -1.8535
 2819TIP3    H230017   5.700   1.536   1.283 -0.0410  0.1571 -0.0436
 2820TIP3   OH230018   1.132   0.239   2.706 -0.6404  0.4224 -0.4710
 2820TIP3    H130019   1.103   0.329   2.715  1.6418  1.0472  2.4074
 2820TIP3    H230020   1.068   0.188   2.755 -1.3231  0.5965 -1.1642
 2821TIP3   OH230021   1.014   0.101   0.339  0.3907  0.4182  0.1000
 2821TIP3    H130022   0.991   0.136   0.253  1.1647 -0.5355 -0.5120
 2821TIP3    H230023   0.988   0.170   0.401 -3.4038 -0.2418 -0.5523
 2822TIP3   OH230024   5.244   3.553   8.462  0.0640 -0.3201  0.3234
 2822TIP3    H130025   5.232   3.629   8.405  1.1943 -0.0694  0.4016
 2822TIP3    H230026   5.171   3.557   8.524 -0.8337 -0.2470 -0.7064
 2823TIP3   OH230027   6.155   6.221   3.201 -0.5661  0.4385 -0.1672
 2823TIP3    H130028   6.190   6.158   3.138 -2.2410  0.3854 -1.1175
 2823TIP3    H230029   6.231   6.272   3.229  0.2660  0.4011 -2.1878
 2824TIP3   OH230030   4.059   6.453   1.509 -0.1412  0.4678  0.0986
 2824TIP3    H130031   4.146   6.466   1.471 -0.4646 -0.9235 -1.2172
 2824TIP3    H230032   4.000   6.499   1.449 -0.2139  3.2490  2.1125
 2825TIP3   OH230033   3.928   6.729   8.275 -0.1859 -0.9783 -0.5024
 2825TIP3    H130034   3.911   6.815   8.237  0.1604 -0.6842  0.0057
 2825TIP3    H230035   3.960   6.676   8.201  2.7468  0.2274 -0.2478
 2826TIP3   OH230036   0.923   0.930   0.991 -0.3052 -0.5508 -0.0190
 2826TIP3    H130037   0.996   0.939   1.053 -0.0993  0.0620 -0.3461
 2826TIP3    H230038   0.946   0.855   0.938 -0.8831 -1.6140  1.1838
 2827TIP3   OH230039   3.148   2.921   8.277  0.2587  0.0675  0.7192
 2827TIP3    H130040   3.077   2.885   8.224  0.2627  0.6322  0.3227
 2827TIP3    H230041   3.128   2.893   8.366 -1.0657  1.1184  0.7858
 2828TIP3   OH230042   4.560   5.460   0.303 -0.8059  0.3400  0.7675
 2828TIP3    H130043   4.491   5.481   0.240 -0.4957 -1.4493 -0.2317
 2828TIP3    H230044   4.519   5.476   0.388 -2.5926 -0.9012  0.2139
 2829TIP3   OH230045   3.313   4.160   8.785  0.0441 -0.8125 -0.0962
 2829TIP3    H130046   3.382   4.187   8.845 -0.5014 -0.7470  0.5241
 2829TIP3    H230047   3.334   4.203   8.702  0.9487 -1.1084 -0.0307
 2830TIP3   OH230048   2.164   1.182   0.991  0.6575 -0.4577 -0.6787
 2830TIP3    H130049   2.201   1.178   0.903  0.4653  0.5633 -0.8191
 2830TIP3    H230050   2.224   1.130   1.044  1.9400  0.5994 -1.0329
 2831TIP3   OH230051   0.194   1.428   0.482 -0.5839 -0.0865  0.5021
 2831TIP3    H130052   0.248   1.411   0.405  0.1895 -1.9501  1.4123
 2831TIP3    H230053   0.104   1.413   0.452 -0.3010 -0.6807 -0.0653
 2832TIP3   OH230054   4.008   0.527   3.694  0.1554  0.1262 -0.1153
 2832TIP3    H130055   3.952   0.449   3.690  0.3206 -0.0833  1.1126
 2832TIP3    H230056   4.066   0.510   3.768 -0.7137  2.0057  1.0618
 2833TIP3   OH230057   6.290   5.805   1.799 -0.4727  0.4408 -0.3332
 2833TIP3    H130058   6.202   5.774   1.777 -0.7295 -0.4416  1.7005
 2833TIP3    H230059   6.341   5.788   1.720 -1.8605 -0.1145 -1.1619
 2834TIP3   OH230060   6.664   1.674   0.748 -0.4515  0.0549  0.0401
 2834TIP3    H130061   6.624   1.589   0.731 -2.7886  1.1885 -0.5314
 2834TIP3    H230062   6.595   1.738   0.729  1.5824  2.1723 -0.7487
 2835TIP3   OH230063   4.264   2.988   0.675  0.2293 -0.4883  0.0304
 2835TIP3    H130064   4.245   2.966   0.584  1.9021  0.1145 -0.4966
 2835TIP3    H230065   4.274   3.083   0.675  0.2095 -0.4817  0.8492
 2836TIP3   OH230066   6.403   2.797   0.526  0.1076 -0.8155 -0.1580
 2836TIP3    H130067   6.385   2.891   0.522  0.0498 -0.7038  1.8070
 2836TIP3    H230068   6.498   2.791   0.530  0.0808 -0.7697  0.6993
 2837TIP3   OH230069   0.579   2.103   8.682 -0.9996 -0.5088 -0.1966
 2837TIP3    H130070   0.518   2.122   8.611 -3.2192  1.2763  1.9919
 2837TIP3    H230071   0.631   2.183   8.692 -1.7490 -0.1498  1.0833
 2838TIP3   OH230072   2.971   5.190   7.697  0.0207 -0.1079  0.0462
 2838TIP3    H130073   3.047   5.196   7.756 -0.8905 -1.1891  1.3847
 2838TIP3    H230074   2.909   5.255   7.731 -0.7062 -1.0762  0.6285
 2839TIP3   OH230075   4.246   3.573   8.333  0.7146  0.0368  0.6222
 2839TIP3    H130076   4.301   3.570   8.411 -0.0308  1.1865  1.2238
 2839TIP3    H230077   4.198   3.491   8.333 -0.2166  0.5383  2.1058
 2840TIP3   OH230078   4.714   5.218   1.770  0.4080  0.0274 -0.2260
 2840TIP3    H130079   4.792   5.268   1.745  0.7524  0.8110  2.2112
 2840TIP3    H230080   4.742   5.127   1.765  1.3404  0.2828  0.1557
 2841TIP3   OH230081   6.554   2.025   1.056 -0.0570  0.7344 -0.1483
 2841TIP3    H130082   6.550   2.067   1.142  0.0257  0.1208  0.1601
 2841TIP3    H230083   6.497   2.079   1.000 -2.7645 -0.6695  1.0654
 2842TIP3   OH230084   4.029   5.274   2.812 -0.6755 -0.3707 -0.1092
 2842TIP3    H130085   3.954   5.221   2.783 -0.6022 -0.3383 -0.3577
 2842TIP3    H230086   4.103   5.239   2.763 -0.5698 -0.2474 -0.0365
 2843TIP3   OH230087   4.229   0.946   8.419  0.3057  0.1198  0.5448
 2843TIP3    H130088   4.184   0.874   8.463 -0.5557  0.8194  0.8333
 2843TIP3    H230089   4.228   0.922   8.326  1.6847 -1.1209  0.8152
 2844TIP3   OH230090   0.695   5.711   2.348 -0.7250  0.0638 -0.0631
 2844TIP3    H130091   0.647   5.661   2.414  1.4731 -0.4506  1.2650
 2844TIP3    H230092   0.649   5.795   2.345 -3.2794 -1.2496 -0.8852
 2845TIP3   OH230093   0.452   5.293   0.172 -0.2788  0.7090 -0.4208
 2845TIP3    H130094   0.374   5.340   0.144  0.5955  1.8469 -1.0700
 2845TIP3    H230095   0.524   5.352   0.149  0.6270  1.1319  2.8951
 2846TIP3   OH230096   5.596   2.256   1.728 -0.6559 -0.0953  0.3958
 2846TIP3    H130097   5.674   2.276   1.780 -0.7906  0.1156  0.5184
 2846TIP3    H230098   5.611   2.167   1.696 -0.9160 -0.5374  1.4539
 2847TIP3   OH230099   4.123   3.345   8.442 -0.2125 -0.2050  0.1712
 2847TIP3    H130100   4.075   3.265   8.422 -0.1395 -0.4544  0.9467
 2847TIP3    H230101   4.068   3.391   8.506 -0.3639  0.4815 -0.4372
 2848TIP3   OH230102   4.954   1.813   3.327 -0.1970  0.3661  0.1496
 2848TIP3    H130103   5.030   1.761   3.354  1.0040  1.0504 -1.7611
 2848TIP3    H230104   4.990   1.898   3.304 -1.2357  0.1653 -2.5598
 2849TIP3   OH230105   6.572   0.025   0.892  0.0673 -0.0849  0.0921
 2849TIP3    H130106   6.603  -0.011   0.975 -0.0253  0.2025  0.2516
 2849TIP3    H230107   6.593   0.118   0.896 -1.0735  0.1775  0.3285
 2850TIP3   OH230108   3.238   3.351   1.920  0.3968 -0.3163  0.7109
 2850TIP3    H130109   3.206   3.426   1.870 -1.5344 -1.7934 -0.3842
 2850TIP3    H230110   3.329   3.341   1.893  0.0885  0.3879 -0.6559
 2851TIP3   OH230111   6.505   2.147   3.347 -0.2004  0.1663 -0.5156
 2851TIP3    H130112   6.498   2.055   3.322  0.7492 -0.2222  0.5680
 2851TIP3    H230113   6.592   2.174   3.317 -0.4824  0.7239 -0.8534
 2852TIP3   OH230114   2.251   3.050   7.703  0.3544 -0.3273  0.0651
 2852TIP3    H130115   2.195   3.061   7.626  1.3298 -2.3237 -1.0337
 2852TIP3    H230116   2.270   2.956   7.705  2.3832  0.0447  1.2979
 2853TIP3   OH230117   6.696   3.242   3.012  0.8025  0.0879  0.1850
 2853TIP3    H130118   6.627   3.307   3.002  1.1222  0.3559 -0.3186
 2853TIP3    H230119   6.715   3.241   3.106 -1.0103 -1.1825  0.5913
 2854TIP3   OH230120   3.147   5.260   7.460 -0.0610 -0.1787  0.2902
 2854TIP3    H130121   3.239   5.261   7.484 -0.2222  0.5464  0.9061
 2854TIP3    H230122   3.146   5.290   7.369  0.2243  0.9978  0.6518
 2855TIP3   OH230123   4.377   6.374   8.145  0.3002  0.0064  0.0529
 2855TIP3    H130124   4.320   6.389   8.220  0.3155  1.5348 -0.2128
 2855TIP3    H230125   4.320   6.334   8.079  0.5057 -2.2522  1.1642
 2856TIP3   OH230126   5.944   1.159   0.004  0.3047  0.1102  0.1197
 2856TIP3    H130127   5.975   1.214   0.075  0.4707  0.1090  0.0495
 2856TIP3    H230128   5.921   1.220  -0.066  1.1061  0.0631 -0.1983
 2857TIP3   OH230129   2.378   3.779   0.628  0.4282  0.0836  0.5351
 2857TIP3    H130130   2.423   3.715   0.683  0.5194  0.3283  0.7474
 2857TIP3    H230131   2.422   3.862   0.645  0.7227  0.0897 -0.2210
 2858TIP3   OH230132   5.079   0.308   2.159  0.2761  0.5034  0.2684
 2858TIP3    H130133   5.025   0.369   2.107 -0.5805 -1.1749 -0.8941
 2858TIP3    H230134   5.161   0.301   2.110  0.2198  0.4107  0.1875
 2859TIP3   OH230135   1.125   2.161   0.456 -0.0057  0.1028 -0.7616
 2859TIP3    H130136   1.053   2.170   0.394 -0.2917  1.1553 -0.2979
 2859TIP3    H230137   1.101   2.217   0.530  1.0238  0.0411 -0.3553
 2860TIP3   OH230138   2.592   0.781   0.546 -0.2478 -0.0129  0.3259
 2860TIP3    H130139   2.530   0.800   0.476  0.4133 -0.0061 -0.2681
 2860TIP3    H230140   2.601   0.864   0.593  0.7925  0.5284 -0.7886
 2861TIP3   OH230141   2.091   3.937   8.528 -0.0643 -0.5716  0.3133
 2861TIP3    H130142   2.087   3.868   8.462  0.1042  0.5623 -0.9314
 2861TIP3    H230143   2.116   3.892   8.609  1.7096 -1.7273 -0.8072
 2862TIP3   OH230144   1.027   5.478   2.912  0.2391  0.2492  0.8239
 2862TIP3    H130145   1.010   5.400   2.860 -0.6367 -0.8162  2.6085
 2862TIP3    H230146   1.051   5.445   2.999 -1.2035  1.9241  1.9479
 2863TIP3   OH230147   6.415   5.497   0.291  0.2105  0.0470 -0.1778
 2863TIP3    H130148   6.362   5.425   0.258 -0.5678  0.3908  0.3180
 2863TIP3    H230149   6.488   5.455   0.336  0.2222 -0.4217 -0.6263
 2864TIP3   OH230150   1.612   0.264   0.490  0.0908 -0.0944 -0.2424
 2864TIP3    H130151   1.560   0.192   0.456 -1.3895  0.5691  0.5531
 2864TIP3    H230152   1.619   0.325   0.417 -2.4174  0.9650  0.3001
 2865TIP3   OH230153   1.605   0.565   2.884  0.5097 -0.0817 -0.3662
 2865TIP3    H130154   1.608   0.648   2.930  0.9106 -0.6314  0.6444
 2865TIP3    H230155   1.695   0.550   2.853  0.1476  0.5160 -1.8058
 2866TIP3   OH230156   5.746   6.086   8.237  0.2701 -0.2407  0.1289
 2866TIP3    H130157   5.808   6.045   8.176 -0.1153 -1.7688  0.7301
 2866TIP3    H230158   5.691   6.141   8.181  0.7864 -0.5420 -0.7082
 2867TIP3   OH230159   3.570   6.728   1.515 -0.0431 -0.1896 -0.0462
 2867TIP3    H130160   3.628   6.798   1.487 -0.1437 -0.3947 -0.7877
 2867TIP3    H230161   3.505   6.721   1.445 -2.0062  1.1737  1.5133
 2868TIP3   OH230162   4.521   2.210   0.295  0.3911 -0.1526 -0.4624
 2868TIP3    H130163   4.609   2.173   0.289  0.3269 -0.2087 -1.0952
 2868TIP3    H230164   4.464   2.133   0.303  0.1383 -0.3302 -3.0487
 2869TIP3   OH230165   5.974   6.433   2.553  0.0142 -0.3480 -1.0920
 2869TIP3    H130166   5.900   6.456   2.497 -0.6585  0.1289 -0.0265
 2869TIP3    H230167   6.046   6.488   2.520 -0.4945  0.2657 -1.2025
 2870TIP3   OH230168   5.411   5.573   8.611 -0.2438  0.1692  0.5183
 2870TIP3    H130169   5.424   5.661   8.576 -2.1568  0.7542  1.1366
 2870TIP3    H230170   5.378   5.522   8.537 -1.1406  0.5460  0.6433
 2871TIP3   OH230171   5.657   0.901   2.590  0.4875  0.3035 -0.2536
 2871TIP3    H130172   5.709   0.853   2.654 -0.0356  1.0908  0.7843
 2871TIP3    H230173   5.601   0.958   2.642 -2.0055 -1.0491 -1.2587
 2872TIP3   OH230174   2.997   1.297   3.360 -0.1207 -0.2029  0.1100
 2872TIP3    H130175   2.901   1.304   3.364 -0.3114 -0.0411 -2.5979
 2872TIP3    H230176   3.029   1.378   3.399 -1.1554  0.4132 -0.2736
 2873TIP3   OH230177   3.074   6.040   0.443 -0.2466 -0.4752  0.1861
 2873TIP3    H130178   3.053   6.133   0.427 -1.0744 -0.5753  0.6443
 2873TIP3    H230179   3.008   5.992   0.393 -1.7263 -0.7967  2.3179
 2874TIP3   OH230180   6.216   3.777   3.686 -0.0534  0.2269 -0.1852
 2874TIP3    H130181   6.302   3.753   3.652  0.3707 -0.5348  1.3177
 2874TIP3    H230182   6.162   3.700   3.670 -0.4152  0.6369 -0.9649
 2875TIP3   OH230183   4.714   3.243   0.455 -0.4168 -0.0779  0.0635
 2875TIP3    H130184   4.683   3.152   0.463 -0.3243 -0.0379  1.0104
 2875TIP3    H230185   4.669   3.277   0.378 -0.8714 -0.7648  0.0156
 2876TIP3   OH230186   6.046   2.677   2.940 -0.0667 -0.1714  0.2042
 2876TIP3    H130187   5.995   2.749   2.977  0.9525  0.5349  0.2786
 2876TIP3    H230188   6.051   2.613   3.010  0.7273  0.5785  0.8549
 2877TIP3   OH230189   5.420   2.390   3.571  0.2295  0.4151  0.1044
 2877TIP3    H130190   5.450   2.478   3.595 -1.2905  0.6825  1.0960
 2877TIP3    H230191   5.500   2.345   3.542  1.1869  1.8147  0.4792
 2878TIP3   OH230192   2.472   2.153   2.891 -0.0511  0.4307 -0.0968
 2878TIP3    H130193   2.457   2.059   2.878  2.0286  0.1427 -0.7839
 2878TIP3    H230194   2.564   2.159   2.914 -0.1575  2.3302 -0.0422
 2879TIP3   OH230195   3.118   1.716   1.539  0.0557  0.3398  0.6735
 2879TIP3    H130196   3.082   1.659   1.607  3.2687 -0.0500  2.2022
 2879TIP3    H230197   3.103   1.669   1.457 -1.7769 -0.2922  1.3255
 2880TIP3   OH230198   1.917   6.510   8.645 -0.6711  0.4627 -0.3589
 2880TIP3    H130199   1.926   6.439   8.581 -0.4454  0.4641 -0.3300
 2880TIP3    H230200   1.867   6.577   8.600 -2.9709 -0.6645  0.3779
 2881TIP3   OH230201   3.656   0.086   2.230  0.4599  0.2351  0.9445
 2881TIP3    H130202   3.655   0.150   2.159 -0.0577 -1.2097 -0.3961
 2881TIP3    H230203   3.654   0.139   2.310  0.1112  1.8842 -0.1132
 2882TIP3   OH230204   1.205   4.904   0.593 -0.2258 -0.0258 -0.1943
 2882TIP3    H130205   1.142   4.975   0.582  1.0204  1.6809  2.6398
 2882TIP3    H230206   1.196   4.878   0.685  2.3579 -0.5060  0.0047
 2883TIP3   OH230207   2.530   0.113   8.408  0.4185  0.2002  0.4863
 2883TIP3    H130208   2.600   0.079   8.464  0.1466  0.2812  0.8849
 2883TIP3    H230209   2.460   0.134   8.469 -0.3449 -0.8407 -0.0174
 2884TIP3   OH230210   0.215   5.497   7.309 -0.8469  0.7767 -0.1440
 2884TIP3    H130211   0.307   5.519   7.321  0.0790 -1.5334 -2.2320
 2884TIP3    H230212   0.170   5.582   7.308  1.2532  1.9719  0.6513
 2885TIP3   OH230213   0.843   5.478   2.630  0.7166 -0.6093 -0.0386
 2885TIP3    H130214   0.751   5.502   2.619  0.3746 -2.1916 -0.9555
 2885TIP3    H230215   0.882   5.553   2.674 -0.6549  0.7872 -1.0913
 2886TIP3   OH230216   6.276   6.575   1.338  0.2453 -0.6452 -0.4201
 2886TIP3    H130217   6.243   6.587   1.249  0.5622  0.0677 -0.4484
 2886TIP3    H230218   6.200   6.547   1.388 -0.5413  1.3335 -0.4071
 2887TIP3   OH230219   5.392   3.739   2.711 -0.8317 -0.2041 -0.3103
 2887TIP3    H130220   5.391   3.658   2.661  0.7515 -1.9712  2.2977
 2887TIP3    H230221   5.336   3.722   2.787 -1.2692  1.5301 -0.1804
 2888TIP3   OH230222   0.396   0.686   8.381  0.6868 -0.2452  0.1115
 2888TIP3    H130223   0.336   0.614   8.364  2.3866 -1.6229 -0.3222
 2888TIP3    H230224   0.439   0.702   8.297  1.2887  0.3681  0.5237
 2889TIP3   OH230225   2.961   2.561   1.155 -0.1517 -0.2235  0.6265
 2889TIP3    H130226   2.957   2.652   1.184  1.8410  0.1439 -0.0596
 2889TIP3    H230227   2.931   2.563   1.064 -0.2758 -0.2734  0.6667
 2890TIP3   OH230228   3.424   5.661   8.626 -0.1817  0.1690  0.4175
 2890TIP3    H130229   3.502   5.629   8.580  0.4289  1.3305  0.6149
 2890TIP3    H230230   3.422   5.754   8.607 -4.2051 -0.3657 -3.5918
 2891TIP3   OH230231   3.792   4.247   0.887  0.0473  0.8006 -0.0285
 2891TIP3    H130232   3.822   4.279   0.802 -0.2376  0.0105 -0.4334
 2891TIP3    H230233   3.872   4.226   0.934  0.1930 -0.5682 -0.8219
 2892TIP3   OH230234   1.052   0.303   2.254 -0.6387  0.6729  0.1309
 2892TIP3    H130235   1.074   0.224   2.304  0.7257  0.6375 -0.4845
 2892TIP3    H230236   0.957   0.297   2.240 -0.8275 -0.0092  1.4997
 2893TIP3   OH230237   6.432   6.453   0.917 -0.3861  0.0383 -0.5183
 2893TIP3    H130238   6.397   6.536   0.884 -0.4560  0.1968 -0.0438
 2893TIP3    H230239   6.525   6.471   0.930 -0.9049  1.0067  2.5160
 2894TIP3   OH230240   4.288   2.180   2.329  0.7944  0.8388  0.6702
 2894TIP3    H130241   4.202   2.140   2.313  0.1794  1.8464  1.3227
 2894TIP3    H230242   4.303   2.235   2.253  0.8498  0.6787  0.5653
 2895TIP3   OH230243   0.249   5.673   1.201  0.0459 -0.6152 -0.0317
 2895TIP3    H130244   0.234   5.691   1.108 -0.1211 -0.9809 -0.0765
 2895TIP3    H230245   0.335   5.632   1.204 -0.6057 -2.0681 -0.2143
 2896TIP3   OH230246   2.371   5.203   0.348 -0.4752  0.5839  1.0471
 2896TIP3    H130247   2.454   5.203   0.299 -1.9859 -3.4159 -2.0499
 2896TIP3    H230248   2.396   5.183   0.438  1.9691 -1.1134  0.0894
 2897TIP3   OH230249   3.357   1.307   2.452 -0.1799  0.0742  0.4635
 2897TIP3    H130250   3.284   1.253   2.482  1.0029 -0.6493  2.1985
 2897TIP3    H230251   3.325   1.397   2.460 -1.0040 -0.2443  0.8385
 2898TIP3   OH230252   4.568   5.945   2.006 -0.5806 -0.3488 -0.0172
 2898TIP3    H130253   4.607   6.029   2.030  0.5408 -0.6105 -0.8669
 2898TIP3    H230254   4.505   5.967   1.937 -0.7897 -0.1193  0.2459
 2899TIP3   OH230255   5.005   5.154   8.654 -0.0960 -0.4696 -0.5934
 2899TIP3    H130256   5.023   5.155   8.560 -1.7833  1.1181 -0.9457
 2899TIP3    H230257   5.081   5.197   8.694  0.3320 -0.5810 -1.2685
 2900TIP3   OH230258   5.562   0.412   7.712  0.1746 -0.1660 -0.2369
 2900TIP3    H130259   5.610   0.377   7.787  1.3325  0.3213 -0.7288
 2900TIP3    H230260   5.623   0.473   7.671 -1.3821  1.6790 -0.0003
 2901TIP3   OH230261   3.932   2.388   0.906 -0.9406  0.5607 -0.0603
 2901TIP3    H130262   3.890   2.462   0.950  0.3119  1.3940 -0.1988
 2901TIP3    H230263   4.018   2.422   0.879 -0.9646 -0.4679 -1.5445
 2902TIP3   OH230264   5.857   1.623   1.995  0.2107  0.0270 -0.4571
 2902TIP3    H130265   5.779   1.573   1.970  0.2341 -0.3879  0.2770
 2902TIP3    H230266   5.823   1.706   2.028  0.1275  0.1691 -0.8912
 2903TIP3   OH230267   4.022   3.082   8.461  0.3533  0.0503  0.4922
 2903TIP3    H130268   4.074   3.035   8.395 -0.2039  0.0102  0.0705
 2903TIP3    H230269   3.964   3.015   8.497  0.8322  0.0181  1.2132
 2904TIP3   OH230270   2.444   4.839   0.385  0.2349  0.3340  0.2325
 2904TIP3    H130271   2.349   4.844   0.399  0.0729  0.4206 -0.8034
 2904TIP3    H230272   2.479   4.805   0.467 -0.6017  1.1362  0.9423
 2905TIP3   OH230273   2.262   5.456   2.256  0.4067 -0.0004  0.0426
 2905TIP3    H130274   2.342   5.431   2.211 -0.1539 -1.6334 -0.1258
 2905TIP3    H230275   2.286   5.533   2.308  1.5634  0.7262 -1.4935
 2906TIP3   OH230276   3.189   4.836   1.535  0.5729  0.0656 -0.0844
 2906TIP3    H130277   3.274   4.827   1.578  0.5240 -0.5808 -0.1194
 2906TIP3    H230278   3.196   4.781   1.456  0.4740  0.8042 -0.6209
 2907TIP3   OH230279   3.178   3.168   2.864  0.5679 -0.0665 -0.4228
 2907TIP3    H130280   3.214   3.253   2.840  1.3538  0.5076  2.4900
 2907TIP3    H230281   3.240   3.104   2.829  1.5791  0.7076 -0.0774
 2908TIP3   OH230282   6.547   4.072   2.003  0.0479  0.6587  0.4152
 2908TIP3    H130283   6.540   4.065   1.908  0.4389 -1.4062  0.4897
 2908TIP3    H230284   6.459   4.097   2.032 -0.8708 -1.4357 -0.3407
 2909TIP3   OH230285   6.400   6.358   8.421  0.4705  0.4075 -0.0797
 2909TIP3    H130286   6.435   6.374   8.333  0.0755  1.2681 -0.0880
 2909TIP3    H230287   6.320   6.411   8.425  1.0846  1.2963  1.1831
 2910TIP3   OH230288   3.435   4.299   2.358  0.4731  0.2045  0.1598
 2910TIP3    H130289   3.520   4.294   2.315  0.6856 -1.4225  0.6910
 2910TIP3    H230290   3.373   4.269   2.291  0.4415  0.4478  0.0803
 2911TIP3   OH230291   2.487   3.602   1.665 -0.1767 -0.3567  0.3700
 2911TIP3    H130292   2.401   3.595   1.708 -0.0451 -1.2767  0.5092
 2911TIP3    H230293   2.468   3.588   1.572 -0.3931  1.1380  0.1609
 2912TIP3   OH230294   4.894   1.482   0.087 -0.4471  0.8814  0.3134
 2912TIP3    H130295   4.939   1.408   0.045 -0.6064  1.2594 -0.5456
 2912TIP3    H230296   4.837   1.517   0.018 -0.1397  2.0053  0.6198
 2913TIP3   OH230297   2.831   2.475   7.448 -0.1438 -0.3328  0.1507
 2913TIP3    H130298   2.843   2.569   7.433 -2.7640  0.0075 -0.4274
 2913TIP3    H230299   2.885   2.432   7.383 -0.6416  0.8676 -1.1053
 2914TIP3   OH230300   6.367   2.623   7.776 -0.6474  0.1102  0.0186
 2914TIP3    H130301   6.416   2.691   7.728 -2.1463 -0.2321 -2.1348
 2914TIP3    H230302   6.425   2.598   7.848  1.0865  1.7549 -0.7218
 2915TIP3   OH230303   6.092   1.329   8.662  0.4579 -0.7156 -0.3589
 2915TIP3    H130304   6.154   1.364   8.599  0.0389 -1.1480 -1.0222
 2915TIP3    H230305   6.128   1.353   8.747 -0.8441  3.1804 -0.7375
 2916TIP3   OH230306   0.744   0.907   8.303  0.6115 -0.2917  0.0773
 2916TIP3    H130307   0.701   0.864   8.229  0.8242 -0.4167  0.0247
 2916TIP3    H230308   0.746   1.000   8.280 -1.2078 -0.0146  0.8593
 2917TIP3   OH230309   3.507   3.121   7.967 -0.6423  0.3113 -0.1857
 2917TIP3    H130310   3.566   3.149   7.897  0.1157  2.0672  1.0934
 2917TIP3    H230311   3.562   3.067   8.024 -1.2904 -1.2227 -0.9623
 2918TIP3   OH230312   0.829   3.413   1.570  0.0367  0.1790 -0.2312
 2918TIP3    H130313   0.798   3.373   1.651 -0.8163  0.7703 -0.2561
 2918TIP3    H230314   0.823   3.508   1.586 -2.8982  0.3997 -1.9349
 2919TIP3   OH230315   3.518   5.825   0.672 -0.2364 -0.6252  0.0214
 2919TIP3    H130316   3.569   5.749   0.646 -1.2507 -1.4501  0.3649
 2919TIP3    H230317   3.459   5.840   0.598  0.8845  0.6989 -0.6388
 2920TIP3   OH230318   5.140   6.644   2.232  0.2727 -0.1071 -0.4641
 2920TIP3    H130319   5.093   6.606   2.158  0.2668 -1.0550  0.0177
 2920TIP3    H230320   5.188   6.571   2.271  3.6118  1.0817 -1.9737
 2921TIP3   OH230321   5.936   1.050   2.087  0.6030  0.6961  0.1509
 2921TIP3    H130322   5.951   1.127   2.031 -0.4764  0.6259 -0.2490
 2921TIP3    H230323   6.001   1.059   2.157  1.4901  1.1772 -0.6989
 2922TIP3   OH230324   3.945   3.790   1.635 -0.0519 -0.5126 -0.7666
 2922TIP3    H130325   3.987   3.840   1.565  2.4658 -1.1293  0.2098
 2922TIP3    H230326   4.000   3.805   1.712 -1.2268 -1.9675  0.4245
 2923TIP3   OH230327   5.874   2.526   1.072  0.2814 -0.2573  0.2793
 2923TIP3    H130328   5.786   2.555   1.048  0.0940  0.3199  1.5712
 2923TIP3    H230329   5.887   2.445   1.023 -0.1957  0.6406 -1.4265
 2924TIP3   OH230330   2.743   1.885   7.595 -0.7525 -0.8609  0.4756
 2924TIP3    H130331   2.650   1.880   7.617 -1.1572 -0.1767 -0.9302
 2924TIP3    H230332   2.761   1.803   7.547 -0.9181 -0.5134 -0.1947
 2925TIP3   OH230333   4.263   1.902   2.070  0.3449 -0.0361  0.2003
 2925TIP3    H130334   4.252   1.807   2.067  0.7826 -0.3427  3.6313
 2925TIP3    H230335   4.178   1.934   2.101  0.6884  0.4860  0.6112
 2926TIP3   OH230336   2.972   2.318   7.964 -0.1358  0.2330  0.8551
 2926TIP3    H130337   2.899   2.297   7.906  0.1470 -0.5986  0.7827
 2926TIP3    H230338   2.930   2.346   8.046 -0.5331  0.5818  0.5329
 2927TIP3   OH230339   2.959   2.390   0.358  0.3962  0.1568 -0.1814
 2927TIP3    H130340   2.941   2.472   0.404  0.2398 -0.4324  0.8523
 2927TIP3    H230341   3.052   2.395   0.336  0.2981  0.7775 -0.4833
 2928TIP3   OH230342   2.123   4.818   8.001 -0.5031 -0.3794  0.4161
 2928TIP3    H130343   2.191   4.752   8.014 -0.7058 -0.4160  1.4093
 2928TIP3    H230344   2.072   4.816   8.082  1.7568  3.5915  2.2366
 2929TIP3   OH230345   0.027   0.729   2.878 -0.0657  0.8677 -0.4501
 2929TIP3    H130346   0.054   0.667   2.945  0.5308 -0.5507 -1.9210
 2929TIP3    H230347  -0.001   0.807   2.926 -0.1169 -0.2567  1.4297
 2930TIP3   OH230348   0.130   1.550   1.034  0.6380  0.7007 -0.0189
 2930TIP3    H130349   0.063   1.531   1.099  0.8709  0.5214  0.1703
 2930TIP3    H230350   0.083   1.597   0.965  0.1562 -0.0971 -0.2494
 2931TIP3   OH230351   5.235   2.975   8.793  0.6950 -0.0878 -0.5666
 2931TIP3    H130352   5.193   3.017   8.868  2.6404  1.5796 -0.3067
 2931TIP3    H230353   5.193   3.015   8.716  0.9508  0.6692 -0.3244
 2932TIP3   OH230354   6.578   3.957   2.906  0.1846  0.0785 -0.2610
 2932TIP3    H130355   6.653   3.962   2.847  1.0929  0.4975  0.8757
 2932TIP3    H230356   6.614   3.979   2.992 -1.0012 -0.9463  0.5378
 2933TIP3   OH230357   5.904   6.538   0.742  0.3364 -0.8912 -0.1172
 2933TIP3    H130358   5.985   6.488   0.744  0.5377 -0.6701 -1.7197
 2933TIP3    H230359   5.926   6.618   0.694 -1.1486 -1.4875 -1.9361
 2934TIP3   OH230360   4.067   2.171   1.096 -0.5529 -0.7573  0.1623
 2934TIP3    H130361   3.985   2.132   1.126  0.5323 -1.8067  1.8929
 2934TIP3    H230362   4.041   2.256   1.060 -2.2629 -0.5462  1.7569
 2935TIP3   OH230363   6.771   2.764   0.713  0.0775  0.1571 -0.4454
 2935TIP3    H130364   6.776   2.695   0.780  1.6544  0.2204 -0.4600
 2935TIP3    H230365   6.726   2.723   0.640 -2.5353  0.3559  0.9316
 2936TIP3   OH230366   3.721   0.963   0.381  0.3733  0.0378  0.8338
 2936TIP3    H130367   3.747   0.905   0.453  2.5595 -0.1398 -0.0286
 2936TIP3    H230368   3.631   0.938   0.362  1.0769 -2.8194  0.7980
 2937TIP3   OH230369   2.972   2.611   0.099 -0.0581  0.3414  0.1947
 2937TIP3    H130370   2.884   2.638   0.124 -0.3943 -0.6907  0.1752
 2937TIP3    H230371   2.959   2.533   0.044  0.9004 -0.5252  1.1328
 2938TIP3   OH230372   4.181   2.685   1.119 -0.0686 -0.6369 -0.0275
 2938TIP3    H130373   4.228   2.622   1.173 -0.5780 -0.6386  0.4161
 2938TIP3    H230374   4.160   2.637   1.038  0.5558 -0.6790 -0.1695
 2939TIP3   OH230375   1.954   4.480   2.797  0.1519 -0.4031  0.1515
 2939TIP3    H130376   1.999   4.460   2.715 -1.8274 -1.2132 -0.8329
 2939TIP3    H230377   1.894   4.406   2.810 -2.3297  1.4888  0.2507
 2940TIP3   OH230378   2.322   1.989   1.649 -0.1342 -0.0184 -0.1229
 2940TIP3    H130379   2.395   1.943   1.607 -0.5745 -0.8941  0.0463
 2940TIP3    H230380   2.357   2.075   1.671  0.8095 -0.3797 -0.1688
 2941TIP3   OH230381   2.590   2.295   0.307  0.1625  0.2113 -0.0498
 2941TIP3    H130382   2.659   2.231   0.325 -1.3142 -0.9741  1.7729
 2941TIP3    H230383   2.624   2.378   0.342  1.4451  0.1301 -1.0199
 2942TIP3   OH230384   1.200   4.787   1.344  0.2527  0.3476 -0.0345
 2942TIP3    H130385   1.287   4.804   1.307 -0.6643  1.3865 -1.8553
 2942TIP3    H230386   1.140   4.801   1.271 -1.5860  1.1791  1.5566
 2943TIP3   OH230387   4.365   3.144   7.218  0.8149 -0.9229 -0.4496
 2943TIP3    H130388   4.295   3.126   7.155 -0.1739 -0.7423  0.5672
 2943TIP3    H230389   4.413   3.061   7.224  0.1773 -1.3031 -0.5318
 2944TIP3   OH230390   4.837   2.082   0.602 -0.0013 -0.2692 -0.3364
 2944TIP3    H130391   4.863   2.174   0.605 -0.3865 -0.1622  2.1622
 2944TIP3    H230392   4.800   2.070   0.514  2.5012  1.1970 -1.7115
 2945TIP3   OH230393   1.050   3.218   8.510  0.6234 -0.5575  0.8516
 2945TIP3    H130394   1.132   3.191   8.469  0.0232  0.4528 -1.1237
 2945TIP3    H230395   0.982   3.166   8.466 -0.3669  2.6382 -1.8216
 2946TIP3   OH230396   6.307   2.014   8.885 -0.3845 -0.1819 -0.5426
 2946TIP3    H130397   6.241   2.022   8.816  0.0726 -1.5306 -1.1736
 2946TIP3    H230398   6.390   2.025   8.840 -0.0575  5.0026  0.7172
 2947TIP3   OH230399   1.169   6.312   1.390 -0.3215 -0.0597 -0.0073
 2947TIP3    H130400   1.090   6.281   1.348 -0.9507  0.0880  1.0211
 2947TIP3    H230401   1.237   6.304   1.323 -1.4066  0.8405 -1.2573
 2948TIP3   OH230402   4.515   2.768   1.003  0.1583 -0.3060 -0.2569
 2948TIP3    H130403   4.610   2.757   1.009  0.2885 -0.1053 -1.6007
 2948TIP3    H230404   4.502   2.863   0.992 -0.3084 -0.1565  1.3700
 2949TIP3   OH230405   0.573   5.139   2.497  0.2821 -0.5135 -0.0008
 2949TIP3    H130406   0.492   5.149   2.546 -0.2075 -2.0878 -0.3939
 2949TIP3    H230407   0.575   5.213   2.437 -0.0314  0.4227  1.1295
 2950TIP3   OH230408   3.399   2.829   0.389 -0.0451 -0.3802  0.1164
 2950TIP3    H130409   3.377   2.782   0.469 -0.6519 -1.1243 -0.4670
 2950TIP3    H230410   3.473   2.885   0.413  0.7215 -1.6466  0.8436
 2951TIP3   OH230411   5.948   2.200   1.403  0.5962 -0.0722 -0.5578
 2951TIP3    H130412   5.947   2.295   1.396 -0.0661 -0.0114  0.2128
 2951TIP3    H230413   5.993   2.170   1.324  1.9283  0.9328 -0.1997
 2952TIP3   OH230414   3.134   4.203   7.855  0.1235 -0.1972 -0.0986
 2952TIP3    H130415   3.095   4.132   7.804  0.5117  1.0280 -2.2289
 2952TIP3    H230416   3.183   4.254   7.791 -1.1867  2.7520  1.0610
 2953TIP3   OH230417   5.671   3.370   8.437 -0.5462  0.3450 -0.3408
 2953TIP3    H130418   5.655   3.373   8.343 -0.1432 -0.7965 -0.4561
 2953TIP3    H230419   5.670   3.277   8.459  0.9072  0.4955  0.5015
 2954TIP3   OH230420   2.361   0.024   1.158 -0.4419  0.1618  0.1911
 2954TIP3    H130421   2.399   0.096   1.109  0.8064  0.4686  1.5481
 2954TIP3    H230422   2.270   0.020   1.128 -0.1891  1.4628 -0.8323
 2955TIP3   OH230423   0.622   4.259   1.909 -1.1431 -0.2259 -0.2979
 2955TIP3    H130424   0.578   4.344   1.908  1.7016  1.3623  0.0143
 2955TIP3    H230425   0.641   4.241   1.817 -1.0603 -0.1269 -0.3008
 2956TIP3   OH230426   0.011   1.373   8.287  0.5194 -0.3902  0.1870
 2956TIP3    H130427   0.006   1.359   8.381 -0.4142 -0.1634  0.1864
 2956TIP3    H230428   0.087   1.322   8.258  1.9867  1.0442  1.3188
 2957TIP3   OH230429   3.191   4.653   1.336  0.3383  0.1493 -0.4988
 2957TIP3    H130430   3.169   4.562   1.356 -0.1884  0.4828  0.4887
 2957TIP3    H230431   3.125   4.680   1.272 -0.3678  0.2461  0.2509
 2958TIP3   OH230432   3.853   4.727   1.367 -0.6442  0.3806 -0.0725
 2958TIP3    H130433   3.817   4.646   1.402 -3.1884  1.1372 -0.7219
 2958TIP3    H230434   3.842   4.791   1.437  2.8278 -0.0455  1.0566
 2959TIP3   OH230435   4.093   1.443   3.080 -0.6026 -0.0016  0.1825
 2959TIP3    H130436   4.089   1.350   3.101 -0.6696 -0.2638 -0.9322
 2959TIP3    H230437   4.125   1.446   2.990  2.2402  1.1693  1.1221
 2960TIP3   OH230438   3.253   4.853   0.236 -0.0215  0.4338  0.2903
 2960TIP3    H130439   3.322   4.896   0.186 -0.4061  0.2170 -0.4364
 2960TIP3    H230440   3.269   4.879   0.327  0.1859  1.5193 -0.0467
 2961TIP3   OH230441   5.538   3.177   0.300  0.1525 -0.7656 -0.2371
 2961TIP3    H130442   5.483   3.144   0.230 -0.7095 -0.7517  0.4231
 2961TIP3    H230443   5.505   3.134   0.379 -0.1917  0.7063  0.4548
 2962TIP3   OH230444   1.193   0.273   3.744 -0.5045 -0.1300  0.0984
 2962TIP3    H130445   1.196   0.216   3.821  0.1761 -1.0511 -0.5804
 2962TIP3    H230446   1.154   0.219   3.675 -1.2261  0.7219 -0.1758
 2963TIP3   OH230447   0.311   4.085   7.902 -0.3166  0.2625 -0.5638
 2963TIP3    H130448   0.381   4.150   7.913 -0.8576  0.5364  1.5337
 2963TIP3    H230449   0.240   4.115   7.958 -2.2246  0.0350 -2.7000
 2964TIP3   OH230450   0.277   2.254   2.365  0.4819  0.8435  0.1325
 2964TIP3    H130451   0.222   2.330   2.382  1.4757  1.5438  0.2714
 2964TIP3    H230452   0.298   2.259   2.272  0.3150  0.5742  0.0782
 2965TIP3   OH230453   1.511   1.829   1.230 -0.3170  0.2750  0.3283
 2965TIP3    H130454   1.480   1.916   1.204  1.1377  0.6765 -0.2010
 2965TIP3    H230455   1.527   1.836   1.324 -1.2925  0.2154  0.5063
 2966TIP3   OH230456   1.774   2.107   0.593 -0.0544  0.0693 -0.7384
 2966TIP3    H130457   1.685   2.134   0.615  0.0707  0.8809 -1.2094
 2966TIP3    H230458   1.824   2.188   0.589  0.3717 -0.2443 -1.9808
 2967TIP3   OH230459   6.010   0.481   7.893 -0.4471  0.0783  0.4147
 2967TIP3    H130460   6.044   0.539   7.961  1.0837  0.3705 -0.5403
 2967TIP3    H230461   6.061   0.401   7.902  0.4718  0.4676 -0.9572
 2968TIP3   OH230462   5.024   3.676   0.466 -0.4486 -0.1461  0.6906
 2968TIP3    H130463   5.023   3.722   0.382 -0.3785  0.1963  0.8782
 2968TIP3    H230464   5.064   3.591   0.446 -1.0633 -0.3381  0.2380
 2969TIP3   OH230465   2.556   2.611   2.698  0.4056  0.5579 -0.0472
 2969TIP3    H130466   2.536   2.574   2.784 -1.0040 -1.6858 -1.2285
 2969TIP3    H230467   2.500   2.688   2.692  0.2357  0.5288  0.9073
 2970TIP3   OH230468   3.313   0.335   2.500 -0.4370  0.2553  0.1030
 2970TIP3    H130469   3.383   0.355   2.562 -1.1365  0.6841  0.7647
 2970TIP3    H230470   3.236   0.320   2.554 -1.2818  1.5537 -0.6753
 2971TIP3   OH230471   5.961   0.486   2.150  0.3359  0.7514  0.8254
 2971TIP3    H130472   5.881   0.529   2.182  0.4841  0.6527  1.3382
 2971TIP3    H230473   5.967   0.406   2.202 -2.7517 -2.7301 -3.4230
 2972TIP3   OH230474   3.953   6.586   1.738 -0.4187  0.0650  0.2269
 2972TIP3    H130475   3.993   6.548   1.659 -3.9568 -0.4364 -1.5017
 2972TIP3    H230476   3.923   6.510   1.789  0.3868  0.4320  1.2868
 2973TIP3   OH230477   6.799   5.901   1.457 -0.1339  0.4284 -0.2362
 2973TIP3    H130478   6.862   5.970   1.478 -0.2681  1.6644 -3.3042
 2973TIP3    H230479   6.790   5.850   1.538  2.2157  2.2244  1.2768
 2974TIP3   OH230480   2.892   0.125   8.741  0.4751  0.2919  0.2726
 2974TIP3    H130481   2.938   0.198   8.782 -0.8472  1.1280  0.3222
 2974TIP3    H230482   2.800   0.137   8.767 -0.1676  0.0236 -1.7207
 2975TIP3   OH230483   0.187   0.228   2.712 -0.1969 -0.6929  0.0426
 2975TIP3    H130484   0.208   0.156   2.653  0.9525 -1.5159  1.3897
 2975TIP3    H230485   0.267   0.241   2.763 -0.4862  1.3337  0.0641
 2976TIP3   OH230486   3.081   3.850   8.159  0.2934  0.0555  0.6396
 2976TIP3    H130487   3.104   3.758   8.170  1.5756  0.4284  1.2131
 2976TIP3    H230488   3.130   3.879   8.083  3.8293  1.4520  3.1868
 2977TIP3   OH230489   4.719   0.939   2.793  0.1484 -0.0256  0.2470
 2977TIP3    H130490   4.712   1.033   2.776  0.1954 -0.1147 -0.3039
 2977TIP3    H230491   4.813   0.923   2.804  0.1613 -0.0403  0.1203
 2978TIP3   OH230492   4.222   4.887   0.721  0.2736 -0.2385 -0.5472
 2978TIP3    H130493   4.183   4.922   0.801  0.4826 -0.4688 -0.3438
 2978TIP3    H230494   4.215   4.959   0.658  0.2754  0.0102 -0.2684
 2979TIP3   OH230495   6.420   0.760   0.038 -0.0628  0.7880  0.0127
 2979TIP3    H130496   6.386   0.843   0.074 -1.0284  1.2488 -1.8417
 2979TIP3    H230497   6.434   0.778  -0.055 -0.2344 -1.1277 -0.4249
 2980TIP3   OH230498   4.984   5.245   1.440 -0.3336 -0.4066 -0.0012
 2980TIP3    H130499   4.931   5.167   1.458  0.3581 -0.8184  0.2908
 2980TIP3    H230500   4.967   5.303   1.514  1.1032 -1.3442  1.1086
 2981TIP3   OH230501   2.795   1.347   8.760  0.1777 -0.1697 -0.5304
 2981TIP3    H130502   2.796   1.258   8.726 -1.0884 -0.2032 -0.5393
 2981TIP3    H230503   2.709   1.356   8.801  0.1380  1.1627 -0.8508
 2982TIP3   OH230504   1.247   1.567   2.771  0.2393  0.2332  0.0133
 2982TIP3    H130505   1.183   1.502   2.743 -0.0603 -0.1044  1.3859
 2982TIP3    H230506   1.328   1.542   2.728 -0.3194  0.1066 -0.9986
 2983TIP3   OH230507   0.890   2.818   1.639 -0.6422  0.0596  0.4080
 2983TIP3    H130508   0.898   2.727   1.666  2.1747  0.4612  1.2513
 2983TIP3    H230509   0.868   2.865   1.719  1.3767  0.4779  0.7720
 2984TIP3   OH230510   0.507   1.350   1.256 -0.1658  0.5322 -0.0693
 2984TIP3    H130511   0.584   1.385   1.212 -0.9767  2.4803 -0.0483
 2984TIP3    H230512   0.536   1.333   1.346  0.4843  0.3023 -0.3201
 2985TIP3   OH230513   6.596   4.035   8.324  0.3529 -0.1435 -0.2886
 2985TIP3    H130514   6.521   4.048   8.266 -0.8323 -1.4502  0.8723
 2985TIP3    H230515   6.638   3.956   8.292 -0.1737 -0.7419  0.4494
 2986TIP3   OH230516   4.325   3.028   1.488  0.0049 -0.2543 -0.1855
 2986TIP3    H130517   4.263   2.958   1.511 -2.4393  1.9261  0.3772
 2986TIP3    H230518   4.356   3.005   1.401 -0.8773 -1.9119 -0.1149
 2987TIP3   OH230519   6.652   5.176   8.330  0.2272  0.1680 -0.0521
 2987TIP3    H130520   6.680   5.153   8.241 -0.7215 -1.8080  0.1094
 2987TIP3    H230521   6.621   5.266   8.322  2.0476  0.7475 -1.2535
 2988TIP3   OH230522   1.671   5.809   8.567 -0.3819 -0.3649  0.5069
 2988TIP3    H130523   1.737   5.745   8.541  0.6440  0.5087  0.8998
 2988TIP3    H230524   1.666   5.800   8.662  1.4052  1.6125  0.8598
 2989TIP3   OH230525   6.670   4.291   8.320  0.5097  0.0202 -0.3655
 2989TIP3    H130526   6.624   4.336   8.249 -1.8097  0.4110  1.2454
 2989TIP3    H230527   6.631   4.204   8.322 -0.2735  0.3621  1.0474
 2990TIP3   OH230528   3.431   4.153   1.243 -0.2835  0.8221 -0.4555
 2990TIP3    H130529   3.350   4.188   1.205 -0.6556  1.7542  1.0879
 2990TIP3    H230530   3.464   4.092   1.178 -2.8085 -0.4025 -0.7187
 2991TIP3   OH230531   6.228   5.436   2.499  0.1134 -0.7441 -0.3025
 2991TIP3    H130532   6.210   5.436   2.593 -1.0686 -0.4113 -0.5174
 2991TIP3    H230533   6.161   5.493   2.461  1.8797  0.9024 -1.1132
 2992TIP3   OH230534   2.523   3.927   7.796  0.2861 -1.1061 -0.1773
 2992TIP3    H130535   2.472   3.945   7.717 -1.5965  0.5025  1.3137
 2992TIP3    H230536   2.486   3.984   7.863  3.3482 -0.6577  1.3305
 2993TIP3   OH230537   5.726   4.885   7.264  0.0484 -0.2671  0.4292
 2993TIP3    H130538   5.648   4.895   7.319  0.2919 -1.1206  0.9419
 2993TIP3    H230539   5.695   4.905   7.175 -0.1420  2.0410  0.9657
 2994TIP3   OH230540   1.377   5.957   8.823  0.4175  0.1835 -0.2457
 2994TIP3    H130541   1.379   6.027   8.889 -0.6849  0.3088 -0.3314
 2994TIP3    H230542   1.467   5.925   8.820  0.5206  0.2841  1.1983
 2995TIP3   OH230543   4.003   4.763   7.833 -0.3721  0.1052 -0.1639
 2995TIP3    H130544   3.958   4.714   7.763 -0.7653 -1.4765  1.1279
 2995TIP3    H230545   4.061   4.698   7.874  0.1503  1.1016  0.7091
 2996TIP3   OH230546   0.513   0.254   8.643  0.4433  0.3351 -0.3003
 2996TIP3    H130547   0.425   0.231   8.673  0.1883  0.3807 -0.9786
 2996TIP3    H230548   0.503   0.263   8.548  1.3269 -0.3251 -0.4652
 2997TIP3   OH230549   1.489   5.551   1.392  0.4346 -0.2297  0.1895
 2997TIP3    H130550   1.442   5.574   1.472 -1.0253 -1.7122 -0.2041
 2997TIP3    H230551   1.548   5.625   1.377 -0.0286  0.5658  2.0327
 2998TIP3   OH230552   4.096   1.156   7.371  0.1626 -0.2541  0.4313
 2998TIP3    H130553   4.048   1.190   7.295  0.0630 -0.6904  0.2980
 2998TIP3    H230554   4.146   1.231   7.403 -1.3263  0.4670  1.1531
 2999TIP3   OH230555   0.745   6.779   8.845 -0.3415 -0.2547 -0.1019
 2999TIP3    H130556   0.662   6.822   8.864  0.0265  0.6330 -0.4510
 2999TIP3    H230557   0.722   6.705   8.788 -1.1291 -1.3463  1.5505
 3000TIP3   OH230558   4.593   2.294   8.866 -0.3356  0.4769 -0.4059
 3000TIP3    H130559   4.528   2.233   8.900 -0.8366  0.7468 -0.8450
 3000TIP3    H230560   4.541   2.366   8.830  0.2523  1.9554  1.5264
 3001TIP3   OH230561   2.344   4.604   7.331  0.3437 -0.9071 -0.4932
 3001TIP3    H130562   2.367   4.676   7.272  1.6795 -1.0321 -0.1571
 3001TIP3    H230563   2.428   4.576   7.368 -0.5363  0.5876  3.1602
 3002TIP3   OH230564   2.336   5.674   8.037 -0.0228  0.3081  0.0130
 3002TIP3    H130565   2.398   5.607   8.009 -1.1547 -0.0706 -1.7550
 3002TIP3    H230566   2.390   5.747   8.068  1.2561 -0.4371 -0.4441
 3003TIP3   OH230567   3.337   4.937   0.514 -0.0716  0.2530 -0.2570
 3003TIP3    H130568   3.293   4.863   0.555 -1.5388  0.6082 -1.1258
 3003TIP3    H230569   3.401   4.966   0.580  0.1011 -1.3594  0.3434
 3004TIP3   OH230570   4.183   6.256   2.073  0.2015 -0.5637 -0.0285
 3004TIP3    H130571   4.174   6.348   2.052 -1.9214 -0.9965 -1.3505
 3004TIP3    H230572   4.138   6.246   2.157 -1.3488 -0.6790 -0.8358
 3005TIP3   OH230573   0.305   1.382   7.683  0.8730 -0.0607  0.0913
 3005TIP3    H130574   0.241   1.382   7.612  1.9095 -0.9590 -0.8889
 3005TIP3    H230575   0.255   1.405   7.761 -0.4429  0.1983 -0.7996
 3006TIP3   OH230576   3.328   5.949   2.583  0.2408 -0.2561 -0.0287
 3006TIP3    H130577   3.345   5.915   2.670  0.1541 -0.5266 -0.1147
 3006TIP3    H230578   3.241   5.914   2.560  0.4738 -0.5918 -0.4148
 3007TIP3   OH230579   3.782   4.705   8.718  0.1190 -0.1232 -0.0100
 3007TIP3    H130580   3.845   4.746   8.658 -0.0866 -0.9241 -0.7862
 3007TIP3    H230581   3.834   4.645   8.770 -0.1152 -1.5038 -1.3039
 3008TIP3   OH230582   4.289   6.269   8.875  0.3807  0.1477 -0.5428
 3008TIP3    H130583   4.256   6.179   8.870  0.9866 -0.0240 -2.3418
 3008TIP3    H230584   4.278   6.303   8.786 -1.7966  2.6208  0.5392
 3009TIP3   OH230585   6.045   5.383   1.004  0.2717 -0.8374 -0.0841
 3009TIP3    H130586   5.999   5.303   1.030  2.0404 -1.4568  1.2913
 3009TIP3    H230587   5.993   5.417   0.931 -2.6016 -1.2141  1.6582
 3010TIP3   OH230588   1.405   2.221   2.908  0.0047  0.1012  0.6580
 3010TIP3    H130589   1.471   2.286   2.931 -0.5128  0.9951 -0.3348
 3010TIP3    H230590   1.404   2.161   2.983  1.8876  0.0907  0.7291
 3011TIP3   OH230591   1.668   3.830   2.657 -0.3215 -0.2245  0.4135
 3011TIP3    H130592   1.697   3.793   2.740  2.2472 -0.4105 -0.4756
 3011TIP3    H230593   1.710   3.915   2.653 -0.1017 -0.3765 -0.8351
 3012TIP3   OH230594   0.236   1.016   0.334  0.1797 -0.4360 -0.4167
 3012TIP3    H130595   0.272   0.954   0.398 -1.1566 -1.2011 -0.3590
 3012TIP3    H230596   0.293   1.008   0.258  1.1004 -0.3776  0.2505
 3013TIP3   OH230597   4.164   6.347   0.914 -0.4538 -0.0929  0.2318
 3013TIP3    H130598   4.256   6.340   0.889 -0.9223 -0.6317 -1.4773
 3013TIP3    H230599   4.123   6.394   0.842 -1.7334 -0.9653  0.3661
 3014TIP3   OH230600   3.734   6.264   8.056  0.2264 -0.4076  0.5426
 3014TIP3    H130601   3.778   6.228   8.133  0.1695 -0.9273  0.3343
 3014TIP3    H230602   3.798   6.324   8.018  0.1969 -0.0318  1.0821
 3015TIP3   OH230603   2.863   3.199   8.717  0.2346 -0.4405 -0.6188
 3015TIP3    H130604   2.800   3.252   8.766  0.3963 -0.0159 -0.8717
 3015TIP3    H230605   2.874   3.120   8.771 -0.3757 -0.4431 -0.4815
 3016TIP3   OH230606   5.365   1.844   2.404 -0.1151  0.3466  0.4918
 3016TIP3    H130607   5.393   1.759   2.437 -0.5014 -0.2457 -0.6451
 3016TIP3    H230608   5.302   1.823   2.334 -0.1045  1.5567  0.0969
 3017TIP3   OH230609   1.691   0.853   0.857  0.1052  0.2304  0.0003
 3017TIP3    H130610   1.696   0.882   0.765 -1.5447  1.1452  0.1582
 3017TIP3    H230611   1.636   0.775   0.855  0.0140  0.2885  0.2271
 3018TIP3   OH230612   5.429   6.335   8.774 -0.0004 -0.0805  0.1284
 3018TIP3    H130613   5.445   6.354   8.681  0.3934 -0.8779  0.0160
 3018TIP3    H230614   5.499   6.381   8.820 -0.3027  0.4652  0.0483
 3019TIP3   OH230615   4.427   5.141   0.742 -0.0522 -0.1403  0.4667
 3019TIP3    H130616   4.471   5.208   0.794 -0.1090  0.6410 -0.4670
 3019TIP3    H230617   4.446   5.059   0.788  2.3487  0.1515  0.1601
 3020TIP3   OH230618   1.855   1.276   0.521  0.4745 -0.0094 -0.0741
 3020TIP3    H130619   1.869   1.241   0.434  0.3434 -0.1211 -0.0498
 3020TIP3    H230620   1.788   1.220   0.560  1.4235 -0.7446  0.5532
 3021TIP3   OH230621   5.152   5.305   8.225  0.4813  0.3618  0.7014
 3021TIP3    H130622   5.181   5.344   8.143 -0.7318 -0.1435 -0.0059
 3021TIP3    H230623   5.075   5.355   8.249  0.3304 -0.0399  1.0711
 3022TIP3   OH230624   2.576   6.595   8.591 -0.9671  0.1126 -0.7867
 3022TIP3    H130625   2.624   6.664   8.545  2.2784 -0.6376  1.1626
 3022TIP3    H230626   2.520   6.643   8.652 -0.5248  1.0375 -1.0780
 3023TIP3   OH230627   1.378   5.646   3.033  0.5115  0.2083  0.5204
 3023TIP3    H130628   1.425   5.710   3.087 -0.3106  2.2197 -1.0112
 3023TIP3    H230629   1.431   5.638   2.954  0.2137 -0.4336  0.3820
 3024TIP3   OH230630   2.383   5.104   6.878  0.6893 -0.1223  0.2565
 3024TIP3    H130631   2.396   5.198   6.879 -0.0735  0.0883 -2.4644
 3024TIP3    H230632   2.333   5.086   6.958 -0.5354  2.0164  0.0459
 3025TIP3   OH230633   4.828   5.391   0.458  0.0474 -0.5705  0.7105
 3025TIP3    H130634   4.836   5.464   0.519 -0.4101 -0.7716  1.0194
 3025TIP3    H230635   4.752   5.413   0.404 -0.2406 -0.9309  0.9665
 3026TIP3   OH230636   2.422   2.657   1.864 -0.4361 -0.0518 -0.3689
 3026TIP3    H130637   2.437   2.682   1.955 -0.3544  3.5305 -1.1886
 3026TIP3    H230638   2.498   2.692   1.817 -0.7065 -1.4100 -1.8893
 3027TIP3   OH230639   5.273   1.759   8.505  0.2670 -0.1632  0.1240
 3027TIP3    H130640   5.186   1.798   8.506  0.3086 -0.0769  0.7827
 3027TIP3    H230641   5.266   1.684   8.564  0.1326 -1.2928 -1.2752
 3028TIP3   OH230642   2.412   4.402   0.613  0.1338  0.1220 -0.3724
 3028TIP3    H130643   2.351   4.417   0.541 -1.3499 -0.8787  0.6239
 3028TIP3    H230644   2.498   4.426   0.577 -0.6972  0.6307 -2.1232
 3029TIP3   OH230645   5.526   0.300   2.562 -0.3743  0.0368  0.7072
 3029TIP3    H130646   5.432   0.283   2.563 -0.1741 -1.2033  1.8209
 3029TIP3    H230647   5.559   0.256   2.641  1.0498  0.9865  0.6724
 3030TIP3   OH230648   3.341   4.732   8.800 -0.6848  0.4952  0.0019
 3030TIP3    H130649   3.318   4.657   8.746 -3.5983  1.7172 -0.6479
 3030TIP3    H230650   3.283   4.726   8.875  0.1275  1.2790  0.7087
 3031TIP3   OH230651   1.719   5.022   0.055 -0.3407 -0.3150 -0.0871
 3031TIP3    H130652   1.639   5.058   0.016  0.4288  0.2977 -1.1768
 3031TIP3    H230653   1.788   5.079   0.022  0.5692 -0.9387  0.7022
 3032TIP3   OH230654   6.074   5.582   0.249 -0.0878 -0.1911  0.1228
 3032TIP3    H130655   6.065   5.571   0.344 -1.6140  0.8037  0.1223
 3032TIP3    H230656   6.158   5.541   0.229  0.4508 -0.1028  1.9562
 3033TIP3   OH230657   2.319   0.166   2.981 -0.5831  0.6022  0.0204
 3033TIP3    H130658   2.230   0.178   3.013 -1.5416 -0.8803 -1.9201
 3033TIP3    H230659   2.329   0.231   2.911  0.8614  2.5704  1.9015
 3034TIP3   OH230660   4.613   6.438   2.436 -0.1267 -0.2557 -0.2353
 3034TIP3    H130661   4.642   6.529   2.439 -0.8447 -0.0320  2.0023
 3034TIP3    H230662   4.575   6.422   2.523  0.1389 -2.7512 -0.5052
 3035TIP3   OH230663   3.568   3.926   0.045 -0.3283  0.5415 -0.1541
 3035TIP3    H130664   3.561   4.021   0.037 -0.7611  0.3650 -2.3721
 3035TIP3    H230665   3.489   3.900   0.091 -0.7488  1.1613 -0.5126
 3036TIP3   OH230666   2.741   1.110   8.294 -0.2806  0.6765  0.4637
 3036TIP3    H130667   2.740   1.130   8.201 -1.2775 -0.5518  0.1978
 3036TIP3    H230668   2.725   1.195   8.337  0.6146  1.3219 -0.4465
 3037TIP3   OH230669   1.269   1.831   7.875 -0.1011  0.2587  0.5369
 3037TIP3    H130670   1.351   1.875   7.854 -1.3991  2.8134  0.4896
 3037TIP3    H230671   1.243   1.789   7.793  0.7487  0.1033  0.3388
 3038TIP3   OH230672   5.801   1.431   0.989  0.2010 -0.6159  0.2412
 3038TIP3    H130673   5.780   1.420   1.082 -0.5285 -0.0892  0.1403
 3038TIP3    H230674   5.841   1.348   0.964 -0.5937 -1.1684  0.7562
 3039TIP3   OH230675   4.135   6.720   0.050  0.4002 -0.2992  0.0799
 3039TIP3    H130676   4.197   6.716   0.122  0.0229  0.3658  0.4551
 3039TIP3    H230677   4.141   6.811   0.018 -1.3567  0.2068  1.0264
 3040TIP3   OH230678   4.998   1.157   8.413 -0.9673  0.0027  0.3646
 3040TIP3    H130679   4.959   1.112   8.488  0.0381 -0.0771  0.8534
 3040TIP3    H230680   5.063   1.096   8.379  0.8615  1.2708  1.4093
 3041TIP3   OH230681   1.507   6.068   0.978  0.6289  0.2872  0.1604
 3041TIP3    H130682   1.440   6.008   0.945  0.3647  1.2057 -1.0776
 3041TIP3    H230683   1.520   6.130   0.906  1.9422  0.8443  0.8449
 3042TIP3   OH230684   2.529   0.714   8.607 -0.1296  0.3864 -0.9085
 3042TIP3    H130685   2.570   0.642   8.559  0.3890  0.2192 -0.2338
 3042TIP3    H230686   2.581   0.791   8.584  1.1193  0.0334  0.5829
 3043TIP3   OH230687   0.796   6.502   8.717 -0.0592 -0.8621 -0.3119
 3043TIP3    H130688   0.769   6.411   8.705 -1.4298 -0.5564  0.2427
 3043TIP3    H230689   0.892   6.499   8.718  0.0385 -1.9147 -3.1803
 3044TIP3   OH230690   3.612   1.262   2.551 -0.3022  0.5689 -0.1701
 3044TIP3    H130691   3.612   1.278   2.646  1.3997 -1.1879  0.2028
 3044TIP3    H230692   3.528   1.296   2.521 -0.9936  0.9583  2.0098
 3045TIP3   OH230693   1.774   6.737   0.266  0.3352  0.3257  0.5846
 3045TIP3    H130694   1.819   6.704   0.189  0.5600 -0.5714  1.0801
 3045TIP3    H230695   1.744   6.824   0.241  1.5386  0.5768 -0.0725
 3046TIP3   OH230696   0.131   5.917   2.820 -0.1081 -0.0310  0.4944
 3046TIP3    H130697   0.107   5.824   2.825 -0.9114  0.2147  1.5584
 3046TIP3    H230698   0.063   5.962   2.870  0.8478  1.0286  0.8911
 3047TIP3   OH230699   2.231   0.094   0.063  0.3091  0.0838  0.6555
 3047TIP3    H130700   2.160   0.031   0.073 -0.5589  0.9017 -0.1446
 3047TIP3    H230701   2.298   0.047   0.013 -0.5516 -0.0525 -0.4005
 3048TIP3   OH230702   6.544   0.498   1.454 -0.0396  0.4563  0.1697
 3048TIP3    H130703   6.490   0.420   1.438  1.1238 -0.5087  0.7500
 3048TIP3    H230704   6.508   0.564   1.396 -1.0494 -0.5261 -0.3688
 3049TIP3   OH230705   6.107   0.697   2.363  0.1826  0.0981  0.3200
 3049TIP3    H130706   6.142   0.749   2.291  1.8718 -0.3965  0.7210
 3049TIP3    H230707   6.025   0.661   2.330  0.0406  1.2965 -0.7077
 3050TIP3   OH230708   0.502   4.891   0.907  0.3150  0.0714  0.8445
 3050TIP3    H130709   0.571   4.842   0.951 -0.1481 -0.4781  0.9697
 3050TIP3    H230710   0.423   4.838   0.919 -0.0537  0.4999  0.3718
 3051TIP3   OH230711   2.661   2.022   7.256  0.0235 -0.3622  1.2307
 3051TIP3    H130712   2.730   2.068   7.304  0.4900 -0.6315  0.8252
 3051TIP3    H230713   2.695   1.933   7.243  1.4237  0.5325 -2.4924
 3052TIP3   OH230714   3.107   1.908   8.659 -0.3793 -0.4699 -0.5260
 3052TIP3    H130715   3.129   1.867   8.742 -0.8039 -1.1133 -0.7198
 3052TIP3    H230716   3.119   2.002   8.674 -1.5388 -0.4773  0.6105
 3053TIP3   OH230717   0.174   0.829   1.771 -0.3225  0.0499 -0.5583
 3053TIP3    H130718   0.096   0.883   1.764 -0.4396  0.0131  0.3226
 3053TIP3    H230719   0.217   0.859   1.851 -0.1081 -0.7853 -0.3474
 3054TIP3   OH230720   4.725   1.400   1.542  0.0932 -0.3836 -0.1044
 3054TIP3    H130721   4.685   1.456   1.608  0.7662  0.7185 -0.5985
 3054TIP3    H230722   4.793   1.351   1.589 -0.2796 -0.5561  0.2606
 3055TIP3   OH230723   4.987   0.842   2.962 -0.2863 -0.0197  0.3827
 3055TIP3    H130724   5.019   0.762   3.004  0.5945  0.0878 -0.0734
 3055TIP3    H230725   5.062   0.901   2.961 -1.1931  1.2079  1.6142
 3056TIP3   OH230726   3.578   4.958   2.458 -0.2351  1.1179  0.0322
 3056TIP3    H130727   3.663   4.925   2.431  0.2008  2.7900 -0.7448
 3056TIP3    H230728   3.594   4.998   2.543 -0.6432 -0.0968  0.7067
 3057TIP3   OH230729   5.076   5.196   1.867 -0.1503 -0.2241  0.2112
 3057TIP3    H130730   5.053   5.280   1.827  0.0840  0.2397  1.0217
 3057TIP3    H230731   5.147   5.218   1.928  0.1954 -1.0850  0.1293
 3058TIP3   OH230732   5.373   1.067   1.648  0.0815 -0.2324  0.2666
 3058TIP3    H130733   5.416   1.091   1.566  1.9128 -1.8130  0.7079
 3058TIP3    H230734   5.444   1.048   1.708 -1.2281  0.5985  2.1820
 3059TIP3   OH230735   5.488   1.078   7.939 -0.5365  0.0608  0.2108
 3059TIP3    H130736   5.552   1.144   7.912 -0.5426 -0.3167 -0.7564
 3059TIP3    H230737   5.431   1.124   8.000 -0.3614  0.8728 -0.2167
 3060TIP3   OH230738   5.805   4.001   8.322  0.2506 -0.0672 -0.3897
 3060TIP3    H130739   5.800   4.064   8.394 -1.9410 -0.0795 -0.4494
 3060TIP3    H230740   5.714   3.977   8.305  0.8555 -1.4995 -1.9262
 3061TIP3   OH230741   2.722   3.646   1.966 -0.1214  0.3254  0.7520
 3061TIP3    H130742   2.687   3.666   2.053 -0.1736  0.3173  0.7329
 3061TIP3    H230743   2.715   3.729   1.918 -2.2055 -0.1907  0.0284
 3062TIP3   OH230744   4.567   1.632   0.826  0.1629  0.1308 -0.2000
 3062TIP3    H130745   4.647   1.594   0.864 -0.6731 -0.2126  1.3258
 3062TIP3    H230746   4.581   1.726   0.831  1.7823  0.1177 -2.9593
 3063TIP3   OH230747   4.469   3.715   2.144 -0.0363  0.2240 -0.1398
 3063TIP3    H130748   4.534   3.703   2.074  0.7699 -1.3621  0.8135
 3063TIP3    H230749   4.515   3.689   2.224 -2.0698 -1.8671  0.4571
 3064TIP3   OH230750   5.770   2.109   8.185  0.6016 -0.5488 -0.1681
 3064TIP3    H130751   5.829   2.047   8.143  2.1727  1.3441 -0.8891
 3064TIP3    H230752   5.745   2.169   8.115  1.3890  1.2869  1.0406
 3065TIP3   OH230753   5.722   1.397   0.490 -0.4034  0.0242 -0.3729
 3065TIP3    H130754   5.696   1.424   0.578 -2.3484  1.7211 -1.3817
 3065TIP3    H230755   5.818   1.403   0.490 -0.4737  2.0756  1.0035
 3066TIP3   OH230756   5.854   0.801   0.882  0.0585  0.5583 -0.6783
 3066TIP3    H130757   5.859   0.792   0.977  0.3823  0.2073 -0.7291
 3066TIP3    H230758   5.795   0.876   0.868 -1.3509 -0.4249 -0.2255
 3067TIP3   OH230759   4.443   5.628   1.170 -0.3540 -0.2819  0.4013
 3067TIP3    H130760   4.451   5.555   1.232  0.6249 -0.9555 -0.4762
 3067TIP3    H230761   4.504   5.606   1.100 -2.4717 -0.3120 -1.5532
 3068TIP3   OH230762   2.553   4.293   2.781  0.0441  0.9215 -0.0733
 3068TIP3    H130763   2.543   4.312   2.875 -0.9372 -1.3005  0.3517
 3068TIP3    H230764   2.479   4.337   2.739 -0.3035  0.8005  0.4022
 3069TIP3   OH230765   6.171   5.665   8.456 -0.0095 -0.0948  0.0338
 3069TIP3    H130766   6.181   5.569   8.456  0.5827 -0.0674  1.3937
 3069TIP3    H230767   6.210   5.692   8.539 -0.4185  1.3116 -0.2133
 3070TIP3   OH230768   6.380   2.863   1.660  0.8748 -0.1291  0.7346
 3070TIP3    H130769   6.364   2.911   1.578  1.6240 -1.7252 -0.3850
 3070TIP3    H230770   6.335   2.915   1.727 -2.3461 -0.3397 -1.0823
 3071TIP3   OH230771   1.316   4.834   2.256 -0.3307  0.2268 -0.3569
 3071TIP3    H130772   1.295   4.915   2.302 -0.1175  0.2147 -0.2374
 3071TIP3    H230773   1.244   4.774   2.276 -1.2430  0.8493 -1.6075
 3072TIP3   OH230774   1.370   3.313   0.041  0.4816 -0.3692 -0.1813
 3072TIP3    H130775   1.312   3.266  -0.019  2.4429 -0.9634 -1.7464
 3072TIP3    H230776   1.455   3.269   0.031  1.1118  0.0547  2.4663
 3073TIP3   OH230777   4.350   6.331   0.411 -0.2153 -0.1103 -0.1614
 3073TIP3    H130778   4.421   6.392   0.431 -0.7880  0.5206 -0.0155
 3073TIP3    H230779   4.385   6.274   0.343  0.2100  0.6010 -0.5430
 3074TIP3   OH230780   6.471   3.203   7.786 -0.7587 -0.0616 -0.3846
 3074TIP3    H130781   6.395   3.178   7.733 -0.7101 -1.7137  0.2863
 3074TIP3    H230782   6.510   3.121   7.814  1.2534  0.7350 -0.6280
 3075TIP3   OH230783   3.584   1.609   0.657  0.1451 -0.1705 -0.9561
 3075TIP3    H130784   3.551   1.539   0.714  0.2029  1.1333  0.7750
 3075TIP3    H230785   3.676   1.587   0.644  0.9032  0.8705  1.8347
 3076TIP3   OH230786   3.231   5.467   8.498  0.3673 -0.4614 -0.2976
 3076TIP3    H130787   3.162   5.447   8.561  1.3857  0.1455  1.0457
 3076TIP3    H230788   3.312   5.448   8.545  1.1680  0.6110 -1.2055
 3077TIP3   OH230789   6.232   0.673   1.086  0.4776 -0.0302 -0.1693
 3077TIP3    H130790   6.208   0.606   1.021  0.6189 -2.1402  1.7976
 3077TIP3    H230791   6.168   0.661   1.156  1.2438  1.1206  0.7540
 3078TIP3   OH230792   0.746   5.377   7.157 -0.2689 -0.3408  0.6517
 3078TIP3    H130793   0.809   5.418   7.098  0.8528  0.2340  2.1705
 3078TIP3    H230794   0.764   5.283   7.150  0.3601 -0.2227  0.6143
 3079TIP3   OH230795   6.453   2.532   2.406 -0.0606 -0.5678 -0.2868
 3079TIP3    H130796   6.467   2.569   2.319 -1.0055 -0.7781 -0.5437
 3079TIP3    H230797   6.530   2.557   2.456 -0.3320  1.0998 -0.6650
 3080TIP3   OH230798   5.521   1.846   8.582  0.1470  0.4048  0.1206
 3080TIP3    H130799   5.507   1.827   8.675 -0.2018  1.8401  0.3807
 3080TIP3    H230800   5.437   1.826   8.541 -0.2420  1.3887  0.4048
 3081TIP3   OH230801   4.495   6.386   2.680 -0.3476  1.1619  0.7043
 3081TIP3    H130802   4.446   6.353   2.755  0.2751 -1.5089  0.0421
 3081TIP3    H230803   4.490   6.482   2.688 -0.4499  0.9854  4.0052
 3082TIP3   OH230804   3.309   5.137   0.761  0.4802  0.3733  0.0078
 3082TIP3    H130805   3.391   5.109   0.721 -0.1295 -1.8681  0.1819
 3082TIP3    H230806   3.335   5.184   0.840  1.6614 -1.3334  0.7102
 3083TIP3   OH230807   0.394   4.879   7.555 -1.0381 -0.2527  0.0681
 3083TIP3    H130808   0.404   4.966   7.516 -2.3380 -0.0472  0.1565
 3083TIP3    H230809   0.456   4.878   7.628  0.8098 -0.3298 -1.4259
 3084TIP3   OH230810   4.759   0.913   1.628  0.2916 -0.1597  0.6283
 3084TIP3    H130811   4.837   0.861   1.648 -0.7822 -1.3631  1.9698
 3084TIP3    H230812   4.686   0.850   1.635 -0.8751  1.1079  0.3020
 3085TIP3   OH230813   6.790   5.202   0.438  0.0168  0.3249  0.2684
 3085TIP3    H130814   6.831   5.193   0.524 -1.4024 -1.6569  0.7937
 3085TIP3    H230815   6.700   5.175   0.451 -0.5995  1.3208 -1.5850
 3086TIP3   OH230816   1.316   0.229   0.778  0.4816 -0.8000  0.3156
 3086TIP3    H130817   1.292   0.211   0.687  0.1028 -1.0940  0.4708
 3086TIP3    H230818   1.412   0.224   0.780  0.4461 -1.6840  0.1184
 3087TIP3   OH230819   0.404   2.496   1.136 -0.1359  0.4095 -0.0689
 3087TIP3    H130820   0.391   2.411   1.093 -1.3254 -0.1009  1.2208
 3087TIP3    H230821   0.495   2.519   1.117 -0.1421 -0.5725 -1.4341
 3088TIP3   OH230822   2.270   0.631   3.212 -0.2756  0.0964 -0.1311
 3088TIP3    H130823   2.201   0.685   3.250  0.5014 -0.3834  2.1034
 3088TIP3    H230824   2.334   0.620   3.282 -0.0541 -3.1326 -0.6788
 3089TIP3   OH230825   4.653   5.528   1.025 -0.0899 -0.4859  0.0059
 3089TIP3    H130826   4.598   5.538   0.948  0.2634  0.0391 -0.1852
 3089TIP3    H230827   4.739   5.561   0.998 -0.6962  2.5932  1.4736
 3090TIP3   OH230828   4.532   5.913   1.237 -0.1538  0.2078  0.1150
 3090TIP3    H130829   4.624   5.903   1.262  0.3296  0.5839 -1.3884
 3090TIP3    H230830   4.503   5.824   1.217 -0.3461 -0.0051  1.2697
 3091TIP3   OH230831   0.223   5.028   2.225 -0.1680  0.4835  0.1590
 3091TIP3    H130832   0.235   5.111   2.271  3.0416 -0.0435  0.5369
 3091TIP3    H230833   0.240   4.961   2.291 -0.2518 -0.4145 -0.7035
 3092TIP3   OH230834   2.956   2.762   8.392 -0.1047  0.6895 -0.1007
 3092TIP3    H130835   2.909   2.796   8.468 -2.0919 -1.2067 -0.3760
 3092TIP3    H230836   2.963   2.668   8.409  1.0076  0.4944 -1.4735
 3093TIP3   OH230837   5.566   0.053   3.359  0.1234  0.1234 -0.2277
 3093TIP3    H130838   5.621  -0.014   3.399 -0.4179 -0.5390 -0.5647
 3093TIP3    H230839   5.550   0.116   3.429 -0.9900 -1.1379  0.7034
 3094TIP3   OH230840   0.732   0.035   3.470 -0.1879  0.2201 -0.3134
 3094TIP3    H130841   0.663   0.077   3.419 -0.7521  0.6717  0.7865
 3094TIP3    H230842   0.691  -0.044   3.506 -0.2547  0.6763  0.6374
 3095TIP3   OH230843   2.075   0.661   8.644  0.1286  0.4810 -0.1857
 3095TIP3    H130844   2.136   0.630   8.711 -1.2500 -0.9882  0.4396
 3095TIP3    H230845   2.082   0.598   8.573 -1.0175 -0.0227  0.1183
 3096TIP3   OH230846   1.225   1.138   1.686  0.0187 -0.4085 -0.2206
 3096TIP3    H130847   1.294   1.156   1.622 -0.1762 -1.4370 -0.7431
 3096TIP3    H230848   1.271   1.124   1.769  0.6972 -3.1874 -0.9560
 3097TIP3   OH230849   6.731   5.991   2.081  0.2163  0.1761 -0.2095
 3097TIP3    H130850   6.691   5.906   2.096  3.0031 -1.1800  0.1673
 3097TIP3    H230851   6.793   6.002   2.153  1.1736  1.6958 -1.1836
 3098TIP3   OH230852   4.945   3.205   1.158 -0.2727 -0.0350  0.3783
 3098TIP3    H130853   5.005   3.272   1.126 -0.3577  0.5672  1.4550
 3098TIP3    H230854   4.912   3.239   1.241  0.3806 -1.8085  1.4262
 3099TIP3   OH230855   2.167   4.135   0.411  0.2147 -0.1256  0.0010
 3099TIP3    H130856   2.210   4.211   0.370 -0.7755 -0.1325 -1.1269
 3099TIP3    H230857   2.208   4.127   0.497  0.6797  1.3918 -0.0550
 3100TIP3   OH230858   5.189   0.284   3.095  0.8554  0.1364 -0.2364
 3100TIP3    H130859   5.105   0.325   3.112  0.7717 -0.3649  0.6231
 3100TIP3    H230860   5.168   0.195   3.069  1.1221 -0.0711  0.2355
 3101TIP3   OH230861   5.825   5.757   2.422 -0.3344  0.1803  0.1537
 3101TIP3    H130862   5.742   5.711   2.405 -0.2159 -0.6416  1.5628
 3101TIP3    H230863   5.826   5.768   2.518  0.1952  2.1224 -0.0370
 3102TIP3   OH230864   4.339   2.938   3.188  0.2437  0.1290 -0.3322
 3102TIP3    H130865   4.350   2.862   3.131 -0.3353 -1.5898  1.7453
 3102TIP3    H230866   4.267   2.915   3.246  1.0295  1.6329  1.3477
 3103TIP3   OH230867   1.230   1.359   0.343  0.3766 -0.0162 -0.3114
 3103TIP3    H130868   1.260   1.439   0.387  2.5594 -1.1459  0.4452
 3103TIP3    H230869   1.139   1.350   0.370  1.1133  0.2851  2.6623
 3104TIP3   OH230870   3.500   2.038   0.818 -0.0009  0.0237 -0.4016
 3104TIP3    H130871   3.505   1.961   0.875  0.8451 -1.8098 -2.8019
 3104TIP3    H230872   3.586   2.079   0.825  0.1804 -0.3319 -0.5288
 3105TIP3   OH230873   0.023   6.253   0.549  0.0636  0.2849  0.2878
 3105TIP3    H130874   0.025   6.278   0.456  1.7096  0.8574  0.4341
 3105TIP3    H230875   0.085   6.314   0.590  0.5891 -1.0215  1.4838
 3106TIP3   OH230876   2.322   0.773   8.375 -0.0148 -0.2830  0.5615
 3106TIP3    H130877   2.366   0.720   8.442 -0.8535 -0.1184  1.2627
 3106TIP3    H230878   2.381   0.770   8.300  1.1662 -0.0909  1.4537
 3107TIP3   OH230879   6.772   1.665   1.479 -0.3024 -0.3070  0.3474
 3107TIP3    H130880   6.791   1.697   1.391 -0.8104 -0.4573  0.1826
 3107TIP3    H230881   6.789   1.741   1.536 -0.5521 -0.0334  0.0593
 3108TIP3   OH230882   2.434   3.738   8.584  0.7283 -0.2406  0.1540
 3108TIP3    H130883   2.371   3.683   8.540  0.7669 -0.8192  0.7950
 3108TIP3    H230884   2.496   3.764   8.516 -0.8887  1.4095 -0.7653
 3109TIP3   OH230885   3.752   2.447   8.533  0.4191 -0.1285 -0.1756
 3109TIP3    H130886   3.740   2.399   8.615  1.1973 -0.6676 -0.3716
 3109TIP3    H230887   3.846   2.446   8.518  0.2890  0.0041 -1.0555
 3110TIP3   OH230888   1.114   5.248   2.154  0.0624  0.5186 -0.1824
 3110TIP3    H130889   1.061   5.192   2.211 -1.2365  1.9984  0.1171
 3110TIP3    H230890   1.068   5.332   2.153  0.4014  0.7535 -2.8968
 3111TIP3   OH230891   2.810   1.489   0.261  0.1741  0.3290  0.5458
 3111TIP3    H130892   2.800   1.488   0.356 -0.7701 -1.1010  0.4737
 3111TIP3    H230893   2.885   1.546   0.245  1.8805 -1.2381  2.3358
 3112TIP3   OH230894   2.557   1.469   3.256  0.0021 -0.1988  0.3111
 3112TIP3    H130895   2.562   1.558   3.289 -1.3376  0.6384 -1.5552
 3112TIP3    H230896   2.464   1.447   3.261 -0.2240 -0.1345 -2.4703
 3113TIP3   OH230897   6.771   2.560   0.261  0.0934  0.3118  0.3210
 3113TIP3    H130898   6.754   2.552   0.167 -0.0886  0.8759  0.3017
 3113TIP3    H230899   6.866   2.557   0.269  0.0867 -2.7271  0.4080
 3114TIP3   OH230900   1.453   1.699   0.783  0.1711  0.0380 -0.1200
 3114TIP3    H130901   1.492   1.779   0.746  0.9454 -0.7362 -1.0142
 3114TIP3    H230902   1.506   1.628   0.748 -0.3709 -0.8681  0.8499
 3115TIP3   OH230903   0.615   5.876   0.301 -0.2382 -0.2519  0.6581
 3115TIP3    H130904   0.600   5.905   0.391 -0.4814  0.5690  0.3722
 3115TIP3    H230905   0.709   5.861   0.295 -0.0747  0.6474  0.7944
 3116TIP3   OH230906   2.817   3.333   8.141  0.5569  0.6196 -0.0745
 3116TIP3    H130907   2.801   3.319   8.047 -0.6254 -1.9197  0.4203
 3116TIP3    H230908   2.796   3.425   8.155 -3.6511  0.1175 -1.5819
 3117TIP3   OH230909   6.033   4.877   1.275  0.2243  0.7518  0.2569
 3117TIP3    H130910   6.004   4.819   1.205  1.9395 -0.0807  0.1658
 3117TIP3    H230911   5.953   4.902   1.321 -0.7613 -0.0584 -0.9562
 3118TIP3   OH230912   3.495   0.738   2.592 -0.4882  0.2357 -0.2940
 3118TIP3    H130913   3.421   0.677   2.591  0.7265 -1.2889 -1.5124
 3118TIP3    H230914   3.527   0.738   2.502  2.1137 -0.5597  0.5419
 3119TIP3   OH230915   2.271   2.775   3.051  0.0768  0.5182 -0.3109
 3119TIP3    H130916   2.263   2.869   3.033  0.8663  0.6886  0.1336
 3119TIP3    H230917   2.249   2.732   2.969 -3.0642  0.9451  0.1896
 3120TIP3   OH230918   1.243   5.763   1.162 -0.1684 -0.2637 -0.4950
 3120TIP3    H130919   1.190   5.725   1.091  1.9705 -1.4150 -1.5567
 3120TIP3    H230920   1.257   5.690   1.222  1.0664 -0.2751 -0.7778
 3121TIP3   OH230921   2.352   1.607   7.731 -0.1057  0.3518  0.1371
 3121TIP3    H130922   2.345   1.700   7.709 -0.0836  0.0728 -1.1654
 3121TIP3    H230923   2.268   1.570   7.706 -0.0339 -0.0199  0.4426
 3122TIP3   OH230924   0.290   0.117   3.092  0.5287 -0.0995 -0.1562
 3122TIP3    H130925   0.265   0.085   3.178  1.2455 -0.5819 -0.1226
 3122TIP3    H230926   0.350   0.189   3.109  2.1519 -1.3891 -0.2388
 3123TIP3   OH230927   4.403   2.106   1.922  0.0361  0.2757 -1.0397
 3123TIP3    H130928   4.410   2.179   1.984 -2.0269  0.1319 -0.5925
 3123TIP3    H230929   4.345   2.044   1.965  1.0526 -1.2684 -1.8049
 3124TIP3   OH230930   6.694   4.631   8.306  0.4243  0.3358  0.3924
 3124TIP3    H130931   6.672   4.587   8.388  1.6693 -0.6846  0.2050
 3124TIP3    H230932   6.636   4.591   8.240 -2.2669  2.7533  1.0554
 3125TIP3   OH230933   3.586   2.737   0.778 -0.5666  0.5184 -0.3252
 3125TIP3    H130934   3.625   2.794   0.843  0.1586 -1.1073  0.7404
 3125TIP3    H230935   3.647   2.740   0.703  2.1123 -2.3280  1.4743
 3126TIP3   OH230936   6.389   0.096   0.351 -0.1332 -0.7441  0.0470
 3126TIP3    H130937   6.371   0.172   0.406 -0.7905  0.3839 -1.6526
 3126TIP3    H230938   6.355   0.022   0.400 -3.0977  0.5084  0.0495
 3127TIP3   OH230939   4.470   0.301   1.971 -0.3119 -0.3809 -0.0337
 3127TIP3    H130940   4.416   0.379   1.983 -0.9977 -0.9374  0.6387
 3127TIP3    H230941   4.536   0.306   2.040 -1.4013 -1.2317  1.1139
 3128TIP3   OH230942   2.201   4.765   7.631 -0.3395  0.2448  0.3628
 3128TIP3    H130943   2.197   4.820   7.553 -1.1899 -0.3685 -0.0440
 3128TIP3    H230944   2.196   4.675   7.598  1.5169 -0.1266  0.9839
 3129TIP3   OH230945   1.251   2.108   0.802  0.6483 -1.0195  0.3984
 3129TIP3    H130946   1.304   2.176   0.843  0.0470 -1.9199  2.8149
 3129TIP3    H230947   1.198   2.155   0.737  0.1690  0.8806  2.0598
 3130TIP3   OH230948   1.035   3.410   0.946 -0.0294 -0.0697 -0.2924
 3130TIP3    H130949   1.001   3.418   1.035  1.8667 -3.1807  0.8771
 3130TIP3    H230950   0.982   3.341   0.906 -1.5524  1.9891 -2.0756
 3131TIP3   OH230951   0.753   1.743   1.448  0.0761 -0.8078  0.3560
 3131TIP3    H130952   0.658   1.749   1.440  0.2798  1.4640 -1.4054
 3131TIP3    H230953   0.773   1.778   1.534 -0.7665 -4.2372  2.1464
 3132TIP3   OH230954   6.151   4.205   8.677 -0.1665  0.3316 -0.2141
 3132TIP3    H130955   6.093   4.255   8.620  0.0576  0.0736 -0.6778
 3132TIP3    H230956   6.229   4.189   8.624 -0.7571 -1.6451 -0.5778
 3133TIP3   OH230957   2.940   6.310   3.369  0.3001 -0.1475 -0.2532
 3133TIP3    H130958   2.895   6.366   3.433  2.8023  1.6983  0.0624
 3133TIP3    H230959   2.890   6.320   3.288 -0.4746  0.9206  0.3324
 3134TIP3   OH230960   3.234   2.949   1.049 -0.1121  0.1079 -0.5880
 3134TIP3    H130961   3.157   3.004   1.041 -0.3552 -0.0857  0.3097
 3134TIP3    H230962   3.220   2.899   1.129  1.5651  1.0496  0.3334
 3135TIP3   OH230963   2.806   0.346   0.867 -0.3921  0.1244 -0.2855
 3135TIP3    H130964   2.714   0.323   0.856 -0.0440 -1.0466 -0.8388
 3135TIP3    H230965   2.804   0.440   0.885 -1.6587  0.2110 -0.7335
 3136TIP3   OH230966   1.714   0.600   7.690 -0.4698  0.0028 -0.3907
 3136TIP3    H130967   1.737   0.687   7.657 -0.1267  0.7325  1.6029
 3136TIP3    H230968   1.619   0.603   7.701 -0.2654  0.9219  1.5949
 3137TIP3   OH230969   1.847   2.392   2.188  0.1159  0.2306  0.2721
 3137TIP3    H130970   1.754   2.370   2.193  0.4042 -0.8178  1.7944
 3137TIP3    H230971   1.883   2.364   2.272  1.4954  2.1897  0.4033
 3138TIP3   OH230972   2.177   3.144   8.061 -0.6190  0.3887 -0.2576
 3138TIP3    H130973   2.243   3.213   8.054  1.1717 -1.3579 -1.8494
 3138TIP3    H230974   2.195   3.102   8.145 -0.0447  0.3120 -0.4099
 3139TIP3   OH230975   2.159   5.506   7.811 -0.0243 -0.1287  0.3479
 3139TIP3    H130976   2.173   5.600   7.816  1.8203 -0.0973 -2.7656
 3139TIP3    H230977   2.064   5.496   7.813 -0.2554  1.5051  2.9258
 3140TIP3   OH230978   2.468   4.695   1.184 -0.0861  0.2659 -0.1136
 3140TIP3    H130979   2.562   4.708   1.196  0.5428 -1.4084 -2.5803
 3140TIP3    H230980   2.442   4.640   1.258  1.7107 -2.3474 -1.2776
 3141TIP3   OH230981   1.377   6.587   2.489  0.1188  0.0315 -0.1439
 3141TIP3    H130982   1.418   6.652   2.431  0.7743 -0.4046 -0.1709
 3141TIP3    H230983   1.416   6.504   2.463  0.2882 -0.1956  0.8128
 3142TIP3   OH230984   5.687   6.274   1.182 -0.1958 -0.0638  0.5986
 3142TIP3    H130985   5.645   6.195   1.148 -0.8165  0.4498  0.1697
 3142TIP3    H230986   5.616   6.325   1.222  0.1774  0.3435  0.7572
 3143TIP3   OH230987   3.211   6.386   2.434  0.4340  0.1060  0.1881
 3143TIP3    H130988   3.254   6.302   2.416  2.0268  0.9031  0.0637
 3143TIP3    H230989   3.121   6.363   2.455  0.2069 -1.4525 -2.1091
 3144TIP3   OH230990   5.555   6.347   8.489  0.5589 -0.1903 -0.7200
 3144TIP3    H130991   5.577   6.254   8.490  0.7042 -0.1656 -1.2778
 3144TIP3    H230992   5.635   6.391   8.462  0.6968  0.1657  0.2302
 3145TIP3   OH230993   5.168   5.334   8.843  0.0551  0.7152 -0.1348
 3145TIP3    H130994   5.233   5.381   8.896 -1.4235  0.4673  2.0105
 3145TIP3    H230995   5.085   5.377   8.862 -0.8834 -0.8512 -0.4752
 3146TIP3   OH230996   3.328   1.696   0.977  0.0086  0.1890  0.3952
 3146TIP3    H130997   3.269   1.669   0.907  0.4194 -1.3200  0.6005
 3146TIP3    H230998   3.318   1.629   1.045 -0.5839  1.7492  1.9356
 3147TIP3   OH230999   5.496   5.357   8.772  0.0410  0.0020 -0.7103
 3147TIP3    H131000   5.476   5.439   8.728 -1.9533 -0.8739 -1.5244
 3147TIP3    H231001   5.460   5.368   8.860  1.2234  0.5568 -0.2625
 3148TIP3   OH231002   3.335   2.894   2.940  0.1703 -0.5333  0.8085
 3148TIP3    H131003   3.249   2.888   2.982 -0.7507  0.0517 -0.8660
 3148TIP3    H231004   3.315   2.904   2.847  2.0840 -0.9259  0.3050
 3149TIP3   OH231005   3.474   5.651   1.609 -0.3160  0.0874 -0.1985
 3149TIP3    H131006   3.452   5.558   1.604 -1.3062  0.3203 -0.3188
 3149TIP3    H231007   3.396   5.696   1.575 -0.2507  1.0027  0.8165
 3150TIP3   OH231008   2.604   5.128   7.886 -0.3667 -0.5941 -0.2863
 3150TIP3    H131009   2.597   5.091   7.974 -0.9691 -3.4879 -1.4380
 3150TIP3    H231010   2.679   5.083   7.847 -0.2493  0.4758 -1.3650
 3151TIP3   OH231011   2.895   0.705   8.580 -0.2929 -0.6160  0.1108
 3151TIP3    H131012   2.868   0.726   8.669  0.1452  0.7815 -0.0603
 3151TIP3    H231013   2.832   0.640   8.551  0.8599 -2.8015  2.1854
 3152TIP3   OH231014   4.442   2.534   1.735  0.2218  0.4644 -0.1545
 3152TIP3    H131015   4.417   2.510   1.824 -2.3943 -0.3181 -1.0086
 3152TIP3    H231016   4.500   2.609   1.746 -0.5864  0.8291  2.1791
 3153TIP3   OH231017   0.247   2.607   0.708  0.1847  0.9077  0.0213
 3153TIP3    H131018   0.163   2.594   0.752  0.0984 -0.4403 -0.4825
 3153TIP3    H231019   0.304   2.642   0.776  0.2887 -1.8970  1.5501
 3154TIP3   OH231020   0.052   5.403   2.185 -0.5933 -0.0660 -0.1690
 3154TIP3    H131021  -0.014   5.353   2.138  0.4023 -0.2339 -1.4235
 3154TIP3    H231022   0.006   5.436   2.262 -1.6251 -1.7562 -0.0167
 3155TIP3   OH231023   1.222   6.571   3.395  0.3017  0.3573  0.5568
 3155TIP3    H131024   1.127   6.564   3.408  0.4016 -2.0545  0.4277
 3155TIP3    H231025   1.258   6.498   3.445  1.9009 -0.0586 -1.1140
 3156TIP3   OH231026   4.302   1.280   2.414  0.2906  0.0344  0.2269
 3156TIP3    H131027   4.385   1.237   2.431  0.6152 -0.0422 -1.3648
 3156TIP3    H231028   4.322   1.347   2.348 -0.5364  1.4322  1.3360
 3157TIP3   OH231029   4.660   5.535   2.974  0.6392  0.0541 -0.1812
 3157TIP3    H131030   4.573   5.566   3.000  1.0124  1.6674 -0.7615
 3157TIP3    H231031   4.652   5.520   2.879  1.0286  0.3354 -0.2577
 3158TIP3   OH231032   1.998   4.473   1.463 -0.9985 -0.2967  0.6202
 3158TIP3    H131033   2.087   4.507   1.454 -1.2253  0.1785  0.1644
 3158TIP3    H231034   1.998   4.391   1.414 -1.0606  0.1640 -0.1652
 3159TIP3   OH231035   5.485   4.085   2.432  0.0178  0.0861  0.3468
 3159TIP3    H131036   5.397   4.061   2.404  0.5219 -0.7931 -0.5081
 3159TIP3    H231037   5.494   4.045   2.518 -0.9386  1.4338  1.1241
 3160TIP3   OH231038   6.402   2.366   0.601  0.2805 -0.2371 -0.2755
 3160TIP3    H131039   6.493   2.336   0.598  0.4471  0.3317 -1.8132
 3160TIP3    H231040   6.394   2.424   0.525 -1.6125 -0.9616 -0.6651
 3161TIP3   OH231041   1.251   5.596   2.245  0.4281 -0.3351  0.2693
 3161TIP3    H131042   1.242   5.566   2.155 -0.8917  1.4209 -0.2316
 3161TIP3    H231043   1.171   5.646   2.262  2.2778  2.5499  1.1625
 3162TIP3   OH231044   0.302   6.397   2.402  0.1894 -0.4162 -0.3282
 3162TIP3    H131045   0.208   6.376   2.400 -0.1927  1.0315  0.8628
 3162TIP3    H231046   0.345   6.313   2.415 -0.9540 -1.0755 -0.6273
 3163TIP3   OH231047   3.643   1.482   1.121  0.5705 -0.3020  0.3526
 3163TIP3    H131048   3.670   1.417   1.056  0.4334  1.4780 -1.5810
 3163TIP3    H231049   3.725   1.511   1.161  0.9799  0.5839 -1.0570
 3164TIP3   OH231050   2.569   4.939   1.006 -0.1739 -0.1784  0.4681
 3164TIP3    H131051   2.595   4.880   1.076 -0.3416 -0.2588  0.4653
 3164TIP3    H231052   2.597   5.026   1.035  0.2882 -0.2890  0.3639
 3165TIP3   OH231053   4.919   5.464   8.335  0.7415 -0.4464  0.2914
 3165TIP3    H131054   4.856   5.423   8.275  1.8803  0.4180 -1.5711
 3165TIP3    H231055   4.867   5.526   8.385 -0.2485 -1.1945  0.2325
 3166TIP3   OH231056   6.760   2.205   8.615  0.0999 -0.0317 -0.3899
 3166TIP3    H131057   6.702   2.221   8.541 -0.0276  2.5129  0.1668
 3166TIP3    H231058   6.810   2.286   8.625  1.3779 -0.9412  1.2260
 3167TIP3   OH231059   0.464   6.128   7.737  0.2272 -0.3252 -0.3926
 3167TIP3    H131060   0.471   6.166   7.825 -0.8969  0.6901 -0.7222
 3167TIP3    H231061   0.471   6.033   7.752  1.7010 -0.0983  0.5849
 3168TIP3   OH231062   0.204   0.456   2.221 -0.2383 -0.5767  0.2764
 3168TIP3    H131063   0.281   0.413   2.185 -1.5276 -0.3088 -3.2151
 3168TIP3    H231064   0.222   0.466   2.314  3.6113 -1.1248 -0.2796
 3169TIP3   OH231065   6.138   0.570   8.131  0.1323  0.0242 -0.1577
 3169TIP3    H131066   6.159   0.479   8.150 -0.2603  0.0555  0.4629
 3169TIP3    H231067   6.205   0.621   8.177 -0.0516  0.0617  0.0746
 3170TIP3   OH231068   4.973   4.770   0.882  0.4329  1.2594  0.0289
 3170TIP3    H131069   4.971   4.799   0.791  0.5095  0.4981 -0.2264
 3170TIP3    H231070   4.975   4.851   0.933  0.6717  1.6943 -0.6499
 3171TIP3   OH231071   1.792   4.795   2.489  0.0107 -0.1464  0.5291
 3171TIP3    H131072   1.699   4.793   2.508 -0.4116  0.1128 -1.3046
 3171TIP3    H231073   1.831   4.731   2.549 -1.3414 -0.3356  1.2344
 3172TIP3   OH231074   0.790   6.011   3.285  0.1338 -0.1358  0.1573
 3172TIP3    H131075   0.883   6.035   3.283  0.0272  0.3045  0.2527
 3172TIP3    H231076   0.762   6.019   3.194  0.2371 -0.4600  0.0977
 3173TIP3   OH231077   3.942   0.088   7.528  0.1093 -0.2203 -0.2162
 3173TIP3    H131078   4.028   0.095   7.486  0.0232 -0.8167 -0.4993
 3173TIP3    H231079   3.893   0.029   7.471 -0.4973  0.1350 -0.0680
 3174TIP3   OH231080   0.842   5.267   8.042  0.3439 -0.5344  0.0613
 3174TIP3    H131081   0.883   5.233   8.121 -0.6403  0.7398  1.1625
 3174TIP3    H231082   0.749   5.246   8.052 -0.1462  1.5318  0.3289
 3175TIP3   OH231083   2.188   5.800   2.007  0.6000 -0.1811 -0.1768
 3175TIP3    H131084   2.198   5.731   1.942  1.0437 -0.0337 -0.2680
 3175TIP3    H231085   2.271   5.800   2.055 -0.0627 -0.9350  1.0303
 3176TIP3   OH231086   6.798   4.203   7.591  0.3866 -0.4549 -0.0170
 3176TIP3    H131087   6.841   4.124   7.623  1.1283  0.5778  1.7585
 3176TIP3    H231088   6.870   4.265   7.578 -0.3391  0.6665  1.0415
 3177TIP3   OH231089   4.922   5.205   0.175  0.1905 -0.7210  0.0612
 3177TIP3    H131090   4.897   5.114   0.157  1.2138 -0.5919 -2.5712
 3177TIP3    H231091   5.000   5.219   0.121 -1.0712  2.2741 -1.2191
 3178TIP3   OH231092   3.706   4.526   0.780 -0.5421 -0.0239 -0.5598
 3178TIP3    H131093   3.774   4.592   0.767 -0.1211 -0.8143 -2.8337
 3178TIP3    H231094   3.736   4.450   0.731 -1.2639 -1.7897  1.5326
 3179TIP3   OH231095   1.738   5.486   1.195 -0.5738 -0.2196 -0.2388
 3179TIP3    H131096   1.761   5.436   1.274  1.4487 -0.5518 -0.9509
 3179TIP3    H231097   1.672   5.432   1.152 -0.1083 -1.1423  0.1553
 3180TIP3   OH231098   3.846   6.710   3.012  0.2266 -0.0803 -0.1581
 3180TIP3    H131099   3.927   6.662   2.996 -1.2336 -2.9340  0.3622
 3180TIP3    H231100   3.803   6.714   2.927  0.4529  0.5555 -0.2464
 3181TIP3   OH231101   0.128   2.717   1.566  0.1817  0.0248 -0.3316
 3181TIP3    H131102   0.085   2.725   1.481 -0.2481  1.0559 -0.0349
 3181TIP3    H231103   0.169   2.630   1.565  0.1333  0.0112 -1.5600
 3182TIP3   OH231104   0.497   3.523   0.341 -0.4027  0.2187  0.6134
 3182TIP3    H131105   0.471   3.584   0.272 -0.9457  0.2743  0.8601
 3182TIP3    H231106   0.424   3.461   0.347 -0.4844  0.3699  1.3091
 3183TIP3   OH231107   2.337   2.861   3.315  0.0570  0.0235  0.4757
 3183TIP3    H131108   2.312   2.851   3.224 -0.4402  0.1481  0.5958
 3183TIP3    H231109   2.348   2.955   3.328 -1.9539  0.2275  1.0659
 3184TIP3   OH231110   3.292   3.359   0.128  0.1885 -0.6866 -0.5392
 3184TIP3    H131111   3.224   3.333   0.066  0.2853 -0.3741 -0.7750
 3184TIP3    H231112   3.364   3.391   0.074  0.7161 -1.4620 -0.3075
 3185TIP3   OH231113   0.502   4.413   2.583 -0.7765 -0.2396  0.5281
 3185TIP3    H131114   0.582   4.387   2.629 -0.8771 -0.0573  0.8123
 3185TIP3    H231115   0.442   4.340   2.595 -0.8320 -0.1586  0.7674
 3186TIP3   OH231116   0.135   2.255   3.007  0.3751  0.3842  0.2434
 3186TIP3    H131117   0.230   2.259   2.996  0.4327 -0.3222  0.4217
 3186TIP3    H231118   0.114   2.161   3.003 -0.4397  0.5970 -0.7822
 3187TIP3   OH231119   2.792   6.341   3.148  0.2053 -0.1757 -0.2655
 3187TIP3    H131120   2.757   6.268   3.096 -0.6796 -0.3815  0.5874
 3187TIP3    H231121   2.728   6.412   3.136  0.0445 -0.1918  0.4302
 3188TIP3   OH231122   2.477   2.256   1.458  0.0350 -0.0916 -0.4373
 3188TIP3    H131123   2.392   2.284   1.491 -0.0141 -1.3952  0.6489
 3188TIP3    H231124   2.530   2.245   1.537  1.4207  1.2755 -1.1236
 3189TIP3   OH231125   5.759   2.327   2.262 -0.0907  0.2790 -0.2260
 3189TIP3    H131126   5.816   2.282   2.199  2.8297  3.5023 -0.1542
 3189TIP3    H231127   5.700   2.379   2.207  0.1425  0.4523 -0.3150
 3190TIP3   OH231128   6.460   2.768   1.278 -0.2315 -0.3388  0.3934
 3190TIP3    H131129   6.482   2.720   1.199  1.6858 -1.4311  1.5116
 3190TIP3    H231130   6.488   2.858   1.261 -0.2706 -0.4585 -0.3287
 3191TIP3   OH231131   3.319   3.177   2.405 -0.2018  0.3050 -0.2206
 3191TIP3    H131132   3.373   3.234   2.460  0.5097  0.2757 -0.8641
 3191TIP3    H231133   3.365   3.174   2.321 -0.8284 -0.3127 -0.5584
 3192TIP3   OH231134   3.266   0.566   2.628  0.1599 -0.0318 -0.7115
 3192TIP3    H131135   3.241   0.509   2.555  2.0542 -0.2834 -1.2405
 3192TIP3    H231136   3.244   0.515   2.707 -2.7842  0.6293 -0.9918
 3193TIP3   OH231137   2.592   2.679   1.134  0.1180 -0.4503  0.3780
 3193TIP3    H131138   2.509   2.678   1.182  0.6991  0.6772  1.4815
 3193TIP3    H231139   2.639   2.602   1.166 -0.1464 -0.5870  0.4341
 3194TIP3   OH231140   0.439   6.240   1.144  0.0979  0.2398 -0.2271
 3194TIP3    H131141   0.402   6.153   1.158 -0.2466  0.4788  0.4053
 3194TIP3    H231142   0.470   6.267   1.231 -2.9307  2.1603  0.4179
 3195TIP3   OH231143   2.454   5.558   1.931 -0.7969  0.0082  0.1495
 3195TIP3    H131144   2.364   5.525   1.925 -0.0152 -2.5988  1.3732
 3195TIP3    H231145   2.490   5.516   2.009  1.5532  0.9084 -0.3650
 3196TIP3   OH231146   5.508   0.166   1.841  0.4918  0.1583 -0.5658
 3196TIP3    H131147   5.466   0.109   1.776  0.4654  0.2435 -0.6232
 3196TIP3    H231148   5.545   0.238   1.790 -0.5752  0.8693 -0.3727
 3197TIP3   OH231149   5.056   4.903   2.067  0.3677 -1.0413 -0.0070
 3197TIP3    H131150   5.011   4.821   2.085 -1.7288 -0.1768 -0.9903
 3197TIP3    H231151   5.026   4.963   2.137 -0.9637 -0.1498 -1.2840
 3198TIP3   OH231152   5.652   4.331   7.993  0.2952 -0.0114  0.0690
 3198TIP3    H131153   5.739   4.296   7.973  1.0905  1.3669  0.9631
 3198TIP3    H231154   5.617   4.357   7.908  1.3308  0.6672 -0.1676
 3199TIP3   OH231155   5.296   1.912   1.486 -0.1982  0.5622  0.2683
 3199TIP3    H131156   5.359   1.866   1.541 -2.7803 -1.5514  1.6640
 3199TIP3    H231157   5.223   1.933   1.544 -3.1119 -1.8270 -2.1708
 3200TIP3   OH231158   4.734   0.979   1.200 -0.4314  0.1210 -0.1815
 3200TIP3    H131159   4.703   1.046   1.260 -1.3533  0.0410 -0.5559
 3200TIP3    H231160   4.757   0.905   1.257 -1.6198 -0.0795  0.0580
 3201TIP3   OH231161   4.912   5.031   8.231 -0.3548 -0.2996  0.4245
 3201TIP3    H131162   4.842   5.089   8.258  0.7744  0.8714  0.9239
 3201TIP3    H231163   4.929   5.053   8.139  0.3156  0.4296  0.7173
 3202TIP3   OH231164   0.263   4.356   7.256 -0.6414  0.1344  0.8481
 3202TIP3    H131165   0.304   4.316   7.333 -0.5549  0.3144  0.8949
 3202TIP3    H231166   0.280   4.449   7.266  1.2157 -0.0027 -0.4374
 3203TIP3   OH231167   2.916   0.254   0.296  0.0380  0.3027 -0.1121
 3203TIP3    H131168   2.995   0.231   0.247  0.0238 -0.8531  0.3877
 3203TIP3    H231169   2.948   0.282   0.381  0.0247  1.8164 -0.5710
 3204TIP3   OH231170   4.042   2.938   1.837  0.3287  0.4804  0.0954
 3204TIP3    H131171   4.089   3.016   1.865 -0.1416  0.8519 -0.1214
 3204TIP3    H231172   3.950   2.963   1.840  0.1048 -0.3622  0.9189
 3205TIP3   OH231173   0.706   0.123   7.895  0.2715  0.4952  0.0920
 3205TIP3    H131174   0.629   0.080   7.856 -0.3448  1.8643 -0.2731
 3205TIP3    H231175   0.771   0.122   7.825  0.7278 -0.9589  0.5060
 3206TIP3   OH231176   3.797   5.209   7.716  0.5854  0.4917  0.2255
 3206TIP3    H131177   3.758   5.219   7.803  0.1894 -1.2836  0.2901
 3206TIP3    H231178   3.761   5.127   7.683  1.0506  0.9347 -1.4594
 3207TIP3   OH231179   3.102   4.029   8.647 -0.0414 -0.4835  0.1171
 3207TIP3    H131180   3.046   3.969   8.695  1.3426 -1.6747  0.3112
 3207TIP3    H231181   3.164   4.062   8.712  1.0749 -1.1653 -0.5798
 3208TIP3   OH231182   0.164   5.766   0.858 -0.3108  0.0407 -0.2545
 3208TIP3    H131183   0.236   5.780   0.797 -0.0750  1.9287  0.4001
 3208TIP3    H231184   0.106   5.841   0.844 -1.6180 -0.8946 -0.0184
 3209TIP3   OH231185   4.463   2.731   2.091  0.2627 -0.2898 -0.0883
 3209TIP3    H131186   4.381   2.730   2.041  0.5687 -1.9114 -0.6017
 3209TIP3    H231187   4.486   2.824   2.095 -1.8511  0.2839  0.5259
 3210TIP3   OH231188   5.963   5.279   2.013  0.2967 -0.7447  0.1813
 3210TIP3    H131189   6.037   5.330   2.046  0.3314 -1.3005  0.9803
 3210TIP3    H231190   5.946   5.213   2.081  0.0455 -1.5922 -0.6756
 3211TIP3   OH231191   1.830   1.542   2.699 -0.1610  0.4944 -0.2652
 3211TIP3    H131192   1.921   1.522   2.678  0.6798  2.3800  1.1893
 3211TIP3    H231193   1.779   1.485   2.642  1.9039 -1.6557 -0.1381
 3212TIP3   OH231194   6.318   0.366   1.211 -0.0344 -0.0684 -0.2520
 3212TIP3    H131195   6.314   0.456   1.242 -0.9188 -1.3577  4.0270
 3212TIP3    H231196   6.412   0.351   1.195  0.0271  1.7921 -2.1863
 3213TIP3   OH231197   0.855   4.275   2.943 -0.6382 -0.1839 -0.4788
 3213TIP3    H131198   0.936   4.312   2.976 -0.3897 -0.5334 -0.6960
 3213TIP3    H231199   0.798   4.268   3.020 -0.2165 -0.5926 -0.2032
 3214TIP3   OH231200   1.968   1.616   1.283  0.0785  0.1116  0.3604
 3214TIP3    H131201   1.942   1.588   1.370 -0.4204  2.5678  1.0894
 3214TIP3    H231202   2.049   1.666   1.296  1.1900 -1.2516 -0.9108
 3215TIP3   OH231203   3.990   6.679   0.407 -0.5095  0.5187 -0.1488
 3215TIP3    H131204   4.071   6.731   0.407 -0.4650  0.5568 -2.5462
 3215TIP3    H231205   3.921   6.741   0.429  0.1270  0.3281  2.7113
 3216TIP3   OH231206   0.464   6.336   2.119 -0.5515  0.1605 -0.4174
 3216TIP3    H131207   0.511   6.290   2.189 -0.7812  1.3615  0.5592
 3216TIP3    H231208   0.373   6.307   2.128 -0.8288  1.3090  0.6511
 3217TIP3   OH231209   5.055   4.494   7.985 -0.5751  0.5804 -0.2505
 3217TIP3    H131210   4.993   4.531   8.048 -0.7580 -0.3499  0.1442
 3217TIP3    H231211   5.004   4.430   7.936 -0.1982  0.6212 -0.7106
 3218TIP3   OH231212   5.074   4.313   1.985  0.1488 -0.1229  0.3973
 3218TIP3    H131213   5.152   4.307   2.039  0.5137  1.9816  0.2176
 3218TIP3    H231214   5.005   4.341   2.046 -0.1837 -0.7745  0.3274
 3219TIP3   OH231215   4.027   3.426   0.059  0.1291  0.0976 -0.3795
 3219TIP3    H131216   3.966   3.493   0.030  0.0589 -0.4469 -1.6042
 3219TIP3    H231217   3.988   3.344   0.028  0.3679 -0.4743  0.8017
 3220TIP3   OH231218   2.287   3.641   7.997 -0.5903 -0.1978 -0.6617
 3220TIP3    H131219   2.360   3.681   7.950  2.6804 -3.1271  1.4005
 3220TIP3    H231220   2.266   3.563   7.946 -0.4437 -0.7519  0.1110
 3221TIP3   OH231221   5.348   2.234   2.352 -0.1256  0.4124  0.0283
 3221TIP3    H131222   5.364   2.222   2.259 -0.5683  1.1633 -0.1442
 3221TIP3    H231223   5.256   2.212   2.364  0.2281 -0.9058  0.5100
 3222TIP3   OH231224   2.060   3.805   8.045 -0.4461 -0.4167 -0.0893
 3222TIP3    H131225   2.093   3.857   7.972 -0.2808 -0.8214 -0.3068
 3222TIP3    H231226   2.120   3.731   8.051  0.1328  0.1178  1.1055
 3223TIP3   OH231227   1.058   6.664   1.118 -0.2622 -0.3986 -0.3336
 3223TIP3    H131228   1.082   6.694   1.205 -0.2205 -1.8806  0.2000
 3223TIP3    H231229   1.060   6.568   1.124  1.1886 -0.5682 -2.3621
 3224TIP3   OH231230   2.562   3.691   1.265 -0.3086  0.1774  0.2186
 3224TIP3    H131231   2.555   3.763   1.327  1.3651  0.3690  0.2452
 3224TIP3    H231232   2.484   3.638   1.279 -2.3120  2.6901 -0.7542
 3225TIP3   OH231233   3.074   3.279   7.773 -0.6351 -0.3542 -0.3851
 3225TIP3    H131234   3.049   3.224   7.700 -0.9435  0.6208 -1.0317
 3225TIP3    H231235   3.122   3.221   7.832 -2.3070 -1.6896 -0.2758
 3226TIP3   OH231236   0.380   5.383   3.411 -0.3184  0.0539 -0.3080
 3226TIP3    H131237   0.322   5.315   3.377 -1.7928  0.3626  1.3995
 3226TIP3    H231238   0.463   5.337   3.429 -0.8249 -0.9620 -0.5083
 3227TIP3   OH231239   4.903   2.734   0.013 -0.8237  1.1632 -0.2331
 3227TIP3    H131240   4.979   2.730  -0.044 -0.3300  0.6510  0.4485
 3227TIP3    H231241   4.831   2.700  -0.041 -0.0261 -0.9658 -0.0402
 3228TIP3   OH231242   4.674   3.762   7.695 -0.5745  0.0685  0.2420
 3228TIP3    H131243   4.622   3.684   7.676  1.8557 -1.2478 -1.4681
 3228TIP3    H231244   4.611   3.824   7.733 -3.5715 -1.0572 -2.4514
 3229TIP3   OH231245   2.628   2.150   1.661 -0.4079  0.6135 -0.2567
 3229TIP3    H131246   2.560   2.161   1.728 -0.2782  0.3595 -0.0802
 3229TIP3    H231247   2.706   2.190   1.700 -0.2206  0.0849 -0.0723
 3230TIP3   OH231248   1.722   1.332   2.529  0.4964 -0.8657 -0.6466
 3230TIP3    H131249   1.762   1.262   2.477  0.0844 -2.1427  0.6883
 3230TIP3    H231250   1.634   1.299   2.548 -0.0176  0.4254 -0.7265
 3231TIP3   OH231251   5.269   4.469   8.538  0.2683  0.0627  0.3871
 3231TIP3    H131252   5.202   4.504   8.478  0.4389 -0.2566  0.0065
 3231TIP3    H231253   5.280   4.378   8.511  1.0854  0.1991  0.2373
 3232TIP3   OH231254   1.904   5.986   2.828  0.0472  0.3213  0.4663
 3232TIP3    H131255   1.979   5.950   2.781 -0.9400 -2.3199  0.7596
 3232TIP3    H231256   1.938   6.064   2.872  2.6013 -0.7654  0.5627
 3233TIP3   OH231257   2.516   0.211   0.157 -0.1838  1.0703  0.7859
 3233TIP3    H131258   2.578   0.141   0.177 -0.7823  0.6253  1.1013
 3233TIP3    H231259   2.433   0.180   0.192 -0.9969  0.8656 -1.1720
 3234TIP3   OH231260   1.400   3.652   1.915 -0.3050  0.4073 -1.2638
 3234TIP3    H131261   1.318   3.651   1.963 -0.1419 -2.3042 -0.8793
 3234TIP3    H231262   1.374   3.650   1.823 -0.6418  1.5797 -1.2009
 3235TIP3   OH231263   4.597   6.045   8.877  0.5758  0.2372 -0.8322
 3235TIP3    H131264   4.618   6.070   8.787 -0.0497 -0.1933 -1.1009
 3235TIP3    H231265   4.592   5.950   8.875 -0.7593  0.2809 -0.6552
 3236TIP3   OH231266   2.202   3.815   8.748  0.5101 -0.4026  0.2144
 3236TIP3    H131267   2.280   3.773   8.712  1.2329  0.5688  0.6229
 3236TIP3    H231268   2.235   3.888   8.800 -0.6016 -0.6993  1.3974
 3237TIP3   OH231269   2.210   3.072   8.343  0.3061 -0.1237 -0.7145
 3237TIP3    H131270   2.182   3.164   8.342 -2.2104 -0.6628  2.8717
 3237TIP3    H231271   2.285   3.071   8.403  0.2065 -0.4610 -0.5965
 3238TIP3   OH231272   0.805   5.783   1.496  0.1415 -0.3593 -0.3363
 3238TIP3    H131273   0.750   5.861   1.503 -2.5578 -2.2833  2.3024
 3238TIP3    H231274   0.882   5.803   1.549  1.2776  1.6685 -2.5339
 3239TIP3   OH231275   0.009   0.617   0.856  0.7466 -0.0238 -0.0095
 3239TIP3    H131276  -0.086   0.603   0.852  0.6323 -0.0432  1.8514
 3239TIP3    H231277   0.045   0.563   0.785 -0.6347  0.1441 -0.8683
 3240TIP3   OH231278   4.080   4.387   0.582  0.0462  0.3166  0.0473
 3240TIP3    H131279   4.104   4.480   0.580  1.2002  0.0514 -2.5011
 3240TIP3    H231280   4.101   4.359   0.671  1.1679  2.1513  0.4206
 3241TIP3   OH231281   2.194   3.583   2.165 -0.4457  0.2114 -0.6449
 3241TIP3    H131282   2.179   3.489   2.155  0.8225  0.0026 -0.8011
 3241TIP3    H231283   2.203   3.597   2.259  0.2657  0.0098 -0.6764
 3242TIP3   OH231284   4.784   6.459   8.779 -0.7039  0.0000  0.1522
 3242TIP3    H131285   4.777   6.413   8.862  0.7991 -0.3414  0.1149
 3242TIP3    H231286   4.785   6.389   8.713  1.4335  0.0227  0.0850
 3243TIP3   OH231287   0.344   1.291   0.282  0.2117  0.4181  0.3789
 3243TIP3    H131288   0.296   1.209   0.288  0.7707  0.0848  0.3273
 3243TIP3    H231289   0.432   1.270   0.314  0.2813  1.0569  0.6225
 3244TIP3   OH231290   0.122   6.475   2.783 -0.1856 -0.1955  0.1169
 3244TIP3    H131291   0.123   6.570   2.794 -3.1029  0.3696 -2.8094
 3244TIP3    H231292   0.209   6.454   2.747  0.2048  1.5103 -0.0172
 3245TIP3   OH231293   4.569   5.558   1.960 -0.3325  0.4601 -0.1169
 3245TIP3    H131294   4.586   5.573   1.867  2.0454  1.0698  0.3471
 3245TIP3    H231295   4.592   5.466   1.974  1.3146  0.8861  0.2093
 3246TIP3   OH231296   3.435   6.781   0.630  0.3194  0.1501  0.0272
 3246TIP3    H131297   3.528   6.797   0.613  0.7426 -0.3635  1.6562
 3246TIP3    H231298   3.404   6.859   0.675  0.2157 -0.0858  0.3703
 3247TIP3   OH231299   3.581   1.711   1.292 -0.0390 -1.2406 -0.4744
 3247TIP3    H131300   3.591   1.622   1.258  0.1220 -0.4850 -2.6106
 3247TIP3    H231301   3.669   1.749   1.286 -0.3964 -0.4719 -1.0931
 3248TIP3   OH231302   4.331   0.964   7.854 -0.7189 -0.6294  0.4806
 3248TIP3    H131303   4.397   0.896   7.849  1.1814  1.1040  0.8223
 3248TIP3    H231304   4.347   1.019   7.777 -1.2243  0.2814  1.0004
 3249TIP3   OH231305   1.918   1.121   0.296  0.2737 -0.6444 -0.3678
 3249TIP3    H131306   1.829   1.086   0.306  0.2668 -0.7876 -0.9411
 3249TIP3    H231307   1.974   1.043   0.296  0.4509 -0.5306  0.4704
 3250TIP3   OH231308   2.414   5.205   8.808 -0.5664 -0.5186 -0.3912
 3250TIP3    H131309   2.328   5.164   8.799 -0.2945 -1.2600  0.2709
 3250TIP3    H231310   2.450   5.167   8.888 -0.3728  1.1668  0.3661
 3251TIP3   OH231311   0.673   5.981   1.742  0.1923  0.3892  0.1789
 3251TIP3    H131312   0.643   5.940   1.824  1.8255  0.3996  0.8110
 3251TIP3    H231313   0.754   6.026   1.766 -0.4229  2.2025 -0.9837
 3252TIP3   OH231314   4.769   1.851   0.084 -0.0587 -0.1470  0.0329
 3252TIP3    H131315   4.786   1.814  -0.003 -1.0738 -1.7162  0.4580
 3252TIP3    H231316   4.683   1.893   0.075 -0.3453 -0.6450  0.3418
 3253TIP3   OH231317   0.963   1.173   0.019  0.3916 -0.2888 -0.5971
 3253TIP3    H131318   0.924   1.136  -0.060 -0.1417 -0.4220 -0.2738
 3253TIP3    H231319   0.896   1.231   0.055  1.3668  1.3756 -1.3358
 3254TIP3   OH231320   1.449   2.965   0.141 -0.4798  0.2093 -0.3983
 3254TIP3    H131321   1.467   2.891   0.082 -0.9368  0.3529 -0.7255
 3254TIP3    H231322   1.368   2.941   0.186 -0.3368  0.2714 -0.1066
 3255TIP3   OH231323   4.960   0.517   1.998  0.3143 -0.1918 -0.1201
 3255TIP3    H131324   5.036   0.527   1.940  0.6808  0.0818  0.3889
 3255TIP3    H231325   4.973   0.585   2.065 -1.4470  1.2485 -1.1653
 3256TIP3   OH231326   5.742   2.056   0.375 -0.0024 -0.1903 -0.5260
 3256TIP3    H131327   5.677   1.997   0.337  0.6190 -0.5964 -0.9711
 3256TIP3    H231328   5.693   2.105   0.442 -0.3183 -1.9512  0.6251
 3257TIP3   OH231329   3.852   2.866   8.476 -0.5350 -0.2891 -0.2034
 3257TIP3    H131330   3.780   2.813   8.509 -0.8165 -0.7653 -1.5380
 3257TIP3    H231331   3.896   2.810   8.412  0.3476  0.3957 -0.2217
 3258TIP3   OH231332   1.878   0.247   2.595  0.2747  0.2393 -0.4789
 3258TIP3    H131333   1.911   0.317   2.651  1.4875 -0.1639 -0.6647
 3258TIP3    H231334   1.792   0.226   2.631  1.2373 -0.3689  1.5804
 3259TIP3   OH231335   2.366   5.278   2.784 -0.1801  0.0918 -0.4228
 3259TIP3    H131336   2.317   5.308   2.861 -0.3161 -0.0920 -0.4343
 3259TIP3    H231337   2.407   5.196   2.813  0.1409  0.2608 -0.4065
 3260TIP3   OH231338   2.146   0.976   1.984  0.2665  0.1770  0.1490
 3260TIP3    H131339   2.149   0.941   2.073  0.9047  0.3976  0.2214
 3260TIP3    H231340   2.057   0.957   1.954 -0.8099  2.2658  1.7108
 3261TIP3   OH231341   1.919   3.689   2.221  0.1724  0.5377 -0.1483
 3261TIP3    H131342   1.983   3.639   2.170  0.5281 -1.6055  2.2044
 3261TIP3    H231343   1.933   3.661   2.311 -3.2804  0.8937  0.6309
 3262TIP3   OH231344   1.392   0.863   0.953 -0.2837  0.0270 -0.9884
 3262TIP3    H131345   1.398   0.806   0.877  0.1395 -1.7694  0.3190
 3262TIP3    H231346   1.316   0.830   1.002 -0.0578  0.6115 -0.2130
 3263TIP3   OH231347   5.663   3.677   2.768 -0.1384  0.2047 -0.2793
 3263TIP3    H131348   5.590   3.720   2.813  0.2898  1.1936 -0.4910
 3263TIP3    H231349   5.623   3.602   2.725 -0.8291  0.0971  0.5083
 3264TIP3   OH231350   3.033   1.749   3.216 -0.5835  0.2772  0.4962
 3264TIP3    H131351   3.064   1.836   3.194 -0.1528 -0.4527 -2.0810
 3264TIP3    H231352   2.942   1.761   3.241 -0.4908  1.4728  0.2921
 3265TIP3   OH231353   6.244   4.622   2.758  0.0208  0.3138 -0.0221
 3265TIP3    H131354   6.283   4.697   2.804 -2.3474  1.1567  0.7806
 3265TIP3    H231355   6.210   4.659   2.676 -0.5015 -0.0250  0.0366
 3266TIP3   OH231356   3.553   6.532   0.710 -0.4028 -0.4639 -0.0784
 3266TIP3    H131357   3.641   6.519   0.677 -0.6161 -0.6040 -0.5979
 3266TIP3    H231358   3.533   6.623   0.690  0.3446  0.1672  1.7874
 3267TIP3   OH231359   1.024   3.448   3.549 -0.2999 -0.1518 -0.3391
 3267TIP3    H131360   0.933   3.477   3.544 -0.1855  0.4670  0.8730
 3267TIP3    H231361   1.028   3.395   3.628  0.8848  1.7410  0.9476
 3268TIP3   OH231362   3.477   5.333   8.222  0.4311 -0.0177 -0.6974
 3268TIP3    H131363   3.420   5.393   8.174 -1.0170 -0.1705  0.7625
 3268TIP3    H231364   3.551   5.387   8.249  0.2783  0.5424 -1.3738
 3269TIP3   OH231365   1.304   5.128   1.101 -0.2985  0.0138  0.6032
 3269TIP3    H131366   1.235   5.170   1.151 -1.0277 -0.1055 -0.2824
 3269TIP3    H231367   1.317   5.043   1.143 -0.7110  0.0284  0.7570
 3270TIP3   OH231368   4.789   0.554   0.821 -0.2188  0.4175 -0.3467
 3270TIP3    H131369   4.781   0.561   0.726  2.1705 -3.1372 -0.9684
 3270TIP3    H231370   4.883   0.562   0.838 -0.6349  1.4643  1.8541
 3271TIP3   OH231371   1.288   2.624   0.836  0.7916 -0.0915  0.0838
 3271TIP3    H131372   1.318   2.642   0.925 -0.4149  3.1589 -0.0117
 3271TIP3    H231373   1.356   2.661   0.780  0.4301  0.0314 -0.2844
 3272TIP3   OH231374   3.032   2.324   1.625  0.6382  0.1627  0.1779
 3272TIP3    H131375   3.085   2.287   1.555 -0.6334 -0.9005 -0.2618
 3272TIP3    H231376   3.009   2.412   1.593  0.1691 -0.2678 -0.7195
 3273TIP3   OH231377   3.970   2.849   0.765 -0.6139  0.2761 -0.2374
 3273TIP3    H131378   4.020   2.895   0.699 -1.6096 -0.5685 -1.6291
 3273TIP3    H231379   3.957   2.914   0.835  0.4983  1.1574 -0.8241
 3274TIP3   OH231380   0.898   2.984   0.198  0.3203  0.1470 -0.1964
 3274TIP3    H131381   0.837   3.024   0.260 -2.3424 -1.1662 -1.7952
 3274TIP3    H231382   0.943   3.058   0.158 -0.9338  1.2605  0.3510
 3275TIP3   OH231383   5.142   1.756   1.836  0.0739 -0.1307 -0.2576
 3275TIP3    H131384   5.081   1.683   1.840 -0.3164  0.0851 -1.8800
 3275TIP3    H231385   5.087   1.835   1.836  0.3941  0.0975 -0.5726
 3276TIP3   OH231386   6.425   4.308   1.625 -0.4004 -0.7326  0.3862
 3276TIP3    H131387   6.429   4.218   1.659 -0.5318 -0.4985  1.0269
 3276TIP3    H231388   6.384   4.358   1.695  1.8094  0.3070  1.0297
 3277TIP3   OH231389   3.204   4.839   7.664 -0.5812  0.1163  0.6105
 3277TIP3    H131390   3.223   4.876   7.578 -1.4618  0.4604  0.5593
 3277TIP3    H231391   3.281   4.786   7.684 -1.2853 -1.8194 -1.3894
 3278TIP3   OH231392   3.512   2.328   0.215  0.0472 -0.3764 -0.3982
 3278TIP3    H131393   3.515   2.418   0.183  2.3758 -0.2339  0.0342
 3278TIP3    H231394   3.511   2.337   0.310  0.7777 -0.7779 -0.3423
 3279TIP3   OH231395   5.018   0.634   1.091  0.1434  0.0109  0.1043
 3279TIP3    H131396   5.022   0.583   1.172  1.8374  0.0973  0.1207
 3279TIP3    H231397   5.110   0.646   1.066 -0.3483 -0.2985 -2.0176
 3280TIP3   OH231398   2.354   1.033   2.396 -0.0058 -0.3844 -0.1912
 3280TIP3    H131399   2.295   1.074   2.459  0.7565 -0.5454  0.6554
 3280TIP3    H231400   2.442   1.053   2.430  0.5393  1.7817 -2.5983
 3281TIP3   OH231401   2.392   6.615   3.557 -0.3694 -0.4059  0.0034
 3281TIP3    H131402   2.325   6.676   3.587  0.6640  0.6137  0.2735
 3281TIP3    H231403   2.345   6.557   3.496 -1.3643  0.6333 -0.2547
 3282TIP3   OH231404   0.768   0.543   0.291 -0.1699 -0.1223  0.0734
 3282TIP3    H131405   0.820   0.533   0.211 -0.4869  0.2280 -0.1839
 3282TIP3    H231406   0.678   0.527   0.262 -0.1883 -0.9601  0.5602
 3283TIP3   OH231407   6.014   1.544   7.999 -0.3468  1.0001  0.1337
 3283TIP3    H131408   5.932   1.586   7.971  0.0130  0.3919 -2.0347
 3283TIP3    H231409   6.061   1.527   7.917  1.2065 -0.1925  1.2198
 3284TIP3   OH231410   3.882   0.309   1.349  0.6565 -0.9928 -0.0848
 3284TIP3    H131411   3.872   0.220   1.316 -2.0294 -0.8364  0.1438
 3284TIP3    H231412   3.853   0.304   1.441  0.7751  0.0618  0.0191
 3285TIP3   OH231413   3.232   5.249   1.831 -0.5882  0.2390 -0.1895
 3285TIP3    H131414   3.184   5.300   1.897 -0.5588  0.0752 -0.0421
 3285TIP3    H231415   3.290   5.192   1.882 -0.5192  0.1582 -0.3582
 3286TIP3   OH231416   5.494   3.514   2.564  0.4886 -0.2330 -0.2054
 3286TIP3    H131417   5.453   3.488   2.481  0.0199 -1.0062  0.2579
 3286TIP3    H231418   5.519   3.432   2.605  0.3453  0.1230  0.6107
 3287TIP3   OH231419   0.548   6.106   2.284  0.2558 -0.1501  0.5491
 3287TIP3    H131420   0.643   6.105   2.298  0.3000 -1.0605  0.2158
 3287TIP3    H231421   0.512   6.064   2.362  0.0926  0.5479  0.8570
 3288TIP3   OH231422   2.945   0.415   0.545  0.7777 -0.2224  0.1744
 3288TIP3    H131423   2.922   0.499   0.586  2.2519  0.0257  0.5605
 3288TIP3    H231424   3.024   0.435   0.494 -0.2315 -0.8385 -1.7238
 3289TIP3   OH231425   0.096   2.442   8.675  0.3392 -0.0170  0.6003
 3289TIP3    H131426   0.081   2.530   8.640 -0.2279  0.3793  1.7967
 3289TIP3    H231427   0.188   2.443   8.702  0.6388 -0.1618 -0.3505
 3290TIP3   OH231428   2.034   5.101   1.515 -0.3222 -0.2164 -0.1193
 3290TIP3    H131429   1.950   5.076   1.477 -0.3699 -0.9425  0.4474
 3290TIP3    H231430   2.084   5.138   1.442 -0.3183 -1.8013 -0.9498
 3291TIP3   OH231431   1.276   2.734   1.963  0.2476 -0.4476 -0.2172
 3291TIP3    H131432   1.337   2.725   2.037 -1.0953 -0.0426  0.9775
 3291TIP3    H231433   1.256   2.644   1.938 -0.1218 -0.6071  0.6287
 3292TIP3   OH231434   2.053   1.608   3.340 -0.1670 -0.1958  0.2046
 3292TIP3    H131435   1.958   1.597   3.337 -0.1541 -0.2239 -0.0548
 3292TIP3    H231436   2.067   1.698   3.309 -0.0395 -0.5002 -0.6127
 3293TIP3   OH231437   3.952   2.131   8.366  0.1193  0.0671 -0.2321
 3293TIP3    H131438   3.986   2.221   8.371  1.0544 -0.2823  0.0059
 3293TIP3    H231439   3.958   2.108   8.273 -1.6072  0.7835 -0.5505
 3294TIP3   OH231440   3.374   4.781   1.729  0.2434  0.3599 -0.4445
 3294TIP3    H131441   3.359   4.794   1.822  0.6036 -0.6359 -0.2441
 3294TIP3    H231442   3.393   4.688   1.720 -0.0507  0.3918 -1.5475
 3295TIP3   OH231443   4.001   5.745   0.180 -0.1023  0.5197 -0.8125
 3295TIP3    H131444   3.907   5.736   0.167  0.0731 -0.4809 -1.4644
 3295TIP3    H231445   4.038   5.748   0.092  0.5189  0.4773 -0.5624
 3296TIP3   OH231446   1.570   1.460   0.370  0.0892 -0.0366 -0.1036
 3296TIP3    H131447   1.558   1.368   0.346  0.5501 -0.1268  0.0087
 3296TIP3    H231448   1.481   1.490   0.392 -0.1640 -0.2618 -0.7958
 3297TIP3   OH231449   2.874   3.611   8.648  0.4034 -0.2429  0.0836
 3297TIP3    H131450   2.934   3.659   8.705 -0.6943  1.0291  0.2267
 3297TIP3    H231451   2.787   3.639   8.677 -0.2446  2.3777 -3.6474
 3298TIP3   OH231452   5.754   4.187   1.866 -0.9271  0.4580  0.2066
 3298TIP3    H131453   5.736   4.179   1.959 -0.4145  1.7415  0.4368
 3298TIP3    H231454   5.698   4.259   1.836  0.4624  1.5079  0.0063
 3299TIP3   OH231455   1.212   1.206   2.491  0.0203  0.0730 -0.1626
 3299TIP3    H131456   1.124   1.242   2.500  0.5194  1.6664 -1.1181
 3299TIP3    H231457   1.207   1.118   2.527 -1.5828  0.6868  1.2155
 3300TIP3   OH231458   4.230   2.708   7.378 -0.7824 -0.0062 -0.3899
 3300TIP3    H131459   4.162   2.748   7.325 -0.0184  1.1310 -0.5382
 3300TIP3    H231460   4.183   2.652   7.440 -1.7251 -0.6501 -1.6636
 3301TIP3   OH231461   6.204   4.553   0.212 -0.1209  0.1234 -1.1882
 3301TIP3    H131462   6.174   4.643   0.228 -1.1616 -0.4608  0.3120
 3301TIP3    H231463   6.200   4.543   0.117 -0.8024  1.3934 -1.3152
 3302TIP3   OH231464   0.372   6.191   2.909  0.0798 -0.4284 -0.2668
 3302TIP3    H131465   0.392   6.109   2.954 -0.5609 -0.8041 -0.6445
 3302TIP3    H231466   0.277   6.202   2.921 -0.4078 -1.3078 -2.7040
 3303TIP3   OH231467   3.871   2.078   0.392  0.4018 -0.5863 -0.1704
 3303TIP3    H131468   3.839   2.091   0.481 -2.7818 -0.0247 -1.2648
 3303TIP3    H231469   3.828   1.998   0.362  1.3323 -0.7055 -1.2886
 3304TIP3   OH231470   6.052   3.642   8.846 -0.0696 -0.4534 -0.2984
 3304TIP3    H131471   6.107   3.678   8.777  0.9528 -2.3919 -0.5617
 3304TIP3    H231472   6.112   3.623   8.918 -1.0556  1.1346  1.0368
 3305TIP3   OH231473   4.617   5.398   7.694  0.2031  0.6752  0.5060
 3305TIP3    H131474   4.674   5.363   7.625  0.0143 -0.3704  0.8653
 3305TIP3    H231475   4.530   5.395   7.657  0.1705  0.6199  0.5854
 3306TIP3   OH231476   5.967   5.944   0.716  0.1999 -0.3740 -0.2817
 3306TIP3    H131477   5.931   5.858   0.694 -0.0975 -1.1779  2.8488
 3306TIP3    H231478   6.039   5.925   0.776  1.7945  1.5205 -1.4684
 3307TIP3   OH231479   0.656   4.109   7.231  0.2181 -0.4156  0.1019
 3307TIP3    H131480   0.582   4.130   7.174  0.8127 -0.0741 -0.5762
 3307TIP3    H231481   0.682   4.021   7.205  0.7950 -0.0789 -0.5355
 3308TIP3   OH231482   2.795   5.195   7.031 -0.0952  0.6529  0.6147
 3308TIP3    H131483   2.775   5.286   7.008 -1.0993  0.6929  1.5247
 3308TIP3    H231484   2.853   5.202   7.106 -0.0115  0.5426  0.5597
 3309TIP3   OH231485   1.509   2.497   7.744  0.5126 -0.3163  0.1134
 3309TIP3    H131486   1.472   2.565   7.687  1.6774  1.6280  1.5396
 3309TIP3    H231487   1.593   2.476   7.703 -0.1587 -1.5065 -0.7256
 3310TIP3   OH231488   4.808   4.501   2.402 -0.7238  0.3979  0.4748
 3310TIP3    H131489   4.717   4.509   2.372 -0.6097  1.9712  0.4456
 3310TIP3    H231490   4.801   4.486   2.496 -1.0187 -0.1870  0.3623
 3311TIP3   OH231491   3.914   1.130   0.755  0.0943 -0.5473  0.7133
 3311TIP3    H131492   4.005   1.126   0.784  0.0559 -0.3388  0.8643
 3311TIP3    H231493   3.865   1.084   0.822 -0.0339  0.2094  1.1515
 3312TIP3   OH231494   1.477   5.675   7.410 -0.1667  0.0410  0.3521
 3312TIP3    H131495   1.385   5.698   7.397 -0.4662 -1.5184 -0.4627
 3312TIP3    H231496   1.479   5.579   7.403  1.4345  0.0103  0.9128
 3313TIP3   OH231497   2.975   1.178   2.255 -0.0584  0.1564 -0.3507
 3313TIP3    H131498   2.930   1.173   2.171 -1.5209  0.7494  0.3745
 3313TIP3    H231499   3.017   1.264   2.254 -0.9151  0.5876 -0.0789
 3314TIP3   OH231500   0.890   2.734   8.831  0.3229  0.4088  0.7937
 3314TIP3    H131501   0.969   2.719   8.779  0.5032  0.1363  1.1514
 3314TIP3    H231502   0.871   2.827   8.818  0.5985  0.4352  0.5658
 3315TIP3   OH231503   4.582   0.365   0.814  0.0513  0.1288  0.7527
 3315TIP3    H131504   4.645   0.430   0.847  0.5009  0.4528 -0.6698
 3315TIP3    H231505   4.506   0.416   0.788 -0.4635 -0.1702  1.6178
 3316TIP3   OH231506   0.501   0.776   8.145 -0.5300 -0.2023 -0.2512
 3316TIP3    H131507   0.532   0.778   8.054  0.8400  1.2842  0.1785
 3316TIP3    H231508   0.449   0.856   8.154 -1.4445 -0.8162  0.0398
 3317TIP3   OH231509   3.780   6.094   7.814  0.4784 -0.2710  0.0278
 3317TIP3    H131510   3.740   6.141   7.887  1.1887  0.9298 -0.3238
 3317TIP3    H231511   3.866   6.135   7.804  0.3593 -0.3435 -1.5420
 3318TIP3   OH231512   0.700   4.190   0.982 -0.6947 -0.1739  0.0254
 3318TIP3    H131513   0.754   4.213   1.057  0.4459 -2.4369 -0.0181
 3318TIP3    H231514   0.756   4.205   0.906 -0.4300 -1.5458 -0.0843
 3319TIP3   OH231515   5.270   5.979   7.616 -0.6602  0.2692  0.3316
 3319TIP3    H131516   5.246   6.030   7.694 -0.6628 -0.4745  0.8261
 3319TIP3    H231517   5.258   5.888   7.642  2.4825 -0.1891  0.5693
 3320TIP3   OH231518   1.267   4.360   8.657 -0.8103 -0.3585 -0.4922
 3320TIP3    H131519   1.351   4.391   8.623 -0.1073 -1.6791 -0.0230
 3320TIP3    H231520   1.211   4.437   8.654  1.0739  1.2337  1.4024
 3321TIP3   OH231521   2.986   0.048   3.660  0.4590  0.2327  0.3473
 3321TIP3    H131522   2.955   0.135   3.636 -2.4141 -0.3673  1.4993
 3321TIP3    H231523   2.987   0.048   3.756 -0.9920 -1.3974  0.4090
 3322TIP3   OH231524   6.080   6.137   2.040  0.3506 -0.2979 -0.5361
 3322TIP3    H131525   6.172   6.112   2.042  0.1845 -0.8457  0.8529
 3322TIP3    H231526   6.057   6.156   2.131 -1.2272 -1.4092 -0.6636
 3323TIP3   OH231527   3.683   1.879   2.650  0.0612 -0.4483 -0.8979
 3323TIP3    H131528   3.751   1.824   2.689  1.8008  1.3890 -1.2060
 3323TIP3    H231529   3.619   1.892   2.720  1.5556  0.2265  0.3992
 3324TIP3   OH231530   6.250   0.417   2.380  0.0872  0.0875 -0.0018
 3324TIP3    H131531   6.209   0.504   2.378 -1.5044 -0.6123 -0.0400
 3324TIP3    H231532   6.301   0.416   2.461  1.7926  1.7391 -1.0011
 3325TIP3   OH231533   6.425   5.934   8.765  0.3373 -0.2239 -0.8515
 3325TIP3    H131534   6.419   5.990   8.687  0.2316  0.4668 -0.3525
 3325TIP3    H231535   6.422   5.994   8.839 -0.6055 -0.9347 -0.2750
 3326TIP3   OH231536   1.457   4.649   8.561  0.3667  0.2011 -0.2647
 3326TIP3    H131537   1.467   4.734   8.605  1.5400  0.4752 -1.0047
 3326TIP3    H231538   1.410   4.669   8.480 -0.2536 -0.0314  0.0287
 3327TIP3   OH231539   6.500   1.402   0.006  0.4572 -0.0962 -0.0227
 3327TIP3    H131540   6.513   1.452  -0.074 -2.7121 -0.6327 -1.0188
 3327TIP3    H231541   6.414   1.362  -0.004  0.7120 -1.6941  2.8935
 3328TIP3   OH231542   4.480   2.659   2.341 -0.0356 -0.0148  0.1356
 3328TIP3    H131543   4.488   2.679   2.247 -0.4016  0.8212  0.2746
 3328TIP3    H231544   4.394   2.692   2.365 -0.6324 -1.6841  0.4207
 3329TIP3   OH231545   4.401   0.180   8.048  0.1283 -0.1067  0.1905
 3329TIP3    H131546   4.412   0.161   8.141  2.9498 -3.5021 -0.6288
 3329TIP3    H231547   4.317   0.226   8.043 -0.2260  0.0835  4.3329
 3330TIP3   OH231548   4.515   6.732   2.033  0.1116 -0.6398  0.5901
 3330TIP3    H131549   4.441   6.728   1.973 -0.6058 -0.6950  1.4584
 3330TIP3    H231550   4.571   6.659   2.007  0.1695 -0.2468 -0.4485
 3331TIP3   OH231551   0.808   5.321   0.031  0.1795 -0.4450  0.1673
 3331TIP3    H131552   0.767   5.321   0.117 -0.2719 -0.9028 -0.0420
 3331TIP3    H231553   0.900   5.340   0.049  0.0332 -0.2257  0.7186
 3332TIP3   OH231554   5.059   5.461   0.352  0.9551 -0.7833 -0.1843
 3332TIP3    H131555   4.988   5.417   0.397  1.0664  0.4738  1.2953
 3332TIP3    H231556   5.031   5.552   0.346  2.1501 -0.3952 -0.1492
 3333TIP3   OH231557   4.643   4.120   0.794 -0.1499  0.0984  0.1385
 3333TIP3    H131558   4.700   4.056   0.750  1.0904  0.4717  1.1281
 3333TIP3    H231559   4.578   4.143   0.728 -1.1567 -2.7812 -0.0041
 3334TIP3   OH231560   3.444   2.868   3.510  0.2586  0.1730  0.2855
 3334TIP3    H131561   3.502   2.943   3.495  0.2376  0.0679 -0.3434
 3334TIP3    H231562   3.470   2.804   3.443 -1.1927  0.4914 -0.6262
 3335TIP3   OH231563   5.707   4.473   0.969  0.3866  0.8109 -0.0890
 3335TIP3    H131564   5.617   4.464   1.001  0.6648 -2.2339  0.1350
 3335TIP3    H231565   5.761   4.467   1.047  0.8661 -1.4879 -0.5161
 3336TIP3   OH231566   4.372   3.428   0.987 -0.2868  0.4152  0.8334
 3336TIP3    H131567   4.418   3.456   0.907  1.9577 -0.7684  1.6129
 3336TIP3    H231568   4.311   3.499   1.006 -0.4710  0.9989 -1.5830
 3337TIP3   OH231569   3.250   6.664   7.233 -0.2232 -0.0003  0.3651
 3337TIP3    H131570   3.277   6.703   7.316 -0.3984 -0.7587  0.7887
 3337TIP3    H231571   3.305   6.586   7.224 -0.8690 -0.4512  0.2491
 3338TIP3   OH231572   3.457   5.966   1.859  0.3662 -0.2063  0.1033
 3338TIP3    H131573   3.399   5.906   1.906 -0.7309  0.3941 -0.4696
 3338TIP3    H231574   3.537   5.914   1.844 -0.1415 -1.1621  0.5681
 3339TIP3   OH231575   1.183   1.894   8.518 -0.0519  0.2759 -0.1934
 3339TIP3    H131576   1.205   1.890   8.611  1.6906  1.4655 -0.5055
 3339TIP3    H231577   1.088   1.886   8.515 -0.2392  1.2071  1.7629
 3340TIP3   OH231578   4.044   1.836   2.388  0.3946  0.0499  0.2773
 3340TIP3    H131579   4.012   1.834   2.479  1.6596 -0.7655  0.7380
 3340TIP3    H231580   4.066   1.745   2.369  0.6323  0.2997 -0.6775
 3341TIP3   OH231581   2.810   2.197   2.061 -0.7315 -0.4680 -0.0306
 3341TIP3    H131582   2.876   2.132   2.086  1.4185  0.8511 -1.8665
 3341TIP3    H231583   2.811   2.197   1.965 -0.7037  2.1582 -0.1170
 3342TIP3   OH231584   5.923   3.546   0.630 -0.1801  0.4255  0.3284
 3342TIP3    H131585   5.989   3.536   0.699 -1.9846  0.2461  2.1356
 3342TIP3    H231586   5.901   3.457   0.604  0.9468  0.5066 -0.9795
 3343TIP3   OH231587   1.919   0.583   2.302 -0.4412 -0.3005 -0.0456
 3343TIP3    H131588   1.889   0.601   2.391 -0.6389  0.4299 -0.2492
 3343TIP3    H231589   1.847   0.612   2.246 -0.7475 -1.7111 -0.4146
 3344TIP3   OH231590   1.773   2.835   1.367  0.0731 -0.1541 -0.8199
 3344TIP3    H131591   1.777   2.890   1.289  0.2909  1.1383  0.0577
 3344TIP3    H231592   1.687   2.853   1.404  0.4158  0.1358 -0.1499
 3345TIP3   OH231593   1.209   3.532   8.405 -0.3449  0.1746  0.1263
 3345TIP3    H131594   1.188   3.506   8.494 -0.3064  0.7258  0.3003
 3345TIP3    H231595   1.295   3.495   8.389 -0.3839  0.0105  0.2911
 3346TIP3   OH231596   5.362   6.290   8.291 -0.5407  0.2044  0.3292
 3346TIP3    H131597   5.413   6.288   8.210 -0.3971  1.4943  0.3723
 3346TIP3    H231598   5.425   6.315   8.359 -1.0732  1.1849  0.4843
 3347TIP3   OH231599   2.288   1.882   1.243  0.1244  0.3234  0.1384
 3347TIP3    H131600   2.208   1.932   1.259 -0.0849 -0.3681  1.4038
 3347TIP3    H231601   2.284   1.810   1.306  0.6070 -1.0822 -1.3685
 3348TIP3   OH231602   2.776   4.290   8.044 -0.1290 -0.1857 -0.2546
 3348TIP3    H131603   2.747   4.202   8.022 -2.1180  0.5261 -0.6709
 3348TIP3    H231604   2.820   4.280   8.128 -3.2582 -1.1338  1.4074
 3349TIP3   OH231605   5.505   3.801   1.490  0.4057 -0.2164  0.6127
 3349TIP3    H131606   5.484   3.751   1.569  0.7858 -1.1685  0.1312
 3349TIP3    H231607   5.427   3.794   1.436  0.7368 -0.9593  0.2186
 3350TIP3   OH231608   0.255   3.562   3.530 -0.1212  0.0082  0.0519
 3350TIP3    H131609   0.201   3.631   3.492 -0.3850  0.8134  1.7653
 3350TIP3    H231610   0.192   3.503   3.571  0.1660 -0.5718 -0.3407
 3351TIP3   OH231611   3.913   1.439   7.211  0.8069  0.1600 -0.2585
 3351TIP3    H131612   4.005   1.424   7.192  0.9148 -1.5763  1.3318
 3351TIP3    H231613   3.867   1.373   7.160  0.7106 -0.9581  1.2081
 3352TIP3   OH231614   1.410   3.324   0.319 -0.1536  0.4210  0.4067
 3352TIP3    H131615   1.380   3.320   0.228 -0.8153  0.6010  0.6098
 3352TIP3    H231616   1.344   3.378   0.363  0.1930  0.3791  0.9794
 3353TIP3   OH231617   0.296   5.888   1.584  0.0653 -0.3341 -0.0854
 3353TIP3    H131618   0.247   5.863   1.663 -0.0984  0.0254 -0.0690
 3353TIP3    H231619   0.342   5.809   1.558 -0.6659 -0.7313 -0.2057
 3354TIP3   OH231620   0.211   4.432   2.401 -0.3012  1.2263 -0.1956
 3354TIP3    H131621   0.270   4.471   2.337 -2.1913  1.4714 -1.9094
 3354TIP3    H231622   0.129   4.418   2.352 -1.5854  0.6886  1.9730
 3355TIP3   OH231623   3.137   2.536   8.656  0.1080 -0.4239 -0.2648
 3355TIP3    H131624   3.045   2.524   8.681  0.3332 -0.3838  0.6345
 3355TIP3    H231625   3.143   2.500   8.568 -0.9075  0.1495 -0.5849
 3356TIP3   OH231626   3.743   6.160   1.485  0.6212  0.0432  0.0023
 3356TIP3    H131627   3.786   6.075   1.498 -0.7824 -1.2177 -2.8677
 3356TIP3    H231628   3.816   6.221   1.471  1.8442 -2.0779 -5.0373
 3357TIP3   OH231629   6.513   4.798   2.026  0.1535 -0.0835 -0.2695
 3357TIP3    H131630   6.537   4.889   2.009 -1.1540  0.5191  0.8890
 3357TIP3    H231631   6.419   4.795   2.010  0.0778 -1.0773  0.2807
 3358TIP3   OH231632   3.880   5.605   8.680 -0.6288  0.4898  0.5782
 3358TIP3    H131633   3.953   5.654   8.719 -0.7835  0.0612  1.4425
 3358TIP3    H231634   3.916   5.519   8.659 -0.8757  0.2700  1.0264
 3359TIP3   OH231635   1.954   2.334   0.932  0.3308  0.0622  0.2157
 3359TIP3    H131636   1.978   2.340   1.025  2.2241 -1.2870 -0.1244
 3359TIP3    H231637   2.013   2.397   0.889  0.2770 -0.1736 -0.2010
 3360TIP3   OH231638   4.325   6.431   1.400  0.1054 -0.7905 -0.2139
 3360TIP3    H131639   4.387   6.363   1.374  1.6859  0.3454  0.4136
 3360TIP3    H231640   4.293   6.467   1.317  1.2634 -0.5541 -0.5731
 3361TIP3   OH231641   5.827   4.214   0.754  0.1379  0.2826 -0.0711
 3361TIP3    H131642   5.917   4.234   0.781 -0.1465  2.0947 -0.3080
 3361TIP3    H231643   5.775   4.286   0.790 -1.5665 -1.7403  1.7246
 3362TIP3   OH231644   3.464   1.175   7.962  0.7026 -0.5949 -0.3051
 3362TIP3    H131645   3.424   1.249   8.008 -1.4570 -1.6375 -0.4166
 3362TIP3    H231646   3.507   1.215   7.886  2.9822  0.9579  1.6671
 3363TIP3   OH231647   0.977   0.527   3.197  0.3487 -0.2304  0.0244
 3363TIP3    H131648   1.036   0.548   3.269 -0.4484 -2.0426  1.3071
 3363TIP3    H231649   0.993   0.434   3.179 -1.5978 -0.6128 -0.0169
 3364TIP3   OH231650   5.945   0.106   7.805  0.3035 -0.5400 -0.0990
 3364TIP3    H131651   5.901   0.081   7.724  0.7051 -1.7899  0.0477
 3364TIP3    H231652   5.888   0.073   7.875  1.6585 -2.6656  0.0956
 3365TIP3   OH231653   5.900   4.524   0.798  0.0821  0.2634  0.4063
 3365TIP3    H131654   5.932   4.612   0.817  0.4616  0.2182 -0.0090
 3365TIP3    H231655   5.825   4.513   0.856 -0.3056  1.0672  0.0754
 3366TIP3   OH231656   1.896   6.015   0.328  0.2133 -0.4612  0.1796
 3366TIP3    H131657   1.957   6.022   0.402 -0.3895 -0.9151  0.7303
 3366TIP3    H231658   1.902   6.099   0.283  0.4579 -0.1178  0.8474
 3367TIP3   OH231659   4.308   2.661   1.482 -0.4973 -0.2298  0.0121
 3367TIP3    H131660   4.241   2.703   1.535 -0.5688  0.1614 -0.3799
 3367TIP3    H231661   4.367   2.621   1.545 -0.5629  0.2554  0.3908
 3368TIP3   OH231662   3.512   1.797   8.422 -0.7169  0.4670 -0.1210
 3368TIP3    H131663   3.531   1.787   8.515  0.6908  0.7529 -0.3501
 3368TIP3    H231664   3.431   1.749   8.408 -0.2051 -0.7727  0.9870
 3369TIP3   OH231665   1.423   2.479   1.442 -0.4990 -0.0282 -0.4412
 3369TIP3    H131666   1.415   2.423   1.520  0.8402 -0.8138 -0.8327
 3369TIP3    H231667   1.423   2.417   1.369  2.9677  0.2054 -0.8042
 3370TIP3   OH231668   2.889   5.500   2.468 -0.2266 -0.2635 -0.5883
 3370TIP3    H131669   2.827   5.460   2.407  0.2553 -1.2332 -0.4799
 3370TIP3    H231670   2.918   5.427   2.523 -0.3970  0.5268  0.5881
 3371TIP3   OH231671   2.005   3.414   8.014  0.1133 -0.5200  0.6129
 3371TIP3    H131672   1.940   3.393   7.947  1.2678  1.9627 -1.4582
 3371TIP3    H231673   2.073   3.346   8.004 -0.4093 -0.9989  0.2694
 3372TIP3   OH231674   1.772   2.943   1.115 -0.1453  0.0693  0.5053
 3372TIP3    H131675   1.824   3.023   1.112 -0.1543  0.0498 -0.8849
 3372TIP3    H231676   1.822   2.880   1.062 -1.3126 -0.0959 -0.4496
 3373TIP3   OH231677   1.831   4.582   1.972  0.3099  0.9683 -0.0903
 3373TIP3    H131678   1.848   4.574   1.878  0.1058  1.7632 -0.1965
 3373TIP3    H231679   1.903   4.534   2.013 -1.2248 -2.1403 -0.6857
 3374TIP3   OH231680   2.671   3.365   8.845  0.0368  0.1842 -0.3104
 3374TIP3    H131681   2.582   3.370   8.880 -0.3888  0.0816 -1.3360
 3374TIP3    H231682   2.707   3.453   8.860 -0.0139  0.0469  0.6583
 3375TIP3   OH231683   5.782   3.200   0.654 -0.3184 -0.5550  0.2084
 3375TIP3    H131684   5.728   3.279   0.646 -0.3166 -0.3939  1.5655
 3375TIP3    H231685   5.851   3.211   0.589 -1.2143 -0.1989 -0.7254
 3376TIP3   OH231686   0.939   1.512   8.117  0.2142 -0.2521 -0.6319
 3376TIP3    H131687   0.967   1.456   8.045 -0.5308 -2.0404  0.3944
 3376TIP3    H231688   1.010   1.575   8.128  1.6975 -1.7840 -1.0267
 3377TIP3   OH231689   3.952   1.597   8.442 -0.2560  0.4110  0.1149
 3377TIP3    H131690   4.005   1.632   8.370 -0.5919  1.4933  0.3777
 3377TIP3    H231691   3.991   1.634   8.521  0.2094 -0.8984  0.5236
 3378TIP3   OH231692   3.872   2.802   0.317  0.1894  0.0939 -0.0079
 3378TIP3    H131693   3.946   2.845   0.274  0.0694  0.2565 -0.0492
 3378TIP3    H231694   3.835   2.745   0.250 -0.5170  0.9725 -0.3818
 3379TIP3   OH231695   2.180   6.117   1.193 -0.0711 -0.7621  0.3824
 3379TIP3    H131696   2.200   6.032   1.232 -1.5428 -1.5515 -0.4870
 3379TIP3    H231697   2.161   6.174   1.268  1.0544 -1.1510  0.9803
 3380TIP3   OH231698   1.810   3.094   0.512 -0.5729  0.3150 -0.6632
 3380TIP3    H131699   1.791   3.070   0.602 -1.8025  1.7425 -0.5108
 3380TIP3    H231700   1.728   3.080   0.465 -1.4007  3.9422 -0.5743
 3381TIP3   OH231701   6.160   6.333   2.275 -0.0437 -0.0001 -0.6125
 3381TIP3    H131702   6.211   6.318   2.354 -2.2728  1.0432  1.1667
 3381TIP3    H231703   6.224   6.360   2.209  2.0081 -1.7562  0.5351
 3382TIP3   OH231704   0.758   0.016   1.032 -0.2204 -0.3535  0.2391
 3382TIP3    H131705   0.840  -0.033   1.032 -1.3509 -2.4467  2.2332
 3382TIP3    H231706   0.734   0.023   0.940  1.6390 -0.6409 -0.3059
 3383TIP3   OH231707   5.710   5.233   8.390 -0.6430  0.2964  0.4538
 3383TIP3    H131708   5.683   5.254   8.301 -1.9210 -1.4007  0.3811
 3383TIP3    H231709   5.725   5.318   8.431 -1.8637  1.1875 -0.8241
 3384TIP3   OH231710   2.986   4.685   1.171  0.4911 -0.6769  0.6740
 3384TIP3    H131711   2.906   4.635   1.188  2.7176 -3.9761  2.5023
 3384TIP3    H231712   3.013   4.659   1.083 -0.9487  1.3845 -0.4543
 3385TIP3   OH231713   4.876   3.673   2.211 -0.4267 -0.3414  0.2113
 3385TIP3    H131714   4.908   3.762   2.221 -0.5788 -0.4339  1.8441
 3385TIP3    H231715   4.789   3.674   2.250 -0.9299 -0.9409 -0.8507
 3386TIP3   OH231716   2.327   6.136   2.931 -0.1188  0.2087 -0.5172
 3386TIP3    H131717   2.290   6.160   3.016 -0.0536  1.5679 -0.8531
 3386TIP3    H231718   2.408   6.187   2.924  1.2035 -1.7345 -0.3563
 3387TIP3   OH231719   2.652   5.013   8.809 -0.2033 -0.0165  0.0440
 3387TIP3    H131720   2.718   5.016   8.740 -0.8387 -0.1277 -0.5834
 3387TIP3    H231721   2.570   4.994   8.763 -0.8948  1.3838  0.6498
 3388TIP3   OH231722   6.208   5.419   1.541  0.5736  0.0087 -0.1098
 3388TIP3    H131723   6.143   5.465   1.487  1.0594  0.7117 -0.1095
 3388TIP3    H231724   6.290   5.427   1.493  0.4910 -1.7788 -0.6307
 3389TIP3   OH231725   3.422   0.370   1.008 -0.4133 -0.6050 -0.0537
 3389TIP3    H131726   3.493   0.371   1.072 -2.3213 -1.1035  2.2162
 3389TIP3    H231727   3.400   0.462   0.994  0.4712 -0.4620 -0.5850
 3390TIP3   OH231728   0.450   4.518   2.282 -0.3524 -0.4363 -0.0061
 3390TIP3    H131729   0.524   4.578   2.277 -0.4371 -0.0608  2.1597
 3390TIP3    H231730   0.489   4.434   2.307 -0.4100 -0.8991 -1.4143
 3391TIP3   OH231731   0.466   0.850   2.023 -0.3709  0.4868  0.1549
 3391TIP3    H131732   0.373   0.868   2.013  0.0065  2.5008 -0.1458
 3391TIP3    H231733   0.499   0.921   2.078  0.7484 -0.9638  1.4511
 3392TIP3   OH231734   2.170   3.319   1.745 -0.0009  0.4980  0.0065
 3392TIP3    H131735   2.146   3.271   1.825 -1.4545 -0.0125 -0.6979
 3392TIP3    H231736   2.254   3.361   1.766  1.6323 -2.7399  0.4821
 3393TIP3   OH231737   3.763   2.564   1.986  0.0057  0.2444  0.0223
 3393TIP3    H131738   3.752   2.488   2.043  0.0557 -0.1749 -0.5205
 3393TIP3    H231739   3.689   2.621   2.007 -0.0073  0.0641  0.4610
 3394TIP3   OH231740   3.372   0.097   2.336 -0.0593  0.2264 -0.0133
 3394TIP3    H131741   3.458   0.110   2.296 -0.4487 -0.5196 -1.1551
 3394TIP3    H231742   3.349   0.182   2.372  0.1692  1.0424 -1.7187
 3395TIP3   OH231743   5.822   2.355   8.616 -0.2989  0.1050 -0.2215
 3395TIP3    H131744   5.861   2.314   8.538 -0.2176  1.0793 -0.7057
 3395TIP3    H231745   5.793   2.281   8.669 -1.1972 -0.6035 -1.6037
 3396TIP3   OH231746   2.629   6.444   0.703  0.2440  0.3058 -0.2467
 3396TIP3    H131747   2.676   6.431   0.786  2.7126  0.7677 -1.4838
 3396TIP3    H231748   2.583   6.527   0.716 -0.5094 -0.2817  1.1039
 3397TIP3   OH231749   5.911   4.269   7.934  0.0040 -0.2777  0.6964
 3397TIP3    H131750   5.911   4.263   7.838  1.0512 -0.8389  0.7176
 3397TIP3    H231751   5.882   4.183   7.964  0.5336 -0.3886  0.8921
 3398TIP3   OH231752   4.253   4.480   2.145  0.6173 -0.7197 -0.3348
 3398TIP3    H131753   4.212   4.559   2.110  0.4644  0.0842  1.5368
 3398TIP3    H231754   4.201   4.408   2.108 -0.5613  0.1560 -0.4461
 3399TIP3   OH231755   3.387   2.283   7.057  0.1282  0.3110 -0.0771
 3399TIP3    H131756   3.359   2.281   7.149 -0.4129 -0.5170 -0.2492
 3399TIP3    H231757   3.463   2.342   7.057 -0.1607  0.7095  0.8125
 3400TIP3   OH231758   4.912   6.574   1.014 -0.3260 -0.3367 -0.1539
 3400TIP3    H131759   4.833   6.616   0.980 -0.3321 -0.0270  0.2384
 3400TIP3    H231760   4.886   6.483   1.029 -0.2965 -0.5052 -1.0584
 3401TIP3   OH231761   2.342   3.810   7.508  0.4138 -0.5758 -0.2951
 3401TIP3    H131762   2.280   3.804   7.435  0.1151 -0.6219 -0.0380
 3401TIP3    H231763   2.384   3.895   7.496 -0.9447  0.2592  0.5050
 3402TIP3   OH231764   1.234   2.200   8.480  0.0842 -0.7900 -0.0889
 3402TIP3    H131765   1.316   2.233   8.442 -0.9385  1.7004 -0.3243
 3402TIP3    H231766   1.261   2.126   8.534  2.4023 -0.4122 -0.6061
 3403TIP3   OH231767   1.175   3.298   2.704 -0.1487 -0.1483  0.9441
 3403TIP3    H131768   1.131   3.349   2.636 -1.8311 -1.6485  0.8562
 3403TIP3    H231769   1.238   3.360   2.742  0.2518  0.9916 -1.3584
 3404TIP3   OH231770   0.356   2.828   8.651  0.2709 -0.6536 -0.3380
 3404TIP3    H131771   0.333   2.745   8.609 -1.2839 -0.2089 -0.4560
 3404TIP3    H231772   0.279   2.884   8.635  1.1203  0.6725  0.0781
 3405TIP3   OH231773   1.003   3.789   2.997 -0.2652 -0.2756  0.3106
 3405TIP3    H131774   1.061   3.865   2.991 -2.0148  1.1353  0.2118
 3405TIP3    H231775   1.056   3.720   3.036  1.3628  1.0197  0.4796
 3406TIP3   OH231776   4.598   3.739   8.271  0.0431  0.3231  0.6969
 3406TIP3    H131777   4.685   3.731   8.231 -0.4409  2.3756 -0.9676
 3406TIP3    H231778   4.578   3.651   8.303  1.5850 -0.8654 -1.3446
 3407TIP3   OH231779   0.434   0.305   2.140  0.5364 -0.4052  0.4106
 3407TIP3    H131780   0.402   0.226   2.096 -0.8853 -0.2521  1.1010
 3407TIP3    H231781   0.511   0.331   2.090  1.5061 -2.6503  0.6328
 3408TIP3   OH231782   1.682   5.345   8.344  0.5457  0.0316  0.3417
 3408TIP3    H131783   1.679   5.361   8.438 -1.5930  3.2887 -0.1314
 3408TIP3    H231784   1.765   5.300   8.330  1.9788  1.3930  3.5004
 3409TIP3   OH231785   0.943   4.653   7.855 -0.3660  0.0563 -0.0307
 3409TIP3    H131786   1.032   4.621   7.845 -0.5788 -0.5551 -0.0286
 3409TIP3    H231787   0.942   4.694   7.941 -0.6855 -2.0635  1.0650
 3410TIP3   OH231788   5.335   6.402   0.842 -0.2416 -0.2570 -0.0687
 3410TIP3    H131789   5.276   6.454   0.897 -1.4089 -0.1534 -1.3592
 3410TIP3    H231790   5.360   6.328   0.897 -1.4332 -0.1916  0.5900
 3411TIP3   OH231791   5.256   5.326   7.967 -0.3093 -0.2919  0.2098
 3411TIP3    H131792   5.275   5.384   7.893  0.3970 -0.6468  0.0977
 3411TIP3    H231793   5.333   5.335   8.023 -0.8392 -0.0309  0.9029
 3412TIP3   OH231794   3.481   4.995   7.681 -0.2957 -0.3763  0.0037
 3412TIP3    H131795   3.423   4.997   7.604 -0.5732 -1.5759  0.1603
 3412TIP3    H231796   3.561   4.953   7.650 -0.8962 -2.0927  0.6521
 3413TIP3   OH231797   2.522   3.133   2.081  0.0076 -0.1127  0.3862
 3413TIP3    H131798   2.538   3.083   2.161  0.3376  0.6852  0.8275
 3413TIP3    H231799   2.498   3.221   2.111 -0.4053  0.0459 -0.3808
 3414TIP3   OH231800   4.492   0.889   1.500 -0.8418  0.0370  0.1225
 3414TIP3    H131801   4.557   0.958   1.512 -0.5057 -0.2973  0.2712
 3414TIP3    H231802   4.448   0.883   1.584  0.4764 -1.2641  0.7759
 3415TIP3   OH231803   1.420   4.046   1.262 -0.2844 -0.5690 -0.1557
 3415TIP3    H131804   1.421   4.018   1.353  0.2420 -0.7243 -0.2069
 3415TIP3    H231805   1.508   4.025   1.229 -0.4815 -0.5481 -0.7069
 3416TIP3   OH231806   2.161   1.573   0.728  0.4037  0.0888 -0.0091
 3416TIP3    H131807   2.229   1.636   0.701  0.4095 -0.1651 -0.5933
 3416TIP3    H231808   2.198   1.530   0.805  0.4845  0.6625  0.2783
 3417TIP3   OH231809   2.667   3.935   8.754 -0.3517 -0.5899 -0.0222
 3417TIP3    H131810   2.732   3.990   8.798 -0.0767 -1.2482  0.4184
 3417TIP3    H231811   2.702   3.921   8.666 -0.3111 -0.2489 -0.0595
 3418TIP3   OH231812   6.447   3.598   8.843 -0.3011  0.4463  0.5512
 3418TIP3    H131813   6.543   3.604   8.845 -0.0612 -2.1817 -0.2439
 3418TIP3    H231814   6.423   3.629   8.756  0.0371 -0.8386 -0.0161
 3419TIP3   OH231815   5.858   1.592   1.539  0.1255 -0.8763 -0.1856
 3419TIP3    H131816   5.943   1.559   1.568  0.4374  0.7145  0.8257
 3419TIP3    H231817   5.795   1.525   1.566  1.0902 -2.4300 -1.6060
 3420TIP3   OH231818   3.285   2.575   2.787  0.0429  0.4250 -0.3427
 3420TIP3    H131819   3.343   2.521   2.839 -0.3087 -0.7872 -1.1835
 3420TIP3    H231820   3.342   2.619   2.725  0.3118  0.9573  0.2634
 3421TIP3   OH231821   5.519   0.091   8.601 -0.9835 -0.0617 -0.4211
 3421TIP3    H131822   5.433   0.113   8.636 -0.8383 -1.5530  1.0059
 3421TIP3    H231823   5.548   0.017   8.654  0.9187  0.0114 -1.2779
 3422TIP3   OH231824   4.548   2.508   1.116  0.0535  0.0277 -0.2495
 3422TIP3    H131825   4.561   2.433   1.058 -1.8932 -1.6603  1.3218
 3422TIP3    H231826   4.512   2.576   1.059  0.6019 -0.6645 -1.4697
 3423TIP3   OH231827   3.854   5.988   0.530 -0.5804  0.2489  0.3273
 3423TIP3    H131828   3.773   6.028   0.562 -1.2156 -0.2301 -0.6394
 3423TIP3    H231829   3.876   6.037   0.451  0.8510  1.2737  1.2927
 3424TIP3   OH231830   4.502   1.957   0.067  0.0550  0.4852  0.1956
 3424TIP3    H131831   4.446   1.973   0.143  0.2185  2.1618  0.0054
 3424TIP3    H231832   4.449   1.985  -0.007  0.2468 -0.2634 -0.2361
 3425TIP3   OH231833   2.716   4.776   7.976  0.0805  0.1201  0.2171
 3425TIP3    H131834   2.639   4.719   7.967 -1.9584  2.3579  2.1258
 3425TIP3    H231835   2.752   4.755   8.063 -0.0243  0.9266  0.4681
 3426TIP3   OH231836   6.141   4.720   7.739  0.9654  0.5381  0.0365
 3426TIP3    H131837   6.080   4.706   7.811 -0.7100  1.1358 -1.1944
 3426TIP3    H231838   6.210   4.776   7.776  0.2363  0.6931  1.2072
 3427TIP3   OH231839   0.150   4.494   0.515 -0.8205 -0.3292 -0.0821
 3427TIP3    H131840   0.225   4.497   0.574  0.5644  0.6545 -1.7997
 3427TIP3    H231841   0.085   4.552   0.555  0.2539  0.6539  0.2809
 3428TIP3   OH231842   1.703   1.033   1.813  0.1410 -0.5040 -0.8410
 3428TIP3    H131843   1.608   1.040   1.819  0.2622 -0.0776  2.4391
 3428TIP3    H231844   1.733   1.123   1.801  0.2049 -0.1539  1.6096
 3429TIP3   OH231845   2.938   1.850   0.163 -0.0091 -0.1231 -0.1104
 3429TIP3    H131846   3.028   1.882   0.165 -0.3692  1.0700 -1.3697
 3429TIP3    H231847   2.893   1.899   0.232  0.0536  0.0779 -0.2133
 3430TIP3   OH231848   2.037   3.762   7.569 -0.4286  0.5465 -0.2922
 3430TIP3    H131849   1.943   3.749   7.567 -1.2088  3.7397  3.2143
 3430TIP3    H231850   2.052   3.840   7.515  0.5253 -0.7619 -2.0137
 3431TIP3   OH231851   0.589   2.116   2.004  0.0902  0.1252  0.3942
 3431TIP3    H131852   0.660   2.174   2.033 -0.3711  1.1168 -0.3694
 3431TIP3    H231853   0.614   2.029   2.035  2.4470  0.1421 -1.1952
 3432TIP3   OH231854   3.950   0.239   0.534  0.0987  0.7121 -0.1637
 3432TIP3    H131855   3.866   0.197   0.516  0.0382 -0.9504  3.1465
 3432TIP3    H231856   4.012   0.197   0.475 -0.9331  0.0530 -0.8016
 3433TIP3   OH231857   2.955   3.662   2.656  0.1157  0.4876 -0.0107
 3433TIP3    H131858   2.953   3.723   2.582  0.8134  1.0135  0.3954
 3433TIP3    H231859   2.923   3.714   2.730 -1.9265 -0.4246 -0.1966
 3434TIP3   OH231860   6.253   4.207   3.602 -0.4976 -0.1365 -0.2023
 3434TIP3    H131861   6.171   4.241   3.638 -1.4998  0.5630 -2.9118
 3434TIP3    H231862   6.258   4.244   3.514  2.0020 -1.3722 -0.6776
 3435TIP3   OH231863   0.452   3.973   2.433 -0.1179  0.8306 -0.0409
 3435TIP3    H131864   0.515   3.951   2.366 -1.1768 -0.6313 -0.6147
 3435TIP3    H231865   0.490   3.940   2.514 -0.9361 -1.8371 -0.6559
 3436TIP3   OH231866   1.091   2.035   1.462 -0.3031 -0.5098 -0.0897
 3436TIP3    H131867   1.016   2.094   1.458  0.3227  0.3361  0.2895
 3436TIP3    H231868   1.097   1.997   1.374 -1.5805 -1.1191  0.0733
 3437TIP3   OH231869   5.001   6.715   2.497  0.1313  0.3904  0.3174
 3437TIP3    H131870   4.906   6.726   2.492 -0.3191 -2.9546 -2.9054
 3437TIP3    H231871   5.031   6.734   2.408  2.3029  0.1558  0.9646
 3438TIP3   OH231872   1.082   2.992   1.935 -0.1814 -0.4187  0.0513
 3438TIP3    H131873   1.003   2.939   1.921 -0.9367  0.2981  1.3341
 3438TIP3    H231874   1.145   2.931   1.974 -0.9451 -0.4754  1.2558
 3439TIP3   OH231875   2.385   0.877   1.782  0.0463 -0.0286 -0.3888
 3439TIP3    H131876   2.338   0.960   1.784  0.9636  0.5074  1.9521
 3439TIP3    H231877   2.324   0.816   1.741 -1.4879  1.3078 -0.1935
 3440TIP3   OH231878   5.435   2.848   2.862  0.0209  0.2269 -0.2449
 3440TIP3    H131879   5.360   2.811   2.817  1.0090 -1.4655 -0.5702
 3440TIP3    H231880   5.406   2.860   2.952 -0.7551  0.0027 -0.4579
 3441TIP3   OH231881   3.710   2.875   0.960 -0.5102  0.0372 -0.0451
 3441TIP3    H131882   3.775   2.944   0.952 -0.7794  0.2828 -0.1526
 3441TIP3    H231883   3.635   2.917   1.003 -0.6455 -0.2082 -0.0366
 3442TIP3   OH231884   2.135   0.178   1.030 -1.0180 -0.1038 -1.1955
 3442TIP3    H131885   2.041   0.160   1.029 -0.9468 -0.6578  0.3143
 3442TIP3    H231886   2.155   0.203   1.120  0.1112  1.0539 -1.7242
 3443TIP3   OH231887   0.920   2.870   8.542 -0.1687 -0.0873 -0.2905
 3443TIP3    H131888   0.873   2.789   8.521 -0.9785  0.0250  0.9582
 3443TIP3    H231889   0.891   2.892   8.631 -0.6799  2.1020 -0.9464
 3444TIP3   OH231890   0.225   6.005   8.253 -0.6130  0.0193  0.0778
 3444TIP3    H131891   0.171   5.950   8.195 -0.2614  0.8763 -1.1038
 3444TIP3    H231892   0.263   6.071   8.195 -0.0993  0.8142  1.2746
 3445TIP3   OH231893   4.657   4.502   1.220 -0.0148 -0.2462  0.2563
 3445TIP3    H131894   4.741   4.502   1.174  0.0352 -1.1188  0.3393
 3445TIP3    H231895   4.642   4.594   1.241  0.9350 -0.0832  0.2731
 3446TIP3   OH231896   2.784   6.159   8.861  0.1204  0.6490 -0.3937
 3446TIP3    H131897   2.746   6.233   8.907 -0.5487  0.4600 -0.6382
 3446TIP3    H231898   2.791   6.090   8.927 -0.7078  0.4243 -0.5299
 3447TIP3   OH231899   4.073   6.391   0.361 -0.1669 -0.0739 -0.0499
 3447TIP3    H131900   4.164   6.364   0.350 -0.6426 -1.5550 -0.5632
 3447TIP3    H231901   4.078   6.478   0.401  1.4562 -0.4664  0.6703
 3448TIP3   OH231902   4.486   5.766   0.475  0.4152 -0.0808  0.0463
 3448TIP3    H131903   4.486   5.851   0.518 -0.9167 -0.5003  0.9421
 3448TIP3    H231904   4.481   5.786   0.381  1.4801  0.8207  0.1685
 3449TIP3   OH231905   5.613   4.866   0.554  0.1891 -0.2262  0.8876
 3449TIP3    H131906   5.702   4.841   0.579  0.3943  2.2101  3.0663
 3449TIP3    H231907   5.615   4.961   0.550 -1.4077 -0.1771 -3.1056
 3450TIP3   OH231908   2.635   1.333   8.456  0.3765 -0.2897 -0.0483
 3450TIP3    H131909   2.546   1.352   8.426 -0.3102 -1.7016  0.9915
 3450TIP3    H231910   2.627   1.323   8.551  2.0413  1.6066  0.3870
 3451TIP3   OH231911   1.038   0.322   1.130 -0.0440 -0.1296 -0.7987
 3451TIP3    H131912   1.014   0.239   1.089  0.8919 -1.1365  0.6107
 3451TIP3    H231913   0.954   0.367   1.142 -0.5322 -0.6955 -1.8968
 3452TIP3   OH231914   6.729   6.348   8.168 -0.2596 -0.5714  0.1556
 3452TIP3    H131915   6.638   6.320   8.173 -0.0890 -1.1770 -0.1384
 3452TIP3    H231916   6.727   6.430   8.118 -0.7227 -0.1978  0.7761
 3453TIP3   OH231917   4.098   5.994   1.638  0.1865  0.0990 -0.1824
 3453TIP3    H131918   4.122   6.042   1.558  0.6880  0.5908  0.2556
 3453TIP3    H231919   4.085   6.062   1.704 -1.0069 -0.2551 -0.0353
 3454TIP3   OH231920   3.670   1.547   8.457 -0.2277 -0.4609 -0.5609
 3454TIP3    H131921   3.661   1.636   8.423  0.0663 -0.4317 -0.5667
 3454TIP3    H231922   3.764   1.536   8.471 -0.4091 -0.0935  1.2651
 3455TIP3   OH231923   5.944   2.948   2.987 -0.3253 -0.6488 -0.1656
 3455TIP3    H131924   5.953   3.009   3.060 -0.6304  0.3049 -0.9030
 3455TIP3    H231925   5.849   2.939   2.975 -0.3190 -2.0351  0.5332
 3456TIP3   OH231926   2.160   6.360   0.080  0.1845  0.2691 -0.0200
 3456TIP3    H131927   2.173   6.454   0.092 -0.7195  0.2120  1.6558
 3456TIP3    H231928   2.197   6.320   0.159  0.6844 -0.8114 -0.7735
 3457TIP3   OH231929   3.642   1.955   1.884  0.4366  0.3904  0.0482
 3457TIP3    H131930   3.647   1.932   1.976  1.0318 -0.4712 -0.1885
 3457TIP3    H231931   3.550   1.946   1.861  0.1592  1.3696  0.7406
 3458TIP3   OH231932   6.196   0.565   2.073  0.2489 -0.6818  0.4194
 3458TIP3    H131933   6.118   0.524   2.110 -0.3199  0.2177  0.2607
 3458TIP3    H231934   6.264   0.498   2.077 -0.9523 -2.0270 -0.9804
 3459TIP3   OH231935   4.432   4.607   0.100 -0.4084  0.7613 -0.0678
 3459TIP3    H131936   4.390   4.578   0.019  0.4639 -0.7679  0.0010
 3459TIP3    H231937   4.359   4.632   0.157 -1.2583 -1.4812 -0.0839
 3460TIP3   OH231938   1.368   2.707   0.361  0.3231 -0.1191 -0.5909
 3460TIP3    H131939   1.306   2.763   0.315  1.0849  1.5003  0.2760
 3460TIP3    H231940   1.401   2.761   0.432  0.3266 -2.0350  0.9365
 3461TIP3   OH231941   3.128   3.636   0.858  0.4432 -0.3148 -0.2607
 3461TIP3    H131942   3.084   3.601   0.781  0.9288 -2.5281  0.3730
 3461TIP3    H231943   3.093   3.585   0.931 -0.8137  2.4538  1.2056
 3462TIP3   OH231944   3.519   4.854   1.440  0.0593 -0.8581 -0.2320
 3462TIP3    H131945   3.474   4.892   1.365 -0.0183  0.2481  0.3558
 3462TIP3    H231946   3.537   4.763   1.414 -0.2373 -0.5827 -1.4530
 3463TIP3   OH231947   0.968   1.870   7.734  0.2375  0.3004 -0.6670
 3463TIP3    H131948   0.946   1.957   7.702 -0.8819 -0.1789 -1.2199
 3463TIP3    H231949   0.990   1.820   7.656  0.7848  0.0409 -0.3581
 3464TIP3   OH231950   1.822   4.128   0.555  0.8958  0.3229  0.9669
 3464TIP3    H131951   1.911   4.098   0.574  0.2895 -2.5619 -0.2033
 3464TIP3    H231952   1.765   4.063   0.596 -0.6169  0.8464 -0.2012
 3465TIP3   OH231953   1.433   4.425   7.936  0.3230  0.0479 -0.1161
 3465TIP3    H131954   1.515   4.475   7.938  1.1697 -1.2955  1.4901
 3465TIP3    H231955   1.395   4.439   8.023 -0.2343 -0.7676 -0.2190
 3466TIP3   OH231956   5.501   4.263   8.284  0.5676 -0.0503  0.0432
 3466TIP3    H131957   5.535   4.179   8.251 -0.8094 -0.2923 -0.8407
 3466TIP3    H231958   5.538   4.329   8.226 -0.3140 -0.3034 -0.8425
 3467TIP3   OH231959   2.673   2.045   2.430  0.1337  0.5298  0.3363
 3467TIP3    H131960   2.608   2.008   2.490  0.1492  1.4469  0.9413
 3467TIP3    H231961   2.713   2.116   2.480  0.1713  1.2857 -0.7507
 3468TIP3   OH231962   4.304   6.116   1.077 -0.0567 -0.4402  0.0660
 3468TIP3    H131963   4.217   6.154   1.069  0.0165 -0.4045 -0.6318
 3468TIP3    H231964   4.312   6.058   1.001  0.0117 -1.4955  0.8482
 3469TIP3   OH231965   2.574   5.490   0.128  0.0711 -0.1138  0.2396
 3469TIP3    H131966   2.599   5.475   0.037 -1.3623 -3.4626  0.2413
 3469TIP3    H231967   2.502   5.552   0.123 -1.4140 -1.8543 -1.1884
 3470TIP3   OH231968   3.273   0.333   4.007 -0.0306  0.0137 -0.7271
 3470TIP3    H131969   3.366   0.327   4.031 -0.1701 -1.0382 -0.3723
 3470TIP3    H231970   3.267   0.288   3.923  0.0218  1.4360 -1.5156
 3471TIP3   OH231971   3.630   6.695   1.085 -0.1575 -0.1350 -0.5397
 3471TIP3    H131972   3.540   6.699   1.052  0.5607 -0.7312 -2.8203
 3471TIP3    H231973   3.676   6.640   1.021  1.5426 -0.9687  1.2842
 3472TIP3   OH231974   1.223   2.939   0.312  0.3057 -0.0109 -0.5574
 3472TIP3    H131975   1.202   3.031   0.326  2.0227  0.1556  1.4081
 3472TIP3    H231976   1.154   2.906   0.255 -2.3205  1.6220  1.5020
 3473TIP3   OH231977   4.691   1.678   0.288 -0.4037  0.2832 -0.3844
 3473TIP3    H131978   4.729   1.726   0.214  0.9977 -1.9418 -1.2183
 3473TIP3    H231979   4.751   1.694   0.361  1.8836 -2.4819 -1.4591
 3474TIP3   OH231980   0.061   3.095   1.213 -0.2646 -0.1756  0.3687
 3474TIP3    H131981   0.070   3.178   1.166  0.1911 -0.7427 -0.5774
 3474TIP3    H231982   0.021   3.036   1.149  0.7445 -1.0857  0.5585
 3475TIP3   OH231983   3.602   0.505   7.458  0.3452  0.3878  0.0459
 3475TIP3    H131984   3.664   0.576   7.443 -0.8499  1.4668 -0.0222
 3475TIP3    H231985   3.598   0.457   7.375  0.6048  0.7098 -0.1530
 3476TIP3   OH231986   4.659   3.294   7.554 -0.0096 -0.3377  0.7475
 3476TIP3    H131987   4.735   3.311   7.498  1.1257  1.1198  2.6475
 3476TIP3    H231988   4.628   3.380   7.581 -0.4501 -0.9907  2.4570
 3477TIP3   OH231989   0.459   3.625   8.152 -0.0651  0.3995 -0.4891
 3477TIP3    H131990   0.436   3.546   8.103 -1.6012  1.2560 -1.2228
 3477TIP3    H231991   0.428   3.697   8.097  0.9698  1.5107  0.3317
 3478TIP3   OH231992   6.456   0.221   1.410 -0.0913 -0.5042 -0.0295
 3478TIP3    H131993   6.436   0.173   1.491 -1.6845 -2.2996 -1.3885
 3478TIP3    H231994   6.476   0.153   1.347  0.8813  0.8529 -1.2386
 3479TIP3   OH231995   6.652   2.944   1.107  0.1468  0.7515 -0.2224
 3479TIP3    H131996   6.650   2.863   1.056 -1.2438  0.7825 -0.2696
 3479TIP3    H231997   6.643   3.013   1.041  1.6875  0.9912 -0.2164
 3480TIP3   OH231998   0.692   5.082   1.793 -0.7060 -0.2651  0.3130
 3480TIP3    H131999   0.769   5.034   1.763  1.2639  1.5659  2.0883
 3480TIP3    H232000   0.656   5.121   1.714  2.1567  1.4448 -0.2912
 3481TIP3   OH232001   5.036   4.543   8.407  0.0386  0.0707 -0.3021
 3481TIP3    H132002   4.993   4.522   8.489  1.5297  1.1543  0.8172
 3481TIP3    H232003   5.017   4.636   8.393  2.1787  0.6668  0.3912
 3482TIP3   OH232004   0.161   0.973   8.360  0.7688 -0.2918  0.5325
 3482TIP3    H132005   0.170   1.053   8.412 -1.1470  0.4417 -0.1601
 3482TIP3    H232006   0.242   0.967   8.310  0.0686  2.5452 -1.1508
 3483TIP3   OH232007   3.929   5.191   1.385 -0.0867 -0.3279 -0.8266
 3483TIP3    H132008   3.914   5.277   1.344 -0.4527 -0.1534 -0.3391
 3483TIP3    H232009   3.845   5.146   1.376  0.1791 -0.7425 -1.3130
 3484TIP3   OH232010   3.951   3.177   8.773 -0.2452  0.2777 -0.4210
 3484TIP3    H132011   4.009   3.136   8.708 -1.7094 -1.9978 -0.4174
 3484TIP3    H232012   3.872   3.199   8.724 -0.4459  0.7645  0.1160
 3485TIP3   OH232013   4.764   6.668   0.354 -0.2486 -0.2160  0.5824
 3485TIP3    H132014   4.782   6.587   0.306  0.3501 -0.1863  0.7501
 3485TIP3    H232015   4.776   6.738   0.289 -0.3249 -0.2348  0.5485
 3486TIP3   OH232016   5.780   6.231   0.178  0.1574 -0.5931  0.6708
 3486TIP3    H132017   5.704   6.288   0.194  1.8840  2.3703 -0.6931
 3486TIP3    H232018   5.820   6.220   0.264  0.2435  1.0605  0.8762
 3487TIP3   OH232019   3.786   1.147   2.838 -0.2132 -0.0815 -0.1708
 3487TIP3    H132020   3.702   1.174   2.874 -0.4928 -0.4231 -0.5536
 3487TIP3    H232021   3.807   1.213   2.772 -1.1493 -1.0201 -1.4820
 3488TIP3   OH232022   0.774   3.862   0.032 -0.5841 -0.0355 -0.0353
 3488TIP3    H132023   0.765   3.909  -0.051 -1.1171  0.6356  0.3907
 3488TIP3    H232024   0.861   3.885   0.064 -1.0684  1.1718  0.4616
 3489TIP3   OH232025   1.221   0.463   0.980 -0.4631  0.1247 -0.1602
 3489TIP3    H132026   1.172   0.402   1.036  1.2306 -0.7648  0.4096
 3489TIP3    H232027   1.209   0.428   0.892 -2.8750  1.3477 -0.4025
 3490TIP3   OH232028   2.923   0.304   1.679 -0.0398  0.2304 -0.4955
 3490TIP3    H132029   2.902   0.372   1.615 -0.2957  0.5340 -0.0912
 3490TIP3    H232030   2.943   0.352   1.759  3.3697  0.1115 -1.0819
 3491TIP3   OH232031   0.684   1.717   8.018  0.3560 -0.0322 -0.5018
 3491TIP3    H132032   0.702   1.755   8.104 -0.1878 -0.0232 -0.3920
 3491TIP3    H232033   0.594   1.685   8.023  0.5179 -0.5664 -0.8754
 3492TIP3   OH232034   6.170   5.814   0.856  0.4959  0.4568  0.4092
 3492TIP3    H132035   6.096   5.762   0.890 -0.4718  1.0487 -0.7277
 3492TIP3    H232036   6.234   5.812   0.927 -0.8002  0.3113  1.6385
 3493TIP3   OH232037   4.528   2.932   8.637 -0.1614 -0.0949  0.3005
 3493TIP3    H132038   4.437   2.942   8.663 -0.4710 -0.4354 -0.6089
 3493TIP3    H232039   4.527   2.941   8.541  1.0356  1.8893  0.4244
 3494TIP3   OH232040   4.330   4.286   7.201 -0.2068 -0.0766 -0.1135
 3494TIP3    H132041   4.364   4.246   7.281 -2.4278 -0.2909  0.8173
 3494TIP3    H232042   4.338   4.380   7.215  0.3922 -0.1309 -0.0984
 3495TIP3   OH232043   5.790   6.383   7.752  0.5025  0.2003  0.2139
 3495TIP3    H132044   5.731   6.429   7.813 -0.4576 -1.2561  0.4173
 3495TIP3    H232045   5.792   6.439   7.674  0.0623  1.0220  0.7754
 3496TIP3   OH232046   2.365   6.255   1.821  0.5174 -0.5662 -0.0262
 3496TIP3    H132047   2.363   6.192   1.893  3.7729 -0.1180  0.6106
 3496TIP3    H232048   2.422   6.325   1.852 -2.7493  2.7384 -0.7763
 3497TIP3   OH232049   1.942   5.865   1.718 -0.3273  0.4673  0.5955
 3497TIP3    H132050   1.964   5.779   1.684  1.4828  0.9350  0.4727
 3497TIP3    H232051   1.914   5.915   1.641 -0.5280  0.2497  0.5263
 3498TIP3   OH232052   4.007   5.522   0.359  0.1268  0.3602 -0.3085
 3498TIP3    H132053   4.018   5.594   0.298  3.0205 -0.5678 -1.0641
 3498TIP3    H232054   3.920   5.486   0.339 -0.1062  1.7318 -1.9992
 3499TIP3   OH232055   4.325   2.331   2.112 -0.1776  0.2444 -0.2833
 3499TIP3    H132056   4.259   2.392   2.081 -0.3577 -0.2085 -0.8214
 3499TIP3    H232057   4.405   2.356   2.066 -0.2965 -0.0383 -0.6489
 3500TIP3   OH232058   2.152   3.830   1.821 -0.1814 -0.0220 -0.0503
 3500TIP3    H132059   2.086   3.895   1.843 -0.1867 -0.3663  1.0044
 3500TIP3    H232060   2.171   3.846   1.728 -2.4720 -0.5696 -0.6919
 3501TIP3   OH232061   6.144   4.280   3.012 -0.1024  0.2372  0.2419
 3501TIP3    H132062   6.068   4.273   3.071  0.9354 -2.5014  1.3943
 3501TIP3    H232063   6.140   4.370   2.979 -2.0989  1.1441  2.6413
 3502TIP3   OH232064   2.584   5.383   8.340  0.0491  0.6171  0.0050
 3502TIP3    H132065   2.630   5.318   8.286  1.0569 -0.1010  1.6253
 3502TIP3    H232066   2.626   5.466   8.318 -0.2112  0.4941 -0.9952
 3503TIP3   OH232067   1.486   5.932   1.896  0.0964  0.9304  0.3028
 3503TIP3    H132068   1.578   5.953   1.906  0.7757 -0.4819 -2.1998
 3503TIP3    H232069   1.477   5.902   1.805 -2.5119 -0.5117  0.9163
 3504TIP3   OH232070   5.371   2.462   0.570  0.1602 -0.2764  0.0195
 3504TIP3    H132071   5.441   2.493   0.627 -0.4030 -3.1663  2.5554
 3504TIP3    H232072   5.301   2.435   0.630 -2.5517  0.9590 -2.3151
 3505TIP3   OH232073   4.236   2.223   3.355 -0.2839  0.3260 -0.7210
 3505TIP3    H132074   4.265   2.306   3.395 -1.3609 -0.2970  1.5306
 3505TIP3    H232075   4.314   2.167   3.358 -0.4911  0.0349  1.4240
 3506TIP3   OH232076   4.246   6.547   1.164 -0.3273 -0.1267  0.6672
 3506TIP3    H132077   4.200   6.623   1.130 -0.3522 -0.1973  0.5409
 3506TIP3    H232078   4.271   6.497   1.086  0.6994  0.3361  0.6880
 3507TIP3   OH232079   5.681   3.965   7.407  0.5110  0.0151 -0.3714
 3507TIP3    H132080   5.632   3.925   7.479  2.6754 -1.7247  0.2353
 3507TIP3    H232081   5.615   4.011   7.356 -1.7046 -1.9810  0.5236
 3508TIP3   OH232082   5.923   0.843   1.868 -0.3158  0.3756  0.4940
 3508TIP3    H132083   5.878   0.881   1.792 -0.3510  0.6473  0.6506
 3508TIP3    H232084   5.899   0.899   1.941  0.4898  0.6836  0.5346
 3509TIP3   OH232085   6.129   2.787   8.302 -0.5747 -0.1055 -0.1819
 3509TIP3    H132086   6.182   2.803   8.224  0.9552  2.0095  1.1790
 3509TIP3    H232087   6.141   2.694   8.321  0.6392 -0.2079 -1.3094
 3510TIP3   OH232088   3.715   0.778   8.675 -0.2023 -0.0225  0.5140
 3510TIP3    H132089   3.719   0.762   8.581 -1.3964 -1.0909  0.6287
 3510TIP3    H232090   3.658   0.710   8.710  0.7691 -0.0770  2.1269
 3511TIP3   OH232091   5.097   1.998   8.854  0.2097 -0.1391  0.0283
 3511TIP3    H132092   5.062   1.921   8.810 -2.1668  0.4456  0.7436
 3511TIP3    H232093   5.028   2.064   8.846  2.0642  1.8786 -0.3724
 3512TIP3   OH232094   5.266   6.202   2.610 -0.3547  0.0554  0.2724
 3512TIP3    H132095   5.344   6.181   2.661 -0.0643  0.7108  0.0964
 3512TIP3    H232096   5.262   6.298   2.609 -1.1467  0.0347  0.2639
 3513TIP3   OH232097   1.616   3.045   8.138  0.3084 -0.2994 -0.6692
 3513TIP3    H132098   1.711   3.041   8.132  0.4303  0.3767  0.4691
 3513TIP3    H232099   1.590   2.961   8.175  0.7213  0.4034  1.3566
 3514TIP3   OH232100   3.094   6.500   1.339  0.2296 -0.4263 -0.4356
 3514TIP3    H132101   3.033   6.431   1.361  1.3620 -1.2298  0.2678
 3514TIP3    H232102   3.141   6.467   1.263  1.0789 -0.6299  0.1706
 3515TIP3   OH232103   2.078   4.517   8.214  0.2932 -0.2187  0.3381
 3515TIP3    H132104   2.076   4.424   8.237  1.0896 -0.8852 -2.0053
 3515TIP3    H232105   2.164   4.530   8.174  0.2625  1.5833  0.7744
 3516TIP3   OH232106   5.252   3.733   8.777 -0.6889 -0.0369  0.5653
 3516TIP3    H132107   5.299   3.815   8.763 -2.6008  1.1979  0.8521
 3516TIP3    H232108   5.305   3.666   8.734  1.3485  1.2074  1.0226
 3517TIP3   OH232109   5.443   6.728   2.447  0.3241  0.0681  1.4088
 3517TIP3    H132110   5.383   6.769   2.509 -0.6731 -2.4782  2.2412
 3517TIP3    H232111   5.496   6.669   2.500 -0.0777 -1.6681 -0.0211
 3518TIP3   OH232112   2.851   4.463   2.124  0.2618 -0.3909  0.0208
 3518TIP3    H132113   2.852   4.369   2.105  0.6550 -0.1869 -1.0400
 3518TIP3    H232114   2.765   4.493   2.097  0.0547 -0.4878  0.5735
 3519TIP3   OH232115   0.542   0.358   1.360 -0.4139  0.7983 -0.5971
 3519TIP3    H132116   0.495   0.327   1.437  1.0180  1.0081  0.3821
 3519TIP3    H232117   0.495   0.438   1.335 -1.8627 -0.1131 -0.9387
 3520TIP3   OH232118   4.338   4.108   1.095 -0.1366 -0.4019 -0.1077
 3520TIP3    H132119   4.405   4.069   1.152 -0.6652 -1.2366 -0.0410
 3520TIP3    H232120   4.363   4.200   1.088  0.1584 -0.3658  1.1763
 3521TIP3   OH232121   1.600   6.552   7.662  0.7150 -0.2764 -0.1215
 3521TIP3    H132122   1.523   6.507   7.697  1.4236 -0.5080  1.2330
 3521TIP3    H232123   1.565   6.614   7.599 -0.5788 -0.4189  0.4200
 3522TIP3   OH232124   6.496   0.919   2.148 -0.0280 -0.1737  0.0515
 3522TIP3    H132125   6.462   0.952   2.231 -1.6515 -0.9399 -0.2678
 3522TIP3    H232126   6.438   0.846   2.126  1.0151 -0.6509 -1.2405
 3523TIP3   OH232127   4.553   5.045   1.258 -0.4144 -0.2313 -0.1746
 3523TIP3    H132128   4.526   5.137   1.256  0.7388  0.1698  0.9284
 3523TIP3    H232129   4.602   5.032   1.177 -0.2142  0.2585 -0.1345
 3524TIP3   OH232130   6.160   0.214   2.745 -0.1156  0.0689  0.4729
 3524TIP3    H132131   6.213   0.198   2.824 -1.6939 -0.7748  1.4101
 3524TIP3    H232132   6.200   0.159   2.678 -0.3103 -1.2881  1.4154
 3525TIP3   OH232133   0.333   6.310   0.419 -0.3894  0.0240 -0.1613
 3525TIP3    H132134   0.350   6.323   0.513 -0.1466 -1.7391  0.0607
 3525TIP3    H232135   0.394   6.371   0.376 -0.5497  0.9090  0.8011
 3526TIP3   OH232136   5.165   3.771   0.683  0.0185  0.1766 -0.2452
 3526TIP3    H132137   5.109   3.841   0.715 -1.3054 -1.0029  0.1011
 3526TIP3    H232138   5.111   3.723   0.620  1.0394 -0.2854 -0.7997
 3527TIP3   OH232139   2.183   3.039   7.432  0.3602 -0.2366  0.0402
 3527TIP3    H132140   2.106   2.984   7.442  0.9968 -1.3861 -1.1384
 3527TIP3    H232141   2.249   2.982   7.394  1.6166  0.8873  0.4418
 3528TIP3   OH232142   0.808   5.375   2.251 -0.2185 -0.4454 -0.1429
 3528TIP3    H132143   0.809   5.285   2.221 -1.8009 -0.3260 -0.6595
 3528TIP3    H232144   0.877   5.380   2.317 -1.0114 -2.3814  0.8987
 3529TIP3   OH232145   4.888   1.853   1.437 -0.1962 -0.3852  0.5601
 3529TIP3    H132146   4.819   1.808   1.389 -1.1236  2.0622 -0.5361
 3529TIP3    H232147   4.844   1.926   1.481  1.3364 -0.1022  1.7381
 3530TIP3   OH232148   3.169   0.984   8.542 -0.0817  0.5088 -0.0694
 3530TIP3    H132149   3.200   1.051   8.603 -0.0689  1.1407 -0.7541
 3530TIP3    H232150   3.083   1.014   8.514 -0.2679  0.0085 -0.0483
 3531TIP3   OH232151   2.183   5.854   7.879  0.1011 -0.1290 -0.5961
 3531TIP3    H132152   2.121   5.904   7.933  0.9492 -0.0460  0.3270
 3531TIP3    H232153   2.229   5.797   7.941  0.4724 -0.6939 -1.3668
 3532TIP3   OH232154   3.397   3.615   8.185  0.3800  0.2925 -0.1890
 3532TIP3    H132155   3.427   3.526   8.167 -0.7019 -0.1559  0.1144
 3532TIP3    H232156   3.305   3.604   8.211  0.2372  1.4962 -0.1351
 3533TIP3   OH232157   1.890   0.887   1.942 -0.0004 -0.2165  0.1443
 3533TIP3    H132158   1.828   0.933   1.886  0.4188 -0.8415 -0.8511
 3533TIP3    H232159   1.835   0.844   2.009 -0.5127  0.4134  0.1315
 3534TIP3   OH232160   0.217   2.028   2.146 -0.3472  0.1041  0.2566
 3534TIP3    H132161   0.219   1.958   2.081  1.0904 -1.4461  1.8801
 3534TIP3    H232162   0.133   2.017   2.191  0.0626 -0.8745  0.7964
 3535TIP3   OH232163   2.815   4.390   1.778  0.1574  0.1676  0.5441
 3535TIP3    H132164   2.835   4.354   1.865 -0.5417 -0.3202  0.5049
 3535TIP3    H232165   2.827   4.317   1.718 -0.1369  0.3005  0.3212
 3536TIP3   OH232166   5.647   0.825   2.323 -0.6343  0.4624 -0.6731
 3536TIP3    H132167   5.650   0.869   2.408  1.4384 -0.4579 -0.1931
 3536TIP3    H232168   5.593   0.747   2.338  2.9817 -2.0281  1.1753
 3537TIP3   OH232169   4.275   6.440   2.439  0.4980  0.1653  0.2192
 3537TIP3    H132170   4.338   6.499   2.396 -0.6944  0.2894 -1.4523
 3537TIP3    H232171   4.193   6.489   2.440 -0.1315 -0.8559  0.2921
 3538TIP3   OH232172   2.699   4.617   0.890 -0.1134 -0.4918 -0.4371
 3538TIP3    H132173   2.750   4.689   0.853  0.6932 -0.7147  0.2202
 3538TIP3    H232174   2.608   4.641   0.871  0.1650  0.4547 -0.6556
 3539TIP3   OH232175   0.354   0.041   1.074  0.2642 -0.6690  0.6799
 3539TIP3    H132176   0.446   0.026   1.097  0.7789  2.6725  1.2953
 3539TIP3    H232177   0.316   0.079   1.153 -1.1158 -0.1449 -0.2053
 3540TIP3   OH232178   0.103   2.922   0.165 -0.5956 -0.0674 -0.3123
 3540TIP3    H132179   0.152   2.840   0.155 -1.0413 -0.2435 -1.2125
 3540TIP3    H232180   0.058   2.914   0.249  0.7958  0.0399  0.4667
 3541TIP3   OH232181   1.547   6.055   2.352 -0.1640  0.4740 -0.5819
 3541TIP3    H132182   1.612   6.084   2.288  0.7090 -0.0060  0.0628
 3541TIP3    H232183   1.593   6.059   2.436 -1.0169  0.2597 -0.0954
 3542TIP3   OH232184   2.848   5.966   1.352  0.0812 -0.3287 -0.0238
 3542TIP3    H132185   2.921   6.010   1.309  0.0689 -1.0056 -0.7590
 3542TIP3    H232186   2.780   5.962   1.285  0.1829 -1.7116 -0.0707
 3543TIP3   OH232187   2.252   6.601   2.020 -0.3000  0.6379  0.1996
 3543TIP3    H132188   2.249   6.639   1.932  1.3181  1.3952  0.4426
 3543TIP3    H232189   2.259   6.676   2.079 -1.6129  0.1464  1.0177
 3544TIP3   OH232190   0.126   2.535   8.280 -0.2018  0.3787  0.4395
 3544TIP3    H132191   0.208   2.583   8.271 -0.6126  0.9943 -0.2017
 3544TIP3    H232192   0.100   2.517   8.189 -0.6322 -0.0559  0.6474
 3545TIP3   OH232193   2.682   1.285   1.125  0.1386  0.4867 -0.1892
 3545TIP3    H132194   2.749   1.326   1.180 -0.4951  0.4754  0.6055
 3545TIP3    H232195   2.663   1.350   1.057  1.2511  0.3196 -0.6800
 3546TIP3   OH232196   6.736   1.829   8.653  0.1919  0.2069  0.0693
 3546TIP3    H132197   6.801   1.763   8.632  0.7034  0.8076 -0.2761
 3546TIP3    H232198   6.680   1.834   8.576  0.0517  0.0530  0.1617
 3547TIP3   OH232199   6.789   3.369   2.164 -0.2064  0.3282  0.7749
 3547TIP3    H132200   6.739   3.417   2.230 -1.3672 -0.0491  0.2010
 3547TIP3    H232201   6.876   3.358   2.203 -0.7334  0.4974  2.0550
 3548TIP3   OH232202   3.093   5.020   1.715  0.1414  0.1200  0.4204
 3548TIP3    H132203   3.148   4.979   1.648  0.8812 -0.9410  1.6415
 3548TIP3    H232204   3.143   5.094   1.746  1.0772 -1.0185  1.7428
 3549TIP3   OH232205   2.241   5.268   3.037  0.2927  0.1855  0.6698
 3549TIP3    H132206   2.165   5.326   3.028 -0.9116 -1.5022 -0.5623
 3549TIP3    H232207   2.204   5.182   3.056  1.8841 -0.7149 -0.0784
 3550TIP3   OH232208   4.410   2.081   0.634  0.4321 -0.1547  0.2338
 3550TIP3    H132209   4.480   2.146   0.628  0.2650  0.0872  0.8862
 3550TIP3    H232210   4.378   2.072   0.544  0.0315  1.1167  0.2360
 3551TIP3   OH232211   2.139   3.976   0.961  0.6228  0.2083 -0.0953
 3551TIP3    H132212   2.147   3.952   1.053 -1.9863 -1.7772 -0.2308
 3551TIP3    H232213   2.091   3.902   0.922  1.0149  1.3079 -2.8959
 3552TIP3   OH232214   6.794   3.081   1.727  0.0780 -0.7896 -0.0809
 3552TIP3    H132215   6.764   3.013   1.667 -1.5707 -0.7279  0.6160
 3552TIP3    H232216   6.866   3.039   1.776  0.7410 -1.1726 -1.3376
 3553TIP3   OH232217   6.071   3.677   3.312 -0.3263 -0.6755 -0.2895
 3553TIP3    H132218   6.130   3.733   3.261 -1.0072  0.9018  0.5485
 3553TIP3    H232219   6.126   3.641   3.381  0.2189 -1.4116 -1.0924
 3554TIP3   OH232220   2.537   2.929   1.297 -0.0265  0.2499  0.4535
 3554TIP3    H132221   2.506   2.889   1.216 -0.0369 -0.1122  0.6368
 3554TIP3    H232222   2.478   2.897   1.365  0.7745 -0.4991  0.8121
 3555TIP3   OH232223   0.671   3.517   1.047 -0.6212 -0.3438  0.3990
 3555TIP3    H132224   0.693   3.593   1.100 -3.1918  2.1845 -1.8733
 3555TIP3    H232225   0.581   3.496   1.072  0.0801 -2.8983  1.1128
 3556TIP3   OH232226   3.025   2.847   7.955  0.3789  0.1005  0.0379
 3556TIP3    H132227   2.986   2.914   7.900  0.2423  1.6574  1.9257
 3556TIP3    H232228   2.952   2.790   7.980  0.4247 -0.5505 -1.2278
 3557TIP3   OH232229   4.700   5.894   8.498 -0.1713 -0.4951 -0.5880
 3557TIP3    H132230   4.761   5.968   8.493  0.5236 -0.7203  2.5070
 3557TIP3    H232231   4.616   5.934   8.520 -0.2862 -0.5011 -0.9963
 3558TIP3   OH232232   3.937   5.105   2.536 -0.8353  0.1396  0.3581
 3558TIP3    H132233   3.864   5.143   2.586 -3.7475 -1.7866 -2.0698
 3558TIP3    H232234   3.925   5.011   2.544  0.8760 -0.2217 -0.8786
 3559TIP3   OH232235   3.788   6.590   2.500  0.0240 -0.1863 -0.1057
 3559TIP3    H132236   3.752   6.617   2.415  0.6508 -0.1863 -0.3763
 3559TIP3    H232237   3.739   6.511   2.523 -0.8053  0.3343 -0.0118
 3560TIP3   OH232238   4.843   3.397   1.316 -0.4812 -0.3314  0.3481
 3560TIP3    H132239   4.832   3.470   1.254  0.9267 -0.9222 -0.6321
 3560TIP3    H232240   4.904   3.431   1.382 -2.9457  0.7594  2.2727
 3561TIP3   OH232241   1.474   5.148   7.918  0.6093  0.5351  0.0645
 3561TIP3    H132242   1.486   5.053   7.922 -0.2133  0.4040 -0.4048
 3561TIP3    H232243   1.485   5.177   8.008  0.5009 -0.0473  0.2729
 3562TIP3   OH232244   1.886   0.357   7.598 -0.2397 -0.1114 -0.5792
 3562TIP3    H132245   1.841   0.399   7.525 -3.0721  0.1486  1.1884
 3562TIP3    H232246   1.859   0.265   7.593 -0.5807 -0.0602  0.2296
 3563TIP3   OH232247   1.147   6.777   2.593 -0.3973 -0.3122 -0.4660
 3563TIP3    H132248   1.079   6.764   2.659 -0.4207  0.4205 -0.3401
 3563TIP3    H232249   1.167   6.871   2.597 -0.7794 -0.1499 -1.8603
 3564TIP3   OH232250   0.284   1.564   2.138 -0.6116 -0.2417  0.7916
 3564TIP3    H132251   0.338   1.486   2.149 -0.4771 -0.1582  0.7239
 3564TIP3    H232252   0.198   1.530   2.113 -0.1546 -0.3166 -0.7874
 3565TIP3   OH232253   3.501   1.606   1.610 -0.3301 -0.3329  0.3757
 3565TIP3    H132254   3.518   1.517   1.579 -0.7696 -0.1517 -0.4426
 3565TIP3    H232255   3.571   1.658   1.571 -0.0134 -0.3372  0.9399
 3566TIP3   OH232256   5.081   3.713   2.480  0.1955 -0.2101 -0.3099
 3566TIP3    H132257   5.154   3.697   2.421  1.7670 -0.4426  1.6090
 3566TIP3    H232258   5.087   3.643   2.545 -1.9834 -0.4584 -0.2933
 3567TIP3   OH232259   4.486   1.805   1.796  0.0359 -0.2802  0.2926
 3567TIP3    H132260   4.452   1.741   1.733 -0.6100 -0.3256  0.6795
 3567TIP3    H232261   4.471   1.890   1.754  0.0046 -0.3309  0.1999
 3568TIP3   OH232262   1.988   2.937   8.683  0.2636 -0.0559  0.5472
 3568TIP3    H132263   2.050   3.007   8.708 -0.1998  0.6871 -0.2997
 3568TIP3    H232264   2.042   2.858   8.680  1.3804  0.7130 -0.9604
 3569TIP3   OH232265   2.601   1.807   7.901 -0.0349 -0.2858 -0.3673
 3569TIP3    H132266   2.549   1.739   7.858  0.7790  0.1126 -2.0719
 3569TIP3    H232267   2.544   1.884   7.902 -0.2800 -0.4697 -0.1844
 3570TIP3   OH232268   3.782   2.163   0.879 -0.1282  0.8940  0.2199
 3570TIP3    H132269   3.835   2.238   0.851  0.1067  0.8624  0.5781
 3570TIP3    H232270   3.773   2.174   0.974  2.5032 -1.1319  0.8454
 3571TIP3   OH232271   5.830   2.332   1.863  0.2961  0.2325 -0.1622
 3571TIP3    H132272   5.908   2.375   1.828 -0.0014  2.7575  1.9362
 3571TIP3    H232273   5.863   2.276   1.934  0.4098 -0.9349 -1.1022
 3572TIP3   OH232274   3.555   2.733   1.987  0.2685  0.6659 -0.3121
 3572TIP3    H132275   3.568   2.817   1.944 -1.4770  0.4546 -1.3587
 3572TIP3    H232276   3.478   2.746   2.042  0.9333  0.1825  0.7646
 3573TIP3   OH232277   0.308   6.106   8.513  0.4407  0.3202 -0.0558
 3573TIP3    H132278   0.278   6.059   8.435 -1.3299  1.4164 -0.1005
 3573TIP3    H232279   0.234   6.101   8.574  1.1028  1.0381  0.8325
 3574TIP3   OH232280   1.729   0.700   1.757  0.1431  0.7804 -0.0490
 3574TIP3    H132281   1.816   0.738   1.753 -0.4361  2.2514  0.5908
 3574TIP3    H232282   1.670   0.772   1.735 -1.0190  0.3895  1.5800
 3575TIP3   OH232283   1.024   0.930   0.119 -0.2536  0.3506 -0.6163
 3575TIP3    H132284   1.052   1.019   0.098  0.8664  0.4105  0.9515
 3575TIP3    H232285   1.022   0.885   0.034  1.3968  1.2658 -1.2014
 3576TIP3   OH232286   5.492   2.525   3.015  0.6573 -0.1737  0.1077
 3576TIP3    H132287   5.470   2.469   3.089  2.8054 -1.1177  0.1295
 3576TIP3    H232288   5.568   2.576   3.046  1.2292 -0.1772 -1.2228
 3577TIP3   OH232289   2.082   0.172   8.731  0.3432  0.6396 -0.5597
 3577TIP3    H132290   2.006   0.214   8.771  0.2503  0.9894 -1.1085
 3577TIP3    H232291   2.151   0.181   8.797 -0.1748  0.0185  0.0859
 3578TIP3   OH232292   0.742   4.748   1.079 -0.3376  0.5269 -0.1984
 3578TIP3    H132293   0.749   4.661   1.040 -1.7275  0.7331 -0.9857
 3578TIP3    H232294   0.704   4.733   1.165 -3.4928  0.4818 -1.4465
 3579TIP3   OH232295   6.756   1.447   1.260  0.1894 -0.5327  0.0113
 3579TIP3    H132296   6.813   1.384   1.305  0.4300 -0.5200 -0.2786
 3579TIP3    H232297   6.745   1.518   1.323  1.1681 -0.1437 -0.2400
 3580TIP3   OH232298   0.922   6.653   0.130  0.0009  0.2005 -0.4109
 3580TIP3    H132299   0.995   6.625   0.075 -0.2987  0.0460 -0.7353
 3580TIP3    H232300   0.863   6.698   0.069 -0.1490  0.3742 -0.1399
 3581TIP3   OH232301   6.761   0.892   2.197  0.3118 -0.3959 -0.1616
 3581TIP3    H132302   6.667   0.877   2.185 -0.2474  1.4041  1.4129
 3581TIP3    H232303   6.789   0.821   2.255 -0.0352 -1.0126 -0.7307
 3582TIP3   OH232304   2.356   5.526   0.523 -0.1162  0.1206 -0.3374
 3582TIP3    H132305   2.418   5.522   0.450  1.5059  2.5089  0.7851
 3582TIP3    H232306   2.398   5.475   0.593 -1.0985 -1.1384 -0.6216
 3583TIP3   OH232307   0.949   1.635   2.568 -0.5197 -0.0063  0.2554
 3583TIP3    H132308   0.924   1.549   2.601  0.1875  0.3970  1.9573
 3583TIP3    H232309   0.866   1.683   2.560 -0.6932  0.0461  2.0255
 3584TIP3   OH232310   3.770   3.097   2.145  0.1897  0.1235  0.2371
 3584TIP3    H132311   3.809   3.156   2.209  0.5513 -0.2795  0.3963
 3584TIP3    H232312   3.764   3.013   2.190  0.9597 -0.3033 -0.4302
 3585TIP3   OH232313   3.665   6.034   7.555 -0.1533  0.1957 -0.4347
 3585TIP3    H132314   3.643   6.127   7.555  0.2853  0.3258 -1.8678
 3585TIP3    H232315   3.700   6.018   7.643 -1.9982  0.9122  0.4867
 3586TIP3   OH232316   6.549   6.527   0.233  0.0177 -0.4309 -0.5638
 3586TIP3    H132317   6.623   6.587   0.240 -0.1523 -0.1164 -1.3506
 3586TIP3    H232318   6.523   6.532   0.141 -0.2542 -1.4122 -0.5515
 3587TIP3   OH232319   4.205   3.209   1.650  0.2402  0.5591  0.3054
 3587TIP3    H132320   4.248   3.159   1.580  0.3259  2.3041 -0.9549
 3587TIP3    H232321   4.112   3.205   1.629 -0.0663 -1.4540  1.8498
 3588TIP3   OH232322   5.004   2.760   0.268  0.6995  0.2102  0.1530
 3588TIP3    H132323   5.065   2.832   0.248  0.1243  0.8964  0.8215
 3588TIP3    H232324   4.971   2.733   0.182  2.2468 -0.4773 -0.2809
 3589TIP3   OH232325   5.499   0.432   8.619  0.2959 -0.2425  0.3257
 3589TIP3    H132326   5.538   0.509   8.660 -0.9577  0.1713  0.8232
 3589TIP3    H232327   5.541   0.426   8.533  1.3281  0.2332  0.7842
 3590TIP3   OH232328   2.590   5.679   1.038 -0.3270  0.4075  0.1068
 3590TIP3    H132329   2.541   5.598   1.049  0.0818 -0.2491 -2.2820
 3590TIP3    H232330   2.588   5.695   0.944  2.9468  1.0299  0.0388
 3591TIP3   OH232331   1.486   5.401   8.581 -0.5358  0.0673  0.0132
 3591TIP3    H132332   1.571   5.370   8.613  0.2312  0.1062 -1.8438
 3591TIP3    H232333   1.462   5.471   8.641  0.5789 -0.1820  0.7885
 3592TIP3   OH232334   0.429   5.025   0.022  0.2451  0.8185  0.1169
 3592TIP3    H132335   0.369   5.071   0.082 -0.1778  2.1242 -1.2419
 3592TIP3    H232336   0.480   5.095  -0.018  2.6214 -0.2386  1.0799
 3593TIP3   OH232337   2.409   2.110   0.149 -0.4867 -0.5382 -0.4482
 3593TIP3    H132338   2.460   2.186   0.177 -0.8119  0.3671 -2.2107
 3593TIP3    H232339   2.464   2.035   0.170  1.2471  0.3656 -1.5742
 3594TIP3   OH232340   3.183   5.670   1.673  0.0730  0.2534 -0.3509
 3594TIP3    H132341   3.118   5.651   1.605 -0.2274 -1.9210  0.4447
 3594TIP3    H232342   3.236   5.590   1.678  2.1735  1.5714 -0.2416
 3595TIP3   OH232343   2.387   3.516   1.419 -0.0407 -0.3398  0.5151
 3595TIP3    H132344   2.368   3.444   1.359 -0.6358 -1.2247  1.7170
 3595TIP3    H232345   2.309   3.522   1.474  1.5388 -1.4557  3.0372
 3596TIP3   OH232346   2.816   1.226   2.926  0.0114 -0.0211 -0.5311
 3596TIP3    H132347   2.865   1.176   2.992  0.0114  0.5077 -0.1291
 3596TIP3    H232348   2.788   1.305   2.971  1.5791  1.2387 -1.6418
 3597TIP3   OH232349   0.986   2.597   8.432  0.1913 -0.5556 -0.1862
 3597TIP3    H132350   0.913   2.616   8.373  0.0653 -2.0748 -0.5664
 3597TIP3    H232351   1.003   2.504   8.420  2.8741 -0.0642 -0.8578
 3598TIP3   OH232352   6.640   4.649   0.026  0.1731  0.5685 -0.1641
 3598TIP3    H132353   6.569   4.705  -0.003  0.1509 -0.9220 -3.4357
 3598TIP3    H232354   6.597   4.579   0.076 -0.4895  0.5154 -0.7999
 3599TIP3   OH232355   2.808   5.687   0.791 -0.3286  0.6387  0.1769
 3599TIP3    H132356   2.820   5.760   0.851  0.2168 -0.5513  1.5775
 3599TIP3    H232357   2.717   5.694   0.761 -0.0647  2.3177 -0.3645
 3600TIP3   OH232358   3.787   5.006   1.676  0.4472  0.1969 -0.1417
 3600TIP3    H132359   3.801   4.929   1.731  0.9459  1.5281  1.7002
 3600TIP3    H232360   3.692   5.010   1.664  0.4189 -0.7043 -0.2842
 3601TIP3   OH232361   1.586   2.298   2.217  0.4664 -0.0096 -0.5045
 3601TIP3    H132362   1.579   2.204   2.237  0.1762  0.0708 -0.2245
 3601TIP3    H232363   1.503   2.320   2.175 -0.6397  0.7273  1.9281
 3602TIP3   OH232364   3.690   0.489   7.902 -0.7507 -0.2218 -0.0816
 3602TIP3    H132365   3.659   0.551   7.837  1.6560  1.0051 -0.1972
 3602TIP3    H232366   3.766   0.447   7.860 -1.2837 -1.9966  0.6501
 3603TIP3   OH232367   3.046   4.958   8.250  0.6481  0.2278  0.4930
 3603TIP3    H132368   2.999   4.874   8.243  0.8686  0.1621 -0.3832
 3603TIP3    H232369   3.090   4.954   8.335  0.2092 -0.3096  0.7024
 3604TIP3   OH232370   6.458   5.873   0.290 -0.1427  0.5986 -0.5269
 3604TIP3    H132371   6.442   5.794   0.239 -3.0245  0.3228  0.6396
 3604TIP3    H232372   6.453   5.944   0.227 -0.9191  0.0836 -1.0608
 3605TIP3   OH232373   0.532   6.261   7.309  0.4577  0.5632  0.5815
 3605TIP3    H132374   0.507   6.170   7.322 -1.5223  0.3108 -3.2498
 3605TIP3    H232375   0.499   6.307   7.386 -0.5757 -1.6431  1.5272
 3606TIP3   OH232376   4.195   3.495   1.922 -0.1543 -0.7895 -0.0891
 3606TIP3    H132377   4.193   3.471   1.829 -0.9839  0.0901 -0.3080
 3606TIP3    H232378   4.202   3.590   1.922  0.2424 -0.8106  0.7598
 3607TIP3   OH232379   5.634   1.954   0.892  0.5642  0.1867 -0.8495
 3607TIP3    H132380   5.539   1.937   0.890  0.5618 -0.1150  0.5741
 3607TIP3    H232381   5.667   1.891   0.957  1.8173 -0.0253 -1.6753
 3608TIP3   OH232382   4.935   2.093   0.916 -0.1990 -0.9465 -0.2696
 3608TIP3    H132383   4.886   2.073   0.836 -2.4673 -0.1746  0.8263
 3608TIP3    H232384   4.876   2.150   0.966  2.7704  2.1398  0.1227
 3609TIP3   OH232385   6.093   6.563   8.081 -0.3421 -0.2827  0.1067
 3609TIP3    H132386   6.117   6.533   8.169  0.0278  0.1807  0.1672
 3609TIP3    H232387   6.041   6.642   8.096  0.1353  0.0736 -0.1064
 3610TIP3   OH232388   1.121   4.673   2.373  0.2358  0.0441 -0.0669
 3610TIP3    H132389   1.090   4.628   2.295 -1.0444 -1.2411  1.1157
 3610TIP3    H232390   1.157   4.604   2.429  0.1736  0.7735  0.9087
 3611TIP3   OH232391   5.427   3.902   3.053 -0.2829  0.3431 -0.0565
 3611TIP3    H132392   5.517   3.890   3.083 -0.9155  1.6291  2.6379
 3611TIP3    H232393   5.431   3.974   2.991  0.5491  0.3118 -0.0460
 3612TIP3   OH232394   5.168   1.968   0.632 -0.5635 -0.4677  0.0690
 3612TIP3    H132395   5.262   1.972   0.616 -0.4666 -1.2861  0.3955
 3612TIP3    H232396   5.130   2.028   0.568  0.2779  0.8866  0.7899
 3613TIP3   OH232397   6.077   4.937   2.245 -0.8490  0.6902 -0.3850
 3613TIP3    H132398   5.986   4.966   2.235 -0.8307  0.6387 -0.7208
 3613TIP3    H232399   6.128   5.019   2.246 -1.0641  0.8788  1.9978
 3614TIP3   OH232400   1.041   5.541   0.543  0.7254  0.4458 -0.3528
 3614TIP3    H132401   1.116   5.483   0.556 -0.0431  0.0332  3.4543
 3614TIP3    H232402   0.966   5.481   0.533  0.5201  0.8308 -1.1729
 3615TIP3   OH232403   6.404   0.367   1.985  0.4497  0.0210 -0.6766
 3615TIP3    H132404   6.476   0.421   2.016 -0.7947  1.0238  0.5545
 3615TIP3    H232405   6.374   0.411   1.905  0.9264 -0.1873 -0.9787
 3616TIP3   OH232406   2.430   5.364   8.589 -0.7312  0.4651  0.4109
 3616TIP3    H132407   2.519   5.363   8.552 -0.7380  2.6423  0.1960
 3616TIP3    H232408   2.436   5.307   8.665  1.0316  0.9539  0.7076
 3617TIP3   OH232409   6.672   5.303   0.066  0.4608  0.4088  0.0408
 3617TIP3    H132410   6.599   5.284   0.006 -0.2088  0.1755  0.9112
 3617TIP3    H232411   6.709   5.217   0.087  1.9634  0.6101 -1.5473
 3618TIP3   OH232412   0.746   6.101   7.512  0.2261 -0.4648  0.3483
 3618TIP3    H132413   0.743   6.182   7.462  2.0485 -0.7478 -0.3064
 3618TIP3    H232414   0.688   6.041   7.464 -0.4182  0.1697  0.3253
 3619TIP3   OH232415   5.940   1.167   1.544 -0.6606 -0.8774  0.7910
 3619TIP3    H132416   5.893   1.159   1.461  2.7243 -1.0021 -1.2825
 3619TIP3    H232417   5.924   1.084   1.589  0.1027 -2.2324 -1.3045
 3620TIP3   OH232418   6.446   4.462   8.188 -0.1467 -0.1997  0.2722
 3620TIP3    H132419   6.421   4.552   8.208 -1.6553 -0.6560  0.5230
 3620TIP3    H232420   6.373   4.427   8.137  0.6586 -1.1286 -0.2898
 3621TIP3   OH232421   2.608   2.730   7.488 -0.5317  0.2904 -0.0039
 3621TIP3    H132422   2.685   2.754   7.437  0.2602  0.3647  1.2042
 3621TIP3    H232423   2.579   2.647   7.450  1.6288 -1.0519  1.0938
 3622TIP3   OH232424   3.794   4.322   0.134  0.3621  0.0725  0.1725
 3622TIP3    H132425   3.845   4.253   0.090  0.3757  0.6432 -0.7331
 3622TIP3    H232426   3.821   4.403   0.091  1.5016  0.8792  2.2657
 3623TIP3   OH232427   5.213   2.562   1.988  0.0863  0.5938  0.0660
 3623TIP3    H132428   5.192   2.470   1.969 -0.6630  0.7521  0.1385
 3623TIP3    H232429   5.301   2.573   1.952 -0.3781  0.2396 -1.2214
 3624TIP3   OH232430   0.578   4.537   7.608  0.0453 -0.2195  0.1022
 3624TIP3    H132431   0.583   4.542   7.512 -0.8331 -1.8901 -0.0659
 3624TIP3    H232432   0.603   4.624   7.638  1.3919  0.0374 -1.6046
 3625TIP3   OH232433   1.531   1.876   8.144  0.1875 -0.2430  0.0510
 3625TIP3    H132434   1.499   1.959   8.110  0.5946 -0.1008  0.0145
 3625TIP3    H232435   1.622   1.893   8.169  0.6450 -0.9893 -1.0562
 3626TIP3   OH232436   2.512   2.267   7.284 -0.1850  0.5132 -0.0426
 3626TIP3    H132437   2.549   2.186   7.247  1.2136  0.0542  2.1384
 3626TIP3    H232438   2.418   2.261   7.267 -0.1436 -1.6883  0.2383
 3627TIP3   OH232439   4.768   0.112   1.232 -1.1216  0.0040 -0.1796
 3627TIP3    H132440   4.698   0.071   1.181 -0.3226 -0.6676 -0.7596
 3627TIP3    H232441   4.722   0.156   1.304 -2.3609  1.8967 -2.0123
 3628TIP3   OH232442   6.313   5.701   2.057 -0.3455  0.1857  0.4268
 3628TIP3    H132443   6.403   5.668   2.069 -0.7732 -0.7236  1.2775
 3628TIP3    H232444   6.312   5.735   1.968  0.7664 -0.0686  0.2971
 3629TIP3   OH232445   5.900   4.494   2.212  0.2387 -0.5366 -0.1925
 3629TIP3    H132446   5.854   4.456   2.288  1.1393  0.7370  1.0372
 3629TIP3    H232447   5.965   4.552   2.251  1.9468 -1.1998 -1.9174
 3630TIP3   OH232448   2.812   0.850   1.180  0.1579  0.0552 -0.3387
 3630TIP3    H132449   2.857   0.904   1.245 -3.4043  3.7654 -0.5810
 3630TIP3    H232450   2.751   0.796   1.231  0.3752 -0.2257 -0.3735
 3631TIP3   OH232451   3.409   0.174   3.513 -0.3075 -0.2969 -0.1220
 3631TIP3    H132452   3.419   0.084   3.481 -0.9358 -0.6553  0.6823
 3631TIP3    H232453   3.470   0.225   3.459  0.4950 -1.2963 -0.1819
 3632TIP3   OH232454   3.782   4.125   1.364  0.3460 -0.6097 -0.1851
 3632TIP3    H132455   3.776   4.053   1.301  0.9130  0.3091 -1.3295
 3632TIP3    H232456   3.824   4.196   1.315  0.3275  0.3081  1.0866
 3633TIP3   OH232457   3.807   2.644   2.591  0.4218  0.3289 -0.5799
 3633TIP3    H132458   3.805   2.555   2.557  0.2202  0.5962 -1.3011
 3633TIP3    H232459   3.897   2.657   2.619  0.0657 -0.6778  1.1663
 3634TIP3   OH232460   2.606   0.037   7.592  0.2961 -0.5203  0.4709
 3634TIP3    H132461   2.536   0.028   7.657 -0.1315  1.0434  0.2912
 3634TIP3    H232462   2.614  -0.049   7.552 -1.4108 -0.7810  0.6267
 3635TIP3   OH232463   4.265   0.673   7.745 -0.2645 -0.2388 -0.3957
 3635TIP3    H132464   4.342   0.709   7.790 -0.2427 -0.3515 -0.3422
 3635TIP3    H232465   4.194   0.734   7.766  0.1991  0.8763 -1.9162
 3636TIP3   OH232466   6.217   4.534   0.492 -0.3481  0.3016 -0.1605
 3636TIP3    H132467   6.190   4.536   0.400  0.8334  0.5287 -0.5124
 3636TIP3    H232468   6.239   4.625   0.513 -0.8700  0.2999  0.4423
 3637TIP3   OH232469   1.600   1.768   2.549 -0.0579  0.3330 -0.0108
 3637TIP3    H132470   1.605   1.861   2.573 -3.2135  0.7396 -0.5678
 3637TIP3    H232471   1.540   1.765   2.475 -1.4004 -2.3213  1.0630
 3638TIP3   OH232472   3.299   2.494   0.897 -0.6537  0.0837  0.6556
 3638TIP3    H132473   3.304   2.401   0.880 -1.9373 -0.1521  1.4121
 3638TIP3    H232474   3.227   2.525   0.842 -2.1144  0.0599  2.4587
 3639TIP3   OH232475   5.328   1.383   1.887 -0.2761  0.0443  0.5391
 3639TIP3    H132476   5.332   1.463   1.940  1.1734  0.5981 -0.3753
 3639TIP3    H232477   5.393   1.325   1.927  1.2823  0.6962 -0.9469
 3640TIP3   OH232478   4.639   3.613   7.315 -0.0465  0.2008 -0.5539
 3640TIP3    H132479   4.603   3.678   7.254 -2.1708 -0.2758  0.1149
 3640TIP3    H232480   4.563   3.563   7.344  0.6181  1.1831  3.4565
 3641TIP3   OH232481   6.565   2.280   0.938 -0.3372 -0.6286  0.1018
 3641TIP3    H132482   6.576   2.291   1.033  1.0122  1.3565 -0.2265
 3641TIP3    H232483   6.475   2.307   0.922 -0.1248  0.5043  0.6688
 3642TIP3   OH232484   6.574   2.020   8.766 -0.2322 -0.2859 -0.0506
 3642TIP3    H132485   6.635   2.091   8.746 -0.5684 -0.5063 -2.1301
 3642TIP3    H232486   6.612   1.943   8.724 -0.1839 -1.2385  1.6567
 3643TIP3   OH232487   4.782   1.270   0.707  0.1309 -0.1391  0.0965
 3643TIP3    H132488   4.831   1.342   0.668  0.8573 -1.3728 -1.3654
 3643TIP3    H232489   4.707   1.258   0.649  0.4924 -1.1163 -0.1934
 3644TIP3   OH232490   1.666   6.465   0.085  0.0897 -0.0995 -0.0388
 3644TIP3    H132491   1.751   6.488   0.047  1.3664 -0.7207  2.2543
 3644TIP3    H232492   1.605   6.468   0.011  1.9727  0.9554 -1.6446
 3645TIP3   OH232493   2.890   6.327   1.426 -0.5916 -0.3214  0.7185
 3645TIP3    H132494   2.844   6.293   1.503 -0.2276 -3.2311 -0.2026
 3645TIP3    H232495   2.823   6.372   1.375 -1.8909 -2.1567  0.7023
 3646TIP3   OH232496   4.973   3.940   8.758 -0.0433 -0.7149 -0.8271
 3646TIP3    H132497   4.978   3.931   8.662  1.4462  1.3388 -1.0111
 3646TIP3    H232498   5.053   3.898   8.789  0.0547 -0.3536 -0.5880
 3647TIP3   OH232499   4.261   5.874   7.374  0.3839  0.0438  0.3082
 3647TIP3    H132500   4.256   5.970   7.366 -0.8051  0.0007  0.2933
 3647TIP3    H232501   4.354   5.854   7.369  0.6562  1.2170  0.4417
 3648TIP3   OH232502   1.492   0.312   7.614  0.6033  0.1929 -0.0277
 3648TIP3    H132503   1.494   0.292   7.521  0.7895 -0.2981  0.0783
 3648TIP3    H232504   1.493   0.408   7.618 -0.5865  0.2509 -0.5515
 3649TIP3   OH232505   1.919   6.264   2.072  0.3866  0.2877  0.3985
 3649TIP3    H132506   1.978   6.325   2.117  0.3512  1.2922 -0.8649
 3649TIP3    H232507   1.974   6.221   2.007 -0.2595  1.3888 -0.9370
 3650TIP3   OH232508   3.124   2.303   3.372  0.2548  0.1403 -0.2556
 3650TIP3    H132509   3.198   2.362   3.358  0.0135  0.5947  0.3529
 3650TIP3    H232510   3.144   2.226   3.318  0.2635  1.0398 -1.5855
 3651TIP3   OH232511   2.474   1.387   8.699  0.7476 -0.0154  0.0105
 3651TIP3    H132512   2.475   1.296   8.727  0.5465  0.3226  1.1596
 3651TIP3    H232513   2.382   1.413   8.705  0.6875  0.0539 -1.0458
 3652TIP3   OH232514   2.588   2.814   3.191  0.4141  0.3372 -0.1182
 3652TIP3    H132515   2.517   2.829   3.253 -0.5303 -1.3422 -0.7280
 3652TIP3    H232516   2.661   2.782   3.245  1.0264  2.7176  0.6048
 3653TIP3   OH232517   3.674   1.408   1.466  0.4548 -0.0794 -0.1867
 3653TIP3    H132518   3.725   1.403   1.386 -0.9309 -0.7617 -1.0546
 3653TIP3    H232519   3.633   1.322   1.475  0.0677  0.1934  0.9088
 3654TIP3   OH232520   6.128   1.011   0.687  0.0688  0.1354 -0.1212
 3654TIP3    H132521   6.173   1.002   0.603 -1.1733 -0.2104 -0.7625
 3654TIP3    H232522   6.103   0.922   0.712 -1.7272  0.4639 -0.6122
 3655TIP3   OH232523   6.527   3.166   1.766 -0.1070 -0.1884 -0.4167
 3655TIP3    H132524   6.615   3.129   1.762 -0.3810 -0.8142 -0.7348
 3655TIP3    H232525   6.490   3.151   1.679 -1.0359 -1.2108  0.1316
 3656TIP3   OH232526   5.149   5.790   8.318 -1.0120 -0.3405 -0.2508
 3656TIP3    H132527   5.202   5.830   8.250  0.7228  0.0282  1.2489
 3656TIP3    H232528   5.208   5.781   8.393 -2.9316 -0.3811  1.3463
 3657TIP3   OH232529   5.569   3.607   1.964  0.6101  0.6402 -0.0854
 3657TIP3    H132530   5.665   3.605   1.974  0.4122 -1.0841  2.2504
 3657TIP3    H232531   5.536   3.637   2.048 -0.9358  1.3535 -0.9044
 3658TIP3   OH232532   1.577   4.100   0.114  0.2947 -0.1481 -0.6304
 3658TIP3    H132533   1.562   4.013   0.077 -0.4305 -0.7637  1.0053
 3658TIP3    H232534   1.522   4.159   0.063  1.7488 -0.3925 -2.5954
 3659TIP3   OH232535   0.620   3.645   7.671  1.0281 -0.4773 -0.3684
 3659TIP3    H132536   0.714   3.628   7.676  1.4049  0.9698 -1.6188
 3659TIP3    H232537   0.589   3.589   7.600  1.5180  1.0022 -1.8202
 3660TIP3   OH232538   4.811   0.645   0.542 -0.1897  0.4471  0.0397
 3660TIP3    H132539   4.893   0.637   0.492  0.7776  0.1230  1.6188
 3660TIP3    H232540   4.744   0.610   0.483  0.6580  1.4032 -1.5823
 3661TIP3   OH232541   6.655   0.654   8.344 -0.2087  0.4133  0.4405
 3661TIP3    H132542   6.716   0.704   8.399  0.2892 -0.6967  0.9305
 3661TIP3    H232543   6.710   0.612   8.278 -0.5910  0.3217  0.1734
 3662TIP3   OH232544   6.094   6.701   2.759  0.1457  0.2392  0.1103
 3662TIP3    H132545   6.081   6.693   2.664  2.8513  0.7696 -0.3938
 3662TIP3    H232546   6.158   6.633   2.781 -1.9542 -1.2541  2.0141
 3663TIP3   OH232547   2.190   1.007   0.053  0.0971 -0.0632 -0.0843
 3663TIP3    H132548   2.125   0.959   0.104 -0.4585 -0.3688 -1.0387
 3663TIP3    H232549   2.213   0.947  -0.018  0.5667  0.4800 -0.4016
 3664TIP3   OH232550   6.375   6.040   0.549  0.1573  0.2472  0.0982
 3664TIP3    H132551   6.391   6.085   0.466 -1.6487  1.5876  0.3864
 3664TIP3    H232552   6.313   6.098   0.595 -0.6987 -1.6013  1.3811
 3665TIP3   OH232553   3.250   1.026   1.933 -0.1440  0.1193  0.1666
 3665TIP3    H132554   3.155   1.017   1.924  0.0212 -1.5724 -0.3467
 3665TIP3    H232555   3.262   1.101   1.991 -1.7746  0.6399 -0.1147
 3666TIP3   OH232556   0.686   0.149   8.437 -0.0285 -0.1063 -0.0039
 3666TIP3    H132557   0.610   0.125   8.492 -0.1812 -0.0904 -0.2071
 3666TIP3    H232558   0.752   0.083   8.459 -1.1307 -2.0010 -2.0317
 3667TIP3   OH232559   0.696   3.449   2.106 -0.4144  0.7773 -0.0555
 3667TIP3    H132560   0.718   3.413   2.192  1.3293 -0.6899 -1.0263
 3667TIP3    H232561   0.603   3.469   2.111 -0.8382 -1.2583  1.5247
 3668TIP3   OH232562   3.683   0.545   0.115  0.1566 -0.4026  0.0310
 3668TIP3    H132563   3.767   0.525   0.157  0.2363  0.9938  0.6034
 3668TIP3    H232564   3.631   0.586   0.183 -0.2557  0.5422 -0.8204
 3669TIP3   OH232565   5.120   2.584   8.210  0.1892  0.5562  0.6085
 3669TIP3    H132566   5.166   2.596   8.293  2.0447  2.4312 -0.5863
 3669TIP3    H232567   5.172   2.518   8.164 -1.1288 -0.8609  1.0785
 3670TIP3   OH232568   3.223   3.665   1.770 -0.0379 -0.3669 -0.2829
 3670TIP3    H132569   3.292   3.618   1.723 -0.2063  0.2960 -1.2403
 3670TIP3    H232570   3.144   3.650   1.718 -0.7736 -1.6134  1.1282
 3671TIP3   OH232571   0.701   4.711   8.525  0.4382 -0.1256 -0.4942
 3671TIP3    H132572   0.743   4.756   8.599  0.2548 -2.0173  0.8250
 3671TIP3    H232573   0.610   4.742   8.527  0.6453  0.5105 -0.5188
 3672TIP3   OH232574   5.494   4.392   8.830 -1.0182 -0.0331  0.4091
 3672TIP3    H132575   5.529   4.409   8.743 -1.3043 -1.2099  0.0464
 3672TIP3    H232576   5.442   4.470   8.850  1.5330  1.6713  0.8890
 3673TIP3   OH232577   0.786   6.427   0.505  0.5852 -0.3348  0.2233
 3673TIP3    H132578   0.745   6.357   0.454  0.9236  0.0016 -0.5064
 3673TIP3    H232579   0.848   6.381   0.562  2.4715 -0.4890 -1.8131
 3674TIP3   OH232580   0.376   6.717   2.930  0.5991  0.5072  0.4032
 3674TIP3    H132581   0.290   6.705   2.889  0.9967 -1.4424  0.0077
 3674TIP3    H232582   0.362   6.783   2.998 -0.8295  1.3849 -0.7061
 3675TIP3   OH232583   0.616   0.773   7.897  0.0513 -0.5180  0.1155
 3675TIP3    H132584   0.529   0.769   7.855  0.3561 -0.3555 -0.5433
 3675TIP3    H232585   0.668   0.709   7.849  0.5274 -0.0170 -0.0486
 3676TIP3   OH232586   4.911   4.312   8.642  0.9082  0.4017  0.0892
 3676TIP3    H132587   4.977   4.293   8.709  0.2712 -0.6229  0.4467
 3676TIP3    H232588   4.829   4.319   8.691  0.4650 -0.1797 -0.5508
 3677TIP3   OH232589   0.745   5.611   2.062  0.2479  0.2114  0.4602
 3677TIP3    H132590   0.702   5.556   1.996  1.2893  0.0486 -0.0951
 3677TIP3    H232591   0.706   5.584   2.145 -2.2319  1.4686 -0.1735
 3678TIP3   OH232592   1.536   0.390   2.012 -0.4387 -0.0416  0.0798
 3678TIP3    H132593   1.457   0.336   2.005 -0.1767 -0.5905  1.1194
 3678TIP3    H232594   1.521   0.442   2.092 -1.1140  2.1570 -1.3913
 3679TIP3   OH232595   2.227   1.096   1.707 -0.3334 -0.1951 -0.1478
 3679TIP3    H132596   2.180   1.068   1.785 -0.6121  0.7188  0.0235
 3679TIP3    H232597   2.158   1.125   1.647 -0.2952 -2.6826 -1.5220
 3680TIP3   OH232598   5.377   0.948   0.562  0.4553 -0.5012  0.3619
 3680TIP3    H132599   5.432   0.893   0.619  1.7652 -2.0840 -2.2438
 3680TIP3    H232600   5.411   0.932   0.474 -0.3557  3.1149 -0.7698
 3681TIP3   OH232601   4.456   3.482   0.693 -0.0503  0.6968 -0.0695
 3681TIP3    H132602   4.550   3.465   0.700 -0.2525 -0.2959  0.4309
 3681TIP3    H232603   4.449   3.553   0.629  0.9276 -0.8576 -2.0510
 3682TIP3   OH232604   5.705   0.873   3.545 -0.2357  0.4562  0.6391
 3682TIP3    H132605   5.661   0.832   3.471 -1.0911 -0.3870  1.5774
 3682TIP3    H232606   5.713   0.803   3.610  1.7118  0.8187  0.8488
 3683TIP3   OH232607   4.596   4.209   0.062  0.3597 -0.1298 -0.2742
 3683TIP3    H132608   4.503   4.221   0.082  0.0681 -1.5873 -0.6256
 3683TIP3    H232609   4.613   4.116   0.081  2.0083  0.3409  0.7979
 3684TIP3   OH232610   4.192   4.732   2.044  0.0466  0.2064 -0.0047
 3684TIP3    H132611   4.238   4.785   2.109  1.7245  0.5592 -1.3825
 3684TIP3    H232612   4.262   4.697   1.988 -1.2979 -0.3121 -1.4414
 3685TIP3   OH232613   5.363   2.872   7.736 -0.0269  0.0845 -0.7405
 3685TIP3    H132614   5.419   2.819   7.792  0.4107 -0.5494 -1.7389
 3685TIP3    H232615   5.275   2.861   7.772  0.6498  2.8250  2.1737
 3686TIP3   OH232616   2.621   1.500   2.016  0.4081  0.5476  0.3605
 3686TIP3    H132617   2.540   1.529   2.056  0.0644  0.0710  0.0190
 3686TIP3    H232618   2.639   1.414   2.055  0.8098  0.6996  0.5213
 3687TIP3   OH232619   3.445   2.673   1.021 -0.5089  0.0377  0.1008
 3687TIP3    H132620   3.377   2.612   0.992 -0.8152 -0.5165  1.8622
 3687TIP3    H232621   3.483   2.708   0.940  0.4226 -3.2924 -1.0593
 3688TIP3   OH232622   0.105   1.495   0.156 -0.9712  0.2665  0.4771
 3688TIP3    H132623   0.077   1.585   0.141  2.0467  1.0229 -1.3927
 3688TIP3    H232624   0.119   1.489   0.250 -2.8342  1.1658  0.8592
 3689TIP3   OH232625   0.995   2.249   3.267  0.5390  0.0294 -0.4445
 3689TIP3    H132626   1.048   2.273   3.343 -0.9404 -1.9945  1.3087
 3689TIP3    H232627   1.051   2.189   3.218  0.7394 -0.2537  0.1250
 3690TIP3   OH232628   1.263   1.494   8.268  0.2518 -0.1941 -0.5904
 3690TIP3    H132629   1.349   1.513   8.305  0.9829 -1.8217 -1.3346
 3690TIP3    H232630   1.247   1.565   8.206  0.4704  0.7889  0.4402
 3691TIP3   OH232631   2.474   5.009   8.550  0.5583 -0.2712 -0.4331
 3691TIP3    H132632   2.469   4.925   8.595 -0.7272  0.1539  0.2542
 3691TIP3    H232633   2.544   4.997   8.486  1.4150 -1.3694  0.6555
 3692TIP3   OH232634   5.850   2.856   0.308 -0.2367  0.1254 -0.0043
 3692TIP3    H132635   5.918   2.919   0.283 -0.8764  1.0172  0.4180
 3692TIP3    H232636   5.769   2.894   0.273 -0.6652 -0.3382  0.4754
 3693TIP3   OH232637   2.153   5.154   2.601  0.4836 -0.2446  0.2273
 3693TIP3    H132638   2.239   5.189   2.579  0.7614 -0.0017  1.6143
 3693TIP3    H232639   2.168   5.100   2.679 -0.9687  1.7983  2.0351
 3694TIP3   OH232640   2.261   3.040   8.752 -0.4261 -0.1777  0.8583
 3694TIP3    H132641   2.354   3.028   8.730 -0.2260 -1.2849  2.1430
 3694TIP3    H232642   2.254   3.007   8.842 -2.6692 -2.9437 -0.2051
 3695TIP3   OH232643   1.669   0.937   3.326  0.3948 -0.7071  0.1318
 3695TIP3    H132644   1.677   0.889   3.409 -0.4290  1.4529  1.5652
 3695TIP3    H232645   1.735   0.897   3.269  1.5573 -1.7612  2.0836
 3696TIP3   OH232646   4.011   5.574   2.127  0.0383  0.3523 -0.3052
 3696TIP3    H132647   4.034   5.521   2.203 -0.9940 -0.0125 -0.2382
 3696TIP3    H232648   4.095   5.593   2.085  0.7730  1.6526  1.6250
 3697TIP3   OH232649   4.366   0.062   1.569  0.3392  0.3365  0.3363
 3697TIP3    H132650   4.377   0.005   1.493 -0.5113  0.6208 -0.0183
 3697TIP3    H232651   4.277   0.097   1.560  1.1006  2.3414  0.1219
 3698TIP3   OH232652   2.723   2.879   8.205 -0.1766 -0.5775  0.1300
 3698TIP3    H132653   2.737   2.926   8.123  0.2487  0.4887  0.7853
 3698TIP3    H232654   2.769   2.932   8.271 -1.6669 -0.6517  1.2872
 3699TIP3   OH232655   3.025   6.466   8.602  0.5633 -0.2721 -0.0224
 3699TIP3    H132656   2.966   6.466   8.526  0.1497  0.5966  0.2944
 3699TIP3    H232657   2.997   6.540   8.655 -0.6370 -2.1423  2.1646
 3700TIP3   OH232658   2.429   4.647   0.926  0.2849 -0.2615  0.3765
 3700TIP3    H132659   2.438   4.699   1.006  0.6857 -1.6738  1.2962
 3700TIP3    H232660   2.352   4.684   0.882  0.6569  1.1929  0.8974
 3701TIP3   OH232661   5.595   1.546   1.955 -0.1307  0.5922 -0.5532
 3701TIP3    H132662   5.515   1.568   2.001 -0.2926 -0.6332 -0.2171
 3701TIP3    H232663   5.575   1.561   1.862 -0.8769 -0.0386 -0.5042
 3702TIP3   OH232664   0.174   3.909   8.243 -0.5012  0.2495  0.2042
 3702TIP3    H132665   0.088   3.868   8.250 -1.1974  1.6080  0.0279
 3702TIP3    H232666   0.201   3.890   8.153 -0.3075 -0.7324  0.4562
 3703TIP3   OH232667   0.693   6.162   0.380 -0.1789  0.0858  0.3388
 3703TIP3    H132668   0.776   6.120   0.401 -0.5804 -0.0828  1.6827
 3703TIP3    H232669   0.686   6.155   0.284  0.9266 -0.6717  0.2925
 3704TIP3   OH232670   6.537   5.134   1.283 -0.4083 -0.4344 -0.1314
 3704TIP3    H132671   6.487   5.058   1.314  0.1402 -0.7878 -0.1019
 3704TIP3    H232672   6.628   5.103   1.278  0.0081  0.5392  0.9718
 3705TIP3   OH232673   5.976   5.723   1.016  0.4280  0.4374 -0.3076
 3705TIP3    H132674   5.888   5.753   0.995  0.3235 -0.0453 -0.5791
 3705TIP3    H232675   5.963   5.654   1.082  0.5980  0.3699 -0.3428
 3706TIP3   OH232676   0.100   3.977   2.492  0.2173  0.1553 -0.6189
 3706TIP3    H132677   0.176   4.033   2.506 -0.1320  0.7787 -1.1168
 3706TIP3    H232678   0.047   4.025   2.427 -0.3493 -0.5018 -0.6541
 3707TIP3   OH232679   1.920   0.741   0.656 -0.2467  0.6184  0.1240
 3707TIP3    H132680   1.846   0.710   0.602 -1.1918  2.1326  0.4886
 3707TIP3    H232681   1.937   0.830   0.624  0.3656  0.8661  1.1196
 3708TIP3   OH232682   1.456   2.071   7.935  0.1540  0.0012  0.3360
 3708TIP3    H132683   1.533   2.057   7.881 -1.5136 -1.0304 -1.9745
 3708TIP3    H232684   1.415   2.150   7.899 -1.2464 -0.9812 -0.3167
 3709TIP3   OH232685   2.487   0.262   1.156  0.3863  0.7428  0.3284
 3709TIP3    H132686   2.431   0.316   1.212  0.7127  1.7980 -0.3378
 3709TIP3    H232687   2.563   0.317   1.137 -0.6869  1.3117 -2.9239
 3710TIP3   OH232688   4.672   3.312   1.812  0.2689  0.3909  0.1799
 3710TIP3    H132689   4.722   3.240   1.850 -0.3703 -0.7554 -1.0326
 3710TIP3    H232690   4.672   3.294   1.718 -3.1156 -0.2167  0.1439
 3711TIP3   OH232691   6.294   0.334   8.088  0.3772 -0.9388  0.3261
 3711TIP3    H132692   6.318   0.284   8.167  0.2430 -1.5577 -0.0181
 3711TIP3    H232693   6.253   0.269   8.031  1.7806 -0.8174 -0.8523
 3712TIP3   OH232694   3.384   5.058   7.915 -0.7618 -0.2770 -0.0960
 3712TIP3    H132695   3.325   4.985   7.937 -0.3856 -0.5305  0.0746
 3712TIP3    H232696   3.431   5.028   7.837 -0.4945 -0.2829  0.0668
 3713TIP3   OH232697   2.186   2.504   1.830  0.1575  0.0659  0.3146
 3713TIP3    H132698   2.266   2.551   1.857  1.2194 -1.3642 -0.2432
 3713TIP3    H232699   2.131   2.504   1.909  0.5929  1.2692  0.6429
 3714TIP3   OH232700   5.723   0.506   1.224  0.4102 -0.0294 -0.2137
 3714TIP3    H132701   5.758   0.417   1.223 -0.0406 -0.2187 -1.4955
 3714TIP3    H232702   5.629   0.495   1.211  0.1109  0.5724  1.2565
 3715TIP3   OH232703   4.018   4.287   2.345  0.0094  0.1369  0.3341
 3715TIP3    H132704   4.064   4.291   2.262  1.2641 -1.1064  0.9341
 3715TIP3    H232705   3.983   4.198   2.350 -1.0207  0.5374  0.6592
 3716TIP3   OH232706   4.370   6.550   0.627 -0.5224 -0.0197  0.0994
 3716TIP3    H132707   4.359   6.526   0.719  1.2501  0.5040  0.4849
 3716TIP3    H232708   4.446   6.500   0.599 -0.8380  0.0950 -0.9975
 3717TIP3   OH232709   4.127   2.859   1.586 -0.0210 -0.8946  0.1665
 3717TIP3    H132710   4.062   2.803   1.541  0.9389 -0.3828 -1.9866
 3717TIP3    H232711   4.079   2.897   1.659 -1.8463 -1.4111 -0.6964
 3718TIP3   OH232712   5.540   6.204   0.354 -0.0595  0.1641  0.2306
 3718TIP3    H132713   5.546   6.299   0.346 -1.8633  0.5359  2.3177
 3718TIP3    H232714   5.594   6.183   0.430 -0.0149 -0.4180  0.0391
 3719TIP3   OH232715   6.514   2.865   0.206  0.3038  0.0586  0.2611
 3719TIP3    H132716   6.568   2.809   0.150 -0.1547 -1.2291  1.0424
 3719TIP3    H232717   6.472   2.926   0.145  0.1918 -0.9895 -0.7551
 3720TIP3   OH232718   2.586   5.500   2.688 -0.6941  0.3439 -0.3614
 3720TIP3    H132719   2.676   5.514   2.660 -0.6323  0.8824  0.0924
 3720TIP3    H232720   2.553   5.431   2.630 -0.2775  0.7729 -1.1207
 3721TIP3   OH232721   3.082   1.846   7.578  0.1735 -0.2700  0.3309
 3721TIP3    H132722   3.051   1.927   7.617 -0.2242  0.0794 -0.6589
 3721TIP3    H232723   3.047   1.848   7.488 -1.5578 -2.4698  0.8514
 3722TIP3   OH232724   0.842   6.568   1.353  0.5229  0.1327 -0.2639
 3722TIP3    H132725   0.781   6.536   1.287  1.2435  0.0992 -0.9283
 3722TIP3    H232726   0.819   6.660   1.365 -1.4096 -0.4808  1.4840
 3723TIP3   OH232727   3.642   0.423   1.185  0.5116  0.2923  0.3172
 3723TIP3    H132728   3.705   0.368   1.233 -0.4832 -1.4394 -0.2637
 3723TIP3    H232729   3.583   0.457   1.253  0.2377 -0.6088  0.5434
 3724TIP3   OH232730   5.697   2.862   2.898  0.7232 -0.1380 -0.5647
 3724TIP3    H132731   5.677   2.916   2.974  0.7976 -0.9587  0.0477
 3724TIP3    H232732   5.612   2.836   2.863  0.5508 -3.1692  1.7128
 3725TIP3   OH232733   4.730   1.833   1.012 -0.2389 -0.9426  0.1254
 3725TIP3    H132734   4.673   1.879   0.950 -0.9079 -0.3989  1.1270
 3725TIP3    H232735   4.819   1.848   0.979 -0.5740 -0.5026 -0.5924
 3726TIP3   OH232736   3.891   0.943   7.902 -0.7284 -0.7924  0.3609
 3726TIP3    H132737   3.917   0.856   7.871 -0.9981 -0.9301  0.5238
 3726TIP3    H232738   3.798   0.936   7.919 -0.4714 -0.9258  1.8747
 3727TIP3   OH232739   2.918   4.763   0.210  0.2572  0.0415 -0.1824
 3727TIP3    H132740   2.983   4.823   0.245  0.6928 -0.8478  0.5626
 3727TIP3    H232741   2.847   4.819   0.179  0.5278  0.9206  0.7622
 3728TIP3   OH232742   6.590   0.819   8.603  0.1245  0.6019  0.2983
 3728TIP3    H132743   6.663   0.791   8.548 -0.6114 -0.7230 -0.0412
 3728TIP3    H232744   6.537   0.874   8.546  1.1394  2.1073  0.7267
 3729TIP3   OH232745   3.566   1.546   2.016 -0.2684 -0.2799  0.0337
 3729TIP3    H132746   3.495   1.578   1.960 -0.3627  0.1693  0.4045
 3729TIP3    H232747   3.575   1.613   2.084  1.2323  0.2196 -0.6083
 3730TIP3   OH232748   4.505   2.932   8.348 -0.2585 -0.0342  0.5285
 3730TIP3    H132749   4.413   2.959   8.348  0.2878  2.0662 -0.0930
 3730TIP3    H232750   4.525   2.915   8.257  0.8007  2.9549  0.1091
 3731TIP3   OH232751   3.142   4.821   8.457 -0.1856  0.4768  0.2105
 3731TIP3    H132752   3.063   4.777   8.488 -0.4410  0.9693  0.2589
 3731TIP3    H232753   3.210   4.753   8.460 -0.6345  0.0153  0.0317
 3732TIP3   OH232754   3.532   3.814   1.187 -0.7480 -0.0209  0.4999
 3732TIP3    H132755   3.468   3.760   1.140  1.5882 -1.1731 -1.6055
 3732TIP3    H232756   3.605   3.754   1.205 -0.1906  1.2452  2.7680
 3733TIP3   OH232757   4.500   6.652   2.686  0.2578 -0.3557  0.3168
 3733TIP3    H132758   4.488   6.688   2.773  1.7827 -1.7190  1.1508
 3733TIP3    H232759   4.428   6.688   2.634 -1.9011 -1.0836  2.6214
 3734TIP3   OH232760   6.752   3.134   0.098 -0.3043  0.2742 -0.1242
 3734TIP3    H132761   6.827   3.076   0.109 -0.2899  0.5540  1.4817
 3734TIP3    H232762   6.711   3.138   0.184 -1.3884  1.1969 -0.6458
 3735TIP3   OH232763   1.499   1.767   2.280 -0.5351 -0.1666  0.3016
 3735TIP3    H132764   1.567   1.705   2.252 -1.0205 -0.4863 -0.2105
 3735TIP3    H232765   1.484   1.821   2.203 -0.5549  0.1814  0.5515
 3736TIP3   OH232766   2.120   1.308   0.555  0.0799 -0.5170  0.2936
 3736TIP3    H132767   2.156   1.379   0.609 -2.1568  0.7270  0.2418
 3736TIP3    H232768   2.027   1.328   0.546 -0.4057 -2.8388 -0.7454
 3737TIP3   OH232769   4.482   2.518   0.581 -0.2155 -0.2243  0.6625
 3737TIP3    H132770   4.437   2.592   0.620  0.7168 -0.3353  2.0208
 3737TIP3    H232771   4.528   2.555   0.505 -0.1493  0.4997  1.0458
 3738TIP3   OH232772   0.504   2.415   0.830 -0.3595  0.2911 -0.4351
 3738TIP3    H132773   0.594   2.447   0.826 -0.0586 -0.3275  0.9157
 3738TIP3    H232774   0.450   2.494   0.829  0.2411  0.7104 -0.2113
 3739TIP3   OH232775   3.495   4.237   7.570  0.1489 -0.5642  0.1154
 3739TIP3    H132776   3.402   4.253   7.585  0.1615  0.0177 -0.3857
 3739TIP3    H232777   3.518   4.295   7.498  1.2522  0.4043  1.1924
 3740TIP3   OH232778   2.956   6.656   8.794 -0.0146 -0.4301 -0.0245
 3740TIP3    H132779   2.932   6.747   8.777  0.9759 -0.5246 -2.2665
 3740TIP3    H232780   3.028   6.662   8.857  0.5161  0.3942 -0.6877
 3741TIP3   OH232781   3.950   2.409   1.811  0.2156 -0.1324 -0.2922
 3741TIP3    H132782   3.879   2.469   1.838  1.3107  1.0234  0.1277
 3741TIP3    H232783   3.908   2.323   1.807 -1.4743  0.6671 -1.1054
 3742TIP3   OH232784   4.279   3.834   0.580 -0.0927 -0.3707 -0.1912
 3742TIP3    H132785   4.231   3.756   0.608 -1.4852  0.7821  0.7782
 3742TIP3    H232786   4.299   3.881   0.661 -0.5067  0.9608 -0.8237
 3743TIP3   OH232787   0.852   5.879   2.014  0.1614  0.5845  0.2477
 3743TIP3    H132788   0.833   5.785   2.004  0.4043  0.3700  1.6078
 3743TIP3    H232789   0.936   5.891   1.970 -0.0673  0.2687 -0.3010
 3744TIP3   OH232790   3.557   1.012   8.754 -0.5055 -0.0551 -0.8239
 3744TIP3    H132791   3.639   1.061   8.745 -0.7416  0.4694 -0.1520
 3744TIP3    H232792   3.583   0.920   8.747  0.6766 -0.1349  2.7459
 3745TIP3   OH232793   4.177   5.361   2.358 -0.1509  0.0866  0.3328
 3745TIP3    H132794   4.258   5.410   2.373 -0.2745  1.5375 -2.9905
 3745TIP3    H232795   4.193   5.313   2.276 -0.9863 -3.5755  2.0689
 3746TIP3   OH232796   5.143   3.963   3.109  0.4409 -0.5003 -0.2709
 3746TIP3    H132797   5.156   4.045   3.157 -0.7575 -1.1514  1.2781
 3746TIP3    H232798   5.231   3.924   3.105  0.6846 -0.1358  0.9087
 3747TIP3   OH232799   6.574   4.688   7.655 -0.1796  0.0408 -0.1894
 3747TIP3    H132800   6.619   4.617   7.700 -1.4883  0.3966  1.8688
 3747TIP3    H232801   6.633   4.763   7.665  0.9608 -0.5814 -1.9010
 3748TIP3   OH232802   4.007   5.700   8.221 -0.1460  0.1415 -0.1937
 3748TIP3    H132803   3.961   5.643   8.159  0.6769 -0.2701 -0.4461
 3748TIP3    H232804   4.097   5.665   8.223  0.2870  1.2182 -0.1032
 3749TIP3   OH232805   1.025   6.696   1.684 -0.1876 -0.0488 -0.0361
 3749TIP3    H132806   1.076   6.634   1.633 -0.7372 -0.0770 -0.5648
 3749TIP3    H232807   1.079   6.775   1.687  0.6391 -0.6190  0.8784
 3750TIP3   OH232808   5.914   0.545   1.838  0.6456 -0.4107  0.1794
 3750TIP3    H132809   5.942   0.501   1.918 -0.0298 -0.7230  0.2520
 3750TIP3    H232810   5.924   0.638   1.857 -0.4155 -0.4492  0.9733
 3751TIP3   OH232811   5.312   2.745   0.764 -0.6899 -0.6163  0.2537
 3751TIP3    H132812   5.399   2.708   0.777  0.1352  1.3658  0.7061
 3751TIP3    H232813   5.286   2.714   0.677  1.1000 -0.0555 -0.5268
 3752TIP3   OH232814   1.477   0.502   0.584  1.0074  0.1398  0.3886
 3752TIP3    H132815   1.385   0.515   0.559  1.8541  2.1886 -2.1748
 3752TIP3    H232816   1.495   0.411   0.563  0.2300  0.4227 -1.7411
 3753TIP3   OH232817   1.197   5.312   7.177  0.2333  0.7161  0.0017
 3753TIP3    H132818   1.205   5.407   7.170  2.1916  0.5132 -1.2070
 3753TIP3    H232819   1.191   5.282   7.086  3.0757 -0.5104  0.1291
 3754TIP3   OH232820   6.026   0.050   1.018 -0.0392 -0.0985  0.5125
 3754TIP3    H132821   6.033   0.026   1.110 -1.9351  0.8779  0.9589
 3754TIP3    H232822   5.940   0.019   0.991  0.6010 -0.6504 -1.0520
 3755TIP3   OH232823   0.216   0.592   8.056 -0.1334 -0.0881 -0.5231
 3755TIP3    H132824   0.262   0.641   7.988  0.0315  1.1022  0.4198
 3755TIP3    H232825   0.125   0.621   8.049 -0.0963  0.1220 -0.1837
 3756TIP3   OH232826   1.899   6.103   0.893  0.3897 -0.1412  0.0634
 3756TIP3    H132827   1.891   6.124   0.986 -0.5038 -2.6055  0.6278
 3756TIP3    H232828   1.810   6.116   0.858  0.5488  0.0550 -0.2751
 3757TIP3   OH232829   2.947   3.398   2.526  0.1570  0.1519 -0.6490
 3757TIP3    H132830   2.992   3.431   2.448  0.3181 -1.3353 -1.2162
 3757TIP3    H232831   2.931   3.476   2.579  0.7131  1.0999 -1.8214
 3758TIP3   OH232832   1.799   6.309   1.785  0.3971 -0.9422 -0.5116
 3758TIP3    H132833   1.893   6.308   1.765  0.7071 -2.0299  0.8324
 3758TIP3    H232834   1.769   6.394   1.753  2.3787  0.5473  1.2683
 3759TIP3   OH232835   2.162   4.266   1.866 -0.0759 -0.1209  0.6184
 3759TIP3    H132836   2.220   4.332   1.827  1.3056 -1.3369  0.5240
 3759TIP3    H232837   2.221   4.207   1.913 -0.9068 -2.8877 -1.5827
 3760TIP3   OH232838   1.069   4.009   2.168 -0.4393  0.4424 -0.4683
 3760TIP3    H132839   1.037   3.955   2.240  1.1624 -1.1536 -0.8828
 3760TIP3    H232840   0.992   4.027   2.115 -1.0072 -1.6671 -0.4380
 3761TIP3   OH232841   6.348   1.585   1.551  0.3989 -0.3513 -0.3357
 3761TIP3    H132842   6.361   1.608   1.459  0.7397  0.5072 -0.0834
 3761TIP3    H232843   6.274   1.525   1.551 -0.2648  0.4521 -1.0710
 3762TIP3   OH232844   5.999   2.097   1.628 -0.1942 -0.3048  0.1914
 3762TIP3    H132845   6.016   2.169   1.689  2.1695 -0.7072  0.1054
 3762TIP3    H232846   5.981   2.140   1.544 -0.0148  0.2074  0.4158
 3763TIP3   OH232847   4.569   1.378   8.147  0.1692 -0.2337 -0.2939
 3763TIP3    H132848   4.556   1.385   8.242  0.2655 -0.4281 -0.2651
 3763TIP3    H232849   4.563   1.284   8.130 -0.9483 -0.1091 -0.6426
 3764TIP3   OH232850   0.683   3.866   8.519  0.2218 -1.1675 -0.8297
 3764TIP3    H132851   0.658   3.812   8.444 -1.4729 -1.5537 -0.0203
 3764TIP3    H232852   0.679   3.808   8.594 -0.6819 -0.1756 -0.0743
 3765TIP3   OH232853   1.518   4.412   7.677  0.1415 -0.1518  0.5622
 3765TIP3    H132854   1.491   4.404   7.769 -1.4894  0.8661  0.2103
 3765TIP3    H232855   1.435   4.419   7.629  0.8500 -2.7197 -1.2318
 3766TIP3   OH232856   4.956   0.501   2.814 -0.3633 -0.4120  0.4325
 3766TIP3    H132857   4.927   0.574   2.759  1.6930 -0.1096 -0.3065
 3766TIP3    H232858   5.001   0.543   2.887  2.0106 -0.8858 -0.6705
 3767TIP3   OH232859   2.034   6.692   2.587 -0.1322  0.2907 -0.1934
 3767TIP3    H132860   1.947   6.662   2.561  0.4806 -1.1678 -0.6774
 3767TIP3    H232861   2.067   6.739   2.510  0.9796 -2.5054 -1.5818
 3768TIP3   OH232862   3.288   0.120   1.304  0.2913 -0.0218 -0.0580
 3768TIP3    H132863   3.245   0.129   1.218 -0.1781 -1.1046  0.0509
 3768TIP3    H232864   3.229   0.165   1.364  1.3840  2.1181 -0.4918
 3769TIP3   OH232865   4.322   1.322   7.406  0.1480 -0.4902  0.3697
 3769TIP3    H132866   4.341   1.356   7.318 -0.3545  0.5458  0.6381
 3769TIP3    H232867   4.310   1.401   7.460 -2.9361 -1.0136  0.6304
 3770TIP3   OH232868   1.218   1.155   0.111  0.0999  0.7662 -0.5650
 3770TIP3    H132869   1.242   1.238   0.153  0.4195  0.1826  0.4427
 3770TIP3    H232870   1.123   1.160   0.101 -0.3556 -0.0179  2.4355
 3771TIP3   OH232871   5.551   1.634   1.097 -0.2302  0.3521 -0.2933
 3771TIP3    H132872   5.525   1.549   1.061 -0.0351 -0.2256  0.8751
 3771TIP3    H232873   5.474   1.666   1.143 -0.2497  0.7281 -0.5856
 3772TIP3   OH232874   5.105   0.990   2.496  0.4751  0.3407 -0.0573
 3772TIP3    H132875   5.132   1.031   2.414  2.9090 -1.6889 -0.4169
 3772TIP3    H232876   5.010   0.998   2.498  0.4340  1.1581 -2.6866
 3773TIP3   OH232877   1.836   4.993   1.911  0.4591 -0.0018 -0.0591
 3773TIP3    H132878   1.909   5.040   1.869  2.3681 -1.0072  1.9089
 3773TIP3    H232879   1.835   5.026   2.000  0.4511 -2.0742  0.7596
 3774TIP3   OH232880   0.403   4.055   8.234 -0.0188 -0.7840 -0.1025
 3774TIP3    H132881   0.330   3.992   8.238  1.3787 -2.3996  2.0932
 3774TIP3    H232882   0.425   4.072   8.326  1.7600  0.4085 -0.7020
 3775TIP3   OH232883   0.615   5.341   2.852 -0.3641 -0.4298 -0.0427
 3775TIP3    H132884   0.661   5.304   2.778  1.7575  0.9194  0.5225
 3775TIP3    H232885   0.666   5.315   2.928 -0.5773  0.9955  0.6259
 3776TIP3   OH232886   5.033   5.144   2.224  0.3086  0.1192 -0.0116
 3776TIP3    H132887   5.088   5.173   2.297 -1.2025  1.2455  0.7335
 3776TIP3    H232888   5.082   5.169   2.146  1.4476 -0.1068  0.6112
 3777TIP3   OH232889   0.754   4.437   2.654 -0.0771  0.5965 -0.4848
 3777TIP3    H132890   0.759   4.361   2.712 -1.8649  0.2941 -0.6878
 3777TIP3    H232891   0.762   4.512   2.714 -1.7934  0.2859  0.1930
 3778TIP3   OH232892   1.233   6.299   8.563 -0.8193 -0.6438  0.1803
 3778TIP3    H132893   1.190   6.279   8.481 -1.8318  1.9672 -0.0039
 3778TIP3    H232894   1.214   6.391   8.579  1.3165 -0.4509  2.1720
 3779TIP3   OH232895   2.709   0.436   0.281  0.0850  0.1387  0.3684
 3779TIP3    H132896   2.644   0.401   0.342  0.2722  0.3817  0.7076
 3779TIP3    H232897   2.765   0.361   0.259 -0.6659 -0.2112 -0.3932
 3780TIP3   OH232898   5.749   1.394   3.285  0.5922  0.1929  0.0479
 3780TIP3    H132899   5.805   1.413   3.210 -1.3800  0.6809 -1.4005
 3780TIP3    H232900   5.660   1.412   3.253 -0.4957 -1.5182  1.8811
 3781TIP3   OH232901   2.700   4.807   1.289  0.5486  0.3701  0.8653
 3781TIP3    H132902   2.777   4.763   1.325 -0.7820 -2.2934  0.6974
 3781TIP3    H232903   2.667   4.860   1.362  2.2745  1.2923  1.0380
 3782TIP3   OH232904   2.239   3.303   1.288 -0.4776 -0.2818  0.4532
 3782TIP3    H132905   2.192   3.286   1.370 -0.5184 -0.3220  0.4212
 3782TIP3    H232906   2.219   3.228   1.233 -2.0244  0.6598 -0.3150
 3783TIP3   OH232907   1.931   1.439   8.125 -0.0508 -0.6017 -0.4228
 3783TIP3    H132908   1.859   1.378   8.140 -0.7103 -0.1721 -1.7381
 3783TIP3    H232909   1.889   1.522   8.104  0.8298  0.4009  1.4918
 3784TIP3   OH232910   5.874   5.209   2.447 -0.9351  0.2035  0.0424
 3784TIP3    H132911   5.882   5.285   2.389  2.1120 -1.3265 -1.8194
 3784TIP3    H232912   5.839   5.244   2.529  0.6228  3.6671 -0.6099
 3785TIP3   OH232913   3.469   5.845   1.328 -0.2588 -0.9518  0.1530
 3785TIP3    H132914   3.428   5.886   1.404 -1.0095 -1.0524 -0.1947
 3785TIP3    H232915   3.518   5.917   1.287 -2.0548 -0.1961 -0.7932
 3786TIP3   OH232916   2.336   2.706   0.875 -0.2221 -0.0147  0.2317
 3786TIP3    H132917   2.428   2.704   0.850  0.1343 -0.2404  1.5074
 3786TIP3    H232918   2.300   2.781   0.828  0.4368 -0.3332 -0.8247
 3787TIP3   OH232919   0.031   0.062   1.770  0.5218 -0.0316 -0.2800
 3787TIP3    H132920   0.012   0.142   1.721  0.7565 -0.3518 -0.9020
 3787TIP3    H232921  -0.027  -0.003   1.733 -1.8825  0.4994  2.2282
 3788TIP3   OH232922   6.673   2.877   1.598  0.0944  0.1409 -0.2375
 3788TIP3    H132923   6.756   2.830   1.584  0.9547  1.5784 -0.2567
 3788TIP3    H232924   6.608   2.809   1.612  1.5006 -1.0229  0.9666
 3789TIP3   OH232925   5.173   1.329   0.016  0.4154  0.6774  0.0598
 3789TIP3    H132926   5.189   1.239  -0.014 -0.4111  1.0709 -1.6479
 3789TIP3    H232927   5.222   1.335   0.098  2.5869 -0.5541 -1.0457
 3790TIP3   OH232928   0.099   1.965   7.700  0.1969  0.1817 -0.2615
 3790TIP3    H132929   0.107   2.026   7.774  0.6974  0.8284 -0.8351
 3790TIP3    H232930   0.014   1.986   7.662  1.5724  2.6826 -2.2769
 3791TIP3   OH232931   3.357   1.213   1.271  0.1705  0.2313 -0.1140
 3791TIP3    H132932   3.411   1.165   1.334 -0.4691  0.5397  0.6907
 3791TIP3    H232933   3.346   1.152   1.198  1.9475  0.3171 -0.5114
 3792TIP3   OH232934   2.697   5.349   7.714 -0.1711  0.1393 -0.1915
 3792TIP3    H132935   2.630   5.286   7.740  1.8237 -1.7483  0.7067
 3792TIP3    H232936   2.697   5.414   7.784 -3.1610  2.0782 -1.7715
 3793TIP3   OH232937   5.955   1.407   3.719  0.4613  0.4326 -0.3381
 3793TIP3    H132938   5.876   1.400   3.773  1.0239 -0.1134  0.4412
 3793TIP3    H232939   5.940   1.345   3.647  0.7092 -0.6418  0.5083
 3794TIP3   OH232940   5.729   6.781   2.657  0.2003  0.6250  0.8038
 3794TIP3    H132941   5.795   6.827   2.605 -1.6182 -0.1110 -2.4883
 3794TIP3    H232942   5.689   6.848   2.711  0.6023  2.0339 -0.5694
 3795TIP3   OH232943   3.891   1.576   0.615 -0.0821 -0.4676  0.5416
 3795TIP3    H132944   3.944   1.606   0.541 -0.3225  0.0854  0.5902
 3795TIP3    H232945   3.889   1.481   0.605  0.2977 -0.4391  0.1177
 3796TIP3   OH232946   0.256   2.612   2.772 -0.4267 -0.0393  0.3859
 3796TIP3    H132947   0.243   2.678   2.704 -2.3827 -1.4671 -0.7454
 3796TIP3    H232948   0.216   2.650   2.850  1.4218  1.4246  0.6809
 3797TIP3   OH232949   5.050   0.169   2.382  0.0377 -0.0736 -0.2143
 3797TIP3    H132950   5.048   0.213   2.297 -0.8042  0.1520 -0.0825
 3797TIP3    H232951   5.100   0.230   2.438 -1.2732  0.8333  0.0141
 3798TIP3   OH232952   4.783   4.975   0.195  0.0716  0.4073 -0.3139
 3798TIP3    H132953   4.812   4.891   0.230  0.0431  0.4061 -0.2926
 3798TIP3    H232954   4.690   4.980   0.218  0.2569  0.7925  0.3848
 3799TIP3   OH232955   6.304   4.885   0.449  0.1407  0.0805  0.6115
 3799TIP3    H132956   6.398   4.890   0.435 -0.1022  1.5293 -0.7486
 3799TIP3    H232957   6.287   4.945   0.521  0.4944 -1.9694  2.5143
 3800TIP3   OH232958   4.508   2.301   8.362  0.2798 -0.5135  0.0732
 3800TIP3    H132959   4.414   2.283   8.362  0.5057 -1.7662 -0.4994
 3800TIP3    H232960   4.521   2.359   8.287  0.2494 -2.1000 -1.2233
 3801TIP3   OH232961   5.231   4.790   8.669  0.1388 -0.1384 -0.9525
 3801TIP3    H132962   5.229   4.701   8.633  0.7131 -0.2606 -0.7028
 3801TIP3    H232963   5.139   4.817   8.672 -0.2579 -1.4830  0.7946
 3802TIP3   OH232964   0.343   1.988   8.138  0.3193 -0.8364  0.6596
 3802TIP3    H132965   0.304   1.971   8.224 -1.1261 -0.2102  0.1666
 3802TIP3    H232966   0.344   2.083   8.130  1.7147 -0.8407  0.5133
 3803TIP3   OH232967   1.896   3.618   2.488  0.5116  0.3857 -0.2117
 3803TIP3    H132968   1.827   3.629   2.553 -0.3621 -0.5052 -0.9505
 3803TIP3    H232969   1.974   3.657   2.528 -0.8034  3.0737 -0.0621
 3804TIP3   OH232970   2.185   0.454   2.594 -0.4548 -0.6708 -0.2585
 3804TIP3    H132971   2.110   0.457   2.653  1.2654 -1.8398  2.1740
 3804TIP3    H232972   2.261   0.444   2.652  1.2972 -3.1624 -2.6913
 3805TIP3   OH232973   0.495   4.721   1.651 -0.0338  0.0797 -0.6165
 3805TIP3    H132974   0.516   4.794   1.708 -3.5648 -1.8533  3.7994
 3805TIP3    H232975   0.414   4.748   1.607 -0.4084 -0.4796 -0.2870
 3806TIP3   OH232976   3.784   3.047   1.857 -0.3332  0.0378 -0.0793
 3806TIP3    H132977   3.701   3.005   1.836 -0.0764 -0.5510  0.0369
 3806TIP3    H232978   3.775   3.072   1.949 -0.2195 -0.4499  0.0715
 3807TIP3   OH232979   3.835   6.545   0.603 -0.5015  0.0422 -0.3261
 3807TIP3    H132980   3.845   6.499   0.520 -1.0499  1.2720 -1.0924
 3807TIP3    H232981   3.803   6.632   0.579  0.4426  0.8192  1.0773
 3808TIP3   OH232982   6.368   4.897   7.825  0.3852 -0.1323  0.1473
 3808TIP3    H132983   6.283   4.937   7.842 -0.0619 -0.8777 -0.3118
 3808TIP3    H232984   6.407   4.950   7.755 -0.5482 -0.9590 -1.0298
 3809TIP3   OH232985   0.935   4.977   0.512  0.0983  0.3054  0.2027
 3809TIP3    H132986   0.936   5.072   0.526  0.6092  0.1596  1.2633
 3809TIP3    H232987   0.877   4.965   0.436  1.7060  1.6204 -1.3193
 3810TIP3   OH232988   1.592   0.299   3.549 -0.5418  0.0952 -0.3128
 3810TIP3    H132989   1.595   0.331   3.639 -0.5674  0.9348 -0.6050
 3810TIP3    H232990   1.499   0.298   3.527 -0.7486 -2.2699  0.4092
 3811TIP3   OH232991   2.082   0.794   3.587 -0.5485 -0.3189 -0.1920
 3811TIP3    H132992   2.133   0.859   3.539  0.6030  0.3609  1.8581
 3811TIP3    H232993   2.012   0.769   3.526  0.6950  0.6488 -2.1020
 3812TIP3   OH232994   4.191   4.101   8.492  0.2094  0.6778  0.7834
 3812TIP3    H132995   4.271   4.065   8.455 -0.8366 -2.2717  1.1478
 3812TIP3    H232996   4.126   4.093   8.422 -0.2317  1.2251  1.1180
 3813TIP3   OH232997   2.526   1.072   0.393  0.2385 -1.5896  0.0244
 3813TIP3    H132998   2.479   0.989   0.405 -0.9889 -1.1091 -1.1996
 3813TIP3    H232999   2.458   1.139   0.396  0.8754 -0.8309 -1.4128
 3814TIP3   OH233000   2.367   1.034   8.587 -0.2263  0.1468 -0.7725
 3814TIP3    H133001   2.436   0.982   8.547 -1.2778 -2.9529  1.0408
 3814TIP3    H233002   2.410   1.082   8.658  0.3267 -0.7088 -0.5182
 3815TIP3   OH233003   2.987   1.882   1.138  0.1833 -0.2389  0.1635
 3815TIP3    H133004   3.063   1.932   1.109  0.1465 -0.9672 -1.2759
 3815TIP3    H233005   3.014   1.843   1.221  1.3669 -0.4255 -0.2879
 3816TIP3   OH233006   4.014   5.586   3.374 -0.2880 -0.2811 -0.2375
 3816TIP3    H133007   3.997   5.663   3.320  3.3900 -1.3600 -3.4071
 3816TIP3    H233008   4.078   5.616   3.438  0.8273 -0.4999 -1.2067
 3817TIP3   OH233009   5.759   3.301   3.010 -0.0434  0.9156  0.0752
 3817TIP3    H133010   5.843   3.288   3.054  0.2387  1.2583 -0.3503
 3817TIP3    H233011   5.715   3.216   3.016 -0.2471  1.0980  1.4804
 3818TIP3   OH233012   0.507   3.490   2.489  0.0479  0.4936  0.6140
 3818TIP3    H133013   0.478   3.466   2.577  0.6024 -0.5876  0.5190
 3818TIP3    H233014   0.444   3.556   2.460 -2.0310 -1.3789  0.6104
 3819TIP3   OH233015   4.599   0.667   2.672  0.5017  0.0872  0.1366
 3819TIP3    H133016   4.624   0.740   2.729  0.3319  0.5230 -0.3453
 3819TIP3    H233017   4.528   0.701   2.618 -1.3489 -1.1720  1.6003
 3820TIP3   OH233018   0.575   3.402   1.479 -0.0300  0.6761  0.6134
 3820TIP3    H133019   0.665   3.370   1.484 -0.6197 -0.9558  1.6101
 3820TIP3    H233020   0.530   3.358   1.551 -2.1559 -0.3583 -1.2042
 3821TIP3   OH233021   1.202   5.217   1.869 -0.3568 -0.2843 -0.3815
 3821TIP3    H133022   1.239   5.133   1.895 -1.9772 -1.0483 -0.4303
 3821TIP3    H233023   1.129   5.231   1.929  0.6589  1.7653  0.4947
 3822TIP3   OH233024   2.701   6.426   0.965  0.3275  0.0881  0.4432
 3822TIP3    H133025   2.776   6.453   1.017  0.6849 -1.3916  0.7326
 3822TIP3    H233026   2.650   6.370   1.023 -0.2718 -0.0578 -0.2037
 3823TIP3   OH233027   0.159   4.454   8.099 -0.6090 -0.3404  0.0243
 3823TIP3    H133028   0.199   4.457   8.012 -1.7240 -1.7980 -0.5884
 3823TIP3    H233029   0.224   4.410   8.154 -0.9789 -2.0169 -0.7882
 3824TIP3   OH233030   1.210   5.212   7.922 -0.4291 -0.1410 -0.3098
 3824TIP3    H133031   1.190   5.259   7.841 -0.6598  0.0381 -0.1494
 3824TIP3    H233032   1.302   5.185   7.912  0.0304  1.2370  0.0363
 3825TIP3   OH233033   3.043   0.442   2.413 -0.0818  0.4306 -0.1708
 3825TIP3    H133034   2.985   0.396   2.352  1.4118  0.0361 -1.3662
 3825TIP3    H233035   3.062   0.378   2.481  0.2185  0.0234 -0.6352
 3826TIP3   OH233036   0.296   0.403   8.447  0.7602  0.0557  0.4245
 3826TIP3    H133037   0.301   0.309   8.430  0.4405 -0.1130  1.2403
 3826TIP3    H233038   0.227   0.413   8.512 -0.7273  1.0746 -1.2096
 3827TIP3   OH233039   0.588   4.156   8.724 -0.0470  0.4454 -0.1263
 3827TIP3    H133040   0.537   4.178   8.802 -0.5312  1.1045 -0.6159
 3827TIP3    H233041   0.654   4.094   8.755 -1.5331 -0.9381  0.4312
 3828TIP3   OH233042   6.791   6.584   3.372  0.3557  0.3939  0.1571
 3828TIP3    H133043   6.861   6.586   3.437  0.4448 -0.2318  0.0816
 3828TIP3    H233044   6.749   6.499   3.384 -0.5708  0.8751  0.3911
 3829TIP3   OH233045   1.892   4.147   7.332  0.2967  0.1832  0.1264
 3829TIP3    H133046   1.800   4.127   7.315  0.7095 -1.3237 -0.4690
 3829TIP3    H233047   1.911   4.223   7.277 -0.8705  1.2723  1.1486
 3830TIP3   OH233048   3.281   3.406   2.591 -0.3615  0.8425  0.0961
 3830TIP3    H133049   3.358   3.416   2.647  0.3999  2.4526 -1.1817
 3830TIP3    H233050   3.218   3.357   2.646  1.4166 -0.2508  1.2606
 3831TIP3   OH233051   1.477   3.123   7.419  0.1043  0.0913 -0.0855
 3831TIP3    H133052   1.519   3.206   7.396  0.3368  0.3649  1.2216
 3831TIP3    H233053   1.384   3.137   7.400 -0.1640  1.3698  1.9058
 3832TIP3   OH233054   0.954   3.876   0.542  0.1073  0.3919  0.4109
 3832TIP3    H133055   0.888   3.945   0.551 -1.1775 -0.5227 -1.4802
 3832TIP3    H233056   0.920   3.818   0.475  1.1773 -2.0969  1.8612
 3833TIP3   OH233057   5.766   0.749   0.093 -0.0620  0.2606 -0.6266
 3833TIP3    H133058   5.755   0.831   0.141  0.1195 -0.1303  0.0931
 3833TIP3    H233059   5.715   0.685   0.143  0.6875 -0.2973 -0.5599
 3834TIP3   OH233060   0.619   4.772   7.723 -0.0379  0.0959  0.0406
 3834TIP3    H133061   0.638   4.724   7.804  1.6158 -2.0245 -1.4524
 3834TIP3    H233062   0.629   4.864   7.746  0.5850 -0.4540  2.1842
 3835TIP3   OH233063   0.582   3.204   0.947  1.0752  0.2279  0.3116
 3835TIP3    H133064   0.596   3.298   0.958  2.3605 -0.1683  3.1509
 3835TIP3    H233065   0.665   3.171   0.912  1.0994  0.0324  0.5444
 3836TIP3   OH233066   2.386   1.651   0.384 -0.2476 -0.1465  0.6687
 3836TIP3    H133067   2.407   1.578   0.442  1.9925 -1.6717 -1.8480
 3836TIP3    H233068   2.352   1.609   0.304 -1.3325  1.7342  0.0795
 3837TIP3   OH233069   2.080   2.157   2.342 -0.6416 -1.1558  0.0444
 3837TIP3    H133070   2.086   2.065   2.367 -2.7598 -1.1640  0.8034
 3837TIP3    H233071   2.076   2.156   2.247 -3.0186 -2.1384  0.0709
 3838TIP3   OH233072   0.479   4.513   1.838 -0.4243 -0.3733  0.3379
 3838TIP3    H133073   0.533   4.560   1.902  0.0736 -1.1982  0.5338
 3838TIP3    H233074   0.469   4.575   1.766 -0.2983  0.2616  0.8522
 3839TIP3   OH233075   0.320   4.322   2.853  0.1390 -0.5781  0.3938
 3839TIP3    H133076   0.304   4.404   2.806  0.8662  0.2291  1.4976
 3839TIP3    H233077   0.359   4.350   2.936  1.2889 -2.1039  0.3947
 3840TIP3   OH233078   2.089   3.589   7.750  0.2295  0.7216  0.5631
 3840TIP3    H133079   2.043   3.596   7.834 -2.1679 -1.6457 -0.4211
 3840TIP3    H233080   2.045   3.651   7.693  1.2978  1.7061  0.7746
 3841TIP3   OH233081   2.241   2.134   7.326  0.0963 -0.0010 -0.3557
 3841TIP3    H133082   2.263   2.043   7.343 -0.1365 -0.2605 -1.3388
 3841TIP3    H233083   2.165   2.151   7.381  0.6853 -0.1221  0.5058
 3842TIP3   OH233084   1.929   0.111   1.590  0.6683 -0.4624 -0.2994
 3842TIP3    H133085   1.984   0.188   1.605 -0.8133  0.2049  2.3973
 3842TIP3    H233086   1.847   0.147   1.554 -0.3482 -0.5993  1.7645
 3843TIP3   OH233087   5.592   4.408   8.581 -0.0556 -0.0322 -0.2702
 3843TIP3    H133088   5.679   4.397   8.544  0.2934  1.6832 -0.0229
 3843TIP3    H233089   5.550   4.473   8.525 -0.0769  1.4243  1.3688
 3844TIP3   OH233090   3.705   4.024   8.270  0.4237  0.0631  0.2327
 3844TIP3    H133091   3.703   4.086   8.197 -0.5070  1.9885  1.7746
 3844TIP3    H233092   3.652   4.066   8.338  0.1711 -2.2352  1.5726
 3845TIP3   OH233093   1.212   6.711   8.150  0.3586 -0.0023 -0.2325
 3845TIP3    H133094   1.287   6.723   8.091  0.8015  0.9276  0.4897
 3845TIP3    H233095   1.136   6.739   8.099  0.8706  1.9480 -0.0253
 3846TIP3   OH233096   1.902   5.836   0.879 -0.1658  0.2336  0.6897
 3846TIP3    H133097   1.927   5.927   0.866 -0.1791  0.3252  1.2710
 3846TIP3    H233098   1.888   5.802   0.791  0.6970  0.5509  0.4195
 3847TIP3   OH233099   0.835   0.161   1.683 -1.1540 -0.5585  0.1955
 3847TIP3    H133100   0.740   0.149   1.686 -1.0492 -1.3437  2.2752
 3847TIP3    H233101   0.869   0.097   1.746  0.8017 -0.6161 -0.8434
 3848TIP3   OH233102   1.652   2.444   0.542  0.4717  0.2594 -0.3571
 3848TIP3    H133103   1.652   2.539   0.544 -0.6426  0.2720 -0.1305
 3848TIP3    H233104   1.719   2.420   0.477  0.6663  1.1900 -0.5038
 3849TIP3   OH233105   4.658   1.145   1.768  0.5315 -0.0776  0.6021
 3849TIP3    H133106   4.714   1.210   1.725 -2.1525  1.9688 -0.1391
 3849TIP3    H233107   4.674   1.064   1.720  2.7108  0.4429  0.3667
 3850TIP3   OH233108   6.219   5.079   1.178 -0.2458 -0.0748 -0.6643
 3850TIP3    H133109   6.174   5.011   1.229 -0.5255  0.3900 -0.2829
 3850TIP3    H233110   6.185   5.161   1.213  0.8459  0.2865 -0.4310
 3851TIP3   OH233111   0.989   4.826   1.523  0.3858 -0.5907  0.6445
 3851TIP3    H133112   1.005   4.765   1.595  1.9896 -1.4564 -0.4021
 3851TIP3    H233113   1.052   4.801   1.455 -1.8575 -0.5921 -1.5752
 3852TIP3   OH233114   6.461   5.150   0.361  0.0335  0.3429 -0.6750
 3852TIP3    H133115   6.375   5.184   0.338  0.2581 -0.0720 -2.2154
 3852TIP3    H233116   6.460   5.059   0.330  1.0266  0.3292 -0.6836
 3853TIP3   OH233117   1.790   6.509   2.051 -0.0633  0.1223  0.2038
 3853TIP3    H133118   1.826   6.427   2.017  0.6123  1.0104 -1.3361
 3853TIP3    H233119   1.783   6.495   2.145  3.8085 -0.3577  0.5724
 3854TIP3   OH233120   2.177   3.281   0.251 -0.1842  0.6189 -0.3039
 3854TIP3    H133121   2.135   3.341   0.189  0.0321  1.3923  0.2834
 3854TIP3    H233122   2.118   3.206   0.255 -0.6578  0.9575 -0.7569
 3855TIP3   OH233123   2.795   3.561   7.731 -0.1731 -0.2723 -0.2036
 3855TIP3    H133124   2.771   3.558   7.638  1.1972  0.2502 -0.5956
 3855TIP3    H233125   2.867   3.624   7.736 -1.0446  0.6801  1.4238
 3856TIP3   OH233126   4.363   3.510   2.480 -0.4769 -0.4163 -0.0167
 3856TIP3    H133127   4.378   3.462   2.398  2.0911 -2.0796  1.2952
 3856TIP3    H233128   4.325   3.445   2.539  0.3913 -0.0710  0.9475
 3857TIP3   OH233129   0.728   3.281   0.093  0.7578 -0.1365  0.2856
 3857TIP3    H133130   0.776   3.302   0.013 -0.3320  1.9924  0.1264
 3857TIP3    H233131   0.637   3.276   0.067  0.5738 -1.2921  1.0810
 3858TIP3   OH233132   1.286   3.100   8.460 -0.6184  0.1671 -0.4487
 3858TIP3    H133133   1.368   3.058   8.487  0.4502  2.4587  0.1196
 3858TIP3    H233134   1.262   3.054   8.380  0.8054 -1.0762 -0.2282
 3859TIP3   OH233135   3.627   0.291   2.418  0.1986 -0.1330  0.3742
 3859TIP3    H133136   3.586   0.325   2.498  3.2028  0.3901  1.8167
 3859TIP3    H233137   3.633   0.367   2.360 -2.0465 -0.5271 -0.5067
 3860TIP3   OH233138   5.326   1.598   0.801  0.3543 -0.6712  0.3313
 3860TIP3    H133139   5.291   1.588   0.889 -1.2227 -1.5302 -0.3567
 3860TIP3    H233140   5.400   1.537   0.798 -0.0234 -1.1669  0.8398
 3861TIP3   OH233141   2.828   0.270   2.291  0.4850  0.5604  0.0067
 3861TIP3    H133142   2.852   0.179   2.307 -0.7101 -0.0498 -1.4031
 3861TIP3    H233143   2.867   0.291   2.207  0.2319  1.1430  0.0271
 3862TIP3   OH233144   6.669   5.676   0.443 -0.0905 -0.9732 -0.3693
 3862TIP3    H133145   6.740   5.739   0.454  0.0537 -0.8592 -1.7410
 3862TIP3    H233146   6.694   5.626   0.365 -0.8809 -1.7980 -0.1027
 3863TIP3   OH233147   5.413   6.456   7.782  0.6303 -0.1230  0.3464
 3863TIP3    H133148   5.489   6.477   7.838  0.7638 -0.1994  0.1933
 3863TIP3    H233149   5.359   6.535   7.786  0.5547 -0.1919  0.7241
 3864TIP3   OH233150   5.596   1.832   2.856 -0.3252  0.8628  0.4728
 3864TIP3    H133151   5.626   1.775   2.786  0.8281  0.9020  0.9264
 3864TIP3    H233152   5.613   1.921   2.824 -0.9578  0.9294  0.2946
 3865TIP3   OH233153   5.260   5.241   2.077 -0.3995 -0.0788 -0.2133
 3865TIP3    H133154   5.305   5.163   2.044  0.3132  0.8332 -1.4888
 3865TIP3    H233155   5.328   5.288   2.125 -1.1082 -0.7541  1.5170
 3866TIP3   OH233156   6.100   2.285   8.813 -1.2849 -0.8456  0.5196
 3866TIP3    H133157   6.086   2.226   8.740 -1.7987 -2.4372  1.8326
 3866TIP3    H233158   6.044   2.251   8.883 -1.0182  0.7636  1.5813
 3867TIP3   OH233159   0.405   1.736   8.052  0.7583  0.2484 -0.7963
 3867TIP3    H133160   0.396   1.822   8.095 -0.1012 -0.4671  0.5331
 3867TIP3    H233161   0.364   1.748   7.967  0.8095  1.2140 -0.7050
 3868TIP3   OH233162   2.459   6.660   2.586 -0.1202 -0.0357  0.0803
 3868TIP3    H133163   2.473   6.720   2.659 -1.9961  0.7334 -0.1405
 3868TIP3    H233164   2.532   6.598   2.592  0.1066  0.3496  2.2519
 3869TIP3   OH233165   1.576   1.063   8.490 -0.2053 -0.2789  0.5596
 3869TIP3    H133166   1.636   1.116   8.543 -0.0189  1.0483 -0.9060
 3869TIP3    H233167   1.523   1.015   8.554  0.6398  0.5327  1.9141
 3870TIP3   OH233168   5.952   4.772   1.933 -0.4489 -0.0424  0.2799
 3870TIP3    H133169   5.900   4.852   1.937 -0.1125  0.1590  0.6646
 3870TIP3    H233170   5.898   4.706   1.977 -0.2489  0.2439  0.9743
 3871TIP3   OH233171   0.475   6.657   8.103  0.3003 -0.2301 -0.1176
 3871TIP3    H133172   0.538   6.655   8.031  1.0350 -0.0375  0.5041
 3871TIP3    H233173   0.465   6.565   8.128  0.7396 -0.2215  0.1121
 3872TIP3   OH233174   6.072   1.397   2.869  0.1508 -0.1662  0.0979
 3872TIP3    H133175   6.020   1.459   2.817 -0.6559 -0.9240 -0.0288
 3872TIP3    H233176   6.043   1.413   2.959  0.6850  0.3342  0.1830
 3873TIP3   OH233177   3.780   5.824   8.359  0.5699  0.1166 -0.4765
 3873TIP3    H133178   3.722   5.768   8.309  0.2589 -0.5573  0.6000
 3873TIP3    H233179   3.867   5.786   8.346  0.3042 -0.9356  0.6149
 3874TIP3   OH233180   0.091   2.728   2.283  0.3424 -0.4868 -0.4381
 3874TIP3    H133181   0.029   2.710   2.211 -0.5120 -1.0873  0.4204
 3874TIP3    H233182   0.107   2.822   2.278 -2.0583  0.0365  0.3979
 3875TIP3   OH233183   3.950   5.366   8.524  0.4757  0.1354 -0.0888
 3875TIP3    H133184   3.922   5.306   8.455  0.2460  1.4447 -1.1882
 3875TIP3    H233185   4.042   5.345   8.539  0.4241 -0.4091 -0.5205
 3876TIP3   OH233186   5.058   2.328   8.052 -0.0511 -0.1934  0.1665
 3876TIP3    H133187   5.127   2.341   7.988 -1.2036  0.7688 -0.9414
 3876TIP3    H233188   5.102   2.289   8.128  1.3779 -1.2154 -1.1257
 3877TIP3   OH233189   1.516   2.657   0.691  0.1193 -0.4145  0.3519
 3877TIP3    H133190   1.503   2.740   0.645 -4.2185  0.6756  2.9652
 3877TIP3    H233191   1.577   2.677   0.761  0.1767  0.2042  0.1284
 3878TIP3   OH233192   5.409   5.160   1.111 -0.3503  0.1211  0.0138
 3878TIP3    H133193   5.432   5.067   1.115 -1.9311 -0.2854  0.2720
 3878TIP3    H233194   5.492   5.206   1.124  0.2963 -1.2470  0.9423
 3879TIP3   OH233195   0.889   5.096   0.868 -0.0694 -0.0716  0.2595
 3879TIP3    H133196   0.835   5.079   0.791  1.7156 -0.1134 -1.0480
 3879TIP3    H233197   0.890   5.013   0.916 -0.2302 -0.4079 -0.3165
 3880TIP3   OH233198   0.374   0.398   8.173 -0.2227  0.3969 -0.1313
 3880TIP3    H133199   0.422   0.414   8.254 -0.2367  3.0725 -0.5525
 3880TIP3    H233200   0.315   0.473   8.165 -1.5668 -0.7358 -1.7037
 3881TIP3   OH233201   0.975   2.266   1.124 -0.1220  0.0937 -0.1814
 3881TIP3    H133202   1.046   2.326   1.104  0.7326 -0.0966  2.0013
 3881TIP3    H233203   0.991   2.190   1.067 -0.5722  1.4131 -2.1432
 3882TIP3   OH233204   4.748   1.370   0.971  0.1469 -0.0554  0.5347
 3882TIP3    H133205   4.836   1.404   0.991 -0.6483  2.2016  0.5280
 3882TIP3    H233206   4.754   1.342   0.879  0.5911  1.2426  0.1326
 3883TIP3   OH233207   0.749   0.593   8.519  0.2862 -0.3165 -0.0573
 3883TIP3    H133208   0.787   0.677   8.493  1.3589 -0.8263 -0.1986
 3883TIP3    H233209   0.671   0.616   8.569  1.2758  0.8007  1.0267
 3884TIP3   OH233210   0.207   0.135   2.335 -0.1236 -0.2809  0.6914
 3884TIP3    H133211   0.218   0.085   2.416 -1.7034  0.3978  1.3722
 3884TIP3    H233212   0.119   0.111   2.305  0.6682 -1.0189 -1.2063
 3885TIP3   OH233213   6.239   2.050   0.970  0.2380 -0.8158 -0.1101
 3885TIP3    H133214   6.249   1.984   0.902 -0.6971 -1.3954  0.2913
 3885TIP3    H233215   6.247   2.134   0.924 -0.6906 -1.1939 -0.9964
 3886TIP3   OH233216   3.268   0.169   3.746  0.3157  0.0171 -0.5115
 3886TIP3    H133217   3.195   0.120   3.708  1.3100 -2.0739  0.1407
 3886TIP3    H233218   3.317   0.199   3.670 -0.1718 -0.2329 -0.9364
 3887TIP3   OH233219   5.061   1.980   1.637  0.2862  0.0925  0.1575
 3887TIP3    H133220   5.005   1.917   1.590  0.7619 -0.7241  0.6714
 3887TIP3    H233221   4.999   2.043   1.674 -0.1727  0.1570 -0.6813
 3888TIP3   OH233222   4.386   2.353   7.612  0.5014 -0.7336 -0.1196
 3888TIP3    H133223   4.378   2.312   7.526 -0.8216  0.9588 -0.8554
 3888TIP3    H233224   4.311   2.320   7.661  0.4029 -0.5162 -0.1254
 3889TIP3   OH233225   6.104   5.695   1.414 -0.4743  0.1996  0.2038
 3889TIP3    H133226   6.048   5.664   1.485 -0.1137 -0.5231  0.1776
 3889TIP3    H233227   6.046   5.697   1.337 -0.0771 -2.2705 -0.2333
 3890TIP3   OH233228   3.184   6.223   8.038 -0.6292  0.5261  0.6435
 3890TIP3    H133229   3.128   6.157   7.997 -1.4316  0.5416  1.6695
 3890TIP3    H233230   3.272   6.185   8.037 -1.4119 -1.6864  3.3515
 3891TIP3   OH233231   2.762   1.842   8.833  0.2459  0.3415 -0.4958
 3891TIP3    H133232   2.840   1.826   8.887  0.3731 -1.0237 -1.0280
 3891TIP3    H233233   2.789   1.817   8.745 -1.3461 -2.2874 -0.3617
 3892TIP3   OH233234   6.607   5.379   3.046  0.3266 -0.2185 -0.8880
 3892TIP3    H133235   6.632   5.289   3.064 -0.5792 -0.5498 -1.2379
 3892TIP3    H233236   6.511   5.379   3.049  0.2879  0.5614 -1.6217
 3893TIP3   OH233237   4.451   1.979   2.458 -0.4589 -0.1926 -0.4873
 3893TIP3    H133238   4.499   2.052   2.498 -1.8629  0.3727  0.2274
 3893TIP3    H233239   4.372   2.019   2.423 -1.3993 -1.4051  0.1811
 3894TIP3   OH233240   3.832   4.010   2.527 -0.2188  0.3777 -0.0980
 3894TIP3    H133241   3.898   3.942   2.537 -0.7518 -0.5204 -2.0441
 3894TIP3    H233242   3.853   4.075   2.594  0.5304 -1.5175  1.6014
 3895TIP3   OH233243   0.945   1.353   3.240  0.2937  0.2279  0.7243
 3895TIP3    H133244   0.867   1.349   3.296  0.2120 -0.7845  0.5598
 3895TIP3    H233245   0.947   1.268   3.196  0.4439  0.9341 -0.6968
 3896TIP3   OH233246   2.413   0.935   2.727 -0.0529  0.0901 -0.2045
 3896TIP3    H133247   2.484   0.962   2.670 -1.1811 -0.2887 -1.8454
 3896TIP3    H233248   2.365   1.016   2.746 -0.0264  0.1298 -0.3077
 3897TIP3   OH233249   3.635   2.346   2.127 -0.2060 -0.2587 -0.0021
 3897TIP3    H133250   3.576   2.398   2.181  0.1278 -0.6082  0.7081
 3897TIP3    H233251   3.584   2.324   2.049 -1.7241 -2.2243  1.4569
 3898TIP3   OH233252   2.436   3.109   7.895 -0.0700 -0.0860 -0.8654
 3898TIP3    H133253   2.376   3.093   7.822 -1.1246  0.0459 -0.0478
 3898TIP3    H233254   2.404   3.190   7.935  1.6395  0.9031 -1.3740
 3899TIP3   OH233255   6.398   1.810   0.921 -0.1060 -0.0901  0.0475
 3899TIP3    H133256   6.408   1.872   0.994  0.8794 -0.0216 -0.1221
 3899TIP3    H233257   6.461   1.840   0.856 -1.2604  0.0821 -1.0226
 3900TIP3   OH233258   0.265   1.096   1.547  0.2738  0.8816 -0.1203
 3900TIP3    H133259   0.291   1.027   1.487  0.5436  1.5973 -0.8574
 3900TIP3    H233260   0.341   1.108   1.605 -1.0406 -1.8775  2.4438
 3901TIP3   OH233261   4.190   5.655   8.627  0.4712 -0.2173  0.1777
 3901TIP3    H133262   4.221   5.689   8.543  0.9032 -0.4487  0.2400
 3901TIP3    H233263   4.257   5.591   8.653 -0.0182 -0.6648  0.3535
 3902TIP3   OH233264   0.097   1.290   1.422 -0.3705  0.3965  0.1461
 3902TIP3    H133265   0.074   1.274   1.514 -0.1832 -0.1648  0.1044
 3902TIP3    H233266   0.185   1.253   1.413 -0.3268  0.5886 -0.2207
 3903TIP3   OH233267   5.540   5.284   2.170  0.2610  0.6841  0.0447
 3903TIP3    H133268   5.595   5.206   2.166  0.9752  1.0816  1.4780
 3903TIP3    H233269   5.570   5.338   2.097 -0.0983 -0.2695 -0.8308
 3904TIP3   OH233270   0.188   5.533   0.426 -0.2230  0.5457 -0.1164
 3904TIP3    H133271   0.224   5.464   0.482  2.3670  0.0307 -2.1769
 3904TIP3    H233272   0.255   5.545   0.358 -1.5138  3.6864 -0.9991
 3905TIP3   OH233273   5.244   2.775   2.647  0.9181  0.8438 -0.5324
 3905TIP3    H133274   5.205   2.839   2.588  1.6485  1.1075 -0.7476
 3905TIP3    H233275   5.318   2.739   2.599 -0.3877 -1.3686 -1.0418
 3906TIP3   OH233276   6.265   0.424   0.094 -0.7639  0.6888  0.4722
 3906TIP3    H133277   6.225   0.341   0.069  1.1008 -0.5293  1.3366
 3906TIP3    H233278   6.202   0.463   0.155 -2.1914  0.5109 -0.7986
 3907TIP3   OH233279   4.896   5.562   2.416 -0.1980  0.2747  0.0835
 3907TIP3    H133280   4.910   5.574   2.509 -1.7962  2.5362  0.1365
 3907TIP3    H233281   4.909   5.469   2.400  5.4252  0.4909  1.4966
 3908TIP3   OH233282   1.202   3.364   0.730 -0.1066 -0.2132 -0.0628
 3908TIP3    H133283   1.125   3.377   0.675  0.4741  3.3266 -0.2942
 3908TIP3    H233284   1.170   3.372   0.819 -0.5779 -3.0713  0.1190
 3909TIP3   OH233285   5.232   0.561   2.468  0.1583  0.0552 -0.1320
 3909TIP3    H133286   5.229   0.476   2.512 -0.4072  0.9879  1.7440
 3909TIP3    H233287   5.215   0.625   2.538  2.3593  1.8480 -1.0975
 3910TIP3   OH233288   1.427   4.009   1.540 -0.0050 -0.2459 -0.5164
 3910TIP3    H133289   1.489   4.062   1.591 -1.6476  1.5476 -0.2590
 3910TIP3    H233290   1.427   3.924   1.583  0.7293  0.3594  0.7549
 3911TIP3   OH233291   4.469   4.475   7.653  0.1430 -0.2402  0.4405
 3911TIP3    H133292   4.457   4.438   7.740  0.0976 -2.7102 -0.5207
 3911TIP3    H233293   4.555   4.518   7.657  0.3150 -0.6546  1.5991
 3912TIP3   OH233294   2.851   5.213   0.126  0.0510  0.3076 -0.0062
 3912TIP3    H133295   2.904   5.293   0.125 -0.1792  0.4564 -0.4704
 3912TIP3    H233296   2.891   5.157   0.059  0.6961 -0.2919  0.8517
 3913TIP3   OH233297   5.465   5.236   8.530  0.5226 -0.1542 -0.2422
 3913TIP3    H133298   5.556   5.249   8.502 -0.1148  0.4718 -2.2059
 3913TIP3    H233299   5.459   5.278   8.615  2.1652 -0.5400  0.0896
 3914TIP3   OH233300   0.846   3.288   8.730  0.5224 -0.1522 -0.3133
 3914TIP3    H133301   0.795   3.280   8.649 -0.3947 -1.0138  0.3342
 3914TIP3    H233302   0.937   3.276   8.702  0.5143  2.2402 -1.6178
 3915TIP3   OH233303   1.328   4.889   0.190 -0.4191  0.3596  0.5979
 3915TIP3    H133304   1.423   4.889   0.201 -0.4067  1.7224  0.7476
 3915TIP3    H233305   1.308   4.805   0.148  0.8138 -0.0518  0.7859
 3916TIP3   OH233306   6.732   0.933   3.026 -0.3694  0.6958 -0.1306
 3916TIP3    H133307   6.720   0.974   3.112 -0.8964 -1.1268  0.7259
 3916TIP3    H233308   6.705   1.000   2.963  0.5339  2.2686  1.0611
 3917TIP3   OH233309   3.582   3.174   0.022  0.3160  0.3544  0.3182
 3917TIP3    H133310   3.615   3.234  -0.045 -0.1117  0.4279  0.1701
 3917TIP3    H233311   3.501   3.139  -0.016  1.1086 -1.1554 -0.0668
 3918TIP3   OH233312   3.426   3.967   2.318  0.4894 -0.2373 -0.0879
 3918TIP3    H133313   3.365   3.914   2.267 -0.1563  0.5521 -0.1484
 3918TIP3    H233314   3.471   3.904   2.374 -0.9277 -0.7374  0.5182
 3919TIP3   OH233315   1.359   2.284   1.263  0.2762 -0.2711 -0.1443
 3919TIP3    H133316   1.329   2.334   1.187  0.0306  1.6828  1.1653
 3919TIP3    H233317   1.372   2.195   1.230  0.4740  0.5741 -2.5301
 3920TIP3   OH233318   5.076   2.298   2.064  0.2206  0.2119 -0.0193
 3920TIP3    H133319   4.991   2.262   2.090  1.0623 -0.4272  2.0690
 3920TIP3    H233320   5.095   2.364   2.130  1.7722 -0.3390  0.1206
 3921TIP3   OH233321   4.294   1.604   1.988 -0.2970  0.2416 -0.2785
 3921TIP3    H133322   4.320   1.548   1.915  0.8552 -2.0124  1.6960
 3921TIP3    H233323   4.200   1.589   1.997  0.0936 -2.2382  0.7097
 3922TIP3   OH233324   2.538   4.921   0.730 -0.5661  0.0328  0.3480
 3922TIP3    H133325   2.502   4.839   0.696  1.7086 -1.1257  0.5552
 3922TIP3    H233326   2.554   4.903   0.823  0.5102  0.4824  0.2633
 3923TIP3   OH233327   2.348   4.158   0.912  0.0415 -0.1208  0.1151
 3923TIP3    H133328   2.334   4.247   0.944  0.2405 -0.2292  0.5040
 3923TIP3    H233329   2.265   4.114   0.930  0.6759 -0.6357  2.0089
 3924TIP3   OH233330   1.721   5.433   0.611 -0.5655 -0.6054 -0.1413
 3924TIP3    H133331   1.710   5.438   0.706 -1.2829 -1.4951 -0.1646
 3924TIP3    H233332   1.633   5.448   0.576 -0.2227  0.1866 -0.6973
 3925TIP3   OH233333   3.069   5.366   1.543 -0.0142 -0.2116 -0.0010
 3925TIP3    H133334   3.143   5.366   1.483  1.0265  2.3384  1.1299
 3925TIP3    H233335   3.102   5.322   1.622  0.7977  1.8914  0.9214
 3926TIP3   OH233336   0.124   3.906   1.381 -0.2799  0.0950  0.4965
 3926TIP3    H133337   0.181   3.982   1.371  0.5122 -0.5150  0.2546
 3926TIP3    H233338   0.044   3.930   1.334  0.5689  0.1819 -0.9839
 3927TIP3   OH233339   4.131   1.073   8.014  0.2417  0.4848  0.1477
 3927TIP3    H133340   4.051   1.026   7.993  0.6338  0.8672 -2.5809
 3927TIP3    H233341   4.199   1.028   7.964  1.3616  1.4124  0.7744
 3928TIP3   OH233342   0.921   0.253   3.204 -0.4010 -0.0559  0.7323
 3928TIP3    H133343   0.923   0.160   3.178  1.3229  0.6572 -2.1774
 3928TIP3    H233344   0.837   0.285   3.171  0.1508 -0.0366 -0.7328
 3929TIP3   OH233345   1.289   2.570   3.514  0.3181  0.2504  0.2495
 3929TIP3    H133346   1.280   2.652   3.564 -0.0154  0.5973 -0.3744
 3929TIP3    H233347   1.351   2.591   3.445 -0.8066  0.3819 -0.7469
 3930TIP3   OH233348   3.101   5.399   2.350 -0.5774 -0.2766 -0.4924
 3930TIP3    H133349   3.019   5.447   2.338 -0.9721 -0.1711  2.0087
 3930TIP3    H233350   3.093   5.361   2.438  2.0412 -0.2664 -0.1898
 3931TIP3   OH233351   5.973   5.748   0.056 -0.1849 -0.2037 -0.3544
 3931TIP3    H133352   6.024   5.828   0.041 -2.0558  1.1584  0.2507
 3931TIP3    H233353   6.031   5.693   0.109 -0.1064  2.2635  2.3886
 3932TIP3   OH233354   4.297   6.224   7.920 -0.3081  0.5192 -0.2797
 3932TIP3    H133355   4.359   6.160   7.955 -0.9649  0.0922  0.1383
 3932TIP3    H233356   4.296   6.207   7.826  0.7985  1.0759 -0.4120
 3933TIP3   OH233357   0.348   3.766   2.810 -0.8662  0.1606 -0.0791
 3933TIP3    H133358   0.304   3.849   2.791  0.4549  1.2790  1.4702
 3933TIP3    H233359   0.435   3.775   2.773 -1.1347 -1.1171 -1.0955
 3934TIP3   OH233360   6.161   0.816   0.129  0.1802  0.0659  0.2528
 3934TIP3    H133361   6.174   0.738   0.075  3.0761  1.0146 -0.6677
 3934TIP3    H233362   6.123   0.880   0.070  0.1792  0.0899  0.2793
 3935TIP3   OH233363   1.939   5.268   8.367  0.4317 -0.9753  0.0434
 3935TIP3    H133364   2.007   5.203   8.350 -0.3075 -2.2408  1.5949
 3935TIP3    H233365   1.961   5.304   8.453  0.9768  1.0874 -0.9026
 3936TIP3   OH233366   3.409   2.631   8.336 -0.2009 -0.2142 -0.4739
 3936TIP3    H133367   3.398   2.566   8.406 -0.2985  0.8426  0.5322
 3936TIP3    H233368   3.326   2.631   8.290 -1.2211  1.0683  1.2220
 3937TIP3   OH233369   0.916   6.509   2.730  0.1888 -0.1852 -0.2071
 3937TIP3    H133370   0.978   6.439   2.707 -0.3374 -0.6901 -0.1351
 3937TIP3    H233371   0.939   6.534   2.819 -1.9043 -2.8699  1.2323
 3938TIP3   OH233372   6.536   0.906   1.387 -0.3746  0.1720 -0.2521
 3938TIP3    H133373   6.627   0.896   1.362 -0.3815  1.6229 -0.9574
 3938TIP3    H233374   6.520   1.001   1.383 -1.6131  0.0375  0.9025
 3939TIP3   OH233375   3.455   6.600   2.983  0.1585 -0.2359  0.0888
 3939TIP3    H133376   3.447   6.564   3.071 -1.0046 -0.1734  0.0130
 3939TIP3    H233377   3.460   6.524   2.926 -1.9296 -0.3094 -0.0376
 3940TIP3   OH233378   2.611   6.002   1.650  0.2336  0.0648 -0.9255
 3940TIP3    H133379   2.644   6.091   1.644 -2.1689  1.0540 -0.7442
 3940TIP3    H233380   2.607   5.984   1.744 -2.1252  1.0363 -0.7471
 3941TIP3   OH233381   6.595   1.881   8.402 -0.2549  0.6165  0.8498
 3941TIP3    H133382   6.599   1.976   8.397  0.6975  0.5761  0.5625
 3941TIP3    H233383   6.532   1.855   8.335 -2.0305  1.1371  2.2517
 3942TIP3   OH233384   2.847   5.170   0.665 -0.4322  0.1594  0.2498
 3942TIP3    H133385   2.836   5.169   0.570 -1.1490  1.2731  0.2989
 3942TIP3    H233386   2.839   5.262   0.689  0.2238 -0.0476  1.3452
 3943TIP3   OH233387   0.660   6.410   8.090 -0.0295  0.0018  0.5403
 3943TIP3    H133388   0.717   6.421   8.167 -0.4890  1.2301  0.7139
 3943TIP3    H233389   0.687   6.479   8.030 -2.0260  1.3277  1.0686
 3944TIP3   OH233390   4.876   0.640   0.199  0.6210 -0.0311 -0.4889
 3944TIP3    H133391   4.850   0.596   0.119 -0.8214 -0.9827  0.4547
 3944TIP3    H233392   4.794   0.650   0.249  1.5887 -0.3156  1.2518
 3945TIP3   OH233393   1.896   6.161   1.474  0.2436 -0.2233 -0.1367
 3945TIP3    H133394   1.841   6.083   1.473 -1.5794  0.8419 -4.2455
 3945TIP3    H233395   1.842   6.229   1.433  2.5437  2.6170  1.2059
 3946TIP3   OH233396   0.557   4.854   1.987 -0.2046 -0.0456  0.1590
 3946TIP3    H133397   0.619   4.799   2.035  0.0708  0.0018 -0.1460
 3946TIP3    H233398   0.591   4.943   1.996 -0.0372 -0.0596 -0.2957
 3947TIP3   OH233399   4.070   3.118   2.475  0.1005 -0.4147 -0.4447
 3947TIP3    H133400   4.155   3.076   2.460 -0.4186 -1.4686 -0.4726
 3947TIP3    H233401   4.010   3.075   2.414 -0.1322  1.4877 -1.6392
 3948TIP3   OH233402   1.004   5.302   2.467  0.5274  0.0295  0.3080
 3948TIP3    H133403   0.982   5.209   2.476  0.3253  0.0555  0.1057
 3948TIP3    H233404   0.962   5.345   2.541  0.1435  0.0365  0.0889
 3949TIP3   OH233405   1.439   3.825   8.284  0.0003 -0.6059 -0.3784
 3949TIP3    H133406   1.490   3.757   8.240  0.9404 -0.1113 -0.0909
 3949TIP3    H233407   1.400   3.876   8.213  2.0459  0.5999 -0.7468
 3950TIP3   OH233408   3.529   5.021   1.651  1.0190 -0.2120 -0.1690
 3950TIP3    H133409   3.480   5.001   1.731 -0.0573  0.0750 -0.7445
 3950TIP3    H233410   3.506   4.950   1.591  1.7525 -0.3763 -0.2647
 3951TIP3   OH233411   3.985   6.194   0.657  0.4395  0.5814 -0.1927
 3951TIP3    H133412   3.961   6.113   0.613  0.4243  0.5086 -0.0521
 3951TIP3    H233413   4.078   6.206   0.637  1.3012 -1.1189  2.3188
 3952TIP3   OH233414   5.596   3.607   8.151 -0.2018 -0.3807  0.0703
 3952TIP3    H133415   5.521   3.630   8.095 -0.4275  0.3931  0.6693
 3952TIP3    H233416   5.597   3.512   8.151  0.7749 -0.4709 -2.5477
 3953TIP3   OH233417   1.757   2.420   1.576 -0.1667  0.2917 -0.1276
 3953TIP3    H133418   1.693   2.392   1.641  1.1149 -1.1818  0.5721
 3953TIP3    H233419   1.821   2.348   1.573  0.7873  1.1494 -1.6905
 3954TIP3   OH233420   0.112   1.411   1.842 -0.7003 -0.8189  0.2316
 3954TIP3    H133421   0.062   1.433   1.921 -1.2415 -0.5370 -0.1845
 3954TIP3    H233422   0.071   1.330   1.810 -1.2755 -0.2837 -0.4248
 3955TIP3   OH233423   5.256   0.303   0.827  0.5205 -0.9223 -0.3513
 3955TIP3    H133424   5.261   0.392   0.862  0.0568 -0.8738 -0.3911
 3955TIP3    H233425   5.174   0.303   0.777  1.1194 -1.0226 -1.3394
 3956TIP3   OH233426   5.728   5.833   0.950 -0.2287 -0.0971  0.5247
 3956TIP3    H133427   5.750   5.898   0.884 -0.6340  1.1164  1.5473
 3956TIP3    H233428   5.702   5.755   0.900  0.9167  0.2761 -0.7171
 3957TIP3   OH233429   0.957   3.823   7.323  0.2014 -0.0991  0.3134
 3957TIP3    H133430   1.017   3.773   7.380  0.6771 -2.8482 -2.3574
 3957TIP3    H233431   0.977   3.915   7.344  3.7422 -0.8833  1.2144
 3958TIP3   OH233432   1.151   0.495   0.199 -0.2060  0.3547 -0.3447
 3958TIP3    H133433   1.121   0.584   0.217  0.6201  0.6134 -0.1745
 3958TIP3    H233434   1.124   0.479   0.109 -2.6978 -0.2395  0.4522
 3959TIP3   OH233435   6.614   6.011   1.726  0.4782 -0.0993  0.0779
 3959TIP3    H133436   6.596   6.080   1.662 -0.1018 -0.9079 -0.6516
 3959TIP3    H233437   6.537   6.009   1.783  0.7455  0.2357  0.4559
 3960TIP3   OH233438   5.394   2.352   1.555  0.1437 -0.2532 -0.1239
 3960TIP3    H133439   5.461   2.311   1.610 -0.1225 -1.7034 -0.8283
 3960TIP3    H233440   5.425   2.339   1.465 -1.5064 -1.8709 -0.5297
 3961TIP3   OH233441   3.887   2.453   8.165  0.2444  0.0927 -0.4887
 3961TIP3    H133442   3.805   2.421   8.204 -0.1452 -0.7261 -1.9176
 3961TIP3    H233443   3.948   2.457   8.238 -0.7683 -0.3262  0.4084
 3962TIP3   OH233444   4.186   1.396   8.884 -0.5200  0.0149 -0.1969
 3962TIP3    H133445   4.273   1.369   8.853  0.2697  1.6948  0.4512
 3962TIP3    H233446   4.126   1.359   8.819  0.8326  0.6436 -1.8983
 3963TIP3   OH233447   1.085   4.520   0.184 -0.2609  0.8346 -0.1748
 3963TIP3    H133448   1.021   4.489   0.248 -1.6617  0.3497 -1.7370
 3963TIP3    H233449   1.165   4.471   0.205 -1.3059 -0.9563 -0.1360
 3964TIP3   OH233450   1.367   4.407   1.688  0.2861  0.0094  0.1024
 3964TIP3    H133451   1.443   4.361   1.724 -0.2442 -1.2635 -0.3232
 3964TIP3    H233452   1.298   4.396   1.753  0.0371 -0.1653 -0.1847
 3965TIP3   OH233453   2.090   2.556   2.469  0.3102 -0.7015 -0.2389
 3965TIP3    H133454   2.025   2.548   2.539 -1.3496  1.3331 -1.4469
 3965TIP3    H233455   2.173   2.530   2.511 -0.0566  2.8402  3.3387
 3966TIP3   OH233456   0.185   4.232   1.829  0.6309 -0.6417 -0.1944
 3966TIP3    H133457   0.197   4.315   1.782 -2.4501 -0.5739 -1.0738
 3966TIP3    H233458   0.123   4.253   1.899 -1.7575 -2.5123 -1.6156
 3967TIP3   OH233459   5.596   6.386   0.728  0.0318  0.0242 -0.1319
 3967TIP3    H133460   5.506   6.401   0.755  0.1997  0.2959  0.2861
 3967TIP3    H233461   5.624   6.470   0.691  0.4945  0.3138  0.8412
 3968TIP3   OH233462   2.189   3.546   1.137  0.0360 -0.2104 -0.2264
 3968TIP3    H133463   2.094   3.545   1.121 -0.0204  0.9241 -0.0830
 3968TIP3    H233464   2.209   3.457   1.166 -0.6243 -1.0614 -2.1798
 3969TIP3   OH233465   1.311   3.432   2.353  0.2157  0.5998  0.4910
 3969TIP3    H133466   1.334   3.510   2.404 -1.7240  0.2885  1.9792
 3969TIP3    H233467   1.216   3.437   2.344  0.1356 -1.2145 -0.0375
 3970TIP3   OH233468   1.887   1.712   8.814 -0.0991  0.0284  0.0726
 3970TIP3    H133469   1.943   1.718   8.892  0.0221  0.5618 -0.0519
 3970TIP3    H233470   1.915   1.632   8.770 -1.1748 -1.1015  1.3564
 3971TIP3   OH233471   5.493   6.021   2.272  0.5399  0.4933 -0.2972
 3971TIP3    H133472   5.512   6.000   2.363 -0.3120 -1.1890 -0.4753
 3971TIP3    H233473   5.397   6.030   2.270 -0.0802 -3.9666 -1.7766
 3972TIP3   OH233474   1.249   1.624   2.375 -0.1667 -0.1200 -0.4786
 3972TIP3    H133475   1.207   1.639   2.459  0.0651 -2.5569  0.1325
 3972TIP3    H233476   1.310   1.697   2.365  1.3601 -0.8383  2.5231
 3973TIP3   OH233477   5.005   2.746   8.522  0.8501  0.3154  0.2692
 3973TIP3    H133478   4.985   2.810   8.454  2.8959  1.7623  0.8992
 3973TIP3    H233479   5.075   2.788   8.573  1.5343 -2.0075  1.3634
 3974TIP3   OH233480   6.209   1.122   1.787 -0.3957 -0.5627  0.0653
 3974TIP3    H133481   6.209   1.213   1.817 -2.5856 -0.4679 -0.0320
 3974TIP3    H233482   6.119   1.093   1.802 -0.2205 -2.1162 -1.6723
 3975TIP3   OH233483   0.376   6.514   2.645  0.0931  0.1101 -0.2123
 3975TIP3    H133484   0.338   6.491   2.560  0.8426 -0.6852 -0.3470
 3975TIP3    H233485   0.471   6.507   2.632  0.2799  1.4158  0.2937
 3976TIP3   OH233486   6.247   4.635   3.123  0.1670  0.3913  0.0797
 3976TIP3    H133487   6.175   4.672   3.072 -0.1363 -1.8355 -1.2510
 3976TIP3    H233488   6.204   4.591   3.196 -0.3356 -3.7363 -2.4186
 3977TIP3   OH233489   6.098   2.013   8.693 -0.0428  0.2810  0.1607
 3977TIP3    H133490   6.004   1.999   8.704  0.2524  0.1453  3.4815
 3977TIP3    H233491   6.125   1.946   8.630 -1.9928 -0.3782 -0.0412
 3978TIP3   OH233492   5.446   5.871   0.871 -0.3013 -0.6001 -0.0222
 3978TIP3    H133493   5.447   5.776   0.861 -1.9255 -0.5336 -1.2807
 3978TIP3    H233494   5.490   5.904   0.793  0.8831 -0.2876  0.7405
 3979TIP3   OH233495   6.362   3.368   7.988 -1.1161 -0.3602 -0.2077
 3979TIP3    H133496   6.428   3.327   7.933  0.6832  1.8725  0.1496
 3979TIP3    H233497   6.307   3.418   7.928 -2.3435 -1.9448 -0.4654
 3980TIP3   OH233498   4.591   2.853   0.036 -0.3774 -0.1148  0.1896
 3980TIP3    H133499   4.583   2.859   0.131 -2.6001  1.4164 -0.0067
 3980TIP3    H233500   4.627   2.938   0.009 -1.7312  0.3060 -0.4244
 3981TIP3   OH233501   3.619   4.502   1.931 -0.7567 -0.4090  0.1144
 3981TIP3    H133502   3.579   4.585   1.957 -0.5108 -0.0711 -0.5607
 3981TIP3    H233503   3.673   4.476   2.006  2.4200  2.0958 -1.0650
 3982TIP3   OH233504   3.338   1.622   1.837 -0.5837  0.1033 -0.4148
 3982TIP3    H133505   3.379   1.605   1.752 -1.3067 -0.1913 -0.7139
 3982TIP3    H233506   3.246   1.595   1.825 -0.5382 -0.5900  0.6629
 3983TIP3   OH233507   1.180   0.922   2.579  0.2347 -0.1842 -0.1713
 3983TIP3    H133508   1.107   0.926   2.641  0.1499 -0.3711 -0.2597
 3983TIP3    H233509   1.139   0.905   2.494  0.3709 -0.1673 -0.2409
 3984TIP3   OH233510   6.630   4.479   8.539  0.6293  0.1123  0.2944
 3984TIP3    H133511   6.649   4.392   8.505  0.0964  0.2117 -0.2774
 3984TIP3    H233512   6.697   4.494   8.605 -0.1089 -1.3012  1.4140
 3985TIP3   OH233513   2.961   3.408   7.529 -0.3452  0.0857 -0.1777
 3985TIP3    H133514   2.963   3.318   7.496 -0.6145  0.2214 -0.5747
 3985TIP3    H233515   3.011   3.405   7.611 -0.0341 -0.3494 -0.3773
 3986TIP3   OH233516   4.587   5.270   0.952  0.0834 -0.2553 -0.0573
 3986TIP3    H133517   4.658   5.234   0.899 -0.7549 -1.1635 -0.5876
 3986TIP3    H233518   4.628   5.342   1.000  1.2962 -0.5838 -0.5524
 3987TIP3   OH233519   3.312   5.021   8.582  0.1012 -0.3862  0.5185
 3987TIP3    H133520   3.265   5.083   8.527  1.0325 -1.0096 -1.0429
 3987TIP3    H233521   3.281   4.935   8.554 -0.9619 -0.7037  2.4570
 3988TIP3   OH233522   3.660   5.845   1.738  0.3613 -0.2846 -0.5461
 3988TIP3    H133523   3.598   5.782   1.701 -2.0890  2.4507 -1.4796
 3988TIP3    H233524   3.715   5.871   1.664  1.0722 -0.9162 -0.2606
 3989TIP3   OH233525   5.863   4.737   0.563  0.0583 -0.0611  0.6347
 3989TIP3    H133526   5.846   4.655   0.610 -1.2135  0.2271  0.7138
 3989TIP3    H233527   5.889   4.710   0.475  0.3141 -0.5563  0.8605
 3990TIP3   OH233528   2.564   3.128   2.590  0.1250  0.2336 -0.2946
 3990TIP3    H133529   2.495   3.099   2.649  0.8976  1.9755  1.5656
 3990TIP3    H233530   2.635   3.065   2.602  0.1426  0.3795  0.3556
 3991TIP3   OH233531   4.038   6.101   0.972  0.5809  0.1597  0.1485
 3991TIP3    H133532   4.013   6.192   0.988 -1.7709 -0.1115 -1.4190
 3991TIP3    H233533   4.052   6.096   0.877 -0.8295 -1.3917 -0.0248
 3992TIP3   OH233534   4.285   2.961   2.414  0.2714 -0.1261  0.6244
 3992TIP3    H133535   4.371   2.934   2.383 -0.7663 -0.7717 -1.9285
 3992TIP3    H233536   4.238   2.878   2.428 -0.4064  0.2393  0.5524
 3993TIP3   OH233537   3.262   3.696   1.444 -0.2005  0.2495 -0.1902
 3993TIP3    H133538   3.317   3.768   1.477  1.0987 -0.3041 -1.0766
 3993TIP3    H233539   3.176   3.712   1.484  0.4665  1.4066  0.8664
 3994TIP3   OH233540   4.635   5.631   1.417  0.4552  0.5070 -0.1411
 3994TIP3    H133541   4.564   5.683   1.455  1.0749 -0.1014  1.9961
 3994TIP3    H233542   4.700   5.696   1.389  0.2640  0.9756  0.4710
 3995TIP3   OH233543   4.106   2.989   7.150 -0.0055 -0.3304 -0.0613
 3995TIP3    H133544   4.076   2.941   7.227  0.2212 -0.0999  0.1713
 3995TIP3    H233545   4.026   3.025   7.112 -0.1154 -0.4193  0.0854
 3996TIP3   OH233546   5.264   6.220   7.478 -0.1455 -0.1399 -0.8483
 3996TIP3    H133547   5.346   6.268   7.478 -0.8919  1.2077  0.3412
 3996TIP3    H233548   5.288   6.131   7.505  0.6406  0.8174  1.8682
 3997TIP3   OH233549   4.553   3.141   3.193 -0.4862  0.2155  0.1352
 3997TIP3    H133550   4.467   3.128   3.234 -0.5518 -2.2670 -0.6432
 3997TIP3    H233551   4.534   3.148   3.100  0.2009 -2.1092 -0.2477
 3998TIP3   OH233552   2.614   4.597   1.822 -0.2397  0.5221  0.5140
 3998TIP3    H133553   2.682   4.534   1.799 -1.1226 -0.0344 -0.6779
 3998TIP3    H233554   2.625   4.668   1.758 -2.1468 -0.6165 -1.2111
 3999TIP3   OH233555   5.207   4.214   3.185  0.2127 -0.1769 -0.4814
 3999TIP3    H133556   5.286   4.227   3.237 -0.9434 -1.1841  1.6483
 3999TIP3    H233557   5.156   4.294   3.198 -0.5158 -0.8265  0.8045
 4000TIP3   OH233558   0.233   2.618   0.277  0.1591  0.3112 -0.0727
 4000TIP3    H133559   0.270   2.656   0.357 -3.2910 -0.3056  2.0444
 4000TIP3    H233560   0.309   2.585   0.229  2.4871  1.3684  2.5643
 4001TIP3   OH233561   3.221   3.111   7.966 -0.1018  0.1504  0.2277
 4001TIP3    H133562   3.207   3.019   7.988  1.1961 -0.3137 -0.7962
 4001TIP3    H233563   3.314   3.116   7.943  0.1958  2.0061  1.6236
 4002TIP3   OH233564   3.566   2.390   7.876 -0.1776  0.0377  0.4455
 4002TIP3    H133565   3.593   2.321   7.935 -0.6677 -0.7434 -0.2193
 4002TIP3    H233566   3.494   2.434   7.920 -0.9708 -0.9563  0.1620
 4003TIP3   OH233567   1.919   3.013   7.622 -0.2015 -0.5241 -0.0240
 4003TIP3    H133568   1.860   2.949   7.582 -0.7851 -0.0062 -0.0030
 4003TIP3    H233569   1.867   3.093   7.629  0.4212 -0.1325  0.2388
 4004TIP3   OH233570   1.159   3.920   0.898 -0.6561 -0.3311 -0.0438
 4004TIP3    H133571   1.224   3.904   0.830  0.0839 -1.8620  0.9488
 4004TIP3    H233572   1.088   3.859   0.879  0.1665 -1.7892  1.2482
 4005TIP3   OH233573   1.889   2.797   0.152 -0.2354  0.1152 -0.0015
 4005TIP3    H133574   1.920   2.712   0.120  0.6025 -0.0358  1.1260
 4005TIP3    H233575   1.942   2.813   0.231 -2.1571  0.4709  1.2804
 4006TIP3   OH233576   2.392   1.869   8.225  0.8921  0.3098  0.0007
 4006TIP3    H133577   2.483   1.886   8.198  1.0017  0.2215  0.3176
 4006TIP3    H233578   2.352   1.956   8.230  1.6945  0.6121  2.4961
 4007TIP3   OH233579   5.228   5.727   0.434  0.2700 -0.1832 -0.0319
 4007TIP3    H133580   5.166   5.795   0.409  1.8535  0.8250 -1.4353
 4007TIP3    H233581   5.271   5.761   0.512 -0.8460 -0.8633  0.9157
 4008TIP3   OH233582   6.193   3.198   0.854 -0.2949  0.3572  0.0905
 4008TIP3    H133583   6.124   3.131   0.854  0.3553 -0.4758 -2.8034
 4008TIP3    H233584   6.249   3.175   0.927 -2.3840  0.3488  1.7961
 4009TIP3   OH233585   1.381   6.668   7.510 -0.5185 -0.1847  0.3905
 4009TIP3    H133586   1.325   6.594   7.534 -2.3820  1.7717  2.4995
 4009TIP3    H233587   1.337   6.709   7.436  1.0672 -1.6479 -1.4852
 4010TIP3   OH233588   2.665   4.910   0.166  0.1682 -0.2894  0.4613
 4010TIP3    H133589   2.654   4.950   0.080 -0.2800  3.2402  1.9578
 4010TIP3    H233590   2.577   4.885   0.193  0.1947 -0.6385  0.2258
 4011TIP3   OH233591   5.235   1.254   0.911 -0.1717  0.2932  0.1286
 4011TIP3    H133592   5.188   1.171   0.911  0.4275 -0.0656  1.0698
 4011TIP3    H233593   5.269   1.262   0.821  1.5073 -1.5321  0.5227
 4012TIP3   OH233594   1.533   1.710   8.740 -0.4424  0.3969 -0.2897
 4012TIP3    H133595   1.484   1.695   8.659 -1.3664  0.7816  0.1846
 4012TIP3    H233596   1.602   1.771   8.716 -0.7332  0.5360 -0.7839
 4013TIP3   OH233597   5.627   0.899   7.761 -0.1213 -0.0835 -0.5190
 4013TIP3    H133598   5.610   0.968   7.827 -0.0741 -0.0872 -0.5028
 4013TIP3    H233599   5.603   0.939   7.678  0.4557  0.1542 -0.5768
 4014TIP3   OH233600   0.776   5.114   2.678 -0.3265 -0.1282 -0.3893
 4014TIP3    H133601   0.772   5.019   2.690  0.2540 -0.3782 -1.9191
 4014TIP3    H233602   0.709   5.131   2.611 -1.3560  0.7441  0.8234
 4015TIP3   OH233603   4.359   4.350   8.170 -0.0062 -0.2093  0.1187
 4015TIP3    H133604   4.336   4.257   8.176  1.4785 -0.5060  2.4431
 4015TIP3    H233605   4.319   4.390   8.247 -1.1284  1.2348 -1.1686
 4016TIP3   OH233606   0.926   0.196   1.423 -0.2089  0.0733  0.5762
 4016TIP3    H133607   0.911   0.187   1.517  0.0010  0.0444  0.6071
 4016TIP3    H233608   0.891   0.283   1.401 -0.8805 -0.1949  0.5520
 4017TIP3   OH233609   0.087   2.560   2.996 -0.5831 -0.1472 -0.2905
 4017TIP3    H133610   0.031   2.520   3.062  0.6900  0.1409  1.0337
 4017TIP3    H233611   0.170   2.512   3.003  0.4555  1.6358  0.2339
 4018TIP3   OH233612   4.177   4.714   1.663 -0.1609  0.2465  0.6476
 4018TIP3    H133613   4.165   4.712   1.568 -2.1316  1.9581  0.7859
 4018TIP3    H233614   4.172   4.622   1.690  4.2818 -0.7762 -1.1710
 4019TIP3   OH233615   6.741   0.427   8.763  0.1867 -0.5390 -0.4236
 4019TIP3    H133616   6.667   0.472   8.805 -1.5152 -2.5183 -1.1352
 4019TIP3    H233617   6.780   0.375   8.833  2.4040  2.1111  0.5001
 4020TIP3   OH233618   1.498   3.421   8.359 -0.3986  0.2509 -0.0681
 4020TIP3    H133619   1.450   3.350   8.317  0.0117 -1.0905  1.6215
 4020TIP3    H233620   1.552   3.378   8.425  1.1619  1.9734 -0.1272
 4021TIP3   OH233621   4.618   1.112   2.141 -0.2168  0.5273  0.1392
 4021TIP3    H133622   4.530   1.095   2.107 -0.4810  0.1607  0.9787
 4021TIP3    H233623   4.620   1.206   2.156 -0.6656  0.4681  0.6224
 4022TIP3   OH233624   4.662   3.445   7.982  0.4676 -0.3439  0.1570
 4022TIP3    H133625   4.693   3.469   7.895 -0.2813 -0.5979 -0.1832
 4022TIP3    H233626   4.605   3.518   8.008  1.7008  0.3659  0.9917
 4023TIP3   OH233627   1.724   1.448   3.399  0.1226  0.4641  0.6563
 4023TIP3    H133628   1.724   1.513   3.328  1.5696  1.8435  1.8505
 4023TIP3    H233629   1.701   1.365   3.356  1.7379  1.0960 -1.5749
 4024TIP3   OH233630   0.205   0.241   7.710  0.0455 -0.6270 -0.1097
 4024TIP3    H133631   0.136   0.189   7.669  0.8673 -1.2490 -0.7242
 4024TIP3    H233632   0.245   0.182   7.774  0.2184 -0.3787  0.0113
 4025TIP3   OH233633   2.864   5.157   2.323  0.5292 -0.2480  0.2151
 4025TIP3    H133634   2.889   5.129   2.411  0.0834 -1.5138 -0.0429
 4025TIP3    H233635   2.948   5.163   2.276  0.6734 -0.6994  0.4090
 4026TIP3   OH233636   0.636   3.154   2.293  0.2638 -0.1782  0.5811
 4026TIP3    H133637   0.714   3.194   2.333  0.0328  0.1775  0.6746
 4026TIP3    H233638   0.612   3.083   2.353  1.8205 -1.7666 -0.5387
 4027TIP3   OH233639   0.994   1.812   2.917 -0.4884 -0.2234 -0.2271
 4027TIP3    H133640   0.899   1.819   2.914 -0.3547  3.3414  0.3013
 4027TIP3    H233641   1.020   1.807   2.825 -1.1385 -2.9993 -0.3639
 4028TIP3   OH233642   3.773   2.124   2.211  0.0370 -0.2644  0.9834
 4028TIP3    H133643   3.719   2.199   2.185  0.1541  0.1756  1.9728
 4028TIP3    H233644   3.723   2.082   2.281  0.1031 -0.9602  0.6266
 4029TIP3   OH233645   6.174   0.605   3.125  0.4196 -0.3587  0.3137
 4029TIP3    H133646   6.199   0.589   3.034  1.8414  0.2567  0.5677
 4029TIP3    H233647   6.121   0.529   3.148  0.9106 -1.0567 -0.7116
 4030TIP3   OH233648   5.688   0.447   2.132 -0.8653 -0.1452 -0.3077
 4030TIP3    H133649   5.642   0.520   2.090 -0.3637 -0.3669 -1.2721
 4030TIP3    H233650   5.694   0.472   2.224 -0.2273  1.3044 -0.7120
 4031TIP3   OH233651   4.791   3.836   0.324 -0.4987  0.5685 -0.0575
 4031TIP3    H133652   4.762   3.853   0.235 -0.7963 -0.0734 -0.0883
 4031TIP3    H233653   4.885   3.855   0.323 -0.5007  0.5546 -0.5043
 4032TIP3   OH233654   5.313   3.670   2.963 -0.0165  0.0504  0.1115
 4032TIP3    H133655   5.318   3.600   3.028  0.1666  0.4462  0.5218
 4032TIP3    H233656   5.334   3.750   3.011 -1.3831  0.5574 -0.1008
 4033TIP3   OH233657   4.866   6.373   0.551  0.1855 -0.2344  0.4571
 4033TIP3    H133658   4.911   6.440   0.602  1.1674  0.1867 -0.9282
 4033TIP3    H233659   4.891   6.390   0.461 -0.9369 -1.4156 -0.1072
 4034TIP3   OH233660   0.460   0.925   2.884 -0.4893 -0.3689  0.2478
 4034TIP3    H133661   0.496   0.842   2.917 -2.4770 -2.2552 -1.9502
 4034TIP3    H233662   0.514   0.945   2.808 -2.4211 -1.9734 -1.6775
 4035TIP3   OH233663   6.511   2.619   1.564 -0.0469  0.7828  0.5682
 4035TIP3    H133664   6.454   2.675   1.617 -1.8110 -0.2524 -0.1247
 4035TIP3    H233665   6.512   2.660   1.478 -1.4220 -0.2159  0.0309
 4036TIP3   OH233666   1.649   3.732   2.327 -0.1666 -0.0800 -0.0132
 4036TIP3    H133667   1.623   3.703   2.239  2.3953 -0.8988 -0.6102
 4036TIP3    H233668   1.745   3.726   2.326 -0.0383  0.3077  2.7219
 4037TIP3   OH233669   6.116   3.585   1.573 -0.5008 -0.1468 -0.0728
 4037TIP3    H133670   6.137   3.518   1.638  0.4455  0.8392  0.6724
 4037TIP3    H233671   6.048   3.638   1.615 -0.2030  0.2321 -0.0720
 4038TIP3   OH233672   6.621   4.277   1.012 -0.1673  0.2664  0.2405
 4038TIP3    H133673   6.597   4.196   0.966  0.8693 -0.0156  0.1667
 4038TIP3    H233674   6.540   4.307   1.053 -0.3049 -1.5622  1.4254
 4039TIP3   OH233675   4.909   2.713   2.281  0.2933 -0.3710 -0.2483
 4039TIP3    H133676   4.864   2.659   2.347  0.2302 -0.6190 -0.4879
 4039TIP3    H233677   4.881   2.802   2.300  0.6615 -0.3810  0.3629
 4040TIP3   OH233678   6.333   1.821   1.360 -0.3731  0.0931 -0.4249
 4040TIP3    H133679   6.425   1.839   1.377 -0.1186 -1.2011 -0.3328
 4040TIP3    H233680   6.289   1.842   1.442 -0.5027  2.6837 -1.0660
 4041TIP3   OH233681   2.120   3.197   1.515 -0.3633  0.3848  0.0660
 4041TIP3    H133682   2.127   3.245   1.598  1.8888  1.1301 -0.4750
 4041TIP3    H233683   2.159   3.112   1.533 -0.6506  0.2353 -0.0158
 4042TIP3   OH233684   5.830   1.693   0.257  0.4581  0.4349  0.2370
 4042TIP3    H133685   5.745   1.714   0.294 -0.9701 -0.6346 -2.1968
 4042TIP3    H233686   5.852   1.768   0.202 -0.1832 -0.3398 -1.1287
 4043TIP3   OH233687   2.033   0.886   8.412 -0.0504 -0.3634 -0.2076
 4043TIP3    H133688   2.073   0.956   8.463  0.5785 -0.1329 -1.0084
 4043TIP3    H233689   2.105   0.825   8.394 -0.1379 -0.1546 -1.3052
 4044TIP3   OH233690   5.746   3.254   0.009  0.2124 -0.0417 -0.1260
 4044TIP3    H133691   5.756   3.297   0.094  1.3641 -0.2175 -0.1595
 4044TIP3    H233692   5.762   3.162   0.027  0.0205 -0.1394 -0.4543
 4045TIP3   OH233693   2.872   3.961   0.830  0.2871 -0.2991 -0.3786
 4045TIP3    H133694   2.937   3.966   0.900 -3.3678 -0.8311  3.4608
 4045TIP3    H233695   2.869   4.050   0.794  1.1678  0.4676  1.3040
 4046TIP3   OH233696   4.931   3.437   2.375  0.7933  0.3084 -0.2921
 4046TIP3    H133697   4.929   3.521   2.329  0.6868  0.4984  0.0595
 4046TIP3    H233698   4.943   3.373   2.305  3.5161  0.7846 -0.3819
 4047TIP3   OH233699   6.243   4.330   8.038 -0.4497 -0.0325  0.3674
 4047TIP3    H133700   6.297   4.344   7.960 -0.9619  0.8391  0.1603
 4047TIP3    H233701   6.154   4.317   8.005 -0.4406 -1.1726  0.7253
 4048TIP3   OH233702   1.840   6.218   3.355 -0.3862 -0.1547 -0.0339
 4048TIP3    H133703   1.936   6.223   3.345 -0.5134  0.0316 -1.3087
 4048TIP3    H233704   1.808   6.298   3.313 -1.1195 -0.3661  0.1218
 4049TIP3   OH233705   5.768   0.930   1.578  0.0016 -0.2515 -0.0568
 4049TIP3    H133706   5.786   0.841   1.548 -0.3671 -0.3834  0.1124
 4049TIP3    H233707   5.687   0.955   1.532  0.6513  0.3785 -0.9016
 4050TIP3   OH233708   4.920   2.558   1.291 -0.1347  0.5654 -0.3502
 4050TIP3    H133709   4.999   2.612   1.294  0.6956 -0.6639  0.8904
 4050TIP3    H233710   4.952   2.468   1.292 -1.5679  0.0360  0.7703
 4051TIP3   OH233711   5.936   5.092   8.315  0.0145  0.1919 -0.4834
 4051TIP3    H133712   5.991   5.141   8.377  0.5876 -1.0920  0.0594
 4051TIP3    H233713   5.847   5.102   8.349  0.0711  1.0985 -0.5627
 4052TIP3   OH233714   1.732   5.134   3.178  0.2992 -0.3063 -0.5475
 4052TIP3    H133715   1.694   5.171   3.098  0.1475  0.7796  0.0062
 4052TIP3    H233716   1.684   5.178   3.249 -1.3346 -3.0388  0.1932
 4053TIP3   OH233717   1.780   1.266   1.569  0.0077 -0.5250 -0.1614
 4053TIP3    H133718   1.850   1.206   1.547  1.3067  1.4847 -1.8989
 4053TIP3    H233719   1.751   1.301   1.485 -2.2589 -0.3754  0.6160
 4054TIP3   OH233720   1.455   6.497   8.138  0.0668  0.0937  0.8188
 4054TIP3    H133721   1.404   6.545   8.072 -0.3005 -0.1108  0.9505
 4054TIP3    H233722   1.406   6.416   8.151 -0.6268  0.7021  2.3331
 4055TIP3   OH233723   4.305   4.402   0.398 -0.3730  0.1135  0.2421
 4055TIP3    H133724   4.252   4.478   0.423 -0.6346 -0.2767  0.9057
 4055TIP3    H233725   4.242   4.330   0.391 -0.1550  0.0008 -0.5858
 4056TIP3   OH233726   5.378   6.527   0.453  0.5684 -0.3927  0.1819
 4056TIP3    H133727   5.455   6.525   0.396 -0.6002  1.3606 -1.6033
 4056TIP3    H233728   5.370   6.618   0.481 -1.1186 -0.4068 -0.1109
 4057TIP3   OH233729   6.042   2.048   1.153  0.1454 -0.2116  0.4712
 4057TIP3    H133730   6.064   1.959   1.182 -0.9599 -0.5954  0.1621
 4057TIP3    H233731   6.095   2.060   1.074 -1.3188 -1.4736 -0.7787
 4058TIP3   OH233732   0.325   1.359   3.395 -0.6758  0.4988  0.5589
 4058TIP3    H133733   0.376   1.353   3.475 -0.1755 -2.0613  0.1363
 4058TIP3    H233734   0.249   1.302   3.411 -0.5102 -0.1373 -0.8046
 4059TIP3   OH233735   1.926   0.001   8.152 -0.8026  0.0803  0.6154
 4059TIP3    H133736   2.019  -0.023   8.160 -1.1286 -1.6160 -0.2623
 4059TIP3    H233737   1.918   0.037   8.064 -0.8120  1.1125  1.0299
 4060TIP3   OH233738   3.351   6.039   7.546 -0.5131 -0.2698  0.1219
 4060TIP3    H133739   3.344   6.041   7.451  0.3459 -0.2325  0.0570
 4060TIP3    H233740   3.438   6.004   7.564 -0.0324  1.1947  0.8561
 4061TIP3   OH233741   3.402   0.679   8.016  0.4674 -0.6118  0.1562
 4061TIP3    H133742   3.410   0.596   7.969  0.8685 -1.8261  2.2365
 4061TIP3    H233743   3.472   0.676   8.082 -0.8336  0.4171  1.6446
 4062TIP3   OH233744   5.168   0.196   0.016  0.2692  0.4100 -0.8679
 4062TIP3    H133745   5.091   0.213   0.070 -0.9910 -0.6316 -2.2376
 4062TIP3    H233746   5.189   0.280  -0.023  0.1942  0.8273 -0.0305
 4063TIP3   OH233747   3.724   1.799   1.667 -0.1584 -0.4171  0.1061
 4063TIP3    H133748   3.805   1.832   1.628 -0.6448  0.2519 -0.3667
 4063TIP3    H233749   3.689   1.874   1.715 -1.4552 -0.1145 -1.2559
 4064TIP3   OH233750   5.643   5.325   1.118  0.0707 -0.6147  0.0018
 4064TIP3    H133751   5.607   5.395   1.172 -0.4282 -0.0220 -1.0649
 4064TIP3    H233752   5.614   5.346   1.029 -1.2113 -2.8767 -0.1889
 4065TIP3   OH233753   5.548   5.859   3.163 -0.0766  0.3849  0.1999
 4065TIP3    H133754   5.574   5.947   3.192 -1.3638  1.0323 -0.4942
 4065TIP3    H233755   5.627   5.822   3.124  0.5165  1.1947  0.6088
 4066TIP3   OH233756   6.573   4.538   2.052 -0.6103  0.0591 -0.8388
 4066TIP3    H133757   6.546   4.626   2.026 -2.3035 -0.5079 -1.1170
 4066TIP3    H233758   6.610   4.500   1.972 -3.3782 -0.7576 -1.8355
 4067TIP3   OH233759   3.617   5.611   8.851  0.4710  0.5703 -0.4364
 4067TIP3    H133760   3.531   5.575   8.831  0.4369  0.3051  0.1627
 4067TIP3    H233761   3.669   5.594   8.772 -0.4389  2.1192 -1.4220
 4068TIP3   OH233762   6.097   3.633   1.022  0.0731  0.2860 -0.3342
 4068TIP3    H133763   6.128   3.620   1.111 -0.0694 -2.4158 -0.6034
 4068TIP3    H233764   6.173   3.665   0.974  0.5604  0.2842  0.4249
 4069TIP3   OH233765   4.797   0.288   1.941  0.1149  0.1632 -0.0155
 4069TIP3    H133766   4.840   0.213   1.980 -0.2378 -0.8470 -1.4872
 4069TIP3    H233767   4.785   0.349   2.014  3.5469  0.3336  0.5945
 4070TIP3   OH233768   0.713   2.093   0.028  0.0542 -0.1604 -0.3322
 4070TIP3    H133769   0.731   2.187   0.035  2.2429 -0.3880 -1.7318
 4070TIP3    H233770   0.639   2.088  -0.033  0.3106  0.6353 -0.7258
 4071TIP3   OH233771   5.992   0.950   8.735 -0.3400 -0.2275 -0.5950
 4071TIP3    H133772   5.965   0.975   8.647 -1.5572 -0.6385 -0.3476
 4071TIP3    H233773   6.019   1.033   8.776 -2.2920  0.3882 -0.4831
 4072TIP3   OH233774   2.625   3.386   1.955  0.4644  0.8105  0.4838
 4072TIP3    H133775   2.669   3.467   1.927  0.0341  1.1318  0.7250
 4072TIP3    H233776   2.587   3.409   2.040 -1.7312  1.0977 -0.5330
 4073TIP3   OH233777   4.624   3.954   2.956 -0.4561 -0.2528  0.0168
 4073TIP3    H133778   4.707   3.935   2.999  0.5746 -1.0030 -2.1501
 4073TIP3    H233779   4.572   3.998   3.022  0.6331 -2.2185  2.3444
 4074TIP3   OH233780   1.470   5.904   1.607  0.2053  0.0430 -0.0535
 4074TIP3    H133781   1.532   5.973   1.633 -0.9316  1.6046 -1.2552
 4074TIP3    H233782   1.423   5.942   1.533  1.8441 -3.2760 -3.1336
 4075TIP3   OH233783   2.280   6.292   0.917 -0.2335 -0.0747 -0.4927
 4075TIP3    H133784   2.330   6.370   0.939 -0.3209  0.6903 -2.7679
 4075TIP3    H233785   2.189   6.320   0.921 -0.3302 -0.4330 -0.0693
 4076TIP3   OH233786   1.126   6.351   2.416  0.0806 -0.3332  0.1150
 4076TIP3    H133787   1.193   6.299   2.372 -0.5528 -0.8666 -0.2253
 4076TIP3    H233788   1.076   6.288   2.468 -1.0541 -0.1834 -0.7432
 4077TIP3   OH233789   2.311   0.167   0.324  0.3287  0.3702  0.2040
 4077TIP3    H133790   2.273   0.136   0.406  0.2261 -2.3535 -0.7545
 4077TIP3    H233791   2.252   0.133   0.256  1.7437  0.3969 -1.0959
 4078TIP3   OH233792   2.553   4.784   2.367 -0.6506 -0.1020 -0.0234
 4078TIP3    H133793   2.634   4.737   2.348 -1.0585 -0.9939  0.3935
 4078TIP3    H233794   2.545   4.847   2.296 -0.4244 -1.1024 -0.9667
 4079TIP3   OH233795   2.650   5.817   7.131 -0.3819 -0.5629  0.1309
 4079TIP3    H133796   2.716   5.807   7.062  0.3093 -0.4949  0.7706
 4079TIP3    H233797   2.680   5.893   7.181 -2.4682  1.3034 -1.2376
 4080TIP3   OH233798   1.045   1.516   8.832  0.4945  0.3881  0.0866
 4080TIP3    H133799   0.973   1.477   8.881  1.0973  0.8350  1.3753
 4080TIP3    H233800   1.079   1.444   8.779  0.1515 -0.2616  0.7238
 4081TIP3   OH233801   5.028   4.651   1.839 -0.0870 -0.1265 -0.1958
 4081TIP3    H133802   5.048   4.732   1.793  0.2718  0.0680  0.2947
 4081TIP3    H233803   5.102   4.593   1.819  0.0573 -0.0502  0.1143
 4082TIP3   OH233804   1.862   4.035   1.400  0.7259 -0.5078 -0.2631
 4082TIP3    H133805   1.805   4.069   1.331  0.4357 -2.2287 -0.9022
 4082TIP3    H233806   1.950   4.049   1.366  0.7800  2.0965  0.6978
 4083TIP3   OH233807   6.354   4.136   2.866 -0.4427  0.6065  0.3851
 4083TIP3    H133808   6.314   4.179   2.941  0.2395  1.4218  0.2962
 4083TIP3    H233809   6.426   4.085   2.903  0.0188  1.1657  0.2791
 4084TIP3   OH233810   4.160   4.346   8.772 -0.2473  0.1306  0.2184
 4084TIP3    H133811   4.185   4.284   8.704  1.4751  0.6075  0.3640
 4084TIP3    H233812   4.220   4.420   8.760 -0.3911  0.5466  1.7924
 4085TIP3   OH233813   1.978   3.747   0.889  0.0530  0.3925 -0.2844
 4085TIP3    H133814   1.978   3.668   0.943  0.1721 -0.3105 -1.2779
 4085TIP3    H233815   2.029   3.723   0.811 -1.5774  0.7879 -1.5296
 4086TIP3   OH233816   1.961   6.208   2.982 -0.6415  0.2861  0.0432
 4086TIP3    H133817   2.033   6.268   3.004 -0.4804  0.5290 -1.0839
 4086TIP3    H233818   1.945   6.160   3.063  0.2749  0.7656  0.5335
 4087TIP3   OH233819   1.101   5.918   1.551 -0.2953  0.7053 -0.2639
 4087TIP3    H133820   1.122   5.967   1.471 -0.6045  1.8409  0.3233
 4087TIP3    H233821   1.155   5.959   1.619 -0.5805  0.2366  0.2543
 4088TIP3   OH233822   3.410   0.504   1.311 -0.6326 -0.4291  0.5293
 4088TIP3    H133823   3.379   0.588   1.278  2.4954  0.5938 -0.1709
 4088TIP3    H233824   3.456   0.526   1.392  0.6770 -1.3663  0.0675
 4089TIP3   OH233825   4.210   5.875   2.284 -0.1606  0.1735 -0.0498
 4089TIP3    H133826   4.182   5.926   2.208  0.4428 -1.3501 -1.3484
 4089TIP3    H233827   4.298   5.845   2.262 -0.9310 -2.3975  0.1064
 4090TIP3   OH233828   1.385   2.541   8.359  0.2302  0.2159 -0.1268
 4090TIP3    H133829   1.329   2.614   8.334 -0.9208 -0.6968 -0.3106
 4090TIP3    H233830   1.385   2.484   8.282  2.3338  0.7030 -0.5535
 4091TIP3   OH233831   3.743   1.750   0.001  0.5715 -0.5663 -0.0578
 4091TIP3    H133832   3.795   1.818  -0.042  0.2602 -0.3773 -0.1380
 4091TIP3    H233833   3.787   1.668  -0.022  0.4032 -0.4684 -0.7494
 4092TIP3   OH233834   1.523   3.872   0.906  0.2311  0.0483  0.0016
 4092TIP3    H133835   1.453   3.927   0.871 -1.7098  0.0031  3.3840
 4092TIP3    H233836   1.503   3.784   0.873 -1.2253  0.0879  0.6900
 4093TIP3   OH233837   2.937   3.809   0.530 -0.3211 -0.2861 -0.4344
 4093TIP3    H133838   2.912   3.889   0.484 -2.7624 -0.2968  0.7311
 4093TIP3    H233839   2.901   3.819   0.618  2.2449 -1.2396  0.8492
 4094TIP3   OH233840   2.094   4.008   7.466  0.1138  0.4148 -0.4866
 4094TIP3    H133841   2.035   4.065   7.417 -1.3501  1.4657  2.2900
 4094TIP3    H233842   2.168   4.064   7.489  0.7422 -0.0471 -1.2982
 4095TIP3   OH233843   4.971   1.292   8.149  0.3610  0.1182  0.0017
 4095TIP3    H133844   4.999   1.259   8.235  0.3963 -0.1065 -0.0966
 4095TIP3    H233845   5.006   1.228   8.086  0.2111  0.2051 -0.1688
 4096TIP3   OH233846   1.857   3.290   2.115  0.6101  0.1263 -0.6142
 4096TIP3    H133847   1.833   3.198   2.101  2.8929 -0.7015  0.4500
 4096TIP3    H233848   1.831   3.333   2.034  0.8070 -1.7516 -1.7544
 4097TIP3   OH233849   0.438   1.407   1.660  0.3720  0.4876 -0.2313
 4097TIP3    H133850   0.352   1.447   1.675 -0.5234 -0.5455 -2.1312
 4097TIP3    H233851   0.443   1.337   1.725  0.2840  1.2881  0.6454
 4098TIP3   OH233852   5.687   2.273   7.955 -0.6252 -0.1385 -0.6352
 4098TIP3    H133853   5.621   2.278   7.886 -2.8205 -1.9746  1.1501
 4098TIP3    H233854   5.681   2.357   8.000 -1.0767  0.0621 -1.0607
 4099TIP3   OH233855   6.356   5.998   8.269 -0.2945  0.7266 -0.5096
 4099TIP3    H133856   6.297   5.973   8.199 -1.5455  1.8500  0.0997
 4099TIP3    H233857   6.344   6.092   8.278  1.3589  0.9334 -0.1356
 4100TIP3   OH233858   2.476   5.915   0.849  0.1519  0.6459 -0.2342
 4100TIP3    H133859   2.537   5.984   0.821  1.0030 -0.5179 -1.3432
 4100TIP3    H233860   2.425   5.895   0.770 -1.1523  1.0460  0.4747
 4101TIP3   OH233861   4.051   0.981   1.659  0.4425  0.2051 -0.2323
 4101TIP3    H133862   4.057   0.938   1.745  1.1528  0.9744  0.1136
 4101TIP3    H233863   4.086   0.915   1.598 -0.4262 -0.4928  0.0013
 4102TIP3   OH233864   4.773   2.115   7.480 -0.0141  0.3709 -0.0958
 4102TIP3    H133865   4.706   2.048   7.496  0.4217  0.4565  2.5609
 4102TIP3    H233866   4.725   2.191   7.447 -0.9725 -0.1591  0.0538
 4103TIP3   OH233867   1.227   2.527   2.279 -0.0728 -0.2463  0.4133
 4103TIP3    H133868   1.136   2.549   2.259 -0.7909 -1.4892  2.0334
 4103TIP3    H233869   1.266   2.507   2.194 -1.6855 -0.9701 -0.2066
 4104TIP3   OH233870   2.127   5.090   8.308 -0.7902  0.0873  0.2500
 4104TIP3    H133871   2.209   5.139   8.309 -0.2372 -0.8020  1.1707
 4104TIP3    H233872   2.155   4.998   8.306 -1.7246 -0.2607  1.5657
 4105TIP3   OH233873   5.282   2.322   1.074  0.1062  0.3480 -0.1393
 4105TIP3    H133874   5.255   2.276   0.995 -2.9603 -0.2821  1.1432
 4105TIP3    H233875   5.310   2.252   1.134 -1.6020  0.3321  0.7179
 4106TIP3   OH233876   3.321   5.690   1.939  0.2540 -0.4269 -0.8361
 4106TIP3    H133877   3.391   5.627   1.957  0.2513 -0.5011 -1.0759
 4106TIP3    H233878   3.303   5.679   1.846  0.8897  0.5769 -1.0855
 4107TIP3   OH233879   6.387   0.093   0.055  0.3137 -0.3011 -0.1074
 4107TIP3    H133880   6.355   0.075   0.143  1.0268 -3.1013 -0.3248
 4107TIP3    H233881   6.471   0.136   0.068 -0.4549  1.0611  0.5197
 4108TIP3   OH233882   0.569   0.720   7.331 -0.4970  0.4870  0.2071
 4108TIP3    H133883   0.606   0.781   7.268  3.3583 -1.6142  0.1249
 4108TIP3    H233884   0.627   0.725   7.407 -2.7929  0.1886  2.1087
 4109TIP3   OH233885   4.359   3.546   1.358 -0.2868  0.4065 -0.0832
 4109TIP3    H133886   4.444   3.583   1.337  0.2498 -1.2775 -1.0528
 4109TIP3    H233887   4.379   3.465   1.406 -1.3566  0.3632  0.3171
 4110TIP3   OH233888   4.260   2.729   1.896  0.6328  0.0854 -0.0183
 4110TIP3    H133889   4.217   2.813   1.877  1.0594  0.5236  0.8949
 4110TIP3    H233890   4.292   2.699   1.811 -1.4436 -0.2553 -0.7317
 4111TIP3   OH233891   4.651   0.099   8.661 -0.4873 -0.3969 -0.2703
 4111TIP3    H133892   4.627   0.007   8.672  0.0218 -0.4948  0.0703
 4111TIP3    H233893   4.611   0.125   8.578  0.5533 -1.3367 -1.0844
 4112TIP3   OH233894   2.693   6.635   0.039  0.3351  0.2482  0.4104
 4112TIP3    H133895   2.775   6.620  -0.007  0.7238  1.1315  0.7777
 4112TIP3    H233896   2.644   6.553   0.030  1.5531 -0.5435  0.7963
 4113TIP3   OH233897   0.462   6.719   1.353  0.1000  0.0233  0.2597
 4113TIP3    H133898   0.474   6.658   1.280 -0.0203  2.8868 -2.4252
 4113TIP3    H233899   0.550   6.753   1.370  0.1599 -0.7940  1.6687
 4114TIP3   OH233900   3.858   1.320   0.551  0.5534  0.1119 -0.5520
 4114TIP3    H133901   3.839   1.254   0.618  0.0075 -1.6526 -2.3451
 4114TIP3    H233902   3.801   1.297   0.478  1.1287  1.9672 -1.6477
 4115TIP3   OH233903   3.708   4.718   1.141 -0.1800 -0.0064 -0.4338
 4115TIP3    H133904   3.750   4.710   1.226  0.0484  2.3003 -0.2721
 4115TIP3    H233905   3.625   4.671   1.151 -0.0324 -0.0015  0.9746
 4116TIP3   OH233906   2.832   0.274   3.346  0.2546 -0.2908 -0.6239
 4116TIP3    H133907   2.824   0.367   3.325 -0.9030 -0.2109  0.0663
 4116TIP3    H233908   2.865   0.272   3.435 -1.2123 -0.4802 -0.0465
 4117TIP3   OH233909   6.207   1.358   2.300  0.8085 -0.9217  0.5267
 4117TIP3    H133910   6.130   1.401   2.263  0.3196 -1.1792  1.2153
 4117TIP3    H233911   6.228   1.289   2.238  0.5746 -0.7577  0.2608
 4118TIP3   OH233912   2.155   0.121   2.435  0.3277  0.3762 -0.4354
 4118TIP3    H133913   2.250   0.130   2.442  0.4439 -0.0794 -1.2432
 4118TIP3    H233914   2.122   0.210   2.439  0.5555  0.4261  2.4200
 4119TIP3   OH233915   0.229   0.722   8.754  0.1734  0.0404 -0.3653
 4119TIP3    H133916   0.136   0.734   8.734  0.1813 -2.4275 -2.4572
 4119TIP3    H233917   0.237   0.629   8.775  2.0189  0.4620  1.0396
 4120TIP3   OH233918   3.732   0.166   0.741 -0.0298 -0.2249 -0.7982
 4120TIP3    H133919   3.756   0.119   0.820  0.6233 -0.9017 -1.3871
 4120TIP3    H233920   3.764   0.112   0.669 -0.3665  0.5061 -1.5263
 4121TIP3   OH233921   5.142   3.287   8.648 -0.6567  0.0858  0.0152
 4121TIP3    H133922   5.082   3.339   8.594  2.3564  1.5614 -2.2256
 4121TIP3    H233923   5.146   3.202   8.605 -0.2142  0.4000 -0.5736
 4122TIP3   OH233924   2.128   4.859   2.554  0.4292 -0.1320  0.0805
 4122TIP3    H133925   2.164   4.885   2.639  0.7493 -0.4923  0.0597
 4122TIP3    H233926   2.048   4.811   2.575  0.1801  0.3108  0.1484
 4123TIP3   OH233927   1.569   6.677   2.715  0.1451  0.0171 -0.0669
 4123TIP3    H133928   1.505   6.682   2.643 -0.1438  1.5070  0.2662
 4123TIP3    H233929   1.535   6.609   2.772 -1.3695  1.0056  0.2715
 4124TIP3   OH233930   6.478   5.382   1.379 -0.2178 -0.5364  0.2672
 4124TIP3    H133931   6.471   5.300   1.331 -1.6919 -1.4257  1.8587
 4124TIP3    H233932   6.537   5.363   1.452  0.3894  0.1947 -0.0140
 4125TIP3   OH233933   0.796   3.616   8.646 -0.9788  0.6328  0.4497
 4125TIP3    H133934   0.736   3.566   8.591  1.1383 -1.1926 -0.3640
 4125TIP3    H233935   0.835   3.680   8.586 -0.6339  0.4380  0.4638
 4126TIP3   OH233936   5.209   1.035   2.962  0.3972 -0.2739 -0.3906
 4126TIP3    H133937   5.275   1.032   3.031 -0.0073 -0.1431  0.0032
 4126TIP3    H233938   5.196   1.128   2.944 -0.1611 -0.2689  0.0024
 4127TIP3   OH233939   2.528   5.599   0.776 -0.2929 -0.6534  0.1292
 4127TIP3    H133940   2.462   5.660   0.742 -0.5019  0.0075  1.6464
 4127TIP3    H233941   2.486   5.513   0.769 -0.7351 -0.4172 -0.2667
 4128TIP3   OH233942   2.044   1.375   2.673 -0.2399 -0.6222 -0.3488
 4128TIP3    H133943   2.071   1.335   2.591  1.8508 -1.7464  0.8032
 4128TIP3    H233944   1.964   1.328   2.697  0.3331 -1.8202 -0.6913
 4129TIP3   OH233945   1.716   2.072   3.021  0.5436 -0.2902  0.2090
 4129TIP3    H133946   1.676   2.093   3.105 -1.4097 -0.1095 -0.7260
 4129TIP3    H233947   1.742   2.157   2.985  1.1564 -0.3489  0.4863
 4130TIP3   OH233948   1.945   3.932   8.867 -0.0232  0.1723 -0.3071
 4130TIP3    H133949   1.930   3.876   8.943 -0.7043 -1.5502 -1.6342
 4130TIP3    H233950   2.031   3.906   8.834 -0.1848  0.1611 -0.7268
 4131TIP3   OH233951   5.747   1.042   8.087  0.1844  0.0948 -0.5903
 4131TIP3    H133952   5.799   1.117   8.061  0.5733 -0.2559 -0.8419
 4131TIP3    H233953   5.677   1.037   8.021 -2.1042  2.4268  1.4318
 4132TIP3   OH233954   3.101   0.632   1.930  0.1856  0.2421  0.3870
 4132TIP3    H133955   3.153   0.615   1.852  0.2448  0.3958  0.3908
 4132TIP3    H233956   3.166   0.653   1.998  0.2256 -1.3985  0.8854
 4133TIP3   OH233957   4.591   0.543   8.422 -0.4138 -0.3016 -0.2033
 4133TIP3    H133958   4.623   0.467   8.373 -0.7338  0.3847 -1.5183
 4133TIP3    H233959   4.621   0.619   8.372 -1.6138  0.4031  0.1030
 4134TIP3   OH233960   2.283   1.407   1.768 -0.0448  0.3852  0.2590
 4134TIP3    H133961   2.271   1.492   1.725 -0.5058  0.0572 -0.2870
 4134TIP3    H233962   2.301   1.347   1.695 -0.7421 -0.1669  0.5414
 4135TIP3   OH233963   0.554   4.769   0.011 -0.1126  0.1810 -0.0813
 4135TIP3    H133964   0.525   4.860   0.005  3.8049  1.6608  0.4451
 4135TIP3    H233965   0.574   4.745  -0.079 -1.3996 -0.3204 -0.2549
 4136TIP3   OH233966   3.061   5.353   7.889  0.0091 -0.1728  0.2990
 4136TIP3    H133967   2.988   5.415   7.882  0.0233  0.0696  1.8756
 4136TIP3    H233968   3.030   5.287   7.952  1.1880  0.0335  1.1306
 4137TIP3   OH233969   5.748   4.679   3.077 -0.1164 -0.0856 -0.0769
 4137TIP3    H133970   5.669   4.728   3.098  2.0935  3.6135  0.4434
 4137TIP3    H233971   5.737   4.653   2.986 -0.8988  2.7620 -0.8822
 4138TIP3   OH233972   0.997   0.966   1.457  0.0181  0.6086 -0.2727
 4138TIP3    H133973   1.085   0.950   1.423  0.5782  0.5356  1.1491
 4138TIP3    H233974   0.991   1.062   1.461 -0.1727  0.6261 -0.8505
 4139TIP3   OH233975   2.541   4.243   0.148 -0.0200 -0.3196  1.1568
 4139TIP3    H133976   2.595   4.318   0.125 -1.3381 -0.0230 -1.3445
 4139TIP3    H233977   2.602   4.169   0.151  0.8047  0.2938  0.1468
 4140TIP3   OH233978   2.793   1.221   0.191  0.0974  0.0465 -0.6103
 4140TIP3    H133979   2.790   1.316   0.195 -1.3018 -0.0217  0.6867
 4140TIP3    H233980   2.702   1.193   0.200  0.6384 -1.4557  0.6594
 4141TIP3   OH233981   4.765   3.818   1.008 -0.0832 -0.2151 -0.7831
 4141TIP3    H133982   4.825   3.754   0.972  1.2730  0.4940  0.1379
 4141TIP3    H233983   4.697   3.828   0.941  1.3692 -0.2724 -2.3205
 4142TIP3   OH233984   1.646   3.310   8.557  0.3738  0.8395 -0.3729
 4142TIP3    H133985   1.685   3.225   8.537 -1.1408  0.0523 -0.1293
 4142TIP3    H233986   1.681   3.333   8.642 -0.4515 -0.3612  0.3270
 4143TIP3   OH233987   0.889   3.367   1.186  0.5257  0.1536 -0.4406
 4143TIP3    H133988   0.804   3.386   1.147  0.7135 -0.4156 -1.1331
 4143TIP3    H233989   0.889   3.417   1.268 -1.8433 -2.3946  1.3125
 4144TIP3   OH233990   2.214   5.624   7.257 -0.1089  0.6046 -0.3581
 4144TIP3    H133991   2.194   5.582   7.173  0.4857 -1.9265  0.6871
 4144TIP3    H233992   2.271   5.698   7.234 -0.7803  0.5910 -2.2479
 4145TIP3   OH233993   4.066   4.108   1.204  0.5059 -0.7514  0.4806
 4145TIP3    H133994   4.147   4.115   1.153  0.4477 -2.3290  0.1069
 4145TIP3    H233995   4.050   4.196   1.237  1.0438  0.1188 -1.4673
 4146TIP3   OH233996   1.142   0.709   0.764  0.1603  0.7428  0.1053
 4146TIP3    H133997   1.194   0.771   0.713  0.3472 -0.1200 -0.7848
 4146TIP3    H233998   1.202   0.678   0.832  0.3387  0.8636  0.0045
 4147TIP3   OH233999   0.012   0.153   2.065 -0.5062 -0.8657  0.4289
 4147TIP3    H134000   0.003   0.247   2.049 -3.8966 -1.2466 -0.7044
 4147TIP3    H234001   0.080   0.125   2.004  0.6464  0.8246  0.8532
 4148TIP3   OH234002   2.273   4.975   7.430  0.3151  0.3051  0.4847
 4148TIP3    H134003   2.328   4.951   7.355  0.3135 -1.6897  1.0555
 4148TIP3    H234004   2.259   5.069   7.421 -0.7727 -0.0406 -2.7417
 4149TIP3   OH234005   4.590   3.882   8.684 -0.2781 -0.3184  0.4881
 4149TIP3    H134006   4.524   3.877   8.615 -0.6868  0.6949  0.7777
 4149TIP3    H234007   4.624   3.793   8.693  0.5391 -0.2866 -1.7366
 4150TIP3   OH234008   4.030   2.397   2.507  0.6740 -0.2970 -0.4282
 4150TIP3    H134009   3.993   2.385   2.419  1.0144 -2.7869 -0.3202
 4150TIP3    H234010   3.954   2.403   2.565  0.4306  2.3045 -0.9278
 4151TIP3   OH234011   0.880   5.843   2.517  0.0692  0.4547 -0.5132
 4151TIP3    H134012   0.888   5.753   2.484  0.1414 -0.0558  0.8148
 4151TIP3    H234013   0.865   5.832   2.611 -2.6563  1.7291 -0.6875
 4152TIP3   OH234014   4.380   5.661   2.926  0.0837 -0.1389 -0.3608
 4152TIP3    H134015   4.355   5.602   2.856 -1.0028  1.1618 -1.1320
 4152TIP3    H234016   4.302   5.667   2.981  0.0283  0.8789 -0.5320
 4153TIP3   OH234017   5.379   1.174   1.136  0.3324 -0.6245  0.1428
 4153TIP3    H134018   5.366   1.220   1.053  4.5474 -0.8186 -0.8546
 4153TIP3    H234019   5.292   1.167   1.173 -1.2534  3.4791 -2.0939
 4154TIP3   OH234020   6.207   4.899   7.422  0.2624 -0.0803  0.3294
 4154TIP3    H134021   6.259   4.864   7.349 -0.0883  0.7266 -0.3227
 4154TIP3    H234022   6.247   4.984   7.441 -1.2549  0.8993 -0.6815
 4155TIP3   OH234023   1.329   0.761   0.341  0.4398  0.5024  0.0006
 4155TIP3    H134024   1.331   0.737   0.433  0.9420 -0.1140 -0.1665
 4155TIP3    H234025   1.238   0.748   0.315  0.4879 -0.2443  0.1750
 4156TIP3   OH234026   5.952   6.544   8.553 -0.7708  0.3153  0.1721
 4156TIP3    H134027   5.933   6.473   8.615  2.9109  0.4805  1.7757
 4156TIP3    H234028   5.957   6.500   8.468  0.1608 -1.1936  0.9481
 4157TIP3   OH234029   5.447   5.544   0.528 -0.0190 -0.4945 -0.1226
 4157TIP3    H134030   5.376   5.561   0.590 -0.1784  0.1805 -0.4815
 4157TIP3    H234031   5.415   5.472   0.474 -1.7909  1.7618 -2.3090
 4158TIP3   OH234032   6.139   3.916   1.632  0.6572 -0.0112 -0.3515
 4158TIP3    H134033   6.116   4.004   1.661 -0.7047 -1.0255  1.9381
 4158TIP3    H234034   6.098   3.908   1.546  0.1037  1.3167 -0.2384
 4159TIP3   OH234035   5.521   1.233   0.839 -0.5992  0.0537  0.4770
 4159TIP3    H134036   5.442   1.222   0.786  0.2213 -0.8694 -0.6036
 4159TIP3    H234037   5.567   1.307   0.798  0.7189 -1.5320 -1.0403
 4160TIP3   OH234038   0.440   1.363   0.917 -0.2135 -0.5998 -0.3985
 4160TIP3    H134039   0.532   1.391   0.911 -0.5404  0.1714 -2.9257
 4160TIP3    H234040   0.415   1.343   0.827 -2.5861 -0.6723  0.2120
 4161TIP3   OH234041   3.099   1.516   7.053  0.7116  0.0101  0.4407
 4161TIP3    H134042   3.045   1.554   7.122  1.0793 -0.6158  1.0729
 4161TIP3    H234043   3.189   1.530   7.082  0.9388  1.4441 -0.8117
 4162TIP3   OH234044   2.706   6.752   0.502  0.5554  0.1711  0.6032
 4162TIP3    H134045   2.772   6.805   0.546  1.7584  0.1851 -1.1194
 4162TIP3    H234046   2.701   6.788   0.413  1.9042 -2.9409 -0.8681
 4163TIP3   OH234047   1.297   0.858   8.072  0.5370  0.2227 -0.0277
 4163TIP3    H134048   1.368   0.841   8.133  0.3552 -3.1983 -0.5801
 4163TIP3    H234049   1.339   0.859   7.986  0.3240  1.6060 -0.1396
 4164TIP3   OH234050   1.161   3.437   1.812  0.4142 -0.0010  0.2509
 4164TIP3    H134051   1.111   3.375   1.865 -0.7833  0.2850 -0.5278
 4164TIP3    H234052   1.237   3.387   1.783 -0.8847 -1.3547 -0.9575
 4165TIP3   OH234053   4.091   1.708   1.722  0.0247 -0.2701 -0.2070
 4165TIP3    H134054   4.057   1.718   1.811 -1.4666  2.5271 -0.9631
 4165TIP3    H234055   4.050   1.779   1.672  0.3590 -2.0590 -3.3027
 4166TIP3   OH234056   5.799   1.855   1.379  0.2482  0.6346 -0.3805
 4166TIP3    H134057   5.838   1.837   1.465 -2.3439 -0.0495  0.7464
 4166TIP3    H234058   5.874   1.869   1.322  2.0987  0.5920  1.8643
 4167TIP3   OH234059   0.192   4.940   1.965  0.1095  0.1330 -0.2938
 4167TIP3    H134060   0.209   4.955   2.058  1.1711 -0.3653 -0.3946
 4167TIP3    H234061   0.246   5.005   1.920 -2.3549  2.1823 -0.5700
 4168TIP3   OH234062   3.231   2.569   1.968 -0.0702 -0.1604  0.1186
 4168TIP3    H134063   3.248   2.609   1.883  0.1275  0.7507  0.5720
 4168TIP3    H234064   3.139   2.544   1.965 -1.1708  3.2168  0.9059
 4169TIP3   OH234065   6.144   1.642   8.217  0.0243  0.0346  0.0475
 4169TIP3    H134066   6.111   1.606   8.136 -2.3074  0.1544  0.8670
 4169TIP3    H234067   6.086   1.607   8.285  0.9791  1.0935  1.4779
 4170TIP3   OH234068   4.247   2.514   7.956  0.2529  0.5712  0.1715
 4170TIP3    H134069   4.330   2.559   7.944  0.0835  0.8116 -0.1228
 4170TIP3    H234070   4.251   2.439   7.895  1.0237 -0.5199  1.5125
 4171TIP3   OH234071   4.089   5.304   0.010 -0.2385 -0.2294 -0.0013
 4171TIP3    H134072   4.004   5.345  -0.005  0.5744  1.1915 -0.9476
 4171TIP3    H234073   4.102   5.311   0.105 -0.4849  0.9725 -0.0448
 4172TIP3   OH234074   2.121   5.521   8.268  0.3517 -0.0308  0.5909
 4172TIP3    H134075   2.152   5.572   8.193  0.8044 -0.2136  0.6522
 4172TIP3    H234076   2.030   5.499   8.246  0.2406  0.5595  0.4382
 4173TIP3   OH234077   2.881   5.098   1.327 -0.0235  0.7067  0.1680
 4173TIP3    H134078   2.880   5.012   1.368 -0.6118  1.6589  2.2996
 4173TIP3    H234079   2.903   5.158   1.398 -0.6885  2.4255 -1.0162
 4174TIP3   OH234080   4.673   6.388   1.249  0.2168 -0.2640 -0.3544
 4174TIP3    H134081   4.745   6.333   1.220  1.2885 -0.3352  2.1408
 4174TIP3    H234082   4.715   6.468   1.281 -1.1042  0.9988 -1.6181
 4175TIP3   OH234083   6.034   2.450   1.699 -0.0741  0.2193  0.6488
 4175TIP3    H134084   6.058   2.494   1.617 -0.6111 -2.4386 -1.0997
 4175TIP3    H234085   6.114   2.406   1.726  0.0888  1.0585  1.5732
 4176TIP3   OH234086   1.826   4.010   2.096 -0.1793 -0.3130  0.0535
 4176TIP3    H134087   1.800   4.025   2.187  3.0263  0.0957  1.0251
 4176TIP3    H234088   1.783   3.928   2.072 -1.8662  0.0646  1.5943
 4177TIP3   OH234089   3.494   1.199   2.839  0.2166 -0.2268 -0.7944
 4177TIP3    H134090   3.448   1.117   2.823 -0.3357  0.0565 -0.6902
 4177TIP3    H234091   3.483   1.215   2.933  0.0285  0.1382 -0.8779
 4178TIP3   OH234092   2.925   1.544   1.996  0.0975 -0.5305 -0.0561
 4178TIP3    H134093   2.960   1.487   2.064 -1.0345 -0.3637  0.6972
 4178TIP3    H234094   2.833   1.517   1.987 -0.4763  1.1694  0.3417
 4179TIP3   OH234095   1.858   3.977   8.178  0.4890 -0.7227  0.3858
 4179TIP3    H134096   1.933   3.920   8.161  0.9706  0.1726 -0.5826
 4179TIP3    H234097   1.828   3.952   8.266  2.2402 -0.7351  1.0084
 4180TIP3   OH234098   5.001   6.531   1.532 -0.0740  0.3510 -0.0472
 4180TIP3    H134099   4.957   6.559   1.451 -0.6027 -2.1166 -0.7061
 4180TIP3    H234100   4.957   6.449   1.555  0.4789  0.6901  2.4439
 4181TIP3   OH234101   0.752   4.355   1.443 -0.4052 -0.9000 -0.1833
 4181TIP3    H134102   0.685   4.402   1.394 -2.5414 -3.0761  0.4641
 4181TIP3    H234103   0.806   4.313   1.376 -0.3167  0.0243 -0.7055
 4182TIP3   OH234104   6.313   6.546   1.712  0.2838  0.3639  0.5145
 4182TIP3    H134105   6.219   6.561   1.712 -0.1081 -1.3895 -2.7160
 4182TIP3    H234106   6.323   6.457   1.746  0.5305 -0.2630 -1.1254
 4183TIP3   OH234107   1.826   1.707   8.382  0.1469  0.1101  0.2509
 4183TIP3    H134108   1.746   1.752   8.355  0.5419  0.1760 -0.8713
 4183TIP3    H234109   1.884   1.713   8.306  0.4536 -1.7462  0.2840
 4184TIP3   OH234110   4.069   0.453   3.248  0.2351 -0.0610  0.1133
 4184TIP3    H134111   3.983   0.439   3.287  1.0545  0.2765  2.1667
 4184TIP3    H234112   4.121   0.377   3.275  0.7921  0.0786 -0.5192
 4185TIP3   OH234113   5.558   1.997   1.916  0.2037  0.0010 -0.1969
 4185TIP3    H134114   5.572   2.073   1.973 -0.4277 -1.6157  2.3001
 4185TIP3    H234115   5.480   2.018   1.866 -0.1288  0.8998  0.6734
 4186TIP3   OH234116   2.983   2.988   3.351  0.4218  0.2492  0.2503
 4186TIP3    H134117   2.992   3.026   3.264  1.3511 -0.8917 -0.1908
 4186TIP3    H234118   3.072   2.991   3.387 -0.0609  1.2662  1.4239
 4187TIP3   OH234119   3.588   2.455   7.093 -0.0620  0.1168  0.2603
 4187TIP3    H134120   3.534   2.533   7.110  0.1604  0.4406 -0.4650
 4187TIP3    H234121   3.672   2.491   7.065  1.4217 -0.3201  3.6927
 4188TIP3   OH234122   5.890   5.172   1.074 -0.8674 -0.3673 -0.2379
 4188TIP3    H134123   5.812   5.203   1.121 -0.1496 -1.0325  1.5003
 4188TIP3    H234124   5.868   5.082   1.049 -2.1775  0.7163 -3.4838
 4189TIP3   OH234125   2.319   1.413   2.048  0.0550 -0.1089 -0.2867
 4189TIP3    H134126   2.320   1.327   2.089 -1.3938 -0.1203 -0.2288
 4189TIP3    H234127   2.327   1.396   1.954  2.1120 -0.1465 -0.1573
 4190TIP3   OH234128   2.644   1.285   2.358  0.0181  0.1674 -0.1820
 4190TIP3    H134129   2.600   1.366   2.331 -1.1004 -0.5811 -0.6686
 4190TIP3    H234130   2.687   1.254   2.279  2.6926  1.6017  0.5817
 4191TIP3   OH234131   0.946   3.593   2.787  0.3969 -0.3103  0.2881
 4191TIP3    H134132   0.863   3.596   2.836  0.9664  1.7679  1.2262
 4191TIP3    H234133   0.993   3.519   2.824 -0.7033 -1.0179  0.3046
 4192TIP3   OH234134   6.536   6.320   2.377 -0.1423 -0.4395 -1.0650
 4192TIP3    H134135   6.543   6.266   2.298 -1.0138 -0.0312 -1.4263
 4192TIP3    H234136   6.449   6.300   2.412  1.1473 -2.6057  1.2734
 4193TIP3   OH234137   1.214   5.288   7.459 -0.1378  0.0146 -0.0419
 4193TIP3    H134138   1.205   5.197   7.487 -2.7259  0.4418  0.7993
 4193TIP3    H234139   1.195   5.287   7.365  1.8594 -0.5159 -0.4929
 4194TIP3   OH234140   5.289   6.746   0.139 -0.4325  0.0060  0.2437
 4194TIP3    H134141   5.254   6.834   0.127 -1.5767 -0.5060 -0.3613
 4194TIP3    H234142   5.255   6.718   0.224 -1.4844 -0.4605 -0.3077
 4195TIP3   OH234143   1.018   3.254   2.279 -0.1745  0.0311 -0.3303
 4195TIP3    H134144   0.967   3.240   2.358  0.0281  1.8841  0.1851
 4195TIP3    H234145   1.018   3.349   2.267 -0.5841 -0.2173 -2.8277
 4196TIP3   OH234146   0.680   5.313   8.670 -0.1859  0.6995 -0.2350
 4196TIP3    H134147   0.706   5.404   8.661 -2.7282  1.7350  1.6453
 4196TIP3    H234148   0.723   5.284   8.751  0.5756  0.2356 -0.8003
 4197TIP3   OH234149   5.515   5.942   0.207 -0.5234 -0.5628  0.4987
 4197TIP3    H134150   5.497   6.023   0.255 -0.5448  0.0031 -0.4403
 4197TIP3    H234151   5.594   5.961   0.156 -0.7717 -0.9848 -0.0545
 4198TIP3   OH234152   3.336   6.432   7.523 -0.1018  0.3140  0.3183
 4198TIP3    H134153   3.279   6.509   7.522 -1.6781 -0.8144 -0.2526
 4198TIP3    H234154   3.326   6.393   7.437 -0.2174 -1.1539  0.9629
 4199TIP3   OH234155   5.498   2.900   0.203  0.1548 -0.0079 -0.0408
 4199TIP3    H134156   5.441   2.956   0.151  0.9294  2.0049  1.1262
 4199TIP3    H234157   5.478   2.924   0.294  1.6435 -0.4540  0.4384
 4200TIP3   OH234158   1.789   2.803   7.843  0.2838 -0.4478 -1.0548
 4200TIP3    H134159   1.796   2.769   7.932  1.5453 -1.1120 -1.3901
 4200TIP3    H234160   1.852   2.875   7.840 -0.1861 -0.0341 -1.2540
 4201TIP3   OH234161   4.944   2.002   8.040 -0.2693  0.1706 -0.1026
 4201TIP3    H134162   4.966   2.024   8.130 -1.1466  0.3430  0.0779
 4201TIP3    H234163   4.908   1.913   8.044  1.1122 -0.4339 -0.5089
 4202TIP3   OH234164   5.038   1.927   8.527 -0.3347 -0.0171  0.0863
 4202TIP3    H134165   4.995   1.876   8.459  0.5518  0.3406 -0.7688
 4202TIP3    H234166   4.967   1.956   8.584 -0.9494 -1.4612  0.1059
 4203TIP3   OH234167   2.549   4.500   7.481  0.0199  0.2538 -0.1355
 4203TIP3    H134168   2.639   4.490   7.510  0.5813 -2.7313 -2.3529
 4203TIP3    H234169   2.499   4.435   7.531 -0.6565  0.9469  0.1162
 4204TIP3   OH234170   5.191   2.709   8.807  0.7123 -0.2473  0.2173
 4204TIP3    H134171   5.212   2.798   8.834  1.7376 -0.5710  0.5552
 4204TIP3    H234172   5.232   2.699   8.721 -2.1487  0.6281 -1.3921
 4205TIP3   OH234173   3.238   0.515   8.720  0.1117 -0.0375 -0.5436
 4205TIP3    H134174   3.325   0.480   8.700  0.9201  1.6457 -0.1611
 4205TIP3    H234175   3.234   0.598   8.672  0.4201  1.9880  2.6202
 4206TIP3   OH234176   1.467   1.405   1.380  0.0708 -0.2895 -0.7530
 4206TIP3    H134177   1.484   1.453   1.461 -0.8356  1.1011 -1.3436
 4206TIP3    H234178   1.553   1.375   1.351  0.4647 -0.3678  0.4516
 4207TIP3   OH234179   3.254   3.850   0.405  0.1209  0.1195  0.3641
 4207TIP3    H134180   3.256   3.783   0.474  1.2672  0.2054  0.4405
 4207TIP3    H234181   3.321   3.913   0.431 -0.4053  0.8803 -0.1158
 4208TIP3   OH234182   2.111   3.934   0.222 -0.1834 -1.0399 -0.7074
 4208TIP3    H134183   2.166   3.866   0.261  0.2932 -0.9447 -1.1948
 4208TIP3    H234184   2.102   4.000   0.291  0.4231 -1.0008 -0.6555
 4209TIP3   OH234185   6.661   5.282   1.586  0.0046  0.0141  0.2652
 4209TIP3    H134186   6.662   5.372   1.620  1.2871  0.0097  0.2757
 4209TIP3    H234187   6.726   5.236   1.638 -0.6549 -0.9353  0.2635
 4210TIP3   OH234188   0.117   1.459   8.746 -0.6393  0.0562 -0.1518
 4210TIP3    H134189   0.145   1.543   8.708  1.1707 -0.3274  0.2179
 4210TIP3    H234190   0.079   1.482   8.830 -0.0062  0.5189  0.0199
 4211TIP3   OH234191   2.213   6.216   8.285  0.2233 -0.3233  0.2939
 4211TIP3    H134192   2.195   6.304   8.318  0.6812  0.0750 -0.4827
 4211TIP3    H234193   2.177   6.215   8.197 -0.4337 -1.1707  0.5538
 4212TIP3   OH234194   2.951   1.007   0.984  0.0160 -0.1024 -0.0026
 4212TIP3    H134195   2.911   0.959   1.056 -0.2874  0.3689  0.1433
 4212TIP3    H234196   3.030   0.957   0.964 -0.3513 -0.7224  0.0743
 4213TIP3   OH234197   3.091   5.370   2.010  0.0753  0.0063 -0.0128
 4213TIP3    H134198   3.023   5.427   1.974 -0.3194 -0.2137  0.3803
 4213TIP3    H234199   3.088   5.384   2.104  0.1850 -0.4333  0.0585
 4214TIP3   OH234200   5.615   4.772   2.250 -0.4278 -0.0100  0.1327
 4214TIP3    H134201   5.655   4.711   2.187  0.2462  0.1320  0.4242
 4214TIP3    H234202   5.531   4.731   2.271 -0.9835  0.2650 -1.3711
 4215TIP3   OH234203   4.545   0.702   7.354  0.1636 -0.0639 -0.1198
 4215TIP3    H134204   4.628   0.666   7.385  0.3632  1.4594  1.2143
 4215TIP3    H234205   4.516   0.639   7.288  0.8298 -2.2829  1.5746
 4216TIP3   OH234206   4.811   2.682   1.054 -0.3875 -0.0519  0.1963
 4216TIP3    H134207   4.852   2.624   1.119  0.8299 -0.5503 -0.9610
 4216TIP3    H234208   4.821   2.770   1.090  1.1935 -0.2265  0.2582
 4217TIP3   OH234209   6.166   4.095   1.310 -0.0259  0.2762  0.2584
 4217TIP3    H134210   6.133   4.007   1.326  1.0700 -0.2542 -0.2457
 4217TIP3    H234211   6.090   4.144   1.279 -0.5788 -0.5917  0.2082
 4218TIP3   OH234212   4.893   0.064   0.728 -1.1091 -0.0401  0.2252
 4218TIP3    H134213   4.952   0.136   0.707 -1.4551  0.4935  1.0082
 4218TIP3    H234214   4.841   0.097   0.801 -1.3688 -1.0379  0.5051
 4219TIP3   OH234215   4.032   2.049   1.947  0.0258 -0.5439 -0.2423
 4219TIP3    H134216   4.074   2.082   2.027 -0.0181 -0.0726 -0.4096
 4219TIP3    H234217   3.973   1.980   1.978 -2.2023  1.5611  0.5457
 4220TIP3   OH234218   2.665   2.401   8.774 -0.6175 -0.2771 -0.1167
 4220TIP3    H134219   2.591   2.352   8.739  0.9421 -1.0072 -2.6757
 4220TIP3    H234220   2.697   2.454   8.700  1.8995 -0.6312  0.6028
 4221TIP3   OH234221   0.472   6.407   0.643 -0.2408 -0.1018 -0.1746
 4221TIP3    H134222   0.556   6.443   0.674  1.0195 -2.3638 -0.7260
 4221TIP3    H234223   0.475   6.315   0.669 -1.7231 -0.6777 -1.9023
 4222TIP3   OH234224   1.345   0.309   0.175 -0.0520  0.3946  0.0204
 4222TIP3    H134225   1.279   0.241   0.192 -0.9644  0.8860 -1.4047
 4222TIP3    H234226   1.294   0.391   0.174  0.5092  0.7514 -1.3934
 4223TIP3   OH234227   1.491   6.428   1.030  0.5092 -0.2086 -0.0738
 4223TIP3    H134228   1.426   6.455   1.095  0.5651 -1.5715  0.5838
 4223TIP3    H234229   1.439   6.402   0.954  0.3926  0.4435 -0.2231
 4224TIP3   OH234230   2.890   5.947   0.949 -0.2832  0.7658 -0.1913
 4224TIP3    H134231   2.896   6.021   0.890  0.1375  0.3534 -0.6738
 4224TIP3    H234232   2.825   5.974   1.015 -0.4314  1.3944 -0.5874
 4225TIP3   OH234233   3.051   2.997   1.514 -0.1055 -0.8794 -0.0892
 4225TIP3    H134234   2.957   3.008   1.526 -0.2472 -1.5800 -0.4757
 4225TIP3    H234235   3.078   3.074   1.464 -0.7766 -1.4715 -1.4176
 4226TIP3   OH234236   6.244   1.704   2.652 -0.2269  0.0151 -0.1104
 4226TIP3    H134237   6.246   1.733   2.561 -0.3307 -1.5547 -0.6514
 4226TIP3    H234238   6.268   1.781   2.703  0.8275  0.6732 -1.5311
 4227TIP3   OH234239   0.691   1.000   1.178  0.2019 -0.4140 -0.4441
 4227TIP3    H134240   0.680   1.075   1.237  3.0616  0.7607 -1.2328
 4227TIP3    H234241   0.728   0.932   1.233 -1.5873 -1.0304  0.0773
 4228TIP3   OH234242   3.132   1.498   3.142  0.2699 -0.4968  0.0579
 4228TIP3    H134243   3.104   1.590   3.147  2.0036  0.0026  1.5551
 4228TIP3    H234244   3.070   1.451   3.197  0.5540  0.1279  0.9471
 4229TIP3   OH234245   2.706   3.466   1.388 -0.0509 -0.7125 -0.3683
 4229TIP3    H134246   2.647   3.390   1.380 -2.2121  0.9377 -1.2343
 4229TIP3    H234247   2.658   3.537   1.346  2.0542  1.0818  0.1065
 4230TIP3   OH234248   1.984   1.759   2.923 -0.3845  0.4363 -0.0902
 4230TIP3    H134249   2.041   1.826   2.886 -0.7091  0.1982 -1.0459
 4230TIP3    H234250   1.990   1.772   3.018  1.3247  0.3620 -0.1523
 4231TIP3   OH234251   3.304   4.483   8.314  0.2734 -0.4375 -0.0143
 4231TIP3    H134252   3.334   4.573   8.323  1.5877 -0.9192  0.7113
 4231TIP3    H234253   3.283   4.474   8.222  0.0387  0.6405 -0.0753
 4232TIP3   OH234254   2.598   2.720   0.817  0.3204 -0.3863 -0.4600
 4232TIP3    H134255   2.655   2.700   0.891  0.9957  1.1334 -0.5335
 4232TIP3    H234256   2.645   2.788   0.768 -1.0094  0.0483 -1.1922
 4233TIP3   OH234257   2.510   4.839   1.550  0.2673 -0.0863 -0.1475
 4233TIP3    H134258   2.418   4.863   1.554  0.4712  0.8872 -0.9423
 4233TIP3    H234259   2.545   4.863   1.636 -0.7645 -3.0601  1.2552
 4234TIP3   OH234260   1.164   4.043   0.114  0.0841 -0.0720 -0.0495
 4234TIP3    H134261   1.086   4.093   0.089 -1.4077 -1.8796  0.6550
 4234TIP3    H234262   1.237   4.104   0.105 -1.6381  2.3396  1.1778
 4235TIP3   OH234263   0.777   1.180   8.278  0.4881  0.0985 -0.2921
 4235TIP3    H134264   0.777   1.274   8.293  0.8530  0.0682 -0.0878
 4235TIP3    H234265   0.869   1.158   8.260  0.3967 -0.2065 -0.4030
 4236TIP3   OH234266   4.040   5.153   1.886  0.2646  0.0590  0.2739
 4236TIP3    H134267   4.096   5.148   1.963  0.9682  0.8113 -0.1649
 4236TIP3    H234268   4.010   5.244   1.885 -2.0028 -0.6189  1.1961
 4237TIP3   OH234269   6.554   4.896   8.352  0.3104 -0.1488 -0.1505
 4237TIP3    H134270   6.629   4.843   8.326  2.2144  0.3199  3.7196
 4237TIP3    H234271   6.587   4.986   8.354  0.2541 -0.0861  2.9820
 4238TIP3   OH234272   0.728   3.964   1.481 -0.2025  0.7514 -0.0358
 4238TIP3    H134273   0.641   3.956   1.521 -1.0533 -1.2671 -2.1255
 4238TIP3    H234274   0.788   3.933   1.549 -1.1669  1.2201  1.0742
 4239TIP3   OH234275   3.009   1.713   7.965 -0.4292 -0.1565  0.0019
 4239TIP3    H134276   2.975   1.794   8.002  1.8246  0.2977  1.2085
 4239TIP3    H234277   3.083   1.740   7.911 -1.5269 -1.1608 -2.1718
 4240TIP3   OH234278   0.759   3.513   3.099  0.2461 -0.0267 -0.0755
 4240TIP3    H134279   0.845   3.482   3.069  0.0976 -0.5788  0.0530
 4240TIP3    H234280   0.712   3.533   3.018  0.1072 -0.8013 -0.1946
 4241TIP3   OH234281   2.445   2.288   0.953 -0.1007 -0.1342 -0.1446
 4241TIP3    H134282   2.456   2.240   1.035 -0.3520 -0.9571 -0.5809
 4241TIP3    H234283   2.385   2.234   0.902 -1.7112  1.4650 -0.0151
 4242TIP3   OH234284   1.076   4.591   2.126 -0.3687  0.0346  0.0461
 4242TIP3    H134285   1.015   4.534   2.078 -0.0858 -0.6689  0.5037
 4242TIP3    H234286   1.140   4.619   2.060 -1.3470  1.0432 -0.5137
 4243TIP3   OH234287   2.111   5.887   0.516 -0.2276 -0.2480 -0.1108
 4243TIP3    H134288   2.169   5.852   0.448 -1.7048 -1.3845 -0.8425
 4243TIP3    H234289   2.056   5.813   0.541 -1.7636  0.9037  0.1175
 4244TIP3   OH234290   0.219   5.654   7.796  0.4242 -0.2413 -0.5737
 4244TIP3    H134291   0.221   5.617   7.707  1.2585  1.2847 -1.2231
 4244TIP3    H234292   0.296   5.616   7.839  2.4075  2.0725 -1.8543
 4245TIP3   OH234293   1.889   3.343   8.738 -0.1396 -0.0187 -0.0009
 4245TIP3    H134294   1.954   3.278   8.710  0.9512  0.1611  1.9670
 4245TIP3    H234295   1.916   3.424   8.697 -1.5018 -0.6979 -2.4710
 4246TIP3   OH234296   6.664   2.453   1.392  0.1912 -0.2815 -0.7892
 4246TIP3    H134297   6.720   2.396   1.444  0.4651  0.6573 -0.0409
 4246TIP3    H234298   6.611   2.501   1.456 -1.1284 -0.7833 -1.4565
 4247TIP3   OH234299   3.171   0.718   8.548  0.2782 -0.8756 -0.1435
 4247TIP3    H134300   3.184   0.811   8.566 -0.2955 -1.1633  2.0863
 4247TIP3    H234301   3.076   0.708   8.540  0.3768 -1.1719 -0.9716
 4248TIP3   OH234302   1.784   6.329   8.413  0.7824 -0.3730  0.0566
 4248TIP3    H134303   1.782   6.234   8.427 -0.2820 -0.6775 -1.8596
 4248TIP3    H234304   1.699   6.359   8.445  0.3077 -0.3916 -1.1210
 4249TIP3   OH234305   1.558   6.368   2.721  0.0230  0.0469 -0.5138
 4249TIP3    H134306   1.633   6.373   2.780  0.1658 -0.7745 -0.6157
 4249TIP3    H234307   1.482   6.363   2.779  0.1095 -0.0067 -0.4041
 4250TIP3   OH234308   6.017   3.522   8.545 -0.3969  0.3921 -0.0793
 4250TIP3    H134309   5.942   3.509   8.603  0.6168 -2.0589  0.8427
 4250TIP3    H234310   6.024   3.617   8.535 -1.5503  0.8551  2.5839
 4251TIP3   OH234311   4.577   5.712   2.758 -0.4951 -0.2252  0.8774
 4251TIP3    H134312   4.510   5.700   2.826 -0.2206 -1.6923  0.9344
 4251TIP3    H234313   4.634   5.781   2.792 -1.9567  1.0663  0.8273
 4252TIP3   OH234314   4.404   0.857   7.516 -0.0327 -0.3351 -0.8129
 4252TIP3    H134315   4.426   0.817   7.600  0.4124  1.9017  0.2164
 4252TIP3    H234316   4.449   0.803   7.451  1.6581 -0.7235  0.6071
 4253TIP3   OH234317   0.580   0.057   1.716 -0.2536  0.1667 -0.1776
 4253TIP3    H134318   0.494   0.096   1.703 -0.8934 -0.6767  1.3328
 4253TIP3    H234319   0.564  -0.023   1.766  0.8190 -2.9240 -4.2313
 4254TIP3   OH234320   4.466   0.695   0.151  0.1913  0.3726  0.3341
 4254TIP3    H134321   4.433   0.612   0.118  1.6864  0.3097 -1.1306
 4254TIP3    H234322   4.391   0.735   0.196 -0.0376 -2.6454  2.9766
 4255TIP3   OH234323   4.218   2.286   0.019  0.1204  0.2585  0.3309
 4255TIP3    H134324   4.233   2.248  -0.068 -1.4896  0.3735 -0.0434
 4255TIP3    H234325   4.176   2.215   0.068 -1.1941  0.9208  0.2168
 4256TIP3   OH234326   2.040   4.433   7.896 -0.9174  0.0427 -0.0475
 4256TIP3    H134327   2.127   4.453   7.929 -1.0356 -0.0632  0.3351
 4256TIP3    H234328   1.997   4.386   7.968 -0.6232 -1.6846 -0.9368
 4257TIP3   OH234329   6.352   3.077   0.529  0.7268 -0.2602 -0.7071
 4257TIP3    H134330   6.279   3.127   0.565  1.2900 -0.1556  0.3362
 4257TIP3    H234331   6.377   3.125   0.450 -0.8468 -0.7712 -1.5629
 4258TIP3   OH234332   2.244   2.287   7.866  0.1563 -0.3735  0.1685
 4258TIP3    H134333   2.288   2.358   7.820 -2.5130  1.7364  0.6353
 4258TIP3    H234334   2.237   2.217   7.801 -1.7883  1.7964 -2.1711
 4259TIP3   OH234335   3.730   5.611   2.760  0.4007 -0.1287 -0.0023
 4259TIP3    H134336   3.815   5.601   2.804  1.3590  2.5669 -1.0443
 4259TIP3    H234337   3.691   5.524   2.764  2.8182 -1.2593  1.3105
 4260TIP3   OH234338   0.518   1.281   2.713  0.0781 -0.1051  0.4697
 4260TIP3    H134339   0.568   1.356   2.748 -0.4017  0.5322 -0.1874
 4260TIP3    H234340   0.585   1.219   2.685  0.6148  1.5303 -2.1723
 4261TIP3   OH234341   6.144   5.792   2.644  0.3929  0.1200 -0.4521
 4261TIP3    H134342   6.111   5.737   2.574 -3.0928  0.8862  0.3899
 4261TIP3    H234343   6.094   5.766   2.722  2.2773  1.0311  1.1644
 4262TIP3   OH234344   2.632   3.162   7.702  0.2022 -0.2944  0.3918
 4262TIP3    H134345   2.677   3.239   7.737 -1.9504  1.5007 -0.4869
 4262TIP3    H234346   2.576   3.133   7.774 -0.1476 -0.0436  0.2236
 4263TIP3   OH234347   0.584   5.888   2.132 -0.0590 -0.1310 -0.1473
 4263TIP3    H134348   0.679   5.879   2.118  0.1641 -1.2661  1.7125
 4263TIP3    H234349   0.576   5.966   2.187 -0.1364 -0.4140  0.2439
 4264TIP3   OH234350   0.069   2.872   0.436 -0.0257  0.2758 -0.1662
 4264TIP3    H134351   0.126   2.805   0.399  0.1950  0.4898 -0.2201
 4264TIP3    H234352   0.031   2.831   0.513  1.7240  0.7676  1.0224
 4265TIP3   OH234353   4.447   3.116   1.839  0.0108  0.5164  0.5234
 4265TIP3    H134354   4.365   3.117   1.789 -0.3902 -0.1388  1.1603
 4265TIP3    H234355   4.446   3.198   1.889 -0.9330 -0.1223  1.5900
 4266TIP3   OH234356   0.053   5.345   7.839 -0.1137  0.0675  0.6384
 4266TIP3    H134357   0.026   5.351   7.747 -1.4676  0.3733  1.0335
 4266TIP3    H234358   0.146   5.366   7.838 -0.2276  0.6204 -0.6031
 4267TIP3   OH234359   0.318   5.241   8.026  0.0731 -0.2658 -0.0136
 4267TIP3    H134360   0.289   5.152   8.009 -0.5269  0.1303 -1.1521
 4267TIP3    H234361   0.271   5.267   8.105  2.4183 -1.9120  2.0961
 4268TIP3   OH234362   0.800   3.688   1.305  0.1003  0.4097 -0.2782
 4268TIP3    H134363   0.766   3.653   1.387  0.1611  2.4305  0.6738
 4268TIP3    H234364   0.760   3.775   1.297  2.7801  1.7348 -0.5494
 4269TIP3   OH234365   5.100   5.977   1.866  0.1711 -0.5108 -0.0035
 4269TIP3    H134366   5.167   6.036   1.901 -1.2881  0.1508  1.8303
 4269TIP3    H234367   5.117   5.893   1.908  2.0015 -1.4127 -2.3116
 4270TIP3   OH234368   6.415   1.249   0.858  0.3047  0.0090  0.1355
 4270TIP3    H134369   6.461   1.266   0.940 -1.1403  0.0027  0.9779
 4270TIP3    H234370   6.432   1.156   0.841 -1.2881 -0.6240  1.7062
 4271TIP3   OH234371   6.521   1.925   0.701 -0.1554 -0.1864  0.5893
 4271TIP3    H134372   6.437   1.965   0.681 -0.3525 -0.4830  0.8189
 4271TIP3    H234373   6.567   1.922   0.617 -0.5720 -0.4852  0.3726
 4272TIP3   OH234374   4.052   0.501   1.453  0.0916 -0.1601 -0.0065
 4272TIP3    H134375   4.035   0.446   1.377 -0.4475  0.2863 -0.2225
 4272TIP3    H234376   3.966   0.537   1.476 -0.2892 -2.4292  2.5375
 4273TIP3   OH234377   6.746   6.426   0.986  0.4721 -0.7643 -0.1158
 4273TIP3    H134378   6.780   6.508   0.950 -0.7809 -0.8263 -1.5592
 4273TIP3    H234379   6.823   6.374   1.005  1.3333  0.9480  1.4070
 4274TIP3   OH234380   6.110   4.713   1.702  0.9383  0.3097 -0.8106
 4274TIP3    H134381   6.064   4.721   1.785  2.0407 -1.2745 -0.0072
 4274TIP3    H234382   6.197   4.749   1.719  1.3970 -0.6535 -1.0537
 4275TIP3   OH234383   0.841   2.983   8.781  0.0461  0.0651 -0.4818
 4275TIP3    H134384   0.864   3.028   8.862  0.4098 -2.1029  0.6979
 4275TIP3    H234385   0.754   3.015   8.760  0.4829  1.6629  0.0131
 4276TIP3   OH234386   3.788   4.821   0.218  1.1625  0.5587  0.3945
 4276TIP3    H134387   3.844   4.832   0.142  1.7760  1.0349  0.9042
 4276TIP3    H234388   3.789   4.906   0.261  1.2309  0.1640  1.2005
 4277TIP3   OH234389   0.620   4.689   0.468  0.1646 -0.0681  0.1160
 4277TIP3    H134390   0.704   4.664   0.507 -0.6475 -4.0314 -0.2014
 4277TIP3    H234391   0.556   4.675   0.537 -0.5824 -0.7125 -0.6800
 4278TIP3   OH234392   0.498   3.494   3.376 -0.4737  0.3185 -0.0270
 4278TIP3    H134393   0.414   3.526   3.411 -0.4916 -0.2158  0.4336
 4278TIP3    H234394   0.512   3.411   3.421  1.1478  1.1950  1.1771
 4279TIP3   OH234395   3.847   1.387   2.706  0.2502  0.2832 -0.0393
 4279TIP3    H134396   3.861   1.482   2.701  0.0934  0.2718 -0.9535
 4279TIP3    H234397   3.839   1.360   2.615 -0.8263 -0.4508  0.2628
 4280TIP3   OH234398   0.278   1.603   0.664 -0.3280  0.3932  0.4358
 4280TIP3    H134399   0.316   1.538   0.722 -0.0719 -0.1665 -0.3420
 4280TIP3    H234400   0.270   1.558   0.580  2.4073  2.1129 -0.8934
 4281TIP3   OH234401   0.058   2.379   2.775  1.0256 -0.0006  0.3924
 4281TIP3    H134402   0.067   2.367   2.870  2.1426  1.0934  0.4425
 4281TIP3    H234403   0.102   2.462   2.757  0.4344  0.0308 -1.0309
 4282TIP3   OH234404   6.309   6.755   0.577 -0.2728  0.6554  0.2563
 4282TIP3    H134405   6.293   6.710   0.661  0.4998 -0.2144 -0.0329
 4282TIP3    H234406   6.351   6.688   0.523 -2.8037  0.4797 -1.6469
 4283TIP3   OH234407   6.185   6.599   2.501 -0.6637  0.1898 -0.2247
 4283TIP3    H134408   6.183   6.682   2.453 -1.0418  0.1150 -0.3450
 4283TIP3    H234409   6.275   6.591   2.531 -0.5013  0.4034 -0.6411
 4284TIP3   OH234410   5.872   0.248   0.766  0.2948 -0.1274  0.2324
 4284TIP3    H134411   5.780   0.225   0.777 -0.1973  0.3170 -2.2627
 4284TIP3    H234412   5.895   0.298   0.844 -1.8061  0.4152  0.5452
 4285TIP3   OH234413   4.557   1.870   2.063  0.1891 -1.1108 -0.8039
 4285TIP3    H134414   4.540   1.824   1.981 -1.8099  0.3276 -1.2476
 4285TIP3    H234415   4.471   1.896   2.095  1.1019  0.4421  0.5336
 4286TIP3   OH234416   0.287   4.275   1.307  0.4460  0.2136 -0.0655
 4286TIP3    H134417   0.294   4.368   1.285 -0.6155  0.3205 -0.0146
 4286TIP3    H234418   0.222   4.241   1.247  1.9793 -0.8900 -1.1695
 4287TIP3   OH234419   2.273   0.060   0.839 -0.2708 -0.3111 -0.5077
 4287TIP3    H134420   2.367   0.066   0.856 -0.2081  1.2101 -1.2442
 4287TIP3    H234421   2.233   0.108   0.912 -0.2750  1.7882 -1.8360
 4288TIP3   OH234422   5.899   0.200   1.588 -0.2440  0.3685 -0.0336
 4288TIP3    H134423   5.986   0.187   1.552 -0.2679  1.5106 -0.5560
 4288TIP3    H234424   5.884   0.124   1.644 -0.8317 -2.3576 -3.5606
 4289TIP3   OH234425   3.970   6.517   3.352  0.0528 -0.3192  0.0830
 4289TIP3    H134426   3.915   6.521   3.430 -0.2447 -0.1840 -0.1315
 4289TIP3    H234427   4.000   6.426   3.348 -0.1611 -0.3953  0.1982
 4290TIP3   OH234428   2.497   3.378   7.492  0.0518 -0.3452 -0.3343
 4290TIP3    H134429   2.447   3.430   7.556 -0.0940  1.3924 -1.7748
 4290TIP3    H234430   2.577   3.428   7.478  0.8035 -1.5227 -0.3716
 4291TIP3   OH234431   5.012   1.845   2.536  0.6491  0.6840 -0.1853
 4291TIP3    H134432   5.083   1.859   2.475  0.0493  1.3219 -0.7530
 4291TIP3    H234433   4.960   1.926   2.532 -0.3954  0.0373 -0.1857
 4292TIP3   OH234434   4.292   0.515   7.347  0.0061 -0.0611  0.5123
 4292TIP3    H134435   4.371   0.520   7.292 -0.3513 -0.4172 -0.0482
 4292TIP3    H234436   4.227   0.566   7.300  0.7512  3.0752  2.5746
 4293TIP3   OH234437   1.136   3.380   3.321  0.0582  0.2175 -0.1799
 4293TIP3    H134438   1.121   3.285   3.325  1.1592 -0.0590 -1.7374
 4293TIP3    H234439   1.104   3.413   3.405  1.4059 -1.7853  1.1890
 4294TIP3   OH234440   3.310   6.316   1.633 -0.2057  0.1978  0.3095
 4294TIP3    H134441   3.318   6.379   1.561 -0.2866  0.2440  0.3421
 4294TIP3    H234442   3.400   6.302   1.663 -0.0717 -0.4501 -0.3513
 4295TIP3   OH234443   0.237   0.573   0.406  0.4453  0.4093 -0.5118
 4295TIP3    H134444   0.322   0.530   0.398  0.6189  0.8446 -0.9859
 4295TIP3    H234445   0.217   0.605   0.318 -1.3793 -1.8745 -1.0214
 4296TIP3   OH234446   6.788   5.147   0.915  0.3170 -0.3353 -0.7185
 4296TIP3    H134447   6.845   5.152   0.838  0.6082 -2.1007 -0.6609
 4296TIP3    H234448   6.839   5.098   0.979 -1.3630 -2.3398 -0.8056
 4297TIP3   OH234449   2.728   3.641   0.192  0.0661 -0.0710 -0.3052
 4297TIP3    H134450   2.697   3.557   0.226 -0.2156 -1.1316 -2.9219
 4297TIP3    H234451   2.819   3.646   0.221  0.4717 -1.9161 -1.0958
 4298TIP3   OH234452   1.425   6.108   7.923  0.0070 -0.0421  0.2226
 4298TIP3    H134453   1.503   6.053   7.935 -0.5535 -0.8450  0.2921
 4298TIP3    H234454   1.459   6.197   7.915  1.1840 -0.6370 -2.7479
 4299TIP3   OH234455   2.547   1.235   3.577 -0.4306  0.5138  0.5699
 4299TIP3    H134456   2.529   1.215   3.668 -1.7841  1.0930  0.4551
 4299TIP3    H234457   2.462   1.230   3.534  0.1329  0.5786 -0.5964
 4300TIP3   OH234458   4.525   5.183   2.482 -0.1883 -0.6374 -0.4324
 4300TIP3    H134459   4.480   5.246   2.425  1.9156  1.2654 -0.1321
 4300TIP3    H234460   4.576   5.128   2.421  0.9590  0.4853 -0.5293
 4301TIP3   OH234461   4.603   2.934   2.468 -0.7689 -0.4814 -0.3293
 4301TIP3    H134462   4.575   3.007   2.523  0.4585  0.2270 -0.5844
 4301TIP3    H234463   4.667   2.887   2.521 -1.3775 -1.2346 -0.2582
 4302TIP3   OH234464   3.585   1.945   7.843 -0.0207 -0.5569  0.6277
 4302TIP3    H134465   3.544   1.940   7.756  0.2599 -0.0889  0.4655
 4302TIP3    H234466   3.656   2.008   7.832  0.6854 -1.2872  0.9342
 4303TIP3   OH234467   1.382   2.701   0.036 -0.3767 -0.2595  0.0647
 4303TIP3    H134468   1.446   2.645   0.078 -0.1856  0.4666  0.7640
 4303TIP3    H234469   1.397   2.689  -0.058  2.3704  1.6463  0.1587
 4304TIP3   OH234470   1.224   1.401   2.243 -0.6497  0.1453 -0.0461
 4304TIP3    H134471   1.254   1.342   2.312  0.2935 -0.1128 -0.6564
 4304TIP3    H234472   1.226   1.488   2.284 -1.0345 -0.1115  0.5379
 4305TIP3   OH234473   6.468   0.667   1.246  0.6135 -0.3323 -0.2195
 4305TIP3    H134474   6.414   0.660   1.167 -0.8349  0.3062  0.6707
 4305TIP3    H234475   6.496   0.758   1.247 -0.5460  0.0371  0.7082
 4306TIP3   OH234476   1.005   3.770   8.490  0.0276  0.3092  0.5174
 4306TIP3    H134477   0.966   3.829   8.427  1.5344  0.0685 -0.7048
 4306TIP3    H234478   1.092   3.750   8.454  0.2222 -1.2929  1.7358
 4307TIP3   OH234479   4.213   6.356   8.391 -0.0633  0.0697 -0.3966
 4307TIP3    H134480   4.136   6.300   8.401 -0.2456  0.5554  1.1246
 4307TIP3    H234481   4.277   6.322   8.453  1.1351 -0.5793 -1.9351
 4308TIP3   OH234482   5.548   1.997   8.312 -0.1579  0.5437 -0.2636
 4308TIP3    H134483   5.619   2.039   8.263 -2.1235  3.1246 -1.1185
 4308TIP3    H234484   5.551   2.038   8.398 -0.6401  0.7242 -0.3298
 4309TIP3   OH234485   0.463   6.046   1.431 -0.7275  0.1492 -0.0809
 4309TIP3    H134486   0.395   6.023   1.368 -0.5511  2.6271 -1.3054
 4309TIP3    H234487   0.458   5.978   1.498 -4.4357  0.2523 -0.0619
 4310TIP3   OH234488   2.744   6.112   2.991  0.0818 -0.0441 -0.2825
 4310TIP3    H134489   2.695   6.154   2.920  0.3602 -0.5201 -0.7711
 4310TIP3    H234490   2.709   6.023   2.993  0.9160 -0.3887 -0.6373
 4311TIP3   OH234491   5.671   2.958   1.492  0.1223 -0.2886  0.1004
 4311TIP3    H134492   5.641   3.011   1.418 -0.9200 -0.1752  0.5780
 4311TIP3    H234493   5.744   2.907   1.458  1.5704  1.8492 -0.2495
 4312TIP3   OH234494   4.314   1.543   1.177 -0.3059  0.3619 -0.2588
 4312TIP3    H134495   4.381   1.525   1.243 -0.9281  2.0203  0.9131
 4312TIP3    H234496   4.254   1.469   1.182  1.0400 -0.8001 -0.8331
 4313TIP3   OH234497   4.873   6.318   1.632 -0.2262 -0.5053 -0.2570
 4313TIP3    H134498   4.785   6.355   1.623  0.2977  0.5741 -1.2619
 4313TIP3    H234499   4.875   6.282   1.720 -1.8155 -0.9512 -0.3624
 4314TIP3   OH234500   0.917   6.682   2.139 -0.4697 -1.0674 -0.3124
 4314TIP3    H134501   1.001   6.668   2.181 -0.0849 -0.8423 -0.9945
 4314TIP3    H234502   0.861   6.718   2.209 -0.3576 -2.3136  0.4410
 4315TIP3   OH234503   0.927   2.779   2.255 -0.5387 -0.4152  0.4886
 4315TIP3    H134504   0.875   2.796   2.176  0.7021 -0.1047 -0.2836
 4315TIP3    H234505   0.881   2.707   2.299 -0.0669 -2.1585 -1.6692
 4316TIP3   OH234506   4.104   5.832   8.806 -0.1945  0.2481 -0.1549
 4316TIP3    H134507   4.135   5.783   8.730 -0.6721 -0.9297  0.3802
 4316TIP3    H234508   4.052   5.903   8.769 -0.0376 -0.0318 -0.9381
 4317TIP3   OH234509   3.390   5.071   7.113 -0.3997 -0.1081  0.0162
 4317TIP3    H134510   3.461   5.113   7.161 -1.0703  0.7892  0.2574
 4317TIP3    H234511   3.311   5.119   7.140 -1.3801 -2.1700  1.0931
 4318TIP3   OH234512   0.893   5.534   8.639 -0.5137  0.2066  0.2316
 4318TIP3    H134513   0.964   5.507   8.698 -2.5324 -0.9004  2.3085
 4318TIP3    H234514   0.896   5.470   8.567  0.1644 -0.2563  0.6602
 4319TIP3   OH234515   5.575   5.966   1.144 -0.8879  0.0380 -0.0356
 4319TIP3    H134516   5.612   5.932   1.062 -1.8615  1.6061 -1.1697
 4319TIP3    H234517   5.651   5.980   1.200 -0.1368 -0.4865 -0.8779
 4320TIP3   OH234518   1.125   5.166   0.751 -0.2948  0.3106  0.0108
 4320TIP3    H134519   1.036   5.150   0.782  0.1524 -2.5818  0.0553
 4320TIP3    H234520   1.178   5.100   0.795  1.5160  0.5869 -1.6447
 4321TIP3   OH234521   1.912   2.520   8.853 -0.2090 -0.0440  0.8428
 4321TIP3    H134522   1.880   2.441   8.895  0.5978 -1.0975 -0.4246
 4321TIP3    H234523   1.971   2.489   8.784 -1.1928  1.5698 -0.8422
 4322TIP3   OH234524   6.571   6.737   1.511 -0.3588 -0.0134 -0.4426
 4322TIP3    H134525   6.545   6.648   1.487 -1.5836  0.2977 -0.3262
 4322TIP3    H234526   6.550   6.744   1.604 -0.0624  0.3235 -0.4020
 4323TIP3   OH234527   6.353   2.863   0.929  0.2161 -0.5041 -0.0026
 4323TIP3    H134528   6.367   2.777   0.889  0.8147 -0.6998  0.6152
 4323TIP3    H234529   6.401   2.924   0.873 -0.3078 -0.5558 -0.5082
 4324TIP3   OH234530   6.449   3.276   1.502  0.5783  0.7207  0.0183
 4324TIP3    H134531   6.479   3.217   1.433  0.0199  0.9493 -0.4291
 4324TIP3    H234532   6.355   3.258   1.509  0.1819  2.2581 -0.8434
 4325TIP3   OH234533   1.109   4.265   2.566 -0.6093  0.5207 -0.0482
 4325TIP3    H134534   1.051   4.190   2.575  0.8070 -0.5501  0.5729
 4325TIP3    H234535   1.093   4.297   2.477  0.0064 -1.6270 -0.9943
 4326TIP3   OH234536   3.158   6.192   0.076 -0.3148 -0.1950 -0.0041
 4326TIP3    H134537   3.119   6.204   0.163 -2.7673 -0.7333 -0.9333
 4326TIP3    H234538   3.118   6.111   0.044  0.5298  0.0126 -1.6465
 4327TIP3   OH234539   3.351   5.329   7.832 -0.0272  0.3079 -0.0260
 4327TIP3    H134540   3.367   5.248   7.880  0.8269  1.0529  0.9985
 4327TIP3    H234541   3.260   5.352   7.852 -1.4489 -2.0676 -2.9772
 4328TIP3   OH234542   6.732   6.688   2.423  0.4679  0.0919  0.3077
 4328TIP3    H134543   6.646   6.730   2.410  1.1597  1.5523  0.2079
 4328TIP3    H234544   6.750   6.698   2.516  1.0787  0.9388  0.1100
 4329TIP3   OH234545   2.745   4.726   7.326 -0.5348  0.0595 -0.0251
 4329TIP3    H134546   2.689   4.654   7.297 -0.5295 -1.2918  2.9352
 4329TIP3    H234547   2.753   4.713   7.421  1.1050  2.8487  0.3214
 4330TIP3   OH234548   1.572   5.709   7.662 -0.2366  0.4740  0.5583
 4330TIP3    H134549   1.515   5.665   7.726 -2.3804  1.9508 -0.1997
 4330TIP3    H234550   1.554   5.664   7.579  0.3586  0.4179  0.4538
 4331TIP3   OH234551   6.011   4.345   3.615 -0.0975  0.2411  0.6818
 4331TIP3    H134552   6.047   4.368   3.529 -0.1653 -1.3154  0.2006
 4331TIP3    H234553   5.920   4.376   3.612 -0.9109 -1.9771 -0.8493
 4332TIP3   OH234554   3.916   4.580   2.351  0.4114 -0.4128  0.3639
 4332TIP3    H134555   3.955   4.645   2.293  0.5428 -0.5892  0.2559
 4332TIP3    H234556   3.889   4.509   2.294 -0.6322 -0.0279  0.3598
 4333TIP3   OH234557   5.323   5.285   1.352 -0.4160 -0.2270  0.4185
 4333TIP3    H134558   5.239   5.267   1.393 -0.1789 -1.2794  0.4735
 4333TIP3    H234559   5.316   5.246   1.265  0.9217 -2.7848  1.3484
 4334TIP3   OH234560   1.626   5.668   0.970 -0.4982  0.0830 -0.1079
 4334TIP3    H134561   1.624   5.754   1.013  0.5462 -0.7481  1.7213
 4334TIP3    H234562   1.558   5.618   1.014 -1.1680 -0.0146 -1.2360
 4335TIP3   OH234563   2.544   0.303   0.723  0.3842  0.5572  0.0085
 4335TIP3    H134564   2.487   0.375   0.748  1.3061  1.0762  0.6553
 4335TIP3    H234565   2.538   0.299   0.628  0.4736  1.6044 -0.0436
 4336TIP3   OH234566   0.748   4.544   1.662  0.0439 -0.1855 -0.3158
 4336TIP3    H134567   0.747   4.458   1.621 -0.7975  0.0617 -0.8574
 4336TIP3    H234568   0.656   4.572   1.661  0.3137  0.7622 -0.2661
 4337TIP3   OH234569   5.200   1.086   3.563  0.1278 -0.3900 -0.2637
 4337TIP3    H134570   5.145   1.127   3.630  0.2117 -0.0294 -0.4126
 4337TIP3    H234571   5.138   1.055   3.497  0.1371  0.6043 -0.7542
 4338TIP3   OH234572   0.098   6.248   2.938  0.0258  0.3201  0.0968
 4338TIP3    H134573   0.098   6.328   2.886  0.2652  2.0090  2.5200
 4338TIP3    H234574   0.022   6.198   2.906  0.4856  0.9723 -2.1715
 4339TIP3   OH234575   5.094   5.923   0.296  0.1367  0.0828  0.5874
 4339TIP3    H134576   5.081   5.969   0.214  0.5686 -1.8554 -0.6370
 4339TIP3    H234577   5.141   5.985   0.351 -1.9428  2.1799  0.1754
 4340TIP3   OH234578   6.383   6.541   0.427  0.5896  0.1385 -0.1854
 4340TIP3    H134579   6.424   6.472   0.480  0.1693 -0.3651 -0.5056
 4340TIP3    H234580   6.421   6.530   0.340  1.2801  0.9694 -0.0030
 4341TIP3   OH234581   2.822   0.066   2.620  0.0359 -0.0098  0.0759
 4341TIP3    H134582   2.879   0.012   2.565 -0.4062 -0.5533  0.1391
 4341TIP3    H234583   2.753   0.006   2.648 -0.5330  0.6227  0.0496
 4342TIP3   OH234584   2.238   6.340   7.019  0.4569 -0.8748 -0.6203
 4342TIP3    H134585   2.175   6.405   7.051 -1.8358 -2.7590 -1.0222
 4342TIP3    H234586   2.312   6.346   7.079 -1.8168 -1.3157  2.4116
 4343TIP3   OH234587   4.146   2.303   7.775 -0.1601  0.0636 -0.2201
 4343TIP3    H134588   4.068   2.308   7.830 -0.0968  1.3005 -0.2321
 4343TIP3    H234589   4.151   2.210   7.750 -2.6177  0.2300 -1.6478
 4344TIP3   OH234590   0.770   1.210   0.865 -0.0256  0.6387  0.0191
 4344TIP3    H134591   0.783   1.223   0.771 -0.3796  2.5268  0.1985
 4344TIP3    H234592   0.858   1.214   0.903  0.1803 -0.7007 -0.2599
 4345TIP3   OH234593   2.208   3.940   3.142  0.7981  0.6910 -0.1542
 4345TIP3    H134594   2.117   3.924   3.164  0.7661  1.4032  0.2634
 4345TIP3    H234595   2.252   3.857   3.160  0.1064  0.1029 -1.1216
 4346TIP3   OH234596   3.116   2.456   8.402 -0.5736 -0.2680 -0.5829
 4346TIP3    H134597   3.126   2.520   8.332 -1.0307  1.5784  0.9644
 4346TIP3    H234598   3.150   2.375   8.365 -1.5983  0.4000 -3.2257
 4347TIP3   OH234599   5.422   2.161   3.151 -0.2245  0.3594  0.2284
 4347TIP3    H134600   5.387   2.176   3.063  1.2822  0.8245 -0.3177
 4347TIP3    H234601   5.453   2.071   3.150  0.9284  0.7468 -0.1408
 4348TIP3   OH234602   1.097   6.031   0.143 -0.2379 -0.2301  0.0138
 4348TIP3    H134603   1.184   6.069   0.129 -0.2401  0.3718  1.4576
 4348TIP3    H234604   1.037   6.104   0.127 -0.3914 -0.2918  0.3079
 4349TIP3   OH234605   4.913   4.650   0.609  0.4969 -0.4754  0.5593
 4349TIP3    H134606   4.878   4.735   0.635  1.7843 -0.2648  1.6907
 4349TIP3    H234607   4.874   4.588   0.671  1.6026 -0.3260  1.4235
 4350TIP3   OH234608   4.362   1.396   1.475 -0.3515  0.0228  0.0856
 4350TIP3    H134609   4.416   1.447   1.415  0.3811 -0.7252  0.1056
 4350TIP3    H234610   4.415   1.321   1.499 -1.7605 -1.2925 -0.6995
 4351TIP3   OH234611   0.026   0.308   0.900  0.4124  0.4167 -0.7474
 4351TIP3    H134612  -0.011   0.244   0.840  0.4247  0.3504 -0.6851
 4351TIP3    H234613  -0.049   0.350   0.940  0.3937 -0.2326 -0.0704
 4352TIP3   OH234614   1.840   0.760   1.494 -0.0018 -0.0789 -0.2417
 4352TIP3    H134615   1.916   0.815   1.473  0.2265 -0.5164 -0.5881
 4352TIP3    H234616   1.764   0.813   1.471  0.0632  1.3883  2.4516
 4353TIP3   OH234617   1.216   2.987   8.182  0.1905 -0.3539 -0.1071
 4353TIP3    H134618   1.199   3.020   8.094  0.6042  2.1885  0.6963
 4353TIP3    H234619   1.129   2.975   8.219  0.0148 -1.3417 -0.7913
 4354TIP3   OH234620   2.568   1.902   0.186  0.1089  0.4530 -0.2839
 4354TIP3    H134621   2.589   1.817   0.148 -0.0983  0.0586  0.4454
 4354TIP3    H234622   2.580   1.889   0.280 -1.4753  0.7611 -0.0129
 4355TIP3   OH234623   0.120   1.109   2.759 -0.1930  0.2119  0.2899
 4355TIP3    H134624   0.070   1.087   2.837  2.1051 -2.2861  1.2261
 4355TIP3    H234625   0.182   1.177   2.788 -0.9709  1.0866 -0.0586
 4356TIP3   OH234626   6.532   3.449   1.105 -0.6831 -0.5071  0.0772
 4356TIP3    H134627   6.500   3.531   1.144  0.7282  0.3288 -0.4220
 4356TIP3    H234628   6.506   3.381   1.167 -2.4136  0.2270  0.2231
 4357TIP3   OH234629   1.535   6.669   0.695 -0.5005  0.1067  0.3326
 4357TIP3    H134630   1.556   6.747   0.746  0.1935 -0.7113  1.3292
 4357TIP3    H234631   1.565   6.596   0.749  0.3238 -0.7975 -1.2799
 4358TIP3   OH234632   2.879   0.951   7.589  0.1424 -0.4837 -0.7490
 4358TIP3    H134633   2.832   0.972   7.670 -0.1441 -0.6811 -0.8615
 4358TIP3    H234634   2.868   1.029   7.534  1.8430  0.3768  0.0667
 4359TIP3   OH234635   1.009   3.262   1.974  0.0171 -0.1082  0.4198
 4359TIP3    H134636   1.021   3.264   2.069  0.4134  1.4903  0.3639
 4359TIP3    H234637   1.025   3.171   1.949 -0.1862 -0.5661  1.8897
 4360TIP3   OH234638   2.409   6.641   1.346  1.0129 -0.0202  0.3219
 4360TIP3    H134639   2.418   6.709   1.280 -0.2335 -0.6287 -0.5200
 4360TIP3    H234640   2.382   6.687   1.425 -1.5021  0.3452 -0.6690
 4361TIP3   OH234641   6.052   4.050   0.038 -0.0520  0.6876  0.1868
 4361TIP3    H134642   6.130   4.052   0.094  0.1499  0.7367 -0.0935
 4361TIP3    H234643   6.077   4.100  -0.040 -0.7620  1.7174  0.6007
 4362TIP3   OH234644   3.001   4.225   8.457  0.4946 -0.5656 -0.4536
 4362TIP3    H134645   2.909   4.227   8.432  0.2898 -0.2135  0.3174
 4362TIP3    H234646   3.007   4.159   8.526  0.8931 -0.8657 -0.7696
 4363TIP3   OH234647   1.839   5.099   1.164 -0.5278  0.2996 -0.4736
 4363TIP3    H134648   1.780   5.044   1.112  0.6829 -0.5896 -0.9601
 4363TIP3    H234649   1.907   5.127   1.102 -0.4087  1.2706  0.0719
 4364TIP3   OH234650   0.700   2.515   8.856 -0.1613 -0.1732  0.0299
 4364TIP3    H134651   0.699   2.477   8.768 -1.2818 -0.9077  0.3442
 4364TIP3    H234652   0.747   2.598   8.845  0.5946 -0.7192 -1.0528
 4365TIP3   OH234653   1.682   3.404   0.508 -0.0884 -0.2469 -0.3248
 4365TIP3    H134654   1.589   3.427   0.513 -0.6063 -1.9886 -1.0810
 4365TIP3    H234655   1.685   3.312   0.533  0.8866 -1.2612 -3.6339
 4366TIP3   OH234656   1.043   2.475   0.160 -0.2998  0.6077  0.1851
 4366TIP3    H134657   1.072   2.563   0.182  0.8126 -0.0083  1.3571
 4366TIP3    H234658   0.964   2.462   0.213  0.3401  0.4143  1.1163
 4367TIP3   OH234659   2.766   0.394   1.151  0.2786 -0.2328 -0.8328
 4367TIP3    H134660   2.809   0.324   1.201 -0.6502  0.5322  1.1185
 4367TIP3    H234661   2.830   0.465   1.149  0.1105 -0.0623 -0.2323
 4368TIP3   OH234662   5.434   2.361   8.502  0.1316 -0.0737 -0.2679
 4368TIP3    H134663   5.447   2.422   8.430 -0.2523  1.0786  0.6069
 4368TIP3    H234664   5.462   2.409   8.580  1.4311 -1.6094  0.2768
 4369TIP3   OH234665   4.730   2.041   2.755  0.0299 -0.1321  0.1669
 4369TIP3    H134666   4.807   2.070   2.707 -0.2527  0.5394  0.1113
 4369TIP3    H234667   4.742   2.076   2.843 -0.3805  0.2806  0.0617
 4370TIP3   OH234668   6.378   6.213   1.074  0.6407  0.3791 -0.2122
 4370TIP3    H134669   6.385   6.281   1.006  2.4409  1.1621  0.6985
 4370TIP3    H234670   6.446   6.235   1.137  0.2190 -1.4000  0.9276
 4371TIP3   OH234671   5.775   1.745   1.016  0.1843 -0.1189 -0.0157
 4371TIP3    H134672   5.692   1.699   1.031  0.0634  0.1401  0.1131
 4371TIP3    H234673   5.839   1.674   1.006  0.5802 -0.3977  3.3476
 4372TIP3   OH234674   0.661   6.507   2.629 -0.5292 -0.0258 -1.0189
 4372TIP3    H134675   0.735   6.509   2.690  0.2799 -0.7048 -1.9427
 4372TIP3    H234676   0.617   6.425   2.647 -1.7543  0.8670  0.2823
 4373TIP3   OH234677   1.318   5.864   2.099 -0.0113 -0.2156 -0.3413
 4373TIP3    H134678   1.385   5.883   2.033  0.2581 -0.3820 -0.1160
 4373TIP3    H234679   1.237   5.897   2.060 -0.3586 -2.6415 -1.9178
 4374TIP3   OH234680   0.320   4.683   0.917  0.2343 -0.2769 -0.2139
 4374TIP3    H134681   0.229   4.675   0.945  0.4284 -1.4799  0.1559
 4374TIP3    H234682   0.360   4.600   0.943  1.9800  1.0508  1.6000
 4375TIP3   OH234683   5.915   6.487   1.969 -0.5860 -0.0485 -0.3643
 4375TIP3    H134684   5.893   6.395   1.985  0.7190 -0.1378  1.1852
 4375TIP3    H234685   5.915   6.527   2.056  0.9509  0.9049 -0.7550
 4376TIP3   OH234686   0.724   0.372   1.121 -0.3899 -0.6977  0.2543
 4376TIP3    H134687   0.664   0.357   1.194 -0.1956 -0.3444  0.4894
 4376TIP3    H234688   0.678   0.336   1.045 -1.1063 -0.0286  0.3536
 4377TIP3   OH234689   3.005   2.993   2.070  0.1415 -0.3482 -0.0811
 4377TIP3    H134690   2.953   3.030   1.999 -0.4108 -1.6396 -0.3780
 4377TIP3    H234691   2.950   3.001   2.147 -0.3923 -1.4327 -0.3365
 4378TIP3   OH234692   1.468   4.058   8.628 -0.2781  0.1836 -0.5132
 4378TIP3    H134693   1.550   4.020   8.659 -0.2757  1.8062  1.6912
 4378TIP3    H234694   1.407   3.984   8.627  0.4480 -0.4804  0.7796
 4379TIP3   OH234695   2.252   3.578   1.853  0.4413  0.0674  0.2482
 4379TIP3    H134696   2.198   3.655   1.833  0.1499 -0.5278 -1.3946
 4379TIP3    H234697   2.260   3.580   1.949  0.8467  2.3892  0.2395
 4380TIP3   OH234698   4.860   3.400   0.684 -0.0646  0.0149  0.2292
 4380TIP3    H134699   4.821   3.387   0.771  1.0231 -0.5257  0.6615
 4380TIP3    H234700   4.807   3.345   0.626 -0.3779 -0.1651  0.6749
 4381TIP3   OH234701   3.038   0.064   7.672 -0.3146 -0.9455  0.5698
 4381TIP3    H134702   2.960   0.043   7.724 -0.7892 -3.2096 -0.9008
 4381TIP3    H234703   3.006   0.064   7.581  0.8212  1.1853  0.1282
 4382TIP3   OH234704   5.369   4.421   2.615  0.6149 -0.4773 -0.3061
 4382TIP3    H134705   5.386   4.374   2.696 -0.5500  0.0732  0.2807
 4382TIP3    H234706   5.295   4.478   2.635  1.7389  1.3556 -1.0844
 4383TIP3   OH234707   1.324   2.734   7.955 -0.1340  0.3683  0.1387
 4383TIP3    H134708   1.267   2.661   7.929  0.3624 -0.3187  0.8943
 4383TIP3    H234709   1.272   2.812   7.938 -0.5006 -0.1272 -1.1484
 4384TIP3   OH234710   5.497   3.142   1.640  0.1045 -0.3939 -0.5170
 4384TIP3    H134711   5.568   3.085   1.611 -0.3374 -2.1866  1.6511
 4384TIP3    H234712   5.540   3.207   1.696  0.2901 -0.2600 -0.8166
 4385TIP3   OH234713   0.844   5.761   3.391 -0.0110  0.0972  0.3864
 4385TIP3    H134714   0.937   5.782   3.394  0.2203 -0.9726  2.1010
 4385TIP3    H234715   0.802   5.841   3.360  1.6224 -0.0704 -2.7359
 4386TIP3   OH234716   4.405   2.828   1.280 -0.1553  0.7022  0.1881
 4386TIP3    H134717   4.441   2.782   1.205  2.3499  2.4414  0.2019
 4386TIP3    H234718   4.405   2.763   1.351  2.1944  0.3310 -0.0728
 4387TIP3   OH234719   1.593   0.178   1.446 -0.0252 -0.1709  0.7063
 4387TIP3    H134720   1.677   0.205   1.409  0.3978  0.2121  1.8644
 4387TIP3    H234721   1.572   0.096   1.402  1.6587 -1.0070  1.3607
 4388TIP3   OH234722   2.608   3.195   1.195 -0.6010 -0.2347  0.3284
 4388TIP3    H134723   2.554   3.119   1.174 -0.3894 -0.9620  2.2101
 4388TIP3    H234724   2.687   3.158   1.234 -1.4415  0.9361  3.4217
 4389TIP3   OH234725   0.170   3.433   2.661 -0.3161  0.6128  0.2378
 4389TIP3    H134726   0.110   3.481   2.604  1.4564  1.1677 -1.2506
 4389TIP3    H234727   0.183   3.349   2.616 -0.3208  0.3186  0.7833
 4390TIP3   OH234728   4.858   5.737   0.308 -0.5654  0.3489  0.2680
 4390TIP3    H134729   4.934   5.794   0.297  0.5540 -1.1422 -0.1086
 4390TIP3    H234730   4.788   5.795   0.336  0.9863  1.6186  1.6936
 4391TIP3   OH234731   2.793   6.796   8.494  0.7529 -0.5428  0.4849
 4391TIP3    H134732   2.858   6.811   8.563  1.8069 -1.2522 -0.3156
 4391TIP3    H234733   2.803   6.704   8.471  1.1213 -0.1047 -1.2713
 4392TIP3   OH234734   1.515   4.719   2.126 -0.4081  0.3360 -0.2056
 4392TIP3    H134735   1.444   4.756   2.180 -0.3047  0.5940 -0.2458
 4392TIP3    H234736   1.471   4.688   2.047 -0.9260 -2.0831  0.9344
 4393TIP3   OH234737   5.326   1.217   0.227 -0.0907 -0.1756 -0.0370
 4393TIP3    H134738   5.269   1.195   0.301  1.6668  0.7145  1.6990
 4393TIP3    H234739   5.372   1.296   0.256  1.2345 -0.2414 -1.7944
 4394TIP3   OH234740   4.469   5.888   0.785  0.0664  0.3330  0.7309
 4394TIP3    H134741   4.492   5.935   0.705  0.2751 -0.6843  0.1718
 4394TIP3    H234742   4.375   5.898   0.794  0.1582  1.1902  0.8549
 4395TIP3   OH234743   2.148   3.525   1.549 -0.1522  0.5637 -0.0274
 4395TIP3    H134744   2.153   3.458   1.617  0.4552  2.1900  1.5993
 4395TIP3    H234745   2.056   3.523   1.521 -0.2741 -0.5411  0.3751
 4396TIP3   OH234746   4.268   2.464   1.251 -0.1203  0.2863  0.3211
 4396TIP3    H134747   4.198   2.434   1.309  2.1644 -4.1457  1.2998
 4396TIP3    H234748   4.337   2.493   1.310  0.0118  1.7040 -0.4938
 4397TIP3   OH234749   2.666   5.150   1.155 -0.5749  0.0526 -0.9672
 4397TIP3    H134750   2.740   5.124   1.210 -0.7462  1.1617 -0.1724
 4397TIP3    H234751   2.590   5.150   1.215 -0.7883  1.1411 -1.2083
 4398TIP3   OH234752   6.086   5.024   7.866  0.2004 -0.1496 -0.2478
 4398TIP3    H134753   6.106   5.018   7.960 -0.1673  0.2277 -0.1446
 4398TIP3    H234754   5.991   5.019   7.861  0.2832 -1.7989 -0.7316
 4399TIP3   OH234755   5.951   3.883   0.980 -0.7969 -0.1133  0.1617
 4399TIP3    H134756   5.962   3.789   0.993 -0.9751 -0.2701 -0.7447
 4399TIP3    H234757   5.871   3.904   1.027  1.4250  0.4637  4.1920
 4400TIP3   OH234758   0.039   5.994   1.063 -0.2294  0.6445  0.3681
 4400TIP3    H134759   0.018   6.036   0.979 -0.6891  2.2083  1.2240
 4400TIP3    H234760  -0.042   5.950   1.088 -0.7002  1.7409  0.8501
 4401TIP3   OH234761   3.927   3.587   0.349 -0.5831 -0.3667  0.1516
 4401TIP3    H134762   3.938   3.681   0.357 -0.3810 -0.4414  0.8066
 4401TIP3    H234763   3.858   3.565   0.412 -0.2171 -0.7319  0.4334
 4402TIP3   OH234764   2.391   0.561   0.471  0.1111  0.6696  0.2900
 4402TIP3    H134765   2.409   0.606   0.553 -1.0525 -0.6836  1.3407
 4402TIP3    H234766   2.386   0.631   0.406 -1.9349  2.1252  1.8887
 4403TIP3   OH234767   5.407   2.225   2.038  0.3774 -0.1568 -0.1087
 4403TIP3    H134768   5.432   2.300   1.985 -0.2511 -0.1079 -0.3457
 4403TIP3    H234769   5.335   2.184   1.989 -1.3470  0.8247  1.4904
 4404TIP3   OH234770   5.012   0.288   1.580 -0.5804 -0.0308 -0.3100
 4404TIP3    H134771   5.044   0.215   1.634 -2.2296 -0.6760 -0.1244
 4404TIP3    H234772   5.033   0.262   1.490  1.4911  0.6881 -0.0746
 4405TIP3   OH234773   0.349   5.894   7.215 -0.5856 -0.2717 -0.4928
 4405TIP3    H134774   0.347   5.944   7.133 -0.3243 -1.6257 -1.3638
 4405TIP3    H234775   0.272   5.838   7.210  0.3256 -1.5618 -0.6310
 4406TIP3   OH234776   4.806   4.714   1.986 -0.2442  0.0290  0.1284
 4406TIP3    H134777   4.748   4.760   1.926  3.2572  3.7081 -0.8591
 4406TIP3    H234778   4.885   4.698   1.935  1.6714  0.3491  2.8137
 4407TIP3   OH234779   6.002   1.391   2.086  0.6022  0.2304 -0.0249
 4407TIP3    H134780   5.964   1.472   2.051 -0.7683 -0.2474  0.2924
 4407TIP3    H234781   6.027   1.341   2.008  0.2622  0.4153 -0.2603
 4408TIP3   OH234782   1.276   3.725   0.495 -0.7016 -0.0787 -0.1517
 4408TIP3    H134783   1.358   3.702   0.451  0.0825 -0.9786  1.6922
 4408TIP3    H234784   1.276   3.821   0.497 -0.1966 -0.0486 -1.0507
 4409TIP3   OH234785   2.794   3.938   1.894 -0.3550  0.0695  0.3488
 4409TIP3    H134786   2.721   3.919   1.835  0.1988 -2.2573  0.2910
 4409TIP3    H234787   2.871   3.904   1.848  0.6837  1.8308  0.7216
 4410TIP3   OH234788   6.440   5.693   0.102 -0.2800  0.5481  0.5291
 4410TIP3    H134789   6.517   5.675   0.048 -0.8451 -1.9221  0.4091
 4410TIP3    H234790   6.446   5.630   0.174 -3.5300 -1.7773 -0.9902
 4411TIP3   OH234791   2.109   2.064   1.100 -0.1229 -0.1114 -0.5927
 4411TIP3    H134792   2.037   2.008   1.070 -0.8988  0.7598 -0.3907
 4411TIP3    H234793   2.066   2.134   1.149  0.7736  1.0399 -1.4038
 4412TIP3   OH234794   1.647   5.575   2.115 -0.4955  0.0698  0.0055
 4412TIP3    H134795   1.735   5.613   2.106 -0.8088  0.7099 -0.4167
 4412TIP3    H234796   1.617   5.605   2.201 -0.2111 -0.3400  0.2486
 4413TIP3   OH234797   5.174   4.926   1.365  0.3422  0.5057  0.3318
 4413TIP3    H134798   5.147   5.001   1.311 -0.4134  1.5082  2.0082
 4413TIP3    H234799   5.094   4.873   1.372 -0.4074  1.7878  2.6076
 4414TIP3   OH234800   2.986   3.611   8.022 -0.0470  0.3594  0.0268
 4414TIP3    H134801   2.913   3.615   8.083  0.5805 -0.3814  0.8547
 4414TIP3    H234802   2.962   3.672   7.952 -0.3139  2.0610  1.5239
 4415TIP3   OH234803   5.933   2.733   1.839  0.0890 -0.0804 -0.5522
 4415TIP3    H134804   5.852   2.681   1.847  0.5001 -0.7460 -0.6576
 4415TIP3    H234805   5.903   2.818   1.806 -0.5080 -0.5082 -1.1601
 4416TIP3   OH234806   0.737   0.015   1.326  0.4845 -0.0727  0.0139
 4416TIP3    H134807   0.794   0.080   1.368 -1.7617  2.1580 -0.1080
 4416TIP3    H234808   0.726   0.048   1.236 -2.4173  0.7249  0.5597
 4417TIP3   OH234809   4.086   2.558   3.476  0.1103  0.4491 -0.1214
 4417TIP3    H134810   4.021   2.491   3.456 -0.7108  0.6122  1.7393
 4417TIP3    H234811   4.170   2.515   3.463 -0.3997 -0.6734  0.2088
 4418TIP3   OH234812   0.681   1.837   2.074 -0.7552  0.5046 -0.1051
 4418TIP3    H134813   0.647   1.763   2.123 -1.4037  1.0077  0.2139
 4418TIP3    H234814   0.710   1.800   1.991 -1.8804  0.0186 -0.2990
 4419TIP3   OH234815   4.613   0.867   8.398  0.5285  0.1084  0.2912
 4419TIP3    H134816   4.536   0.851   8.344  1.3821 -1.4447 -0.5250
 4419TIP3    H234817   4.681   0.894   8.336  1.8069 -2.6478  0.3405
 4420TIP3   OH234818   3.494   1.841   8.756 -0.2121  0.2258  0.0871
 4420TIP3    H134819   3.553   1.917   8.758  2.0652 -1.3445 -1.9431
 4420TIP3    H234820   3.538   1.776   8.810 -0.7088 -0.5695 -0.4506
 4421TIP3   OH234821   1.107   2.906   1.201  0.0245  0.9261 -0.2872
 4421TIP3    H134822   1.064   2.867   1.125  1.3996  0.8735 -1.0703
 4421TIP3    H234823   1.038   2.958   1.243 -1.1890 -0.3502 -0.6248
 4422TIP3   OH234824   4.768   4.457   8.409  0.1344 -0.2306 -0.3682
 4422TIP3    H134825   4.752   4.363   8.417  3.8876 -0.9813 -0.0699
 4422TIP3    H234826   4.719   4.496   8.482 -0.1731 -2.1270  0.4952
 4423TIP3   OH234827   3.304   4.178   0.199 -0.1023  0.0597 -0.6092
 4423TIP3    H134828   3.336   4.170   0.289 -1.4050  0.2732 -0.1115
 4423TIP3    H234829   3.305   4.088   0.165  0.6763  0.0186 -0.4914
 4424TIP3   OH234830   4.661   4.809   8.323 -0.2623 -0.5116  0.2644
 4424TIP3    H134831   4.708   4.855   8.393 -1.7670 -0.3008  1.1861
 4424TIP3    H234832   4.710   4.729   8.309  1.6570  0.7239 -0.4315
 4425TIP3   OH234833   0.600   6.499   3.757  0.4147 -0.4610 -0.1086
 4425TIP3    H134834   0.676   6.543   3.718  0.5011 -1.3948 -1.0262
 4425TIP3    H234835   0.636   6.421   3.799 -0.0218 -0.8734 -0.4883
 4426TIP3   OH234836   4.991   2.631   2.738 -0.3018 -0.3315 -0.1926
 4426TIP3    H134837   5.080   2.659   2.758 -0.1902 -0.7308 -0.1184
 4426TIP3    H234838   4.990   2.537   2.759 -0.6401 -0.4047 -0.5283
 4427TIP3   OH234839   1.685   0.833   2.968 -0.0411 -0.0712  0.5401
 4427TIP3    H134840   1.715   0.887   2.895  1.4662 -0.8415  0.5673
 4427TIP3    H234841   1.750   0.845   3.036 -0.7547 -0.3681  1.2932
 4428TIP3   OH234842   1.350   3.607   0.142  0.0275  0.0490 -0.0702
 4428TIP3    H134843   1.419   3.653   0.188 -1.2478  0.3650  1.6193
 4428TIP3    H234844   1.386   3.520   0.125  1.2377  0.5713 -0.2755
 4429TIP3   OH234845   5.335   4.899   2.036  0.4944  0.3790 -0.8227
 4429TIP3    H134846   5.243   4.910   2.060  0.4295 -0.5343 -0.6242
 4429TIP3    H234847   5.337   4.918   1.942  0.4152  2.0952 -0.5056
 4430TIP3   OH234848   2.321   2.091   2.045 -0.5637  0.1368 -0.1822
 4430TIP3    H134849   2.307   2.011   1.994  0.2655 -0.1935  0.0986
 4430TIP3    H234850   2.402   2.076   2.093 -0.8677  0.7942  0.5710
 4431TIP3   OH234851   3.726   5.652   0.989  0.0541  0.2712  0.0156
 4431TIP3    H134852   3.814   5.643   0.953  0.6934  4.4566  0.0446
 4431TIP3    H234853   3.726   5.597   1.068  2.3560 -0.3747 -0.3660
 4432TIP3   OH234854   3.954   5.498   8.039 -0.3601  0.1776  0.5490
 4432TIP3    H134855   4.005   5.418   8.032  0.9366  0.7188  2.9968
 4432TIP3    H234856   3.972   5.545   7.958  0.6930 -0.9502  0.1068
 4433TIP3   OH234857   4.120   6.768   1.070 -0.0852  0.2406  0.0307
 4433TIP3    H134858   4.178   6.827   1.119 -1.2671  1.2481  0.2482
 4433TIP3    H234859   4.070   6.826   1.012 -0.5839 -0.6592 -0.4626
 4434TIP3   OH234860   0.874   6.091   2.198  0.2227 -0.2092 -0.4439
 4434TIP3    H134861   0.943   6.056   2.253 -0.1772 -1.2611 -0.5948
 4434TIP3    H234862   0.883   6.044   2.115 -0.0423  0.3700 -0.8122
 4435TIP3   OH234863   6.344   1.523   2.085  0.9097 -0.5883 -0.5345
 4435TIP3    H134864   6.297   1.490   2.009 -0.5566  1.4625 -0.5923
 4435TIP3    H234865   6.288   1.501   2.160 -1.1599  3.2525 -0.7438
 4436TIP3   OH234866   4.933   1.036   1.423  0.0826 -0.6893 -0.0527
 4436TIP3    H134867   5.017   0.999   1.451  0.1593  1.3268  2.8530
 4436TIP3    H234868   4.869   0.968   1.444  0.8551 -1.9667 -1.6372
 4437TIP3   OH234869   4.939   0.081   2.052 -0.0120  0.1902 -0.3399
 4437TIP3    H134870   4.910  -0.005   2.084 -3.6098  1.4002  0.1289
 4437TIP3    H234871   5.002   0.111   2.117  0.4044 -1.5541  0.1290
 4438TIP3   OH234872   0.060   0.766   8.506 -0.1841 -0.4430  0.5771
 4438TIP3    H134873   0.129   0.700   8.500  0.8633  0.6849 -0.1742
 4438TIP3    H234874   0.107   0.850   8.503 -1.5178  0.3444  1.0434
 4439TIP3   OH234875   5.773   5.244   0.715  0.3471 -0.3961 -0.1389
 4439TIP3    H134876   5.840   5.176   0.726  0.7187  0.0897  0.6262
 4439TIP3    H234877   5.815   5.324   0.745  0.1516  0.3166 -1.6789
 4440TIP3   OH234878   5.587   2.469   2.096  0.0541  0.3540  0.1326
 4440TIP3    H134879   5.568   2.469   2.002 -1.1237 -0.2223  0.3535
 4440TIP3    H234880   5.501   2.474   2.138  0.3894 -1.5458  1.1704
 4441TIP3   OH234881   2.440   3.253   0.129  1.0386  0.4034  0.2923
 4441TIP3    H134882   2.355   3.226   0.164  1.5143 -0.4317  0.8623
 4441TIP3    H234883   2.420   3.300   0.049 -0.0140  1.1693  0.9888
 4442TIP3   OH234884   4.524   1.927   0.841  0.5153 -0.7481 -0.5135
 4442TIP3    H134885   4.472   1.952   0.918  2.2711  0.0660  0.4835
 4442TIP3    H234886   4.503   1.993   0.775  2.9955  1.9868  1.1525
 4443TIP3   OH234887   5.929   6.656   2.234 -0.0829  0.0716 -0.2504
 4443TIP3    H134888   5.896   6.746   2.233  0.7528  0.3941 -1.2087
 4443TIP3    H234889   6.024   6.666   2.242 -0.1245 -0.8171  2.1531
 4444TIP3   OH234890   5.002   6.672   8.094 -0.1208  0.2099 -0.3283
 4444TIP3    H134891   4.950   6.729   8.037  1.2449  0.2926 -1.5624
 4444TIP3    H234892   5.091   6.679   8.059  0.4002 -1.2850  0.6183
 4445TIP3   OH234893   5.826   4.029   8.039  0.6867  0.4822  0.6548
 4445TIP3    H134894   5.814   4.051   8.131 -1.4782 -0.8159  0.7614
 4445TIP3    H234895   5.839   3.935   8.038  0.3980  0.4376 -0.3695
 4446TIP3   OH234896   0.446   2.954   0.729 -0.0453 -0.0605  0.4920
 4446TIP3    H134897   0.520   2.900   0.757  0.4703  0.6021  0.4274
 4446TIP3    H234898   0.394   2.966   0.809 -0.3296 -0.8985  0.4398
 4447TIP3   OH234899   3.685   4.636   8.277  0.1363 -0.0817  0.1378
 4447TIP3    H134900   3.745   4.704   8.247 -0.4501  0.5023  0.2804
 4447TIP3    H234901   3.733   4.591   8.347 -0.3911  1.8143  1.8235
 4448TIP3   OH234902   0.804   4.021   8.702 -0.3550 -0.4373  0.3249
 4448TIP3    H134903   0.774   3.979   8.622  0.9446 -0.7037 -0.0359
 4448TIP3    H234904   0.899   4.011   8.701 -0.1986  0.7484  1.2350
 4449TIP3   OH234905   5.069   5.853   1.246  0.3031  0.2331  0.0044
 4449TIP3    H134906   5.163   5.870   1.235  0.2804 -0.7021 -2.1617
 4449TIP3    H234907   5.064   5.790   1.318  1.2697  0.6393  0.4508
 4450TIP3   OH234908   1.089   4.810   1.831  0.1117 -0.5638  0.3493
 4450TIP3    H134909   0.996   4.809   1.808  0.0481 -0.6165  0.6018
 4450TIP3    H234910   1.116   4.900   1.813  0.4117 -0.9592 -1.2502
 4451TIP3   OH234911   5.853   5.686   2.692 -0.4339 -0.6041  0.7069
 4451TIP3    H134912   5.762   5.656   2.695 -0.7436  0.3530  1.7859
 4451TIP3    H234913   5.901   5.621   2.744 -0.9170  0.1246  2.1166
 4452TIP3   OH234914   5.172   1.681   0.575 -0.1802  0.3967  0.3621
 4452TIP3    H134915   5.238   1.648   0.636 -0.5029 -0.0822  0.4589
 4452TIP3    H234916   5.167   1.775   0.593  2.2914  0.9503 -1.3756
 4453TIP3   OH234917   6.328   0.185   8.296  0.0168  0.6389 -0.9431
 4453TIP3    H134918   6.384   0.117   8.260  0.5050 -0.4149  1.6294
 4453TIP3    H234919   6.389   0.247   8.336 -0.5536  0.2678  0.5545
 4454TIP3   OH234920   0.310   4.267   8.571 -0.5701  0.2051 -0.1245
 4454TIP3    H134921   0.390   4.215   8.562  0.6810  1.9487  0.3424
 4454TIP3    H234922   0.258   4.246   8.494  0.5648 -0.5908 -0.6947
 4455TIP3   OH234923   0.356   1.431   8.025 -0.3680 -0.2010  0.3172
 4455TIP3    H134924   0.359   1.525   8.047  0.9554 -0.3870  1.0697
 4455TIP3    H234925   0.271   1.419   7.983 -0.7067  1.2735  0.5067
 4456TIP3   OH234926   2.042   1.336   1.876  0.0399 -0.4464 -0.0063
 4456TIP3    H134927   2.118   1.372   1.831 -0.1350 -0.1316 -0.0546
 4456TIP3    H234928   2.072   1.320   1.965 -0.7320  2.9817  1.0383
 4457TIP3   OH234929   3.821   2.334   2.733  0.0221  0.3710 -0.0693
 4457TIP3    H134930   3.840   2.250   2.691 -1.0313  0.5793 -1.0185
 4457TIP3    H234931   3.768   2.311   2.809  0.3731  0.1213  0.0991
 4458TIP3   OH234932   6.502   3.756   2.352  0.2653 -0.1242 -0.4674
 4458TIP3    H134933   6.575   3.694   2.342  0.2029 -0.7087  2.0029
 4458TIP3    H234934   6.448   3.718   2.422 -0.2176  2.2787  0.5699
 4459TIP3   OH234935   4.044   4.101   8.082 -0.8682 -0.0793  0.1161
 4459TIP3    H134936   4.001   4.182   8.054 -0.6629  0.0556  0.1926
 4459TIP3    H234937   4.051   4.049   8.002 -0.6117  0.1562 -0.0163
 4460TIP3   OH234938   4.019   5.907   8.051 -0.1352 -0.6910 -0.1737
 4460TIP3    H134939   4.040   5.860   7.970 -0.1632  0.7345 -1.0479
 4460TIP3    H234940   3.996   5.839   8.113  1.8430 -1.9744 -0.7507
 4461TIP3   OH234941   0.193   5.037   0.235  0.0454 -0.4175 -0.3287
 4461TIP3    H134942   0.121   4.988   0.274 -0.8679 -0.0402 -1.4892
 4461TIP3    H234943   0.159   5.068   0.151  0.9732  1.2281 -0.1506
 4462TIP3   OH234944   5.722   5.437   8.585  0.0102  0.2771 -0.0310
 4462TIP3    H134945   5.633   5.455   8.554 -0.3108 -1.1396  0.0038
 4462TIP3    H234946   5.755   5.523   8.611 -0.9836  0.9783 -0.9630
 4463TIP3   OH234947   5.901   5.380   8.793 -0.1176 -0.5219 -0.0368
 4463TIP3    H134948   5.866   5.409   8.877  0.0143 -1.5105  0.3711
 4463TIP3    H234949   5.829   5.394   8.731 -0.3085 -0.0414  0.2881
 4464TIP3   OH234950   5.452   5.235   1.762  0.4435  0.1478 -0.5143
 4464TIP3    H134951   5.426   5.327   1.770  2.5700  0.7123  0.5951
 4464TIP3    H234952   5.548   5.236   1.771  0.3466 -2.5183  3.5480
 4465TIP3   OH234953   0.099   4.806   2.678 -0.2768  0.3287 -1.0118
 4465TIP3    H134954   0.165   4.848   2.734 -1.1675  1.0066 -0.4477
 4465TIP3    H234955   0.148   4.740   2.628  0.6508  0.1631  0.0901
 4466TIP3   OH234956   6.613   2.076   0.160 -0.7296  0.1703 -0.1537
 4466TIP3    H134957   6.651   2.015   0.224 -2.7737 -1.0128  0.0046
 4466TIP3    H234958   6.589   2.021   0.086  2.9103  1.6826 -2.7816
 4467TIP3   OH234959   3.131   6.088   3.340  0.7766 -0.3765  0.2776
 4467TIP3    H134960   3.094   6.075   3.253  0.1916  2.7257 -0.0550
 4467TIP3    H234961   3.221   6.057   3.333  0.3501 -1.4133 -1.0015
 4468TIP3   OH234962   5.246   1.084   8.700 -0.8379  0.0170  0.3700
 4468TIP3    H134963   5.151   1.074   8.693 -0.6521 -0.8431 -1.3778
 4468TIP3    H234964   5.281   0.998   8.677  0.4450  1.1316 -2.2426
 4469TIP3   OH234965   0.432   2.549   8.153  0.4607 -0.2983  0.5402
 4469TIP3    H134966   0.482   2.467   8.159  1.9859  0.6830  2.1912
 4469TIP3    H234967   0.425   2.579   8.243 -2.0390  0.3060  0.2144
 4470TIP3   OH234968   6.041   3.849   1.377  0.5723 -0.2964  0.2908
 4470TIP3    H134969   6.059   3.783   1.309  1.2145 -1.7813  1.8255
 4470TIP3    H234970   5.947   3.842   1.393 -0.0249  1.6188 -1.9198
 4471TIP3   OH234971   6.798   3.811   1.630 -0.1425 -0.0386 -0.1374
 4471TIP3    H134972   6.893   3.802   1.636 -0.0960  0.5191  0.0442
 4471TIP3    H234973   6.775   3.777   1.544  0.2117 -0.2293 -0.1570
 4472TIP3   OH234974   6.337   4.713   8.222 -0.3849 -0.0720 -0.4218
 4472TIP3    H134975   6.243   4.700   8.238 -0.9928  1.7666 -2.1119
 4472TIP3    H234976   6.355   4.801   8.254  0.8422 -0.4872  0.0818
 4473TIP3   OH234977   4.242   0.091   1.839 -0.0996  0.3013  0.6988
 4473TIP3    H134978   4.159   0.120   1.878 -0.6643 -0.7295  0.3108
 4473TIP3    H234979   4.260   0.007   1.881  0.9379  0.6678  1.0190
 4474TIP3   OH234980   4.922   0.944   0.581 -0.1422  0.3948  0.4689
 4474TIP3    H134981   4.862   0.902   0.642  0.6739 -2.4133 -0.5376
 4474TIP3    H234982   4.895   0.913   0.494  1.1134  1.1726 -0.2373
 4475TIP3   OH234983   5.637   0.987   0.863  0.1097  0.4053  0.3608
 4475TIP3    H134984   5.593   1.063   0.826  0.6456  0.6034  0.1249
 4475TIP3    H234985   5.604   0.912   0.812  0.3845  0.6052 -0.1159
 4476TIP3   OH234986   2.885   2.957   8.854 -0.1134 -0.4369 -0.1384
 4476TIP3    H134987   2.932   2.967   8.936 -1.0904  1.0180  0.2811
 4476TIP3    H234988   2.795   2.937   8.880 -0.6584  0.9901 -0.7877
 4477TIP3   OH234989   3.198   0.977   1.554 -0.4481  0.4563 -0.1865
 4477TIP3    H134990   3.105   0.981   1.534 -0.2509  0.1273 -1.2832
 4477TIP3    H234991   3.238   0.943   1.473  0.6564  0.9296  0.1393
 4478TIP3   OH234992   2.847   5.032   1.874 -0.2396 -0.2780 -0.0507
 4478TIP3    H134993   2.855   4.942   1.906  0.9129  0.2303  1.2116
 4478TIP3    H234994   2.929   5.048   1.827 -0.2727  0.2056  0.0435
 4479TIP3   OH234995   5.790   1.175   0.340 -0.4914 -0.0095 -0.1480
 4479TIP3    H134996   5.765   1.240   0.405 -0.9320 -0.3399  0.0185
 4479TIP3    H234997   5.885   1.175   0.341 -0.4893 -0.4265  0.9176
 4480TIP3   OH234998   2.117   2.304   0.238 -0.2237  0.0646 -0.2615
 4480TIP3    H134999   2.125   2.380   0.296  0.5961 -1.3800  1.6214
 4480TIP3    H235000   2.176   2.322   0.166 -0.4875  1.4682 -0.1547
 4481TIP3   OH235001   5.428   2.065   2.559  0.0954 -0.0793 -0.0919
 4481TIP3    H135002   5.398   2.136   2.502  0.6074 -0.0209 -0.2925
 4481TIP3    H235003   5.402   1.985   2.514 -2.0080 -0.0358  0.9448
 4482TIP3   OH235004   2.158   1.944   2.735 -0.2711  0.3772 -0.0138
 4482TIP3    H135005   2.251   1.967   2.727 -0.6871  2.2339 -0.1023
 4482TIP3    H235006   2.129   1.989   2.814 -0.8049 -1.3685  0.8285
 4483TIP3   OH235007   3.600   6.542   8.128  0.2056 -0.4825 -0.4479
 4483TIP3    H135008   3.615   6.448   8.143 -0.5475 -0.3690  1.2418
 4483TIP3    H235009   3.687   6.577   8.109  0.6907 -1.3412  0.0913
 4484TIP3   OH235010   5.855   1.955   8.597 -0.8331  0.1906  0.4425
 4484TIP3    H135011   5.827   1.863   8.590  0.1751 -0.0291 -1.0026
 4484TIP3    H235012   5.777   2.005   8.571 -0.2590 -0.3978 -2.8420
 4485TIP3   OH235013   3.098   6.752   0.555 -0.0345  0.7449  0.0334
 4485TIP3    H135014   3.052   6.819   0.606 -3.0967 -0.4409 -0.9327
 4485TIP3    H235015   3.145   6.802   0.489  0.5854  2.0786  1.4090
 4486TIP3   OH235016   3.102   3.450   8.562 -0.1301 -0.0256  0.2023
 4486TIP3    H135017   3.119   3.426   8.653 -1.4614  2.2835  1.1655
 4486TIP3    H235018   3.023   3.504   8.566 -2.9475 -3.3516 -2.8858
 4487TIP3   OH235019   6.352   2.349   8.173 -0.5767 -0.5387 -0.0660
 4487TIP3    H135020   6.440   2.377   8.198 -0.0462 -3.9055  2.6483
 4487TIP3    H235021   6.365   2.306   8.088  0.1296  0.0459 -0.2742
 4488TIP3   OH235022   0.083   4.365   6.996 -0.3498  0.8963  0.1418
 4488TIP3    H135023   0.129   4.431   6.944 -0.3230  0.4273 -0.4401
 4488TIP3    H235024   0.133   4.360   7.078  0.7862  0.2404 -0.5575
 4489TIP3   OH235025   5.329   1.463   8.056 -0.4097 -0.2402 -0.2327
 4489TIP3    H135026   5.361   1.509   8.135  0.7048  1.1012 -1.4045
 4489TIP3    H235027   5.241   1.496   8.043 -0.2129  0.3333 -0.1339
 4490TIP3   OH235028   1.299   0.146   2.344  0.2065 -0.0959  0.1941
 4490TIP3    H135029   1.337   0.195   2.417  0.8943 -1.6344  0.9091
 4490TIP3    H235030   1.361   0.075   2.328 -1.1558 -1.2185 -0.2635
 4491TIP3   OH235031   2.296   1.909   0.481 -0.0081 -0.4849  0.2114
 4491TIP3    H135032   2.212   1.875   0.514  0.5076 -0.8977  1.1149
 4491TIP3    H235033   2.339   1.833   0.443 -0.4983 -0.0609 -1.2913
 4492TIP3   OH235034   3.535   4.577   1.328 -0.1073  0.6956  0.3670
 4492TIP3    H135035   3.539   4.518   1.252 -3.2106 -2.5725  2.4340
 4492TIP3    H235036   3.580   4.529   1.397  0.4692  2.4797  1.2782
 4493TIP3   OH235037   1.012   0.838   2.378 -0.4643 -0.2367  0.3295
 4493TIP3    H135038   0.943   0.891   2.419 -0.2922  0.3849 -0.1683
 4493TIP3    H235039   0.964   0.765   2.338 -1.0725  1.0228 -1.3993
 4494TIP3   OH235040   4.762   5.752   2.029 -0.2760 -0.1897 -0.1084
 4494TIP3    H135041   4.716   5.669   2.020 -1.1502  0.0446  1.7193
 4494TIP3    H235042   4.697   5.819   2.006 -0.2103  0.0606  0.4184
 4495TIP3   OH235043   0.631   6.567   1.182  0.4829  0.7495 -0.2069
 4495TIP3    H135044   0.683   6.615   1.117 -1.8729  0.7088 -2.2990
 4495TIP3    H235045   0.573   6.512   1.129 -1.0802  0.1664  1.9940
 4496TIP3   OH235046   3.739   0.714   3.585 -0.4149  0.2511 -0.4972
 4496TIP3    H135047   3.688   0.675   3.656  0.3781  0.2520  0.0945
 4496TIP3    H235048   3.768   0.640   3.533  0.9807  0.0101  0.5527
 4497TIP3   OH235049   5.503   1.662   0.178 -0.4241 -0.4292 -0.4773
 4497TIP3    H135050   5.474   1.729   0.240  0.2010  0.0976 -0.7486
 4497TIP3    H235051   5.564   1.607   0.228 -1.0670 -0.9167 -0.2051
 4498TIP3   OH235052   2.417   3.219   1.826 -0.2347 -0.2721  0.3348
 4498TIP3    H135053   2.473   3.297   1.819 -0.3199 -0.2811 -0.4962
 4498TIP3    H235054   2.450   3.173   1.904  0.8600 -0.2330 -0.0868
 4499TIP3   OH235055   6.497   4.632   0.978 -0.2358  0.3485  0.2871
 4499TIP3    H135056   6.450   4.558   1.015 -0.4799  0.2109 -0.3051
 4499TIP3    H235057   6.460   4.708   1.023  0.3993  0.0875  1.3028
 4500TIP3   OH235058   0.098   6.255   0.290  0.2641  0.1135 -0.2607
 4500TIP3    H135059   0.121   6.333   0.239  0.5045  0.3058  0.1405
 4500TIP3    H235060   0.169   6.247   0.354 -0.8308  0.7727  1.0841
 4501TIP3   OH235061   1.798   5.895   1.483 -0.5420  0.2273 -0.5230
 4501TIP3    H135062   1.834   5.817   1.441  0.2280 -0.2399  0.9206
 4501TIP3    H235063   1.704   5.891   1.464 -0.3698 -0.4936 -1.3132
 4502TIP3   OH235064   3.499   0.243   0.059 -0.1109  0.0506 -0.1402
 4502TIP3    H135065   3.417   0.279   0.095  1.0275  2.7786 -0.0719
 4502TIP3    H235066   3.557   0.238   0.135  0.8196  1.3662 -0.7390
 4503TIP3   OH235067   5.380   1.698   3.051 -0.2743  0.0868 -0.5806
 4503TIP3    H135068   5.437   1.716   2.976  0.5163 -1.2324 -0.3195
 4503TIP3    H235069   5.342   1.612   3.033 -1.9224  0.7690 -0.5621
 4504TIP3   OH235070   1.877   6.781   2.113 -0.4657 -0.2663  0.0432
 4504TIP3    H135071   1.817   6.708   2.095 -0.4215 -0.7035  1.5295
 4504TIP3    H235072   1.827   6.859   2.089 -0.9191 -0.7170 -0.5362
 4505TIP3   OH235073   0.583   6.334   1.686  0.4719  0.3408  0.1670
 4505TIP3    H135074   0.528   6.265   1.723 -1.2980  1.3458 -0.4712
 4505TIP3    H235075   0.634   6.365   1.761 -1.3945  0.8038  1.3372
 4506TIP3   OH235076   4.008   1.735   8.199 -0.0300 -0.0905 -0.3426
 4506TIP3    H135077   3.936   1.674   8.179 -0.3960 -0.1635  1.1094
 4506TIP3    H235078   3.974   1.821   8.174 -0.3850 -0.2013 -0.2467
 4507TIP3   OH235079   5.207   3.677   0.148 -0.1874  0.1609  0.2694
 4507TIP3    H135080   5.230   3.709   0.061 -0.8837  3.3191  1.1372
 4507TIP3    H235081   5.289   3.642   0.183  0.2521 -0.5018 -1.3589
 4508TIP3   OH235082   4.501   1.091   0.364 -0.4792 -0.2341  0.0819
 4508TIP3    H135083   4.540   1.178   0.371  3.3764 -1.7915  0.6214
 4508TIP3    H235084   4.491   1.077   0.270 -1.1505  0.7664 -0.0071
 4509TIP3   OH235085   1.360   2.625   8.626 -0.2802 -0.3682 -0.2703
 4509TIP3    H135086   1.369   2.541   8.670 -1.5643 -1.0764 -1.2923
 4509TIP3    H235087   1.388   2.609   8.536  1.1367  0.7563 -0.0587
 4510TIP3   OH235088   4.800   2.256   2.175 -0.6403  0.1809 -0.1430
 4510TIP3    H135089   4.717   2.218   2.204 -0.2959  0.1708  0.8739
 4510TIP3    H235090   4.777   2.343   2.143 -1.1759 -0.1946 -0.8076
 4511TIP3   OH235091   3.978   2.476   1.358 -0.1623  0.3909 -0.4764
 4511TIP3    H135092   3.909   2.420   1.323 -0.3565  0.2243  0.1707
 4511TIP3    H235093   3.951   2.565   1.336 -0.4612  0.3109 -0.4288
 4512TIP3   OH235094   3.423   2.499   1.352  0.3292  0.9164 -0.0675
 4512TIP3    H135095   3.476   2.530   1.278  1.3726  0.9169  0.6597
 4512TIP3    H235096   3.334   2.525   1.329  0.7219  1.4929 -1.0287
 4513TIP3   OH235097   2.195   0.266   8.435 -0.0109 -0.3016 -0.2859
 4513TIP3    H135098   2.244   0.211   8.374  0.1360 -0.2760 -0.1920
 4513TIP3    H235099   2.199   0.220   8.518  1.6258  0.6944  0.2334
 4514TIP3   OH235100   3.694   2.960   7.750 -0.2779 -0.1221 -0.1477
 4514TIP3    H135101   3.725   3.037   7.797 -0.7905  0.8603 -1.3688
 4514TIP3    H235102   3.748   2.956   7.671  0.4300 -1.6234  0.3724
 4515TIP3   OH235103   0.386   0.847   1.124  0.0516  0.1780 -1.2434
 4515TIP3    H135104   0.468   0.850   1.075  0.3983  1.5351 -0.6435
 4515TIP3    H235105   0.350   0.760   1.107  1.4835 -0.3444 -1.7346
 4516TIP3   OH235106   5.342   4.985   1.773 -1.1187 -0.2885 -0.0655
 4516TIP3    H135107   5.401   5.058   1.755  1.0602 -1.6005  1.2935
 4516TIP3    H235108   5.328   4.944   1.688 -0.4342  0.3192 -0.4845
 4517TIP3   OH235109   4.472   2.950   7.592 -0.1921 -0.3929 -0.2576
 4517TIP3    H135110   4.444   3.041   7.580 -2.1139 -0.8373  0.5294
 4517TIP3    H235111   4.472   2.913   7.504 -0.0313  0.1940 -0.5081
 4518TIP3   OH235112   6.363   0.683   0.336 -0.2864 -0.1219  0.4353
 4518TIP3    H135113   6.440   0.724   0.297 -0.2874 -0.3296  0.2172
 4518TIP3    H235114   6.322   0.635   0.265 -0.3821 -0.3634  0.6506
 4519TIP3   OH235115   4.454   5.357   1.303 -0.4545  0.4850  0.5730
 4519TIP3    H135116   4.362   5.330   1.302 -0.4241  0.2729  2.2394
 4519TIP3    H235117   4.478   5.360   1.395  1.6396 -0.8229  0.1261
 4520TIP3   OH235118   2.217   0.408   0.731 -0.2152  0.1068 -0.8400
 4520TIP3    H135119   2.241   0.319   0.756  0.7150  0.9250  1.4568
 4520TIP3    H235120   2.121   0.411   0.741 -0.2034 -0.5279 -0.5261
 4521TIP3   OH235121   0.697   1.463   0.498  0.1273  0.3230 -0.1680
 4521TIP3    H135122   0.647   1.545   0.494 -0.2056  0.1037 -0.5638
 4521TIP3    H235123   0.706   1.436   0.407 -2.0721 -1.4709  0.0556
 4522TIP3   OH235124   5.127   1.886   0.991  0.4160  0.9319  0.0072
 4522TIP3    H135125   5.120   1.896   1.086 -0.0257 -1.2039  0.2547
 4522TIP3    H235126   5.071   1.955   0.955  1.3548  2.4007  1.2254
 4523TIP3   OH235127   0.034   2.199   1.888  0.5773 -0.1194 -0.1165
 4523TIP3    H135128   0.029   2.104   1.898  1.2414 -0.0004  1.7648
 4523TIP3    H235129   0.045   2.212   1.794 -0.2707 -1.8494 -0.5021
 4524TIP3   OH235130   4.853   6.505   8.304  0.9312  0.0740 -0.1098
 4524TIP3    H135131   4.905   6.519   8.225 -0.7114 -0.9036 -1.4174
 4524TIP3    H235132   4.911   6.455   8.362  2.2606  1.0712 -0.5381
 4525TIP3   OH235133   6.315   1.977   0.543  0.2448  0.2850  0.1297
 4525TIP3    H135134   6.318   1.949   0.451  1.0126  2.7365 -0.6535
 4525TIP3    H235135   6.229   2.016   0.554  0.6946  1.3527 -0.0121
 4526TIP3   OH235136   1.516   2.729   1.497  0.7328 -0.2836  1.0867
 4526TIP3    H135137   1.497   2.638   1.472 -1.3460  0.5926 -0.8631
 4526TIP3    H235138   1.448   2.751   1.561 -0.9152  0.8469 -0.9491
 4527TIP3   OH235139   4.189   0.311   0.236  0.2196  0.6793 -0.0716
 4527TIP3    H135140   4.136   0.342   0.163  0.4137 -0.8225 -0.8836
 4527TIP3    H235141   4.278   0.304   0.201  0.7720  2.0192  0.9455
 4528TIP3   OH235142   2.121   5.978   1.478  0.5694 -0.0994  0.0523
 4528TIP3    H135143   2.064   6.055   1.482 -0.7244 -1.0378  0.7820
 4528TIP3    H235144   2.199   6.003   1.528 -0.6608  0.1191  1.9991
 4529TIP3   OH235145   0.007   4.801   8.571  0.4081  0.3161  0.0724
 4529TIP3    H135146  -0.021   4.890   8.547 -1.5592 -0.6083 -1.2879
 4529TIP3    H235147   0.023   4.806   8.665  2.2310  2.5433 -0.2509
 4530TIP3   OH235148   3.345   1.632   8.007  0.4234 -0.1256  0.1419
 4530TIP3    H135149   3.281   1.695   7.974 -0.6807  0.0106  2.3424
 4530TIP3    H235150   3.423   1.684   8.023  0.2591  0.2344 -0.2091
 4531TIP3   OH235151   3.419   5.057   1.148 -0.5848 -0.5039  0.1734
 4531TIP3    H135152   3.384   5.011   1.071 -2.6766 -1.9185  1.8336
 4531TIP3    H235153   3.442   5.144   1.115 -3.4815 -0.2730 -1.6815
 4532TIP3   OH235154   1.062   0.993   8.003 -0.0109 -0.4503  0.0285
 4532TIP3    H135155   1.051   1.029   7.915  1.1290 -1.0926 -0.3922
 4532TIP3    H235156   1.149   0.954   8.003 -0.0774 -0.6662  1.3796
 4533TIP3   OH235157   6.756   6.294   8.867 -0.2788 -0.0716 -0.6406
 4533TIP3    H135158   6.762   6.237   8.944  2.1752 -0.0178 -0.7036
 4533TIP3    H235159   6.785   6.240   8.794 -1.1402  0.3158 -1.2878
 4534TIP3   OH235160   2.100   6.647   0.419 -0.3946  0.1411  0.3230
 4534TIP3    H135161   2.046   6.707   0.470 -0.5216  0.6541 -0.3987
 4534TIP3    H235162   2.171   6.621   0.478 -0.5011  0.7830  0.7297
 4535TIP3   OH235163   3.775   3.111   1.465 -0.1956  0.3695 -0.2514
 4535TIP3    H135164   3.760   3.028   1.420  2.2910 -0.1756 -0.1823
 4535TIP3    H235165   3.720   3.174   1.418 -1.5006 -1.1320 -0.8092
 4536TIP3   OH235166   1.894   6.557   8.335  0.0111 -0.2506  0.5550
 4536TIP3    H135167   1.984   6.545   8.306  0.4365 -0.2116  1.7900
 4536TIP3    H235168   1.861   6.469   8.352 -0.1588 -0.2609  0.1731
 4537TIP3   OH235169   1.465   0.623   0.836  0.3084 -0.1216  0.7923
 4537TIP3    H135170   1.475   0.552   0.901 -0.1255  0.0384  1.0380
 4537TIP3    H235171   1.474   0.579   0.752 -0.3147 -0.5361  0.9329
 4538TIP3   OH235172   4.246   5.072   8.843 -0.5602 -0.0943 -0.4633
 4538TIP3    H135173   4.258   5.017   8.920  1.1462  0.1944 -0.4853
 4538TIP3    H235174   4.238   5.161   8.879 -0.9345 -0.0859 -0.5632
 4539TIP3   OH235175   6.115   1.029   1.044 -0.0064  0.1152 -0.3524
 4539TIP3    H135176   6.054   1.061   0.977 -0.2611 -1.8551 -1.1177
 4539TIP3    H235177   6.058   0.992   1.112  0.2992 -0.5920 -0.4732
 4540TIP3   OH235178   6.797   1.648   3.029  0.0748  0.1837 -0.2508
 4540TIP3    H135179   6.811   1.706   3.103 -0.2010 -0.5800  0.4189
 4540TIP3    H235180   6.833   1.564   3.057 -1.7986 -0.6566 -0.1657
 4541TIP3   OH235181   5.021   1.266   7.161 -0.2526 -0.2011  0.1633
 4541TIP3    H135182   5.074   1.341   7.187 -0.0144 -0.1711 -0.3970
 4541TIP3    H235183   5.016   1.212   7.240  0.2061  0.0327  0.3586
 4542TIP3   OH235184   1.335   4.992   1.958 -0.3987  0.1831 -0.0709
 4542TIP3    H135185   1.337   4.987   2.053 -0.8274  0.8003 -0.0240
 4542TIP3    H235186   1.412   4.943   1.930 -0.8877 -0.9742  0.5424
 4543TIP3   OH235187   3.576   6.077   2.731 -0.5213  0.5289  0.0627
 4543TIP3    H135188   3.534   6.109   2.651 -0.8962  0.9590  0.4262
 4543TIP3    H235189   3.522   6.002   2.758 -1.0693  1.0819  0.5301
 4544TIP3   OH235190   0.743   2.594   2.371 -0.2273 -0.1629  0.0539
 4544TIP3    H135191   0.823   2.559   2.410 -0.2302  1.7390  1.9292
 4544TIP3    H235192   0.678   2.590   2.442 -1.7468 -1.3702 -1.3309
 4545TIP3   OH235193   5.942   4.583   0.340 -0.6280 -0.2405 -0.4827
 4545TIP3    H135194   5.979   4.547   0.259 -1.2974 -0.4532 -0.7003
 4545TIP3    H235195   5.884   4.514   0.372 -0.5440 -0.0632  0.0569
 4546TIP3   OH235196   5.674   2.232   1.325 -0.0123 -0.4162  0.2190
 4546TIP3    H135197   5.634   2.319   1.326  0.2774 -0.2519 -1.2146
 4546TIP3    H235198   5.760   2.244   1.364  1.3182  0.6433 -2.7978
 4547TIP3   OH235199   3.394   2.589   0.214 -0.4346  0.7650 -0.5164
 4547TIP3    H135200   3.410   2.674   0.253 -1.1589  0.4175  0.5770
 4547TIP3    H235201   3.370   2.608   0.123 -2.1368  1.8734  0.1148
 4548TIP3   OH235202   3.233   0.777   1.353 -0.0327  1.1675  0.4982
 4548TIP3    H135203   3.158   0.835   1.336 -1.2784 -0.1717  1.1942
 4548TIP3    H235204   3.194   0.697   1.388  1.6747  0.0324 -0.0823
 4549TIP3   OH235205   2.471   1.525   1.104  0.0829 -0.7423  0.0372
 4549TIP3    H135206   2.392   1.515   1.051  0.2643 -3.3657  0.1303
 4549TIP3    H235207   2.440   1.523   1.194  0.0295  1.2546  0.1210
 4550TIP3   OH235208   3.355   5.671   0.148  0.1202  0.3733  0.0257
 4550TIP3    H135209   3.324   5.756   0.118  0.3919  0.8824  1.1237
 4550TIP3    H235210   3.407   5.691   0.226  2.8538 -0.4941 -1.4743
 4551TIP3   OH235211   4.950   4.218   1.345 -0.0894  0.6429 -0.7093
 4551TIP3    H135212   4.921   4.135   1.383  1.7886  0.2670  0.0565
 4551TIP3    H235213   4.901   4.285   1.393  2.1260  0.1823  2.5570
 4552TIP3   OH235214   3.224   6.540   1.099 -0.4322 -0.5468 -0.1581
 4552TIP3    H135215   3.181   6.609   1.049 -1.9923 -1.6999 -0.4743
 4552TIP3    H235216   3.313   6.538   1.065 -0.4303  1.1245 -0.3100
 4553TIP3   OH235217   3.420   6.077   8.013 -0.1626  0.3251  0.6408
 4553TIP3    H135218   3.466   6.129   7.947 -0.7506  0.1733  0.1060
 4553TIP3    H235219   3.412   5.990   7.974  0.0836  0.0495  1.1939
 4554TIP3   OH235220   2.606   1.199   2.773  0.0513  0.0529  0.5372
 4554TIP3    H135221   2.559   1.282   2.769 -1.4574 -0.7648  0.4856
 4554TIP3    H235222   2.681   1.216   2.830  1.4754  2.2377 -1.7859
 4555TIP3   OH235223   0.460   5.632   2.173 -0.1359  0.8257  0.6109
 4555TIP3    H135224   0.417   5.622   2.089  0.6185  0.5036  0.2497
 4555TIP3    H235225   0.512   5.712   2.165  0.0705  0.7030  0.7087
 4556TIP3   OH235226   1.899   2.305   2.452  0.4688  0.7265  0.6756
 4556TIP3    H135227   1.968   2.254   2.408 -0.8541  0.2113 -0.9117
 4556TIP3    H235228   1.911   2.286   2.545  0.7269 -1.6429  0.2298
 4557TIP3   OH235229   0.089   3.826   8.754  0.2582 -0.3269  0.3290
 4557TIP3    H135230   0.151   3.831   8.681 -2.7604 -0.5187 -2.4959
 4557TIP3    H235231   0.108   3.903   8.807  1.9197  0.4079 -1.2235
 4558TIP3   OH235232   1.338   6.582   1.199 -0.2380 -0.7154 -0.0666
 4558TIP3    H135233   1.265   6.611   1.143  1.1051  1.1389 -0.9715
 4558TIP3    H235234   1.395   6.659   1.205  1.4811 -2.0002  0.8952
 4559TIP3   OH235235   0.717   0.996   1.678 -0.5689  0.1034 -0.1425
 4559TIP3    H135236   0.630   1.017   1.713 -0.4595  1.1268 -0.4308
 4559TIP3    H235237   0.722   1.046   1.596 -0.4976 -1.5849 -1.2143
 4560TIP3   OH235238   5.780   3.922   8.881 -0.8029  0.0104  0.2625
 4560TIP3    H135239   5.723   3.999   8.873  1.6318  1.9124  0.2054
 4560TIP3    H235240   5.866   3.958   8.903  0.7120 -2.6355 -0.9419
 4561TIP3   OH235241   2.448   6.214   0.197 -0.0068  0.1942 -0.8070
 4561TIP3    H135242   2.370   6.164   0.174 -1.2443  1.7192 -0.1274
 4561TIP3    H235243   2.470   6.184   0.285  1.4053 -1.6466 -1.7259
 4562TIP3   OH235244   0.390   4.712   0.635  0.3318  0.1050  0.2691
 4562TIP3    H135245   0.324   4.775   0.605  1.6802  0.5143 -2.0698
 4562TIP3    H235246   0.414   4.743   0.723 -1.8670  0.4715  0.8019
 4563TIP3   OH235247   4.812   1.369   1.946 -0.0886 -0.7392  0.1737
 4563TIP3    H135248   4.842   1.458   1.927  0.2187 -0.9915 -0.5442
 4563TIP3    H235249   4.726   1.363   1.904  0.0004 -0.8604  0.0086
 4564TIP3   OH235250   3.540   6.406   8.435  0.7183  0.6056  0.2973
 4564TIP3    H135251   3.570   6.321   8.401  0.9707  0.7821  0.0826
 4564TIP3    H235252   3.445   6.403   8.425  0.6524  0.0672  0.9286
 4565TIP3   OH235253   6.092   6.550   0.468 -0.4419 -0.2626 -0.3580
 4565TIP3    H135254   6.100   6.637   0.507  0.8394 -0.1026 -0.9317
 4565TIP3    H235255   6.179   6.531   0.435 -0.7249 -1.7519 -0.2882
 4566TIP3   OH235256   3.694   2.671   8.098 -0.2776  0.0919  0.2846
 4566TIP3    H135257   3.789   2.669   8.087 -0.2992 -2.2550 -0.0669
 4566TIP3    H235258   3.677   2.607   8.167 -1.6167  0.3269  0.1975
 4567TIP3   OH235259   1.842   3.990   1.023  0.6457 -0.0019  0.5981
 4567TIP3    H135260   1.927   4.033   1.018  0.5427  0.0969 -1.0873
 4567TIP3    H235261   1.861   3.897   1.008  0.4351  0.0862 -0.2997
 4568TIP3   OH235262   4.827   4.452   0.768 -0.1778 -0.4536 -0.3907
 4568TIP3    H135263   4.807   4.402   0.689 -0.5199 -1.1554  0.1324
 4568TIP3    H235264   4.801   4.395   0.840  1.6537 -0.5107  0.2776
 4569TIP3   OH235265   1.363   3.525   2.736 -0.4428  0.0345 -0.0160
 4569TIP3    H135266   1.411   3.523   2.819 -1.0998  0.5807  0.3945
 4569TIP3    H235267   1.430   3.513   2.669  0.1557 -0.0088  0.5766
 4570TIP3   OH235268   3.012   3.778   8.823  0.3604  0.1253  0.9691
 4570TIP3    H135269   3.104   3.752   8.833  1.0027  1.0258 -1.6527
 4570TIP3    H235270   3.002   3.853   8.881  1.3794  0.1934  1.0785
 4571TIP3   OH235271   3.378   6.628   0.400 -0.2810  0.3796  0.0173
 4571TIP3    H135272   3.320   6.553   0.396 -2.0787  1.7504 -1.1159
 4571TIP3    H235273   3.381   6.652   0.493 -2.2774  0.7844  0.0170
 4572TIP3   OH235274   2.449   2.971   8.477  0.2082 -0.3140  0.2482
 4572TIP3    H135275   2.517   3.038   8.473  0.7914 -0.7726  1.8680
 4572TIP3    H235276   2.471   2.919   8.554 -0.6720 -1.9045 -0.5358
 4573TIP3   OH235277   6.206   6.479   7.685  0.0675 -0.3020 -0.0396
 4573TIP3    H135278   6.198   6.404   7.743 -0.9215 -0.7285 -0.6899
 4573TIP3    H235279   6.220   6.441   7.598  1.1701  0.3142 -0.1526
 4574TIP3   OH235280   2.837   2.090   8.261  0.4985 -0.1159 -0.7294
 4574TIP3    H135281   2.884   2.017   8.222  3.9211  1.5544 -0.1373
 4574TIP3    H235282   2.804   2.057   8.345  1.9341 -1.0385 -0.5017
 4575TIP3   OH235283   3.323   6.059   2.267 -0.1256  0.7074 -0.2899
 4575TIP3    H135284   3.365   5.975   2.250  0.9565  1.1224  0.1979
 4575TIP3    H235285   3.229   6.040   2.269  0.0870 -0.4199 -0.4777
 4576TIP3   OH235286   5.993   1.424   0.527 -0.8479 -0.1839  0.0168
 4576TIP3    H135287   6.032   1.432   0.440 -0.9560 -0.6197 -0.0748
 4576TIP3    H235288   6.014   1.506   0.571 -0.0704 -0.2961 -0.1313
 4577TIP3   OH235289   1.324   1.126   3.353  0.0125  0.3927  0.1404
 4577TIP3    H135290   1.366   1.045   3.381  0.6981  0.5009 -0.5647
 4577TIP3    H235291   1.315   1.117   3.258 -1.7046  0.3059  0.2647
 4578TIP3   OH235292   2.153   0.026   2.159 -0.3611 -0.0213 -0.0713
 4578TIP3    H135293   2.171   0.079   2.236  1.0568  2.7899 -2.1700
 4578TIP3    H235294   2.059   0.037   2.144 -0.2648  1.1110  0.0937
 4579TIP3   OH235295   2.448   0.755   3.772  0.0683 -0.0110  0.5273
 4579TIP3    H135296   2.487   0.726   3.690  1.6594 -0.2089  1.3267
 4579TIP3    H235297   2.522   0.766   3.831 -0.9463  1.1871  1.6234
 4580TIP3   OH235298   1.201   5.511   2.510 -0.3617  0.1562 -0.1658
 4580TIP3    H135299   1.227   5.526   2.419  1.2371  0.7596  0.3497
 4580TIP3    H235300   1.143   5.435   2.506 -1.6068  1.1409 -1.8545
 4581TIP3   OH235301   0.749   6.328   1.034  0.4527 -0.0048  0.1973
 4581TIP3    H135302   0.668   6.351   1.080 -0.6865 -0.2200 -1.6262
 4581TIP3    H235303   0.755   6.233   1.043 -0.3336 -0.1773 -0.9446
 4582TIP3   OH235304   0.337   0.746   7.822  0.2058  0.0948 -0.4117
 4582TIP3    H135305   0.279   0.813   7.784  0.4484  0.5283 -0.0293
 4582TIP3    H235306   0.327   0.670   7.764 -0.0391  0.4774 -0.8799
 4583TIP3   OH235307   6.610   1.919   2.969  0.3779 -0.0286  0.0695
 4583TIP3    H135308   6.701   1.933   2.995  0.6477 -0.5827 -0.5310
 4583TIP3    H235309   6.571   1.869   3.041  0.6228 -0.0069  0.2166
 4584TIP3   OH235310   6.333   6.364   2.058  0.1601 -0.4968 -0.1711
 4584TIP3    H135311   6.406   6.313   2.092  0.1678 -0.3181  0.0842
 4584TIP3    H235312   6.304   6.316   1.981  0.1889 -0.8677  0.0487
 4585TIP3   OH235313   4.863   4.309   0.537  0.2244  0.0163  0.0459
 4585TIP3    H135314   4.794   4.292   0.472  0.5257  1.0162 -0.5540
 4585TIP3    H235315   4.943   4.314   0.486  0.8559 -1.7101  0.8063
 4586TIP3   OH235316   5.306   0.341   7.636  0.7955 -0.0354  0.1206
 4586TIP3    H135317   5.275   0.316   7.549 -2.2654  1.9127  0.4844
 4586TIP3    H235318   5.392   0.380   7.620 -0.2578  1.5793 -2.3525
 4587TIP3   OH235319   4.868   0.450   8.602 -0.4998 -0.1414  0.4204
 4587TIP3    H135320   4.896   0.462   8.511  1.6328  1.8253  1.2305
 4587TIP3    H235321   4.878   0.356   8.618  0.9882 -0.2375 -0.8412
 4588TIP3   OH235322   0.633   0.793   0.945  0.3479 -0.9801  0.1079
 4588TIP3    H135323   0.699   0.730   0.973 -0.8834 -2.7706 -0.8285
 4588TIP3    H235324   0.579   0.745   0.882 -1.7094  0.4691  0.6531
 4589TIP3   OH235325   5.883   1.363   7.649 -0.2222 -0.1938 -0.1728
 4589TIP3    H135326   5.934   1.349   7.569  0.1947  0.8320 -0.1060
 4589TIP3    H235327   5.943   1.409   7.707 -1.2862  1.2920 -0.1933
 4590TIP3   OH235328   6.319   4.125   2.203  0.7245  0.1073 -0.1456
 4590TIP3    H135329   6.378   4.100   2.274 -1.2869  0.5011  1.7857
 4590TIP3    H235330   6.305   4.219   2.215 -0.3416  0.0084 -0.4707
 4591TIP3   OH235331   6.058   3.515   2.994 -0.6655  0.0003 -0.6090
 4591TIP3    H135332   6.144   3.542   2.963  0.3623  2.0737  3.4389
 4591TIP3    H235333   6.072   3.426   3.028  0.4097  0.9182  1.5080
 4592TIP3   OH235334   2.294   3.184   0.591 -0.3311 -0.2746  0.4251
 4592TIP3    H135335   2.383   3.218   0.588 -0.6910  0.7671  1.0039
 4592TIP3    H235336   2.266   3.196   0.682 -1.4821  0.5802 -0.0035
 4593TIP3   OH235337   3.859   1.624   0.907 -0.3442 -0.5024 -0.4345
 4593TIP3    H135338   3.884   1.620   0.815  0.2854  0.0658 -0.2927
 4593TIP3    H235339   3.909   1.555   0.949  2.7599  1.9535  0.2315
 4594TIP3   OH235340   6.046   3.267   8.840 -0.0028 -1.3752 -0.4141
 4594TIP3    H135341   5.957   3.278   8.805 -0.5215 -2.7255  0.3602
 4594TIP3    H235342   6.099   3.243   8.764 -0.4615 -1.2517 -0.7794
 4595TIP3   OH235343   5.768   3.250   2.386  0.3932 -0.3842  0.3143
 4595TIP3    H135344   5.813   3.182   2.336  2.0449 -0.8487  2.3278
 4595TIP3    H235345   5.805   3.332   2.352 -1.5029 -0.3811 -2.0168
 4596TIP3   OH235346   2.139   2.652   7.853  0.3482 -0.4222  0.0977
 4596TIP3    H135347   2.092   2.731   7.826  0.8126 -0.1956 -0.0549
 4596TIP3    H235348   2.228   2.681   7.868 -0.1852 -0.1946  3.4985
 4597TIP3   OH235349   4.154   0.310   8.053  0.4557  0.5829 -0.1805
 4597TIP3    H135350   4.129   0.355   7.972 -1.0222  3.0560  1.5211
 4597TIP3    H235351   4.073   0.270   8.084  0.9026  0.0553  0.3176
 4598TIP3   OH235352   2.313   2.172   2.533 -0.6532 -0.0088 -0.4007
 4598TIP3    H135353   2.233   2.199   2.487 -0.9431  0.3852  0.3159
 4598TIP3    H235354   2.354   2.254   2.560  0.4848 -0.1759 -1.5535
 4599TIP3   OH235355   5.760   3.749   8.626 -0.0560 -0.2491 -0.0444
 4599TIP3    H135356   5.802   3.795   8.553  0.4339 -0.4108  0.1323
 4599TIP3    H235357   5.705   3.684   8.583  0.7976 -0.8415 -0.2735
 4600TIP3   OH235358   2.300   1.194   2.802  0.0536  0.3399  0.6387
 4600TIP3    H135359   2.235   1.220   2.867  1.6584  0.1526  2.3776
 4600TIP3    H235360   2.363   1.266   2.801  1.5164 -0.8878  1.3466
 4601TIP3   OH235361   4.287   4.003   0.253 -1.1543  0.0305 -0.3342
 4601TIP3    H135362   4.270   4.085   0.206 -0.1462  0.1260 -0.5569
 4601TIP3    H235363   4.267   3.935   0.190  1.0143  0.1686 -1.2440
 4602TIP3   OH235364   3.085   6.234   1.755  0.0354 -0.1358 -0.7645
 4602TIP3    H135365   3.174   6.269   1.746 -0.2284  0.4983 -0.9444
 4602TIP3    H235366   3.028   6.309   1.741 -0.5319 -0.5182 -0.5419
 4603TIP3   OH235367   1.665   2.973   0.755 -0.0112 -0.1671  0.1066
 4603TIP3    H135368   1.612   2.967   0.834 -1.1421 -0.6733 -0.6677
 4603TIP3    H235369   1.602   2.976   0.684  0.9556  1.3032 -0.7525
 4604TIP3   OH235370   1.386   6.029   7.254 -0.5355 -0.6215  0.2040
 4604TIP3    H135371   1.293   6.030   7.230 -0.8113  0.0948  1.2172
 4604TIP3    H235372   1.424   6.105   7.209 -0.8123  0.0507  1.0558
 4605TIP3   OH235373   2.469   6.650   0.294  0.2711  0.5892  0.2863
 4605TIP3    H135374   2.543   6.706   0.271  0.0177  0.3559 -1.1647
 4605TIP3    H235375   2.509   6.575   0.338  0.9014  0.4965 -0.4329
 4606TIP3   OH235376   4.389   6.698   0.898 -0.5425 -0.2558  0.5900
 4606TIP3    H135377   4.299   6.728   0.886 -0.5225 -0.5266 -0.3454
 4606TIP3    H235378   4.414   6.729   0.985 -1.6920 -0.5780  1.0449
 4607TIP3   OH235379   0.592   0.908   2.611  0.0472  0.6521 -0.5660
 4607TIP3    H135380   0.649   0.832   2.600  0.0951  0.6084 -0.0364
 4607TIP3    H235381   0.646   0.972   2.659 -0.5666  0.3473  0.5706
 4608TIP3   OH235382   1.494   0.717   3.129 -0.1285 -0.1461  0.2974
 4608TIP3    H135383   1.561   0.775   3.092  0.1793 -0.4024  0.4471
 4608TIP3    H235384   1.472   0.757   3.213 -0.6774  0.3227 -0.0609
 4609TIP3   OH235385   6.326   4.810   0.791 -0.2705 -0.3242  0.2169
 4609TIP3    H135386   6.389   4.747   0.756  1.2497  0.7747  0.9002
 4609TIP3    H235387   6.346   4.892   0.746  0.2615  0.5730  2.0171
 4610TIP3   OH235388   2.617   3.560   3.289 -0.4463  0.2652 -0.6344
 4610TIP3    H135389   2.681   3.603   3.345 -0.0095 -1.4426  0.2498
 4610TIP3    H235390   2.641   3.468   3.291 -4.2336 -0.9235  1.7090
 4611TIP3   OH235391   1.490   0.127   1.710  0.2723 -0.0360 -0.1781
 4611TIP3    H135392   1.556   0.115   1.777  0.8729 -2.8757 -1.1561
 4611TIP3    H235393   1.539   0.152   1.631 -0.3537  2.4925  0.1322
 4612TIP3   OH235394   6.377   1.791   8.214 -0.1786  0.3431  0.5939
 4612TIP3    H135395   6.291   1.751   8.198  0.0683  0.0807 -0.0752
 4612TIP3    H235396   6.362   1.884   8.199 -0.1655  0.2083 -0.3076
 4613TIP3   OH235397   3.879   1.403   1.691 -0.4074  0.6344 -0.3967
 4613TIP3    H135398   3.850   1.472   1.751 -0.5758  0.9887 -0.8766
 4613TIP3    H235399   3.818   1.407   1.618 -0.4319 -0.0487 -0.4206
 4614TIP3   OH235400   2.186   0.108   0.556  0.2566  0.6503  0.1552
 4614TIP3    H135401   2.244   0.119   0.632 -0.1195  0.5006  0.4662
 4614TIP3    H235402   2.098   0.117   0.592  0.0061 -0.9614  0.0174
 4615TIP3   OH235403   3.523   3.706   2.020 -0.0298 -0.1789 -0.2941
 4615TIP3    H135404   3.535   3.648   1.945  0.1944 -0.4245 -0.0731
 4615TIP3    H235405   3.598   3.765   2.017 -0.1993  0.0271 -0.4558
 4616TIP3   OH235406   6.726   3.854   2.062 -0.3395 -0.1740 -0.5076
 4616TIP3    H135407   6.770   3.904   1.993  1.7485  0.9142  1.4784
 4616TIP3    H235408   6.651   3.909   2.087 -1.5434 -0.9102 -2.2882
 4617TIP3   OH235409   2.734   4.960   8.357  0.3675 -0.6385  0.1104
 4617TIP3    H135410   2.815   4.916   8.330  0.7331  0.1241 -0.1009
 4617TIP3    H235411   2.668   4.931   8.294  0.8318 -0.1475 -0.6224
 4618TIP3   OH235412   3.479   4.235   0.686 -0.6207  0.2678  0.4370
 4618TIP3    H135413   3.567   4.221   0.720 -0.4805  0.4857  0.1705
 4618TIP3    H235414   3.453   4.321   0.719 -1.6984 -0.7925  2.5286
 4619TIP3   OH235415   2.431   2.721   7.930 -0.0766 -0.0271  0.3186
 4619TIP3    H135416   2.487   2.767   7.866  0.9591  0.6199  1.6466
 4619TIP3    H235417   2.434   2.776   8.008 -1.4250 -0.7482  0.9044
 4620TIP3   OH235418   3.108   5.722   2.097 -0.2655  0.2258  0.4139
 4620TIP3    H135419   3.157   5.708   2.016  0.4432  2.4370  0.4013
 4620TIP3    H235420   3.046   5.649   2.100  2.0601 -1.9263 -0.2605
 4621TIP3   OH235421   2.562   1.924   1.544  0.5199  0.2396 -0.3918
 4621TIP3    H135422   2.607   1.983   1.603 -0.1279 -1.7370  2.2712
 4621TIP3    H235423   2.599   1.943   1.458  3.0107  1.8780  0.9254
 4622TIP3   OH235424   5.492   1.051   7.575  0.4718 -0.6835 -0.4447
 4622TIP3    H135425   5.431   1.097   7.516  1.2738 -1.2113 -1.7244
 4622TIP3    H235426   5.437   0.986   7.619 -0.2398  0.0344 -0.2283
 4623TIP3   OH235427   0.685   3.922   0.851  0.0935 -0.5113 -0.1483
 4623TIP3    H135428   0.604   3.938   0.900 -0.7127 -3.3667 -0.3477
 4623TIP3    H235429   0.755   3.941   0.913 -0.6054  2.7106 -0.1773
 4624TIP3   OH235430   3.988   4.614   2.676  0.0143  0.1107  0.3334
 4624TIP3    H135431   4.016   4.606   2.767 -1.0564 -3.1053  0.5308
 4624TIP3    H235432   3.893   4.626   2.681 -0.0458 -0.0156 -0.3333
 4625TIP3   OH235433   1.911   1.100   0.948 -0.8201 -0.3560  0.2820
 4625TIP3    H135434   1.889   1.078   1.038 -1.5081 -1.4487 -0.1285
 4625TIP3    H235435   2.006   1.110   0.948 -1.0272  2.3838  1.6735
 4626TIP3   OH235436   6.342   4.571   2.415  0.1153  0.2558  0.3174
 4626TIP3    H135437   6.420   4.522   2.441 -0.5899 -0.3710  1.3412
 4626TIP3    H235438   6.365   4.662   2.431 -0.3840 -0.0813  3.7438
 4627TIP3   OH235439   3.893   5.548   1.265  0.7514 -0.6482 -0.3013
 4627TIP3    H135440   3.933   5.634   1.281  0.2354 -0.0378 -2.0506
 4627TIP3    H235441   3.807   5.554   1.306  0.8888 -0.4883 -0.0334
 4628TIP3   OH235442   5.585   0.331   0.462 -0.3704 -0.4936 -0.3197
 4628TIP3    H135443   5.593   0.312   0.368  1.1248 -0.1566 -0.2864
 4628TIP3    H235444   5.510   0.390   0.468 -0.0055  0.1235 -1.4124
 4629TIP3   OH235445   4.595   6.350   7.350  0.2362 -0.1031 -0.8406
 4629TIP3    H135446   4.506   6.353   7.386  0.2839  1.6658 -0.7639
 4629TIP3    H235447   4.586   6.301   7.269 -0.9694  0.6675 -1.2078
 4630TIP3   OH235448   4.063   3.914   1.394 -0.2818 -0.5980 -0.3986
 4630TIP3    H135449   4.032   3.974   1.326  1.2345  0.7400  0.0325
 4630TIP3    H235450   4.147   3.882   1.362  0.4011 -0.0331  0.7424
 4631TIP3   OH235451   0.564   4.465   8.726  0.2217 -0.2735  0.1357
 4631TIP3    H135452   0.528   4.527   8.663 -1.0962 -0.0493  1.0502
 4631TIP3    H235453   0.570   4.382   8.678  0.1511  0.1116 -0.5469
 4632TIP3   OH235454   0.347   4.976   2.822 -0.2857  0.1060 -0.1779
 4632TIP3    H135455   0.434   4.949   2.791 -0.1959 -1.1321  1.0772
 4632TIP3    H235456   0.365   5.045   2.887 -0.2649  0.0909 -0.1678
 4633TIP3   OH235457   0.673   4.980   0.701  0.3168 -0.5684 -0.1966
 4633TIP3    H135458   0.586   4.983   0.740  0.6005  1.2688  0.3800
 4633TIP3    H235459   0.658   4.994   0.607 -0.0475 -1.1362 -0.2320
 4634TIP3   OH235460   6.004   1.570   2.671  0.2730  0.0730  0.6005
 4634TIP3    H135461   6.091   1.609   2.671  0.2985  0.0802 -0.8336
 4634TIP3    H235462   5.948   1.637   2.632 -0.6020  0.4759  2.4535
 4635TIP3   OH235463   6.030   0.228   8.323  0.0195 -0.5083 -0.0285
 4635TIP3    H135464   6.120   0.222   8.290  0.3851 -1.9889  1.1573
 4635TIP3    H235465   6.039   0.268   8.409 -0.6005  0.3462 -0.3441
 4636TIP3   OH235466   1.840   3.024   0.018 -0.3385 -0.0552 -0.0774
 4636TIP3    H135467   1.878   2.961   0.080  1.9756  1.7065  0.4371
 4636TIP3    H235468   1.871   2.994  -0.068 -0.0633 -0.1770  0.0624
 4637TIP3   OH235469   6.018   0.630   1.239 -0.1215  0.3352  0.4959
 4637TIP3    H135470   5.924   0.613   1.235 -0.3609  1.4864  0.8390
 4637TIP3    H235471   6.025   0.725   1.243  1.0858  0.2935 -0.0743
 4638TIP3   OH235472   6.379   5.366   7.637 -0.5065  0.4928 -0.3416
 4638TIP3    H135473   6.295   5.321   7.634 -0.6754  0.8186 -0.7007
 4638TIP3    H235474   6.360   5.449   7.681  0.5229 -1.2364  3.8154
 4639TIP3   OH235475   5.658   0.965   2.097  0.5928 -0.2747  0.0814
 4639TIP3    H135476   5.743   1.008   2.097  1.7090 -2.3673  0.1697
 4639TIP3    H235477   5.648   0.929   2.185  0.1413 -0.9882 -0.2435
 4640TIP3   OH235478   0.406   2.704   8.408  0.3020 -0.4164  0.2112
 4640TIP3    H135479   0.475   2.770   8.409  0.4903 -0.6135  0.6062
 4640TIP3    H235480   0.452   2.621   8.424  0.0144 -0.5871  0.1694
 4641TIP3   OH235481   4.838   1.751   1.764 -0.1140  0.3586 -0.8157
 4641TIP3    H135482   4.866   1.663   1.739  1.6243  0.7432 -0.3693
 4641TIP3    H235483   4.773   1.775   1.698 -2.4216 -2.1055  0.3579
 4642TIP3   OH235484   1.161   1.668   7.691 -0.3539  0.3941 -0.0306
 4642TIP3    H135485   1.221   1.609   7.644  1.2645  1.0968  1.0531
 4642TIP3    H235486   1.079   1.620   7.695  0.4020 -1.0407 -0.7261
 4643TIP3   OH235487   0.886   0.363   1.861 -0.6721  0.3728 -0.3024
 4643TIP3    H135488   0.877   0.324   1.775  1.0705  0.2478 -0.4570
 4643TIP3    H235489   0.914   0.453   1.844 -0.1666  0.3033  0.1153
 4644TIP3   OH235490   1.866   6.673   1.429 -0.3283  0.4081 -0.3942
 4644TIP3    H135491   1.920   6.631   1.362 -0.0908  1.6612 -1.0208
 4644TIP3    H235492   1.864   6.766   1.404  0.8658  1.1760  2.0611
 4645TIP3   OH235493   5.054   6.088   8.719 -0.1095 -0.0988 -0.2951
 4645TIP3    H135494   5.032   5.999   8.691 -1.5038  0.3154 -0.5832
 4645TIP3    H235495   5.136   6.108   8.674  0.2939 -1.2843 -0.1036
 4646TIP3   OH235496   3.930   6.269   2.549  0.1089  0.4126 -0.1454
 4646TIP3    H135497   3.926   6.210   2.473  0.9447  0.0239  0.1057
 4646TIP3    H235498   4.019   6.261   2.581  0.9302  3.3670 -1.3339
 4647TIP3   OH235499   2.974   1.190   8.446  0.6060  0.1432 -0.6969
 4647TIP3    H135500   2.965   1.153   8.358  0.4522 -1.3039 -0.0901
 4647TIP3    H235501   3.014   1.276   8.431 -0.5051  0.4384 -2.2684
 4648TIP3   OH235502   6.781   1.870   3.233 -0.1040 -0.1857  0.3215
 4648TIP3    H135503   6.691   1.886   3.264 -0.4330 -0.5262 -0.4462
 4648TIP3    H235504   6.827   1.837   3.310 -1.2457 -2.2952  0.1637
 4649TIP3   OH235505   3.710   4.169   0.402 -0.6168 -0.1619  0.4044
 4649TIP3    H135506   3.694   4.261   0.381 -0.0112 -0.1874 -0.1847
 4649TIP3    H235507   3.754   4.134   0.325 -0.0662 -0.7272  0.9607
 4650TIP3   OH235508   5.393   5.032   1.490 -0.0302  0.4493 -0.1565
 4650TIP3    H135509   5.327   4.975   1.449  0.3903  1.5536 -2.5142
 4650TIP3    H235510   5.354   5.119   1.487  0.6617  0.7864  0.4354
 4651TIP3   OH235511   6.245   2.695   8.049 -0.1988  0.2171  0.6215
 4651TIP3    H135512   6.299   2.766   8.013  0.9463 -0.7879  0.2931
 4651TIP3    H235513   6.307   2.623   8.063 -1.2922 -0.6312  1.2046
 4652TIP3   OH235514   5.034   4.924   1.812 -0.2984  0.5261  0.0619
 4652TIP3    H135515   5.056   4.891   1.899  1.1861 -0.4173 -0.6311
 4652TIP3    H235516   5.055   5.017   1.815 -0.9812  0.6666  0.9183
 4653TIP3   OH235517   4.852   4.900   0.662 -0.1765  0.4956  0.3528
 4653TIP3    H135518   4.870   4.968   0.597 -1.0102  0.7136  0.3403
 4653TIP3    H235519   4.823   4.948   0.740  2.8414  0.4075  1.7017
 4654TIP3   OH235520   6.480   4.945   8.617 -0.1530  0.3098 -1.0635
 4654TIP3    H135521   6.488   5.040   8.627  2.0157  0.0899 -0.1503
 4654TIP3    H235522   6.510   4.927   8.528  0.0771  0.4348 -1.0122
 4655TIP3   OH235523   3.094   1.291   7.973 -0.1068  0.7266 -0.0878
 4655TIP3    H135524   3.031   1.219   7.977 -0.3982  0.9263 -1.0332
 4655TIP3    H235525   3.139   1.281   7.889  3.2096 -1.1186  1.6816
 4656TIP3   OH235526   0.034   6.322   8.476 -0.2089  0.3351  0.1745
 4656TIP3    H135527   0.120   6.362   8.490 -0.3985  0.3733  1.3976
 4656TIP3    H235528   0.031   6.301   8.383  0.8722  0.9138 -0.0031
 4657TIP3   OH235529   1.328   0.012   0.949  0.4419 -0.1992  0.0749
 4657TIP3    H135530   1.366   0.076   0.889 -0.1621 -0.8584 -1.0513
 4657TIP3    H235531   1.240   0.044   0.966  0.4627 -0.2400  0.2636
 4658TIP3   OH235532   3.787   5.353   0.058  0.3325 -0.1719  0.1690
 4658TIP3    H135533   3.763   5.443   0.075  0.8428 -0.0695  0.3620
 4658TIP3    H235534   3.741   5.302   0.125 -0.7437 -0.1658 -0.5348
 4659TIP3   OH235535   1.407   6.016   2.916  0.2178 -0.0862 -0.3422
 4659TIP3    H135536   1.445   6.018   3.003 -2.0853 -1.0288  0.7641
 4659TIP3    H235537   1.324   6.064   2.924 -0.2425 -0.5563 -1.8811
 4660TIP3   OH235538   1.776   1.164   8.682  0.1479 -0.1891  0.1448
 4660TIP3    H135539   1.791   1.231   8.615 -0.0218  0.3463  0.6328
 4660TIP3    H235540   1.855   1.164   8.735  0.8602 -1.5880 -0.8682
 4661TIP3   OH235541   2.223   4.097   1.629  0.3809 -0.4217 -0.0238
 4661TIP3    H135542   2.317   4.079   1.635  0.7162  0.7793 -1.0250
 4661TIP3    H235543   2.194   4.107   1.719  0.7890 -2.6648  0.4071
 4662TIP3   OH235544   2.669   0.964   1.755  0.7477  0.2945 -0.3916
 4662TIP3    H135545   2.671   1.052   1.792  2.9742 -0.6809  2.1067
 4662TIP3    H235546   2.583   0.930   1.782  0.8089  0.9185  0.6721
 4663TIP3   OH235547   6.761   1.286   8.553 -0.2812  0.2714 -0.2779
 4663TIP3    H135548   6.803   1.202   8.573  0.3892  0.5019 -0.6692
 4663TIP3    H235549   6.794   1.345   8.621 -1.5666 -0.0165  0.6211
 4664TIP3   OH235550   1.829   4.883   1.649 -0.1663  0.2883  0.0695
 4664TIP3    H135551   1.924   4.872   1.647 -0.0054  1.4771  0.2911
 4664TIP3    H235552   1.809   4.905   1.740 -0.5942  0.4454 -0.0595
 4665TIP3   OH235553   6.693   3.677   7.996  0.2301  0.1166  0.3291
 4665TIP3    H135554   6.744   3.724   7.930  0.7414 -0.7264  0.1117
 4665TIP3    H235555   6.603   3.708   7.983  0.2680 -0.2524 -0.9689
 4666TIP3   OH235556   3.636   2.443   8.278 -0.0701 -0.5247  0.0702
 4666TIP3    H135557   3.552   2.398   8.272 -0.8044  0.5740  1.5394
 4666TIP3    H235558   3.661   2.435   8.370 -1.2021  3.6233  0.9298
 4667TIP3   OH235559   3.195   5.186   8.369 -0.4606 -0.0406  0.9854
 4667TIP3    H135560   3.164   5.201   8.280  1.4520  1.2642  0.4671
 4667TIP3    H235561   3.164   5.262   8.418 -1.4856 -0.7422  1.4579
 4668TIP3   OH235562   6.415   2.913   7.962  0.0754  0.2149  0.0298
 4668TIP3    H135563   6.498   2.939   8.002  0.8511 -1.7089 -0.2528
 4668TIP3    H235564   6.435   2.907   7.868 -0.9576  1.7395 -0.3411
 4669TIP3   OH235565   0.880   2.114   8.693  0.1712 -0.3995 -0.0195
 4669TIP3    H135566   0.837   2.104   8.777 -0.2536 -0.5853 -0.2546
 4669TIP3    H235567   0.932   2.194   8.702  0.3246 -0.5595  0.4971
 4670TIP3   OH235568   4.786   3.343   8.526 -0.1578 -0.0805 -0.2310
 4670TIP3    H135569   4.761   3.364   8.436  0.3035 -0.7835 -0.5249
 4670TIP3    H235570   4.709   3.298   8.562 -0.0539 -0.4955 -0.5208
 4671TIP3   OH235571   5.465   2.321   0.089  0.2414  0.1246  0.4276
 4671TIP3    H135572   5.407   2.277   0.027 -0.1868 -0.8055  1.4646
 4671TIP3    H235573   5.408   2.351   0.160  0.9072 -0.1022  1.0795
 4672TIP3   OH235574   6.387   1.144   0.537  0.2818  0.2199 -0.0831
 4672TIP3    H135575   6.348   1.155   0.624 -0.4656  2.0989 -0.6007
 4672TIP3    H235576   6.468   1.096   0.553  0.3821  0.9014  1.7153
 4673TIP3   OH235577   5.209   5.286   0.945  0.0692  0.4039  0.5048
 4673TIP3    H135578   5.241   5.236   1.020 -0.8880  0.1850  0.7739
 4673TIP3    H235579   5.263   5.256   0.872  1.6212  1.2660  1.2533
 4674TIP3   OH235580   3.185   1.174   3.017  0.1890  0.0459  0.2692
 4674TIP3    H135581   3.105   1.157   3.066  0.3448  1.5750  1.1092
 4674TIP3    H235582   3.254   1.128   3.066 -0.0237 -0.5480  0.0272
 4675TIP3   OH235583   1.081   6.277   1.630 -0.7000  0.1553 -0.3035
 4675TIP3    H135584   1.111   6.293   1.541 -0.1356 -0.7581 -0.2947
 4675TIP3    H235585   1.021   6.349   1.649  0.5465  1.3724 -0.7670
 4676TIP3   OH235586   0.201   4.494   1.750 -0.4403 -0.6538 -0.2999
 4676TIP3    H135587   0.162   4.560   1.808  0.7031 -0.0977 -0.1423
 4676TIP3    H235588   0.294   4.493   1.773  0.4291  0.8070 -3.2318
 4677TIP3   OH235589   6.258   5.982   3.073 -0.7679  0.3052  0.3825
 4677TIP3    H135590   6.242   5.903   3.020 -1.7287 -0.3935  1.6457
 4677TIP3    H235591   6.342   6.015   3.042 -0.4296 -1.1209 -0.3089
 4678TIP3   OH235592   4.949   0.720   8.635  0.1934  0.3250 -0.6095
 4678TIP3    H135593   4.877   0.782   8.641  0.1593  0.7159 -3.4545
 4678TIP3    H235594   4.909   0.635   8.653 -0.9240  0.6025 -1.5991
 4679TIP3   OH235595   4.156   0.131   2.853 -0.4397 -0.4215 -0.3053
 4679TIP3    H135596   4.086   0.175   2.805 -0.5611 -0.9817 -0.6600
 4679TIP3    H235597   4.127   0.129   2.944 -0.5037  0.0782 -0.3145
 4680TIP3   OH235598   5.644   4.054   1.649 -0.6503  0.1983  0.2601
 4680TIP3    H135599   5.670   4.093   1.733  0.9224 -0.9175  0.3335
 4680TIP3    H235600   5.549   4.040   1.658 -0.4285 -0.4687  2.1134
 4681TIP3   OH235601   4.269   5.623   2.072 -0.3082 -0.0040  0.1769
 4681TIP3    H135602   4.337   5.591   2.012 -2.4378  2.0386 -3.7053
 4681TIP3    H235603   4.306   5.702   2.110 -0.0077  0.4177 -0.9436
 4682TIP3   OH235604   2.804   2.145   2.657  0.1603  0.1923 -0.1214
 4682TIP3    H135605   2.844   2.230   2.638  1.7728 -0.6046 -0.4964
 4682TIP3    H235606   2.776   2.151   2.748  1.3360  0.7370  0.2217
 4683TIP3   OH235607   0.895   4.824   8.096 -0.0129  0.2921  0.1172
 4683TIP3    H135608   0.895   4.902   8.151 -1.2328 -0.2462  0.9359
 4683TIP3    H235609   0.868   4.856   8.010  0.4262  0.9151  0.2051
 4684TIP3   OH235610   4.803   6.788   7.955  0.0699 -0.0637  0.4207
 4684TIP3    H135611   4.819   6.779   7.861  0.1225 -1.5676  0.5470
 4684TIP3    H235612   4.739   6.859   7.962  1.0700  0.9923 -0.6333
 4685TIP3   OH235613   6.787   5.332   1.129  0.1587 -0.4258  0.7314
 4685TIP3    H135614   6.735   5.411   1.122 -0.2908 -0.8000 -0.3301
 4685TIP3    H235615   6.764   5.280   1.052  2.8462 -0.1642 -0.3616
 4686TIP3   OH235616   4.277   5.963   1.362  0.0650 -0.2841 -0.4203
 4686TIP3    H135617   4.299   5.948   1.270 -1.4341 -1.8350 -0.5828
 4686TIP3    H235618   4.361   5.973   1.406  0.8260  0.0281 -1.8726
 4687TIP3   OH235619   1.607   5.862   0.241 -0.5717  0.1111  0.6133
 4687TIP3    H135620   1.620   5.837   0.150 -1.6559 -1.8814  0.9493
 4687TIP3    H235621   1.688   5.838   0.286  0.1850  1.6119  0.1320
 4688TIP3   OH235622   0.728   2.004   0.529  0.0506 -0.1081  0.0092
 4688TIP3    H135623   0.641   1.995   0.567  0.0286 -0.2704 -0.0805
 4688TIP3    H235624   0.712   2.009   0.435 -0.1014  2.4905  0.0812
 4689TIP3   OH235625   1.312   6.209   2.603  0.1633  0.4676  0.3285
 4689TIP3    H135626   1.384   6.239   2.547  0.5167  0.4474  0.7670
 4689TIP3    H235627   1.319   6.113   2.602 -1.2182  0.3234 -1.4092
 4690TIP3   OH235628   2.065   4.995   0.807  0.0974 -0.0412  0.3402
 4690TIP3    H135629   2.122   5.072   0.800  0.1669 -0.1944 -0.9943
 4690TIP3    H235630   2.038   4.994   0.899 -0.2613  1.8337  0.3026
 4691TIP3   OH235631   1.238   1.074   0.376  0.5375 -0.3823 -0.0001
 4691TIP3    H135632   1.258   1.166   0.357  0.0708 -0.2708  0.0155
 4691TIP3    H235633   1.278   1.025   0.305  1.3206 -0.2196  0.3259
 4692TIP3   OH235634   1.856   2.213   2.719 -0.6770 -0.5410  0.1403
 4692TIP3    H135635   1.804   2.270   2.775  1.7842  0.8332  1.1708
 4692TIP3    H235636   1.922   2.175   2.777  0.2709 -1.2079 -1.3060
 4693TIP3   OH235637   3.874   3.304   2.844  0.5837 -0.1548 -0.3854
 4693TIP3    H135638   3.941   3.337   2.904  0.4027  0.3734 -0.4708
 4693TIP3    H235639   3.867   3.211   2.865  0.0457  0.1499  0.8985
 4694TIP3   OH235640   2.405   2.728   7.228  0.4857 -0.0827 -0.1251
 4694TIP3    H135641   2.416   2.648   7.279  1.1297 -0.0101 -0.1353
 4694TIP3    H235642   2.482   2.729   7.170  0.8709  0.9196  0.3874
 4695TIP3   OH235643   4.325   1.639   7.763 -0.1425  0.2575 -0.5274
 4695TIP3    H135644   4.282   1.587   7.831 -0.7808 -0.6675 -1.6127
 4695TIP3    H235645   4.414   1.652   7.796 -1.2489  2.5872  1.9677
 4696TIP3   OH235646   2.680   6.288   1.673 -0.5560 -0.1925  0.4335
 4696TIP3    H135647   2.656   6.358   1.613 -2.5237  0.4715  1.9046
 4696TIP3    H235648   2.722   6.333   1.747 -1.5174 -0.5509  1.2269
 4697TIP3   OH235649   5.554   2.601   0.737  0.0721 -0.3163  0.0023
 4697TIP3    H135650   5.611   2.678   0.741 -1.2173  0.6402  1.6106
 4697TIP3    H235651   5.604   2.535   0.690  1.8278  1.0191 -0.0708
 4698TIP3   OH235652   0.954   0.799   8.462  0.4857  0.0154  0.0178
 4698TIP3    H135653   0.976   0.715   8.421  1.4838  0.3614 -0.1798
 4698TIP3    H235654   0.908   0.848   8.393 -1.2663 -0.8340  0.5365
 4699TIP3   OH235655   4.154   4.751   8.305  0.0526 -0.0214 -0.3181
 4699TIP3    H135656   4.103   4.832   8.296  0.4797  0.2066 -0.6979
 4699TIP3    H235657   4.218   4.755   8.234 -0.2799 -0.9521 -0.6784
 4700TIP3   OH235658   6.269   6.614   1.992  0.1410  0.0946 -0.4069
 4700TIP3    H135659   6.267   6.521   2.016  0.2877 -0.1799 -1.3902
 4700TIP3    H235660   6.250   6.660   2.073 -0.0831 -0.8038  0.0700
 4701TIP3   OH235661   6.501   4.314   0.002  0.4234 -0.3087  0.2809
 4701TIP3    H135662   6.516   4.359   0.085  0.3608  2.1999 -0.9957
 4701TIP3    H235663   6.585   4.270  -0.017  0.3926 -1.0368  1.6818
 4702TIP3   OH235664   6.015   0.920   1.302 -0.0658 -0.1448  0.0170
 4702TIP3    H135665   5.968   1.003   1.304 -0.9032 -0.5745  2.7904
 4702TIP3    H235666   6.053   0.911   1.389 -1.0576 -3.1840  0.2660
 4703TIP3   OH235667   2.008   3.423   0.100 -0.0900 -0.3077 -0.2579
 4703TIP3    H135668   2.064   3.497   0.076  1.6412 -1.9618 -1.6058
 4703TIP3    H235669   1.959   3.403   0.021 -1.0370 -0.2132  0.2949
 4704TIP3   OH235670   3.790   0.186   7.890  0.4014  0.2940 -0.9014
 4704TIP3    H135671   3.808   0.265   7.839 -0.2645  1.9045  1.2369
 4704TIP3    H235672   3.697   0.168   7.876 -0.0001  1.2549  0.3478
 4705TIP3   OH235673   2.814   1.795   3.338  0.4567  0.5917  0.1822
 4705TIP3    H135674   2.719   1.787   3.335  0.6236 -2.4374 -0.1388
 4705TIP3    H235675   2.830   1.871   3.393 -2.1549  0.5641  1.1067
 4706TIP3   OH235676   5.552   3.244   2.559 -0.1102  0.1344  0.1862
 4706TIP3    H135677   5.631   3.242   2.505  0.0655 -0.8545  0.4444
 4706TIP3    H235678   5.488   3.193   2.509 -0.9190  1.7740 -0.4927
 4707TIP3   OH235679   1.918   5.081   0.329 -0.7593  0.0291 -0.3177
 4707TIP3    H135680   1.839   5.134   0.338 -1.5344 -1.2217  0.5602
 4707TIP3    H235681   1.924   5.032   0.411  0.9996  0.1675 -0.3228
 4708TIP3   OH235682   3.207   2.463   2.317 -0.2942 -0.1910 -0.1191
 4708TIP3    H135683   3.184   2.472   2.224 -1.8555 -0.3912  0.2101
 4708TIP3    H235684   3.181   2.547   2.355 -1.1737 -0.6852  0.3983
 4709TIP3   OH235685   4.347   6.545   7.524  0.6103 -0.1314  0.3118
 4709TIP3    H135686   4.420   6.583   7.573  0.0804 -0.0035  1.0223
 4709TIP3    H235687   4.334   6.604   7.450  2.2701 -1.0317 -0.7484
 4710TIP3   OH235688   4.336   5.556   0.182  0.1334  0.2904 -0.2366
 4710TIP3    H135689   4.317   5.649   0.190  1.6302  0.7699 -1.5794
 4710TIP3    H235690   4.314   5.535   0.091 -2.1169 -1.1995  0.5790
 4711TIP3   OH235691   0.381   0.287   1.564  0.1300 -0.5921 -0.3421
 4711TIP3    H135692   0.340   0.297   1.650 -0.5165 -3.3904 -0.2159
 4711TIP3    H235693   0.332   0.215   1.523  0.7536  0.3302 -2.8652
 4712TIP3   OH235694   5.070   1.495   8.012  0.1013 -0.0830  0.2901
 4712TIP3    H135695   5.031   1.425   8.064 -1.1959 -0.1052 -0.6694
 4712TIP3    H235696   4.996   1.537   7.969  0.9171  1.5516  0.4303
 4713TIP3   OH235697   5.022   2.100   7.803 -0.6112  0.4926 -0.3729
 4713TIP3    H135698   5.002   2.065   7.890  1.0864 -0.1245 -0.1931
 4713TIP3    H235699   5.049   2.191   7.819 -0.3704  0.4013 -0.2538
 4714TIP3   OH235700   3.613   2.473   0.931 -0.2711  0.7785  0.6081
 4714TIP3    H135701   3.574   2.498   0.847 -0.0710 -1.9018 -0.3870
 4714TIP3    H235702   3.549   2.499   0.997 -1.4525  0.9512 -0.5802
 4715TIP3   OH235703   6.195   1.653   0.018 -0.4046 -0.0554  0.0639
 4715TIP3    H135704   6.246   1.616   0.090 -0.9476 -0.6754  0.1315
 4715TIP3    H235705   6.261   1.685  -0.044  0.1173  2.2943  1.7079
 4716TIP3   OH235706   1.187   0.656   1.367 -0.3710  0.2802 -0.5677
 4716TIP3    H135707   1.223   0.743   1.385  0.1024  0.1820 -1.0136
 4716TIP3    H235708   1.200   0.608   1.448 -1.3040  0.8395 -0.0716
 4717TIP3   OH235709   0.628   0.720   0.637  0.0519  0.2142 -0.1988
 4717TIP3    H135710   0.543   0.749   0.604 -0.8211 -0.4243  1.4104
 4717TIP3    H235711   0.684   0.798   0.632  0.0174  0.1753 -3.1297
 4718TIP3   OH235712   3.183   4.515   1.975  0.0651 -0.2845  0.2993
 4718TIP3    H135713   3.167   4.477   1.888  2.1178 -1.4085  0.3377
 4718TIP3    H235714   3.278   4.524   1.979 -0.1306  1.6418  1.6954
 4719TIP3   OH235715   1.291   4.620   1.931 -0.0235  0.3083 -0.1427
 4719TIP3    H135716   1.239   4.681   1.877 -0.1834 -2.4089 -3.4362
 4719TIP3    H235717   1.374   4.612   1.884  0.3815 -1.1620  0.7737
 4720TIP3   OH235718   5.326   5.738   3.292  0.0809 -0.3600 -0.1345
 4720TIP3    H135719   5.393   5.764   3.229  2.3435 -2.3057  1.2854
 4720TIP3    H235720   5.342   5.645   3.307 -2.0390 -0.5718  1.3949
 4721TIP3   OH235721   1.703   5.972   2.586 -0.3786 -0.0256 -0.7668
 4721TIP3    H135722   1.611   5.957   2.609 -0.5304  1.6664 -0.1572
 4721TIP3    H235723   1.746   5.987   2.670 -0.3798  3.3542 -1.2518
 4722TIP3   OH235724   5.416   0.964   0.077 -0.2686  0.2626  0.1488
 4722TIP3    H135725   5.353   1.036   0.073 -0.4184  0.2295  1.5712
 4722TIP3    H235726   5.466   0.972  -0.005 -1.1472  1.1690 -0.3221
 4723TIP3   OH235727   4.591   4.504   8.109 -0.2689 -0.4269  0.4234
 4723TIP3    H135728   4.601   4.448   8.032  0.8772 -0.2164  0.4075
 4723TIP3    H235729   4.514   4.468   8.155 -0.7352 -0.7850 -0.6067
 4724TIP3   OH235730   6.059   1.358   3.286 -0.2218 -0.2023  0.4664
 4724TIP3    H135731   6.048   1.263   3.286  0.8147 -0.3349  1.0369
 4724TIP3    H235732   6.134   1.374   3.344 -0.4849  0.9750  0.5107
 4725TIP3   OH235733   0.388   2.798   0.062 -0.4302 -0.0599  0.0154
 4725TIP3    H135734   0.482   2.782   0.057 -0.4763 -0.1040 -0.7652
 4725TIP3    H235735   0.362   2.819  -0.027 -1.2338 -0.4484  0.1456
 4726TIP3   OH235736   3.094   4.166   1.700  0.1577 -0.1644 -0.4349
 4726TIP3    H135737   3.117   4.104   1.631 -1.0665  1.3864 -2.3630
 4726TIP3    H235738   3.177   4.186   1.744  0.7644 -2.1439 -0.6002
 4727TIP3   OH235739   3.972   6.358   1.179  0.3220 -0.0465  0.3434
 4727TIP3    H135740   3.884   6.381   1.148  1.0242  0.7821 -1.1693
 4727TIP3    H235741   4.031   6.393   1.112  2.0161  1.9341  2.6803
 4728TIP3   OH235742   1.438   4.290   8.419 -0.1101 -0.1367  0.0836
 4728TIP3    H135743   1.523   4.326   8.444  1.5776 -1.9391 -2.4971
 4728TIP3    H235744   1.431   4.208   8.468 -0.1788 -0.1443  0.0611
 4729TIP3   OH235745   1.305   4.377   0.295  0.1166 -0.6845 -0.0052
 4729TIP3    H135746   1.281   4.287   0.318  0.8915 -0.9668 -0.2650
 4729TIP3    H235747   1.379   4.397   0.352 -0.3567 -0.0353  0.3861
 4730TIP3   OH235748   0.418   1.062   0.589  0.0019  0.2941  0.3241
 4730TIP3    H135749   0.356   1.054   0.662  1.3204 -0.7663  1.3920
 4730TIP3    H235750   0.398   0.987   0.533  0.3388 -0.0872  0.7040
 4731TIP3   OH235751   2.972   0.994   1.915  0.0493 -0.1321 -0.0121
 4731TIP3    H135752   2.943   1.077   1.878 -0.7844 -0.6817 -0.6119
 4731TIP3    H235753   2.907   0.975   1.983  0.5766 -0.0133  0.5402
 4732TIP3   OH235754   0.737   5.888   8.602  0.4252 -0.3686 -0.3328
 4732TIP3    H135755   0.706   5.901   8.692  1.9186  0.1279  0.1293
 4732TIP3    H235756   0.824   5.851   8.611  1.1353  0.8913 -1.5461
 4733TIP3   OH235757   6.540   3.453   8.200  0.2040 -0.4335  0.3897
 4733TIP3    H135758   6.490   3.412   8.130  1.4048 -1.7580  0.2428
 4733TIP3    H235759   6.483   3.451   8.276 -0.4842 -0.5522 -0.1255
 4734TIP3   OH235760   5.286   4.230   8.437 -0.0328 -0.1838  0.4268
 4734TIP3    H135761   5.226   4.186   8.376 -1.4215  2.1181  0.0055
 4734TIP3    H235762   5.367   4.241   8.389 -0.7273  0.5250 -0.6296
 4735TIP3   OH235763   3.915   5.173   8.292 -0.6006  0.3899  0.0511
 4735TIP3    H135764   3.942   5.083   8.308  2.3929  0.2028 -4.2358
 4735TIP3    H235765   3.827   5.166   8.257 -1.0010 -0.6464  1.1854
 4736TIP3   OH235766   1.221   1.414   7.566 -0.3614  0.3471  0.0590
 4736TIP3    H135767   1.274   1.447   7.493  0.6880 -0.3607  0.4739
 4736TIP3    H235768   1.192   1.328   7.537  0.1827 -0.0006  0.5113
 4737TIP3   OH235769   2.514   0.465   8.084 -0.0388  0.2335 -0.6301
 4737TIP3    H135770   2.524   0.371   8.071  0.6485 -0.0399  1.5972
 4737TIP3    H235771   2.465   0.494   8.006 -0.6101 -1.9876 -1.1856
 4738TIP3   OH235772   3.050   0.993   1.313 -0.0933  0.1754  0.0282
 4738TIP3    H135773   3.048   1.069   1.255 -0.5528  1.0626  1.1575
 4738TIP3    H235774   2.995   1.018   1.387 -0.0237 -1.1595  0.5633
 4739TIP3   OH235775   3.706   5.105   0.286 -0.1257 -0.8446  0.4498
 4739TIP3    H135776   3.680   5.157   0.362 -0.0014 -2.1899  1.4379
 4739TIP3    H235777   3.802   5.105   0.289  0.0553  1.6297 -1.5020
 4740TIP3   OH235778   1.529   1.625   1.856 -0.2028 -0.3344  0.5350
 4740TIP3    H135779   1.466   1.650   1.924  0.6039  1.7167  0.6182
 4740TIP3    H235780   1.564   1.541   1.885 -0.1309  0.3291  2.4988
 4741TIP3   OH235781   3.518   0.173   7.794  0.0629  0.2557  0.1662
 4741TIP3    H135782   3.579   0.186   7.721  0.6669 -1.3558  0.3475
 4741TIP3    H235783   3.445   0.125   7.757  0.1506 -0.1539  0.5216
 4742TIP3   OH235784   3.173   1.168   8.823  0.1101 -0.1326  0.1800
 4742TIP3    H135785   3.246   1.175   8.761 -0.4591  0.8692 -0.4110
 4742TIP3    H235786   3.140   1.258   8.831 -1.9903 -0.7602 -0.7225
 4743TIP3   OH235787   5.764   6.720   3.483  0.2321  0.1082 -0.0425
 4743TIP3    H135788   5.732   6.646   3.535  1.4844  0.9169  1.9992
 4743TIP3    H235789   5.855   6.698   3.463  0.1850  0.4725 -0.6974
 4744TIP3   OH235790   1.666   3.910   8.746 -0.3948 -0.0333 -0.3776
 4744TIP3    H135791   1.659   3.815   8.736  2.0645 -0.2427 -0.8988
 4744TIP3    H235792   1.759   3.925   8.762 -0.5568  2.3693 -1.2902
 4745TIP3   OH235793   4.854   5.035   0.907 -0.1117  0.4102 -0.4285
 4745TIP3    H135794   4.856   5.120   0.951 -0.1240 -0.6110  1.6928
 4745TIP3    H235795   4.809   4.977   0.969  1.5504 -1.5685 -0.9693
 4746TIP3   OH235796   3.040   5.037   7.225 -0.0934  0.1757 -0.2293
 4746TIP3    H135797   3.063   5.098   7.155  0.2177 -0.7310 -0.9289
 4746TIP3    H235798   3.024   4.954   7.181 -0.5868 -0.2403  0.7040
 4747TIP3   OH235799   0.043   1.412   2.104  0.6319 -0.0469 -0.6304
 4747TIP3    H135800  -0.046   1.439   2.123  1.1960  1.6942 -0.2740
 4747TIP3    H235801   0.045   1.319   2.126 -0.6157  0.2915  1.1667
 4748TIP3   OH235802   3.448   3.917   1.454  0.3720  0.4006  0.5938
 4748TIP3    H135803   3.500   3.839   1.433  0.0880 -0.0263  1.4280
 4748TIP3    H235804   3.454   3.972   1.376 -1.4528 -1.5400 -1.0178
 4749TIP3   OH235805   5.999   0.572   0.088 -0.5652  0.4429  0.2699
 4749TIP3    H135806   5.958   0.658   0.097  1.5053  1.4782  0.3846
 4749TIP3    H235807   5.950   0.517   0.149 -1.9165  1.5220  0.2245
 4750TIP3   OH235808   3.152   3.339   3.324  0.0539 -0.4595 -0.0564
 4750TIP3    H135809   3.113   3.283   3.256  0.7988  1.9228 -2.6166
 4750TIP3    H235810   3.240   3.302   3.338  1.0209  0.5981 -2.6409
 4751TIP3   OH235811   6.725   5.837   8.256  0.6597 -0.0261  0.4375
 4751TIP3    H135812   6.633   5.810   8.260  0.8212 -0.7873 -0.4924
 4751TIP3    H235813   6.729   5.898   8.183  0.5947  1.3480  1.5519
 4752TIP3   OH235814   1.753   1.603   3.163  0.2386  0.5419 -0.1474
 4752TIP3    H135815   1.799   1.532   3.117 -0.7460  0.4180 -0.9829
 4752TIP3    H235816   1.725   1.662   3.093 -3.0000 -0.6419 -0.0009
 4753TIP3   OH235817   1.276   0.377   1.309 -0.5760 -0.1741  0.1162
 4753TIP3    H135818   1.208   0.322   1.271 -0.0202 -0.8784  0.1077
 4753TIP3    H235819   1.264   0.463   1.269 -1.5015 -0.2670  0.1773
 4754TIP3   OH235820   3.377   3.633   1.054 -0.0719 -0.6055 -0.0528
 4754TIP3    H135821   3.283   3.629   1.068  0.1013 -1.9631  0.8970
 4754TIP3    H235822   3.394   3.566   0.988 -0.2185  2.3099 -3.3536
 4755TIP3   OH235823   4.719   0.440   2.991 -0.6064 -0.0783 -0.3413
 4755TIP3    H135824   4.689   0.521   2.948  1.2035  0.7891 -0.0705
 4755TIP3    H235825   4.739   0.467   3.080  0.4788 -0.6947 -0.3842
 4756TIP3   OH235826   6.793   1.112   0.305  0.0118 -0.5359 -0.1871
 4756TIP3    H135827   6.879   1.076   0.328  0.7522  1.4364  0.4109
 4756TIP3    H235828   6.794   1.118   0.210  1.2393  0.9700 -0.1125
 4757TIP3   OH235829   5.318   3.353   1.289  0.9676 -0.6515 -0.1482
 4757TIP3    H135830   5.389   3.408   1.255  0.6249 -0.6218 -0.8387
 4757TIP3    H235831   5.246   3.368   1.228 -0.3660  0.9771  1.7179
 4758TIP3   OH235832   1.059   0.875   2.015  0.1175 -0.3408  0.2064
 4758TIP3    H135833   1.082   0.788   1.983  2.4346  0.5770 -0.8819
 4758TIP3    H235834   1.050   0.928   1.935 -0.0116  0.6746  0.8789
 4759TIP3   OH235835   5.941   4.384   1.108 -0.0055 -0.8563 -0.4893
 4759TIP3    H135836   5.918   4.325   1.179 -1.1381 -0.1353 -0.2340
 4759TIP3    H235837   5.994   4.331   1.048 -0.3745 -1.9043  0.0969
 4760TIP3   OH235838   2.869   5.839   2.440 -0.5459 -0.3544  0.7896
 4760TIP3    H135839   2.947   5.797   2.402 -0.0902  0.9894  0.1475
 4760TIP3    H235840   2.902   5.883   2.519 -0.6980  0.0197  0.6457
 4761TIP3   OH235841   3.779   3.728   8.295 -0.6379 -0.1739 -0.3603
 4761TIP3    H135842   3.779   3.642   8.253 -1.0841 -0.3403 -0.0293
 4761TIP3    H235843   3.866   3.734   8.335 -1.9088 -2.3467  3.2784
 4762TIP3   OH235844   4.641   1.157   1.405  0.4450 -0.8326 -0.4644
 4762TIP3    H135845   4.649   1.238   1.354  0.6031 -0.7563 -0.3190
 4762TIP3    H235846   4.699   1.171   1.480  0.3033 -0.9953 -0.3280
 4763TIP3   OH235847   6.537   2.603   7.983  0.2765 -0.0761  0.3939
 4763TIP3    H135848   6.629   2.607   7.959  0.5587 -1.2443  1.1840
 4763TIP3    H235849   6.523   2.676   8.042  0.2479  1.1586 -1.0842
 4764TIP3   OH235850   3.382   6.681   1.307  0.3482  0.2335  0.4325
 4764TIP3    H135851   3.317   6.654   1.242 -0.6951 -0.0827  1.5672
 4764TIP3    H235852   3.349   6.765   1.340  0.1681 -0.2154  1.4362
 4765TIP3   OH235853   1.983   1.289   1.192  0.3741  0.7341  0.4393
 4765TIP3    H135854   1.985   1.287   1.288  0.7894  1.2279  0.4459
 4765TIP3    H235855   2.066   1.249   1.166  0.9213  1.9032  0.3176
 4766TIP3   OH235856   4.155   4.634   0.662 -0.4537 -0.3917 -0.2069
 4766TIP3    H135857   4.226   4.576   0.690 -0.0896  0.3068  0.3370
 4766TIP3    H235858   4.179   4.720   0.694 -0.3016  0.3701 -2.2233
 4767TIP3   OH235859   0.121   4.933   1.679 -0.2946 -0.2028  0.1484
 4767TIP3    H135860   0.139   5.017   1.635  0.9697 -1.1910 -1.3163
 4767TIP3    H235861   0.188   4.927   1.747 -0.1233 -0.2090 -0.0191
 4768TIP3   OH235862   0.752   0.353   8.744  0.2512  0.8883  0.2524
 4768TIP3    H135863   0.816   0.334   8.675 -0.4728  0.7528 -0.4021
 4768TIP3    H235864   0.674   0.304   8.717  0.8514 -1.7240  2.7298
 4769TIP3   OH235865   0.002   0.408   1.376  0.8717  0.3999 -0.2009
 4769TIP3    H135866  -0.082   0.454   1.370  0.3292 -0.7369 -1.8265
 4769TIP3    H235867  -0.001   0.365   1.462 -0.0885  0.5906 -0.1297
 4770TIP3   OH235868   0.060   6.076   1.828  0.2132 -0.4778 -0.6841
 4770TIP3    H135869   0.042   6.057   1.920 -1.6439 -1.1646 -1.1397
 4770TIP3    H235870  -0.022   6.056   1.783  0.7461  0.8625 -2.3573
 4771TIP3   OH235871   5.691   2.398   0.615 -0.4014  0.4339 -0.1184
 4771TIP3    H135872   5.783   2.421   0.624 -0.4067  0.6452 -0.5965
 4771TIP3    H235873   5.678   2.384   0.521 -0.7610  0.0099 -0.0128
 4772TIP3   OH235874   2.530   5.544   7.607  0.4680  0.1847 -0.4330
 4772TIP3    H135875   2.590   5.472   7.624 -0.4805 -0.6646 -0.5702
 4772TIP3    H235876   2.467   5.540   7.679 -1.4442 -1.1586 -2.0753
 4773TIP3   OH235877   4.860   1.590   7.831 -0.0009  0.6518 -0.2871
 4773TIP3    H135878   4.835   1.665   7.885 -1.0445  1.3491 -1.6831
 4773TIP3    H235879   4.816   1.605   7.748 -0.7511 -1.8481 -0.4039
 4774TIP3   OH235880   0.578   3.907   0.411  0.1769  0.5332  0.2013
 4774TIP3    H135881   0.502   3.936   0.360  0.1023 -0.9699 -0.5805
 4774TIP3    H235882   0.617   3.837   0.360  1.6548  0.7398  0.9793
 4775TIP3   OH235883   0.528   1.888   1.531  0.0654 -0.0321 -0.1462
 4775TIP3    H135884   0.483   1.928   1.457  0.6730 -1.8855 -1.5915
 4775TIP3    H235885   0.595   1.952   1.556 -0.1153  0.5991 -1.2308
 4776TIP3   OH235886   6.010   0.700   2.633  0.1980 -0.0235  0.2165
 4776TIP3    H135887   5.964   0.616   2.634 -1.1658  0.6568 -1.1470
 4776TIP3    H235888   6.064   0.698   2.554 -0.5161  0.6878 -0.3142
 4777TIP3   OH235889   3.192   6.744   2.472  0.3084  0.1424  0.0976
 4777TIP3    H135890   3.239   6.817   2.432 -1.0937  0.9712 -0.0951
 4777TIP3    H235891   3.261   6.687   2.507  1.5274  0.3545 -1.7975
 4778TIP3   OH235892   1.536   3.569   1.206  0.0356  0.0719 -0.4901
 4778TIP3    H135893   1.580   3.485   1.221 -0.1394 -0.2723 -1.8091
 4778TIP3    H235894   1.445   3.545   1.191 -0.3998  0.6825  1.0502
 4779TIP3   OH235895   0.693   3.052   1.453  0.7666  0.0518  0.2692
 4779TIP3    H135896   0.661   3.063   1.543 -0.9073 -0.5512 -0.2134
 4779TIP3    H235897   0.625   3.093   1.399  1.2365 -0.5354 -0.7824
 4780TIP3   OH235898   4.632   2.740   1.745 -0.3489 -0.2273  0.3028
 4780TIP3    H135899   4.665   2.778   1.664 -0.5894  0.6447  0.6003
 4780TIP3    H235900   4.667   2.797   1.814 -1.2341 -0.1780  0.7208
 4781TIP3   OH235901   3.530   4.162   8.484 -0.1627 -0.1668 -0.4492
 4781TIP3    H135902   3.448   4.204   8.508  0.4216  1.1083 -0.6260
 4781TIP3    H235903   3.504   4.078   8.447 -1.4143  0.3952 -0.8773
 4782TIP3   OH235904   2.437   0.889   2.063 -0.3358  0.3167  0.5475
 4782TIP3    H135905   2.428   0.864   1.971 -0.4120  0.3467  0.5464
 4782TIP3    H235906   2.413   0.810   2.112  1.3672 -0.2499  0.5389
 4783TIP3   OH235907   6.559   6.708   1.784  0.2028 -0.6367 -0.5004
 4783TIP3    H135908   6.484   6.648   1.785 -0.4131  0.1207  0.1316
 4783TIP3    H235909   6.592   6.706   1.873  0.9701 -0.9991 -0.7898
 4784TIP3   OH235910   0.536   6.142   8.250 -0.7310  0.0820  1.1351
 4784TIP3    H135911   0.535   6.057   8.294  0.8212  0.0908  1.2617
 4784TIP3    H235912   0.588   6.198   8.308 -0.0716  0.5584  0.1081
 4785TIP3   OH235913   3.403   2.488   1.633  0.5327 -0.7166  0.0961
 4785TIP3    H135914   3.433   2.462   1.546 -1.3049  0.0206 -0.8162
 4785TIP3    H235915   3.350   2.414   1.662  2.2018 -1.5233  1.1933
 4786TIP3   OH235916   2.579   2.893   8.729 -0.1963  0.0826  0.7440
 4786TIP3    H135917   2.548   2.805   8.749  0.2894 -0.2706 -0.0554
 4786TIP3    H235918   2.578   2.938   8.814  0.8681 -1.0922  1.4083
 4787TIP3   OH235919   5.927   1.974   0.856 -0.1987  0.2054 -0.5918
 4787TIP3    H135920   5.832   1.964   0.846 -0.4316  0.9820  0.5883
 4787TIP3    H235921   5.937   2.043   0.922  1.2009  1.4470 -2.0203
 4788TIP3   OH235922   3.192   1.294   7.711 -0.3054  0.2713  0.0924
 4788TIP3    H135923   3.190   1.389   7.700  1.0678  0.2128 -0.8363
 4788TIP3    H235924   3.219   1.260   7.626 -3.3927 -1.1714 -0.4393
 4789TIP3   OH235925   1.993   5.491   2.183 -0.0145 -0.2207 -0.2020
 4789TIP3    H135926   2.088   5.477   2.190 -0.0792 -0.4394  0.2344
 4789TIP3    H235927   1.972   5.459   2.095  0.5650  1.2836 -0.9282
 4790TIP3   OH235928   4.153   1.601   7.993  0.4208 -0.0603 -0.6772
 4790TIP3    H135929   4.104   1.657   8.054  1.9006  0.2155  0.3087
 4790TIP3    H235930   4.110   1.516   7.999 -1.2760  0.6822 -1.4844
 4791TIP3   OH235931   2.702   2.355   1.027  0.1672  0.3127  0.2264
 4791TIP3    H135932   2.631   2.323   0.970 -0.1818 -0.0241  0.8350
 4791TIP3    H235933   2.733   2.434   0.984 -2.8919  2.5035  1.6393
 4792TIP3   OH235934   5.267   3.187   0.618  0.2884  0.3065  0.1872
 4792TIP3    H135935   5.263   3.104   0.571 -0.6994  1.6374 -2.2655
 4792TIP3    H235936   5.210   3.175   0.694  0.3596 -1.3325  0.0055
 4793TIP3   OH235937   0.600   4.628   7.087 -0.6418  0.3226  0.3516
 4793TIP3    H135938   0.510   4.659   7.100 -0.4199  0.8270  0.7277
 4793TIP3    H235939   0.624   4.661   7.000 -0.9865 -0.2315  0.0425
 4794TIP3   OH235940   4.986   5.835   2.593  0.0807  0.4354 -0.3430
 4794TIP3    H135941   4.895   5.865   2.588 -0.1766 -0.0139  0.9925
 4794TIP3    H235942   4.978   5.740   2.600  0.6295  0.4117 -0.0128
 4795TIP3   OH235943   0.259   6.796   2.560  0.1510  0.0815 -0.0971
 4795TIP3    H135944   0.193   6.763   2.620  0.6690  0.5483  0.7471
 4795TIP3    H235945   0.340   6.751   2.584  0.0022 -1.1053 -1.6629
 4796TIP3   OH235946   3.323   1.582   7.203  0.3424  0.4238 -0.2506
 4796TIP3    H135947   3.384   1.640   7.249  0.7180 -0.9249  1.0350
 4796TIP3    H235948   3.320   1.503   7.257 -2.7689  0.5175 -0.0787
 4797TIP3   OH235949   3.903   3.600   3.303 -0.4265  0.1416  0.1647
 4797TIP3    H135950   3.960   3.666   3.264 -0.7013  0.8339  0.9085
 4797TIP3    H235951   3.944   3.578   3.387 -1.3103  0.7567  0.7786
 4798TIP3   OH235952   3.070   1.294   1.013 -0.2575  0.0811 -0.2817
 4798TIP3    H135953   3.017   1.218   0.990 -0.0327  0.1014 -0.8745
 4798TIP3    H235954   3.020   1.338   1.082  1.0768 -2.3231  2.4414
 4799TIP3   OH235955   0.686   4.297   3.175  0.3799  0.3793 -0.3075
 4799TIP3    H135956   0.644   4.355   3.112  0.2879 -0.0947 -0.6876
 4799TIP3    H235957   0.620   4.229   3.192 -0.0219  1.0727  1.1238
 4800TIP3   OH235958   2.303   5.871   2.909 -0.1678 -0.3220 -0.6779
 4800TIP3    H135959   2.301   5.967   2.907 -3.2014 -0.3095 -3.0422
 4800TIP3    H235960   2.214   5.845   2.932  0.7415 -2.6572  0.5816
 4801TIP3   OH235961   6.430   3.441   8.446  0.6988 -0.0418 -0.0487
 4801TIP3    H135962   6.422   3.520   8.499 -1.1572 -0.0066 -0.3177
 4801TIP3    H235963   6.376   3.376   8.492  1.7107 -0.9798 -0.1559
 4802TIP3   OH235964   0.470   3.126   8.603  0.2232  0.4777 -0.1639
 4802TIP3    H135965   0.413   3.056   8.635  0.8906 -1.3266 -2.6794
 4802TIP3    H235966   0.482   3.183   8.679 -1.3918 -1.4161  1.6310
 4803TIP3   OH235967   5.802   5.694   8.639  0.2560  0.5212  0.0090
 4803TIP3    H135968   5.872   5.686   8.703 -1.1415  0.9715  1.6748
 4803TIP3    H235969   5.745   5.764   8.673 -1.9963 -1.0613 -0.2624
 4804TIP3   OH235970   5.732   0.168   8.419 -0.2609  0.4568  0.7390
 4804TIP3    H135971   5.688   0.084   8.429 -1.4631  1.0327  0.4070
 4804TIP3    H235972   5.818   0.155   8.460 -0.8303 -0.5914  1.6432
 4805TIP3   OH235973   2.568   4.592   1.503 -0.2838  0.5330  0.0190
 4805TIP3    H135974   2.555   4.686   1.509 -0.0772  0.5113  0.9484
 4805TIP3    H235975   2.662   4.581   1.494 -0.4428  0.4893 -2.2529
 4806TIP3   OH235976   0.778   0.661   2.011 -0.0695  0.3380 -0.5328
 4806TIP3    H135977   0.695   0.703   1.988  0.1419  0.2066 -1.5863
 4806TIP3    H235978   0.842   0.732   2.012 -0.6292  0.9460  3.0486
 4807TIP3   OH235979   0.837   3.854   1.801  0.2017  0.0942  0.0188
 4807TIP3    H135980   0.887   3.861   1.883 -0.4646 -2.6652  0.7702
 4807TIP3    H235981   0.746   3.869   1.827  0.1482  0.6661 -0.4954
 4808TIP3   OH235982   0.670   1.202   0.569 -0.3818  0.8797 -0.4315
 4808TIP3    H135983   0.666   1.291   0.536  1.4754  0.7952 -0.9935
 4808TIP3    H235984   0.590   1.160   0.536  1.0199  0.9662 -4.4030
 4809TIP3   OH235985   3.202   3.883   8.444  0.3952 -0.0398  0.4280
 4809TIP3    H135986   3.142   3.818   8.408 -0.3273  1.6183 -1.5543
 4809TIP3    H235987   3.147   3.939   8.500 -0.0505  1.5901 -1.5302
 4810TIP3   OH235988   2.872   5.616   1.114  0.0950 -0.1794  0.0633
 4810TIP3    H135989   2.832   5.601   1.200 -0.5518  1.4331  0.0722
 4810TIP3    H235990   2.801   5.651   1.060  0.4548 -1.2992 -1.1893
 4811TIP3   OH235991   0.252   3.511   1.313  0.0130 -0.0339 -0.0234
 4811TIP3    H135992   0.164   3.530   1.280  1.4319  0.6480 -3.8999
 4811TIP3    H235993   0.245   3.424   1.351 -2.2692 -0.1531 -0.5785
 4812TIP3   OH235994   4.558   6.012   0.560 -0.4488 -0.0497  0.6493
 4812TIP3    H135995   4.599   6.076   0.619  0.7498 -0.8323  0.7059
 4812TIP3    H235996   4.624   5.997   0.493 -1.8840  1.0100 -1.0750
 4813TIP3   OH235997   3.936   3.803   0.780  0.8150 -0.3152 -0.1521
 4813TIP3    H135998   3.936   3.711   0.756 -1.5654  0.2549 -3.0189
 4813TIP3    H235999   3.899   3.805   0.868 -0.8077 -2.0334 -0.7300
 4814TIP3   OH236000   6.236   4.828   2.517  0.2902 -0.0631 -0.6630
 4814TIP3    H136001   6.300   4.877   2.569  0.5909 -0.8779 -0.2593
 4814TIP3    H236002   6.190   4.896   2.467  1.1010  0.5832 -0.5624
 4815TIP3   OH236003   5.226   2.607   2.920 -0.0207  0.1609  0.4917
 4815TIP3    H136004   5.204   2.692   2.956 -0.3693 -0.0397  0.7545
 4815TIP3    H236005   5.319   2.595   2.941 -0.2066  0.0661  1.2844
 4816TIP3   OH236006   1.060   1.621   1.931  0.6099 -0.5088 -0.1008
 4816TIP3    H136007   1.050   1.661   2.017  1.3749  1.1736 -0.7616
 4816TIP3    H236008   1.135   1.562   1.940  0.0892 -1.0683  0.6255
 4817TIP3   OH236009   2.552   0.155   2.695  0.5477  0.1048 -0.5051
 4817TIP3    H136010   2.628   0.208   2.720 -1.0880  1.7355  1.3800
 4817TIP3    H236011   2.531   0.185   2.607  2.6132 -1.0934 -1.4821
 4818TIP3   OH236012   3.397   5.390   7.185 -0.8477 -0.7002  0.0790
 4818TIP3    H136013   3.347   5.409   7.264 -0.0447  0.7531  0.2795
 4818TIP3    H236014   3.353   5.438   7.115 -1.8848 -2.4260 -0.5171
 4819TIP3   OH236015   3.933   1.961   8.842  0.5039  0.0407  0.2203
 4819TIP3    H136016   3.909   2.021   8.771  1.0424  0.4347  0.3611
 4819TIP3    H236017   3.956   2.019   8.915  2.8312 -0.2594 -0.2012
 4820TIP3   OH236018   3.432   5.950   0.235 -0.1261 -0.0423  0.4771
 4820TIP3    H136019   3.508   6.005   0.217  0.6862 -1.6771 -1.5062
 4820TIP3    H236020   3.372   5.967   0.163 -0.5714 -0.5400  0.7232
 4821TIP3   OH236021   0.893   4.450   1.108  0.0166 -0.3781  0.1915
 4821TIP3    H136022   0.907   4.515   1.177  1.6538 -1.0060  0.4985
 4821TIP3    H236023   0.955   4.380   1.128  1.5364 -0.0071 -2.6084
 4822TIP3   OH236024   1.792   3.660   1.738 -0.1186  0.6831 -0.7289
 4822TIP3    H136025   1.834   3.734   1.694  1.8219  0.4159  0.4948
 4822TIP3    H236026   1.840   3.583   1.706 -1.4221  0.0510 -1.2137
 4823TIP3   OH236027   4.357   2.846   2.750 -0.2976  0.5284  0.1588
 4823TIP3    H136028   4.355   2.833   2.845  1.9053 -0.2550  0.1433
 4823TIP3    H236029   4.283   2.905   2.733 -0.3031  1.2912  2.4498
 4824TIP3   OH236030   5.076   6.277   8.438  0.3552 -0.2040  0.3835
 4824TIP3    H136031   5.079   6.295   8.344 -0.1732 -0.1416  0.3811
 4824TIP3    H236032   5.169   6.269   8.463  0.5442  0.9154  0.0838
 4825TIP3   OH236033   6.435   1.630   0.196 -0.3374 -0.3389  0.5060
 4825TIP3    H136034   6.460   1.609   0.286 -1.6395 -1.5318  0.6198
 4825TIP3    H236035   6.475   1.561   0.143  0.8219  0.6198  0.0811
 4826TIP3   OH236036   2.519   5.601   7.228 -0.0618  0.4495  0.1011
 4826TIP3    H136037   2.524   5.517   7.183  0.6463 -0.5040  1.8384
 4826TIP3    H236038   2.594   5.651   7.195 -0.4616  0.4179 -0.9039
 4827TIP3   OH236039   0.769   5.461   7.644 -0.0917  0.2129 -0.0514
 4827TIP3    H136040   0.820   5.452   7.564  1.0960 -0.2201  0.7271
 4827TIP3    H236041   0.742   5.553   7.645  1.4954  0.7173 -0.0286
 4828TIP3   OH236042   3.774   1.313   7.874  0.0632  0.2218 -0.0138
 4828TIP3    H136043   3.708   1.307   7.943 -0.3313  0.1208 -0.3934
 4828TIP3    H236044   3.728   1.285   7.795  0.6808 -0.2706 -0.2111
 4829TIP3   OH236045   1.048   4.818   1.104 -0.3404  0.6346  0.5059
 4829TIP3    H136046   1.088   4.743   1.060  0.2229  0.3785  1.4416
 4829TIP3    H236047   0.958   4.790   1.123 -0.8639  1.0431 -1.1837
 4830TIP3   OH236048   2.414   5.399   6.921 -0.2783  0.2438 -0.2659
 4830TIP3    H136049   2.448   5.400   7.010 -0.3454  1.5034 -0.2391
 4830TIP3    H236050   2.339   5.459   6.923 -0.5801 -0.0879 -1.0526
 4831TIP3   OH236051   0.475   1.701   0.961  0.4959  0.4174  0.0310
 4831TIP3    H136052   0.554   1.670   0.916  0.9189  1.6429 -0.1143
 4831TIP3    H236053   0.409   1.705   0.892  0.5309  0.1747 -0.0184
 4832TIP3   OH236054   0.448   6.713   0.597  0.1145 -0.4692  0.0587
 4832TIP3    H136055   0.457   6.629   0.551 -0.5802  0.4378 -1.8291
 4832TIP3    H236056   0.365   6.749   0.566  1.1446  1.6442 -0.4385
 4833TIP3   OH236057   6.158   6.026   8.514  0.1445  0.0133 -0.2184
 4833TIP3    H136058   6.225   6.054   8.575 -0.2373 -0.1591  0.2834
 4833TIP3    H236059   6.205   5.972   8.450  0.4123 -0.4658  0.3739
 4834TIP3   OH236060   3.492   5.723   3.019 -0.4685  0.4080 -0.2605
 4834TIP3    H136061   3.568   5.769   3.055 -0.4432 -0.1031  0.3721
 4834TIP3    H236062   3.499   5.634   3.055 -2.6266  0.9554  1.7439
 4835TIP3   OH236063   6.214   2.021   2.376 -0.0008  0.6174 -0.5297
 4835TIP3    H136064   6.295   2.070   2.368 -0.3153  1.4782  1.0851
 4835TIP3    H236065   6.147   2.087   2.393 -0.6278 -0.2431  0.5468
 4836TIP3   OH236066   5.339   3.712   2.360  0.2965 -0.5836  0.0672
 4836TIP3    H136067   5.419   3.661   2.371  1.3040  0.8757 -0.1720
 4836TIP3    H236068   5.332   3.725   2.265  0.1971 -0.0613  0.1463
 4837TIP3   OH236069   1.486   2.907   0.567  0.0123 -0.0772 -0.1809
 4837TIP3    H136070   1.419   2.953   0.617  0.4996 -0.0359  0.4559
 4837TIP3    H236071   1.502   2.962   0.490 -0.2715  0.1996 -0.0428
 4838TIP3   OH236072   4.128   1.839   1.302  0.4999 -0.4955 -0.0600
 4838TIP3    H136073   4.068   1.819   1.231  0.6862 -0.2617 -0.2848
 4838TIP3    H236074   4.148   1.754   1.341  0.2589 -0.6049 -0.1753
 4839TIP3   OH236075   4.846   4.541   8.150 -0.5394 -0.2037  0.2166
 4839TIP3    H136076   4.756   4.522   8.125 -0.6772 -0.5156  0.9231
 4839TIP3    H236077   4.848   4.525   8.244  0.4370 -0.9372  0.0871
 4840TIP3   OH236078   5.913   0.707   8.179  0.6707  0.2635 -0.2263
 4840TIP3    H136079   5.975   0.637   8.161  0.6374 -0.3522  1.8085
 4840TIP3    H236080   5.957   0.787   8.151  2.0796 -0.2475  0.4476
 4841TIP3   OH236081   4.008   2.701   8.320  0.4025  0.1849 -0.5469
 4841TIP3    H136082   4.057   2.697   8.238  0.5653  0.4388 -0.4637
 4841TIP3    H236083   4.027   2.619   8.364 -0.7289 -0.5349 -1.3486
 4842TIP3   OH236084   0.719   3.484   0.753 -0.1774  0.3028 -0.2954
 4842TIP3    H136085   0.712   3.518   0.842  0.7245  1.8015 -0.7585
 4842TIP3    H236086   0.654   3.533   0.703  0.9634  1.2356 -0.9258
 4843TIP3   OH236087   3.877   5.820   2.160 -0.2650 -0.0487  0.1219
 4843TIP3    H136088   3.948   5.808   2.096 -0.5220  0.7323 -0.3276
 4843TIP3    H236089   3.901   5.763   2.233 -1.0638 -2.6858 -1.5298
 4844TIP3   OH236090   5.518   0.667   8.804  0.0809  0.0032 -0.5654
 4844TIP3    H136091   5.600   0.698   8.840  1.1213 -2.3468 -0.7637
 4844TIP3    H236092   5.471   0.630   8.878  0.0539 -0.3964 -0.7795
 4845TIP3   OH236093   4.667   4.211   1.982  0.4705 -0.6321  0.3188
 4845TIP3    H136094   4.639   4.301   1.969  0.8436 -0.3322  1.5108
 4845TIP3    H236095   4.586   4.165   2.006  0.5680 -0.2420  1.4522
 4846TIP3   OH236096   4.615   0.235   3.212  0.4303  0.3806 -0.5756
 4846TIP3    H136097   4.598   0.206   3.302  0.3781  2.3977  0.1210
 4846TIP3    H236098   4.651   0.158   3.168 -1.6994 -1.3168  0.5053
 4847TIP3   OH236099   2.972   0.817   1.707 -0.6119  0.0692 -0.0127
 4847TIP3    H136100   2.969   0.878   1.780 -2.6115  0.1986 -0.1414
 4847TIP3    H236101   3.044   0.759   1.727  0.2777  1.4457  0.9502
 4848TIP3   OH236102   4.280   4.430   0.800  0.0964 -0.4993 -0.1247
 4848TIP3    H136103   4.292   4.339   0.776 -0.9500 -0.6157 -0.2477
 4848TIP3    H236104   4.354   4.450   0.858 -0.2859 -1.7467  0.8177
 4849TIP3   OH236105   6.238   0.623   7.742  0.1600  0.3309  0.2618
 4849TIP3    H136106   6.205   0.708   7.713 -3.2137 -1.1569 -0.6645
 4849TIP3    H236107   6.160   0.568   7.753  2.2514 -3.4423 -1.6884
 4850TIP3   OH236108   1.143   6.256   0.692  0.5062 -0.4041  0.3763
 4850TIP3    H136109   1.055   6.287   0.671  0.7787 -0.3646 -0.7940
 4850TIP3    H236110   1.166   6.199   0.619  1.8964  0.5155  0.0614
 4851TIP3   OH236111   3.433   4.079   0.445  0.1883 -0.3987 -0.0195
 4851TIP3    H136112   3.512   4.104   0.398  1.1969 -0.3437  1.6426
 4851TIP3    H236113   3.438   4.128   0.527 -2.1570  0.5027 -0.3345
 4852TIP3   OH236114   5.345   5.207   0.711 -0.4991  0.0360 -0.5120
 4852TIP3    H136115   5.425   5.226   0.663  0.2352  0.0642  0.6772
 4852TIP3    H236116   5.283   5.178   0.644 -0.6424  3.2893 -2.0035
 4853TIP3   OH236117   4.281   6.177   0.631  0.4641 -0.5135  0.4333
 4853TIP3    H136118   4.305   6.242   0.565  1.5257 -2.6159 -1.3560
 4853TIP3    H236119   4.334   6.200   0.707 -0.0897  1.3851  0.3230
 4854TIP3   OH236120   4.951   3.996   2.420 -0.0350  0.1038  1.3477
 4854TIP3    H136121   4.882   4.053   2.387  0.6136  0.0907 -0.1051
 4854TIP3    H236122   4.904   3.926   2.465 -0.9349  0.5725  1.1720
 4855TIP3   OH236123   0.179   2.982   1.433 -0.6102 -0.2760  0.6317
 4855TIP3    H136124   0.140   3.024   1.357 -2.2447  1.5409  2.3835
 4855TIP3    H236125   0.128   2.902   1.445 -0.7494 -0.2533  0.2143
 4856TIP3   OH236126   0.082   5.593   1.444  0.1374  0.4190 -0.0194
 4856TIP3    H136127   0.012   5.657   1.425  0.9839  1.1497 -0.7489
 4856TIP3    H236128   0.156   5.622   1.390  0.1910 -1.8488 -1.2763
 4857TIP3   OH236129   5.001   1.394   1.044  0.3697 -0.1647  0.4520
 4857TIP3    H136130   5.021   1.481   1.076  2.1902 -0.3261 -0.1236
 4857TIP3    H236131   5.070   1.338   1.080 -0.3035 -1.2318  0.1605
 4858TIP3   OH236132   0.004   3.972   1.006  0.3827 -0.4941  0.3052
 4858TIP3    H136133  -0.061   3.950   1.073 -0.5451  0.1975 -0.3599
 4858TIP3    H236134  -0.030   3.934   0.925 -0.0602  1.3032 -0.3833
 4859TIP3   OH236135   1.901   6.330   8.867 -0.2612  0.2833  0.0286
 4859TIP3    H136136   1.913   6.386   8.790 -1.5702  1.4803  0.6523
 4859TIP3    H236137   1.990   6.313   8.898  0.2476  0.4285 -1.2739
 4860TIP3   OH236138   2.557   6.274   2.585 -0.1813  0.4812 -0.1149
 4860TIP3    H136139   2.499   6.199   2.568  0.5958 -0.0875 -0.3183
 4860TIP3    H236140   2.532   6.338   2.519 -1.7373  0.9352  0.8661
 4861TIP3   OH236141   4.925   5.959   8.212  0.2479  0.4093  0.7430
 4861TIP3    H136142   4.983   6.019   8.166  0.7742 -0.3993  0.3300
 4861TIP3    H236143   4.975   5.878   8.220 -1.2571 -0.7524 -0.7615
 4862TIP3   OH236144   5.160   2.386   0.727  0.0662  0.1538  0.1222
 4862TIP3    H136145   5.119   2.424   0.805 -2.5315 -0.2684 -0.9231
 4862TIP3    H236146   5.168   2.293   0.746  0.9508  0.2879  0.4612
 4863TIP3   OH236147   0.599   5.211   0.516  0.5503 -0.7920 -0.2280
 4863TIP3    H136148   0.601   5.164   0.433  1.0096  0.7647 -1.1476
 4863TIP3    H236149   0.538   5.161   0.570 -1.4887 -0.6880 -2.2557
 4864TIP3   OH236150   4.634   0.556   0.341  0.0808  0.1089  0.2209
 4864TIP3    H136151   4.572   0.585   0.274  0.1273  0.6963  0.4285
 4864TIP3    H236152   4.591   0.481   0.383 -1.3329  1.6590  1.6370
 4865TIP3   OH236153   5.377   4.410   1.076  0.3161  0.5598  0.3685
 4865TIP3    H136154   5.372   4.319   1.107 -0.8301  0.3038 -0.5316
 4865TIP3    H236155   5.295   4.449   1.104  0.1234  0.8765 -0.6330
 4866TIP3   OH236156   1.312   3.483   7.807  0.1752  0.5163 -0.0164
 4866TIP3    H136157   1.229   3.437   7.811  1.4317 -1.9387 -0.1737
 4866TIP3    H236158   1.324   3.502   7.714 -0.6579  1.8514  0.1247
 4867TIP3   OH236159   4.387   4.562   7.210  0.1603  0.8750 -0.2993
 4867TIP3    H136160   4.482   4.546   7.210  0.0554  0.1233  0.7511
 4867TIP3    H236161   4.376   4.644   7.162  1.3795  1.1789 -0.0915
 4868TIP3   OH236162   5.937   0.060   8.583  0.4641 -0.3976  0.1281
 4868TIP3    H136163   6.015   0.107   8.615 -0.4764  0.4604  1.2555
 4868TIP3    H236164   5.972  -0.008   8.525  2.2008 -1.1173  1.8930
 4869TIP3   OH236165   6.585   2.106   2.732 -0.1466 -0.3728  0.1248
 4869TIP3    H136166   6.603   2.028   2.784 -3.5459 -2.1237 -1.0061
 4869TIP3    H236167   6.661   2.115   2.675  1.5349 -1.1745  2.1285
 4870TIP3   OH236168   4.820   2.033   2.433  0.5042 -0.0672  0.6608
 4870TIP3    H136169   4.744   2.091   2.439 -0.7070 -1.2774 -1.5220
 4870TIP3    H236170   4.783   1.948   2.407  2.4944 -1.0853  0.9463
 4871TIP3   OH236171   4.860   5.701   1.046  0.2333 -0.4976 -0.5497
 4871TIP3    H136172   4.925   5.740   1.105 -1.8675  0.3953  1.3274
 4871TIP3    H236173   4.801   5.773   1.025 -0.6285 -1.4569 -1.5205
 4872TIP3   OH236174   5.347   2.539   0.263  0.1535  0.2445 -0.0692
 4872TIP3    H136175   5.338   2.486   0.342  0.7183  1.2951  0.7150
 4872TIP3    H236176   5.309   2.623   0.285 -1.0747  0.0910 -1.4336
 4873TIP3   OH236177   0.184   4.901   0.635  0.1418 -0.2148  0.2124
 4873TIP3    H136178   0.125   4.843   0.684 -0.6970 -0.3806 -0.9491
 4873TIP3    H236179   0.127   4.971   0.602  0.4322 -0.7533 -1.5248
 4874TIP3   OH236180   4.649   1.825   2.310 -0.3632  0.2731 -0.0486
 4874TIP3    H136181   4.573   1.848   2.363  0.0795  0.3581  0.5672
 4874TIP3    H236182   4.624   1.848   2.221 -1.5502 -0.9420 -0.0539
 4875TIP3   OH236183   5.962   5.031   0.645 -0.3337  0.4602  0.4598
 4875TIP3    H136184   5.937   4.941   0.624 -2.0810  0.6411  1.5520
 4875TIP3    H236185   6.021   5.023   0.720 -0.5205  0.2164  0.5815
 4876TIP3   OH236186   0.845   4.316   7.473 -0.0981  0.4781 -0.0103
 4876TIP3    H136187   0.913   4.354   7.529  0.1303  1.3655 -0.8751
 4876TIP3    H236188   0.784   4.276   7.535  0.6844  0.5318  0.8279
 4877TIP3   OH236189   4.275   3.769   8.141 -0.2951  0.0575 -0.7408
 4877TIP3    H136190   4.285   3.708   8.214  0.4277 -0.7443 -1.4675
 4877TIP3    H236191   4.190   3.746   8.102 -0.4189  0.0995 -0.4966
 4878TIP3   OH236192   6.578   3.209   0.951 -0.4478 -0.0608 -0.1342
 4878TIP3    H136193   6.596   3.299   0.922 -1.9963  0.0206 -0.9892
 4878TIP3    H236194   6.492   3.214   0.992 -0.3557 -1.0791  0.2076
 4879TIP3   OH236195   0.051   5.221   1.785 -0.5119 -0.9030  0.1814
 4879TIP3    H136196   0.112   5.236   1.857 -0.3481  0.3658 -0.2037
 4879TIP3    H236197   0.107   5.203   1.709 -0.4693  1.7310 -0.5248
 4880TIP3   OH236198   3.963   4.864   1.138 -0.4222 -0.0566 -0.3301
 4880TIP3    H136199   3.931   4.854   1.228 -2.0851  0.0962 -0.8646
 4880TIP3    H236200   3.914   4.798   1.089  1.0165 -0.6365 -1.0073
 4881TIP3   OH236201   5.445   4.551   1.471  0.0726 -0.1777  0.1159
 4881TIP3    H136202   5.432   4.457   1.463 -0.6365 -0.1711  1.0619
 4881TIP3    H236203   5.366   4.590   1.433 -0.5934 -0.0256  1.5989
 4882TIP3   OH236204   2.743   1.736   2.296  0.3175  0.9192  0.5618
 4882TIP3    H136205   2.835   1.729   2.270  0.1413 -2.0295  0.4130
 4882TIP3    H236206   2.742   1.810   2.358  2.3018  2.4971 -1.1214
 4883TIP3   OH236207   1.938   0.465   0.443 -0.3883  0.0059 -0.0172
 4883TIP3    H136208   2.029   0.441   0.424 -0.8963 -1.5811 -0.6538
 4883TIP3    H236209   1.939   0.495   0.533  0.7101 -0.4136  0.1248
 4884TIP3   OH236210   5.896   1.208   1.818  0.1185  0.1241 -0.6736
 4884TIP3    H136211   5.914   1.195   1.725  1.8651  0.6008 -0.4372
 4884TIP3    H236212   5.803   1.233   1.821  0.0382  0.1239 -2.2746
 4885TIP3   OH236213   4.711   1.288   7.268  0.0385  0.0990  0.5908
 4885TIP3    H136214   4.755   1.331   7.342  0.2310 -0.2499  0.6801
 4885TIP3    H236215   4.782   1.271   7.206 -0.2293  1.0523  0.0005
 4886TIP3   OH236216   5.272   4.347   7.945  0.0082  0.2119  0.4165
 4886TIP3    H136217   5.191   4.397   7.938 -0.2127 -0.2207 -0.1405
 4886TIP3    H236218   5.337   4.399   7.896  0.2039  0.8122  1.2808
 4887TIP3   OH236219   5.738   0.298   0.141 -0.2620 -0.8845 -0.8603
 4887TIP3    H136220   5.728   0.298   0.046  2.2780 -1.2385 -1.1970
 4887TIP3    H236221   5.798   0.226   0.159  0.0747 -0.2134  0.9098
 4888TIP3   OH236222   3.972   5.041   0.271 -0.2564 -0.7199  0.5034
 4888TIP3    H136223   4.018   5.123   0.290 -1.1527 -0.1656  0.3390
 4888TIP3    H236224   4.036   4.989   0.222  0.3701 -0.1789  0.7236
 4889TIP3   OH236225   5.382   0.651   0.952  0.5321 -0.1370  0.5019
 4889TIP3    H136226   5.291   0.650   0.921  0.5437 -0.2785  0.4714
 4889TIP3    H236227   5.408   0.559   0.951  0.5417 -0.1386  0.9111
 4890TIP3   OH236228   1.798   0.951   2.731 -0.0127 -0.0549 -0.5172
 4890TIP3    H136229   1.808   1.040   2.765 -0.4615 -0.2374  0.0943
 4890TIP3    H236230   1.881   0.934   2.684  0.6440  0.1631  0.5374
 4891TIP3   OH236231   4.309   3.739   0.911  0.3317 -0.5603  0.5775
 4891TIP3    H136232   4.237   3.721   0.971 -1.2053 -1.4800 -1.4653
 4891TIP3    H236233   4.281   3.816   0.862  0.5280 -1.1775 -0.5327
 4892TIP3   OH236234   6.758   1.862   2.615  0.0213 -0.1702 -0.8094
 4892TIP3    H136235   6.812   1.818   2.550  1.2181 -1.0571  0.7057
 4892TIP3    H236236   6.821   1.895   2.680 -1.1909 -0.7157  0.7054
 4893TIP3   OH236237   4.610   3.838   1.907  0.6261 -0.4550  0.3462
 4893TIP3    H136238   4.689   3.818   1.856  0.4053 -0.6222  0.0703
 4893TIP3    H236239   4.538   3.802   1.856  0.1252  1.6095 -0.5394
 4894TIP3   OH236240   3.864   2.106   8.629  0.0651 -0.4683 -0.0473
 4894TIP3    H136241   3.880   2.105   8.534 -0.1675 -1.7408 -0.0821
 4894TIP3    H236242   3.864   2.199   8.652  1.4336 -0.1882 -1.0723
 4895TIP3   OH236243   3.877   1.588   1.251  0.0703 -0.5283 -0.2037
 4895TIP3    H136244   3.901   1.583   1.344 -1.1789  1.0811  0.2561
 4895TIP3    H236245   3.944   1.644   1.212  1.5985 -2.5891 -0.7042
 4896TIP3   OH236246   0.644   1.422   1.497 -0.4051 -0.2310  0.5624
 4896TIP3    H136247   0.572   1.417   1.559 -1.1069 -0.4265 -0.2372
 4896TIP3    H236248   0.625   1.500   1.444  0.1643 -0.0807  0.5673
 4897TIP3   OH236249   2.099   2.676   8.550  0.3563  0.1987 -0.5809
 4897TIP3    H136250   2.051   2.595   8.570 -0.2719  0.3438 -1.4743
 4897TIP3    H236251   2.186   2.646   8.524  0.8096 -0.0656  1.0667
 4898TIP3   OH236252   3.666   5.919   2.318 -0.1275 -0.4603  0.6343
 4898TIP3    H136253   3.736   5.899   2.256  0.3661 -0.6681  1.2418
 4898TIP3    H236254   3.662   6.015   2.320  0.7819 -0.4214  1.2782
 4899TIP3   OH236255   3.524   3.086   1.016  0.2756  0.1458  0.5752
 4899TIP3    H136256   3.584   3.155   0.988  1.2258  0.6587  3.4620
 4899TIP3    H236257   3.439   3.130   1.024  0.3084  0.3298 -0.0602
 4900TIP3   OH236258   1.404   5.243   1.435  0.4830 -0.4599  0.4679
 4900TIP3    H136259   1.447   5.326   1.420  1.5267 -0.7998  1.4212
 4900TIP3    H236260   1.470   5.177   1.413 -0.1349 -1.0185  0.2620
 4901TIP3   OH236261   3.112   3.483   0.336 -0.0635 -0.2555  0.0624
 4901TIP3    H136262   3.170   3.443   0.271 -0.4297  3.8154 -3.1711
 4901TIP3    H236263   3.060   3.410   0.370  0.7020 -2.8297 -3.7107
 4902TIP3   OH236264   6.149   2.466   1.448  0.1802 -0.5458  0.5309
 4902TIP3    H136265   6.204   2.388   1.444  0.2708 -0.6353  2.3759
 4902TIP3    H236266   6.206   2.538   1.422 -0.3454 -1.2084 -2.8323
 4903TIP3   OH236267   4.852   3.489   7.776 -0.3181 -0.4905  0.3431
 4903TIP3    H136268   4.797   3.554   7.733 -0.2998 -0.0737  0.9380
 4903TIP3    H236269   4.897   3.537   7.845 -0.5173 -1.1841  0.9774
 4904TIP3   OH236270   3.153   6.117   8.327  0.6573 -0.2741 -0.5519
 4904TIP3    H136271   3.068   6.074   8.337  1.0849 -0.6442  2.3135
 4904TIP3    H236272   3.140   6.177   8.253 -1.6479 -1.2917 -1.0863
 4905TIP3   OH236273   2.209   3.816   1.196 -0.0786 -0.2894 -0.8549
 4905TIP3    H136274   2.229   3.737   1.147 -0.6233 -1.1856  0.3281
 4905TIP3    H236275   2.207   3.788   1.287  0.2649  1.2051 -0.3626
 4906TIP3   OH236276   2.321   0.992   1.130 -0.2317  0.1622  0.2669
 4906TIP3    H136277   2.404   0.984   1.082  0.1528  2.0750  0.5403
 4906TIP3    H236278   2.348   1.014   1.219 -1.0106 -1.2498  0.8793
 4907TIP3   OH236279   3.809   6.012   1.948  0.2767 -0.5746 -0.3641
 4907TIP3    H136280   3.745   6.008   1.877 -0.6740  0.2283  0.4064
 4907TIP3    H236281   3.772   5.957   2.017 -0.4703  1.1942  0.7239
 4908TIP3   OH236282   0.251   3.177   2.501  0.3626  0.5453  0.7752
 4908TIP3    H136283   0.339   3.154   2.529  0.6632 -0.0239 -0.5572
 4908TIP3    H236284   0.260   3.203   2.410 -0.8852  0.2048  0.5301
 4909TIP3   OH236285   1.159   1.559   1.668 -0.2189  0.3807  0.5992
 4909TIP3    H136286   1.072   1.597   1.656 -0.4683 -0.6426 -1.4700
 4909TIP3    H236287   1.146   1.486   1.729 -1.6748 -2.0225 -2.2997
 4910TIP3   OH236288   3.000   6.744   1.247  0.1993 -0.0312  0.0628
 4910TIP3    H136289   2.913   6.716   1.276 -0.0138  0.1669 -0.3802
 4910TIP3    H236290   3.059   6.674   1.276 -0.0887 -0.1102  0.4668
 4911TIP3   OH236291   3.020   4.682   0.723  0.0381  0.5671  0.6050
 4911TIP3    H136292   2.948   4.739   0.751  0.4296  0.5583  1.6816
 4911TIP3    H236293   2.980   4.622   0.659 -0.8639  0.6942  1.0335
 4912TIP3   OH236294   2.974   2.759   7.493  0.0079 -0.1599 -0.0599
 4912TIP3    H136295   2.914   2.741   7.420 -1.2431  2.9939  0.0344
 4912TIP3    H236296   3.048   2.804   7.453  0.7931 -1.0914  0.2861
 4913TIP3   OH236297   6.019   6.104   3.418 -0.0087 -0.0729  0.4269
 4913TIP3    H136298   5.984   6.019   3.393 -1.9786  1.2858 -1.7639
 4913TIP3    H236299   6.082   6.125   3.348 -1.3906  1.3050 -0.4548
 4914TIP3   OH236300   4.218   5.228   1.282 -1.0375 -0.0193 -0.1041
 4914TIP3    H136301   4.129   5.193   1.276 -0.1313 -2.3349 -1.4731
 4914TIP3    H236302   4.262   5.195   1.204  0.7681  1.9158  0.0160
 4915TIP3   OH236303   4.474   3.250   1.384 -0.3825  0.5340 -0.3063
 4915TIP3    H136304   4.455   3.244   1.290  0.6677 -1.4820 -0.4331
 4915TIP3    H236305   4.407   3.196   1.425 -2.5238  3.5065  0.4515
 4916TIP3   OH236306   2.620   1.306   0.540  0.1464  0.1817  0.5339
 4916TIP3    H136307   2.548   1.351   0.496 -0.3713 -0.6530  0.5070
 4916TIP3    H236308   2.617   1.217   0.505  1.5007  0.2635  0.1765
 4917TIP3   OH236309   1.547   2.793   1.188 -0.1634 -0.1650 -0.5712
 4917TIP3    H136310   1.635   2.827   1.176 -0.4808  0.3640 -1.4696
 4917TIP3    H236311   1.537   2.783   1.283  0.2497  1.3983 -0.3484
 4918TIP3   OH236312   4.462   6.446   0.125  0.4354  0.5688  0.1571
 4918TIP3    H136313   4.460   6.364   0.175 -2.2002 -0.2354 -1.0967
 4918TIP3    H236314   4.399   6.432   0.054  0.0836  3.6100 -0.2446
 4919TIP3   OH236315   6.309   5.156   8.303 -0.7262 -0.3049 -0.2044
 4919TIP3    H136316   6.388   5.131   8.255 -1.2485  1.7831 -2.3449
 4919TIP3    H236317   6.268   5.073   8.327  2.2992 -1.4844  1.4534
 4920TIP3   OH236318   1.601   3.739   1.519 -0.1293 -0.7036 -0.5531
 4920TIP3    H136319   1.639   3.658   1.484  0.3468 -0.1841 -1.2698
 4920TIP3    H236320   1.641   3.749   1.605 -0.9865 -1.7739 -0.0040
 4921TIP3   OH236321   4.669   2.435   0.297  0.0338 -0.2349  0.4309
 4921TIP3    H136322   4.593   2.493   0.306  0.0128 -0.4613  2.0234
 4921TIP3    H236323   4.631   2.349   0.280  0.0207 -0.0566 -0.5323
 4922TIP3   OH236324   5.866   0.831   2.841 -0.0779  0.5315  0.5621
 4922TIP3    H136325   5.857   0.763   2.908  0.3539  0.6091  0.7018
 4922TIP3    H236326   5.928   0.794   2.778  0.2199  0.8286  0.6796
 4923TIP3   OH236327   2.884   5.872   8.231  0.5390  0.2211 -0.1098
 4923TIP3    H136328   2.815   5.828   8.181 -0.8856  1.4084  0.7100
 4923TIP3    H236329   2.935   5.920   8.166  0.2377 -0.2014 -0.6674
 4924TIP3   OH236330   6.736   3.068   0.631 -0.1358  0.1599  0.1089
 4924TIP3    H136331   6.813   3.122   0.650 -0.9033  0.5807  2.2873
 4924TIP3    H236332   6.764   2.979   0.653 -0.1629  0.2690  0.5976
 4925TIP3   OH236333   3.301   1.154   0.872 -0.2377 -0.3614  0.2087
 4925TIP3    H136334   3.229   1.210   0.902 -2.3906 -2.6234 -0.2990
 4925TIP3    H236335   3.325   1.103   0.950  1.1917  0.7017  0.4886
 4926TIP3   OH236336   5.828   4.497   3.298  0.3348  0.2741 -0.3507
 4926TIP3    H136337   5.808   4.547   3.219  0.8629  1.2145  0.0932
 4926TIP3    H236338   5.755   4.515   3.357 -0.2347 -0.7056 -0.7376
 4927TIP3   OH236339   0.892   4.641   1.308  0.3879  0.6449  0.4516
 4927TIP3    H136340   0.802   4.621   1.332 -0.1898  0.7127 -1.4846
 4927TIP3    H236341   0.936   4.658   1.391 -0.9273 -1.1376  1.5788
 4928TIP3   OH236342   2.394   2.579   1.385  0.4513  1.1100 -0.1229
 4928TIP3    H136343   2.377   2.666   1.422  1.7558  1.8438 -1.1818
 4928TIP3    H236344   2.470   2.547   1.434  0.4813  0.9146 -0.3000
 4929TIP3   OH236345   5.721   3.250   7.980  0.4092  0.3280 -0.4225
 4929TIP3    H136346   5.699   3.295   7.899  2.0006  1.2199 -0.4129
 4929TIP3    H236347   5.764   3.169   7.952 -0.2025  0.0058 -0.4481
 4930TIP3   OH236348   6.423   0.527   7.569  0.4182  0.4908 -0.2859
 4930TIP3    H136349   6.469   0.599   7.526 -0.3808  1.4316  0.4037
 4930TIP3    H236350   6.356   0.569   7.622  0.0489 -0.7587  0.2780
 4931TIP3   OH236351   3.999   4.765   0.036  1.0748 -0.7329  0.3856
 4931TIP3    H136352   4.068   4.789   0.098  2.2962 -0.6095 -0.9689
 4931TIP3    H236353   4.031   4.797  -0.048 -0.5093 -0.9584 -0.3278
 4932TIP3   OH236354   3.503   2.943   8.719  0.2070 -0.5261  0.0541
 4932TIP3    H136355   3.504   2.852   8.688  0.3376 -0.3295 -0.5326
 4932TIP3    H236356   3.440   2.943   8.791 -0.5758 -0.8630 -0.6108
 4933TIP3   OH236357   3.970   5.058   2.250 -0.3281  0.0688 -0.1568
 4933TIP3    H136358   3.881   5.072   2.218 -0.2768  2.1821  0.4481
 4933TIP3    H236359   3.965   5.081   2.343  0.4787 -1.5745  0.3211
 4934TIP3   OH236360   6.182   5.436   2.009  0.2377  0.6664 -0.1671
 4934TIP3    H136361   6.261   5.383   2.020 -0.1000  0.1316 -0.2458
 4934TIP3    H236362   6.210   5.526   2.024  0.6383  0.3730  0.9287
 4935TIP3   OH236363   6.360   5.956   2.547 -0.2949 -0.3446 -0.2383
 4935TIP3    H136364   6.286   5.904   2.578  0.7160 -1.6355  0.1114
 4935TIP3    H236365   6.417   5.965   2.623 -0.2284  0.9232 -0.4148
 4936TIP3   OH236366   4.481   2.242   0.919 -0.6888 -0.1698  0.2673
 4936TIP3    H136367   4.392   2.261   0.891 -0.6328  1.9548  1.3260
 4936TIP3    H236368   4.529   2.224   0.838 -1.7445  0.1144 -0.4390
 4937TIP3   OH236369   0.422   6.217   8.821 -0.0007 -0.1856 -0.0723
 4937TIP3    H136370   0.350   6.157   8.803 -0.8503  1.1176 -1.2741
 4937TIP3    H236371   0.388   6.303   8.796  1.9215  0.4854 -0.5580
 4938TIP3   OH236372   0.449   1.609   7.633 -0.8922 -0.2246  0.1419
 4938TIP3    H136373   0.387   1.538   7.652 -1.2276 -0.2877 -1.0997
 4938TIP3    H236374   0.443   1.622   7.538  1.0516 -0.2621 -0.0232
 4939TIP3   OH236375   4.522   3.034   0.944 -0.1438 -0.0868  0.0452
 4939TIP3    H136376   4.498   3.029   0.852 -0.2547 -2.6516  0.1503
 4939TIP3    H236377   4.609   3.075   0.943 -0.3341  0.3365 -1.1409
 4940TIP3   OH236378   2.020   0.695   1.815 -0.6145  0.2490  0.1132
 4940TIP3    H136379   2.051   0.758   1.750 -0.6104 -1.3418 -1.5183
 4940TIP3    H236380   1.983   0.748   1.884 -0.9230  2.0411 -1.3461
 4941TIP3   OH236381   0.981   1.622   0.626 -0.2145  0.6913 -0.4948
 4941TIP3    H136382   1.044   1.645   0.694 -0.8799  2.0972 -0.3293
 4941TIP3    H236383   1.027   1.556   0.573  0.8103  0.5667  0.5035
 4942TIP3   OH236384   6.236   1.993   3.049 -0.0764  0.3464 -0.4140
 4942TIP3    H136385   6.210   2.079   3.082 -1.7413 -0.2412 -0.0966
 4942TIP3    H236386   6.248   1.939   3.127 -2.1952 -0.5483 -0.6515
 4943TIP3   OH236387   1.886   0.525   1.084 -0.0871  0.0742  0.5045
 4943TIP3    H136388   1.896   0.499   1.175  0.8788  1.1305  0.7156
 4943TIP3    H236389   1.870   0.619   1.087  0.5050  0.2209 -0.4320
 4944TIP3   OH236390   5.425   5.176   2.411  0.3692  0.6319 -0.2457
 4944TIP3    H136391   5.510   5.171   2.454 -0.0806  0.7872  0.6995
 4944TIP3    H236392   5.442   5.216   2.326  1.6163 -1.6851 -1.1674
 4945TIP3   OH236393   4.065   0.387   0.013 -0.1172  0.1853 -0.3860
 4945TIP3    H136394   4.079   0.467  -0.038 -0.7268  1.2865  1.0932
 4945TIP3    H236395   4.000   0.337  -0.038  0.1753  0.6804 -1.2689
 4946TIP3   OH236396   6.016   2.516   2.017  0.2487  1.1509 -0.3117
 4946TIP3    H136397   5.978   2.562   1.942  0.2808  2.7022  0.5778
 4946TIP3    H236398   5.965   2.546   2.092  0.8733  0.4239  0.4275
 4947TIP3   OH236399   1.787   0.373   1.687  0.5850  0.2741 -0.1525
 4947TIP3    H136400   1.791   0.366   1.783 -1.1881  0.8564 -0.0004
 4947TIP3    H236401   1.871   0.338   1.657  1.3686  0.5120  1.6325
 4948TIP3   OH236402   3.567   0.414   0.506 -0.2785 -0.4293  0.1095
 4948TIP3    H136403   3.557   0.473   0.431 -0.0381  0.5273  0.8052
 4948TIP3    H236404   3.596   0.331   0.468 -1.6060 -0.4241 -1.0002
 4949TIP3   OH236405   5.955   0.465   1.585 -0.4288  0.0153 -0.2148
 4949TIP3    H136406   5.919   0.376   1.584 -1.8802  0.4583  2.4946
 4949TIP3    H236407   5.939   0.496   1.674  0.2993  2.9107 -0.9967
 4950TIP3   OH236408   5.396   4.460   0.811 -0.0732  0.5149  0.3046
 4950TIP3    H136409   5.415   4.436   0.901  0.0881 -0.9556 -0.0962
 4950TIP3    H236410   5.353   4.546   0.817  2.3080  1.7136  1.5581
 4951TIP3   OH236411   2.922   3.280   0.737 -0.1176 -0.7444  0.0522
 4951TIP3    H136412   2.969   3.355   0.699 -1.0581 -0.6068 -0.8669
 4951TIP3    H236413   2.841   3.317   0.771 -0.3437 -1.2654  0.0849
 4952TIP3   OH236414   6.688   2.521   8.868 -0.1874  0.1827  0.0750
 4952TIP3    H136415   6.716   2.612   8.855 -0.1207  0.3255  1.1046
 4952TIP3    H236416   6.744   2.470   8.811  0.4913  0.6948  0.2681
 4953TIP3   OH236417   0.678   5.511   3.124  0.7368 -0.1903  0.1653
 4953TIP3    H136418   0.729   5.513   3.206  2.4307 -1.0078 -0.8004
 4953TIP3    H236419   0.622   5.434   3.133  1.7202 -0.9412  0.1509
 4954TIP3   OH236420   6.010   3.408   0.873 -0.0655  0.2332 -0.1349
 4954TIP3    H136421   6.048   3.471   0.934 -0.1604 -0.6233  0.8340
 4954TIP3    H236422   6.076   3.339   0.865 -0.9784 -0.7646  0.7669
 4955TIP3   OH236423   2.877   5.636   0.515 -0.0220  0.3205 -0.4387
 4955TIP3    H136424   2.870   5.636   0.611  1.0687  1.7598 -0.3229
 4955TIP3    H236425   2.826   5.560   0.487 -0.9330  0.2727  1.2389
 4956TIP3   OH236426   4.575   4.124   1.484 -0.1942 -0.1624 -0.0779
 4956TIP3    H136427   4.610   4.142   1.396  0.7968 -0.7072  0.1938
 4956TIP3    H236428   4.482   4.147   1.477 -0.2304 -0.5910 -1.3925
 4957TIP3   OH236429   6.405   3.628   1.520 -0.0642 -0.6692  0.3987
 4957TIP3    H136430   6.352   3.549   1.533 -1.4401  0.1227 -0.2656
 4957TIP3    H236431   6.398   3.676   1.603 -4.1528  1.5925 -0.9907
 4958TIP3   OH236432   2.577   6.292   2.865  0.5780  0.3641 -0.0549
 4958TIP3    H136433   2.590   6.378   2.905  0.6114 -0.1209  1.0097
 4958TIP3    H236434   2.582   6.308   2.771 -0.0399  1.6196  0.1150
 4959TIP3   OH236435   1.223   5.500   1.599 -0.0268 -0.3098  0.0119
 4959TIP3    H136436   1.297   5.500   1.659  0.7392  0.8205 -0.9090
 4959TIP3    H236437   1.251   5.553   1.525 -1.4855 -0.4736 -0.6995
 4960TIP3   OH236438   0.008   5.397   2.562 -0.6918  0.3213 -0.2799
 4960TIP3    H136439   0.085   5.357   2.520 -1.1927  0.0092 -0.9286
 4960TIP3    H236440   0.038   5.419   2.650 -0.2349 -1.0140 -0.0668
 4961TIP3   OH236441   3.525   0.618   0.316  0.1306  0.0674  0.0554
 4961TIP3    H136442   3.537   0.709   0.340  0.3461 -0.0214  0.2901
 4961TIP3    H236443   3.433   0.612   0.290  0.2520  0.4664 -0.4897
 4962TIP3   OH236444   2.855   1.349   2.583  0.3182 -0.1589 -0.4391
 4962TIP3    H136445   2.863   1.268   2.632 -1.1228  0.1603  0.3910
 4962TIP3    H236446   2.787   1.331   2.518  1.1455 -0.1014 -1.3482
 4963TIP3   OH236447   2.112   3.212   8.594 -0.0476  0.2072  0.4858
 4963TIP3    H136448   2.146   3.301   8.592 -1.1181  0.6330  0.6259
 4963TIP3    H236449   2.163   3.169   8.663  2.0042  0.0321 -1.0441
 4964TIP3   OH236450   2.709   3.911   1.560  0.2229 -0.5195  0.0177
 4964TIP3    H136451   2.696   3.831   1.509  2.8812 -1.6517  0.9001
 4964TIP3    H236452   2.773   3.960   1.509 -0.4611  0.4774  0.1033
 4965TIP3   OH236453   3.675   0.823   3.365  0.3039  0.0412  0.2170
 4965TIP3    H136454   3.584   0.794   3.357  0.5254 -0.5714 -0.0819
 4965TIP3    H236455   3.706   0.785   3.447  0.3233  0.1762  0.2736
 4966TIP3   OH236456   4.794   5.443   8.082  0.2253  0.1713 -0.0893
 4966TIP3    H136457   4.865   5.503   8.055  1.0859 -0.3206  1.0009
 4966TIP3    H236458   4.714   5.488   8.055  0.8896  1.3494 -0.2042
 4967TIP3   OH236459   0.298   3.352   0.452 -0.4845  0.2858 -0.1113
 4967TIP3    H136460   0.243   3.280   0.421  0.2269  0.3030 -1.4917
 4967TIP3    H236461   0.236   3.416   0.487 -1.0448 -2.2545  4.2615
 4968TIP3   OH236462   4.453   1.298   8.838  0.2481 -0.2262  0.4752
 4968TIP3    H136463   4.460   1.379   8.889 -0.1414 -0.5344  1.0311
 4968TIP3    H236464   4.467   1.325   8.747  0.8349  0.3486  0.7342
 4969TIP3   OH236465   2.355   0.820   0.384  0.3600 -0.1126  0.5242
 4969TIP3    H136466   2.277   0.875   0.384  0.4931  0.1046 -0.4686
 4969TIP3    H236467   2.371   0.802   0.291 -0.3271 -2.7553  0.8334
 4970TIP3   OH236468   3.002   1.563   3.470 -0.5265 -0.5344  0.1228
 4970TIP3    H136469   3.049   1.638   3.435 -0.0257 -1.0814 -0.4025
 4970TIP3    H236470   2.909   1.588   3.464 -0.3107  1.2207  2.7156
 4971TIP3   OH236471   1.608   1.396   0.988 -0.1349  0.3298 -0.0896
 4971TIP3    H136472   1.599   1.457   1.061 -1.4814  1.4965 -1.1577
 4971TIP3    H236473   1.549   1.324   1.009  1.1185 -0.4426  0.9603
 4972TIP3   OH236474   6.760   5.990   8.027  0.5510 -0.4688  0.4838
 4972TIP3    H136475   6.706   6.049   7.975 -0.7600 -0.9897  1.2226
 4972TIP3    H236476   6.837   6.043   8.050  0.3922  0.2654 -0.6112
 4973TIP3   OH236477   1.714   1.779   2.934  0.4061  0.1536  0.9655
 4973TIP3    H136478   1.699   1.871   2.958  1.8980  1.4441 -2.4613
 4973TIP3    H236479   1.805   1.777   2.903  1.0135 -2.9551  2.5282
 4974TIP3   OH236480   5.172   1.657   3.316 -0.0050  0.5400  0.7012
 4974TIP3    H136481   5.213   1.571   3.303 -1.9430 -0.4381  0.6174
 4974TIP3    H236482   5.227   1.700   3.382  1.3309 -0.5313  0.3401
 4975TIP3   OH236483   2.711   5.362   8.789 -0.0285  0.2611  0.0134
 4975TIP3    H136484   2.760   5.295   8.838 -0.0452  0.0221 -0.2935
 4975TIP3    H236485   2.738   5.350   8.698 -0.4610  0.2975 -0.1232
 4976TIP3   OH236486   4.280   6.640   8.395  0.6198 -0.0296  0.3095
 4976TIP3    H136487   4.257   6.549   8.378 -0.8454 -0.1246  2.4072
 4976TIP3    H236488   4.268   6.651   8.489  0.4786  2.3916  0.0793
 4977TIP3   OH236489   1.815   5.731   7.027  0.1263  0.2638  0.3144
 4977TIP3    H136490   1.760   5.765   7.097  2.1591 -1.1962  2.8143
 4977TIP3    H236491   1.830   5.806   6.969  1.7530  2.8399  3.7580
 4978TIP3   OH236492   3.630   3.521   0.642 -0.1114  0.0298 -0.1736
 4978TIP3    H136493   3.659   3.612   0.648 -0.4287  0.0414  1.9506
 4978TIP3    H236494   3.538   3.526   0.617  0.7220  0.0925 -3.7680
 4979TIP3   OH236495   6.104   4.125   1.015  0.5576 -0.3720 -0.1488
 4979TIP3    H136496   6.089   4.032   0.998 -0.7470 -0.1432 -0.3660
 4979TIP3    H236497   6.193   4.129   1.050  0.5504 -1.7221  0.0766
 4980TIP3   OH236498   6.048   2.402   2.813 -0.1039 -0.1858  0.1950
 4980TIP3    H136499   5.991   2.441   2.879 -0.6574 -1.6599  0.6248
 4980TIP3    H236500   5.993   2.394   2.735 -0.0796 -0.3585  0.1951
 4981TIP3   OH236501   5.552   4.843   0.955 -0.5177 -0.2052  0.5550
 4981TIP3    H136502   5.641   4.876   0.967  0.5582 -1.9158 -1.8952
 4981TIP3    H236503   5.543   4.772   1.019  0.2095 -0.5595  0.2731
 4982TIP3   OH236504   5.941   4.746   7.989  0.0364 -0.4631 -0.1659
 4982TIP3    H136505   5.871   4.695   8.030 -1.0029  0.3656 -0.8528
 4982TIP3    H236506   5.981   4.794   8.061 -1.1979  0.3127  0.0327
 4983TIP3   OH236507   2.282   6.611   0.607 -0.2238  0.3504 -0.4100
 4983TIP3    H136508   2.377   6.614   0.600 -0.1106  0.1192  0.7327
 4983TIP3    H236509   2.260   6.682   0.668 -0.9140  1.2167 -1.6152
 4984TIP3   OH236510   3.818   5.105   0.838  0.3345 -0.0395 -0.2573
 4984TIP3    H136511   3.845   5.084   0.749 -1.9499 -0.1491 -0.9780
 4984TIP3    H236512   3.771   5.027   0.868 -0.5845  0.7084  0.3033
 4985TIP3   OH236513   1.269   2.768   2.732  0.0212  0.1818 -0.2374
 4985TIP3    H136514   1.176   2.754   2.717 -0.6037  1.8095  1.7363
 4985TIP3    H236515   1.289   2.852   2.692 -0.3090  1.6786  2.5270
 4986TIP3   OH236516   2.128   1.687   0.069 -0.2399 -0.5467 -0.1872
 4986TIP3    H136517   2.141   1.780   0.088 -0.2953 -0.2187 -1.6015
 4986TIP3    H236518   2.216   1.650   0.071  0.2825  0.2646 -2.9055
 4987TIP3   OH236519   0.188   3.651   1.995 -0.5321  0.5491 -0.3644
 4987TIP3    H136520   0.148   3.651   2.082 -0.1919  0.0753 -0.2022
 4987TIP3    H236521   0.120   3.617   1.937 -0.1368 -0.9699  0.0288
 4988TIP3   OH236522   2.249   5.996   8.845  0.1271 -0.0596  0.2988
 4988TIP3    H136523   2.214   5.909   8.864 -2.8837  1.0636  0.2963
 4988TIP3    H236524   2.241   6.044   8.927  0.0767  0.7547 -0.1734
 4989TIP3   OH236525   0.711   1.177   2.549  0.0612  0.7866  0.1478
 4989TIP3    H136526   0.742   1.103   2.497  0.4356  0.2136  1.1581
 4989TIP3    H236527   0.786   1.237   2.552  0.1577  0.6589  0.3139
 4990TIP3   OH236528   6.746   0.303   8.499 -0.0002 -0.5646  0.3245
 4990TIP3    H136529   6.744   0.353   8.581  1.8199 -0.8461  0.5984
 4990TIP3    H236530   6.795   0.224   8.521  0.8178 -0.4890 -1.0854
 4991TIP3   OH236531   5.901   4.140   7.450  0.3818 -0.0373  0.3103
 4991TIP3    H136532   5.836   4.082   7.411  1.2218 -0.3372 -0.6709
 4991TIP3    H236533   5.985   4.097   7.434  0.8351  0.2481  1.7202
 4992TIP3   OH236534   2.675   1.456   1.394  0.9557 -0.0518  0.0185
 4992TIP3    H136535   2.730   1.529   1.364 -0.2893  0.7417 -0.3834
 4992TIP3    H236536   2.614   1.440   1.321 -0.3427  0.0880  1.0489
 4993TIP3   OH236537   4.646   0.141   1.752  0.2094  0.1706  0.1584
 4993TIP3    H136538   4.682   0.197   1.820 -0.2527  1.3938 -0.5877
 4993TIP3    H236539   4.687   0.056   1.767  2.1996  1.1028  0.3031
 4994TIP3   OH236540   3.316   6.689   1.964  0.1792 -0.2119 -0.0837
 4994TIP3    H136541   3.244   6.707   2.023 -1.9167 -1.5448 -2.0709
 4994TIP3    H236542   3.372   6.766   1.970 -1.0016  0.5554  2.0602
 4995TIP3   OH236543   2.634   3.381   0.295 -0.2228 -0.7118 -0.2683
 4995TIP3    H136544   2.692   3.315   0.333  0.9030 -0.3668 -1.3251
 4995TIP3    H236545   2.549   3.337   0.288  0.5955 -2.2282 -1.3202
 4996TIP3   OH236546   5.099   6.067   8.030 -0.0637  0.0390 -0.0846
 4996TIP3    H136547   5.115   6.145   7.977  1.7244 -1.1172 -1.3632
 4996TIP3    H236548   5.186   6.038   8.057 -0.4440 -2.7216 -1.5053
 4997TIP3   OH236549   4.806   6.185   2.421  0.3344  0.5089  0.1972
 4997TIP3    H136550   4.713   6.167   2.435  0.3762  0.7916  0.9004
 4997TIP3    H236551   4.833   6.122   2.355 -0.4524  0.6880 -0.3101
 4998TIP3   OH236552   0.338   3.090   3.798  0.6663 -0.4322  0.5105
 4998TIP3    H136553   0.366   3.070   3.887 -0.9910 -2.1708  0.7269
 4998TIP3    H236554   0.287   3.013   3.772 -0.7079  0.9424 -1.1272
 4999TIP3   OH236555   3.979   1.364   2.122  0.0244  0.3509  0.2814
 4999TIP3    H136556   4.007   1.336   2.035  1.6148 -1.9983  1.4527
 4999TIP3    H236557   3.890   1.329   2.131  0.3745 -0.6092  0.1024
 5000TIP3   OH236558   6.393   0.200   0.632 -0.1500 -0.2222  0.2878
 5000TIP3    H136559   6.359   0.111   0.624  0.3361 -0.2789 -1.8822
 5000TIP3    H236560   6.323   0.256   0.600  1.0233 -0.2265 -2.6443
 5001TIP3   OH236561   0.830   4.937   7.835 -0.5771  0.2856 -0.0126
 5001TIP3    H136562   0.923   4.938   7.813 -0.4947 -1.4804  0.0817
 5001TIP3    H236563   0.803   5.028   7.832  1.5520  1.0583  1.6632
 5002TIP3   OH236564   2.089   4.242   2.158 -0.2261  0.2076  0.6470
 5002TIP3    H136565   2.052   4.243   2.246 -1.9871 -0.7001 -0.0388
 5002TIP3    H236566   2.107   4.150   2.140  1.5798  0.5342  0.6049
 5003TIP3   OH236567   4.148   6.609   3.167  0.1336 -0.2827  0.1467
 5003TIP3    H136568   4.085   6.579   3.101  0.7857 -0.1753 -0.5429
 5003TIP3    H236569   4.102   6.601   3.250 -0.8511 -0.0302 -0.3670
 5004TIP3   OH236570   0.696   1.488   1.109  0.8446 -0.1746  0.1491
 5004TIP3    H136571   0.712   1.501   1.015 -0.1841  0.2501  0.0189
 5004TIP3    H236572   0.783   1.482   1.147  1.3094 -2.2936 -1.0858
 5005TIP3   OH236573   2.356   4.353   2.094 -0.5841  0.1708 -0.4809
 5005TIP3    H136574   2.276   4.301   2.101 -1.9406  1.9292 -1.8136
 5005TIP3    H236575   2.360   4.377   2.001  2.1858 -0.8463 -0.7029
 5006TIP3   OH236576   5.179   5.555   1.790 -0.3453 -0.1961  0.3080
 5006TIP3    H136577   5.154   5.528   1.878 -2.0335 -1.2814 -0.4562
 5006TIP3    H236578   5.274   5.561   1.793 -0.1263 -2.7710  1.5341
 5007TIP3   OH236579   4.764   5.271   8.632 -0.0880  0.5269 -0.6290
 5007TIP3    H136580   4.765   5.275   8.537 -0.0399 -2.9786 -0.8793
 5007TIP3    H236581   4.839   5.216   8.655 -1.7490 -1.1096  1.2233
 5008TIP3   OH236582   3.549   6.553   2.120  0.0133  0.2480 -0.4457
 5008TIP3    H136583   3.503   6.572   2.202  0.0548 -3.2216  0.5242
 5008TIP3    H236584   3.638   6.584   2.134  0.4121 -1.5441  1.5013
 5009TIP3   OH236585   3.419   0.433   2.077  0.0024 -0.2641 -0.2873
 5009TIP3    H136586   3.357   0.460   2.144  1.2825 -0.2997  0.9422
 5009TIP3    H236587   3.482   0.504   2.071 -0.0085 -0.3246 -1.3607
 5010TIP3   OH236588   1.550   5.250   8.859  0.1206 -0.8338  0.6778
 5010TIP3    H136589   1.512   5.337   8.853 -0.9531 -1.2982  0.4810
 5010TIP3    H236590   1.514   5.203   8.784 -1.3942 -2.2169  2.1890
 5011TIP3   OH236591   5.259   3.225   1.527 -0.3868 -0.6448  0.3680
 5011TIP3    H136592   5.347   3.200   1.556  0.4377  2.7884  1.2837
 5011TIP3    H236593   5.274   3.283   1.453 -1.7864  0.9370  1.2668
 5012TIP3   OH236594   0.826   0.624   1.075 -0.8301  0.6843  0.0818
 5012TIP3    H136595   0.792   0.539   1.101  0.1903  0.9898  2.6285
 5012TIP3    H236596   0.842   0.670   1.157 -0.7043  3.0894 -1.2084
 5013TIP3   OH236597   1.842   0.228   0.619 -0.2253 -0.0722  0.3460
 5013TIP3    H136598   1.758   0.247   0.577 -0.5748 -0.3799  0.8905
 5013TIP3    H236599   1.885   0.313   0.628 -0.9164  0.2147  0.9869
 5014TIP3   OH236600   2.444   2.584   2.983  0.3432 -0.4354  0.1181
 5014TIP3    H136601   2.413   2.667   3.019  0.2207 -0.0892 -0.7608
 5014TIP3    H236602   2.417   2.518   3.047 -0.1043  0.1293  0.5190
 5015TIP3   OH236603   3.708   1.887   0.256  0.3124  0.4111  0.2305
 5015TIP3    H136604   3.718   1.822   0.186 -1.3738  0.5321 -0.1470
 5015TIP3    H236605   3.637   1.944   0.227  0.2909  1.1117  1.5683
 5016TIP3   OH236606   4.490   4.892   0.848  0.0424 -0.2786 -0.1130
 5016TIP3    H136607   4.559   4.829   0.824  0.1788  0.2289 -1.1350
 5016TIP3    H236608   4.409   4.846   0.827  0.0626 -0.8429  1.0012
 5017TIP3   OH236609   2.163   6.015   0.931 -0.0097  0.2670  0.1653
 5017TIP3    H136610   2.194   6.071   1.002  0.6386  0.5061 -0.2843
 5017TIP3    H236611   2.087   6.061   0.895 -0.1681  0.2849  0.5239
 5018TIP3   OH236612   3.368   5.531   1.116 -0.2481 -0.0802 -0.2758
 5018TIP3    H136613   3.394   5.473   1.045  2.6324  0.5720  0.1237
 5018TIP3    H236614   3.306   5.480   1.168 -0.9930 -1.2231 -2.1998
 5019TIP3   OH236615   1.231   4.635   7.953  0.2592  0.0777  0.0564
 5019TIP3    H136616   1.256   4.543   7.949 -0.4451 -0.1165 -0.0304
 5019TIP3    H236617   1.237   4.666   7.862 -0.9640 -0.2907 -0.1650
 5020TIP3   OH236618   3.615   4.767   7.325 -0.3108 -0.5462 -0.6176
 5020TIP3    H136619   3.555   4.718   7.269  1.1623 -0.7828 -2.0443
 5020TIP3    H236620   3.686   4.705   7.345 -0.2594 -0.1250  0.6274
 5021TIP3   OH236621   0.053   4.344   8.688 -0.4108  0.0446  0.4738
 5021TIP3    H136622   0.062   4.388   8.773 -0.2414 -0.5136  0.7477
 5021TIP3    H236623   0.142   4.334   8.656 -0.2543 -2.0281  1.4157
 5022TIP3   OH236624   0.318   1.778   7.802 -0.2412 -0.0163  0.0972
 5022TIP3    H136625   0.258   1.830   7.748 -2.9588 -3.4338 -0.5572
 5022TIP3    H236626   0.371   1.729   7.740 -1.8524 -2.3046  0.3740
 5023TIP3   OH236627   1.277   5.659   0.378 -0.1080 -0.1454 -0.1855
 5023TIP3    H136628   1.204   5.684   0.322  0.1831  0.1521 -0.4373
 5023TIP3    H236629   1.316   5.741   0.407 -0.3059 -0.2977  0.5285
 5024TIP3   OH236630   5.957   1.207   0.705 -0.0328 -0.7933  0.0793
 5024TIP3    H136631   6.024   1.138   0.708 -0.4258 -1.4624 -3.1168
 5024TIP3    H236632   5.983   1.262   0.632 -0.0514  2.2536  2.1979
 5025TIP3   OH236633   3.128   1.480   8.175 -0.4206  0.1971 -0.2561
 5025TIP3    H136634   3.103   1.396   8.139  0.7486 -0.0326 -0.5854
 5025TIP3    H236635   3.117   1.542   8.103  1.0847 -0.1155 -0.7980
 5026TIP3   OH236636   1.842   2.579   1.354 -0.1529 -0.2699 -0.0903
 5026TIP3    H136637   1.852   2.524   1.432 -0.1505 -1.4636 -0.8947
 5026TIP3    H236638   1.789   2.653   1.383 -2.0249 -1.7779  0.5755
 5027TIP3   OH236639   5.225   5.661   1.539 -0.3744 -1.0583  0.4360
 5027TIP3    H136640   5.182   5.602   1.601 -0.8297 -0.9441  0.2297
 5027TIP3    H236641   5.178   5.744   1.549  0.7512 -0.4789  1.2966
 5028TIP3   OH236642   2.099   1.616   1.663  0.1116 -0.4620 -0.1638
 5028TIP3    H136643   2.069   1.659   1.743 -1.8926 -2.6728  0.3656
 5028TIP3    H236644   2.020   1.605   1.610  0.9417 -1.4903 -1.2466
 5029TIP3   OH236645   4.912   3.949   2.094 -0.0128 -0.3393  0.4573
 5029TIP3    H136646   4.839   3.996   2.134  0.5052  0.8381  0.0703
 5029TIP3    H236647   4.989   3.981   2.140  0.3944 -0.4378 -0.1426
 5030TIP3   OH236648   2.412   2.142   1.203  0.2121 -0.1194  0.2517
 5030TIP3    H136649   2.355   2.066   1.216 -1.1339  0.5498 -1.4224
 5030TIP3    H236650   2.421   2.180   1.291 -1.1234 -0.8153  0.7129
 5031TIP3   OH236651   3.232   1.867   6.887 -0.1093 -0.2322 -0.0330
 5031TIP3    H136652   3.226   1.954   6.847 -0.7850 -0.3686 -0.2574
 5031TIP3    H236653   3.197   1.808   6.819 -0.2051 -0.6014  0.3357
 5032TIP3   OH236654   1.908   0.239   0.014  0.0085  0.1790 -0.0933
 5032TIP3    H136655   1.825   0.212   0.052 -0.8884  0.7068 -1.5567
 5032TIP3    H236656   1.945   0.301   0.077 -0.2564 -0.7445  0.9946
 5033TIP3   OH236657   1.431   5.484   0.531 -0.1689 -0.4228  0.6763
 5033TIP3    H136658   1.369   5.414   0.509  0.4448 -0.9950  0.7206
 5033TIP3    H236659   1.403   5.558   0.478  0.4416 -1.3425 -1.0098
 5034TIP3   OH236660   5.615   1.124   3.591 -0.1595  0.1931  0.1777
 5034TIP3    H136661   5.697   1.169   3.569 -1.6871  3.2952  0.2126
 5034TIP3    H236662   5.639   1.032   3.600  3.3096  0.9820  0.2892
 5035TIP3   OH236663   4.427   0.879   8.146 -0.4423  0.2419  0.0220
 5035TIP3    H136664   4.352   0.829   8.178 -0.5117  0.2248 -0.1628
 5035TIP3    H236665   4.465   0.824   8.078 -0.8143  0.6498 -0.5237
 5036TIP3   OH236666   0.509   1.646   8.340  0.1526  0.1373  0.1277
 5036TIP3    H136667   0.433   1.587   8.340 -0.4286  0.8362 -1.7190
 5036TIP3    H236668   0.473   1.732   8.361  0.4450  0.4463 -0.6116
 5037TIP3   OH236669   5.949   6.322   1.290 -0.2138  0.0162  0.0224
 5037TIP3    H136670   5.865   6.300   1.250  0.2835 -1.2800 -0.3763
 5037TIP3    H236671   5.928   6.351   1.378 -1.0521 -0.7619  0.0930
 5038TIP3   OH236672   4.867   5.265   1.046  0.0441 -0.2515 -0.1728
 5038TIP3    H136673   4.857   5.301   1.135  0.7540 -0.8735  0.1721
 5038TIP3    H236674   4.880   5.342   0.991 -2.2166  0.2814 -0.0277
 5039TIP3   OH236675   5.866   4.922   0.255 -0.0292 -0.1566 -0.3812
 5039TIP3    H136676   5.783   4.948   0.294 -1.2998  0.3953 -3.1920
 5039TIP3    H236677   5.903   5.003   0.221  0.9217 -0.6211 -0.4767
 5040TIP3   OH236678   4.331   4.555   8.738  0.6284  0.5885  0.4666
 5040TIP3    H136679   4.306   4.648   8.734  1.7872  0.8839 -0.2561
 5040TIP3    H236680   4.363   4.535   8.650 -1.6729 -1.1379 -0.0765
 5041TIP3   OH236681   3.690   1.297   0.355 -0.8724 -0.1421 -0.1063
 5041TIP3    H136682   3.650   1.211   0.360 -0.1583 -0.6046 -1.5073
 5041TIP3    H236683   3.657   1.334   0.273  1.1979 -0.4020 -1.1327
 5042TIP3   OH236684   3.566   3.813   2.474  0.7377  0.1786 -0.0360
 5042TIP3    H136685   3.649   3.858   2.490  0.7047  0.5078 -0.7506
 5042TIP3    H236686   3.569   3.737   2.532  0.6808  1.2199  1.3765
 5043TIP3   OH236687   0.154   6.604   0.407 -0.2402  0.2569 -0.1463
 5043TIP3    H136688   0.143   6.593   0.313 -0.8627 -0.5995  0.0147
 5043TIP3    H236689   0.219   6.537   0.431 -2.4950 -1.8514  0.5150
 5044TIP3   OH236690   0.780   2.193   2.372  0.1460  0.1500 -0.1078
 5044TIP3    H136691   0.777   2.103   2.340  0.5935  0.2239 -0.3618
 5044TIP3    H236692   0.709   2.198   2.436 -0.6013 -0.0801 -0.8951
 5045TIP3   OH236693   2.146   0.787   1.055 -0.1898 -0.2154  0.1646
 5045TIP3    H136694   2.176   0.709   1.101 -2.4171 -0.8511  0.6539
 5045TIP3    H236695   2.217   0.851   1.067  0.6164 -1.3530  1.8708
 5046TIP3   OH236696   0.310   2.362   0.350  0.0073 -0.0021  0.2873
 5046TIP3    H136697   0.390   2.372   0.299 -0.2168  2.0496  0.2685
 5046TIP3    H236698   0.277   2.451   0.362 -0.0671 -0.3554  3.8100
 5047TIP3   OH236699   0.158   2.269   1.113  0.1172  0.7204 -0.5166
 5047TIP3    H136700   0.249   2.260   1.085  0.3085  0.1298  0.2762
 5047TIP3    H236701   0.118   2.186   1.088 -0.0067  0.6657 -0.1318
 5048TIP3   OH236702   0.075   3.741   2.259  0.0474  0.1218  0.5263
 5048TIP3    H136703   0.037   3.778   2.179 -0.1867 -1.6661 -0.2388
 5048TIP3    H236704   0.094   3.817   2.314 -0.1690  1.3723 -1.0530
 5049TIP3   OH236705   3.788   6.631   2.209  0.1862 -0.1693  1.0616
 5049TIP3    H136706   3.785   6.727   2.208 -0.7770 -0.1931  1.0405
 5049TIP3    H236707   3.865   6.610   2.156 -0.7078  0.5694 -0.6223
 5050TIP3   OH236708   2.530   1.127   8.776 -0.0547  0.4604  0.0491
 5050TIP3    H136709   2.613   1.114   8.730  0.3195  1.1339  0.5073
 5050TIP3    H236710   2.553   1.121   8.869 -0.0931  2.7611  0.2707
 5051TIP3   OH236711   0.381   4.340   8.216  0.4074 -0.4017  0.1178
 5051TIP3    H136712   0.472   4.348   8.244  0.5054 -0.7758 -0.0807
 5051TIP3    H236713   0.354   4.253   8.246  0.4119 -0.6759 -0.6474
 5052TIP3   OH236714   2.728   0.666   2.400 -0.1502  0.1006 -0.2973
 5052TIP3    H136715   2.644   0.706   2.423 -0.2556 -0.2050 -0.1428
 5052TIP3    H236716   2.724   0.654   2.305 -1.7414 -3.0884  0.0233
 5053TIP3   OH236717   0.940   1.495   7.695 -0.1553 -0.3412  0.1890
 5053TIP3    H136718   0.868   1.552   7.724 -0.1437  0.0199 -0.4796
 5053TIP3    H236719   0.896   1.425   7.647 -0.1150 -0.5369  0.4347
 5054TIP3   OH236720   1.570   4.374   1.966  0.1256 -0.5266  0.1064
 5054TIP3    H136721   1.665   4.365   1.967  0.0624 -1.1874  0.4319
 5054TIP3    H236722   1.554   4.448   1.906  0.8772  0.2166  0.7997
 5055TIP3   OH236723   0.582   4.356   8.402  0.0395 -0.0703 -0.2790
 5055TIP3    H136724   0.557   4.277   8.450 -0.1364  0.4769  0.5497
 5055TIP3    H236725   0.677   4.351   8.396 -0.0266 -0.6932 -0.8497
 5056TIP3   OH236726   6.237   4.896   8.424  0.3390 -0.1297 -0.6352
 5056TIP3    H136727   6.308   4.913   8.487 -0.0153 -1.7959  0.2456
 5056TIP3    H236728   6.158   4.892   8.478 -0.6512  2.5421 -1.6934
 5057TIP3   OH236729   2.498   5.028   2.893 -0.3035  0.0791  0.1862
 5057TIP3    H136730   2.480   5.006   2.985 -2.6843  0.9851  0.0135
 5057TIP3    H236731   2.466   4.952   2.844 -2.6394  1.1158 -0.0406
 5058TIP3   OH236732   1.592   4.319   0.492  0.3978 -0.5523  0.2803
 5058TIP3    H136733   1.681   4.294   0.517  0.0555 -0.7893  1.2831
 5058TIP3    H236734   1.604   4.373   0.413  1.5050  0.3375  1.0297
 5059TIP3   OH236735   0.974   4.242   0.088 -0.1598 -0.0861  0.2866
 5059TIP3    H136736   0.960   4.306   0.017  2.1400 -0.2549 -0.4071
 5059TIP3    H236737   0.912   4.268   0.156 -0.3222  1.9898 -0.5677
 5060TIP3   OH236738   4.289   1.167   1.911 -0.1497  0.3232 -0.3117
 5060TIP3    H136739   4.309   1.205   1.996  0.3842  1.0807 -0.7588
 5060TIP3    H236740   4.194   1.157   1.911 -0.0604 -0.6065  0.7366
 5061TIP3   OH236741   0.575   4.475   2.986  0.3861  0.3427 -0.1356
 5061TIP3    H136742   0.621   4.529   2.922  0.4347  1.1130  0.5283
 5061TIP3    H236743   0.529   4.538   3.042 -0.1098 -0.3399  0.2341
 5062TIP3   OH236744   0.495   3.121   1.280 -0.1770 -0.3660 -0.5118
 5062TIP3    H136745   0.491   3.064   1.203  0.3719  0.9252 -1.5370
 5062TIP3    H236746   0.491   3.209   1.245  0.0381  0.2639  0.9626
 5063TIP3   OH236747   2.252   4.063   8.882 -0.6399  0.3325 -0.2496
 5063TIP3    H136748   2.205   4.055   8.965  0.8185 -0.5498  0.5374
 5063TIP3    H236749   2.249   4.156   8.862 -1.7015  0.4518  0.3552
 5064TIP3   OH236750   5.732   2.433   7.579 -0.1110 -0.2520 -0.8361
 5064TIP3    H136751   5.770   2.351   7.547 -0.5254 -0.3065 -1.1899
 5064TIP3    H236752   5.805   2.495   7.575  0.6969 -1.0094  1.0966
 5065TIP3   OH236753   3.431   5.248   7.549 -0.1124 -0.1940  0.0736
 5065TIP3    H136754   3.433   5.236   7.644  1.0743 -1.5264 -0.0867
 5065TIP3    H236755   3.455   5.162   7.513  0.8430  0.6439 -1.4045
 5066TIP3   OH236756   0.058   2.153   2.624 -0.3102 -0.3332  0.3779
 5066TIP3    H136757   0.150   2.135   2.603 -0.2714 -0.2916  0.5067
 5066TIP3    H236758   0.063   2.223   2.689 -0.4498  0.0031  0.0309
 5067TIP3   OH236759   1.698   1.962   2.176  0.5192 -0.1279 -0.1758
 5067TIP3    H136760   1.750   1.965   2.096  3.1816  3.1451  1.4139
 5067TIP3    H236761   1.736   1.891   2.227  2.3930  1.1352  0.2576
 5068TIP3   OH236762   5.142   2.360   3.555  0.4058 -0.1990 -0.1579
 5068TIP3    H136763   5.136   2.375   3.461 -0.0716  1.1695  0.0683
 5068TIP3    H236764   5.237   2.357   3.573  0.4962 -1.1381 -0.7674
 5069TIP3   OH236765   5.479   0.795   1.178  0.4988 -0.3408 -0.9631
 5069TIP3    H136766   5.388   0.823   1.194  0.4258 -1.6094  1.1628
 5069TIP3    H236767   5.472   0.734   1.104 -0.9048 -2.6073  0.8719
 5070TIP3   OH236768   0.823   4.335   7.202 -0.4201 -0.5709  0.3853
 5070TIP3    H136769   0.825   4.335   7.298 -2.0808 -0.8741  0.4507
 5070TIP3    H236770   0.773   4.256   7.180 -0.7996 -0.0378 -0.7053
 5071TIP3   OH236771   3.692   5.536   8.260 -0.0688  0.1313 -0.0341
 5071TIP3    H136772   3.649   5.606   8.211  0.8626  1.2429  0.6860
 5071TIP3    H236773   3.775   5.522   8.213  1.7466  2.5504  2.1717
 5072TIP3   OH236774   5.066   5.450   2.009 -0.2416 -0.1305 -0.2163
 5072TIP3    H136775   4.984   5.445   2.058  0.5453 -0.6325  1.0963
 5072TIP3    H236776   5.129   5.402   2.063  0.7365 -0.4258 -1.5838
 5073TIP3   OH236777   3.005   1.807   0.576  0.2865 -0.0807  0.2771
 5073TIP3    H136778   3.084   1.842   0.618  0.0758 -2.2618  2.7344
 5073TIP3    H236779   3.038   1.753   0.504  0.8726  0.6469 -0.0180
 5074TIP3   OH236780   1.766   4.789   2.177 -0.3216 -0.0716  0.7453
 5074TIP3    H136781   1.795   4.747   2.096  0.9728  0.5850  0.8395
 5074TIP3    H236782   1.679   4.754   2.193  0.4773 -2.3235  0.5253
 5075TIP3   OH236783   0.827   5.418   0.717 -0.1525 -0.1346  0.4234
 5075TIP3    H136784   0.844   5.461   0.800  1.0354  2.9247 -1.2592
 5075TIP3    H236785   0.751   5.464   0.681 -1.1609 -1.9531  0.1087
 5076TIP3   OH236786   0.697   6.596   7.911  0.1835  0.5540 -0.1466
 5076TIP3    H136787   0.626   6.657   7.891  0.2227  0.4003 -0.7905
 5076TIP3    H236788   0.679   6.519   7.857  0.6860  0.4015 -0.1083
 5077TIP3   OH236789   5.363   2.162   2.853  0.0757  0.0724  0.0599
 5077TIP3    H136790   5.294   2.227   2.840 -0.8583 -0.9351 -0.2104
 5077TIP3    H236791   5.391   2.137   2.765  0.1245 -0.1959  0.1471
 5078TIP3   OH236792   3.185   6.574   0.104  0.1187  0.0094 -0.1026
 5078TIP3    H136793   3.274   6.564   0.139  1.0468 -1.3841 -2.5817
 5078TIP3    H236794   3.146   6.487   0.112 -1.9568  1.0722  2.9941
 5079TIP3   OH236795   1.881   3.533   1.495  0.2749  0.0660  0.1045
 5079TIP3    H136796   1.838   3.556   1.413  0.4298 -1.4974 -0.4595
 5079TIP3    H236797   1.834   3.455   1.525  1.5335 -0.6099  0.3982
 5080TIP3   OH236798   2.212   4.391   0.773  0.5010  0.2755  0.2548
 5080TIP3    H136799   2.279   4.427   0.715  2.2456 -0.2434  1.8275
 5080TIP3    H236800   2.202   4.457   0.841 -0.2705  0.1454  0.2749
 5081TIP3   OH236801   3.024   4.717   1.741  0.1794 -0.3288  0.0908
 5081TIP3    H136802   3.055   4.628   1.725  0.3956 -0.2723  0.1931
 5081TIP3    H236803   3.098   4.773   1.716 -0.0780 -0.1618 -0.3084
 5082TIP3   OH236804   4.610   2.202   2.520  0.3252  0.3515 -0.1668
 5082TIP3    H136805   4.573   2.260   2.453 -1.5444  0.2908  0.7659
 5082TIP3    H236806   4.641   2.261   2.588 -1.0975  0.3159  0.5416
 5083TIP3   OH236807   0.762   1.175   1.480  0.2032  0.7092  0.2126
 5083TIP3    H136808   0.854   1.202   1.481  0.7026 -0.8083 -1.2569
 5083TIP3    H236809   0.714   1.254   1.455  1.4991  0.6668 -2.6903
 5084TIP3   OH236810   2.307   4.366   1.598 -0.5432  0.8335  0.4466
 5084TIP3    H136811   2.257   4.284   1.600  0.8650 -0.0566  1.7287
 5084TIP3    H236812   2.346   4.368   1.511 -2.6033  1.4756 -0.5300
 5085TIP3   OH236813   1.659   4.667   7.658 -0.2299 -0.2583  0.6244
 5085TIP3    H136814   1.748   4.638   7.678  0.5087  1.1243 -0.5211
 5085TIP3    H236815   1.606   4.588   7.667  0.9700 -0.9473  2.0900
 5086TIP3   OH236816   2.984   2.487   1.986 -0.3992  0.5441  0.0437
 5086TIP3    H136817   2.967   2.396   2.010 -0.8721  0.6519  0.1260
 5086TIP3    H236818   2.899   2.521   1.957  0.1907  0.3081 -2.1852
 5087TIP3   OH236819   3.970   5.743   2.415  0.0246  0.2009 -0.4113
 5087TIP3    H136820   4.065   5.756   2.406  0.3375 -1.4385  0.1641
 5087TIP3    H236821   3.959   5.648   2.410 -1.3539  0.1992  1.7936
 5088TIP3   OH236822   5.789   2.729   0.013  0.7226  0.1350  0.0364
 5088TIP3    H136823   5.873   2.703   0.050 -0.1377  0.0611  2.0387
 5088TIP3    H236824   5.724   2.680   0.063 -0.5940  1.2233 -0.5363
 5089TIP3   OH236825   2.925   4.543   0.507 -0.7007 -0.1452  0.1134
 5089TIP3    H136826   2.875   4.489   0.446 -1.8102  1.3265 -0.3485
 5089TIP3    H236827   2.897   4.633   0.488  1.0030  0.6018  0.9073
 5090TIP3   OH236828   0.527   3.104   2.640  0.3474 -0.1667  0.1170
 5090TIP3    H136829   0.616   3.134   2.655  1.3744 -2.1227 -1.5465
 5090TIP3    H236830   0.483   3.113   2.724  2.4195 -0.1074  1.2364
 5091TIP3   OH236831   1.376   4.763   7.635  0.2930  0.2093  0.0796
 5091TIP3    H136832   1.323   4.692   7.671 -1.1780  1.2705  0.1112
 5091TIP3    H236833   1.404   4.732   7.549 -0.3965 -0.3765  0.0643
 5092TIP3   OH236834   4.162   0.698   0.706 -0.0052 -0.5810  0.0325
 5092TIP3    H136835   4.219   0.774   0.706 -0.4402 -0.2023  2.2112
 5092TIP3    H236836   4.113   0.705   0.623 -0.8847  2.1936  0.6742
 5093TIP3   OH236837   2.828   3.976   8.026 -0.0580 -0.7549 -0.4240
 5093TIP3    H136838   2.844   3.934   7.942 -0.4059  2.2704 -2.1396
 5093TIP3    H236839   2.894   3.938   8.084  1.5585 -1.4730 -2.5908
 5094TIP3   OH236840   0.458   4.769   0.271 -0.4119 -0.3876 -0.3506
 5094TIP3    H136841   0.514   4.757   0.195  0.0039 -0.6457 -0.0097
 5094TIP3    H236842   0.513   4.743   0.346 -1.5291 -2.3549 -0.1420
 5095TIP3   OH236843   6.379   4.863   1.087  0.2958 -0.5391  0.2943
 5095TIP3    H136844   6.387   4.892   0.996  2.9923  1.5267  1.0641
 5095TIP3    H236845   6.332   4.935   1.130  1.2641 -0.2824  0.9667
 5096TIP3   OH236846   4.123   2.196   1.397 -0.8098  0.0865 -0.0719
 5096TIP3    H136847   4.053   2.262   1.392 -0.6599  0.2802  0.3011
 5096TIP3    H236848   4.121   2.166   1.488 -1.2132 -0.8022 -0.3594
 5097TIP3   OH236849   4.402   0.162   0.174  0.0562  0.0726  0.4332
 5097TIP3    H136850   4.396   0.066   0.180  1.5676  0.0089  1.9842
 5097TIP3    H236851   4.476   0.177   0.114 -0.6989  0.3074 -0.4584
 5098TIP3   OH236852   4.988   4.795   8.382 -0.1423 -0.2615 -0.2780
 5098TIP3    H136853   4.916   4.818   8.441  0.0143 -0.1029 -0.1469
 5098TIP3    H236854   5.010   4.877   8.338  0.0905 -0.2665 -0.1706
 5099TIP3   OH236855   3.744   0.330   2.003  0.7266 -0.5244 -0.0424
 5099TIP3    H136856   3.819   0.360   1.952  0.0583 -0.9941 -1.3621
 5099TIP3    H236857   3.735   0.394   2.073  1.0985  0.7051 -1.0840
 5100TIP3   OH236858   4.704   4.405   7.872  0.1347 -0.0212  0.1364
 5100TIP3    H136859   4.793   4.375   7.855 -0.5763 -1.1957 -1.9501
 5100TIP3    H236860   4.700   4.491   7.829  0.5381  0.5239  1.1581
 5101TIP3   OH236861   3.382   2.700   2.567 -0.4181 -0.0221  0.7696
 5101TIP3    H136862   3.311   2.701   2.504  0.2280 -0.9867 -0.0156
 5101TIP3    H236863   3.450   2.646   2.525  0.8244  0.9799  1.4273
 5102TIP3   OH236864   0.090   3.709   2.596 -0.9394 -0.0335 -0.1673
 5102TIP3    H136865   0.090   3.793   2.550 -1.0553  1.2924  2.1099
 5102TIP3    H236866   0.182   3.695   2.620 -0.9837 -0.3403 -0.1724
 5103TIP3   OH236867   1.456   3.296   2.953  0.2419 -0.2130 -0.0326
 5103TIP3    H136868   1.413   3.211   2.947 -1.8399  0.8014 -0.3959
 5103TIP3    H236869   1.549   3.275   2.959  0.0135 -2.4776 -2.3722
 5104TIP3   OH236870   4.094   2.196   2.742 -0.2337  0.4397 -0.1587
 5104TIP3    H136871   4.053   2.213   2.827  0.6310 -1.3675  0.6661
 5104TIP3    H236872   4.021   2.166   2.687 -0.6226  0.6163  0.2501
 5105TIP3   OH236873   0.238   5.127   7.652  0.2316  0.2930  0.5668
 5105TIP3    H136874   0.271   5.214   7.675 -1.4999  1.4863 -1.1178
 5105TIP3    H236875   0.283   5.105   7.571 -1.7340  1.2208 -0.8719
 5106TIP3   OH236876   4.920   4.419   0.254  0.5662  0.4617  0.0171
 5106TIP3    H136877   4.871   4.413   0.172  0.5790 -0.5990  0.0705
 5106TIP3    H236878   4.953   4.330   0.268  0.8721  0.7220  0.9826
 5107TIP3   OH236879   5.349   5.536   3.018 -0.0448 -0.3840 -0.4652
 5107TIP3    H136880   5.303   5.468   2.970 -1.4715  0.0987  0.1821
 5107TIP3    H236881   5.400   5.489   3.084 -1.5727 -0.8118  0.4452
 5108TIP3   OH236882   2.149   2.291   3.077 -0.5417 -0.2830  0.7192
 5108TIP3    H136883   2.235   2.315   3.114 -0.8608  1.8606  0.2058
 5108TIP3    H236884   2.087   2.343   3.128 -1.0355  2.4927 -2.4180
 5109TIP3   OH236885   5.605   5.023   2.129  0.2704 -0.8644 -0.0332
 5109TIP3    H136886   5.618   4.940   2.175  0.0921 -1.6363 -1.3069
 5109TIP3    H236887   5.580   4.997   2.040 -1.0366  0.5500 -0.1326
 5110TIP3   OH236888   2.367   0.386   2.816  0.5763 -0.4512 -0.2384
 5110TIP3    H136889   2.441   0.367   2.873 -0.2861  0.6168  1.3077
 5110TIP3    H236890   2.391   0.468   2.772  0.2051  0.0877  0.5302
 5111TIP3   OH236891   1.134   3.465   0.360  0.3971 -0.8536 -0.3466
 5111TIP3    H136892   1.193   3.540   0.369 -2.3273  1.5158 -0.8058
 5111TIP3    H236893   1.080   3.468   0.439 -0.2966 -1.8340 -0.7748
 5112TIP3   OH236894   0.805   2.478   0.398  0.1348 -0.0960  0.2963
 5112TIP3    H136895   0.831   2.417   0.467 -0.4113  0.0954  0.6814
 5112TIP3    H236896   0.746   2.540   0.442  1.4361  1.3040  0.1455
 5113TIP3   OH236897   6.431   1.887   2.192  0.2323 -0.8374 -0.4647
 5113TIP3    H136898   6.373   1.852   2.260 -0.1436  0.2679 -0.1891
 5113TIP3    H236899   6.385   1.963   2.158  1.2462 -0.2949 -0.6763
 5114TIP3   OH236900   3.118   2.247   1.381  0.4383  0.5710  0.6696
 5114TIP3    H136901   3.125   2.261   1.287 -0.4627 -1.0022  0.3185
 5114TIP3    H236902   3.179   2.175   1.398  0.0467  0.3515  1.1514
 5115TIP3   OH236903   3.235   0.141   0.414 -0.5730 -0.0171 -1.1031
 5115TIP3    H136904   3.263   0.186   0.494  0.9695 -2.0480 -0.4077
 5115TIP3    H236905   3.275   0.192   0.344  0.8675 -0.0521 -0.3580
 5116TIP3   OH236906   3.963   0.892   8.771  0.0979  0.6262 -0.0793
 5116TIP3    H136907   3.905   0.908   8.846 -0.5978  0.7095 -0.6307
 5116TIP3    H236908   3.904   0.876   8.698  0.7322 -1.5251 -0.2017
 5117TIP3   OH236909   3.130   0.306   7.816 -0.4369 -0.2475  0.1787
 5117TIP3    H136910   3.071   0.316   7.890 -0.4158 -1.3696  0.3647
 5117TIP3    H236911   3.092   0.235   7.764  0.2427 -0.3531 -0.1903
 5118TIP3   OH236912   6.597   1.045   1.081 -0.2284 -0.2557  0.3047
 5118TIP3    H136913   6.533   0.976   1.063  1.1080 -1.5030  0.1563
 5118TIP3    H236914   6.571   1.080   1.166  0.3062 -2.4534  1.4414
 5119TIP3   OH236915   3.917   3.461   8.595  0.4018 -0.2859 -0.2490
 5119TIP3    H136916   3.849   3.430   8.535  0.1457  0.7491 -0.5018
 5119TIP3    H236917   3.877   3.452   8.682 -0.0835  0.3523 -0.3988
 5120TIP3   OH236918   5.651   0.542   0.222 -0.1439 -0.3619 -0.1680
 5120TIP3    H136919   5.667   0.455   0.186  1.6761  0.2573 -1.0203
 5120TIP3    H236920   5.645   0.529   0.316  0.0427 -1.4294 -0.2963
 5121TIP3   OH236921   5.592   3.321   8.199 -0.1551 -0.3806 -0.3978
 5121TIP3    H136922   5.522   3.273   8.155 -0.2552 -0.1395 -0.5034
 5121TIP3    H236923   5.665   3.318   8.137  0.1346 -1.1643 -0.0272
 5122TIP3   OH236924   6.039   1.599   1.040  0.4990  0.1040 -0.4791
 5122TIP3    H136925   5.985   1.534   0.994  0.8775 -1.0880  0.7072
 5122TIP3    H236926   6.127   1.561   1.041  0.2338 -0.6496  2.4641
 5123TIP3   OH236927   1.003   4.316   2.299  0.0520 -0.2128 -0.7513
 5123TIP3    H136928   0.992   4.232   2.253 -2.5664  1.5838 -3.8146
 5123TIP3    H236929   1.087   4.349   2.267 -0.0050 -0.6552 -1.3891
 5124TIP3   OH236930   1.937   2.039   2.029  0.1384  0.2262  0.0432
 5124TIP3    H136931   1.971   2.125   2.052  0.1739 -0.0064  0.8850
 5124TIP3    H236932   2.014   1.984   2.016  0.1107  0.2484 -0.2339
 5125TIP3   OH236933   4.818   6.639   1.281  0.3404 -0.0220  0.7640
 5125TIP3    H136934   4.836   6.720   1.328 -1.3851  1.2771 -0.6230
 5125TIP3    H236935   4.877   6.640   1.206 -1.0752  1.1009 -0.4066
 5126TIP3   OH236936   0.561   0.698   1.815 -0.0377 -0.8131  0.0312
 5126TIP3    H136937   0.489   0.707   1.753 -0.4647 -0.2345  0.5883
 5126TIP3    H236938   0.527   0.737   1.896  0.9121 -0.5076  0.2943
 5127TIP3   OH236939   6.524   4.030   2.369 -0.5678 -0.0333  0.2943
 5127TIP3    H136940   6.529   4.060   2.459 -0.5949 -0.3451  0.4001
 5127TIP3    H236941   6.523   3.934   2.375  1.4488 -0.1336 -0.1285
 5128TIP3   OH236942   2.468   5.296   2.551  0.4903  0.0309 -0.1890
 5128TIP3    H136943   2.414   5.304   2.630 -0.0473 -0.7005 -0.4696
 5128TIP3    H236944   2.452   5.207   2.519 -1.5678  1.1646 -2.7217
 5129TIP3   OH236945   1.475   6.476   1.427  0.0899  0.1354 -0.3123
 5129TIP3    H136946   1.391   6.449   1.463 -0.3570 -0.6946 -1.8701
 5129TIP3    H236947   1.457   6.496   1.335  1.4746  0.5888 -0.5220
 5130TIP3   OH236948   3.801   0.887   0.092  0.0923 -0.1647 -0.2475
 5130TIP3    H136949   3.709   0.913   0.102 -0.3764 -2.0314  0.6920
 5130TIP3    H236950   3.838   0.893   0.180  1.2189  1.5750 -0.7745
 5131TIP3   OH236951   3.042   1.529   1.722  0.1714 -0.3973  0.2349
 5131TIP3    H136952   2.998   1.558   1.801  3.2379  1.3996  1.4381
 5131TIP3    H236953   3.081   1.444   1.745  1.4329  0.3309  0.8450
 5132TIP3   OH236954   2.952   2.993   7.706  0.3258 -0.6708  0.4404
 5132TIP3    H136955   2.927   2.908   7.671  0.3942 -0.5023 -0.0320
 5132TIP3    H236956   2.984   3.042   7.629  1.7211 -0.7382  0.9477
 5133TIP3   OH236957   2.686   2.721   1.694  0.1656 -0.7060  0.1662
 5133TIP3    H136958   2.737   2.691   1.619  1.0637  0.3336  0.3297
 5133TIP3    H236959   2.661   2.811   1.672 -0.8684 -0.8980  0.4733
 5134TIP3   OH236960   6.386   0.993   2.369 -0.2853 -0.0458 -0.2592
 5134TIP3    H136961   6.428   0.917   2.409  2.7344  1.0675 -1.0104
 5134TIP3    H236962   6.296   0.990   2.401  0.4403 -2.3499  1.9586
 5135TIP3   OH236963   4.671   0.908   3.077 -0.2792 -0.4271 -0.1900
 5135TIP3    H136964   4.706   0.922   2.989 -1.4089 -2.5490 -1.0464
 5135TIP3    H236965   4.748   0.888   3.131  0.3601  0.3093 -0.8074
 5136TIP3   OH236966   5.970   0.315   2.370  0.4178  0.1433 -0.2902
 5136TIP3    H136967   5.935   0.329   2.458  0.6165  2.5308 -0.5137
 5136TIP3    H236968   6.065   0.313   2.382  0.4085 -0.7271 -0.3264
 5137TIP3   OH236969   3.793   3.180   7.552 -0.0284  0.2015 -0.1327
 5137TIP3    H136970   3.764   3.218   7.469  0.7496 -1.2017 -1.0920
 5137TIP3    H236971   3.887   3.165   7.540 -0.2526 -1.7869  0.2577
 5138TIP3   OH236972   1.353   1.596   0.487 -0.0784 -0.5654  0.5075
 5138TIP3    H136973   1.370   1.681   0.446  1.8490 -1.6258 -1.0957
 5138TIP3    H236974   1.343   1.617   0.580  2.3930  1.2633  0.4829
 5139TIP3   OH236975   1.960   1.756   7.658 -0.1923 -0.5452 -0.6389
 5139TIP3    H136976   1.970   1.681   7.599 -0.8751 -0.6802 -0.6014
 5139TIP3    H236977   1.901   1.724   7.727 -2.3613  0.6634 -1.8166
 5140TIP3   OH236978   1.702   4.919   7.607  0.4808  0.2004  0.2070
 5140TIP3    H136979   1.684   4.825   7.608  1.1254  0.0546 -0.4235
 5140TIP3    H236980   1.684   4.946   7.517  1.5793  0.3913  0.0199
 5141TIP3   OH236981   3.731   2.899   1.303 -0.1577  0.1315 -0.6031
 5141TIP3    H136982   3.788   2.853   1.242  0.5110  0.5595 -0.3044
 5141TIP3    H236983   3.642   2.872   1.278  0.0309  0.9530 -2.3379
 5142TIP3   OH236984   4.831   4.808   8.021 -0.7542  0.2778  0.2667
 5142TIP3    H136985   4.822   4.871   8.093 -1.0876  0.2427  0.2572
 5142TIP3    H236986   4.826   4.722   8.063  0.3143  0.2429  0.3593
 5143TIP3   OH236987   6.102   4.397   2.024 -0.8787  0.0681 -0.1302
 5143TIP3    H136988   6.141   4.335   2.086  0.9117 -1.1237 -2.2876
 5143TIP3    H236989   6.035   4.442   2.075  0.2384 -1.0449  2.5616
 5144TIP3   OH236990   3.040   3.758   2.049  0.0289 -0.6070 -0.2245
 5144TIP3    H136991   3.002   3.753   1.962 -1.7137  1.3981  0.3460
 5144TIP3    H236992   3.134   3.768   2.034 -0.4668  2.7454 -2.0585
 5145TIP3   OH236993   3.863   0.458   8.291  0.1358 -0.3203  0.6664
 5145TIP3    H136994   3.923   0.521   8.250 -0.2690  0.4586  1.2485
 5145TIP3    H236995   3.889   0.457   8.383  1.7860 -2.8914  0.2845
 5146TIP3   OH236996   5.350   0.475   1.606 -0.3333  0.1350 -0.3846
 5146TIP3    H136997   5.429   0.422   1.621 -0.4020  0.3906  0.9993
 5146TIP3    H236998   5.344   0.481   1.510  0.2453 -1.5021 -0.5683
 5147TIP3   OH236999   0.340   0.997   3.580  0.3308  0.5047 -0.4453
 5147TIP3    H137000   0.347   0.903   3.594  0.3115  0.4352 -0.8787
 5147TIP3    H237001   0.246   1.015   3.583  0.2321  0.2927 -1.6541
 5148TIP3   OH237002   6.556   5.900   2.328  0.3963 -0.2375 -0.1985
 5148TIP3    H137003   6.517   5.938   2.407  1.5363 -1.4405  0.9863
 5148TIP3    H237004   6.647   5.931   2.329  0.7125 -1.1301 -0.4388
 5149TIP3   OH237005   5.983   5.889   2.226  0.1493  0.2895 -0.6220
 5149TIP3    H137006   5.963   5.983   2.231  0.7631  0.3411  2.1903
 5149TIP3    H237007   5.911   5.846   2.271  0.9816 -0.3944  0.0946
 5150TIP3   OH237008   1.886   4.930   8.406  0.3683  0.1828  0.6155
 5150TIP3    H137009   1.966   4.980   8.389 -0.3420  0.5844 -1.9171
 5150TIP3    H237010   1.828   4.953   8.334 -1.2870 -1.6747  1.2845
 5151TIP3   OH237011   5.200   4.660   0.814  0.5256 -0.0825 -0.0889
 5151TIP3    H137012   5.111   4.647   0.846  0.8765 -0.3026  0.8300
 5151TIP3    H237013   5.214   4.755   0.821  0.9515 -0.2334  1.4329
 5152TIP3   OH237014   4.832   5.946   2.277  0.1546  0.5823 -0.2883
 5152TIP3    H137015   4.788   5.900   2.205 -1.8134  0.2790  1.0386
 5152TIP3    H237016   4.789   5.914   2.356  2.1219  1.0585  1.0519
 5153TIP3   OH237017   4.820   3.051   8.603 -0.0091 -0.0832 -0.5918
 5153TIP3    H137018   4.730   3.029   8.579  0.1190 -1.7098  0.3289
 5153TIP3    H237019   4.840   3.129   8.550 -1.9160  0.2747 -0.8532
 5154TIP3   OH237020   0.102   5.398   6.890  0.2066 -0.5129 -0.2916
 5154TIP3    H137021   0.107   5.489   6.863 -1.9705 -0.5852 -1.1234
 5154TIP3    H237022   0.062   5.401   6.977  0.4189 -0.6768 -0.1856
 5155TIP3   OH237023   1.512   2.715   2.148  0.0850 -0.1248 -0.1092
 5155TIP3    H137024   1.597   2.713   2.105 -0.0091  1.7786 -0.4766
 5155TIP3    H237025   1.515   2.791   2.206 -0.4975 -1.4903  1.8256
 5156TIP3   OH237026   6.279   5.989   1.527 -0.1222  0.6575  0.0745
 5156TIP3    H137027   6.327   6.071   1.539 -3.2660  2.4980  1.2600
 5156TIP3    H237028   6.278   5.975   1.433 -0.3474  2.5663 -0.2435
 5157TIP3   OH237029   3.096   6.718   1.607 -0.0556  0.1781  0.4796
 5157TIP3    H137030   3.035   6.652   1.641  1.3498 -1.4280  0.0083
 5157TIP3    H237031   3.138   6.675   1.533 -0.7658  2.4652 -1.3729
 5158TIP3   OH237032   5.353   5.726   7.993  0.2656 -0.2818  0.2030
 5158TIP3    H137033   5.300   5.728   7.913 -0.3635  0.3984  0.6210
 5158TIP3    H237034   5.438   5.691   7.965 -0.1425 -0.6386 -0.6359
 5159TIP3   OH237035   4.328   5.572   7.547 -0.0842 -0.1486  0.3072
 5159TIP3    H137036   4.348   5.479   7.533  1.1228 -0.5662  3.8988
 5159TIP3    H237037   4.413   5.614   7.561 -0.6918  1.2983 -0.1214
 5160TIP3   OH237038   3.462   6.503   0.965  0.7490 -0.3866 -0.0855
 5160TIP3    H137039   3.482   6.410   0.980 -1.8427 -1.1649 -0.9240
 5160TIP3    H237040   3.481   6.517   0.872  1.2133 -0.0411  0.0593
 5161TIP3   OH237041   0.985   0.350   8.592  0.2718  0.1124  0.3334
 5161TIP3    H137042   1.021   0.432   8.558  0.4297  0.0028  0.2337
 5161TIP3    H237043   0.990   0.289   8.519  0.7843 -0.1748  0.6028
 5162TIP3   OH237044   1.780   1.964   8.255 -0.1318 -0.1889 -0.3727
 5162TIP3    H137045   1.767   2.059   8.258 -1.8048 -0.3981  0.4334
 5162TIP3    H237046   1.860   1.952   8.204 -0.0548  1.6326 -0.7489
 5163TIP3   OH237047   4.519   0.411   1.664 -0.0066  0.4365  0.1347
 5163TIP3    H137048   4.614   0.425   1.665 -0.1447  1.8614 -1.7230
 5163TIP3    H237049   4.482   0.499   1.666 -1.1470  0.1610 -3.2090
 5164TIP3   OH237050   3.296   4.682   0.682 -0.1854 -0.0945  0.3489
 5164TIP3    H137051   3.305   4.594   0.647  1.7170  0.2347 -0.0815
 5164TIP3    H237052   3.202   4.691   0.700 -0.4059 -2.2232  0.5073
 5165TIP3   OH237053   2.156   0.030   1.804 -0.2314  0.1788 -0.1212
 5165TIP3    H137054   2.089   0.084   1.846 -0.8788 -0.0177 -0.8815
 5165TIP3    H237055   2.234   0.043   1.858 -0.6719  1.0095  0.3412
 5166TIP3   OH237056   0.029   5.097   2.845  0.0364  0.0728  0.2127
 5166TIP3    H137057  -0.022   5.132   2.918 -2.3637  1.0959 -1.8242
 5166TIP3    H237058   0.114   5.142   2.851 -0.0967  0.1616  2.2689
 5167TIP3   OH237059   6.701   5.896   8.851  0.1396 -0.2216  0.3132
 5167TIP3    H137060   6.720   5.917   8.760  1.3298  0.4104  0.6932
 5167TIP3    H237061   6.609   5.922   8.863  0.6963  2.1551 -0.0348
 5168TIP3   OH237062   0.367   3.894   8.794 -0.3154 -0.1286  0.2079
 5168TIP3    H137063   0.310   3.954   8.842 -2.3254 -0.0934 -2.0335
 5168TIP3    H237064   0.376   3.934   8.707  1.6769 -1.0654 -0.0767
 5169TIP3   OH237065   6.054   3.331   0.235 -0.7920 -0.2265  1.0283
 5169TIP3    H137066   6.027   3.314   0.145 -1.2148 -0.6907  1.2392
 5169TIP3    H237067   6.106   3.411   0.230 -3.6119  1.7624  0.8290
 5170TIP3   OH237068   2.700   5.188   2.068  0.0454 -0.5651  0.0301
 5170TIP3    H137069   2.746   5.129   2.007 -0.0564 -2.0185  1.2799
 5170TIP3    H237070   2.769   5.222   2.125 -0.0806 -0.6284  0.2215
 5171TIP3   OH237071   5.132   0.237   8.225  0.3599  0.3958  0.0212
 5171TIP3    H137072   5.117   0.292   8.148 -0.0243  0.3440  0.0569
 5171TIP3    H237073   5.215   0.268   8.261  0.0376  1.0934  0.1700
 5172TIP3   OH237074   1.680   0.253   2.402  0.0566 -0.1701  0.1623
 5172TIP3    H137075   1.770   0.253   2.436  0.8344 -0.7260 -1.7734
 5172TIP3    H237076   1.636   0.323   2.451  1.3689 -0.2728  1.5577
 5173TIP3   OH237077   2.648   2.651   8.363 -0.4763  0.0626 -0.4723
 5173TIP3    H137078   2.616   2.585   8.302  0.4958  0.7774 -1.7952
 5173TIP3    H237079   2.692   2.716   8.308  0.8792  0.4685  1.0102
 5174TIP3   OH237080   1.522   2.605   3.317 -0.1415 -0.3513  0.1682
 5174TIP3    H137081   1.563   2.567   3.239 -0.3510  2.0793 -1.2545
 5174TIP3    H237082   1.567   2.689   3.329  0.0041 -0.7253  2.8237
 5175TIP3   OH237083   2.385   4.882   2.028  0.2300  0.1604  0.4006
 5175TIP3    H137084   2.302   4.835   2.013  0.9824 -0.9475 -0.4682
 5175TIP3    H237085   2.368   4.971   1.999 -0.7672  0.0377  0.5782
 5176TIP3   OH237086   4.001   3.278   0.388  0.0797  0.3893  0.2258
 5176TIP3    H137087   3.966   3.229   0.314 -0.4421 -0.6897  1.1431
 5176TIP3    H237088   3.925   3.318   0.429  0.2632  0.3908  0.5758
 5177TIP3   OH237089   2.807   4.676   8.854  0.3948 -0.5608 -0.0218
 5177TIP3    H137090   2.862   4.676   8.933 -1.9142 -2.0033  1.7592
 5177TIP3    H237091   2.786   4.768   8.839  0.3035 -0.3035  1.5111
 5178TIP3   OH237092   0.570   3.993   2.946  0.4254  0.1131 -0.7915
 5178TIP3    H137093   0.501   3.996   2.880  0.3164 -1.0001 -0.7621
 5178TIP3    H237094   0.541   4.052   3.015 -0.1115  0.2669 -1.1465
 5179TIP3   OH237095   2.570   1.962   8.588  0.1045  0.0947  0.4697
 5179TIP3    H137096   2.666   1.960   8.583  0.0824  0.9499 -0.7310
 5179TIP3    H237097   2.544   1.872   8.569  0.6229  0.3805 -1.9375
 5180TIP3   OH237098   3.341   0.245   2.953  0.3324  0.2441 -0.4196
 5180TIP3    H137099   3.356   0.335   2.924 -0.9759  0.8461  0.6754
 5180TIP3    H237100   3.395   0.236   3.032 -0.7466  0.6112  0.3790
 5181TIP3   OH237101   2.376   3.857   1.485 -0.2661  0.3794 -0.1920
 5181TIP3    H137102   2.288   3.833   1.514 -0.0721 -1.9204 -1.2583
 5181TIP3    H237103   2.418   3.891   1.564 -1.7222  0.3822  0.6228
 5182TIP3   OH237104   1.646   4.849   0.602 -0.1101  0.1759  0.4700
 5182TIP3    H137105   1.665   4.761   0.634 -1.5853 -0.4398 -0.2524
 5182TIP3    H237106   1.557   4.843   0.567 -0.6594  2.2256  1.3853
 5183TIP3   OH237107   3.764   2.036   2.985  0.4912 -0.2778 -1.0051
 5183TIP3    H137108   3.743   2.126   2.961 -1.2687 -0.4892 -0.4407
 5183TIP3    H237109   3.689   1.985   2.955  0.3422 -1.1855  0.7385
 5184TIP3   OH237110   0.189   1.675   2.809  1.0525  0.4323  0.7176
 5184TIP3    H137111   0.106   1.659   2.855  2.2605 -0.7996  2.6277
 5184TIP3    H237112   0.245   1.714   2.875  2.0557  1.1107 -0.5067
 5185TIP3   OH237113   2.831   1.350   8.118  0.0563 -0.0366  0.9422
 5185TIP3    H137114   2.891   1.282   8.147  0.2975 -0.6963 -0.9649
 5185TIP3    H237115   2.762   1.303   8.071  0.5723  1.0067 -0.9962
 5186TIP3   OH237116   3.088   6.496   8.104  0.1495 -0.2412 -0.2826
 5186TIP3    H137117   3.131   6.412   8.087  1.3445  0.1599  0.6620
 5186TIP3    H237118   2.994   6.476   8.100  0.3099 -0.9103 -3.5659
 5187TIP3   OH237119   3.130   2.808   0.031 -0.5880 -0.5029  0.2099
 5187TIP3    H137120   3.053   2.754   0.049  0.1606 -1.6421  0.0760
 5187TIP3    H237121   3.155   2.786  -0.058  1.1789 -1.8228  0.9752
 5188TIP3   OH237122   3.959   5.021   8.781 -0.7216  0.4840  0.3910
 5188TIP3    H137123   4.012   5.089   8.821  2.1557 -1.8756  0.8971
 5188TIP3    H237124   3.995   5.011   8.693 -0.2965 -1.1653  0.7325
 5189TIP3   OH237125   4.524   1.551   0.091  0.0182 -0.6745  0.1582
 5189TIP3    H137126   4.569   1.588   0.168 -0.0491 -0.0908 -0.0810
 5189TIP3    H237127   4.582   1.572   0.018 -0.7535  0.2887 -0.1885
 5190TIP3   OH237128   1.530   1.197   0.280 -0.1718 -0.2116  0.0149
 5190TIP3    H137129   1.564   1.233   0.198  2.7052  2.0729  1.9704
 5190TIP3    H237130   1.550   1.104   0.276 -1.1293 -0.3873 -2.2485
 5191TIP3   OH237131   1.747   6.245   7.886 -0.5545 -0.3243 -0.5683
 5191TIP3    H137132   1.707   6.327   7.916 -0.2526 -0.1353 -0.6784
 5191TIP3    H237133   1.732   6.184   7.957  0.8634  0.3373  0.3542
 5192TIP3   OH237134   3.766   4.358   1.728  0.7428 -0.0545  0.0707
 5192TIP3    H137135   3.705   4.399   1.790 -0.4599 -1.2113 -0.3056
 5192TIP3    H237136   3.816   4.295   1.781  3.0432  2.1914  0.7876
 5193TIP3   OH237137   4.288   4.033   8.186 -0.3123 -0.0288  0.3601
 5193TIP3    H137138   4.283   3.940   8.164 -0.2049  0.3514 -1.4244
 5193TIP3    H237139   4.205   4.069   8.155  0.6966  0.9066 -1.4109
 5194TIP3   OH237140   6.445   5.645   1.286  0.4434  0.3548  0.1044
 5194TIP3    H137141   6.518   5.637   1.224  0.9787 -0.9078  0.8772
 5194TIP3    H237142   6.423   5.555   1.310 -0.9552  0.7519  0.3791
 5195TIP3   OH237143   1.307   4.406   8.191  0.3088  0.7874  0.3288
 5195TIP3    H137144   1.352   4.378   8.271 -1.2297  0.7735  1.2393
 5195TIP3    H237145   1.259   4.329   8.162 -1.9271  1.6931  1.4139
 5196TIP3   OH237146   2.183   6.573   8.679 -0.3964 -0.1400  0.6061
 5196TIP3    H137147   2.091   6.572   8.651  0.3803  0.6122 -2.2539
 5196TIP3    H237148   2.211   6.482   8.673 -0.0124  0.0712 -2.3094
 5197TIP3   OH237149   6.528   4.196   7.566  0.0693 -0.1392  0.0522
 5197TIP3    H137150   6.527   4.191   7.470  2.1287  0.9477 -0.0726
 5197TIP3    H237151   6.620   4.198   7.589 -0.3812  1.2946  1.9813
 5198TIP3   OH237152   5.891   1.896   7.771 -0.0441  0.3494 -0.2635
 5198TIP3    H137153   5.804   1.903   7.732  0.4432  0.0643 -1.4433
 5198TIP3    H237154   5.943   1.848   7.706  0.4457 -1.4367  1.3466
 5199TIP3   OH237155   5.264   4.369   0.275  0.8557 -0.0620 -0.0514
 5199TIP3    H137156   5.194   4.324   0.322  1.8601 -0.7243  0.8442
 5199TIP3    H237157   5.294   4.304   0.211  1.3116 -0.1269  0.2314
 5200TIP3   OH237158   5.500   3.855   0.892 -0.1865  0.5349  0.2216
 5200TIP3    H137159   5.521   3.811   0.810  0.7712  1.7468 -0.2055
 5200TIP3    H237160   5.516   3.948   0.875 -0.0668  0.8178  1.7479
 5201TIP3   OH237161   2.449   2.909   8.109  0.8399 -0.1037  0.2258
 5201TIP3    H137162   2.471   2.968   8.037  0.4734  0.3256  0.4605
 5201TIP3    H237163   2.514   2.928   8.176  1.4249 -0.7823 -0.1332
 5202TIP3   OH237164   3.148   0.176   1.520  0.1313  0.5583 -0.2145
 5202TIP3    H137165   3.074   0.225   1.556  0.2616  0.4027  0.2701
 5202TIP3    H237166   3.131   0.086   1.546  2.1211  0.9077  2.7842
 5203TIP3   OH237167   1.371   0.131   2.760 -0.3554  0.0187  0.1587
 5203TIP3    H137168   1.333   0.076   2.829 -0.1626 -0.6983 -0.2977
 5203TIP3    H237169   1.302   0.195   2.741 -0.4540  0.1558  0.9312
 5204TIP3   OH237170   6.040   6.377   7.897 -0.2029 -0.5317  0.7403
 5204TIP3    H137171   5.962   6.408   7.851  0.9239 -1.1595 -1.7480
 5204TIP3    H237172   6.069   6.452   7.948 -0.5816  0.8084 -0.9215
 5205TIP3   OH237173   4.743   6.174   8.244  0.0634 -0.7491 -0.1234
 5205TIP3    H137174   4.812   6.108   8.249 -0.7735 -1.5883  1.0252
 5205TIP3    H237175   4.720   6.178   8.152 -0.0069 -2.2401 -0.1995
 5206TIP3   OH237176   3.277   0.667   0.217 -0.1087  0.4282  0.0793
 5206TIP3    H137177   3.243   0.684   0.129  0.5098  0.4951 -0.1493
 5206TIP3    H237178   3.278   0.753   0.259 -0.8895  0.3217  0.3334
 5207TIP3   OH237179   1.874   4.664   8.112  0.1219 -0.5309  0.0031
 5207TIP3    H137180   1.951   4.616   8.144  1.1703  2.0132  1.6658
 5207TIP3    H237181   1.810   4.656   8.182 -0.9434 -2.0700 -1.0895
 5208TIP3   OH237182   3.639   5.790   2.046  0.3570 -0.3370  0.4591
 5208TIP3    H137183   3.723   5.789   2.091  0.9655 -0.1682 -0.6291
 5208TIP3    H237184   3.621   5.697   2.028 -0.6824 -0.5706  2.4025
 5209TIP3   OH237185   6.607   5.810   0.721 -0.5150 -0.0695  0.3003
 5209TIP3    H137186   6.539   5.756   0.762 -0.3295 -0.3290  0.2694
 5209TIP3    H237187   6.620   5.883   0.782 -1.2066  0.2730  0.0424
 5210TIP3   OH237188   4.303   3.364   2.694 -0.1149 -0.6418 -0.0154
 5210TIP3    H137189   4.259   3.326   2.771 -1.3382 -0.0760 -0.4194
 5210TIP3    H237190   4.363   3.295   2.665  0.1724 -0.9661  1.2828
 5211TIP3   OH237191   0.285   1.226   8.366 -0.3146  0.6846  0.0278
 5211TIP3    H137192   0.362   1.206   8.313  0.2357 -0.4674  1.2140
 5211TIP3    H237193   0.321   1.252   8.451 -1.2408 -0.2402  0.7166
 5212TIP3   OH237194   4.154   2.223   8.101 -0.3394  0.3617  0.0212
 5212TIP3    H137195   4.153   2.317   8.081  0.8578  0.5806  0.8909
 5212TIP3    H237196   4.199   2.217   8.184  1.8223 -1.1947 -1.1773
 5213TIP3   OH237197   6.228   0.486   1.475  0.1341 -0.4455 -0.1579
 5213TIP3    H137198   6.138   0.457   1.490  0.1016 -0.1233  0.2720
 5213TIP3    H237199   6.222   0.581   1.468  0.1839 -0.5301 -1.9149
 5214TIP3   OH237200   1.426   5.633   1.943  0.4579 -0.5344  0.3028
 5214TIP3    H137201   1.375   5.711   1.967 -1.7850 -1.7034 -0.3485
 5214TIP3    H237202   1.509   5.643   1.990 -0.3954  1.4410  1.5245
 5215TIP3   OH237203   2.223   0.554   1.181  0.0730 -0.2796  0.1786
 5215TIP3    H137204   2.203   0.467   1.214  0.6433 -0.4485  0.0840
 5215TIP3    H237205   2.300   0.542   1.124  1.8105  0.6652  2.1884
 5216TIP3   OH237206   4.176   4.426   1.696  0.4203 -0.1044 -0.5695
 5216TIP3    H137207   4.165   4.386   1.609  2.0662 -2.1855  0.0685
 5216TIP3    H237208   4.174   4.351   1.756  0.9117  1.1188  1.0233
 5217TIP3   OH237209   5.067   3.044   0.145  0.4900 -0.1245 -0.3051
 5217TIP3    H137210   5.032   3.112   0.203 -1.6706 -0.1300 -1.4889
 5217TIP3    H237211   4.995   3.026   0.084  1.6968 -2.1158 -1.2184
 5218TIP3   OH237212   2.297   5.263   1.715 -0.1321  0.5709 -0.0374
 5218TIP3    H137213   2.387   5.246   1.687  0.3501  0.5993  1.4372
 5218TIP3    H237214   2.277   5.350   1.680  0.2247  0.3488 -0.8097
 5219TIP3   OH237215   3.116   4.544   2.817  0.0860 -0.6056  0.0151
 5219TIP3    H137216   3.089   4.458   2.850 -0.5832 -0.2298  0.4612
 5219TIP3    H237217   3.160   4.525   2.734  0.7724 -1.4590  0.5535
 5220TIP3   OH237218   1.925   6.053   7.761  0.5238  0.1911  0.4443
 5220TIP3    H137219   1.847   6.102   7.737  0.9752  0.5029 -0.4362
 5220TIP3    H237220   1.998   6.112   7.740  1.0093 -0.1653  1.0700
 5221TIP3   OH237221   5.044   1.492   0.795  1.3074 -0.2458 -0.5694
 5221TIP3    H137222   5.024   1.469   0.886 -0.3747  0.3255 -0.7624
 5221TIP3    H237223   5.133   1.526   0.798  1.5082 -0.8390  0.7615
 5222TIP3   OH237224   2.652   6.699   1.738  0.2152 -0.6216 -0.2214
 5222TIP3    H137225   2.691   6.784   1.722 -2.2929  0.5563 -0.5646
 5222TIP3    H237226   2.721   6.648   1.781  2.1586  1.1503 -1.0817
 5223TIP3   OH237227   1.212   0.664   2.676  0.1749  0.1114  0.5610
 5223TIP3    H137228   1.164   0.614   2.610  0.1201  1.5926 -0.5520
 5223TIP3    H237229   1.224   0.750   2.638  1.5231  0.5442  1.8602
 5224TIP3   OH237230   4.494   1.927   8.187  0.3171 -0.1558 -0.1034
 5224TIP3    H137231   4.421   1.880   8.228 -0.7549  0.4275 -1.2755
 5224TIP3    H237232   4.550   1.858   8.152  1.2708 -0.6850  2.2334
 5225TIP3   OH237233   6.624   0.008   1.178 -0.1192 -0.3482  0.3108
 5225TIP3    H137234   6.539   0.050   1.166  0.2606  0.2697 -0.3004
 5225TIP3    H237235   6.607  -0.063   1.240 -1.4875 -1.5049 -1.3102
 5226TIP3   OH237236   2.536   0.316   0.436 -0.0867 -0.7061 -0.1691
 5226TIP3    H137237   2.485   0.387   0.475  0.7615 -0.4053  0.4191
 5226TIP3    H237238   2.474   0.270   0.378 -0.7993  0.1313 -0.0800
 5227TIP3   OH237239   1.519   6.219   0.258 -0.1422  0.2227  0.2874
 5227TIP3    H137240   1.552   6.129   0.252  0.0857  0.3519 -0.6780
 5227TIP3    H237241   1.581   6.270   0.206 -0.7140  0.8105  0.1729
 5228TIP3   OH237242   1.541   6.586   8.744  1.0475 -0.4358  0.0038
 5228TIP3    H137243   1.451   6.603   8.716  1.1936  3.5593  1.3118
 5228TIP3    H237244   1.564   6.502   8.703 -2.8333 -1.0514 -1.2825
 5229TIP3   OH237245   3.571   4.998   8.443 -0.0347 -0.0537  0.1605
 5229TIP3    H137246   3.613   5.034   8.365  0.1081  2.8505  1.4498
 5229TIP3    H237247   3.477   5.005   8.425 -0.0126 -1.1806 -0.4648
 5230TIP3   OH237248   1.895   2.187   1.751 -0.5309 -0.5742  0.0491
 5230TIP3    H137249   1.845   2.206   1.830  1.9088 -3.0384  2.3981
 5230TIP3    H237250   1.986   2.190   1.778  0.5029 -0.4844 -2.9808
 5231TIP3   OH237251   5.326   2.737   8.544 -0.8286  0.1750  0.3644
 5231TIP3    H137252   5.339   2.783   8.461 -2.0270 -2.8549 -1.6896
 5231TIP3    H237253   5.413   2.730   8.582 -0.0768  0.6740 -1.1944
 5232TIP3   OH237254   4.632   4.225   1.249  0.6698 -0.1246  0.6489
 5232TIP3    H137255   4.687   4.202   1.174 -1.5264 -0.2152 -1.0498
 5232TIP3    H237256   4.631   4.321   1.250  2.5310 -0.0690  2.0622
 5233TIP3   OH237257   5.028   0.211   1.292 -0.2718  0.4217 -0.3290
 5233TIP3    H137258   5.090   0.140   1.281 -0.7111 -0.9358  3.9578
 5233TIP3    H237259   4.943   0.173   1.268 -0.0092  1.0682 -2.4698
 5234TIP3   OH237260   0.840   5.133   7.208 -0.3576 -0.3158  0.2995
 5234TIP3    H137261   0.929   5.150   7.179 -0.1595 -1.0519  0.4455
 5234TIP3    H237262   0.828   5.039   7.194 -1.1556 -0.2021  0.1610
 5235TIP3   OH237263   5.637   2.580   7.795 -0.6588  0.0271 -0.0187
 5235TIP3    H137264   5.551   2.537   7.797  0.2625 -1.9221  0.6795
 5235TIP3    H237265   5.679   2.544   7.717 -0.0081 -0.0727  0.3725
 5236TIP3   OH237266   2.226   6.276   1.453 -0.3908 -0.4202  0.0003
 5236TIP3    H137267   2.266   6.192   1.470 -0.1270 -0.1879  0.5388
 5236TIP3    H237268   2.192   6.305   1.538  1.3942  0.9899  0.2967
 5237TIP3   OH237269   0.284   4.574   1.270  0.1036  0.4892  0.3156
 5237TIP3    H137270   0.293   4.622   1.353  1.7396  2.3755 -0.8641
 5237TIP3    H237271   0.213   4.620   1.224  1.2232  1.4039 -0.5417
 5238TIP3   OH237272   2.576   4.525   0.441 -0.0329 -0.3333 -0.5042
 5238TIP3    H137273   2.633   4.601   0.449  0.4910 -0.3690 -3.1871
 5238TIP3    H237274   2.527   4.539   0.361 -0.8265 -2.2400 -0.4117
 5239TIP3   OH237275   2.143   0.529   1.993  0.0371  0.2245  0.3632
 5239TIP3    H137276   2.091   0.586   1.936  1.1316  1.3991  0.5091
 5239TIP3    H237277   2.189   0.471   1.933  0.8083  1.1290  0.0601
 5240TIP3   OH237278   6.739   6.320   1.551  0.7271 -0.0122 -0.3984
 5240TIP3    H137279   6.738   6.339   1.457  1.6058 -1.7415 -0.7982
 5240TIP3    H237280   6.804   6.251   1.561  2.0024  1.3900  1.7750
 5241TIP3   OH237281   5.953   2.412   0.624 -0.4261  0.0153  0.1896
 5241TIP3    H137282   5.990   2.498   0.642  0.7318  0.1659 -2.4627
 5241TIP3    H237283   6.012   2.373   0.559 -2.2490 -1.7731 -0.5218
 5242TIP3   OH237284   4.122   3.733   3.172 -0.0993  0.3502  0.5326
 5242TIP3    H137285   4.194   3.670   3.172 -1.1321 -0.8697 -0.1004
 5242TIP3    H237286   4.128   3.777   3.088 -0.5653 -0.3273  0.1374
 5243TIP3   OH237287   0.403   1.746   1.706 -0.2037  0.1373  0.2138
 5243TIP3    H137288   0.332   1.726   1.645 -0.7257  2.2197  0.0568
 5243TIP3    H237289   0.470   1.788   1.652  0.1642  0.2456  0.7484
 5244TIP3   OH237290   3.544   3.113   0.667 -0.1563  0.1484 -0.4945
 5244TIP3    H137291   3.458   3.076   0.682 -0.7734  1.9440  0.7566
 5244TIP3    H237292   3.574   3.072   0.585 -1.3487 -1.9099  0.0331
 5245TIP3   OH237293   3.757   3.343   8.424 -0.1986 -0.0456  0.4179
 5245TIP3    H137294   3.758   3.372   8.333 -1.7172  2.4842  1.1063
 5245TIP3    H237295   3.700   3.266   8.424 -0.7151  0.3082 -0.7081
 5246TIP3   OH237296   4.575   1.104   0.095 -0.7287 -0.2164  0.0090
 5246TIP3    H137297   4.530   1.147   0.022  1.3710 -0.1576 -1.3306
 5246TIP3    H237298   4.598   1.018   0.061  2.1696  0.5721 -0.2587
 5247TIP3   OH237299   6.614   2.817   8.469  0.2536  0.0195 -0.0066
 5247TIP3    H137300   6.617   2.891   8.408 -2.0621  0.5035  0.3859
 5247TIP3    H237301   6.544   2.839   8.530 -0.9281 -2.7499 -0.2289
 5248TIP3   OH237302   1.830   4.275   2.029  0.5567  0.3993 -0.1856
 5248TIP3    H137303   1.842   4.180   2.034  0.9375  0.4380 -0.3554
 5248TIP3    H237304   1.914   4.308   1.999  0.8605  0.9294  1.2225
 5249TIP3   OH237305   2.603   6.178   7.928 -0.3487 -0.0010 -0.1081
 5249TIP3    H137306   2.518   6.151   7.896 -0.6731  0.5204  0.2996
 5249TIP3    H237307   2.593   6.185   8.023 -0.1172  0.9367 -0.1381
 5250TIP3   OH237308   6.211   1.914   1.586 -0.3128 -0.2559 -0.5792
 5250TIP3    H137309   6.164   1.846   1.635 -0.1162 -0.6787 -0.9698
 5250TIP3    H237310   6.161   1.994   1.602  0.4740 -0.1031  1.3741
 5251TIP3   OH237311   1.439   5.359   1.901 -0.6903 -0.1111  0.0667
 5251TIP3    H137312   1.427   5.452   1.919 -0.7958  0.1766 -1.3239
 5251TIP3    H237313   1.350   5.324   1.895 -0.6516 -0.2903  0.5422
 5252TIP3   OH237314   0.188   0.901   2.051  0.3846 -0.2373  0.2284
 5252TIP3    H137315   0.119   0.871   2.111  0.3361 -0.8499 -0.1221
 5252TIP3    H237316   0.216   0.985   2.086 -1.4157  0.6358 -0.3090
 5253TIP3   OH237317   1.695   1.630   1.216 -0.4787  0.1171  0.0260
 5253TIP3    H137318   1.636   1.704   1.204 -0.6370  0.3519  2.0080
 5253TIP3    H237319   1.769   1.666   1.265  0.0918 -0.7574 -0.1626
 5254TIP3   OH237320   0.878   3.687   1.569  0.3315  0.4214  0.1956
 5254TIP3    H137321   0.861   3.734   1.651  1.2302 -0.6749  1.0455
 5254TIP3    H237322   0.946   3.739   1.526 -0.7965  1.5030 -0.3142
 5255TIP3   OH237323   4.884   6.489   0.221 -0.9741 -0.0479 -0.4423
 5255TIP3    H137324   4.850   6.412   0.175  0.3985 -0.5603 -0.6439
 5255TIP3    H237325   4.945   6.529   0.159  0.8397 -0.6921  0.8236
 5256TIP3   OH237326   1.436   2.015   2.725 -0.1875 -0.4304  0.6205
 5256TIP3    H137327   1.532   2.016   2.723 -0.1982  0.2073  0.1772
 5256TIP3    H237328   1.413   2.080   2.792 -0.3039 -1.1369  1.2783
 5257TIP3   OH237329   2.025   2.585   2.067  0.2563  0.2505 -0.4321
 5257TIP3    H137330   1.943   2.545   2.095  0.1346  0.5236 -0.3916
 5257TIP3    H237331   2.003   2.630   1.985  0.2531  0.7157 -0.1771
 5258TIP3   OH237332   4.655   1.689   8.399 -0.0038 -0.4771 -0.4112
 5258TIP3    H137333   4.639   1.763   8.341 -0.4662  0.2356  0.5870
 5258TIP3    H237334   4.711   1.630   8.349  2.8350  1.8743 -0.2223
 5259TIP3   OH237335   4.605   0.717   8.638 -1.2101  0.3320 -0.6142
 5259TIP3    H137336   4.589   0.791   8.580  0.1991  2.1864  1.2028
 5259TIP3    H237337   4.638   0.648   8.580  0.4217  2.1684 -2.0262
 5260TIP3   OH237338   1.725   1.363   1.313  0.4176  0.8082  0.3696
 5260TIP3    H137339   1.783   1.322   1.248 -1.7089  0.1964 -1.2382
 5260TIP3    H237340   1.721   1.455   1.287 -1.0598  0.4136 -0.9378
 5261TIP3   OH237341   0.567   0.667   2.254  0.5281 -0.3636  0.0386
 5261TIP3    H137342   0.533   0.704   2.172 -1.5081 -2.1971 -0.0391
 5261TIP3    H237343   0.569   0.742   2.315 -0.2736  0.5530 -1.0047
 5262TIP3   OH237344   1.630   1.724   0.156  0.2302  0.1819  0.2526
 5262TIP3    H137345   1.644   1.799   0.214  0.1264 -0.3982  1.0332
 5262TIP3    H237346   1.713   1.677   0.157  0.6336  0.8132 -1.0350
 5263TIP3   OH237347   1.742   4.988   8.607  0.1048  0.4264  0.0543
 5263TIP3    H137348   1.795   4.946   8.539 -0.5466  0.1785 -0.3107
 5263TIP3    H237349   1.656   5.002   8.566 -0.4637 -0.1933  0.9701
 5264TIP3   OH237350   1.201   0.736   1.081  0.7335 -0.1786 -0.0629
 5264TIP3    H137351   1.198   0.658   1.025  0.3711  0.3430 -0.7857
 5264TIP3    H237352   1.131   0.723   1.145  1.0539 -0.7087  0.1923
 5265TIP3   OH237353   3.197   4.763   2.551 -0.0133 -0.3542  0.1184
 5265TIP3    H137354   3.226   4.674   2.532 -0.4687 -0.3887 -0.4334
 5265TIP3    H237355   3.224   4.814   2.474  2.3884  0.5103  1.4149
 5266TIP3   OH237356   3.569   1.475   8.717 -0.4809  0.8453 -0.2941
 5266TIP3    H137357   3.479   1.506   8.709 -0.8423 -0.0615  0.0569
 5266TIP3    H237358   3.616   1.518   8.646 -0.6781  3.0255  0.8222
 5267TIP3   OH237359   5.067   4.529   8.862 -0.2018  0.1067 -0.7489
 5267TIP3    H137360   4.994   4.468   8.865 -0.0174 -0.0789  0.0882
 5267TIP3    H237361   5.142   4.475   8.837  0.1589 -0.2287  0.9439
 5268TIP3   OH237362   5.128   2.237   1.796  0.0426  0.0846  0.0553
 5268TIP3    H137363   5.115   2.308   1.732  0.8589  0.3808  0.2060
 5268TIP3    H237364   5.074   2.262   1.871  2.1328  1.8277  1.0985
 5269TIP3   OH237365   4.634   3.620   1.387 -0.1675 -0.7261  0.0526
 5269TIP3    H137366   4.675   3.677   1.452 -1.5585 -1.6325  1.8184
 5269TIP3    H237367   4.697   3.549   1.375  0.7385  0.1828 -0.7335
 5270TIP3   OH237368   6.680   3.154   2.356  0.5278 -0.4312 -0.1417
 5270TIP3    H137369   6.619   3.100   2.306  0.0696  1.0161 -1.1858
 5270TIP3    H237370   6.712   3.219   2.294 -0.4958  1.7990  1.5425
 5271TIP3   OH237371   1.676   2.217   1.937 -0.0016  0.3180  0.5058
 5271TIP3    H137372   1.618   2.248   2.006  0.9057  3.6329 -0.0531
 5271TIP3    H237373   1.728   2.147   1.978 -1.1598  0.5038  2.3888
 5272TIP3   OH237374   0.465   0.392   0.322  0.1634  0.1651 -0.3324
 5272TIP3    H137375   0.396   0.372   0.258  0.3487  0.8533 -0.7611
 5272TIP3    H237376   0.537   0.334   0.299 -0.1149 -0.2557 -0.1511
 5273TIP3   OH237377   0.506   6.300   1.390 -0.4501  0.4305 -0.1680
 5273TIP3    H137378   0.430   6.318   1.445 -0.0225  0.0462  0.5522
 5273TIP3    H237379   0.513   6.204   1.388 -0.8734  0.4085 -1.4616
 5274TIP3   OH237380   0.270   0.410   2.941 -0.3582  0.0182  0.1297
 5274TIP3    H137381   0.330   0.382   3.010  1.0719 -0.4582 -1.2552
 5274TIP3    H237382   0.195   0.446   2.988 -0.7692 -2.9100  1.9806
 5275TIP3   OH237383   0.800   5.762   7.594 -0.3034  0.0420  0.2085
 5275TIP3    H137384   0.779   5.770   7.501 -2.0159 -0.2124  0.5264
 5275TIP3    H237385   0.889   5.728   7.597  0.0764  0.8617 -1.3247
 5276TIP3   OH237386   6.004   5.123   2.784  0.0796  0.2152 -0.6343
 5276TIP3    H137387   5.966   5.120   2.872  0.9488  1.1087 -0.2119
 5276TIP3    H237388   5.937   5.165   2.730 -0.6249 -0.7142 -0.5037
 5277TIP3   OH237389   6.476   1.021   1.893  0.3967 -0.6439 -0.0735
 5277TIP3    H137390   6.390   1.063   1.897  0.8280  0.4379 -1.4782
 5277TIP3    H237391   6.500   1.008   1.985 -0.5957  0.4317  0.3632
 5278TIP3   OH237392   5.708   2.565   1.826  0.0987  0.1641 -0.2843
 5278TIP3    H137393   5.720   2.560   1.731  1.1310  0.1738 -0.1575
 5278TIP3    H237394   5.763   2.495   1.861 -0.1128  0.2978  0.3233
 5279TIP3   OH237395   5.662   6.273   2.622  0.4235 -0.0127 -0.6624
 5279TIP3    H137396   5.602   6.347   2.633  0.1545  0.1900 -2.9205
 5279TIP3    H237397   5.725   6.302   2.556  0.4749 -1.6621 -1.4083
 5280TIP3   OH237398   6.078   6.332   1.056  0.0063 -0.7101 -0.8890
 5280TIP3    H137399   6.026   6.258   1.025  2.4577 -3.1302  0.3143
 5280TIP3    H237400   6.089   6.316   1.150 -0.1540  1.7574 -0.3727
 5281TIP3   OH237401   4.653   5.560   2.277 -0.0395 -0.3122 -0.2244
 5281TIP3    H137402   4.692   5.528   2.195  0.7267 -2.1861  0.8117
 5281TIP3    H237403   4.727   5.586   2.331 -0.1637 -2.8338  1.3335
 5282TIP3   OH237404   6.056   1.498   0.260 -0.0843 -0.0162  0.0433
 5282TIP3    H137405   6.054   1.592   0.246  0.5961 -0.0101 -0.0879
 5282TIP3    H237406   6.000   1.462   0.191 -0.7652  0.3201  0.4162
 5283TIP3   OH237407   0.953   6.175   1.281 -0.7667  0.1973 -0.0220
 5283TIP3    H137408   0.912   6.119   1.347 -0.2616 -0.3265 -0.1425
 5283TIP3    H237409   1.003   6.115   1.226 -1.7035  0.5447 -1.2933
 5284TIP3   OH237410   4.924   3.177   2.206  0.5062 -0.2586 -0.3840
 5284TIP3    H137411   4.876   3.094   2.197  1.9348 -1.1952  0.2784
 5284TIP3    H237412   5.015   3.154   2.189  1.1563  0.8558  1.3854
 5285TIP3   OH237413   0.880   6.246   0.102  0.2648  0.1048 -0.2841
 5285TIP3    H137414   0.854   6.296   0.179  1.0406  0.1140 -0.0215
 5285TIP3    H237415   0.802   6.196   0.079  0.1273 -0.1688  0.7187
 5286TIP3   OH237416   1.811   4.018   2.391 -0.4668 -0.2856  0.0492
 5286TIP3    H137417   1.880   3.953   2.380 -2.2107 -1.9885 -1.4009
 5286TIP3    H237418   1.776   4.001   2.478  0.1410 -0.1840  0.3225
 5287TIP3   OH237419   3.219   3.028   0.305  0.4324 -0.8004  0.3911
 5287TIP3    H137420   3.204   3.088   0.378  0.8688 -0.2856  0.0609
 5287TIP3    H237421   3.259   2.951   0.346 -2.8914 -2.2572  1.3304
 5288TIP3   OH237422   0.015   1.812   2.149 -0.6406  0.2372  0.0905
 5288TIP3    H137423  -0.063   1.791   2.097 -0.5520  2.2858 -0.9597
 5288TIP3    H237424   0.088   1.795   2.090 -0.5364  2.4644 -0.5134
 5289TIP3   OH237425   4.376   0.954   2.157 -0.3433  0.1027  0.2683
 5289TIP3    H137426   4.379   0.861   2.136  2.5890  0.4010 -1.1085
 5289TIP3    H237427   4.291   0.984   2.123 -0.9386 -1.8704 -0.0825
 5290TIP3   OH237428   0.346   6.143   2.516  0.0674 -1.0790  0.0435
 5290TIP3    H137429   0.344   6.054   2.552  0.9003 -2.3726 -2.7911
 5290TIP3    H237430   0.434   6.175   2.535  0.9142 -2.2172 -1.6918
 5291TIP3   OH237431   2.092   6.269   1.797  0.4582 -0.2105 -0.5768
 5291TIP3    H137432   2.188   6.270   1.798  0.4972  0.0557 -2.1228
 5291TIP3    H237433   2.069   6.188   1.842  1.3309  0.6442  1.5245
 5292TIP3   OH237434   3.783   2.725   0.568 -0.2311  0.0348  0.1898
 5292TIP3    H137435   3.812   2.746   0.479  0.6965  1.1353  0.7222
 5292TIP3    H237436   3.854   2.757   0.624 -1.0678 -0.1059  1.3616
 5293TIP3   OH237437   2.308   5.812   1.058 -0.2243 -0.1184  0.2908
 5293TIP3    H137438   2.395   5.841   1.032 -0.1836  0.0878  0.6458
 5293TIP3    H237439   2.247   5.863   1.005 -0.1134 -1.5672 -1.3031
 5294TIP3   OH237440   1.501   1.164   3.042  0.1648  0.1398 -0.4508
 5294TIP3    H137441   1.417   1.125   3.065  0.0847 -0.5664 -1.7927
 5294TIP3    H237442   1.484   1.258   3.038 -0.2805  0.0997  0.3478
 5295TIP3   OH237443   4.242   6.030   8.300 -0.5669  0.1212  0.0693
 5295TIP3    H137444   4.220   5.976   8.223  0.9882  1.0248 -1.0697
 5295TIP3    H237445   4.196   6.112   8.284  0.8557  0.8169 -0.6542
 5296TIP3   OH237446   2.538   2.447   0.737  0.0148 -0.2113  0.1743
 5296TIP3    H137447   2.515   2.411   0.823 -0.9815 -1.3370 -0.5321
 5296TIP3    H237448   2.557   2.539   0.754 -0.3368 -0.3767  1.5779
 5297TIP3   OH237449   1.685   6.220   8.149 -0.0059 -0.1699  0.4027
 5297TIP3    H137450   1.763   6.246   8.197 -0.7347 -0.8468  2.0310
 5297TIP3    H237451   1.613   6.228   8.212 -0.9917 -1.2364 -0.5177
 5298TIP3   OH237452   5.937   6.607   1.443 -0.5467 -0.0843  0.3050
 5298TIP3    H137453   5.850   6.644   1.456 -0.5024  0.0743  0.1632
 5298TIP3    H237454   5.965   6.581   1.530  0.8111  3.3357  1.0690
 5299TIP3   OH237455   0.341   0.055   2.073 -0.0671 -0.8707 -0.3449
 5299TIP3    H137456   0.298   0.081   2.154 -0.3107  0.4507 -0.8779
 5299TIP3    H237457   0.354  -0.040   2.082 -1.9019 -1.0868  0.3812
 5300TIP3   OH237458   1.024   3.444   2.535 -0.1248  0.1976 -0.3127
 5300TIP3    H137459   0.967   3.491   2.596 -0.7799 -2.9402  1.7530
 5300TIP3    H237460   1.011   3.488   2.451  0.0652  4.1253  1.4826
 5301TIP3   OH237461   4.267   0.149   1.211 -0.2135  0.1837 -0.3124
 5301TIP3    H137462   4.279   0.227   1.157  2.1582  0.1872  0.1065
 5301TIP3    H237463   4.199   0.174   1.275 -2.7189  0.3474 -2.8338
 5302TIP3   OH237464   4.800   4.877   8.570  0.2721  0.7643 -0.0005
 5302TIP3    H137465   4.723   4.914   8.613 -1.0139 -1.6926 -0.0545
 5302TIP3    H237466   4.849   4.833   8.639  0.4552  0.4037 -0.3534
 5303TIP3   OH237467   0.355   5.157   1.285 -0.0404  0.3936 -0.3587
 5303TIP3    H137468   0.306   5.239   1.279 -0.1489  0.6545  2.5620
 5303TIP3    H237469   0.439   5.182   1.324 -0.0362 -0.8382  0.4664
 5304TIP3   OH237470   5.753   0.652   1.517 -0.0138  0.7351 -0.1238
 5304TIP3    H137471   5.693   0.610   1.454  0.6677  0.8610 -0.8641
 5304TIP3    H237472   5.832   0.598   1.515 -0.3335  0.1448  1.3898
 5305TIP3   OH237473   0.940   1.213   2.382 -0.3126  0.0557  0.3057
 5305TIP3    H137474   0.957   1.255   2.298  1.0001 -0.6828  0.1767
 5305TIP3    H237475   0.876   1.144   2.362 -0.7958  0.5541  0.1158
 5306TIP3   OH237476   3.490   3.239   2.199 -0.3147  0.7437  0.4405
 5306TIP3    H137477   3.575   3.265   2.235 -1.1483  2.3379  1.3476
 5306TIP3    H237478   3.481   3.291   2.119 -0.0067 -0.2169 -0.2472
 5307TIP3   OH237479   6.229   0.740   1.846  0.5533 -0.3389  0.3597
 5307TIP3    H137480   6.141   0.777   1.858  0.2555 -0.4789 -1.1733
 5307TIP3    H237481   6.218   0.647   1.863  0.1468 -0.5314 -0.8611
 5308TIP3   OH237482   4.726   0.064   4.025  0.6651 -0.3530 -0.0450
 5308TIP3    H137483   4.718   0.136   3.961 -2.4801 -1.7617 -1.4352
 5308TIP3    H237484   4.737  -0.014   3.971  1.2510 -1.2587  1.3390
 5309TIP3   OH237485   0.973   3.152   1.512  0.2825 -0.2416 -0.1157
 5309TIP3    H137486   0.916   3.226   1.534  2.4651  1.5360 -0.0921
 5309TIP3    H237487   0.967   3.094   1.588 -1.2395  0.0216 -0.0031
 5310TIP3   OH237488   5.862   5.684   2.098  0.4558  0.7011  0.6080
 5310TIP3    H137489   5.779   5.713   2.135  0.0319  0.8615 -0.4364
 5310TIP3    H237490   5.923   5.755   2.115 -0.3174  1.8162 -1.0260
 5311TIP3   OH237491   4.567   3.818   0.838  0.3135 -0.1120 -0.1242
 5311TIP3    H137492   4.521   3.740   0.870 -0.4770  0.1449 -0.6101
 5311TIP3    H237493   4.498   3.883   0.825  0.6478 -0.0872 -2.0029
 5312TIP3   OH237494   3.720   6.496   1.564 -0.1854 -0.2939 -0.5380
 5312TIP3    H137495   3.667   6.576   1.575 -2.4696 -1.8099  0.2624
 5312TIP3    H237496   3.741   6.494   1.471 -0.9978  0.7018 -0.7705
 5313TIP3   OH237497   2.498   4.907   7.629  0.2397  0.0492  0.2207
 5313TIP3    H137498   2.495   4.959   7.709  0.4612 -1.5327  1.2924
 5313TIP3    H237499   2.409   4.909   7.595  0.3740  1.6211 -0.1217
 5314TIP3   OH237500   6.745   2.773   7.638 -0.2377 -0.5718  0.0729
 5314TIP3    H137501   6.770   2.723   7.716 -0.6292  0.3492  0.8139
 5314TIP3    H237502   6.671   2.724   7.601 -0.0123 -1.0521  0.2493
 5315TIP3   OH237503   3.524   3.298   2.682  0.0194  0.3697 -0.5312
 5315TIP3    H137504   3.584   3.356   2.634  0.7464  0.4239  0.4168
 5315TIP3    H237505   3.541   3.317   2.774 -0.3184 -0.7698 -0.2183
 5316TIP3   OH237506   6.070   1.133   0.319 -1.0417 -0.3494 -0.2918
 5316TIP3    H137507   6.104   1.051   0.355 -2.0364 -1.0551 -0.8881
 5316TIP3    H237508   6.133   1.199   0.346  0.5371 -1.5083 -0.9548
 5317TIP3   OH237509   2.296   4.248   8.205 -0.4221 -0.2999  0.2037
 5317TIP3    H137510   2.329   4.337   8.190  3.8678 -1.5767  0.7339
 5317TIP3    H237511   2.284   4.244   8.300  1.0743 -0.6916  0.4077
 5318TIP3   OH237512   0.203   2.892   0.849 -0.3447  0.4746 -0.6738
 5318TIP3    H137513   0.122   2.874   0.801  0.1246  0.0316 -1.3271
 5318TIP3    H237514   0.200   2.986   0.866  0.0028  0.9075 -2.6575
 5319TIP3   OH237515   3.370   6.182   0.583 -0.1602  0.1315  0.1558
 5319TIP3    H137516   3.293   6.125   0.582 -1.8197  2.1346  2.2199
 5319TIP3    H237517   3.443   6.123   0.603 -1.1159 -1.7864 -1.5645
 5320TIP3   OH237518   6.315   1.547   1.001 -1.1700  0.6740 -0.6135
 5320TIP3    H137519   6.282   1.494   0.929  1.5911 -2.5700  0.2571
 5320TIP3    H237520   6.347   1.627   0.959  0.4292 -1.1196 -3.1351
 5321TIP3   OH237521   5.701   1.651   2.664 -0.3163 -0.2704 -0.0329
 5321TIP3    H137522   5.674   1.628   2.575 -1.5813  2.2133 -0.3953
 5321TIP3    H237523   5.780   1.704   2.651  0.2724 -1.0326  0.4343
 5322TIP3   OH237524   2.322   6.222   0.636 -0.4773  0.5465 -0.4183
 5322TIP3    H137525   2.234   6.196   0.608 -1.0212  1.8541  0.0221
 5322TIP3    H237526   2.313   6.241   0.729  0.1080  1.3781 -0.5280
 5323TIP3   OH237527   4.792   2.142   1.530 -0.3904 -0.4801  0.2708
 5323TIP3    H137528   4.749   2.172   1.450 -1.6234  1.3492  1.5182
 5323TIP3    H237529   4.794   2.220   1.586  0.3460 -1.7196  2.0430
 5324TIP3   OH237530   5.685   6.624   0.586  0.3078  0.2875  0.3645
 5324TIP3    H137531   5.724   6.649   0.502 -1.9085 -0.3140 -0.9341
 5324TIP3    H237532   5.758   6.592   0.639  1.8387  1.1790 -1.1405
 5325TIP3   OH237533   5.537   1.402   0.296 -0.1799  0.5728 -0.1886
 5325TIP3    H137534   5.588   1.394   0.376 -1.4924 -2.2213  0.4945
 5325TIP3    H237535   5.583   1.347   0.232 -0.8549  0.2138 -0.3762
 5326TIP3   OH237536   6.133   2.895   2.353 -0.4188 -0.1895  0.1252
 5326TIP3    H137537   6.185   2.862   2.426 -0.2483 -1.3803 -0.5159
 5326TIP3    H237538   6.114   2.818   2.300 -1.8136  0.4071 -0.3010
 5327TIP3   OH237539   4.307   4.465   2.844  0.0078  0.2469 -0.1753
 5327TIP3    H137540   4.293   4.462   2.939  0.6884  0.4240 -0.0640
 5327TIP3    H237541   4.396   4.499   2.834 -0.2105  0.6246 -0.8920
 5328TIP3   OH237542   0.440   2.241   3.267 -0.0676 -0.4719  0.6400
 5328TIP3    H137543   0.525   2.282   3.284 -0.9667  1.3841  0.8599
 5328TIP3    H237544   0.423   2.189   3.346  1.4555 -2.0106  0.0197
 5329TIP3   OH237545   3.925   5.537   1.615 -0.1274  0.1282 -0.4121
 5329TIP3    H137546   3.906   5.630   1.600  0.6973  0.7755  2.0099
 5329TIP3    H237547   3.972   5.509   1.537  0.4737  2.0378 -0.7930
 5330TIP3   OH237548   4.992   3.677   1.177  0.9394 -0.6407  0.0469
 5330TIP3    H137549   5.029   3.754   1.221 -1.3497 -0.6638  2.2452
 5330TIP3    H237550   4.942   3.713   1.104  0.3304 -0.0582  0.7375
 5331TIP3   OH237551   1.800   6.362   2.846  0.2834 -0.3428  0.1909
 5331TIP3    H137552   1.851   6.301   2.899  0.4268 -0.0115  0.4346
 5331TIP3    H237553   1.787   6.438   2.902  0.1327 -0.1338 -0.1252
 5332TIP3   OH237554   0.030   0.409   0.602 -0.0892  0.7385 -0.4867
 5332TIP3    H137555   0.115   0.364   0.606 -0.3610  0.1959 -0.7381
 5332TIP3    H237556  -0.034   0.340   0.618 -0.4822  1.1633 -0.2243
 5333TIP3   OH237557   6.264   0.526   0.855  0.3928 -0.4046  0.5943
 5333TIP3    H137558   6.195   0.554   0.795  2.1512  0.1251 -1.3093
 5333TIP3    H237559   6.256   0.431   0.859  0.4419 -0.4771 -0.7622
 5334TIP3   OH237560   0.551   6.621   1.838  0.6906 -0.5161 -0.0930
 5334TIP3    H137561   0.481   6.599   1.776 -0.6533  1.6960  0.5457
 5334TIP3    H237562   0.632   6.613   1.787 -0.3862  1.4531 -2.2565
 5335TIP3   OH237563   5.842   1.161   1.298  0.2166 -0.2584  0.2448
 5335TIP3    H137564   5.757   1.117   1.300  0.4221 -0.6484  0.3758
 5335TIP3    H237565   5.822   1.249   1.266 -0.2423 -0.3362  0.3069
 5336TIP3   OH237566   5.789   4.717   0.053 -0.1410 -0.1261 -0.1013
 5336TIP3    H137567   5.816   4.789   0.110 -1.0145 -0.2041  0.4116
 5336TIP3    H237568   5.701   4.740   0.025 -1.0850 -1.7581  1.3588
 5337TIP3   OH237569   2.209   1.903   1.879  0.0377 -0.0885 -0.0820
 5337TIP3    H137570   2.267   1.827   1.876  1.6704  1.1153 -1.9366
 5337TIP3    H237571   2.235   1.955   1.802 -1.1620  2.2101  0.9833
 5338TIP3   OH237572   4.920   2.522   0.401  0.5160  0.2911 -0.1900
 5338TIP3    H137573   4.946   2.602   0.356 -1.2481  1.2441  0.3778
 5338TIP3    H237574   4.829   2.509   0.375  0.0969 -0.2683  1.4572
 5339TIP3   OH237575   4.551   0.863   0.509 -0.0139  0.6298  0.1225
 5339TIP3    H137576   4.604   0.892   0.583  0.8138  0.1155 -0.2532
 5339TIP3    H237577   4.536   0.942   0.457  0.3142  0.7903  0.2728
 5340TIP3   OH237578   3.937   1.108   7.684  0.3173 -0.6735  0.3731
 5340TIP3    H137579   3.992   1.169   7.733  3.5868 -1.5655 -1.8579
 5340TIP3    H237580   3.921   1.036   7.744 -1.9627  1.3414  2.3922
 5341TIP3   OH237581   5.069   0.860   1.934  0.3979 -0.0123  0.0541
 5341TIP3    H137582   5.046   0.953   1.932 -3.5867 -0.8124 -1.4845
 5341TIP3    H237583   5.001   0.820   1.988  0.3473 -2.3069 -1.5637
 5342TIP3   OH237584   2.232   2.994   2.472  0.6866  0.4339 -0.0913
 5342TIP3    H137585   2.151   3.036   2.445  1.3701  1.1384 -1.1281
 5342TIP3    H237586   2.241   3.016   2.565 -1.3675 -1.4529  0.6501
 5343TIP3   OH237587   1.427   4.081   2.695  0.1948 -0.2431 -0.1286
 5343TIP3    H137588   1.499   4.108   2.752  0.5961 -1.7733  0.1477
 5343TIP3    H237589   1.348   4.111   2.740  0.5614 -0.4410  0.6747
 5344TIP3   OH237590   1.025   2.657   0.476 -0.2423 -0.4933 -0.1953
 5344TIP3    H137591   1.105   2.633   0.430  0.2403 -2.6271  1.5592
 5344TIP3    H237592   0.954   2.620   0.423  0.1375 -0.8347 -0.4688
 5345TIP3   OH237593   0.190   5.370   1.320 -0.0778  0.1350  0.0774
 5345TIP3    H137594   0.116   5.340   1.267  0.3358 -0.9984  0.1317
 5345TIP3    H237595   0.160   5.453   1.357 -0.3625  1.0021 -1.9492
 5346TIP3   OH237596   5.695   5.857   1.875 -0.3097 -0.0812  0.4843
 5346TIP3    H137597   5.774   5.911   1.876 -0.3084 -0.0724  1.8010
 5346TIP3    H237598   5.684   5.828   1.966 -2.2469  0.5561  0.5108
 5347TIP3   OH237599   4.530   2.681   0.349 -0.6975  0.1638  0.5324
 5347TIP3    H137600   4.570   2.767   0.361 -0.6610  0.1010  0.8764
 5347TIP3    H237601   4.454   2.698   0.293 -0.9100  0.4830  0.9083
 5348TIP3   OH237602   0.058   6.126   8.666  0.0892 -0.9190  0.0427
 5348TIP3    H137603  -0.008   6.064   8.634 -1.0792  0.4911 -0.4460
 5348TIP3    H237604   0.040   6.206   8.617  2.0109 -0.3951  0.1278
 5349TIP3   OH237605   4.133   2.904   0.075  0.1816  0.7842  0.2874
 5349TIP3    H137606   4.177   2.952   0.005 -0.8004 -0.9780 -1.6398
 5349TIP3    H237607   4.041   2.904   0.049 -0.1692 -0.1351  1.4535
 5350TIP3   OH237608   4.698   5.876   2.528  0.1678 -0.5581  0.0766
 5350TIP3    H137609   4.624   5.822   2.557  1.5440 -2.1909  0.7046
 5350TIP3    H237610   4.680   5.963   2.563  0.0085 -1.6202  2.8657
 5351TIP3   OH237611   2.149   0.415   8.209 -0.1201  0.1199 -0.2696
 5351TIP3    H137612   2.141   0.363   8.129 -0.6929  1.2425 -0.9590
 5351TIP3    H237613   2.131   0.353   8.280 -1.5277 -0.4634 -1.1013
 5352TIP3   OH237614   3.993   6.029   2.408 -0.4071 -0.0579 -0.0766
 5352TIP3    H137615   4.082   5.999   2.390  0.2801  1.4971  0.5721
 5352TIP3    H237616   3.946   5.950   2.433  1.6097 -0.5418  2.7135
 5353TIP3   OH237617   0.994   5.243   2.755  0.7737  0.1961 -0.7153
 5353TIP3    H137618   0.906   5.210   2.735  1.2595 -1.5454 -0.1986
 5353TIP3    H237619   1.052   5.189   2.701  1.8061 -1.7752  2.1342
 5354TIP3   OH237620   0.993   1.481   8.384  0.1281  0.2226 -0.1036
 5354TIP3    H137621   1.082   1.464   8.351  0.2133  0.8937 -0.2447
 5354TIP3    H237622   0.942   1.500   8.306 -0.1878 -0.3623 -0.0376
 5355TIP3   OH237623   5.222   4.030   0.862 -0.0952  0.2393  0.1582
 5355TIP3    H137624   5.285   4.100   0.846 -0.1029 -0.1241 -1.7406
 5355TIP3    H237625   5.243   3.963   0.796 -0.7580 -1.0769  1.2330
 5356TIP3   OH237626   2.458   4.409   1.365 -0.2676 -0.1228  0.3371
 5356TIP3    H137627   2.494   4.473   1.426 -0.5976 -0.0139  0.4163
 5356TIP3    H237628   2.520   4.409   1.292 -0.1936  0.1851  0.3978
 5357TIP3   OH237629   5.348   0.588   3.015 -0.6879  0.1482 -0.4602
 5357TIP3    H137630   5.431   0.559   2.976 -1.1971 -0.9584 -0.7579
 5357TIP3    H237631   5.335   0.676   2.980  0.7899  0.6860  0.2757
 5358TIP3   OH237632   4.578   4.708   1.582 -0.5214 -0.2151 -0.0799
 5358TIP3    H137633   4.534   4.788   1.612 -1.5062 -1.0853  0.9060
 5358TIP3    H237634   4.671   4.726   1.593 -0.6895  1.0889 -0.6507
 5359TIP3   OH237635   3.259   0.793   2.091  0.5067 -0.6931 -0.3934
 5359TIP3    H137636   3.232   0.861   2.030  0.6432  0.0742  0.3828
 5359TIP3    H237637   3.278   0.840   2.172  1.3936 -1.5532 -0.0842
 5360TIP3   OH237638   2.427   0.721   2.463  0.4426  0.1410 -0.3628
 5360TIP3    H137639   2.422   0.815   2.449  1.1348 -0.1030 -2.7214
 5360TIP3    H237640   2.336   0.691   2.456  0.3204  0.5393 -0.5054
 5361TIP3   OH237641   0.426   6.326   7.553  0.4527  0.0378 -0.1682
 5361TIP3    H137642   0.415   6.253   7.614  0.5791 -1.3616 -1.7402
 5361TIP3    H237643   0.354   6.385   7.573 -1.7065 -2.1350 -1.0012
 5362TIP3   OH237644   3.476   5.275   8.524  0.0326  0.7763 -0.1875
 5362TIP3    H137645   3.512   5.356   8.561  0.9094  0.3100  0.0271
 5362TIP3    H237646   3.449   5.299   8.436 -1.8024  1.8342  0.6020
 5363TIP3   OH237647   3.694   6.376   0.389  0.0822 -0.2172 -0.4646
 5363TIP3    H137648   3.623   6.334   0.438  0.4282 -0.8725 -0.5103
 5363TIP3    H237649   3.651   6.444   0.337 -0.5081 -0.6342 -0.5246
 5364TIP3   OH237650   1.139   3.699   7.503 -0.0355 -0.3270  0.2254
 5364TIP3    H137651   1.121   3.754   7.579 -2.4246  0.7804 -1.0339
 5364TIP3    H237652   1.224   3.658   7.522  0.4713  1.5731  2.4758
 5365TIP3   OH237653   6.368   6.036   1.883  0.6432 -0.3138 -0.0982
 5365TIP3    H137654   6.370   6.029   1.978 -1.0046 -0.4047 -0.0360
 5365TIP3    H237655   6.334   5.952   1.853  1.3584 -0.3696 -0.7990
 5366TIP3   OH237656   0.881   2.869   2.514 -0.1263 -0.4403  0.2712
 5366TIP3    H137657   0.787   2.859   2.498 -0.3708 -0.9941  1.9177
 5366TIP3    H237658   0.920   2.861   2.427 -1.4884 -1.5885 -0.2824
 5367TIP3   OH237659   0.061   4.498   0.015  0.0517 -0.1252  0.9498
 5367TIP3    H137660  -0.024   4.542   0.008  0.5716  1.0464  1.6810
 5367TIP3    H237661   0.120   4.566   0.049  1.6096 -0.5087 -0.8551
 5368TIP3   OH237662   2.599   1.814   0.454 -0.1111  0.1571  0.0982
 5368TIP3    H137663   2.664   1.766   0.504  0.5010  0.9962  0.1323
 5368TIP3    H237664   2.531   1.750   0.434  0.4688 -0.5984  0.5227
 5369TIP3   OH237665   1.185   0.445   8.811  0.5327  0.4744  0.3648
 5369TIP3    H137666   1.226   0.523   8.773 -0.5968  0.5682 -0.7035
 5369TIP3    H237667   1.131   0.410   8.741  1.3047 -1.5124  0.6924
 5370TIP3   OH237668   0.625   1.868   8.471  0.3050 -0.0935  0.0791
 5370TIP3    H137669   0.719   1.882   8.458  0.3082  1.4337  1.3568
 5370TIP3    H237670   0.591   1.956   8.487 -1.4419 -0.5650 -0.8928
 5371TIP3   OH237671   6.036   0.806   3.269  0.8217  0.6659  0.4665
 5371TIP3    H137672   5.941   0.794   3.270  0.7488  1.1420 -0.1959
 5371TIP3    H237673   6.070   0.721   3.242  0.4797  0.9598 -1.0149
 5372TIP3   OH237674   4.470   4.055   2.055  0.6467 -0.3424  0.3028
 5372TIP3    H137675   4.418   4.087   1.981  1.5405 -0.6606 -0.4871
 5372TIP3    H237676   4.454   3.961   2.057  1.3595 -0.4772 -0.0899
 5373TIP3   OH237677   2.545   5.946   3.225  1.2173 -0.8534 -0.1407
 5373TIP3    H137678   2.455   5.912   3.224  1.2522 -1.0125  0.9358
 5373TIP3    H237679   2.574   5.940   3.134  0.3581 -1.3951 -0.3904
 5374TIP3   OH237680   3.851   5.894   1.554 -0.1802  0.1248  0.0064
 5374TIP3    H137681   3.883   5.852   1.474 -0.0189  2.5566 -1.3344
 5374TIP3    H237682   3.930   5.925   1.598 -0.2752 -1.1529  1.1095
 5375TIP3   OH237683   4.830   3.962   1.217 -0.1274  0.3937 -0.1337
 5375TIP3    H137684   4.899   4.014   1.177  0.0757 -0.0512 -0.3622
 5375TIP3    H237685   4.803   3.901   1.149  1.7700 -1.9078  1.0545
 5376TIP3   OH237686   2.196   6.108   0.234  0.5551  0.2226  0.0572
 5376TIP3    H137687   2.196   6.027   0.285 -1.7541  1.0110  1.4710
 5376TIP3    H237688   2.204   6.177   0.299 -0.4561  1.2117 -0.8280
 5377TIP3   OH237689   1.480   0.417   1.486 -0.1280  0.2547 -0.3477
 5377TIP3    H137690   1.398   0.410   1.437  0.8250 -0.4192 -1.8999
 5377TIP3    H237691   1.525   0.335   1.469  0.5106  0.2391  1.2220
 5378TIP3   OH237692   1.613   3.114   1.574  0.2421 -0.2636 -0.0035
 5378TIP3    H137693   1.575   3.102   1.487 -2.0986 -1.5600  1.0942
 5378TIP3    H237694   1.542   3.090   1.634  0.6254  3.6984  2.3762
 5379TIP3   OH237695   1.405   3.211   8.175  0.1199  0.5940  0.2831
 5379TIP3    H137696   1.485   3.160   8.163  0.2260  0.3909  1.6464
 5379TIP3    H237697   1.336   3.146   8.185  0.0384  0.7352  0.6586
 5380TIP3   OH237698   6.106   1.094   8.422  0.1177  0.0928 -0.0168
 5380TIP3    H137699   6.064   1.180   8.420 -1.8490 -0.6663  2.2271
 5380TIP3    H237700   6.178   1.104   8.484  1.3854  0.6480 -1.5350
 5381TIP3   OH237701   3.359   0.304   7.474 -0.2133 -0.4906  0.0113
 5381TIP3    H137702   3.311   0.224   7.496 -2.2182 -0.1220 -2.6085
 5381TIP3    H237703   3.296   0.374   7.488  0.2128  0.2263 -1.4653
 5382TIP3   OH237704   5.218   4.026   2.376 -0.3408 -0.6211 -0.2371
 5382TIP3    H137705   5.128   3.998   2.395  0.6560 -2.5665  2.1980
 5382TIP3    H237706   5.260   3.948   2.339  0.9638 -0.5733  1.0583
 5383TIP3   OH237707   2.942   1.053   0.029 -0.5570  0.2968 -0.3143
 5383TIP3    H137708   3.016   1.110   0.010 -0.1163 -0.2054 -0.1385
 5383TIP3    H237709   2.883   1.106   0.083  0.7305  0.0019  1.4566
 5384TIP3   OH237710   5.546   4.729   1.692  0.4596 -0.3860 -0.3626
 5384TIP3    H137711   5.487   4.709   1.764  1.8640 -0.7916  0.7141
 5384TIP3    H237712   5.529   4.660   1.628  0.1170 -0.7894  0.1545
 5385TIP3   OH237713   6.743   1.231   0.924 -0.2085 -0.1190  0.1877
 5385TIP3    H137714   6.729   1.147   0.966  0.3364 -0.4828 -0.3394
 5385TIP3    H237715   6.666   1.283   0.947  1.2386  0.6564  3.8813
 5386TIP3   OH237716   5.331   0.742   1.874 -0.3994  0.0696  0.4247
 5386TIP3    H137717   5.305   0.656   1.907  0.3057  0.0228  0.8899
 5386TIP3    H237718   5.258   0.800   1.898 -1.0834 -0.4751 -0.3004
 5387TIP3   OH237719   6.711   4.512   1.154  0.2445  0.2255  0.1375
 5387TIP3    H137720   6.663   4.514   1.071 -1.0039  2.5112  0.8288
 5387TIP3    H237721   6.647   4.481   1.218  0.7449 -0.0440  0.5138
 5388TIP3   OH237722   3.584   1.807   0.941  0.3885  0.4099 -0.4135
 5388TIP3    H137723   3.668   1.762   0.950  0.3848  0.5172  0.2347
 5388TIP3    H237724   3.531   1.748   0.888  0.0566 -0.8259  1.2359
 5389TIP3   OH237725   2.036   2.576   0.276  0.4057 -0.1882  0.4740
 5389TIP3    H137726   2.021   2.658   0.322 -1.4552 -0.4129  0.3262
 5389TIP3    H237727   2.130   2.578   0.254  0.7892  1.0420  2.0368
 5390TIP3   OH237728   4.977   4.723   2.247 -0.9276  0.5761 -0.1243
 5390TIP3    H137729   5.025   4.759   2.321 -0.7606  0.3157 -0.1040
 5390TIP3    H237730   4.889   4.708   2.280 -0.7221 -0.0177  0.1760
 5391TIP3   OH237731   5.865   1.154   0.960  0.1599  0.1860  0.4938
 5391TIP3    H137732   5.887   1.166   0.868  1.6368 -2.2325  0.4621
 5391TIP3    H237733   5.781   1.108   0.958 -0.4967  1.3447  0.4284
 5392TIP3   OH237734   2.134   4.485   7.524  0.6640  0.2837  0.0365
 5392TIP3    H137735   2.131   4.498   7.429 -2.6449  0.5391  0.0860
 5392TIP3    H237736   2.149   4.391   7.535 -0.5711 -0.0362 -0.8064
 5393TIP3   OH237737   1.366   3.740   1.380 -0.1060 -0.0223  0.2602
 5393TIP3    H137738   1.389   3.706   1.293 -0.9544  3.1254 -1.3510
 5393TIP3    H237739   1.450   3.753   1.424  0.4593  0.0408 -0.8087
 5394TIP3   OH237740   5.191   1.002   8.290  0.0402 -0.3808 -0.1639
 5394TIP3    H137741   5.159   0.982   8.202  0.8679  0.6789 -0.7309
 5394TIP3    H237742   5.281   1.031   8.277 -0.4118  1.6193  0.8078
 5395TIP3   OH237743   6.680   6.651   8.349 -0.3698  0.4618 -0.1374
 5395TIP3    H137744   6.704   6.563   8.320  1.3168  0.8867 -0.1174
 5395TIP3    H237745   6.761   6.688   8.384 -1.5587  1.2165  1.9708
 5396TIP3   OH237746   3.898   6.762   7.781  0.1099 -0.6106 -0.2640
 5396TIP3    H137747   3.869   6.834   7.837 -3.4484 -2.4110  0.4537
 5396TIP3    H237748   3.901   6.800   7.693 -0.8360  0.6398  0.2011
 5397TIP3   OH237749   0.706   6.214   7.089 -0.0227  0.1720  0.4869
 5397TIP3    H137750   0.702   6.287   7.028  0.3174  0.4533  0.7950
 5397TIP3    H237751   0.654   6.242   7.165  1.5653  0.8573  1.3802
 5398TIP3   OH237752   6.655   5.845   1.218  0.1448 -0.5488  0.1901
 5398TIP3    H137753   6.700   5.867   1.299  2.2458  0.2403 -1.1048
 5398TIP3    H237754   6.693   5.761   1.192  0.9579  0.1482 -0.9502
 5399TIP3   OH237755   4.540   2.842   8.088 -0.3627  0.1129  0.1949
 5399TIP3    H137756   4.521   2.748   8.080 -0.4198  0.2039 -0.8496
 5399TIP3    H237757   4.487   2.883   8.019  0.3115  0.8208  0.0879
 5400TIP3   OH237758   1.077   3.087   0.912  0.5435  0.3428 -0.4986
 5400TIP3    H137759   1.038   3.060   0.995  2.2220  1.5749  0.7512
 5400TIP3    H237760   1.022   3.046   0.845 -0.1016 -1.7653  1.2120
 5401TIP3   OH237761   6.235   4.571   7.282 -0.2287  0.5302 -0.1124
 5401TIP3    H137762   6.262   4.648   7.232 -0.1370  0.4718 -0.1557
 5401TIP3    H237763   6.268   4.587   7.371 -0.2102  0.5410 -0.1213
 5402TIP3   OH237764   5.811   5.962   8.004 -0.4073  0.0175 -0.6117
 5402TIP3    H137765   5.885   5.903   8.016 -0.0660  0.7582  1.5453
 5402TIP3    H237766   5.833   6.014   7.927  1.2643  0.1187 -0.0916
 5403TIP3   OH237767   5.297   3.763   2.080  0.2559 -0.1462  0.3585
 5403TIP3    H137768   5.235   3.742   2.011 -0.1107 -0.1506  0.6866
 5403TIP3    H237769   5.345   3.840   2.048  0.6893 -0.6703 -0.2743
 5404TIP3   OH237770   3.093   0.499   3.194 -0.8396 -0.4427 -0.6111
 5404TIP3    H137771   3.029   0.568   3.215 -1.0295 -0.7464 -0.1593
 5404TIP3    H237772   3.176   0.544   3.185 -0.6853 -0.3196  1.1649
 5405TIP3   OH237773   6.662   3.122   8.724  0.2884  0.6149  0.6031
 5405TIP3    H137774   6.687   3.127   8.817  1.6041  1.8923  0.2129
 5405TIP3    H237775   6.571   3.154   8.722  0.4116  1.0410  1.3896
 5406TIP3   OH237776   2.515   5.143   0.574  0.4178  0.7952  0.1644
 5406TIP3    H137777   2.514   5.076   0.642 -1.7723  1.0795  0.4674
 5406TIP3    H237778   2.594   5.124   0.523  0.2159 -1.5936  0.6327
 5407TIP3   OH237779   2.230   4.565   1.361 -0.1446 -0.8596  0.6526
 5407TIP3    H137780   2.287   4.622   1.413 -0.8243  0.4651 -0.0161
 5407TIP3    H237781   2.287   4.492   1.335  2.2174  1.8164 -2.5236
 5408TIP3   OH237782   5.812   3.756   8.113 -0.4271 -0.0682 -0.0533
 5408TIP3    H137783   5.733   3.707   8.135  0.8241 -2.7376 -1.0744
 5408TIP3    H237784   5.871   3.742   8.187 -0.1580  0.1330 -0.2252
 5409TIP3   OH237785   1.731   5.304   8.622  0.1682  0.6748  0.0191
 5409TIP3    H137786   1.800   5.352   8.668  1.2297 -1.2559  0.5543
 5409TIP3    H237787   1.762   5.214   8.619 -1.2159  0.1937 -1.9795
 5410TIP3   OH237788   0.137   1.091   8.654 -0.3686  0.0541  0.0266
 5410TIP3    H137789   0.160   1.133   8.737 -0.9809 -1.7091  1.1379
 5410TIP3    H237790   0.214   1.039   8.630 -1.0484 -1.3234  0.7597
 5411TIP3   OH237791   0.612   4.946   8.278 -0.1476  0.1109 -0.1745
 5411TIP3    H137792   0.533   4.897   8.300 -0.3721  0.2995 -0.5505
 5411TIP3    H237793   0.639   4.988   8.360 -0.7896  0.5521 -0.1908
 5412TIP3   OH237794   1.832   2.404   0.333  0.8038 -0.0829 -0.8698
 5412TIP3    H137795   1.849   2.309   0.332  0.9009 -0.0725 -0.4528
 5412TIP3    H237796   1.919   2.443   0.336  0.7580 -0.0208  0.8315
 5413TIP3   OH237797   3.138   4.402   0.176  0.3252  0.3755  0.0797
 5413TIP3    H137798   3.194   4.325   0.175 -0.6467 -0.3399 -0.5655
 5413TIP3    H237799   3.196   4.473   0.203  1.6167 -0.2856 -0.8746
 5414TIP3   OH237800   3.962   6.242   8.421 -0.4566 -1.0555  0.4405
 5414TIP3    H137801   3.923   6.325   8.450 -0.3819 -0.3469 -1.3430
 5414TIP3    H237802   3.911   6.217   8.344  0.3479 -1.9860  0.1944
 5415TIP3   OH237803   1.713   6.365   1.350  0.6806 -0.0943 -0.4043
 5415TIP3    H137804   1.625   6.380   1.384 -0.0904 -1.5181 -1.6546
 5415TIP3    H237805   1.727   6.435   1.286  0.6306  0.3537  0.0667
 5416TIP3   OH237806   1.191   6.570   1.514 -0.0854  0.5513 -0.0936
 5416TIP3    H137807   1.197   6.648   1.458  1.3948  0.8825  0.4674
 5416TIP3    H237808   1.192   6.497   1.452 -3.7064  0.9086 -0.7787
 5417TIP3   OH237809   3.310   5.222   0.427  0.2203 -0.1097  0.3764
 5417TIP3    H137810   3.266   5.262   0.502  0.0371 -0.3142  0.3799
 5417TIP3    H237811   3.311   5.128   0.448  1.1417 -0.0591  0.6372
 5418TIP3   OH237812   0.238   3.936   8.523  0.0360 -0.7150 -0.0931
 5418TIP3    H137813   0.266   3.866   8.464  0.1892 -0.3803 -0.4210
 5418TIP3    H237814   0.185   3.994   8.468 -0.5505 -0.8651  0.3061
 5419TIP3   OH237815   4.682   5.902   1.002 -0.1983  0.0184 -0.4293
 5419TIP3    H137816   4.632   5.948   1.069  1.7394  0.8284  0.5281
 5419TIP3    H237817   4.615   5.865   0.944 -1.9062  0.4863  1.1278
 5420TIP3   OH237818   5.539   1.043   2.791  0.0954  0.2339 -0.1126
 5420TIP3    H137819   5.568   1.112   2.851 -0.5206  1.8691 -1.6175
 5420TIP3    H237820   5.503   1.090   2.716 -2.2836 -1.7305 -0.2964
 5421TIP3   OH237821   2.545   4.362   2.344 -0.2859  0.1100 -0.2620
 5421TIP3    H137822   2.465   4.373   2.293 -1.6101 -0.4339  1.6057
 5421TIP3    H237823   2.561   4.267   2.343  0.1411  0.1805 -0.3223
 5422TIP3   OH237824   6.540   0.647   1.907  0.2573  0.4779  0.1412
 5422TIP3    H137825   6.478   0.709   1.868 -0.1661 -0.1123 -0.1416
 5422TIP3    H237826   6.513   0.641   1.999  0.7781  1.2854  0.3580
 5423TIP3   OH237827   0.229   3.282   3.468 -0.3791 -0.1483  0.4456
 5423TIP3    H137828   0.202   3.286   3.560  0.1522  0.5929  0.5746
 5423TIP3    H237829   0.299   3.217   3.466 -0.2892 -0.0535  0.5830
 5424TIP3   OH237830   0.843   4.745   0.654  0.2557  0.4347  0.4246
 5424TIP3    H137831   0.791   4.825   0.662  2.5896  1.9513  1.8247
 5424TIP3    H237832   0.902   4.762   0.580 -0.2920 -0.7064 -0.3072
 5425TIP3   OH237833   3.559   5.526   1.976  0.1526  0.3493  0.0571
 5425TIP3    H137834   3.642   5.510   2.022 -0.2994 -0.4142  0.6342
 5425TIP3    H237835   3.531   5.439   1.946 -0.6747  0.5293  0.2820
 5426TIP3   OH237836   3.361   2.435   8.844  0.3455  0.3398  0.4400
 5426TIP3    H137837   3.406   2.381   8.909 -0.9373  1.6728  2.5565
 5426TIP3    H237838   3.270   2.403   8.846  0.0682  1.0996  0.0861
 5427TIP3   OH237839   0.880   4.206   8.247 -0.2371  0.7612  0.0253
 5427TIP3    H137840   0.864   4.198   8.341 -2.1609  0.3721 -0.2803
 5427TIP3    H237841   0.800   4.173   8.206  0.6041  0.7906 -1.7660
 5428TIP3   OH237842   4.105   4.225   2.092  0.1233  0.0634  0.5453
 5428TIP3    H137843   4.133   4.244   2.002 -2.2000  0.1985 -0.2167
 5428TIP3    H237844   4.060   4.141   2.085 -0.5191  0.3202  1.4565
 5429TIP3   OH237845   6.142   4.825   0.234 -0.1237 -0.3335  0.0778
 5429TIP3    H137846   6.205   4.870   0.291  1.6892 -1.0458 -1.2455
 5429TIP3    H237847   6.057   4.844   0.273  0.7476  2.0067  1.0770
 5430TIP3   OH237848   3.236   5.601   0.469 -0.2612 -0.0336 -0.0579
 5430TIP3    H137849   3.283   5.677   0.504  1.3194 -1.1047  0.2753
 5430TIP3    H237850   3.175   5.575   0.538 -0.1173  0.3579  0.2172
 5431TIP3   OH237851   1.288   0.563   8.109  0.2833  0.1010 -0.0710
 5431TIP3    H137852   1.332   0.521   8.184  1.1322  0.9183 -0.0916
 5431TIP3    H237853   1.271   0.652   8.139 -1.9003 -0.3477  0.1339
 5432TIP3   OH237854   3.934   6.126   8.785 -0.4026  0.0953 -0.0980
 5432TIP3    H137855   3.935   6.089   8.697 -0.8169  0.4884 -0.2733
 5432TIP3    H237856   3.973   6.213   8.776 -0.3184  0.0844  0.1331
 5433TIP3   OH237857   6.445   3.750   7.922 -0.0989  1.2113 -0.8917
 5433TIP3    H137858   6.390   3.757   8.000  0.4125 -0.9997 -0.2482
 5433TIP3    H237859   6.384   3.753   7.849 -1.7316 -4.2036 -0.1598
 5434TIP3   OH237860   2.892   4.873   1.492 -0.2303 -0.3683  0.2153
 5434TIP3    H137861   2.955   4.802   1.507  1.6170  1.0222 -0.6545
 5434TIP3    H237862   2.896   4.926   1.571 -0.5240 -0.4182  0.2657
 5435TIP3   OH237863   1.532   4.850   8.803  0.2154  0.1478 -0.4371
 5435TIP3    H137864   1.606   4.888   8.849  1.2207 -0.7770 -1.2262
 5435TIP3    H237865   1.502   4.919   8.744  0.2538  0.6275  0.0980
 5436TIP3   OH237866   6.430   4.480   7.862  0.2973 -0.3409 -0.3235
 5436TIP3    H137867   6.430   4.531   7.781  3.0574  0.3845  0.0309
 5436TIP3    H237868   6.436   4.545   7.931 -1.6447 -0.9748  0.5062
 5437TIP3   OH237869   3.524   0.690   1.983  0.0955 -0.3647 -0.1016
 5437TIP3    H137870   3.476   0.652   1.909 -0.3106 -0.9462  0.4554
 5437TIP3    H237871   3.464   0.754   2.020 -0.3567 -1.2398  0.7234
 5438TIP3   OH237872   0.212   0.832   3.158 -0.4290  0.0997 -0.0706
 5438TIP3    H137873   0.189   0.740   3.147  1.6278 -0.3354 -1.1648
 5438TIP3    H237874   0.181   0.874   3.077 -1.5988  0.4691  0.5366
 5439TIP3   OH237875   5.415   3.508   8.718  0.3632 -0.3109  0.2832
 5439TIP3    H137876   5.417   3.467   8.631  0.4586 -0.3315  0.2945
 5439TIP3    H237877   5.392   3.436   8.777  0.7783 -0.4051  0.3353
 5440TIP3   OH237878   2.224   6.056   2.653 -0.2769  0.0937  0.0049
 5440TIP3    H137879   2.156   6.122   2.640 -0.3040 -0.2684 -2.0408
 5440TIP3    H237880   2.286   6.098   2.713 -0.1555  2.1292 -1.4105
 5441TIP3   OH237881   1.184   0.533   8.485 -0.1827  0.4704  0.0723
 5441TIP3    H137882   1.112   0.561   8.429 -0.9668  1.0656  1.3380
 5441TIP3    H237883   1.243   0.485   8.426 -1.3868  0.3411 -1.0712
 5442TIP3   OH237884   3.320   3.496   0.657  0.5768  0.0879  0.4173
 5442TIP3    H137885   3.308   3.465   0.567  2.5740  1.6899 -0.4776
 5442TIP3    H237886   3.275   3.580   0.660  0.4352 -0.0047  0.9534
 5443TIP3   OH237887   1.110   4.301   3.290 -0.2489 -0.0022  0.1192
 5443TIP3    H137888   1.044   4.370   3.292  0.0664  0.3575 -0.8964
 5443TIP3    H237889   1.184   4.337   3.339  0.0154  0.5063 -0.6343
 5444TIP3   OH237890   4.398   6.723   7.329 -0.4471  0.5290 -0.1793
 5444TIP3    H137891   4.478   6.724   7.382  0.0746 -0.7334 -0.8781
 5444TIP3    H237892   4.427   6.692   7.243 -1.9169 -1.6432  0.0140
 5445TIP3   OH237893   3.166   1.292   1.811  0.3151 -0.4271 -0.9783
 5445TIP3    H137894   3.196   1.308   1.901 -0.4689  1.7071 -1.0211
 5445TIP3    H237895   3.240   1.251   1.767  0.8940 -1.0282  0.5038
 5446TIP3   OH237896   1.667   1.213   3.268  0.3573  0.4968 -0.4861
 5446TIP3    H137897   1.609   1.222   3.192 -0.6590  0.8425  0.3127
 5446TIP3    H237898   1.655   1.122   3.296 -0.5926  0.8421  0.2829
 5447TIP3   OH237899   3.564   4.896   8.785 -0.6103 -0.5670 -0.9683
 5447TIP3    H137900   3.489   4.839   8.768 -0.3226 -1.0767 -0.5313
 5447TIP3    H237901   3.639   4.837   8.787 -0.7212 -0.9375  3.8247
 5448TIP3   OH237902   4.913   1.204   1.652 -0.5368  0.5696 -0.1232
 5448TIP3    H137903   4.932   1.133   1.591 -1.5578 -1.4332  1.7568
 5448TIP3    H237904   4.997   1.249   1.663 -0.0402  0.1952 -1.9364
 5449TIP3   OH237905   2.063   4.474   1.033  0.3181  0.6252  0.4824
 5449TIP3    H137906   2.085   4.555   0.987 -0.7898  2.2601  2.6510
 5449TIP3    H237907   1.971   4.484   1.057 -0.1756 -1.8181 -0.1669
 5450TIP3   OH237908   2.842   0.912   2.298  0.5621 -0.0020 -0.4839
 5450TIP3    H137909   2.817   0.901   2.390 -3.4524  1.0150 -1.2467
 5450TIP3    H237910   2.901   0.987   2.298 -0.2034  0.6589  1.2277
 5451TIP3   OH237911   5.558   5.376   0.864 -0.2494 -0.6867 -0.4597
 5451TIP3    H137912   5.617   5.307   0.833 -0.0568 -0.1616 -1.2725
 5451TIP3    H237913   5.471   5.339   0.853 -0.0961 -1.4711  0.7541
 5452TIP3   OH237914   1.328   2.493   0.547 -0.3150 -0.2095 -0.3866
 5452TIP3    H137915   1.414   2.505   0.588  0.7128 -0.7860 -2.2301
 5452TIP3    H237916   1.322   2.564   0.483 -0.6591 -0.8924 -1.1221
 5453TIP3   OH237917   6.067   4.008   2.064  0.3448 -0.3192  0.3809
 5453TIP3    H137918   6.108   3.935   2.018 -0.8577 -0.5022 -0.4637
 5453TIP3    H237919   6.140   4.059   2.099  1.2728 -0.7828 -0.8039
 5454TIP3   OH237920   4.915   0.706   2.637 -0.1845 -0.5554 -0.1282
 5454TIP3    H137921   4.859   0.778   2.606 -0.1234 -1.1850 -1.8212
 5454TIP3    H237922   5.004   0.741   2.634 -0.1173 -0.7985 -1.3188
 5455TIP3   OH237923   2.699   0.513   8.506 -0.3207 -0.0125  0.1099
 5455TIP3    H137924   2.770   0.449   8.503 -1.1987 -0.9848 -0.4070
 5455TIP3    H237925   2.622   0.466   8.475 -1.2722  0.9364  0.9406
 5456TIP3   OH237926   0.465   2.125   2.965 -0.3911  0.7478  0.0084
 5456TIP3    H137927   0.433   2.140   3.054  0.0025 -0.0487  0.2906
 5456TIP3    H237928   0.543   2.179   2.958 -1.0876  1.7563 -0.2769
 5457TIP3   OH237929   5.098   1.027   1.042  0.0858  0.4837 -0.2760
 5457TIP3    H137930   5.162   0.962   1.070  1.0489  2.1373  1.6065
 5457TIP3    H237931   5.038   0.979   0.985  3.1461 -1.0896 -2.4250
 5458TIP3   OH237932   3.507   2.692   3.056 -0.0955 -0.4052 -0.2964
 5458TIP3    H137933   3.476   2.617   3.006 -0.4722  0.4317 -1.3467
 5458TIP3    H237934   3.453   2.765   3.026 -0.0319  0.2210  1.0113
 5459TIP3   OH237935   1.209   4.944   8.821 -0.3270  0.3243 -0.2644
 5459TIP3    H137936   1.175   4.859   8.794 -2.5197  1.0529 -0.0249
 5459TIP3    H237937   1.242   4.930   8.909 -1.0672 -0.2229 -0.0591
 5460TIP3   OH237938   6.379   0.063   1.918 -0.4875  0.6054  0.1980
 5460TIP3    H137939   6.323  -0.013   1.935  0.4561 -0.1287  0.1087
 5460TIP3    H237940   6.441   0.064   1.991 -0.8669  1.6702  0.5310
 5461TIP3   OH237941   1.136   1.963   1.958 -0.0380  0.3525  0.2706
 5461TIP3    H137942   1.077   2.026   2.001  0.0665  1.2567 -0.8546
 5461TIP3    H237943   1.221   2.006   1.959  0.0592  0.1909 -0.4019
 5462TIP3   OH237944   4.684   5.012   7.725  0.2582 -0.0406  0.2156
 5462TIP3    H137945   4.606   5.036   7.675 -0.4333  0.5840  1.5500
 5462TIP3    H237946   4.711   5.093   7.768  0.1410 -0.7670  1.7406
 5463TIP3   OH237947   1.359   1.132   1.923  0.1227 -0.6844  0.6456
 5463TIP3    H137948   1.418   1.100   1.991  0.3008 -0.8961  0.3930
 5463TIP3    H237949   1.360   1.227   1.934 -2.9008 -0.8244  3.4990
 5464TIP3   OH237950   4.732   5.333   0.711 -0.3421  0.0948 -0.7626
 5464TIP3    H137951   4.788   5.398   0.755 -0.6019  0.8836 -1.5764
 5464TIP3    H237952   4.783   5.305   0.636 -0.7179  0.2355 -1.0697
 5465TIP3   OH237953   6.657   4.412   7.970 -0.7490  0.0856  0.1384
 5465TIP3    H137954   6.565   4.404   7.941 -0.5189  1.9438 -1.3212
 5465TIP3    H237955   6.660   4.495   8.018  0.1785  0.0538  0.1515
 5466TIP3   OH237956   3.508   0.035   2.833  0.9069  0.2920 -0.5178
 5466TIP3    H137957   3.469   0.108   2.882  0.4682  0.8176 -1.6093
 5466TIP3    H237958   3.485  -0.043   2.884  1.7219  0.9253  0.8857
 5467TIP3   OH237959   0.196   6.359   1.052  0.6089  0.0211 -0.7876
 5467TIP3    H137960   0.245   6.291   1.098  2.0482  0.6050 -1.4063
 5467TIP3    H237961   0.220   6.440   1.096  0.6906  0.3909 -1.5052
 5468TIP3   OH237962   6.447   5.129   2.649  0.1841  0.0090  0.1056
 5468TIP3    H137963   6.427   5.151   2.740  1.1757  0.3396  0.2604
 5468TIP3    H237964   6.509   5.056   2.656 -0.1940 -0.3608 -0.3254
 5469TIP3   OH237965   3.191   6.432   1.917  0.3538 -0.0072 -0.0269
 5469TIP3    H137966   3.117   6.476   1.876  1.2385  1.0460 -0.5350
 5469TIP3    H237967   3.169   6.339   1.913 -0.3956  0.2023 -1.2654
 5470TIP3   OH237968   0.739   2.058   1.580 -0.0954  0.0371 -0.2525
 5470TIP3    H137969   0.811   2.005   1.615 -1.8713 -2.2249  0.1730
 5470TIP3    H237970   0.741   2.138   1.633  2.1486  0.1109 -0.3456
 5471TIP3   OH237971   0.568   5.932   2.482  0.2585  0.1774 -0.0324
 5471TIP3    H137972   0.513   5.862   2.515 -1.0265  1.6500  1.1175
 5471TIP3    H237973   0.627   5.953   2.554 -1.4303  2.2844  0.8242
 5472TIP3   OH237974   0.841   0.637   2.292  0.4600  0.0517  0.4064
 5472TIP3    H137975   0.758   0.610   2.252 -0.5461  4.5269 -1.1282
 5472TIP3    H237976   0.905   0.626   2.223  0.4752 -0.3202  0.4794
 5473TIP3   OH237977   2.534   5.831   1.441 -0.6113 -0.4412 -0.7874
 5473TIP3    H137978   2.500   5.760   1.495 -0.3129 -0.6068 -0.8159
 5473TIP3    H237979   2.554   5.901   1.503 -0.1451 -0.6794 -0.6703
 5474TIP3   OH237980   3.860   0.824   0.802 -0.0390  0.0664 -0.5322
 5474TIP3    H137981   3.914   0.886   0.751  0.4502  0.2412  0.1819
 5474TIP3    H237982   3.896   0.829   0.891  0.6758 -1.9751 -0.6460
 5475TIP3   OH237983   3.622   3.800   0.721  0.4075  0.5218 -0.0975
 5475TIP3    H137984   3.686   3.844   0.777 -0.1537  1.0205  0.1558
 5475TIP3    H237985   3.557   3.867   0.701  1.0992  0.6578 -2.1514
 5476TIP3   OH237986   1.558   3.586   0.803 -0.2397  0.6878 -0.6907
 5476TIP3    H137987   1.648   3.558   0.821 -0.7123  0.3958  1.5541
 5476TIP3    H237988   1.511   3.568   0.884 -1.9631  2.3948 -1.2326
 5477TIP3   OH237989   4.483   3.661   0.436 -0.6073 -0.2436  0.4490
 5477TIP3    H137990   4.441   3.744   0.460 -0.1522  0.4718 -1.1088
 5477TIP3    H237991   4.557   3.653   0.496 -2.1899 -0.9304  2.4435
 5478TIP3   OH237992   0.121   1.989   3.011  0.0632 -0.2667  0.2311
 5478TIP3    H137993   0.198   1.935   2.991 -0.8289 -1.8082  0.7348
 5478TIP3    H237994   0.099   1.966   3.102 -0.4823  0.7984  0.3827
 5479TIP3   OH237995   5.954   3.202   8.460 -0.0519  0.0801  0.1377
 5479TIP3    H137996   5.875   3.149   8.451  0.2927 -0.1495 -2.0155
 5479TIP3    H237997   5.925   3.292   8.445 -0.0027  0.0566 -0.1033
 5480TIP3   OH237998   5.266   5.645   1.046  0.0333  0.1537  0.1319
 5480TIP3    H137999   5.294   5.728   1.087  0.1659  0.1992 -0.0496
 5480TIP3    H238000   5.230   5.594   1.119  1.3758 -0.2464  0.5467
 5481TIP3   OH238001   4.723   6.179   7.699 -0.2801 -0.1127  0.1130
 5481TIP3    H138002   4.633   6.158   7.674 -0.8927  2.5793 -0.1748
 5481TIP3    H238003   4.754   6.238   7.630  1.2480  0.0927  0.9311
 5482TIP3   OH238004   5.255   0.004   2.630  0.4396  0.1498 -0.1546
 5482TIP3    H138005   5.168   0.006   2.591  0.3343 -0.5379  0.0243
 5482TIP3    H238006   5.247  -0.057   2.703  1.1946 -0.3208 -0.4547
 5483TIP3   OH238007   0.995   2.330   8.421  0.3946 -0.1194  0.1520
 5483TIP3    H138008   0.951   2.251   8.454  0.4342 -0.7001 -1.1266
 5483TIP3    H238009   1.087   2.317   8.443  0.6459 -1.1644 -1.3345
 5484TIP3   OH238010   3.767   4.776   1.800 -0.0070 -0.3226  0.0973
 5484TIP3    H138011   3.706   4.727   1.856 -0.2748  0.0373  0.1284
 5484TIP3    H238012   3.850   4.730   1.809 -0.2202 -0.6830  0.2411
 5485TIP3   OH238013   0.838   3.608   0.178  0.1089  0.5490  0.1653
 5485TIP3    H138014   0.837   3.615   0.273  0.7533  1.4106  0.1195
 5485TIP3    H238015   0.834   3.698   0.147  1.4581  0.3829 -0.5879
 5486TIP3   OH238016   6.681   1.179   0.543 -0.0744  0.0441 -0.0259
 5486TIP3    H138017   6.721   1.116   0.602  0.0472 -0.1376 -0.2968
 5486TIP3    H238018   6.730   1.169   0.461  0.1733  0.7267  0.0291
 5487TIP3   OH238019   5.440   3.271   3.253  0.5609  0.6551  0.0515
 5487TIP3    H138020   5.410   3.274   3.344 -1.8844  0.6852 -0.6888
 5487TIP3    H238021   5.527   3.232   3.258  0.4372  0.5346  2.3889
 5488TIP3   OH238022   0.097   2.462   1.753  0.6831 -0.1884 -0.0123
 5488TIP3    H138023   0.098   2.446   1.848  2.4699 -0.6042 -0.0554
 5488TIP3    H238024   0.160   2.532   1.740  0.0346  0.2521 -0.8502
 5489TIP3   OH238025   2.340   0.634   2.152 -0.2270  0.4159  0.0115
 5489TIP3    H138026   2.273   0.585   2.104 -0.8711  0.6969  0.5971
 5489TIP3    H238027   2.325   0.610   2.244  1.8008 -1.1196 -0.0017
 5490TIP3   OH238028   0.250   2.285   8.370  0.0379  0.4092 -0.7229
 5490TIP3    H138029   0.239   2.265   8.277 -0.8577 -0.5998 -0.4224
 5490TIP3    H238030   0.207   2.370   8.381  0.6106  0.7833 -1.3224
 5491TIP3   OH238031   4.738   4.335   1.521 -0.5825  0.3451  0.5035
 5491TIP3    H138032   4.772   4.366   1.605 -0.8074  1.0484  0.3413
 5491TIP3    H238033   4.685   4.258   1.544 -1.0798  0.8420  1.0791
 5492TIP3   OH238034   6.568   0.087   2.366  0.7116  0.0453 -0.1847
 5492TIP3    H138035   6.628   0.158   2.345  0.2938 -0.0198 -1.7044
 5492TIP3    H238036   6.486   0.112   2.323 -0.3391  0.0793  1.7467
 5493TIP3   OH238037   3.932   3.858   0.375 -0.0423  0.7305  0.1230
 5493TIP3    H138038   3.899   3.916   0.306 -0.9112  0.9005  0.6571
 5493TIP3    H238039   4.003   3.907   0.416  1.4081  0.0938 -1.4790
 5494TIP3   OH238040   2.579   6.689   8.238 -0.3051  0.4953  0.1764
 5494TIP3    H138041   2.613   6.693   8.148 -0.5433  0.2653  0.0754
 5494TIP3    H238042   2.542   6.775   8.253 -0.9944  0.2817 -0.2393
 5495TIP3   OH238043   4.626   1.091   8.574 -0.1933 -0.0936 -0.6603
 5495TIP3    H138044   4.536   1.125   8.566 -0.4441 -0.5077  0.2199
 5495TIP3    H238045   4.622   1.004   8.535 -0.1130 -0.0022 -0.8691
 5496TIP3   OH238046   1.126   5.257   1.285 -0.6856  0.0154 -0.2857
 5496TIP3    H138047   1.152   5.220   1.370 -0.4846  0.8139  0.0122
 5496TIP3    H238048   1.035   5.281   1.296 -0.4576  0.7971 -0.0452
 5497TIP3   OH238049   6.672   3.945   1.270  0.2555  0.3170  0.0001
 5497TIP3    H138050   6.670   3.865   1.323  0.4659 -0.9870 -1.8716
 5497TIP3    H238051   6.583   3.978   1.274 -0.4653 -1.3513 -1.0889
 5498TIP3   OH238052   0.797   0.449   1.397  0.2125  0.0623  0.3169
 5498TIP3    H138053   0.710   0.411   1.403 -0.3372  1.2739  0.3640
 5498TIP3    H238054   0.794   0.525   1.456  0.6543  1.2656 -1.1461
 5499TIP3   OH238055   1.827   5.622   8.280 -0.2710 -0.2683  0.2001
 5499TIP3    H138056   1.816   5.710   8.244 -1.7311 -0.2629  0.5854
 5499TIP3    H238057   1.815   5.564   8.205  4.0424 -0.1757 -0.8186
 5500TIP3   OH238058   4.247   3.830   1.677  0.2248  0.0190  0.7452
 5500TIP3    H138059   4.280   3.745   1.708 -0.5526 -0.5377  0.0872
 5500TIP3    H238060   4.254   3.825   1.582 -1.8800 -0.2065  0.5455
 5501TIP3   OH238061   2.716   4.155   7.760 -0.0366  0.7008 -0.2070
 5501TIP3    H138062   2.709   4.074   7.811  1.2256  0.9419  0.3751
 5501TIP3    H238063   2.775   4.132   7.688  2.3724  1.6914  1.3097
 5502TIP3   OH238064   2.621   3.403   2.673  0.2770 -0.0586 -0.5760
 5502TIP3    H138065   2.668   3.365   2.747 -0.8077 -2.2476 -0.9262
 5502TIP3    H238066   2.613   3.331   2.610 -0.2173  1.3084 -2.1401
 5503TIP3   OH238067   2.400   5.026   2.480  0.0646  0.4308  0.0675
 5503TIP3    H138068   2.461   5.018   2.406 -1.0236  0.8304 -0.8900
 5503TIP3    H238069   2.395   4.938   2.517 -0.2029 -0.0090 -1.0045
 5504TIP3   OH238070   4.711   3.090   7.767 -0.5704  0.3283 -0.2196
 5504TIP3    H138071   4.685   3.006   7.730 -0.1454  0.2834 -0.4256
 5504TIP3    H238072   4.680   3.154   7.703  0.2280  0.2461 -0.7024
 5505TIP3   OH238073   4.990   1.764   8.774  0.6806  0.3367  0.5047
 5505TIP3    H138074   4.999   1.720   8.689  0.3256  0.3618  0.4546
 5505TIP3    H238075   5.045   1.712   8.833  0.7767  0.2055  0.3034
 5506TIP3   OH238076   3.543   6.149   0.948 -0.1760 -0.5253  0.2398
 5506TIP3    H138077   3.469   6.110   0.902  0.4012  0.3408 -1.5404
 5506TIP3    H238078   3.544   6.107   1.033 -0.2738 -3.5007 -1.1249
 5507TIP3   OH238079   5.646   1.362   1.603  0.6846  0.5929  0.0421
 5507TIP3    H138080   5.608   1.318   1.680 -1.7614  1.8537 -0.3579
 5507TIP3    H238081   5.624   1.305   1.530 -1.0096  1.5749 -0.2581
 5508TIP3   OH238082   3.663   1.572   2.526  0.1953  0.2550 -0.5216
 5508TIP3    H138083   3.598   1.525   2.578 -0.7101 -0.4379 -2.1994
 5508TIP3    H238084   3.718   1.617   2.591  0.5311 -2.3320  1.1513
 5509TIP3   OH238085   3.156   4.049   0.977 -0.4776  0.3940  0.5528
 5509TIP3    H138086   3.142   4.126   0.921 -1.0768 -0.6477 -0.7931
 5509TIP3    H238087   3.229   4.004   0.936 -0.7230 -0.2275  0.7943
 5510TIP3   OH238088   5.991   1.071   3.344  0.1207  0.2271 -0.0494
 5510TIP3    H138089   5.903   1.069   3.306 -0.1540 -0.3728  0.5936
 5510TIP3    H238090   6.027   0.984   3.325 -0.2042 -0.2641  1.4498
 5511TIP3   OH238091   1.815   4.355   8.352 -0.3306 -0.1510 -0.0485
 5511TIP3    H138092   1.892   4.361   8.408 -0.7413  0.1785  0.4997
 5511TIP3    H238093   1.741   4.354   8.413 -0.8119  0.5921 -0.5944
 5512TIP3   OH238094   3.553   3.882   2.925 -0.6618 -0.5945  0.5503
 5512TIP3    H138095   3.578   3.795   2.956 -0.2637 -1.7204 -2.5168
 5512TIP3    H238096   3.625   3.939   2.953 -0.4284 -1.4459  1.7512
 5513TIP3   OH238097   0.741   3.122   8.477  0.1297 -0.3790  0.0890
 5513TIP3    H138098   0.659   3.090   8.514 -0.3095  1.3343  0.6658
 5513TIP3    H238099   0.807   3.057   8.503 -0.7645 -0.9557  0.9486
 5514TIP3   OH238100   2.615   6.445   0.410 -0.4763 -0.2220  0.1072
 5514TIP3    H138101   2.706   6.471   0.396 -0.4536  0.2839  1.1362
 5514TIP3    H238102   2.602   6.453   0.504 -1.7843  0.3807 -0.1084
 5515TIP3   OH238103   2.352   2.108   8.100  0.0669  0.6594  0.7176
 5515TIP3    H138104   2.444   2.107   8.074 -0.2623  0.8418 -0.5272
 5515TIP3    H238105   2.308   2.161   8.033 -1.1512 -0.5015  0.5566
 5516TIP3   OH238106   0.650   4.007   7.758 -0.4138 -0.2345 -0.0227
 5516TIP3    H138107   0.726   3.968   7.802  0.0727  0.3120 -0.3648
 5516TIP3    H238108   0.680   4.094   7.733 -1.0634 -0.1284 -0.4293
 5517TIP3   OH238109   4.124   1.016   2.676 -0.4766  0.9962 -0.0384
 5517TIP3    H138110   4.123   1.093   2.619  2.7030  1.2385  0.0751
 5517TIP3    H238111   4.105   1.050   2.763 -1.2711  1.2609 -0.3020
 5518TIP3   OH238112   3.566   0.935   0.852 -0.6316 -0.1638  0.1646
 5518TIP3    H138113   3.536   0.944   0.762 -0.4862 -1.3013 -0.0069
 5518TIP3    H238114   3.661   0.936   0.846 -0.5930  1.8560  0.5433
 5519TIP3   OH238115   6.149   0.262   0.857  0.0852  0.0692  0.5458
 5519TIP3    H138116   6.099   0.238   0.934 -1.2250 -0.8747 -0.5514
 5519TIP3    H238117   6.185   0.179   0.825  0.0052  0.3360 -0.2616
 5520TIP3   OH238118   1.394   4.072   2.191 -0.3831 -0.0928  0.0842
 5520TIP3    H138119   1.394   4.034   2.103  0.4863  0.4084 -0.1456
 5520TIP3    H238120   1.305   4.104   2.203 -0.3281  0.4560 -0.8909
 5521TIP3   OH238121   3.194   4.384   8.092 -0.0234 -0.2314 -0.2806
 5521TIP3    H138122   3.201   4.316   8.158 -2.0361  0.0147  0.2659
 5521TIP3    H238123   3.170   4.338   8.012  0.4459 -0.3326 -0.3653
 5522TIP3   OH238124   1.240   4.967   0.887 -0.0655 -0.0776  0.0981
 5522TIP3    H138125   1.276   4.880   0.869 -2.5083 -1.0234 -0.5877
 5522TIP3    H238126   1.186   4.955   0.965 -1.3278  0.5307 -0.6499
 5523TIP3   OH238127   2.886   2.485   0.850 -0.1521 -0.0648 -0.5575
 5523TIP3    H138128   2.898   2.514   0.759 -1.4266  0.6007 -0.5387
 5523TIP3    H238129   2.935   2.403   0.855  1.1225  0.5978 -1.4403
 5524TIP3   OH238130   1.676   6.227   0.816 -0.4170 -0.2912  0.4062
 5524TIP3    H138131   1.712   6.275   0.741  1.4049  1.2909  2.1705
 5524TIP3    H238132   1.599   6.278   0.842 -0.2529 -0.0640  0.4457
 5525TIP3   OH238133   2.636   1.654   0.090  0.0400 -0.3655  0.1144
 5525TIP3    H138134   2.695   1.703   0.032 -2.4731  0.1775 -2.1764
 5525TIP3    H238135   2.686   1.576   0.115  1.1643 -0.8287 -3.1258
 5526TIP3   OH238136   2.755   0.699   2.718 -0.3764 -0.1745 -0.4514
 5526TIP3    H138137   2.808   0.741   2.650 -0.1433  0.4436  0.1100
 5526TIP3    H238138   2.816   0.680   2.789 -0.9111  0.6653  0.2552
 5527TIP3   OH238139   3.186   0.834   8.087  0.1256  0.0291  0.3213
 5527TIP3    H138140   3.263   0.787   8.056  0.6512  1.1843 -0.1858
 5527TIP3    H238141   3.221   0.901   8.146 -0.5510  0.2146  0.5177
 5528TIP3   OH238142   0.237   1.085   2.371 -0.6414 -0.0810  0.1104
 5528TIP3    H138143   0.197   1.032   2.441  0.1071 -1.0519 -0.1738
 5528TIP3    H238144   0.294   1.147   2.416  0.4857 -1.2528  0.3550
 5529TIP3   OH238145   0.357   1.507   7.306 -0.2730  0.7131 -0.6534
 5529TIP3    H138146   0.291   1.459   7.256 -0.2127  0.7431 -0.7630
 5529TIP3    H238147   0.441   1.472   7.275 -0.2462 -0.8625  0.9951
 5530TIP3   OH238148   6.345   4.375   2.665 -0.7712 -0.5282 -0.2875
 5530TIP3    H138149   6.311   4.458   2.698  2.6016  0.5365  0.9046
 5530TIP3    H238150   6.325   4.311   2.734  1.2772  0.5213  1.4008
 5531TIP3   OH238151   6.665   1.585   8.189  0.1423 -0.0385 -0.5123
 5531TIP3    H138152   6.739   1.524   8.200  1.7459  1.8335 -0.3390
 5531TIP3    H238153   6.702   1.671   8.208 -1.5523  1.2553 -2.6085
 5532TIP3   OH238154   3.006   0.299   2.021  0.2395 -0.7481 -0.1844
 5532TIP3    H138155   3.021   0.231   1.955 -0.5140  0.6046 -1.8199
 5532TIP3    H238156   3.079   0.359   2.011  0.1275 -0.5382  0.2321
 5533TIP3   OH238157   5.101   2.826   1.664 -0.0138 -0.2852  0.0755
 5533TIP3    H138158   5.178   2.849   1.716  0.5166 -0.9902 -0.3593
 5533TIP3    H238159   5.037   2.795   1.727  0.2220 -0.0895  0.4114
 5534TIP3   OH238160   4.451   5.273   3.170  0.3339  0.0017 -0.5636
 5534TIP3    H138161   4.380   5.214   3.146  0.7033 -0.9799  0.6364
 5534TIP3    H238162   4.412   5.361   3.166 -0.8212 -0.4797 -0.3259
 5535TIP3   OH238163   5.138   1.178   1.265 -0.7302  0.1201  0.2044
 5535TIP3    H138164   5.105   1.145   1.182 -0.3709  0.4285 -0.0603
 5535TIP3    H238165   5.069   1.156   1.328 -0.0597 -2.1497  0.2561
 5536TIP3   OH238166   0.654   2.529   2.880  0.4554 -0.2833  0.1556
 5536TIP3    H138167   0.656   2.583   2.801  0.0875 -0.9970 -0.3542
 5536TIP3    H238168   0.722   2.463   2.865 -0.1373 -0.8872  0.0889
 5537TIP3   OH238169   1.926   1.326   8.521  0.1574 -0.4199  0.1296
 5537TIP3    H138170   1.904   1.395   8.458 -1.6626 -1.4657 -0.4547
 5537TIP3    H238171   2.017   1.305   8.502 -0.4621 -1.0960 -2.6128
 5538TIP3   OH238172   0.947   0.167   7.758 -0.1630 -0.6148 -0.3292
 5538TIP3    H138173   0.919   0.253   7.726 -0.9131 -0.1431  1.4976
 5538TIP3    H238174   1.035   0.182   7.793 -0.7531 -0.2845  1.0720
 5539TIP3   OH238175   6.643   0.432   1.142 -0.4158  0.3354  0.2981
 5539TIP3    H138176   6.726   0.432   1.190 -0.7607  0.8197  0.9098
 5539TIP3    H238177   6.603   0.516   1.164 -1.5617 -0.3278  0.8603
 5540TIP3   OH238178   2.769   1.228   2.069 -0.3354 -0.3351  0.2076
 5540TIP3    H138179   2.729   1.141   2.069 -1.9954  0.3381  1.9019
 5540TIP3    H238180   2.753   1.263   1.981 -2.1532 -0.7218  0.3490
 5541TIP3   OH238181   6.340   0.208   2.222 -0.5622 -0.1538 -0.2644
 5541TIP3    H138182   6.358   0.260   2.144  3.6892  1.2658  1.3158
 5541TIP3    H238183   6.321   0.274   2.290 -0.8346 -1.0900  0.5899
 5542TIP3   OH238184   5.365   0.538   1.348 -0.0007 -0.3580 -0.3373
 5542TIP3    H138185   5.396   0.487   1.273 -1.9328 -0.5961 -1.0429
 5542TIP3    H238186   5.366   0.629   1.318 -1.5918 -0.5329 -1.0074
 5543TIP3   OH238187   0.774   6.701   8.202  0.0561  0.2875 -0.5602
 5543TIP3    H138188   0.826   6.752   8.265  1.2921  0.8901 -2.0071
 5543TIP3    H238189   0.758   6.618   8.247  0.4189  0.8982  0.7636
 5544TIP3   OH238190   1.965   5.453   1.410 -0.0077  0.2105 -0.3004
 5544TIP3    H138191   1.884   5.419   1.448  1.7947 -1.8364  2.0532
 5544TIP3    H238192   1.952   5.547   1.407 -1.7048  0.1534  2.1273
 5545TIP3   OH238193   0.369   4.142   2.233 -0.4163 -0.1108  0.4222
 5545TIP3    H138194   0.318   4.103   2.162  2.4449 -1.9334 -0.8192
 5545TIP3    H238195   0.414   4.068   2.274  1.0103  1.3428  1.6193
 5546TIP3   OH238196   1.926   2.194   0.098  0.1685  0.7596  0.1550
 5546TIP3    H138197   1.982   2.161   0.028 -1.6508 -0.4923 -0.7959
 5546TIP3    H238198   1.984   2.248   0.152  2.9450 -2.5248  0.7796
 5547TIP3   OH238199   1.514   0.771   7.915 -0.1542 -0.5569 -0.4700
 5547TIP3    H138200   1.605   0.796   7.898 -0.8047  1.5878 -1.0959
 5547TIP3    H238201   1.519   0.678   7.936  2.0534 -0.7706 -1.5697
 5548TIP3   OH238202   0.007   5.563   8.367 -0.0072 -0.0322  0.4287
 5548TIP3    H138203  -0.005   5.655   8.345 -1.7130  0.3192  2.4615
 5548TIP3    H238204  -0.077   5.522   8.347  0.3539 -0.9038  0.6318
 5549TIP3   OH238205   5.077   3.167   0.815  0.3152  0.1747  0.3257
 5549TIP3    H138206   5.114   3.089   0.855  2.7517  1.0208 -0.1364
 5549TIP3    H238207   4.983   3.150   0.814  0.7978 -3.2493 -0.8318
 5550TIP3   OH238208   1.531   4.882   7.847  0.6258  0.5170 -0.1256
 5550TIP3    H138209   1.484   4.833   7.779  2.0115 -0.6823 -0.2818
 5550TIP3    H238210   1.615   4.904   7.807  0.3921  2.2998  0.2629
 5551TIP3   OH238211   2.198   0.405   0.338  0.1318  0.4888  0.3167
 5551TIP3    H138212   2.231   0.316   0.333 -0.4003  0.3481 -1.1949
 5551TIP3    H238213   2.270   0.455   0.378  1.7862 -0.0128 -1.8571
 5552TIP3   OH238214   1.666   0.134   0.790  0.0564  0.8514  0.1767
 5552TIP3    H138215   1.739   0.142   0.729 -0.9307  2.0205 -0.9006
 5552TIP3    H238216   1.676   0.208   0.850  0.3621  0.3764  0.7228
 5553TIP3   OH238217   3.356   1.172   8.630  0.3474  0.4452 -0.2527
 5553TIP3    H138218   3.390   1.229   8.561  0.6046 -0.6429 -1.0693
 5553TIP3    H238219   3.434   1.133   8.670  0.1503 -0.4878 -0.7453
 5554TIP3   OH238220   1.453   3.687   8.016 -0.1187  0.6672 -0.1967
 5554TIP3    H138221   1.391   3.626   7.975  1.2089 -1.7746  1.1632
 5554TIP3    H238222   1.520   3.701   7.950 -0.5888  0.8911 -0.6291
 5555TIP3   OH238223   1.608   2.213   3.235 -1.2107 -0.3830 -0.2045
 5555TIP3    H138224   1.520   2.179   3.220 -1.7850  1.6901 -1.9824
 5555TIP3    H238225   1.602   2.307   3.218  1.3138 -0.1308 -0.2052
 5556TIP3   OH238226   1.656   5.730   1.296  0.1372 -0.3813  0.0769
 5556TIP3    H138227   1.654   5.796   1.227  1.7675  1.3068  1.5374
 5556TIP3    H238228   1.704   5.657   1.257 -0.9573 -0.4197 -1.2918
 5557TIP3   OH238229   0.189   5.015   8.004  0.2153  0.6266 -0.1219
 5557TIP3    H138230   0.116   4.992   7.947  0.5526  1.4108 -0.8877
 5557TIP3    H238231   0.159   4.990   8.092 -0.1687 -0.9168 -0.6601
 5558TIP3   OH238232   3.682   3.612   1.308 -0.0627  0.6047 -0.8487
 5558TIP3    H138233   3.777   3.607   1.294 -0.0602  0.9861 -0.9913
 5558TIP3    H238234   3.668   3.569   1.392  0.1210 -0.2972 -1.2639
 5559TIP3   OH238235   4.205   2.239   0.712  0.5919  0.9863  0.0341
 5559TIP3    H138236   4.272   2.172   0.698 -0.0322  0.4475 -0.4199
 5559TIP3    H238237   4.124   2.190   0.724  0.1816  1.6538  0.0451
 5560TIP3   OH238238   2.750   2.546   2.230  0.0225  0.2530 -0.2894
 5560TIP3    H138239   2.746   2.498   2.313 -0.0499  2.6419  1.1666
 5560TIP3    H238240   2.843   2.566   2.220 -0.2457  2.2051  0.6415
 5561TIP3   OH238241   3.252   3.950   7.974 -0.2753  0.4423 -0.6522
 5561TIP3    H138242   3.315   3.966   8.045 -2.6157  0.0935  1.6371
 5561TIP3    H238243   3.209   4.034   7.961  0.7123  0.7213 -2.3304
 5562TIP3   OH238244   5.015   3.398   1.583 -0.1501 -0.4660  0.4610
 5562TIP3    H138245   4.996   3.305   1.576  0.4697 -0.6898  1.4635
 5562TIP3    H238246   4.992   3.420   1.674 -0.8749  0.5006  0.0662
 5563TIP3   OH238247   1.152   0.024   1.968  0.5377  0.4960 -0.5984
 5563TIP3    H138248   1.160   0.009   1.874  0.2825 -2.0269 -0.2761
 5563TIP3    H238249   1.061   0.004   1.989  0.9852 -0.6008  0.4189
 5564TIP3   OH238250   3.360   6.320   3.157 -0.1443 -0.4267 -0.3645
 5564TIP3    H138251   3.390   6.408   3.179 -0.4266  0.2164 -2.3298
 5564TIP3    H238252   3.386   6.266   3.231  1.3172  1.0418  0.2489
 5565TIP3   OH238253   3.498   0.365   2.702 -0.0954  0.1530  0.0561
 5565TIP3    H138254   3.530   0.279   2.730  0.6172  0.1687 -0.6576
 5565TIP3    H238255   3.490   0.416   2.782 -0.2464 -0.4899  0.4539
 5566TIP3   OH238256   6.304   3.600   0.433 -0.1209 -0.3095 -0.4842
 5566TIP3    H138257   6.375   3.656   0.463 -0.3012  0.4603 -1.4503
 5566TIP3    H238258   6.230   3.660   0.423 -0.1759 -0.6139 -2.0260
 5567TIP3   OH238259   3.209   0.229   1.040 -0.2962  0.0939  0.1030
 5567TIP3    H138260   3.279   0.293   1.042 -1.3070  1.3118  2.8682
 5567TIP3    H238261   3.251   0.148   1.012  2.5779  0.4613  2.7641
 5568TIP3   OH238262   3.572   3.004   2.867  0.3963 -0.0510 -0.1000
 5568TIP3    H138263   3.566   3.099   2.876 -0.0868 -0.0813 -0.0913
 5568TIP3    H238264   3.491   2.971   2.905  0.0881 -0.4047 -1.0290
 5569TIP3   OH238265   0.523   6.006   7.421  0.2078 -0.2624  0.0570
 5569TIP3    H138266   0.486   6.009   7.510  0.1016  1.3040 -0.0142
 5569TIP3    H238267   0.459   5.957   7.370 -0.3040 -0.1683  0.5974
 5570TIP3   OH238268   4.731   0.608   3.231  0.8858 -0.1355 -0.2156
 5570TIP3    H138269   4.674   0.581   3.303  0.2849  1.1091 -0.1885
 5570TIP3    H238270   4.760   0.696   3.255  0.9154  0.1810 -1.3502
 5571TIP3   OH238271   2.799   2.734   2.467  0.2025 -0.4725 -0.2681
 5571TIP3    H138272   2.736   2.668   2.437  2.3385 -2.4082 -0.7719
 5571TIP3    H238273   2.757   2.775   2.542 -1.4197 -2.1081 -0.2191
 5572TIP3   OH238274   1.876   4.101   8.546  0.1984 -0.4066  0.2702
 5572TIP3    H138275   1.814   4.063   8.485 -0.0787  0.5083 -0.0279
 5572TIP3    H238276   1.952   4.042   8.543  0.4059 -0.1129 -1.3553
 5573TIP3   OH238277   0.164   0.628   1.422  0.2063 -0.4837  0.0343
 5573TIP3    H138278   0.227   0.596   1.487 -0.5907  0.7585  1.4877
 5573TIP3    H238279   0.133   0.549   1.378  2.2345 -1.1880 -0.2479
 5574TIP3   OH238280   2.250   0.733   2.815  0.0671 -0.0628 -0.4298
 5574TIP3    H138281   2.328   0.777   2.781  2.1224 -1.9303  1.4828
 5574TIP3    H238282   2.215   0.795   2.879  1.6311 -0.2334  0.6605
 5575TIP3   OH238283   4.504   1.348   8.425 -0.0670  0.3135 -0.1891
 5575TIP3    H138284   4.428   1.406   8.425 -0.1434  0.2396  0.9428
 5575TIP3    H238285   4.471   1.265   8.460  0.4822  0.2074  0.0964
 5576TIP3   OH238286   4.399   2.302   1.590 -0.9090 -0.5394  0.1959
 5576TIP3    H138287   4.439   2.385   1.616  1.3599 -1.5750  0.3342
 5576TIP3    H238288   4.308   2.324   1.571 -0.2978  2.0711 -0.2354
 5577TIP3   OH238289   4.640   1.888   7.566 -0.4935 -0.0176 -0.1841
 5577TIP3    H138290   4.681   1.807   7.535 -2.3620 -1.2137  0.3210
 5577TIP3    H238291   4.547   1.869   7.567 -0.9173  1.8726  0.7840
 5578TIP3   OH238292   5.330   1.551   2.438 -0.0455  0.3448  0.9098
 5578TIP3    H138293   5.320   1.511   2.525  0.9475 -0.4318  0.6841
 5578TIP3    H238294   5.242   1.547   2.400 -0.4063  0.3272  1.7255
 5579TIP3   OH238295   5.184   2.520   3.305 -0.6494 -0.1148  0.3877
 5579TIP3    H138296   5.165   2.614   3.305 -2.1302 -0.3618  1.8642
 5579TIP3    H238297   5.279   2.515   3.297 -0.2486  1.6361  2.8866
 5580TIP3   OH238298   1.259   1.087   7.514 -0.6694  0.4409 -0.1508
 5580TIP3    H138299   1.335   1.131   7.477 -0.8203  3.2409  2.5214
 5580TIP3    H238300   1.185   1.119   7.463 -0.3429 -0.4726 -1.2390
 5581TIP3   OH238301   5.969   3.131   1.331  0.0670 -0.1190 -0.0742
 5581TIP3    H138302   5.954   3.049   1.378  0.1851 -0.2550 -0.2744
 5581TIP3    H238303   5.913   3.195   1.376  0.4917 -0.1506  0.5140
 5582TIP3   OH238304   2.244   4.877   1.552  0.4758  0.6551  0.4404
 5582TIP3    H138305   2.204   4.964   1.553 -1.5872 -0.1985 -1.1083
 5582TIP3    H238306   2.203   4.832   1.626  0.7441  0.6481  0.5870
 5583TIP3   OH238307   5.814   0.188   1.209  0.3560  0.0592  0.7890
 5583TIP3    H138308   5.879   0.117   1.204 -0.5570 -0.7218 -0.9578
 5583TIP3    H238309   5.730   0.143   1.205 -0.2399  1.2196 -0.0872
 5584TIP3   OH238310   4.408   1.691   2.690  0.0338 -0.0271 -0.2673
 5584TIP3    H138311   4.417   1.740   2.772  2.5253 -1.6823  0.5495
 5584TIP3    H238312   4.490   1.707   2.643 -1.4724  1.1535 -2.6690
 5585TIP3   OH238313   3.858   3.012   2.839  0.2459 -0.7135 -0.0759
 5585TIP3    H138314   3.764   3.017   2.855 -0.1491  1.5252 -2.4371
 5585TIP3    H238315   3.865   2.979   2.749  1.7012 -0.8221  0.0620
 5586TIP3   OH238316   1.022   0.303   3.490  1.3143  0.6005  0.0216
 5586TIP3    H138317   0.983   0.308   3.403  0.8262 -1.7346  0.0455
 5586TIP3    H238318   0.950   0.276   3.547  2.3057 -0.9669  0.5843
 5587TIP3   OH238319   0.680   1.819   1.123 -0.7664  0.5733  0.5004
 5587TIP3    H138320   0.727   1.738   1.146  0.8265  1.2819 -0.0956
 5587TIP3    H238321   0.596   1.789   1.089 -0.8784 -0.7515  1.8311
 5588TIP3   OH238322   6.409   0.816   1.657  0.0364  0.5710 -0.7623
 5588TIP3    H138323   6.397   0.907   1.684  0.6980  0.5871 -0.5084
 5588TIP3    H238324   6.342   0.768   1.704  0.1616  0.8247 -0.3169
 5589TIP3   OH238325   1.538   1.449   8.506  0.0903  0.0440  0.4334
 5589TIP3    H138326   1.608   1.395   8.469  1.5030  1.1339  1.4103
 5589TIP3    H238327   1.533   1.525   8.447  0.0261  0.1760  0.6085
 5590TIP3   OH238328   4.414   6.686   1.367  0.0674  0.2804  0.4048
 5590TIP3    H138329   4.367   6.660   1.288  0.7201  0.7089 -0.1387
 5590TIP3    H238330   4.418   6.607   1.421  0.5885 -0.3069 -0.4824
 5591TIP3   OH238331   5.358   0.337   0.212  0.1695  0.1985 -0.1554
 5591TIP3    H138332   5.325   0.425   0.231 -1.0834 -0.1716 -0.5495
 5591TIP3    H238333   5.346   0.327   0.117  1.8652  0.2115 -0.4044
 5592TIP3   OH238334   3.890   3.192   3.324 -0.0521  0.1967  0.4902
 5592TIP3    H138335   3.904   3.197   3.230  0.7155  2.1087  0.6665
 5592TIP3    H238336   3.930   3.109   3.351 -1.3872 -0.9956 -1.0015
 5593TIP3   OH238337   2.959   2.594   1.631  0.5253  0.7685  0.1193
 5593TIP3    H138338   2.942   2.574   1.723  0.5764  0.0683 -0.0180
 5593TIP3    H238339   3.040   2.644   1.632  1.6540 -0.9562  0.3160
 5594TIP3   OH238340   2.228   6.493   2.533 -0.1583  0.3120 -0.3503
 5594TIP3    H138341   2.313   6.536   2.538  0.0962  0.2585 -2.8151
 5594TIP3    H238342   2.165   6.561   2.557  0.3302  1.7874 -2.9121
 5595TIP3   OH238343   2.876   0.001   2.233 -0.2555  0.4326  0.1316
 5595TIP3    H138344   2.911  -0.020   2.146 -1.0795 -0.6142  0.0310
 5595TIP3    H238345   2.924  -0.057   2.292  0.3598  1.1996  0.4006
 5596TIP3   OH238346   6.353   1.451   2.527  0.0538 -0.1727 -0.5073
 5596TIP3    H138347   6.330   1.542   2.546  1.1582  0.0782 -0.3000
 5596TIP3    H238348   6.305   1.430   2.446  1.8641  1.4888 -2.1154
 5597TIP3   OH238349   4.783   1.272   7.824 -0.3109  0.1994  0.3393
 5597TIP3    H138350   4.853   1.217   7.859  3.2373  1.9339 -3.2314
 5597TIP3    H238351   4.779   1.347   7.883 -0.4500 -0.7258  1.5350
 5598TIP3   OH238352   3.005   1.116   8.172 -0.2261  0.0726 -0.3150
 5598TIP3    H138353   2.987   1.053   8.102  1.7215  0.9090 -1.6441
 5598TIP3    H238354   3.099   1.108   8.187 -0.4576  0.5508  1.6335
 5599TIP3   OH238355   1.837   1.232   2.823 -0.3923  0.3880  0.0529
 5599TIP3    H138356   1.749   1.269   2.827 -0.6079 -0.1393  0.3102
 5599TIP3    H238357   1.880   1.265   2.902 -0.8699 -0.6013  0.7461
 5600TIP3   OH238358   0.203   5.214   3.286 -0.1974 -0.4800 -0.2247
 5600TIP3    H138359   0.162   5.129   3.269 -0.8667 -0.5417  1.4536
 5600TIP3    H238360   0.169   5.271   3.217 -1.1990 -1.1461 -0.3093
 5601TIP3   OH238361   2.765   3.603   8.191  0.0865 -0.3493  0.8407
 5601TIP3    H138362   2.694   3.618   8.130 -0.0588 -2.6718  0.3600
 5601TIP3    H238363   2.725   3.612   8.278 -0.6748 -1.1531  0.5743
 5602TIP3   OH238364   3.736   5.348   7.948  0.8539 -0.1106 -0.3972
 5602TIP3    H138365   3.662   5.407   7.936 -0.2026 -0.0681  4.3721
 5602TIP3    H238366   3.810   5.406   7.968  1.6963 -0.2836 -2.6551
 5603TIP3   OH238367   4.251   0.878   0.177  0.6490 -0.2466  0.4177
 5603TIP3    H138368   4.225   0.967   0.154 -0.1405 -0.4402  0.5605
 5603TIP3    H238369   4.261   0.879   0.272  3.2973  0.3866  0.2102
 5604TIP3   OH238370   1.093   1.397   7.897 -0.7520  0.6135 -0.5370
 5604TIP3    H138371   1.164   1.461   7.893 -1.3595  1.4988  1.4337
 5604TIP3    H238372   1.034   1.422   7.826 -0.5033  1.6646 -0.3934
 5605TIP3   OH238373   0.618   6.762   2.304  0.1037 -0.3322 -0.4821
 5605TIP3    H138374   0.581   6.850   2.301  0.4374 -0.0736  1.3491
 5605TIP3    H238375   0.565   6.711   2.243 -1.8983  0.5255  0.4443
 5606TIP3   OH238376   2.950   6.634   2.499 -0.2170 -0.0891  0.3846
 5606TIP3    H138377   2.945   6.539   2.488 -1.2845 -0.1241  0.9957
 5606TIP3    H238378   3.039   6.657   2.474 -0.2615 -1.1076 -0.8081
 5607TIP3   OH238379   0.974   1.752   7.987  0.2955  0.4644  0.2672
 5607TIP3    H138380   0.964   1.793   7.902  1.4380  2.2307  0.9309
 5607TIP3    H238381   0.887   1.715   8.007 -0.1732  0.6713 -1.3087
 5608TIP3   OH238382   5.281   5.635   0.721  0.0789  0.5348 -0.0974
 5608TIP3    H138383   5.297   5.643   0.815  0.2527 -0.5104 -0.0298
 5608TIP3    H238384   5.193   5.669   0.709 -0.3506 -0.3054  0.6074
 5609TIP3   OH238385   2.816   3.299   7.852 -0.2157 -0.3871  0.2543
 5609TIP3    H138386   2.910   3.283   7.846 -0.4609 -1.7382 -0.2660
 5609TIP3    H238387   2.808   3.394   7.846  1.0979 -0.2705  0.0225
 5610TIP3   OH238388   0.773   3.356   1.845 -0.5586  0.5719 -0.1311
 5610TIP3    H138389   0.722   3.424   1.889 -0.2389  0.9510 -0.3407
 5610TIP3    H238390   0.852   3.347   1.898 -1.9411 -1.8717  1.7203
 5611TIP3   OH238391   1.321   6.004   1.398 -0.1924  0.2041  0.9525
 5611TIP3    H138392   1.306   6.098   1.388 -0.1156  0.1850  0.6587
 5611TIP3    H238393   1.347   5.974   1.311 -1.0213 -0.2337  0.8463
 5612TIP3   OH238394   1.947   6.026   8.056  0.4600 -0.3487 -0.4403
 5612TIP3    H138395   1.942   5.980   7.972  1.7682 -0.3250 -0.5417
 5612TIP3    H238396   1.955   6.118   8.033 -2.8813  0.1460 -0.2377
 5613TIP3   OH238397   3.483   5.390   0.870  0.3475  0.5976 -0.1264
 5613TIP3    H138398   3.546   5.332   0.912  1.3204  1.7212  0.0113
 5613TIP3    H238399   3.528   5.423   0.793  0.0634  1.6833  0.1544
 5614TIP3   OH238400   2.677   3.368   0.986  0.0207  0.3748  0.2509
 5614TIP3    H138401   2.602   3.427   0.974  0.6021  0.8747 -1.1342
 5614TIP3    H238402   2.646   3.302   1.048 -1.8630  0.0420 -0.9899
 5615TIP3   OH238403   5.732   4.537   2.838 -0.4935 -0.3504  0.2695
 5615TIP3    H138404   5.707   4.454   2.880  0.8645 -0.1267  1.6248
 5615TIP3    H238405   5.724   4.520   2.744 -4.1287 -0.7361  0.4808
 5616TIP3   OH238406   4.785   5.855   1.349  0.4279  0.2573 -0.4211
 5616TIP3    H138407   4.865   5.861   1.297  0.9290  0.1955  0.3258
 5616TIP3    H238408   4.795   5.924   1.415 -0.4861  0.7542 -0.7855
 5617TIP3   OH238409   4.428   4.204   2.769  0.2592 -0.2606 -0.3677
 5617TIP3    H138410   4.396   4.294   2.775 -0.1241 -0.4401  0.3222
 5617TIP3    H238411   4.349   4.150   2.768  0.5111 -0.7623  2.1963
 5618TIP3   OH238412   1.806   1.769   2.356  0.5271  0.4207 -0.0556
 5618TIP3    H138413   1.898   1.791   2.369  0.3891  1.2388 -0.4172
 5618TIP3    H238414   1.770   1.765   2.444  0.9629 -0.1784  0.1057
 5619TIP3   OH238415   1.606   5.104   6.897  0.1984  0.5392 -0.3301
 5619TIP3    H138416   1.605   5.162   6.973  1.0171  0.9491 -0.6160
 5619TIP3    H238417   1.699   5.099   6.872  0.3282 -1.8849  0.4401
 5620TIP3   OH238418   4.726   0.151   0.930 -0.6343 -0.2591 -0.1389
 5620TIP3    H138419   4.693   0.180   1.015  0.4247 -0.4551  0.3537
 5620TIP3    H238420   4.695   0.217   0.869 -0.3598  0.5633  0.5871
 5621TIP3   OH238421   0.065   1.196   3.286 -0.6617 -0.1714  0.4169
 5621TIP3    H138422   0.125   1.211   3.212 -0.2683 -0.0227  0.7630
 5621TIP3    H238423  -0.019   1.177   3.245 -0.1913 -1.2641 -0.1112
 5622TIP3   OH238424   4.975   0.169   8.631 -0.0612 -0.0762 -0.3663
 5622TIP3    H138425   4.928   0.085   8.628 -0.3370 -0.0083  1.1543
 5622TIP3    H238426   5.067   0.144   8.622 -0.0556 -0.6739  1.0404
 5623TIP3   OH238427   5.250   6.044   0.513  0.5662  0.5282 -0.2250
 5623TIP3    H138428   5.239   6.139   0.512 -0.9415  0.3924  0.4545
 5623TIP3    H238429   5.326   6.029   0.570  0.5747  1.3097 -0.0228
 5624TIP3   OH238430   1.978   2.808   0.401  0.2866  0.3686  0.0478
 5624TIP3    H138431   1.939   2.784   0.485  0.3003 -1.5075 -0.4374
 5624TIP3    H238432   2.025   2.890   0.419 -1.0443  0.8667  1.4549
 5625TIP3   OH238433   6.481   1.597   8.395  0.2797  0.1276  0.6653
 5625TIP3    H138434   6.424   1.670   8.370 -1.4646 -0.9881  1.1391
 5625TIP3    H238435   6.555   1.602   8.335 -0.5532  1.3799 -0.3071
 5626TIP3   OH238436   2.765   3.576   1.630  0.8905  0.2820 -0.2456
 5626TIP3    H138437   2.683   3.579   1.679  1.3796 -0.8262  0.7302
 5626TIP3    H238438   2.741   3.543   1.544  0.4432 -1.3470  0.4590
 5627TIP3   OH238439   6.520   0.760   7.504 -0.1720  0.0770 -0.8692
 5627TIP3    H138440   6.580   0.769   7.430  0.4748  1.3531 -0.2196
 5627TIP3    H238441   6.557   0.816   7.572  0.4444 -2.6485  1.2277
 5628TIP3   OH238442   3.323   0.305   0.595 -0.2583  0.2172  0.0126
 5628TIP3    H138443   3.354   0.292   0.685 -0.8352  1.5614  0.4288
 5628TIP3    H238444   3.390   0.360   0.554 -0.6360  0.7029  0.0336
 5629TIP3   OH238445   3.813   4.235   2.698 -1.2122  0.0329 -0.2168
 5629TIP3    H138446   3.832   4.296   2.769  0.5633 -0.2077 -0.4515
 5629TIP3    H238447   3.728   4.265   2.664 -0.3111  2.5695 -0.4980
 5630TIP3   OH238448   4.443   4.233   7.460  0.7210  0.0554  0.1170
 5630TIP3    H138449   4.426   4.146   7.496  1.2101 -0.2781 -0.4334
 5630TIP3    H238450   4.410   4.294   7.526 -2.0544 -0.5210 -0.5873
 5631TIP3   OH238451   6.108   3.825   2.850  0.2534 -0.4089 -0.5818
 5631TIP3    H138452   6.200   3.851   2.843  0.4695 -1.0640 -0.2186
 5631TIP3    H238453   6.097   3.799   2.941 -0.7958  1.4956 -0.1057
 5632TIP3   OH238454   2.926   5.761   8.803 -0.3649 -0.0357 -0.1362
 5632TIP3    H138455   2.889   5.796   8.722  0.8936 -0.6458 -1.0035
 5632TIP3    H238456   3.009   5.722   8.776  1.4627  2.1765  1.8823
 5633TIP3   OH238457   2.555   6.696   0.729 -0.7674 -0.2719  0.2376
 5633TIP3    H138458   2.524   6.773   0.777 -0.1821 -0.0240  0.2237
 5633TIP3    H238459   2.596   6.732   0.650  0.9139 -0.4867  0.9830
 5634TIP3   OH238460   1.549   1.617   2.789 -0.1119 -0.7600  0.1079
 5634TIP3    H138461   1.592   1.676   2.850 -1.5854  1.0245 -0.4997
 5634TIP3    H238462   1.591   1.633   2.705  1.3217 -2.5892  0.4138
 5635TIP3   OH238463   0.241   1.608   8.306  0.4052  0.0636  0.1292
 5635TIP3    H138464   0.223   1.700   8.284  1.7062  0.0858 -1.0001
 5635TIP3    H238465   0.175   1.559   8.257 -1.2659  0.4109  1.9112
 5636TIP3   OH238466   4.291   5.894   0.145  0.4511 -0.2034  0.1846
 5636TIP3    H138467   4.242   5.904   0.227 -1.0884 -0.7068 -0.6331
 5636TIP3    H238468   4.224   5.874   0.080  1.5855  0.6092 -1.2935
 5637TIP3   OH238469   0.103   4.186   8.073 -0.1235 -0.7569  0.4232
 5637TIP3    H138470   0.073   4.276   8.085  0.4952 -0.6545  1.3299
 5637TIP3    H238471   0.036   4.146   8.017 -0.4828  0.2176  0.1264
 5638TIP3   OH238472   4.639   5.236   0.155 -0.5736 -0.2217  0.5782
 5638TIP3    H138473   4.732   5.246   0.134 -0.6726  1.4004  0.7935
 5638TIP3    H238474   4.619   5.311   0.211 -2.2176 -0.0303 -0.1958
 5639TIP3   OH238475   5.057   3.898   7.850 -0.1439  0.1600  0.4158
 5639TIP3    H138476   5.100   3.980   7.875 -0.1321 -0.0695  1.2093
 5639TIP3    H238477   5.098   3.873   7.767  1.9933 -0.5391  1.5965
 5640TIP3   OH238478   2.162   3.050   2.030  0.2185 -0.6095 -0.1026
 5640TIP3    H138479   2.196   2.961   2.041 -0.9721 -1.1946 -0.8899
 5640TIP3    H238480   2.092   3.041   1.966 -0.7438  0.6961  0.7041
 5641TIP3   OH238481   3.705   6.483   1.268 -0.2028  0.2453  0.4083
 5641TIP3    H138482   3.673   6.565   1.231  1.6141  0.5677 -0.5468
 5641TIP3    H238483   3.740   6.435   1.193 -1.0451 -1.3533  0.9797
 5642TIP3   OH238484   5.901   4.188   1.314  0.2265 -0.0849 -0.3027
 5642TIP3    H138485   5.839   4.230   1.374  0.2406  0.2784 -0.5395
 5642TIP3    H238486   5.907   4.098   1.346  1.9587  0.6358  1.6481
 5643TIP3   OH238487   3.292   4.174   2.179 -0.0412  0.3792 -0.3570
 5643TIP3    H138488   3.261   4.148   2.092  1.4269  0.1249 -0.8415
 5643TIP3    H238489   3.325   4.093   2.218  3.5996  1.1669 -1.4568
 5644TIP3   OH238490   3.907   0.424   1.802 -0.3016 -0.5740 -0.0811
 5644TIP3    H138491   3.887   0.351   1.744  2.2709 -0.9064 -0.6738
 5644TIP3    H238492   3.897   0.502   1.746 -2.3030 -0.4656  0.3496
 5645TIP3   OH238493   3.375   1.474   1.162  0.0205  0.2057 -0.4392
 5645TIP3    H138494   3.366   1.379   1.172 -2.1144  0.1205 -2.4123
 5645TIP3    H238495   3.467   1.486   1.139  0.5851 -1.2451  0.8487
 5646TIP3   OH238496   3.402   4.724   8.312 -0.1005 -0.2587  0.3696
 5646TIP3    H138497   3.395   4.812   8.275 -0.7548 -0.7603 -0.7929
 5646TIP3    H238498   3.494   4.715   8.337  0.2114  0.3936 -0.4833
 5647TIP3   OH238499   1.744   3.379   8.200  0.0989 -0.3013 -0.1563
 5647TIP3    H138500   1.652   3.399   8.217 -0.3512  0.7783 -3.1932
 5647TIP3    H238501   1.790   3.462   8.215  0.4275 -0.5821  0.4039
 5648TIP3   OH238502   2.605   5.788   2.529 -0.3741 -0.0578  0.8441
 5648TIP3    H138503   2.577   5.852   2.594  1.3538  1.5447  0.0972
 5648TIP3    H238504   2.696   5.811   2.511 -0.6458 -0.7568 -1.7819
 5649TIP3   OH238505   5.212   4.534   1.687  0.0859  0.1825 -0.2810
 5649TIP3    H138506   5.195   4.538   1.593  1.7857  0.1757 -0.6198
 5649TIP3    H238507   5.268   4.457   1.698  0.6438  0.6955  0.5930
 5650TIP3   OH238508   1.125   3.669   1.977 -0.0247 -0.0195  0.2454
 5650TIP3    H138509   1.049   3.677   2.034  0.4124 -0.7489  0.9385
 5650TIP3    H238510   1.138   3.575   1.966  0.1218  0.1021 -0.7654
 5651TIP3   OH238511   2.418   1.290   1.563 -0.6776  0.2096  0.1477
 5651TIP3    H138512   2.371   1.210   1.544  0.0769 -0.2894  0.3177
 5651TIP3    H238513   2.503   1.279   1.518  0.2273  0.0093  1.8318
 5652TIP3   OH238514   5.774   4.720   8.293  0.3297 -0.1595  0.0193
 5652TIP3    H138515   5.854   4.669   8.307 -0.4575 -0.9969  1.7921
 5652TIP3    H238516   5.703   4.657   8.307 -0.6675  0.6192 -1.2772
 5653TIP3   OH238517   0.773   4.053   2.775 -0.2724  0.7401  0.1007
 5653TIP3    H138518   0.801   4.139   2.807 -0.9764  0.4377  1.6094
 5653TIP3    H238519   0.712   4.022   2.841  0.2857 -1.1180 -0.2086
 5654TIP3   OH238520   0.639   3.556   8.886 -0.1129 -0.4089 -0.2826
 5654TIP3    H138521   0.694   3.552   8.964 -0.2321  0.0048 -0.1778
 5654TIP3    H238522   0.697   3.587   8.816 -0.1931 -0.0363 -0.1865
 5655TIP3   OH238523   4.514   6.038   7.955 -0.5278 -0.1585  0.2031
 5655TIP3    H138524   4.546   5.980   8.024  1.3811  1.1444  0.4811
 5655TIP3    H238525   4.566   6.117   7.964 -1.0801  0.5186 -1.9759
 5656TIP3   OH238526   2.005   2.234   8.077  0.0102 -0.1561  0.2363
 5656TIP3    H138527   1.994   2.248   8.171 -3.3640 -2.3843  0.3531
 5656TIP3    H238528   2.049   2.150   8.070  1.2982  0.5272 -0.2708
 5657TIP3   OH238529   0.930   4.253   7.858  0.0461  0.3650 -0.2474
 5657TIP3    H138530   0.910   4.294   7.942  1.2888  1.3934 -0.4409
 5657TIP3    H238531   0.998   4.307   7.819  1.4509 -1.6115 -0.7203
 5658TIP3   OH238532   1.333   0.273   3.489 -0.2648 -0.6517 -0.1655
 5658TIP3    H138533   1.286   0.198   3.453  0.0495 -1.2644  0.6524
 5658TIP3    H238534   1.270   0.316   3.546 -0.1757 -0.8447  0.0851
 5659TIP3   OH238535   2.151   3.011   1.211  0.3982 -0.2986  0.3822
 5659TIP3    H138536   2.235   2.973   1.185  1.6901  1.2786  2.0321
 5659TIP3    H238537   2.110   2.943   1.264  1.1207 -0.6768  0.4697
 5660TIP3   OH238538   4.916   6.305   1.128 -0.5383 -0.0934  0.0149
 5660TIP3    H138539   5.006   6.335   1.121 -0.5543  0.2281  0.9996
 5660TIP3    H238540   4.919   6.234   1.193 -1.0242  0.0958  0.2550
 5661TIP3   OH238541   1.536   5.660   2.343 -0.0632  0.1420  0.2924
 5661TIP3    H138542   1.471   5.729   2.330 -0.8597 -0.8176 -1.1138
 5661TIP3    H238543   1.546   5.655   2.438  2.0558  3.9751  0.4760
 5662TIP3   OH238544   5.461   1.131   2.523  0.2942  0.7542 -0.1403
 5662TIP3    H138545   5.458   1.161   2.432 -1.2083 -0.8790 -0.6915
 5662TIP3    H238546   5.369   1.128   2.550  0.5412 -0.9466  0.6576
 5663TIP3   OH238547   0.286   1.909   8.398  0.5524 -0.2344 -0.4821
 5663TIP3    H138548   0.270   1.966   8.474  2.3044  0.2417 -0.4300
 5663TIP3    H238549   0.201   1.868   8.381  0.2268 -0.8648  2.1391
 5664TIP3   OH238550   5.410   3.657   1.735 -0.3296 -0.0596 -0.0503
 5664TIP3    H138551   5.352   3.581   1.729 -0.3372 -0.0045 -0.8422
 5664TIP3    H238552   5.475   3.633   1.801 -0.4674 -0.6620 -0.1279
 5665TIP3   OH238553   5.038   1.505   1.772  0.0613 -0.1490  0.2916
 5665TIP3    H138554   5.110   1.486   1.833  0.0031 -2.4343 -0.2583
 5665TIP3    H238555   5.074   1.484   1.686 -0.6498  0.6296 -0.2075
 5666TIP3   OH238556   2.428   1.901   0.992  0.8589  0.0857  0.2703
 5666TIP3    H138557   2.382   1.884   1.074  1.1910 -0.0138  0.4392
 5666TIP3    H238558   2.518   1.919   1.018  0.6532  1.5946  0.0499
 5667TIP3   OH238559   5.500   5.494   8.334 -0.2812 -0.2107 -0.0162
 5667TIP3    H138560   5.462   5.577   8.306  2.2473  0.1832 -2.8943
 5667TIP3    H238561   5.470   5.431   8.268 -0.5914 -1.1907  1.0214
 5668TIP3   OH238562   0.955   0.756   8.098  0.3954  0.1527  0.0248
 5668TIP3    H138563   0.929   0.730   8.009  0.5792  0.2049 -0.0431
 5668TIP3    H238564   0.979   0.848   8.090 -0.7702  0.5073  0.3731
 5669TIP3   OH238565   3.778   3.392   0.468 -0.0759  0.1910 -0.7248
 5669TIP3    H138566   3.710   3.362   0.407 -2.1758 -1.7172  2.2529
 5669TIP3    H238567   3.732   3.451   0.527  0.9201 -0.7043  1.0442
 5670TIP3   OH238568   2.437   3.127   7.179 -0.0202  0.4322 -0.1764
 5670TIP3    H138569   2.483   3.104   7.099 -0.3261 -0.0138 -0.2257
 5670TIP3    H238570   2.363   3.067   7.183  1.0270 -0.8657  1.4049
 5671TIP3   OH238571   6.037   1.792   1.728  0.2297 -0.5839  0.1713
 5671TIP3    H138572   5.956   1.742   1.734 -0.7710  0.9279 -0.2930
 5671TIP3    H238573   6.045   1.835   1.813  0.7284 -0.9648  0.3245
 5672TIP3   OH238574   6.017   3.137   1.774 -0.6475 -0.0145 -0.3633
 5672TIP3    H138575   5.956   3.064   1.761 -0.7777 -0.1517  0.8958
 5672TIP3    H238576   5.961   3.209   1.802 -0.2656 -0.1322  0.7749
 5673TIP3   OH238577   0.132   5.380   8.201  0.7090 -0.1361  0.3363
 5673TIP3    H138578   0.111   5.424   8.283 -0.0150  0.4314 -0.1541
 5673TIP3    H238579   0.049   5.376   8.153  0.7739 -1.8960  0.3017
 5674TIP3   OH238580   5.385   4.634   1.900 -0.2660 -0.0644  0.0829
 5674TIP3    H138581   5.309   4.628   1.841  1.2116  1.7850 -2.1919
 5674TIP3    H238582   5.356   4.692   1.971 -1.9850 -2.0907  1.1574
 5675TIP3   OH238583   4.538   1.324   0.596 -0.0186  0.1193  0.2112
 5675TIP3    H138584   4.484   1.399   0.622  0.6352  0.1859  1.4217
 5675TIP3    H238585   4.573   1.349   0.510 -0.7952  0.6648  0.0429
 5676TIP3   OH238586   0.396   5.228   2.951 -0.2714  0.2202  0.5842
 5676TIP3    H138587   0.386   5.302   3.011  0.8666  2.3283 -1.6626
 5676TIP3    H238588   0.444   5.264   2.876 -2.5815 -1.9378 -2.1520
 5677TIP3   OH238589   6.379   6.581   7.944  0.2223 -0.4804  0.1576
 5677TIP3    H138590   6.324   6.596   7.867  0.7559 -0.5042 -0.2330
 5677TIP3    H238591   6.465   6.559   7.908  0.9320  1.1626  0.7472
 5678TIP3   OH238592   3.851   1.559   8.054  0.3267 -0.2874 -0.7635
 5678TIP3    H138593   3.774   1.613   8.036  1.1914  1.5338  0.7395
 5678TIP3    H238594   3.817   1.484   8.103 -0.4154  0.9055  0.6065
 5679TIP3   OH238595   5.716   3.556   1.548 -0.5041  0.1270 -0.0681
 5679TIP3    H138596   5.643   3.574   1.488 -1.0778 -0.5414  0.4017
 5679TIP3    H238597   5.742   3.642   1.581 -0.9434  0.3938 -0.4033
 5680TIP3   OH238598   1.611   0.658   8.744  0.0371 -0.2349 -0.0890
 5680TIP3    H138599   1.685   0.714   8.719 -2.3520  2.0943 -2.7306
 5680TIP3    H238600   1.640   0.569   8.726  1.5935  0.7392 -2.9654
 5681TIP3   OH238601   3.387   3.967   0.819  0.0242  0.6065 -0.0160
 5681TIP3    H138602   3.419   4.035   0.761 -2.1370  0.0333 -2.0608
 5681TIP3    H238603   3.451   3.963   0.891  2.9312  1.2775 -2.3816
 5682TIP3   OH238604   1.129   3.462   1.494 -0.1478  0.1921  0.2780
 5682TIP3    H138605   1.057   3.450   1.556 -0.4699  0.0048 -0.1264
 5682TIP3    H238606   1.100   3.534   1.438 -0.7026 -0.8688 -0.8424
 5683TIP3   OH238607   5.322   5.843   8.525 -0.0962  0.3221 -0.0313
 5683TIP3    H138608   5.242   5.848   8.578  0.8110 -1.7205  1.6400
 5683TIP3    H238609   5.376   5.915   8.557 -0.6663  0.8142 -0.1545
 5684TIP3   OH238610   5.162   5.255   2.437 -0.2046  0.0206  0.5582
 5684TIP3    H138611   5.252   5.234   2.462  0.5997  1.5154 -0.8766
 5684TIP3    H238612   5.120   5.280   2.519  1.0473  0.4837  1.0840
 5685TIP3   OH238613   2.169   3.641   0.075  0.4523  0.0330 -0.8421
 5685TIP3    H138614   2.208   3.668   0.158  1.2458 -0.6749 -0.9724
 5685TIP3    H238615   2.180   3.717   0.017 -1.6882  1.2036  0.1732
 5686TIP3   OH238616   2.281   2.755   7.609 -0.3312 -0.1884 -0.1035
 5686TIP3    H138617   2.188   2.747   7.590 -0.2367 -1.3669 -0.1488
 5686TIP3    H238618   2.315   2.811   7.540 -1.2304  1.4656  0.7131
 5687TIP3   OH238619   1.168   3.031   2.654  0.5805 -0.2955 -0.3877
 5687TIP3    H138620   1.174   3.126   2.655  2.0157 -0.3514 -0.8284
 5687TIP3    H238621   1.161   3.009   2.561  1.0024 -0.6448 -0.3400
 5688TIP3   OH238622   1.680   6.076   0.518 -0.1491  0.2768 -0.3854
 5688TIP3    H138623   1.692   6.021   0.595 -0.7169  0.4371 -0.1771
 5688TIP3    H238624   1.717   6.024   0.446 -2.4920 -1.3311 -0.5545
 5689TIP3   OH238625   0.220   2.725   1.099  0.7848  0.0244  0.1515
 5689TIP3    H138626   0.244   2.632   1.099 -1.4210 -0.5813 -0.2877
 5689TIP3    H238627   0.195   2.744   1.009  0.9349  0.9883  0.2992
 5690TIP3   OH238628   3.662   3.954   7.884  0.0250 -0.2144 -0.3386
 5690TIP3    H138629   3.624   3.910   7.960  0.1621  0.6567  0.2519
 5690TIP3    H238630   3.746   3.910   7.870  0.5002  0.3347  0.7046
 5691TIP3   OH238631   3.610   5.746   8.102  0.4659 -0.5235  0.2548
 5691TIP3    H138632   3.561   5.826   8.083 -2.1507 -2.3129 -1.1151
 5691TIP3    H238633   3.665   5.733   8.025  1.2002  0.1216  0.6549
 5692TIP3   OH238634   5.338   6.777   1.727 -0.3080 -0.3705  0.2355
 5692TIP3    H138635   5.362   6.762   1.635 -1.1517 -1.7839  0.2238
 5692TIP3    H238636   5.243   6.789   1.725 -0.2828 -0.0002  0.8915
 5693TIP3   OH238637   1.033   5.143   3.059  0.4259  0.1272 -0.0412
 5693TIP3    H138638   1.029   5.137   2.964 -1.2915 -2.0211  0.0822
 5693TIP3    H238639   1.076   5.063   3.087 -0.9087 -0.2566  1.0434
 5694TIP3   OH238640   3.159   1.907   8.386  0.1096 -0.2702  1.0718
 5694TIP3    H138641   3.135   1.914   8.478  0.9750 -0.4146  1.3125
 5694TIP3    H238642   3.200   1.821   8.378  1.6357  0.4338  0.9392
 5695TIP3   OH238643   0.371   6.784   3.372  0.0489 -0.0301 -0.3959
 5695TIP3    H138644   0.411   6.742   3.448  0.3204 -0.0936 -0.5699
 5695TIP3    H238645   0.431   6.857   3.351  1.0115 -1.1256 -1.6859
 5696TIP3   OH238646   0.048   4.713   1.850  0.1758 -0.6194 -0.0945
 5696TIP3    H138647   0.126   4.754   1.887  0.8245 -1.5225 -0.4248
 5696TIP3    H238648  -0.011   4.786   1.830  0.9513  0.0740  0.1266
 5697TIP3   OH238649   4.039   0.506   2.396 -0.2179 -0.8547 -0.8060
 5697TIP3    H138650   3.960   0.515   2.342  0.3079 -0.6492 -1.5567
 5697TIP3    H238651   4.111   0.508   2.333  0.4476  0.0342 -0.0435
 5698TIP3   OH238652   3.538   4.221   0.051  0.5208  0.9081 -0.3558
 5698TIP3    H138653   3.613   4.278   0.069 -1.0182  2.4403  1.7061
 5698TIP3    H238654   3.474   4.245   0.117  0.0646 -3.9776  1.3627
 5699TIP3   OH238655   0.356   0.218   0.111 -0.1950 -0.0989  0.1736
 5699TIP3    H138656   0.353   0.137   0.061  1.0283  0.1291 -0.3089
 5699TIP3    H238657   0.381   0.191   0.199 -0.7478 -0.3381  0.2602
 5700TIP3   OH238658   1.030   5.393   3.189  0.1278  0.0780 -0.0585
 5700TIP3    H138659   0.995   5.312   3.151  1.0602 -0.0953 -0.5971
 5700TIP3    H238660   0.957   5.432   3.236 -0.3058 -1.1554  0.3199
 5701TIP3   OH238661   1.938   5.587   1.010  0.1074  0.4161  0.4039
 5701TIP3    H138662   1.939   5.665   0.954  0.0842  0.5675  0.6127
 5701TIP3    H238663   1.856   5.595   1.059  0.3269  0.4982  0.7582
 5702TIP3   OH238664   5.437   2.998   0.926 -0.3379  0.2858 -0.7569
 5702TIP3    H138665   5.436   2.977   1.019  0.2711 -0.3296 -0.8770
 5702TIP3    H238666   5.346   2.991   0.898 -0.4103 -0.3363 -0.3753
 5703TIP3   OH238667   0.343   2.752   0.496  0.0052 -0.2217  0.0057
 5703TIP3    H138668   0.386   2.827   0.536 -0.3388  0.5517 -1.0189
 5703TIP3    H238669   0.324   2.693   0.569  2.0769 -0.2552  0.5745
 5704TIP3   OH238670   6.641   0.760   0.328  0.0353  0.3586 -0.2506
 5704TIP3    H138671   6.719   0.765   0.273  0.6807  1.8844  0.7563
 5704TIP3    H238672   6.670   0.719   0.409 -0.4302  0.0638 -0.2269
 5705TIP3   OH238673   5.789   6.741   0.928  0.4129  0.3211  0.0398
 5705TIP3    H138674   5.723   6.723   0.861  0.7189  1.9728 -0.7539
 5705TIP3    H238675   5.804   6.656   0.970 -0.5130 -0.5495 -1.3016
 5706TIP3   OH238676   1.212   0.126   1.688 -0.1775  0.0514  0.3353
 5706TIP3    H138677   1.303   0.124   1.718 -0.5215 -2.9109  1.6388
 5706TIP3    H238678   1.177   0.208   1.722  2.2187  1.8114 -1.1545
 5707TIP3   OH238679   3.910   4.343   1.232 -0.1130 -0.1318  0.0841
 5707TIP3    H138680   3.988   4.382   1.193 -0.8395  2.4784  1.0591
 5707TIP3    H238681   3.839   4.362   1.170 -0.6384  1.0134  0.9867
 5708TIP3   OH238682   0.838   4.070   2.055 -0.1672 -0.1124  0.2607
 5708TIP3    H138683   0.809   4.082   1.965 -0.3241  1.3032  0.4768
 5708TIP3    H238684   0.758   4.048   2.103 -0.4049  0.8444  0.3347
 5709TIP3   OH238685   1.322   4.551   0.648  0.2363 -0.2588  0.3072
 5709TIP3    H138686   1.385   4.610   0.608  1.1563  1.5658  3.9770
 5709TIP3    H238687   1.245   4.554   0.591  1.4549  1.9496 -1.3387
 5710TIP3   OH238688   1.619   4.000   0.393  0.0459  0.2981 -0.0075
 5710TIP3    H138689   1.563   4.023   0.318 -1.2082 -0.7067  0.5889
 5710TIP3    H238690   1.680   4.074   0.400  1.2690 -0.2728 -2.9847
 5711TIP3   OH238691   4.381   1.424   2.199  0.0723  0.1709  0.2971
 5711TIP3    H138692   4.477   1.433   2.196  0.1064 -0.5684 -1.3504
 5711TIP3    H238693   4.350   1.464   2.118 -0.8589 -1.3388 -0.1256
 5712TIP3   OH238694   5.813   0.624   2.354 -0.2656  0.7042  0.4334
 5712TIP3    H138695   5.752   0.698   2.346 -0.7252  0.2185 -0.7721
 5712TIP3    H238696   5.784   0.577   2.432 -2.0534 -0.0245 -0.6031
 5713TIP3   OH238697   3.185   0.150   8.554 -0.0971  0.0286  0.0983
 5713TIP3    H138698   3.257   0.132   8.494 -1.1298 -1.4660 -0.7677
 5713TIP3    H238699   3.157   0.238   8.532  2.5416  1.3845  1.6699
 5714TIP3   OH238700   0.496   4.918   7.232  0.0833 -0.2691 -0.2156
 5714TIP3    H138701   0.483   4.975   7.156 -1.3697  0.0884  0.2712
 5714TIP3    H238702   0.440   4.843   7.215 -0.8012  0.1342  0.8019
 5715TIP3   OH238703   4.490   0.431   2.405  0.4364 -0.1051  0.1567
 5715TIP3    H138704   4.536   0.395   2.480  0.7525 -0.7889 -0.3554
 5715TIP3    H238705   4.474   0.523   2.428  0.8711 -0.2088  0.8888
 5716TIP3   OH238706   0.201   5.925   2.555 -0.0424 -0.4793 -0.0788
 5716TIP3    H138707   0.214   5.835   2.526 -1.9310 -0.8055 -0.0559
 5716TIP3    H238708   0.193   5.918   2.650 -0.4174 -0.3368 -0.0969
 5717TIP3   OH238709   2.931   2.319   2.286 -0.0804  0.2710 -0.5393
 5717TIP3    H138710   2.982   2.240   2.305  1.4591  1.5760  1.1346
 5717TIP3    H238711   2.879   2.296   2.209  0.1517 -2.4230 -0.0138
 5718TIP3   OH238712   4.339   5.395   8.401  0.1958  0.2788 -0.4633
 5718TIP3    H138713   4.284   5.354   8.334 -1.5377  1.9549 -0.1263
 5718TIP3    H238714   4.279   5.418   8.471  1.4548  1.4706  0.2687
 5719TIP3   OH238715   6.207   3.586   2.308 -0.0857  0.1743  0.0457
 5719TIP3    H138716   6.298   3.559   2.324  0.1459 -0.8342 -2.3943
 5719TIP3    H238717   6.190   3.556   2.218 -3.1169 -0.4075  0.7309
 5720TIP3   OH238718   6.300   2.868   3.378 -0.0139 -0.4925 -0.4545
 5720TIP3    H138719   6.363   2.822   3.322  0.6931 -0.0070 -0.0754
 5720TIP3    H238720   6.343   2.952   3.398 -0.5514 -0.3794  0.2575
 5721TIP3   OH238721   6.687   2.807   0.000 -0.7422 -0.2615  0.0517
 5721TIP3    H138722   6.776   2.842   0.009 -1.2320  0.7258  1.5225
 5721TIP3    H238723   6.647   2.860  -0.068 -0.6944  0.3783  0.5138
 5722TIP3   OH238724   0.172   4.054   0.052 -0.6359 -0.1106 -0.0846
 5722TIP3    H138725   0.246   4.114   0.052  0.2957 -1.1634  2.1781
 5722TIP3    H238726   0.137   4.058   0.141 -0.8454 -2.5010  0.0197
 5723TIP3   OH238727   5.085   2.855   8.237 -0.2840  0.3833  0.2161
 5723TIP3    H138728   5.019   2.869   8.169  0.5940  1.6817 -0.4116
 5723TIP3    H238729   5.096   2.760   8.240 -0.5847  0.2709 -1.2338
 5724TIP3   OH238730   1.606   0.481   7.938  0.3611 -0.0273 -0.0085
 5724TIP3    H138731   1.677   0.486   7.873  1.2828  0.4466  1.0073
 5724TIP3    H238732   1.621   0.397   7.982  0.3053  0.0883  0.2272
 5725TIP3   OH238733   4.469   5.779   2.197  0.2857  0.2057 -0.8942
 5725TIP3    H138734   4.536   5.719   2.228  0.6547  0.9862 -0.1599
 5725TIP3    H238735   4.510   5.825   2.124  0.3675  0.3043 -0.7867
 5726TIP3   OH238736   0.385   6.410   8.484 -0.4199 -0.3225  0.0169
 5726TIP3    H138737   0.471   6.370   8.499 -0.9616 -1.0368  1.3836
 5726TIP3    H238738   0.381   6.425   8.390  1.7092  0.8784  0.0488
 5727TIP3   OH238739   1.255   1.211   2.831  0.5527  0.0518  0.3121
 5727TIP3    H138740   1.244   1.206   2.926 -0.6174 -1.2607  0.1257
 5727TIP3    H238741   1.321   1.144   2.811  0.2919 -0.1455  0.1193
 5728TIP3   OH238742   3.311   1.068   0.619  0.5420 -0.1737  0.5151
 5728TIP3    H138743   3.265   0.985   0.607 -1.2034  0.9088 -0.6521
 5728TIP3    H238744   3.302   1.087   0.713 -1.3625 -0.0517  0.3432
 5729TIP3   OH238745   3.206   5.945   2.830 -0.3226 -0.0393  0.2149
 5729TIP3    H138746   3.252   5.971   2.910 -0.0465 -0.1411  0.0907
 5729TIP3    H238747   3.161   5.864   2.854 -1.0691  0.4654  0.5615
 5730TIP3   OH238748   5.761   5.782   3.022 -0.4445 -0.3200 -0.2973
 5730TIP3    H138749   5.847   5.742   3.038  0.5771  1.8466 -0.0392
 5730TIP3    H238750   5.714   5.717   2.969  1.7020 -1.1760 -1.2626
 5731TIP3   OH238751   0.704   2.592   7.524 -0.3391  0.1313 -0.2529
 5731TIP3    H138752   0.688   2.659   7.590 -1.1486  0.7331 -1.0265
 5731TIP3    H238753   0.750   2.638   7.454  0.1011 -0.3906 -0.3127
 5732TIP3   OH238754   1.509   1.616   8.224  0.6802 -0.0541 -0.3543
 5732TIP3    H138755   1.497   1.704   8.187  0.0900 -0.3063 -0.7832
 5732TIP3    H238756   1.555   1.568   8.155 -0.2929 -0.4839 -0.7278
 5733TIP3   OH238757   3.388   3.472   1.290 -0.0310  0.1233 -0.7813
 5733TIP3    H138758   3.362   3.550   1.339 -2.4026 -0.0012 -1.7095
 5733TIP3    H238759   3.388   3.501   1.198 -2.4821 -1.2468 -1.3012
 5734TIP3   OH238760   5.962   2.780   1.143 -0.0318  0.3936 -0.1729
 5734TIP3    H138761   5.920   2.846   1.086  0.4450  1.5968  0.8268
 5734TIP3    H238762   5.936   2.696   1.105 -1.2955  1.1408 -1.0417
 5735TIP3   OH238763   5.510   1.819   1.649  0.1329  0.0011 -0.1222
 5735TIP3    H138764   5.466   1.862   1.722 -0.3259 -0.6547 -0.0045
 5735TIP3    H238765   5.593   1.866   1.641 -0.9517  1.9223 -0.9748
 5736TIP3   OH238766   4.308   0.403   1.008 -0.1923 -0.2313  0.2335
 5736TIP3    H138767   4.236   0.411   0.945  0.5554  0.2886 -0.5756
 5736TIP3    H238768   4.387   0.411   0.955  0.5351 -2.3941  0.8651
 5737TIP3   OH238769   3.526   6.706   8.598 -0.1858 -0.1252  0.0844
 5737TIP3    H138770   3.501   6.754   8.519 -0.4895  1.3115  1.0170
 5737TIP3    H238771   3.536   6.774   8.665 -2.1708 -1.4962  1.8840
 5738TIP3   OH238772   5.795   3.773   0.684 -1.1122 -0.4919  0.4828
 5738TIP3    H138773   5.863   3.812   0.740  0.9971 -0.8966 -1.6101
 5738TIP3    H238774   5.825   3.683   0.671 -2.0998 -0.6929 -0.4469
 5739TIP3   OH238775   1.351   5.536   8.108 -0.4945 -0.0569 -0.3337
 5739TIP3    H138776   1.265   5.560   8.143 -0.4985 -2.7456  1.8959
 5739TIP3    H238777   1.413   5.560   8.177  0.5751  1.5454 -1.7732
 5740TIP3   OH238778   1.685   1.512   0.619 -0.5886  0.6595  0.2096
 5740TIP3    H138779   1.702   1.430   0.666  0.6290  1.0942  0.5767
 5740TIP3    H238780   1.649   1.485   0.535  0.1471 -0.2731  0.1777
 5741TIP3   OH238781   1.200   2.266   1.584  0.0081  0.3027 -0.2529
 5741TIP3    H138782   1.182   2.172   1.583 -0.1130  0.2998  1.0553
 5741TIP3    H238783   1.183   2.294   1.494 -1.5786 -0.6319 -0.2926
 5742TIP3   OH238784   3.395   4.494   1.783  0.1363  0.4870  0.2108
 5742TIP3    H138785   3.410   4.410   1.739  1.6037  0.4371  0.7424
 5742TIP3    H238786   3.474   4.507   1.836 -1.4000  0.7059  2.5783
 5743TIP3   OH238787   4.528   6.122   7.241  0.6060  0.0870 -0.4595
 5743TIP3    H138788   4.511   6.033   7.270  1.5088 -0.6196 -1.9445
 5743TIP3    H238789   4.550   6.113   7.148  0.7961  1.8489 -0.6223
 5744TIP3   OH238790   2.967   5.196   1.024 -0.8317  0.3597 -0.2318
 5744TIP3    H138791   2.884   5.181   1.069 -0.5171  0.7198  0.4850
 5744TIP3    H238792   3.009   5.111   1.021 -0.8929  0.3166  0.0872
 5745TIP3   OH238793   0.572   4.042   3.223  0.0628  0.7082  0.8485
 5745TIP3    H138794   0.484   4.011   3.201  0.3423 -0.2230  0.9905
 5745TIP3    H238795   0.585   4.015   3.313  0.4778  0.8924  0.8457
 5746TIP3   OH238796   4.092   6.501   8.122 -0.1510  0.2028  0.9165
 5746TIP3    H138797   4.085   6.428   8.061  0.5457  1.0495 -0.2110
 5746TIP3    H238798   4.121   6.460   8.204 -1.0949 -0.9456  0.7109
 5747TIP3   OH238799   5.589   2.156   8.532  0.4418 -0.4239  0.2272
 5747TIP3    H138800   5.514   2.208   8.503  0.6192  0.1231  0.7482
 5747TIP3    H238801   5.585   2.158   8.627  0.2739 -1.6362  0.2685
 5748TIP3   OH238802   5.576   4.144   8.627 -0.8726  0.0866 -0.4302
 5748TIP3    H138803   5.557   4.237   8.613 -2.9361 -0.1494  0.3815
 5748TIP3    H238804   5.570   4.105   8.539 -0.3975  0.6514 -0.7165
 5749TIP3   OH238805   3.133   1.325   1.418 -0.6241  0.0574  0.4628
 5749TIP3    H138806   3.188   1.340   1.495  0.5627 -0.3111 -0.2900
 5749TIP3    H238807   3.194   1.304   1.348 -1.7642 -1.2684 -0.2040
 5750TIP3   OH238808   2.118   5.616   0.440  0.2880 -0.1581  0.6077
 5750TIP3    H138809   2.203   5.586   0.473 -0.3873 -1.1017  1.5391
 5750TIP3    H238810   2.094   5.552   0.373  0.1495 -0.0820  0.5838
 5751TIP3   OH238811   1.301   3.448   1.197  0.9764 -0.1265 -0.2125
 5751TIP3    H138812   1.225   3.505   1.210  1.9661  1.0345  0.7342
 5751TIP3    H238813   1.272   3.362   1.225  0.1105  0.3840  0.5103
 5752TIP3   OH238814   6.281   2.292   0.846  0.3136 -0.7906  0.0594
 5752TIP3    H138815   6.319   2.306   0.760  2.3385  2.5020  1.3044
 5752TIP3    H238816   6.230   2.371   0.864 -0.3527 -1.5406  1.7344
 5753TIP3   OH238817   5.084   1.705   8.241  0.2211 -0.1137  0.7911
 5753TIP3    H138818   5.146   1.645   8.282  0.3396 -0.1752  0.5182
 5753TIP3    H238819   5.019   1.648   8.201 -0.7682 -0.0547  2.2128
 5754TIP3   OH238820   2.047   6.492   2.266 -0.7063 -0.4059  0.4166
 5754TIP3    H138821   2.082   6.575   2.235 -0.9392 -1.1843 -2.1602
 5754TIP3    H238822   2.104   6.425   2.227 -2.0434 -1.5192  0.2858
 5755TIP3   OH238823   6.419   4.771   8.825 -0.1575  0.3738 -0.3809
 5755TIP3    H138824   6.324   4.772   8.835 -0.0609  2.5712  1.0057
 5755TIP3    H238825   6.437   4.827   8.749  0.0252 -0.2089 -0.7721
 5756TIP3   OH238826   4.735   6.173   2.067  0.2738  0.4690  0.1807
 5756TIP3    H138827   4.695   6.249   2.110 -0.1715  0.7745 -0.7361
 5756TIP3    H238828   4.823   6.168   2.105 -0.4509  0.0658  1.8935
 5757TIP3   OH238829   1.171   0.065   1.420  0.7801  0.2652 -0.2199
 5757TIP3    H138830   1.082   0.101   1.412  0.1053 -1.2142  0.3906
 5757TIP3    H238831   1.206   0.107   1.499  1.6225  2.7987 -1.8196
 5758TIP3   OH238832   4.910   2.935   1.191 -0.6027 -0.6792  0.2589
 5758TIP3    H138833   4.952   3.017   1.163 -0.9101 -0.6859 -0.2165
 5758TIP3    H238834   4.906   2.943   1.287  1.3276 -1.0772  0.4234
 5759TIP3   OH238835   1.698   6.568   1.606 -0.0239  0.0848  0.4551
 5759TIP3    H138836   1.624   6.548   1.548 -0.5164  1.8691  0.4288
 5759TIP3    H238837   1.766   6.602   1.547  0.4014 -0.4465  0.6278
 5760TIP3   OH238838   4.293   2.373   0.429 -0.4190  0.4104 -0.0070
 5760TIP3    H138839   4.335   2.294   0.394 -0.5991  1.5581 -3.0698
 5760TIP3    H238840   4.356   2.406   0.494  1.3679 -0.3216 -1.2645
 5761TIP3   OH238841   1.798   3.420   0.882  0.8273  0.1150  0.2773
 5761TIP3    H138842   1.876   3.372   0.854  1.7434  0.8486  1.4811
 5761TIP3    H238843   1.747   3.356   0.931 -0.0520 -0.7566 -1.6882
 5762TIP3   OH238844   1.416   4.284   0.692  0.1212 -0.2634  0.3415
 5762TIP3    H138845   1.461   4.263   0.610  1.5732  0.3034  0.9504
 5762TIP3    H238846   1.383   4.373   0.679  0.5380 -0.0931  0.4474
 5763TIP3   OH238847   2.055   1.800   0.584  0.0722 -0.1671 -0.3297
 5763TIP3    H138848   2.050   1.705   0.598 -1.8282 -0.0601 -0.0258
 5763TIP3    H238849   2.039   1.837   0.671  1.2162  0.4466 -0.3708
 5764TIP3   OH238850   2.200   6.339   0.361  0.2129 -0.2690 -0.1667
 5764TIP3    H138851   2.106   6.344   0.347  0.0565 -2.6490 -0.3261
 5764TIP3    H238852   2.217   6.399   0.433 -1.4937 -0.1658  0.1908
 5765TIP3   OH238853   1.799   0.860   8.644 -0.1378 -0.1931 -0.2100
 5765TIP3    H138854   1.777   0.952   8.656  1.5386  0.3949 -1.2635
 5765TIP3    H238855   1.894   0.860   8.633  0.1287 -2.2514  1.4886
 5766TIP3   OH238856   4.430   0.698   2.460 -0.3575  0.0317  0.0047
 5766TIP3    H138857   4.356   0.754   2.484 -0.6162 -0.6752  0.9029
 5766TIP3    H238858   4.487   0.756   2.409 -1.4515  0.6186 -0.5843
 5767TIP3   OH238859   1.813   3.654   8.073 -0.3109  0.2051  0.2460
 5767TIP3    H138860   1.875   3.726   8.065  1.1476 -1.0785 -0.6263
 5767TIP3    H238861   1.776   3.644   7.986  2.6227 -2.6723 -0.8658
 5768TIP3   OH238862   5.440   6.745   0.623  0.4466 -0.2439  0.4635
 5768TIP3    H138863   5.516   6.690   0.604 -0.7175 -1.0918 -2.3336
 5768TIP3    H238864   5.408   6.713   0.707  0.7937 -2.7779 -0.2696
 5769TIP3   OH238865   6.797   0.041   8.805  0.4582  0.6237  0.6362
 5769TIP3    H138866   6.715   0.048   8.756  0.4387  0.7781  0.6895
 5769TIP3    H238867   6.814   0.130   8.835 -0.8995  0.1550  3.1194
 5770TIP3   OH238868   1.279   4.904   7.280  0.0005  0.2283  0.0840
 5770TIP3    H138869   1.374   4.906   7.275  0.0378  0.1337  0.6361
 5770TIP3    H238870   1.249   4.928   7.192  0.5262  2.7660  0.5254
 5771TIP3   OH238871   5.504   5.657   1.540  0.3517 -0.0380  0.3177
 5771TIP3    H138872   5.410   5.674   1.542  0.5248  1.1875 -0.6103
 5771TIP3    H238873   5.542   5.738   1.507  1.5158 -1.2747 -1.6020
 5772TIP3   OH238874   4.110   5.505   0.621  0.5492 -0.0579 -0.0802
 5772TIP3    H138875   4.081   5.494   0.530  2.1819  0.6279 -0.7204
 5772TIP3    H238876   4.038   5.470   0.673 -0.5894 -0.1356 -1.6226
 5773TIP3   OH238877   3.471   0.214   0.795 -0.5030 -0.8957  0.3276
 5773TIP3    H138878   3.567   0.207   0.795 -0.4946 -0.9493 -1.1290
 5773TIP3    H238879   3.451   0.262   0.876  1.0321  2.4559 -1.0786
 5774TIP3   OH238880   0.333   1.021   8.121  0.4475  0.3068 -0.0208
 5774TIP3    H138881   0.377   1.104   8.136  2.9165 -0.2106 -3.3429
 5774TIP3    H238882   0.246   1.045   8.092  0.2100  1.5541  1.5437
 5775TIP3   OH238883   5.124   0.533   0.244 -0.1427 -0.1457 -0.2396
 5775TIP3    H138884   5.037   0.570   0.227  0.5942  1.3131 -0.9986
 5775TIP3    H238885   5.184   0.591   0.198  1.2343 -1.2508  0.1012
 5776TIP3   OH238886   5.604   5.893   8.687 -0.3260 -0.8531 -0.2493
 5776TIP3    H138887   5.642   5.948   8.755  0.1748 -1.2742 -0.1895
 5776TIP3    H238888   5.550   5.830   8.733  0.1299 -1.2312 -0.2311
 5777TIP3   OH238889   6.741   1.468   2.741  1.1087  0.3346  0.5044
 5777TIP3    H138890   6.713   1.436   2.655 -0.3622  1.8788  0.3722
 5777TIP3    H238891   6.836   1.476   2.734  1.3557 -2.1796 -0.0359
 5778TIP3   OH238892   3.250   2.143   6.839  0.2295 -0.2568 -0.5136
 5778TIP3    H138893   3.238   2.218   6.781  1.2201 -0.4509 -0.9920
 5778TIP3    H238894   3.285   2.181   6.920 -1.2225  0.0216  0.0061
 5779TIP3   OH238895   6.006   2.052   0.403  0.0695 -0.1370 -0.4956
 5779TIP3    H138896   6.052   2.136   0.402  0.1133 -0.0872  1.8100
 5779TIP3    H238897   5.913   2.076   0.398 -0.0301  0.2233  1.9968
 5780TIP3   OH238898   0.341   4.630   3.119  0.1016  0.0331  0.4587
 5780TIP3    H138899   0.338   4.659   3.210 -1.1751 -0.1599  0.4987
 5780TIP3    H238900   0.280   4.688   3.073 -0.6549 -1.0289  0.0828
 5781TIP3   OH238901   4.537   2.398   2.337 -0.7425 -0.9766 -0.2721
 5781TIP3    H138902   4.476   2.364   2.271  1.6983  0.3670 -3.5485
 5781TIP3    H238903   4.516   2.492   2.342  2.6419  0.2536 -3.8732
 5782TIP3   OH238904   2.340   4.060   1.916  0.5356 -0.2863 -0.1454
 5782TIP3    H138905   2.346   3.969   1.887  1.8934 -0.4062  0.4205
 5782TIP3    H238906   2.408   4.068   1.983 -0.0471  0.9603  0.3280
 5783TIP3   OH238907   3.160   1.709   2.919  0.4507 -0.2320 -0.1517
 5783TIP3    H138908   3.206   1.649   2.861 -0.2752 -1.6715  0.7118
 5783TIP3    H238909   3.207   1.705   3.002  0.4329  0.4464 -0.1008
 5784TIP3   OH238910   2.822   4.858   0.754  0.5744 -0.6808  0.2330
 5784TIP3    H138911   2.748   4.912   0.726  1.4807 -0.4411 -1.9794
 5784TIP3    H238912   2.899   4.913   0.740  1.4081 -1.9930 -0.7177
 5785TIP3   OH238913   0.734   0.901   0.084  0.2639  0.8425 -0.0798
 5785TIP3    H138914   0.828   0.909   0.103  0.0559  0.9246  0.9636
 5785TIP3    H238915   0.731   0.879  -0.009  1.3990 -0.6304  0.1816
 5786TIP3   OH238916   0.842   4.625   8.307 -0.0096 -0.3180 -0.0639
 5786TIP3    H138917   0.882   4.701   8.264  4.0475 -0.0661  3.3895
 5786TIP3    H238918   0.795   4.662   8.382  2.0118 -1.0256  1.6575
 5787TIP3   OH238919   1.340   0.430   1.734 -0.3691  0.0534  0.2775
 5787TIP3    H138920   1.372   0.391   1.815 -1.1829 -2.6095 -0.5821
 5787TIP3    H238921   1.397   0.394   1.665  0.6404  2.6546 -0.3731
 5788TIP3   OH238922   2.334   4.726   0.643 -0.5105 -0.4095  0.5831
 5788TIP3    H138923   2.340   4.650   0.584  2.3725 -0.0552  0.2344
 5788TIP3    H238924   2.274   4.786   0.599 -0.7683 -1.4047 -0.4768
 5789TIP3   OH238925   0.019   6.248   2.287 -0.8470  0.1764  0.2530
 5789TIP3    H138926   0.013   6.338   2.255 -0.0262 -0.0646 -0.6494
 5789TIP3    H238927  -0.055   6.238   2.346 -0.4106  1.7344  1.1230
 5790TIP3   OH238928   4.436   1.589   0.584  0.0756  0.2853 -1.0625
 5790TIP3    H138929   4.480   1.604   0.668  0.6576 -0.7180 -1.1742
 5790TIP3    H238930   4.473   1.654   0.525 -0.7832  1.4115 -0.4005
 5791TIP3   OH238931   1.257   6.544   8.377  0.4176  0.3952 -0.1468
 5791TIP3    H138932   1.237   6.571   8.287 -1.8198 -1.8033 -0.4372
 5791TIP3    H238933   1.179   6.567   8.427  0.5653 -0.7512  0.6585
 5792TIP3   OH238934   1.537   2.968   2.281  0.1472  0.1404 -0.0270
 5792TIP3    H138935   1.590   3.043   2.306 -0.0155  0.7881 -1.5123
 5792TIP3    H238936   1.474   2.957   2.353  0.5846  1.0169  0.4997
 5793TIP3   OH238937   0.059   6.363   3.621 -0.1349 -0.0150  0.0582
 5793TIP3    H138938   0.112   6.308   3.563  0.5515  1.9564 -1.2981
 5793TIP3    H238939  -0.026   6.368   3.577  0.3631  1.4216 -0.8034
 5794TIP3   OH238940   0.871   2.396   2.802  0.4324 -0.4908  0.2763
 5794TIP3    H138941   0.928   2.321   2.817  1.5256 -0.4445 -2.8374
 5794TIP3    H238942   0.912   2.443   2.730 -2.1299  1.1032 -0.2928
 5795TIP3   OH238943   0.315   5.189   2.629  0.0859 -0.5583  0.0594
 5795TIP3    H138944   0.290   5.180   2.537  1.7712 -1.0140 -0.3954
 5795TIP3    H238945   0.336   5.099   2.657  1.5352 -0.1815  0.2704
 5796TIP3   OH238946   6.357   0.414   1.702 -0.2970  0.5579 -0.2227
 5796TIP3    H138947   6.301   0.437   1.627 -2.4350  0.5034  1.2691
 5796TIP3    H238948   6.445   0.442   1.676 -0.7954 -0.2000 -3.0697
 5797TIP3   OH238949   2.482   1.464   2.820 -0.7401 -0.5211  0.2497
 5797TIP3    H138950   2.398   1.510   2.817 -0.9419 -0.8939  0.0475
 5797TIP3    H238951   2.524   1.494   2.901 -0.8670  0.0114  0.1237
 5798TIP3   OH238952   0.952   1.073   0.415 -0.2533  0.4784  0.3821
 5798TIP3    H138953   0.939   1.168   0.407 -1.3783  0.5314  2.2193
 5798TIP3    H238954   1.045   1.060   0.396 -0.2542  1.8442 -0.6867
 5799TIP3   OH238955   2.284   1.212   3.491 -0.3366  0.2507 -0.6408
 5799TIP3    H138956   2.213   1.249   3.543 -0.7797 -3.3743  1.6606
 5799TIP3    H238957   2.248   1.131   3.454  2.2373 -1.1563 -0.2718
 5800TIP3   OH238958   4.565   1.500   1.313  0.4470  0.7974 -0.9350
 5800TIP3    H138959   4.638   1.439   1.320  0.8951  1.3357 -0.8950
 5800TIP3    H238960   4.603   1.580   1.276  0.0915  1.4385  0.0488
 5801TIP3   OH238961   6.175   2.599   2.254 -0.1199 -0.1816 -0.2378
 5801TIP3    H138962   6.214   2.524   2.209  0.6949 -0.2048  0.5004
 5801TIP3    H238963   6.177   2.576   2.347 -1.1530  0.1651 -0.1183
 5802TIP3   OH238964   5.383   1.860   0.836  0.3434 -0.4745  0.2688
 5802TIP3    H138965   5.375   1.767   0.815 -2.3276  0.3115 -3.0932
 5802TIP3    H238966   5.299   1.882   0.876  0.3402  0.7831 -0.4102
 5803TIP3   OH238967   5.765   2.995   0.085 -0.3299  0.1055  0.5761
 5803TIP3    H138968   5.818   2.934   0.034 -0.9494  1.3608 -1.7513
 5803TIP3    H238969   5.675   2.972   0.064 -0.5928  0.9936  0.6705
 5804TIP3   OH238970   2.946   4.795   7.119  0.2498 -0.1411 -0.0580
 5804TIP3    H138971   2.887   4.844   7.062 -0.1408  1.9448  1.9631
 5804TIP3    H238972   2.890   4.761   7.188  1.0893 -0.1183  0.6469
 5805TIP3   OH238973   1.918   4.964   0.570 -0.2272  0.7446 -0.1808
 5805TIP3    H138974   1.837   4.919   0.593  0.1579 -0.4063 -0.9746
 5805TIP3    H238975   1.956   4.990   0.654 -1.3119  1.1321  0.2049
 5806TIP3   OH238976   0.981   2.857   2.952  0.7756 -0.4582  0.2413
 5806TIP3    H138977   0.932   2.925   2.905  0.1786 -1.7921 -1.1441
 5806TIP3    H238978   0.976   2.883   3.044 -0.9507  0.4278 -0.0619
 5807TIP3   OH238979   1.293   3.954   8.068 -0.3344  0.9018  0.4647
 5807TIP3    H138980   1.269   4.045   8.052 -0.4938  0.6398 -0.9073
 5807TIP3    H238981   1.369   3.939   8.012 -1.6380 -0.4068 -1.0721
 5808TIP3   OH238982   5.256   5.466   2.249 -0.0454  0.3305  0.6724
 5808TIP3    H138983   5.216   5.550   2.271  1.0880  0.7169  1.3360
 5808TIP3    H238984   5.207   5.402   2.301  1.9441  1.1218  3.7962
 5809TIP3   OH238985   4.122   6.231   1.801 -0.6365 -0.5460  0.6151
 5809TIP3    H138986   4.178   6.250   1.876  0.7784 -0.6568 -0.3711
 5809TIP3    H238987   4.032   6.242   1.834 -0.0390  2.7540  1.4282
 5810TIP3   OH238988   4.789   1.974   1.956 -0.1729  0.4978 -0.7360
 5810TIP3    H138989   4.795   1.900   1.896  0.6250 -0.5706  0.5937
 5810TIP3    H238990   4.702   1.966   1.994 -0.4303  0.7886 -1.2541
 5811TIP3   OH238991   0.983   5.501   7.007 -0.2237 -0.0395 -0.1859
 5811TIP3    H138992   1.056   5.543   7.052  0.0884  0.4154 -1.0981
 5811TIP3    H238993   1.024   5.433   6.952 -0.6834 -1.2748  0.9388
 5812TIP3   OH238994   4.739   3.967   0.549 -1.0973  0.2978  0.1595
 5812TIP3    H138995   4.644   3.978   0.545 -1.4209 -1.8990  0.3337
 5812TIP3    H238996   4.763   3.936   0.462 -0.6088  0.3626  0.2663
 5813TIP3   OH238997   1.816   3.749   1.321 -0.4123 -0.2946 -0.9531
 5813TIP3    H138998   1.849   3.834   1.349 -0.7555  0.0282 -1.5077
 5813TIP3    H238999   1.728   3.768   1.288 -1.0082 -1.0710  0.1229
 5814TIP3   OH239000   0.563   0.294   0.890  0.4277  0.4606  0.2233
 5814TIP3    H139001   0.582   0.222   0.829  2.9315 -0.0635  1.5031
 5814TIP3    H239002   0.472   0.279   0.917  0.2150 -0.9884 -1.1322
 5815TIP3   OH239003   0.713   1.445   8.287 -0.0455 -0.1726 -0.2579
 5815TIP3    H139004   0.767   1.509   8.240 -1.6550  1.7270  0.3453
 5815TIP3    H239005   0.640   1.496   8.322 -0.9304 -2.2054  1.0563
 5816TIP3   OH239006   1.411   1.714   8.501 -0.0520  0.6477  0.1623
 5816TIP3    H139007   1.335   1.771   8.492 -1.6684 -1.6156 -2.2829
 5816TIP3    H239008   1.461   1.727   8.420 -0.5520 -1.3584 -0.5506
 5817TIP3   OH239009   3.704   2.989   8.107  0.3392  0.4928  0.0219
 5817TIP3    H139010   3.690   2.894   8.100  0.0740  0.6459 -2.8029
 5817TIP3    H239011   3.798   2.999   8.120  0.6551 -0.1711 -1.5012
 5818TIP3   OH239012   5.606   6.074   8.473  0.0189 -0.2235 -0.6995
 5818TIP3    H139013   5.665   6.012   8.515  2.2514  2.5300  0.5265
 5818TIP3    H239014   5.638   6.082   8.383  0.2005 -0.2556 -0.6365
 5819TIP3   OH239015   6.534   0.583   0.852  0.3926  0.5821 -0.3705
 5819TIP3    H139016   6.497   0.580   0.764  0.9002 -0.6814 -0.5522
 5819TIP3    H239017   6.459   0.570   0.910  0.2677 -0.0659 -0.6708
 5820TIP3   OH239018   2.141   1.634   8.231 -0.0734 -0.2241  0.5008
 5820TIP3    H139019   2.181   1.718   8.211 -0.4775  0.0071  0.6653
 5820TIP3    H239020   2.100   1.606   8.150  0.7423 -0.6514  0.2149
 5821TIP3   OH239021   6.391   1.277   2.723 -0.2427  0.8712  0.7413
 5821TIP3    H139022   6.394   1.350   2.661  0.9090 -0.4085 -0.7985
 5821TIP3    H239023   6.300   1.273   2.752 -0.8287  1.4642 -0.9415
 5822TIP3   OH239024   0.156   1.002   1.166 -0.0736 -0.1937  0.4399
 5822TIP3    H139025   0.238   0.953   1.168  1.3719  2.0783  2.0782
 5822TIP3    H239026   0.128   1.005   1.257 -1.1471  0.3808  0.1114
 5823TIP3   OH239027   2.395   1.700   1.864  0.0617 -0.2292  0.1778
 5823TIP3    H139028   2.449   1.675   1.789 -0.4420 -0.7426 -0.0235
 5823TIP3    H239029   2.386   1.619   1.915 -1.5285 -0.4970 -0.4387
 5824TIP3   OH239030   3.249   4.947   7.414  0.0299  0.1653 -0.2579
 5824TIP3    H139031   3.328   4.974   7.366  0.4234 -0.2936  0.1215
 5824TIP3    H239032   3.177   4.991   7.368  0.5421  0.9002 -0.3724
 5825TIP3   OH239033   1.579   3.157   8.863  0.2039 -0.4474 -0.4751
 5825TIP3    H139034   1.554   3.079   8.913  0.0472  0.0520  0.2405
 5825TIP3    H239035   1.673   3.148   8.850  0.5503  0.1760  1.3026
 5826TIP3   OH239036   1.465   0.293   7.338  0.0147  0.2722  0.5382
 5826TIP3    H139037   1.430   0.365   7.286  0.4873  1.2089  1.4712
 5826TIP3    H239038   1.489   0.226   7.274 -1.0713  0.6529 -0.2966
 5827TIP3   OH239039   2.798   6.442   8.124  0.4171  0.4119  0.2984
 5827TIP3    H139040   2.746   6.512   8.085  0.0980 -0.3445 -0.6823
 5827TIP3    H239041   2.733   6.379   8.156  0.6998 -0.1919 -0.2858
 5828TIP3   OH239042   5.775   4.373   0.439 -0.1589  0.4001 -0.1542
 5828TIP3    H139043   5.851   4.332   0.479  1.5268  1.4576 -2.0498
 5828TIP3    H239044   5.710   4.302   0.432  0.2581 -0.3037  2.3169
 5829TIP3   OH239045   2.610   4.605   2.115  0.5442 -0.3472 -0.2116
 5829TIP3    H139046   2.555   4.556   2.177  0.1116 -0.2771 -0.5326
 5829TIP3    H239047   2.555   4.613   2.037  0.4906  0.9130 -0.0561
 5830TIP3   OH239048   4.333   3.396   0.318 -0.4403  0.1692  0.2082
 5830TIP3    H139049   4.416   3.434   0.289 -1.5822  1.2850 -1.7807
 5830TIP3    H239050   4.347   3.301   0.311  0.7166  0.3421  0.0331
 5831TIP3   OH239051   5.494   6.538   1.157  0.1455 -0.1571  0.4267
 5831TIP3    H139052   5.532   6.626   1.156  0.3146 -0.1986 -1.8778
 5831TIP3    H239053   5.401   6.551   1.141  0.3680 -0.4137 -1.2958
 5832TIP3   OH239054   3.066   3.321   8.842 -0.1652  0.5122  0.3096
 5832TIP3    H139055   3.029   3.295   8.926  2.3407 -1.6339  0.8806
 5832TIP3    H239056   3.000   3.296   8.778 -0.5376 -1.4301  1.3902
 5833TIP3   OH239057   2.596   3.881   8.383  0.2767  0.0087  0.4585
 5833TIP3    H139058   2.557   3.961   8.346  0.8256 -0.3369 -0.9599
 5833TIP3    H239059   2.588   3.816   8.313  5.2155  0.4374 -0.9540
 5834TIP3   OH239060   0.234   5.301   2.003 -0.0148  0.0685 -0.1619
 5834TIP3    H139061   0.167   5.302   2.071 -0.4077  4.3956 -0.3673
 5834TIP3    H239062   0.316   5.287   2.051 -0.5155  0.5518  0.8692
 5835TIP3   OH239063   2.403   5.588   8.735  0.1234 -0.3054  0.2788
 5835TIP3    H139064   2.404   5.505   8.687  0.9939 -0.4163  0.4778
 5835TIP3    H239065   2.393   5.562   8.827  1.9478 -0.2898  0.5068
 5836TIP3   OH239066   5.578   4.185   0.415 -0.5506  0.1197  0.5149
 5836TIP3    H139067   5.544   4.102   0.450 -2.3451  0.2738 -0.7003
 5836TIP3    H239068   5.520   4.251   0.452 -0.4416  0.6110 -0.1837
 5837TIP3   OH239069   4.537   2.927   0.643 -0.5061  0.3031  0.3671
 5837TIP3    H139070   4.546   2.954   0.552 -0.8893  0.4804  0.3794
 5837TIP3    H239071   4.443   2.918   0.656 -0.5883  1.9864  1.2254
 5838TIP3   OH239072   1.774   4.536   0.019  0.2105  0.5574 -0.3672
 5838TIP3    H139073   1.773   4.596  -0.055  0.2968 -0.9161 -1.6147
 5838TIP3    H239074   1.865   4.510   0.028  0.0510 -0.0534 -0.4246
 5839TIP3   OH239075   0.905   6.488   7.601 -0.6854  0.6806 -0.0791
 5839TIP3    H139076   0.970   6.434   7.646 -3.4499 -1.1216  2.0658
 5839TIP3    H239077   0.955   6.563   7.570  2.9490 -1.8920 -1.1599
 5840TIP3   OH239078   3.581   6.416   1.823  0.5330  0.4340  0.0252
 5840TIP3    H139079   3.576   6.330   1.782  0.1418  0.0168  0.9197
 5840TIP3    H239080   3.630   6.470   1.760  0.1450 -0.2344 -0.8739
 5841TIP3   OH239081   3.724   5.856   7.134 -0.5852 -0.3487  0.6342
 5841TIP3    H139082   3.786   5.804   7.082 -2.3401 -1.1197 -0.7979
 5841TIP3    H239083   3.769   5.871   7.217  0.2338 -3.6845  0.9159
 5842TIP3   OH239084   5.685   0.587   0.868 -0.3739 -0.1550  0.3396
 5842TIP3    H139085   5.750   0.650   0.837  0.2677  0.2766  2.3535
 5842TIP3    H239086   5.724   0.552   0.949 -1.1719 -2.3951 -0.1814
 5843TIP3   OH239087   1.286   5.584   0.811  0.1358  0.1423  0.2525
 5843TIP3    H139088   1.271   5.499   0.853  0.6476  0.3271  0.8405
 5843TIP3    H239089   1.359   5.568   0.750 -1.0777 -0.2946 -1.1350
 5844TIP3   OH239090   4.100   4.646   8.551 -0.1161  0.3808  0.2853
 5844TIP3    H139091   4.131   4.664   8.462 -1.5062 -0.6273 -0.4335
 5844TIP3    H239092   4.160   4.696   8.607  2.4248 -0.9555 -1.0375
 5845TIP3   OH239093   5.982   3.750   2.200 -0.4498  0.0752  0.0588
 5845TIP3    H139094   6.006   3.843   2.200 -1.9047  0.4862 -0.3981
 5845TIP3    H239095   6.063   3.704   2.220  0.1006  1.4942  1.2715
 5846TIP3   OH239096   2.771   2.960   0.963 -0.1234  0.5494  0.2145
 5846TIP3    H139097   2.788   2.900   1.036 -0.7193  0.8198  0.5877
 5846TIP3    H239098   2.836   3.029   0.972 -1.1044  1.3654  1.3846
 5847TIP3   OH239099   0.689   5.608   0.591 -0.0705 -0.2542  0.2529
 5847TIP3    H139100   0.763   5.636   0.536  0.1658  0.0168  0.6969
 5847TIP3    H239101   0.652   5.690   0.624 -1.3709 -0.3259 -0.9766
 5848TIP3   OH239102   0.072   4.236   0.593 -0.2783 -0.0887 -0.5077
 5848TIP3    H139103   0.152   4.225   0.645 -1.2293  1.6196  1.4512
 5848TIP3    H239104   0.092   4.309   0.535 -0.6865  1.0005  0.6744
 5849TIP3   OH239105   5.415   6.205   1.364 -0.1163  0.3386  0.2288
 5849TIP3    H139106   5.447   6.291   1.391  0.9878 -0.0671  0.2447
 5849TIP3    H239107   5.399   6.159   1.447  1.4908 -0.2537  0.2452
 5850TIP3   OH239108   3.667   5.146   8.149 -0.3995  0.6873  0.0326
 5850TIP3    H139109   3.695   5.185   8.066 -0.3251  0.9623  0.1865
 5850TIP3    H239110   3.602   5.207   8.184  0.1040  0.9546  0.5283
 5851TIP3   OH239111   2.386   4.645   8.264 -0.7223  0.2601 -0.0319
 5851TIP3    H139112   2.366   4.570   8.321  1.8812  0.8559  1.8528
 5851TIP3    H239113   2.412   4.605   8.181 -1.2405 -0.8308  0.3118
 5852TIP3   OH239114   6.007   0.294   0.309  0.0726 -0.3422 -0.3955
 5852TIP3    H139115   5.964   0.229   0.364  2.2612 -2.7533 -1.3537
 5852TIP3    H239116   5.992   0.264   0.219  1.2524  0.3836 -0.8693
 5853TIP3   OH239117   2.207   6.625   0.178  0.0001  0.4346 -0.3886
 5853TIP3    H139118   2.301   6.635   0.195  0.2356 -0.2567 -1.2127
 5853TIP3    H239119   2.167   6.632   0.264  0.7737  1.1397 -0.0751
 5854TIP3   OH239120   5.534   0.930   1.396 -0.1725 -0.1812 -0.3112
 5854TIP3    H139121   5.540   0.872   1.320  1.8630  1.0697 -1.1837
 5854TIP3    H239122   5.495   0.875   1.464  1.1708 -2.4476 -1.2424
 5855TIP3   OH239123   5.205   1.633   1.034 -0.4240 -0.3857  0.4505
 5855TIP3    H139124   5.178   1.724   1.023  3.3970  0.5741 -4.7116
 5855TIP3    H239125   5.243   1.630   1.122 -0.5203  3.0735  0.7543
 5856TIP3   OH239126   2.433   1.024   1.361  0.3588 -0.2344 -0.2293
 5856TIP3    H139127   2.510   1.080   1.348  0.2670  0.5460  2.0621
 5856TIP3    H239128   2.463   0.956   1.421 -0.5140 -0.4156  0.0184
 5857TIP3   OH239129   3.442   0.034   8.025  0.2453 -0.1257 -0.0304
 5857TIP3    H139130   3.424  -0.050   7.983  0.2158  0.1227 -0.5159
 5857TIP3    H239131   3.522   0.067   7.983  0.5817 -0.1684  0.5509
 5858TIP3   OH239132   1.682   3.349   1.281 -0.2329  0.2426  0.0866
 5858TIP3    H139133   1.745   3.300   1.334  0.1861  1.0357  0.3302
 5858TIP3    H239134   1.687   3.309   1.194  0.6340  0.3312  0.0925
 5859TIP3   OH239135   0.031   2.287   2.186  0.0080 -0.0252  0.3894
 5859TIP3    H139136   0.018   2.204   2.232  0.3069 -0.3916 -0.1798
 5859TIP3    H239137   0.051   2.262   2.096  1.7236  0.6059  0.5684
 5860TIP3   OH239138   4.572   4.258   3.008  0.3995 -0.5644  0.3827
 5860TIP3    H139139   4.506   4.217   3.064 -1.1727  0.4323 -0.6576
 5860TIP3    H239140   4.544   4.239   2.919 -1.7026  4.2546 -0.3160
 5861TIP3   OH239141   1.908   6.792   0.525  0.3431 -0.5698 -0.1064
 5861TIP3    H139142   1.862   6.786   0.441 -1.2494 -1.5509  0.7787
 5861TIP3    H239143   1.891   6.881   0.556  0.1614 -0.5014 -0.3980
 5862TIP3   OH239144   0.863   1.564   3.033 -0.3990  0.0447 -0.4358
 5862TIP3    H139145   0.857   1.656   3.060 -0.5147  0.0329 -0.4201
 5862TIP3    H239146   0.930   1.527   3.091 -2.5437 -0.6571  1.7804
 5863TIP3   OH239147   2.725   1.425   1.686  0.8625  0.0582 -0.2266
 5863TIP3    H139148   2.682   1.507   1.708  1.1353  0.4108 -0.9518
 5863TIP3    H239149   2.693   1.404   1.598  0.2469 -0.9872  0.2382
 5864TIP3   OH239150   0.174   1.263   1.054  0.1488  0.2868  0.2605
 5864TIP3    H139151   0.164   1.172   1.083 -0.8162  0.3701  0.2174
 5864TIP3    H239152   0.088   1.286   1.018  0.0962  1.5129  1.1282
 5865TIP3   OH239153   0.914   3.085   1.225  0.2550 -0.3176  0.0620
 5865TIP3    H139154   0.874   3.079   1.312  1.0702 -1.6506  0.3761
 5865TIP3    H239155   0.918   3.178   1.207  0.3912  0.0092  1.6188
 5866TIP3   OH239156   5.661   0.421   1.829 -0.4899 -0.1879  0.1601
 5866TIP3    H139157   5.634   0.396   1.918  2.5487  0.9405  1.5172
 5866TIP3    H239158   5.756   0.415   1.830 -0.3396  0.1195 -2.9981
 5867TIP3   OH239159   3.006   0.138   3.934  0.6721 -0.3313  0.2016
 5867TIP3    H139160   2.996   0.229   3.907 -0.2481 -0.5404 -0.2195
 5867TIP3    H239161   2.994   0.140   4.029 -1.7268 -0.2790 -0.0385
 5868TIP3   OH239162   2.899   0.946   2.619 -0.2595 -0.0462 -0.4445
 5868TIP3    H139163   2.959   1.000   2.672  0.0384 -1.6934  0.9826
 5868TIP3    H239164   2.957   0.887   2.571 -0.6609 -0.5978 -0.2590
 5869TIP3   OH239165   2.321   2.558   0.252 -0.1314  0.0133  0.1871
 5869TIP3    H139166   2.399   2.609   0.273 -0.6679  0.8195  0.3121
 5869TIP3    H239167   2.306   2.504   0.330 -1.0313  1.5995  1.1930
 5870TIP3   OH239168   1.168   5.098   0.313  0.2250  0.1295  0.2643
 5870TIP3    H139169   1.092   5.058   0.355 -2.1113  1.3619 -2.4064
 5870TIP3    H239170   1.222   5.024   0.286 -0.8725 -0.9059  0.8056
 5871TIP3   OH239171   6.179   1.857   7.956  0.1846  0.1959  0.0428
 5871TIP3    H139172   6.265   1.895   7.941 -0.1551  0.5538 -1.1146
 5871TIP3    H239173   6.194   1.762   7.954  0.2720  0.1961 -2.3187
 5872TIP3   OH239174   2.227   5.165   0.627  0.6155  0.5241  0.4173
 5872TIP3    H139175   2.299   5.224   0.647  1.1979  0.1242 -0.4331
 5872TIP3    H239176   2.150   5.222   0.619  0.8358  0.9561  1.2925
 5873TIP3   OH239177   3.716   4.184   8.033 -0.3478 -0.1648  0.3071
 5873TIP3    H139178   3.780   4.255   8.028 -0.2770 -0.2599 -0.3196
 5873TIP3    H239179   3.704   4.157   7.942 -0.4572 -0.8790  0.5278
 5874TIP3   OH239180   4.211   6.253   2.634 -0.6273  0.1686  0.0730
 5874TIP3    H139181   4.271   6.226   2.703 -0.0449  0.1779 -0.4219
 5874TIP3    H239182   4.264   6.307   2.576 -1.0382 -0.0651 -0.5254
 5875TIP3   OH239183   0.255   1.096   0.798  0.2382 -0.0038 -0.5320
 5875TIP3    H139184   0.206   1.019   0.827 -1.1216  0.3026 -1.8765
 5875TIP3    H239185   0.211   1.170   0.841  1.1539  0.0822  0.2755
 5876TIP3   OH239186   5.567   1.493   8.280  0.1381 -0.0053  0.3758
 5876TIP3    H139187   5.651   1.530   8.256  0.9771 -1.5362  0.8105
 5876TIP3    H239188   5.509   1.568   8.288  0.7762  0.8932 -2.4220
 5877TIP3   OH239189   5.984   0.653   8.713  0.6697 -0.1648  0.0875
 5877TIP3    H139190   5.979   0.742   8.747  0.0734 -0.3537  0.5143
 5877TIP3    H239191   6.031   0.604   8.781  2.2904  0.1161 -0.7883
 5878TIP3   OH239192   4.146   2.856   3.339  0.2581 -0.2341  0.4506
 5878TIP3    H139193   4.061   2.867   3.383  0.1853  0.2681  0.1954
 5878TIP3    H239194   4.154   2.761   3.327 -0.1631 -0.3048  0.6779
 5879TIP3   OH239195   5.958   1.823   0.022  0.2181  0.2909  0.6350
 5879TIP3    H139196   6.052   1.807   0.028  0.2219  0.2030  0.3557
 5879TIP3    H239197   5.928   1.763  -0.047 -0.0687  0.2014  0.8328
 5880TIP3   OH239198   0.437   2.712   0.875 -0.1479 -0.4534 -0.2540
 5880TIP3    H139199   0.520   2.686   0.915  0.1316  1.1020  0.2610
 5880TIP3    H239200   0.389   2.755   0.946 -0.2854  0.9990 -1.1990
 5881TIP3   OH239201   2.055   0.143   2.841 -0.1909 -0.1655  0.8788
 5881TIP3    H139202   2.033   0.236   2.845 -0.3569 -0.2306  1.4741
 5881TIP3    H239203   2.036   0.118   2.750 -1.0870  0.1522  0.9665
 5882TIP3   OH239204   6.000   4.778   3.063  0.0294  0.1505  0.4080
 5882TIP3    H139205   5.926   4.738   3.109  1.2904 -1.3262  1.2498
 5882TIP3    H239206   6.015   4.861   3.108  0.3081 -0.5919  1.7174
 5883TIP3   OH239207   2.191   6.760   7.994  0.0876 -0.6445 -0.4171
 5883TIP3    H139208   2.156   6.806   7.918  0.0803 -0.1951 -0.1446
 5883TIP3    H239209   2.246   6.691   7.957  0.0257 -0.4744 -0.8300
 5884TIP3   OH239210   2.875   2.618   8.138 -0.0065  0.1907 -0.3598
 5884TIP3    H139211   2.837   2.539   8.177 -2.0645  0.4861 -1.6108
 5884TIP3    H239212   2.862   2.686   8.204  0.1463 -0.1427  0.0154
 5885TIP3   OH239213   4.652   1.719   1.541  0.1804 -0.4762  0.1300
 5885TIP3    H139214   4.558   1.732   1.549  0.3645  0.4327  1.0426
 5885TIP3    H239215   4.668   1.712   1.447 -0.7501 -0.2609 -0.0445
 5886TIP3   OH239216   5.509   6.694   0.891  0.3386 -0.0633  0.1964
 5886TIP3    H139217   5.429   6.726   0.932 -0.4272 -0.7104 -0.7560
 5886TIP3    H239218   5.549   6.637   0.957  1.0565  1.7587  1.4210
 5887TIP3   OH239219   0.567   6.754   2.728 -0.1330 -0.1102  0.3527
 5887TIP3    H139220   0.589   6.673   2.683  1.2047 -0.2266  1.1797
 5887TIP3    H239221   0.508   6.727   2.798  0.4007 -0.3841  0.6966
 5888TIP3   OH239222   0.282   3.893   2.126  0.0460 -0.2540  0.5760
 5888TIP3    H139223   0.245   3.843   2.053 -0.0302 -0.5260  0.7977
 5888TIP3    H239224   0.376   3.876   2.121  0.5152  2.3446 -1.4470
 5889TIP3   OH239225   1.069   3.531   8.678 -0.5465  0.2263  0.3072
 5889TIP3    H139226   0.984   3.557   8.643 -1.1272 -1.0122  0.7288
 5889TIP3    H239227   1.048   3.484   8.759  0.1841 -3.4188 -1.3944
 5890TIP3   OH239228   5.584   3.598   0.019 -0.5168  0.5256  0.4007
 5890TIP3    H139229   5.523   3.576  -0.052 -0.0836 -0.6630  0.3760
 5890TIP3    H239230   5.532   3.648   0.081 -1.2310  0.4691 -0.1393
 5891TIP3   OH239231   1.427   5.877   0.478  0.5326  0.3850  0.1832
 5891TIP3    H139232   1.491   5.869   0.549  1.6105  2.1841 -0.5242
 5891TIP3    H239233   1.480   5.889   0.399 -0.6462  1.6421 -0.4643
 5892TIP3   OH239234   3.089   2.534   3.153 -0.3560 -0.5503 -0.0250
 5892TIP3    H139235   3.025   2.524   3.224  0.6081 -0.8488  0.8219
 5892TIP3    H239236   3.168   2.490   3.185  0.7440  1.0408 -0.4632
 5893TIP3   OH239237   6.227   3.649   8.130 -0.2795 -0.5550  0.1421
 5893TIP3    H139238   6.256   3.714   8.195 -0.4335  1.4995 -1.7064
 5893TIP3    H239239   6.307   3.600   8.109 -0.1598 -1.0331  1.5953
 5894TIP3   OH239240   5.825   2.568   2.428 -0.5786  0.1408 -0.1931
 5894TIP3    H139241   5.750   2.531   2.475 -0.0090  0.4471  0.9940
 5894TIP3    H239242   5.897   2.562   2.490  0.4729 -0.4577 -1.4403
 5895TIP3   OH239243   5.245   3.950   8.306  0.7455 -0.3135  0.5265
 5895TIP3    H139244   5.245   3.860   8.275  1.1675 -0.6763  1.5622
 5895TIP3    H239245   5.211   4.000   8.232 -2.3740 -1.6614  0.8897
 5896TIP3   OH239246   4.001   1.894   2.648 -0.0853 -0.5479  0.5152
 5896TIP3    H139247   4.046   1.954   2.708  0.1033 -0.9699  0.7997
 5896TIP3    H239248   4.040   1.809   2.666 -1.4821 -1.0701  1.2737
 5897TIP3   OH239249   0.954   1.842   0.393 -0.8773  0.1491 -0.3431
 5897TIP3    H139250   0.946   1.772   0.457  0.4071  1.4218  1.2808
 5897TIP3    H239251   0.873   1.892   0.401 -0.3460  0.8443  1.0213
 5898TIP3   OH239252   0.297   0.582   1.054 -0.0176  0.3723 -0.0540
 5898TIP3    H139253   0.321   0.591   0.962 -1.2111 -0.8884 -0.5139
 5898TIP3    H239254   0.201   0.574   1.054 -0.0410  0.3380  1.2914
 5899TIP3   OH239255   2.155   6.721   3.472  0.1103 -0.1839  0.3993
 5899TIP3    H139256   2.090   6.789   3.453  1.0957  0.3770 -1.1264
 5899TIP3    H239257   2.162   6.670   3.392  2.4733  0.5803  0.0335
 5900TIP3   OH239258   4.271   1.518   8.352  0.5054 -0.9431 -0.0268
 5900TIP3    H139259   4.323   1.572   8.293  0.6481 -0.1733  0.7798
 5900TIP3    H239260   4.182   1.522   8.316  0.1728  1.1661  0.8809
 5901TIP3   OH239261   4.907   1.818   0.725 -0.6109 -0.2707 -0.5718
 5901TIP3    H139262   5.000   1.835   0.739 -1.0596  0.1106  2.9856
 5901TIP3    H239263   4.874   1.897   0.682  0.1160  1.2429  1.4965
 5902TIP3   OH239264   5.865   3.625   3.152  0.1380  0.0536 -0.4504
 5902TIP3    H139265   5.926   3.585   3.091  1.1254  0.2117  0.4177
 5902TIP3    H239266   5.920   3.666   3.219 -0.9044  0.4365  0.2021
 5903TIP3   OH239267   3.328   5.915   8.315 -0.4795  0.3470 -0.2594
 5903TIP3    H139268   3.304   5.823   8.316  1.8949 -0.3391 -1.3434
 5903TIP3    H239269   3.245   5.961   8.299 -1.8003 -1.5066  0.8587
 5904TIP3   OH239270   4.206   3.620   1.137  0.4235  0.2525 -0.3076
 5904TIP3    H139271   4.113   3.600   1.148  0.4929  0.0309 -0.1261
 5904TIP3    H239272   4.249   3.582   1.213  0.8397 -0.8786 -1.0783
 5905TIP3   OH239273   4.913   3.589   0.934 -0.2893  0.0745 -0.0899
 5905TIP3    H139274   5.007   3.576   0.943  0.0640  2.5165  0.3093
 5905TIP3    H239275   4.876   3.501   0.945  1.8408 -0.7612  0.9868
 5906TIP3   OH239276   0.277   3.711   1.562  0.3133  0.2461  0.3129
 5906TIP3    H139277   0.227   3.762   1.497  1.2393 -2.0195 -2.3762
 5906TIP3    H239278   0.233   3.625   1.563  1.6496 -0.4527  1.0321
 5907TIP3   OH239279   4.180   2.577   7.631 -0.0410  0.1817  0.1776
 5907TIP3    H139280   4.199   2.495   7.677 -0.5576  1.0634  2.0699
 5907TIP3    H239281   4.247   2.637   7.662  0.3625  0.4833 -1.2341
 5908TIP3   OH239282   0.760   3.820   3.123 -0.6537  0.1645 -0.4653
 5908TIP3    H139283   0.708   3.880   3.070 -0.1364  1.1957  0.1728
 5908TIP3    H239284   0.848   3.827   3.087 -0.4049  0.4829  0.2050
 5909TIP3   OH239285   5.509   1.196   1.416  0.4047 -0.0754  0.5184
 5909TIP3    H139286   5.526   1.104   1.399  1.7786 -0.0719  1.6457
 5909TIP3    H239287   5.487   1.233   1.331  0.7447 -1.2556 -0.1051
 5910TIP3   OH239288   5.160   3.042   8.519  0.0228 -0.4218 -0.0570
 5910TIP3    H139289   5.097   3.078   8.457  0.5116 -0.9548 -0.8850
 5910TIP3    H239290   5.243   3.042   8.472  0.6429  0.2116  0.9931
 5911TIP3   OH239291   6.781   4.714   0.635 -0.0009  0.3045 -0.1854
 5911TIP3    H139292   6.727   4.792   0.644 -0.4254 -0.1718  1.7319
 5911TIP3    H239293   6.728   4.643   0.670  1.8640 -0.1420  1.9718
 5912TIP3   OH239294   0.273   4.531   2.671  0.0212  0.2841  1.0094
 5912TIP3    H139295   0.258   4.483   2.590 -0.5758 -1.3713  2.0591
 5912TIP3    H239296   0.365   4.558   2.666 -0.5063  2.0635 -1.1079
 5913TIP3   OH239297   3.993   0.666   8.171  0.2350 -0.1994 -0.1431
 5913TIP3    H139298   3.912   0.718   8.174  0.5273  0.2889 -0.5956
 5913TIP3    H239299   4.007   0.650   8.078 -0.8338 -2.6597  0.0402
 5914TIP3   OH239300   6.647   2.308   0.409  0.4414 -0.0351  0.2445
 5914TIP3    H139301   6.697   2.383   0.377  0.0046  0.0440 -0.2645
 5914TIP3    H239302   6.584   2.289   0.339  0.3235 -0.6634  0.5149
 5915TIP3   OH239303   4.717   2.732   0.736  0.7211  0.5100 -0.3107
 5915TIP3    H139304   4.765   2.811   0.761  1.1872  0.1155  0.0628
 5915TIP3    H239305   4.649   2.763   0.678  0.8651  1.1988 -0.1218
 5916TIP3   OH239306   5.726   1.695   8.418 -0.4518 -0.6471 -0.8290
 5916TIP3    H139307   5.662   1.726   8.481 -0.6733 -0.5286 -1.1096
 5916TIP3    H239308   5.685   1.710   8.332 -0.0986 -0.6734 -1.0057
 5917TIP3   OH239309   0.432   1.224   8.613 -0.1739  0.0182 -0.5421
 5917TIP3    H139310   0.463   1.136   8.592 -2.3261 -0.7282 -0.8898
 5917TIP3    H239311   0.383   1.213   8.695  0.7908  1.2057  0.2265
 5918TIP3   OH239312   1.875   0.064   1.012 -0.0275  0.4911 -0.0133
 5918TIP3    H139313   1.806  -0.001   1.027 -0.2128  0.4679 -0.8999
 5918TIP3    H239314   1.829   0.137   0.969  0.3992  0.6996 -0.1135
 5919TIP3   OH239315   0.192   4.595   8.335 -0.0199  0.8525  0.0909
 5919TIP3    H139316   0.101   4.621   8.351 -0.0078  0.6372  0.5071
 5919TIP3    H239317   0.189   4.549   8.251 -0.2257  1.2047 -0.0987
 5920TIP3   OH239318   1.467   4.828   1.253 -0.6463 -0.3673 -0.2268
 5920TIP3    H139319   1.519   4.858   1.327  1.6783 -0.1535 -1.8578
 5920TIP3    H239320   1.461   4.733   1.264 -2.6687 -0.1241  1.5896
 5921TIP3   OH239321   2.325   0.831   8.768 -0.5505 -1.1335  0.1215
 5921TIP3    H139322   2.367   0.769   8.709  1.0316  0.4124 -0.4590
 5921TIP3    H239323   2.326   0.914   8.720 -0.5594 -0.1585  1.7464
 5922TIP3   OH239324   4.890   3.831   1.844 -0.8552  0.4226  1.0977
 5922TIP3    H139325   4.874   3.855   1.935 -0.1497  1.2669  1.0043
 5922TIP3    H239326   4.983   3.811   1.840 -0.5857  1.7676  0.2653
 5923TIP3   OH239327   3.648   6.357   2.536  0.2647 -0.0184 -0.1382
 5923TIP3    H139328   3.730   6.312   2.555  1.4144  1.3636 -1.5694
 5923TIP3    H239329   3.589   6.288   2.505  1.9212 -0.6119 -2.1528
 5924TIP3   OH239330   1.327   0.228   2.060 -0.3092 -0.1780 -0.4975
 5924TIP3    H139331   1.333   0.213   2.154 -1.1756  1.4176 -0.1583
 5924TIP3    H239332   1.254   0.172   2.031  0.6479 -1.4910 -0.4403
 5925TIP3   OH239333   0.038   5.548   3.728 -0.4570 -0.3913  0.0204
 5925TIP3    H139334   0.031   5.516   3.638 -1.2524 -0.5805  0.1454
 5925TIP3    H239335   0.109   5.612   3.725 -2.2346  1.6528 -1.3496
 5926TIP3   OH239336   6.374   0.663   8.583  0.1404  0.2906 -0.2598
 5926TIP3    H139337   6.317   0.731   8.617 -0.1101 -0.4484  0.8649
 5926TIP3    H239338   6.463   0.692   8.606 -0.0385 -0.3929  1.5408
 5927TIP3   OH239339   1.325   6.600   1.787 -0.1381 -0.7274 -0.3229
 5927TIP3    H139340   1.405   6.652   1.781  0.6882 -2.0947 -2.0590
 5927TIP3    H239341   1.276   6.621   1.707 -1.0382 -0.7038  0.2149
 5928TIP3   OH239342   5.610   1.366   7.981  0.0744 -0.2501 -0.2455
 5928TIP3    H139343   5.537   1.406   8.027 -0.1280 -1.5499  0.6201
 5928TIP3    H239344   5.611   1.408   7.895 -0.1460  1.5382  0.5818
 5929TIP3   OH239345   2.356   1.285   0.768 -0.2607  0.7673  0.0889
 5929TIP3    H139346   2.330   1.339   0.843 -1.7093  0.7589 -0.3842
 5929TIP3    H239347   2.417   1.340   0.719 -1.7807  2.0575 -0.4429
 5930TIP3   OH239348   5.755   4.517   2.559 -0.2607  0.0049 -0.1286
 5930TIP3    H139349   5.823   4.584   2.564  0.1188 -0.2941 -1.0420
 5930TIP3    H239350   5.797   4.443   2.517 -0.5224 -1.0265  1.3360
 5931TIP3   OH239351   0.810   6.175   8.423 -0.5657 -0.3778 -0.3217
 5931TIP3    H139352   0.744   6.186   8.492 -0.2868 -0.6011 -0.0179
 5931TIP3    H239353   0.827   6.081   8.421 -0.3543 -0.3347 -0.4942
 5932TIP3   OH239354   2.545   2.425   7.947 -0.9368  0.3024 -0.2743
 5932TIP3    H139355   2.592   2.400   7.867  0.9998  3.3740 -0.2485
 5932TIP3    H239356   2.514   2.514   7.930 -0.7497  0.9231  2.2383
 5933TIP3   OH239357   3.622   6.303   7.593  0.3888 -0.2565 -0.5704
 5933TIP3    H139358   3.647   6.385   7.637  0.9126 -0.8576  0.2921
 5933TIP3    H239359   3.527   6.300   7.600  0.3526  0.3305 -0.7193
 5934TIP3   OH239360   1.095   5.587   8.189 -0.3377 -0.0081  0.3058
 5934TIP3    H139361   1.061   5.551   8.108 -1.9367 -0.7761  1.2725
 5934TIP3    H239362   1.033   5.655   8.213  0.7053  0.9616  0.3684
 5935TIP3   OH239363   5.563   0.449   2.895 -0.0468  0.4467 -0.1144
 5935TIP3    H139364   5.650   0.487   2.908  1.0793 -2.6145  2.4758
 5935TIP3    H239365   5.580   0.366   2.850 -1.7476  0.1558 -0.2852
 5936TIP3   OH239366   2.279   2.383   2.829 -0.3984  0.5061  0.2060
 5936TIP3    H139367   2.239   2.357   2.912  0.8105 -1.6022  0.2034
 5936TIP3    H239368   2.339   2.312   2.808 -0.5401  1.0625 -2.4158
 5937TIP3   OH239369   6.757   6.790   0.535  0.4644 -0.4948  0.1957
 5937TIP3    H139370   6.765   6.843   0.456  1.6881 -1.5869 -0.4545
 5937TIP3    H239371   6.818   6.718   0.522  0.9838 -0.5204  2.3012
 5938TIP3   OH239372   6.130   0.216   1.948  0.4054 -0.0246 -0.7433
 5938TIP3    H139373   6.206   0.199   1.892 -0.3299 -2.0435 -1.1964
 5938TIP3    H239374   6.156   0.293   1.999  1.9240  0.6184 -2.3451
 5939TIP3   OH239375   4.821   6.719   1.778 -0.3529  0.4753 -0.1193
 5939TIP3    H139376   4.815   6.680   1.691 -1.3788  0.6808 -0.1496
 5939TIP3    H239377   4.745   6.686   1.825  0.6119 -0.2723  0.9870
 5940TIP3   OH239378   6.461   5.178   8.739 -0.1186 -0.3109 -0.7246
 5940TIP3    H139379   6.396   5.165   8.808  0.4186 -1.9831 -0.4889
 5940TIP3    H239380   6.431   5.255   8.691 -2.9508 -1.6844 -1.3570
 5941TIP3   OH239381   4.608   2.233   1.334 -0.2047 -0.0563 -0.1780
 5941TIP3    H139382   4.543   2.233   1.264 -0.3360  0.4879 -0.0572
 5941TIP3    H239383   4.566   2.281   1.406  0.3311  0.2941 -0.0978
 5942TIP3   OH239384   6.773   2.151   3.272  0.6656  0.0641  0.2597
 5942TIP3    H139385   6.854   2.200   3.257  0.1091  0.4955 -1.6948
 5942TIP3    H239386   6.802   2.061   3.288  1.6001  0.5947  1.7272
 5943TIP3   OH239387   0.271   1.247   8.845 -0.0206  0.2873 -0.2255
 5943TIP3    H139388   0.321   1.255   8.926 -2.0542 -1.0232  1.2513
 5943TIP3    H239389   0.226   1.331   8.837  0.1950  0.4283  0.0096
 5944TIP3   OH239390   1.844   5.146   2.182  0.6115 -0.5052 -0.2914
 5944TIP3    H139391   1.799   5.222   2.144 -0.0351 -1.0250 -0.5873
 5944TIP3    H239392   1.936   5.171   2.185  0.5836 -0.1857 -1.5604
 5945TIP3   OH239393   0.851   5.687   0.029 -0.7533  0.1676  0.4670
 5945TIP3    H139394   0.769   5.718  -0.009  0.3384  0.2712 -2.0091
 5945TIP3    H239395   0.889   5.632  -0.040  3.0524  3.1761 -0.1548
 5946TIP3   OH239396   0.815   0.475   0.671 -0.3608 -0.2425  0.0030
 5946TIP3    H139397   0.784   0.563   0.652 -0.6866 -0.5034 -0.7609
 5946TIP3    H239398   0.757   0.444   0.741  0.4131  0.5018  0.9946
 5947TIP3   OH239399   2.030   4.879   1.125  0.1680  0.2612  0.3439
 5947TIP3    H139400   2.032   4.789   1.091  2.6183  0.7066 -0.9444
 5947TIP3    H239401   2.016   4.869   1.219 -0.4248 -1.3959  0.1167
 5948TIP3   OH239402   1.875   2.545   8.043  0.1955  0.7079  0.4933
 5948TIP3    H139403   1.794   2.512   8.082 -0.6327  0.9917 -0.8962
 5948TIP3    H239404   1.881   2.636   8.074  0.9511  0.1577  2.0220
 5949TIP3   OH239405   0.662   0.393   8.339 -0.6841  0.1968 -0.5064
 5949TIP3    H139406   0.697   0.461   8.397 -2.6401  0.6943  0.1838
 5949TIP3    H239407   0.695   0.312   8.376 -0.1491  0.6415  0.0236
 5950TIP3   OH239408   6.731   1.074   8.229  0.3259  0.6173  0.1060
 5950TIP3    H139409   6.770   1.122   8.157  0.0510  3.4472  1.7084
 5950TIP3    H239410   6.805   1.031   8.273  0.4450 -1.5409 -1.9868
 5951TIP3   OH239411   1.053   5.519   1.988 -0.3687 -0.2875  0.5127
 5951TIP3    H139412   1.069   5.471   1.906 -1.3223 -3.1573  1.8696
 5951TIP3    H239413   0.987   5.583   1.964  0.7356  0.2571 -1.3529
 5952TIP3   OH239414   3.386   3.348   0.397 -0.1604 -0.2862  0.2303
 5952TIP3    H139415   3.328   3.294   0.450  3.1844 -3.7967  0.8227
 5952TIP3    H239416   3.337   3.366   0.317 -1.8511 -3.7013  0.3311
 5953TIP3   OH239417   1.592   0.735   2.416  0.3842 -0.3249 -0.0892
 5953TIP3    H139418   1.670   0.779   2.382 -0.6551  2.0734  0.4254
 5953TIP3    H239419   1.601   0.739   2.511 -1.1906  1.7593  0.0449
 5954TIP3   OH239420   2.766   4.415   2.515 -0.1172 -0.2470  0.0424
 5954TIP3    H139421   2.831   4.386   2.451 -0.3496  0.6003 -0.5951
 5954TIP3    H239422   2.684   4.418   2.466 -0.5136 -0.6406  0.6653
 5955TIP3   OH239423   6.663   3.697   1.408  0.2904 -0.0459 -0.1818
 5955TIP3    H139424   6.614   3.644   1.472  1.0067 -0.0686  0.3652
 5955TIP3    H239425   6.691   3.634   1.342 -0.4793 -0.0187 -0.5397
 5956TIP3   OH239426   0.452   1.493   8.708  0.0403 -0.0080 -0.0184
 5956TIP3    H139427   0.440   1.470   8.800  0.0641  0.4068  0.0894
 5956TIP3    H239428   0.421   1.416   8.660 -1.4567  0.3774  0.2944
 5957TIP3   OH239429   6.287   0.023   1.644 -0.1030 -0.0077  0.4002
 5957TIP3    H139430   6.304  -0.071   1.649 -1.2951 -0.2446  0.4656
 5957TIP3    H239431   6.329   0.060   1.722 -0.2077 -0.5893  0.7381
 5958TIP3   OH239432   3.951   4.783   2.175 -0.2256  0.4739  0.1135
 5958TIP3    H139433   3.976   4.868   2.213  0.1553  0.8162 -0.8826
 5958TIP3    H239434   4.024   4.760   2.118  0.2289 -1.1138  1.2591
 5959TIP3   OH239435   1.519   3.065   1.315 -0.6787 -0.8486 -0.7472
 5959TIP3    H139436   1.431   3.055   1.352  0.1726 -0.3120  1.6239
 5959TIP3    H239437   1.511   3.135   1.251 -1.5942  0.8528  1.0946
 5960TIP3   OH239438   5.932   3.507   7.903 -0.4525  0.5711  0.2960
 5960TIP3    H139439   6.025   3.494   7.885 -0.1922  0.4844  1.6176
 5960TIP3    H239440   5.918   3.601   7.890  0.0709  0.7717  1.1111
 5961TIP3   OH239441   4.197   5.035   0.487  0.4040  0.3762  0.2360
 5961TIP3    H139442   4.194   4.988   0.404 -1.1011  1.1416 -0.1869
 5961TIP3    H239443   4.264   5.102   0.475 -0.3912  1.0391 -0.7105
 5962TIP3   OH239444   1.344   5.194   2.265 -0.5052 -0.0815  0.2870
 5962TIP3    H139445   1.288   5.224   2.193 -0.6444 -0.8524  0.0712
 5962TIP3    H239446   1.283   5.151   2.325 -0.3210  0.1676  0.6544
 5963TIP3   OH239447   6.481   2.617   2.132  0.2254  0.1609 -0.3051
 5963TIP3    H139448   6.524   2.568   2.062  0.4541  0.3504 -0.2991
 5963TIP3    H239449   6.408   2.662   2.088  0.1598  0.0043 -0.3556
 5964TIP3   OH239450   1.042   1.252   2.066 -0.3567 -0.4232  0.6294
 5964TIP3    H139451   1.094   1.173   2.081  0.5537  0.0352  0.0218
 5964TIP3    H239452   1.078   1.316   2.126 -0.2128 -0.1053  0.2103
 5965TIP3   OH239453   4.732   1.716   1.260  0.0392 -0.0177  0.1073
 5965TIP3    H139454   4.705   1.758   1.179 -0.4733 -1.5629 -0.5745
 5965TIP3    H239455   4.806   1.660   1.235 -0.6009 -1.0803  0.5082
 5966TIP3   OH239456   4.226   3.243   7.442  0.1354 -0.2056  0.6516
 5966TIP3    H139457   4.274   3.236   7.359  1.2786 -2.6124  1.4303
 5966TIP3    H239458   4.134   3.238   7.416  0.4887 -1.5920 -0.4567
 5967TIP3   OH239459   0.791   5.501   3.366  0.4959  0.1545  0.0393
 5967TIP3    H139460   0.798   5.595   3.383  1.1355  0.2896 -0.8850
 5967TIP3    H239461   0.854   5.461   3.425  2.2097  0.5592 -1.4302
 5968TIP3   OH239462   5.312   4.932   2.305  0.1642 -0.4470 -0.0929
 5968TIP3    H139463   5.389   4.986   2.323  0.1688 -0.6947  0.6562
 5968TIP3    H239464   5.322   4.904   2.214  1.3811 -1.1473  0.2385
 5969TIP3   OH239465   4.206   0.726   2.699  0.1798  0.1019 -0.1742
 5969TIP3    H139466   4.268   0.798   2.698 -0.2351  0.4669 -0.1003
 5969TIP3    H239467   4.123   0.765   2.670 -0.2242 -0.1709  0.5677
 5970TIP3   OH239468   3.709   2.611   1.709  0.2854 -0.1021  0.2682
 5970TIP3    H139469   3.644   2.543   1.726  0.4266 -0.6847 -1.2996
 5970TIP3    H239470   3.757   2.620   1.791  2.8811 -4.7732 -0.3346
 5971TIP3   OH239471   2.893   5.872   0.372  0.1405  0.2697  0.5110
 5971TIP3    H139472   2.896   5.795   0.429 -0.3918  1.9315  2.9290
 5971TIP3    H239473   2.801   5.898   0.373 -0.0847 -0.2306 -2.0264
 5972TIP3   OH239474   0.456   0.879   2.380  0.3950  0.4627  0.3947
 5972TIP3    H139475   0.484   0.909   2.466 -2.0945 -1.0793  1.8843
 5972TIP3    H239476   0.362   0.896   2.378  0.2854 -0.1142 -1.7849
 5973TIP3   OH239477   0.461   6.540   0.386  0.5373  0.0716 -0.1473
 5973TIP3    H139478   0.556   6.541   0.376  0.7120  1.6324  1.3042
 5973TIP3    H239479   0.429   6.594   0.313  0.8345  0.2717 -0.1340
 5974TIP3   OH239480   1.541   1.995   0.089  0.2919  0.3807  0.1914
 5974TIP3    H139481   1.594   2.052   0.034 -0.2647  1.3587  0.6394
 5974TIP3    H239482   1.454   2.036   0.090 -0.1754 -0.5795  0.3744
 5975TIP3   OH239483   0.171   4.726   0.310  0.3117  0.0805 -0.0954
 5975TIP3    H139484   0.256   4.762   0.336  0.1307 -0.2795  1.0564
 5975TIP3    H239485   0.143   4.673   0.385 -0.8829  0.1135 -0.4881
 5976TIP3   OH239486   6.750   0.276   2.325  0.4793 -0.3812 -0.8711
 5976TIP3    H139487   6.743   0.366   2.359  2.6714 -0.4439 -0.0807
 5976TIP3    H239488   6.797   0.286   2.242  1.6115 -0.8364 -0.3131
 5977TIP3   OH239489   0.139   6.118   1.565  0.0991 -0.1226 -0.0653
 5977TIP3    H139490   0.115   6.120   1.658  0.5199  1.3829  0.0366
 5977TIP3    H239491   0.210   6.055   1.560  0.5516  0.3051  0.7716
 5978TIP3   OH239492   0.733   1.862   3.012 -0.4712 -0.0437  0.0965
 5978TIP3    H139493   0.648   1.876   3.054  0.6216 -0.7751  2.7777
 5978TIP3    H239494   0.794   1.912   3.066  0.9330 -0.2547 -1.2459
 5979TIP3   OH239495   2.931   0.858   0.507 -0.8124 -0.5846 -0.5670
 5979TIP3    H139496   2.907   0.807   0.429 -0.7685  0.3276 -1.1967
 5979TIP3    H239497   2.953   0.945   0.472  0.2313 -0.4667  0.3499
 5980TIP3   OH239498   6.722   2.316   0.732  0.3274 -0.1597  0.2034
 5980TIP3    H139499   6.653   2.303   0.797 -0.6187 -0.1884 -0.7758
 5980TIP3    H239500   6.740   2.228   0.698 -1.6262  0.1687 -1.9586
 5981TIP3   OH239501   6.289   0.512   2.632  0.5054 -0.0946 -0.5207
 5981TIP3    H139502   6.247   0.496   2.716 -1.1266 -1.0452 -1.4650
 5981TIP3    H239503   6.359   0.447   2.627  0.3786 -0.2666 -0.0522
 5982TIP3   OH239504   4.871   6.366   2.234  0.2639 -0.7428  0.0527
 5982TIP3    H139505   4.847   6.335   2.321 -1.0796 -0.6361 -0.2437
 5982TIP3    H239506   4.851   6.460   2.237 -1.5281 -1.0419 -0.8753
 5983TIP3   OH239507   6.256   2.752   0.261  0.2736  0.1376 -0.5041
 5983TIP3    H139508   6.257   2.708   0.176 -0.7540  2.9475 -2.1123
 5983TIP3    H239509   6.339   2.798   0.265  0.3683 -0.0772  0.0945
 5984TIP3   OH239510   4.663   1.955   3.076  0.7035 -0.1156 -0.1596
 5984TIP3    H139511   4.676   1.913   3.161  2.1209  1.3390  0.4024
 5984TIP3    H239512   4.568   1.959   3.066  0.5182 -1.4820  0.7363
 5985TIP3   OH239513   6.009   5.601   1.837 -0.1607 -0.4950 -0.2769
 5985TIP3    H139514   5.923   5.599   1.879  0.3829 -1.0032  0.8451
 5985TIP3    H239515   6.045   5.514   1.850  0.7758 -0.1143 -0.1965
 5986TIP3   OH239516   3.461   5.462   0.365 -0.0305 -0.0640 -0.7470
 5986TIP3    H139517   3.440   5.372   0.390  0.3026 -0.2513 -1.1329
 5986TIP3    H239518   3.387   5.514   0.398  0.3694 -0.3039  0.5828
 5987TIP3   OH239519   6.288   5.558   8.084  0.1336 -0.9040  0.0117
 5987TIP3    H139520   6.261   5.629   8.027  2.2451  0.1589  0.2300
 5987TIP3    H239521   6.279   5.479   8.030 -4.2156 -0.8999  0.4061
 5988TIP3   OH239522   4.825   6.110   0.914  0.6725 -0.2574  0.5280
 5988TIP3    H139523   4.851   6.152   0.996  1.9217 -0.4627  0.2621
 5988TIP3    H239524   4.762   6.043   0.940 -1.9650  2.1403  0.9118
 5989TIP3   OH239525   2.886   6.729   2.860  0.1701  0.2967 -0.0822
 5989TIP3    H139526   2.967   6.771   2.830 -1.0564  3.2491  0.3643
 5989TIP3    H239527   2.855   6.680   2.783  2.7181 -1.6406  0.0015
 5990TIP3   OH239528   0.263   2.535   2.014 -0.2617  0.2382  0.2747
 5990TIP3    H139529   0.168   2.545   2.018 -0.2921  1.1274 -1.5272
 5990TIP3    H239530   0.278   2.442   2.028 -1.5141 -0.1609 -0.8394
 5991TIP3   OH239531   6.565   1.580   8.689 -0.0564  0.3709  0.1674
 5991TIP3    H139532   6.555   1.558   8.597 -0.8117 -1.5548  0.6588
 5991TIP3    H239533   6.490   1.637   8.709 -0.2967  0.2002 -0.2462
 5992TIP3   OH239534   0.277   3.248   1.456  0.2564  0.5207  0.0688
 5992TIP3    H139535   0.236   3.171   1.496 -1.2455  0.5232 -1.3374
 5992TIP3    H239536   0.332   3.213   1.387 -0.5678  0.6734 -0.6914
 5993TIP3   OH239537   1.465   5.462   1.109  0.0779 -0.1725  0.2561
 5993TIP3    H139538   1.387   5.424   1.070  0.2064  0.6165 -0.8148
 5993TIP3    H239539   1.446   5.466   1.203 -2.2449  2.3716 -0.2091
 5994TIP3   OH239540   2.164   0.762   0.778  0.0401  0.3695 -0.0324
 5994TIP3    H139541   2.161   0.763   0.873  2.1351 -2.1837  0.1900
 5994TIP3    H239542   2.075   0.737   0.751 -0.3345  0.2111  1.2886
 5995TIP3   OH239543   5.975   1.337   8.324  0.4816  0.5511 -0.0669
 5995TIP3    H139544   5.920   1.329   8.246  0.8598  0.9523 -0.3822
 5995TIP3    H239545   5.950   1.421   8.363  0.1350  0.2487  0.3721
 5996TIP3   OH239546   3.533   1.158   8.351 -0.1312  0.4464 -0.1587
 5996TIP3    H139547   3.493   1.245   8.353  0.5040  0.8143 -1.7818
 5996TIP3    H239548   3.616   1.169   8.399 -1.1468  0.0886  1.7715
 5997TIP3   OH239549   3.012   3.130   0.931 -0.1265 -0.3332  0.1211
 5997TIP3    H139550   2.998   3.148   0.838  1.3214  0.8540  0.0950
 5997TIP3    H239551   3.055   3.208   0.965 -0.6342 -0.7398  1.8052
 5998TIP3   OH239552   5.083   2.141   0.380 -0.5654 -0.4121 -0.2334
 5998TIP3    H139553   5.087   2.054   0.340  1.1259 -0.3236 -0.3295
 5998TIP3    H239554   5.029   2.192   0.320 -0.9928 -1.2072 -0.5430
 5999TIP3   OH239555   1.508   3.332   7.936  0.4966 -0.3198 -0.3582
 5999TIP3    H139556   1.470   3.307   8.020  1.9108  1.2181  0.8098
 5999TIP3    H239557   1.463   3.413   7.912  0.2091 -0.6669 -1.0517
 6000TIP3   OH239558   4.054   2.447   0.605  0.1272 -0.4571 -0.2517
 6000TIP3    H139559   4.119   2.515   0.589  0.0912 -0.0273  1.2800
 6000TIP3    H239560   4.105   2.368   0.623  0.2051 -0.3874 -0.1673
 6001TIP3   OH239561   5.061   3.885   0.260  0.2741 -0.5666 -0.3269
 6001TIP3    H139562   5.091   3.812   0.207  2.4906 -1.4668  1.9939
 6001TIP3    H239563   5.141   3.923   0.296 -1.0940 -0.0404  2.3687
 6002TIP3   OH239564   3.134   3.169   1.317  0.4345 -0.1982 -0.3622
 6002TIP3    H139565   3.147   3.204   1.229  1.0832 -2.0193 -1.0311
 6002TIP3    H239566   3.219   3.180   1.360  0.6056 -0.8369 -0.5352
 6003TIP3   OH239567   3.139   0.823   0.931  0.2467 -0.1497 -0.2771
 6003TIP3    H139568   3.184   0.742   0.957  2.8056  1.3217  0.1959
 6003TIP3    H239569   3.160   0.834   0.839 -0.9627 -0.4862 -0.6221
 6004TIP3   OH239570   1.498   0.504   2.266 -0.0157 -0.3723  0.1227
 6004TIP3    H139571   1.438   0.458   2.324 -1.3477  0.4608 -0.5536
 6004TIP3    H239572   1.520   0.584   2.312  1.0225 -0.8987  0.5897
 6005TIP3   OH239573   0.661   0.051   0.750 -0.0957  0.4625  0.2415
 6005TIP3    H139574   0.586  -0.006   0.732 -0.0225  0.5986 -0.5232
 6005TIP3    H239575   0.726   0.027   0.684  0.5891  0.2635  0.9709
 6006TIP3   OH239576   5.910   3.921   1.857 -0.7322  0.4888  0.4219
 6006TIP3    H139577   6.003   3.902   1.870 -0.9658 -1.1304 -0.0444
 6006TIP3    H239578   5.889   3.986   1.924  0.6872  0.7557  0.6363
 6007TIP3   OH239579   1.385   6.651   7.922  0.3669  0.5824 -0.2912
 6007TIP3    H139580   1.366   6.581   7.859 -1.0197  1.7088 -1.1807
 6007TIP3    H239581   1.376   6.732   7.871  1.1497  1.4490  0.9100
 6008TIP3   OH239582   4.718   3.719   1.657 -0.0505  0.2056  0.2391
 6008TIP3    H139583   4.744   3.782   1.590 -2.3705  1.6864  0.6224
 6008TIP3    H239584   4.787   3.725   1.723 -0.0449  2.2084  0.1285
 6009TIP3   OH239585   0.751   6.064   2.663  0.4250  0.3631  0.8506
 6009TIP3    H139586   0.787   6.014   2.735  0.1530 -0.7180  0.2508
 6009TIP3    H239587   0.827   6.093   2.612  0.5374 -0.3887  0.5841
 6010TIP3   OH239588   0.457   0.441   0.641 -0.5047  0.1843 -0.6277
 6010TIP3    H139589   0.452   0.534   0.661  0.9864  0.4458 -1.3078
 6010TIP3    H239590   0.545   0.415   0.670 -1.2384 -1.2597  0.4599
 6011TIP3   OH239591   5.642   2.416   8.178 -0.3188  0.3515 -0.1357
 6011TIP3    H139592   5.671   2.337   8.223  1.5139  1.1170  0.1133
 6011TIP3    H239593   5.618   2.477   8.248 -0.0724  0.6008 -0.2627
 6012TIP3   OH239594   3.404   2.656   7.141 -0.1697 -0.1072  0.1471
 6012TIP3    H139595   3.386   2.712   7.065  1.0476 -0.6297 -0.5586
 6012TIP3    H239596   3.318   2.621   7.165 -1.3665  3.4096  1.7950
 6013TIP3   OH239597   3.619   0.793   7.751  0.4997 -0.0526  0.5267
 6013TIP3    H139598   3.661   0.814   7.667 -0.1521 -0.8654 -0.0227
 6013TIP3    H239599   3.566   0.716   7.732  0.2475 -0.1738  1.6709
 6014TIP3   OH239600   0.983   2.570   2.490  0.0749  0.1298 -0.2233
 6014TIP3    H139601   1.018   2.481   2.493  1.3125  0.5637 -1.0821
 6014TIP3    H239602   1.008   2.607   2.575  1.2523  0.2374 -0.5870
 6015TIP3   OH239603   1.209   3.745   2.608  0.6790 -0.3239  0.3190
 6015TIP3    H139604   1.224   3.661   2.652  0.3685 -0.3360  0.4030
 6015TIP3    H239605   1.127   3.778   2.646  1.7401  0.9142  1.6968
 6016TIP3   OH239606   0.451   2.063   1.308 -0.2439 -0.7356  0.0089
 6016TIP3    H139607   0.529   2.079   1.254 -0.8786  0.7365 -0.5172
 6016TIP3    H239608   0.378   2.069   1.246 -0.8603 -0.8406  0.7185
 6017TIP3   OH239609   0.660   6.379   7.742 -0.0306  0.6855  0.0744
 6017TIP3    H139610   0.588   6.329   7.704  0.5367  1.3414 -2.0137
 6017TIP3    H239611   0.727   6.378   7.674  0.6243  2.9003  0.6339
 6018TIP3   OH239612   2.488   3.977   1.047  0.0030 -0.5071 -0.2177
 6018TIP3    H139613   2.424   4.020   0.990 -0.1172 -1.5910 -0.9273
 6018TIP3    H239614   2.446   3.975   1.133  0.0324  0.8206 -0.1546
 6019TIP3   OH239615   4.368   4.877   2.239  0.3406  0.1129  0.3017
 6019TIP3    H139616   4.366   4.882   2.334  0.2669  0.0330  0.3038
 6019TIP3    H239617   4.458   4.852   2.218  0.3410  0.0712  0.3528
 6020TIP3   OH239618   4.682   6.697   2.467  0.1993 -0.3057  0.1566
 6020TIP3    H139619   4.612   6.716   2.529  0.6966  0.0540  0.6129
 6020TIP3    H239620   4.697   6.780   2.422  0.1445 -0.4540 -0.1412
 6021TIP3   OH239621   5.301   4.296   1.784  0.2234 -0.1228  0.6307
 6021TIP3    H139622   5.223   4.288   1.839 -1.1497  0.0842 -1.1951
 6021TIP3    H239623   5.300   4.216   1.731  0.8231  0.2347  0.0697
 6022TIP3   OH239624   2.932   4.264   1.040 -0.0919 -0.2978  0.3501
 6022TIP3    H139625   2.873   4.193   1.063  0.0179 -1.1582 -1.7900
 6022TIP3    H239626   2.939   4.259   0.945  1.1274  1.6329  0.2925
 6023TIP3   OH239627   3.830   2.102   2.602 -0.2191  0.2954  0.3403
 6023TIP3    H139628   3.902   2.040   2.593 -0.2464  0.1546  0.9997
 6023TIP3    H239629   3.753   2.047   2.619 -1.0684  0.2295 -3.0204
 6024TIP3   OH239630   5.507   1.905   3.185 -0.2902  0.5131  0.2400
 6024TIP3    H139631   5.542   1.880   3.270 -0.9913 -0.1928  0.3270
 6024TIP3    H239632   5.456   1.829   3.156  0.7569  0.3255 -1.2605
 6025TIP3   OH239633   0.396   1.022   3.318 -0.0652  0.1444 -0.8252
 6025TIP3    H139634   0.377   1.006   3.410  0.6654  1.0916 -0.4951
 6025TIP3    H239635   0.319   0.991   3.271 -1.1487  1.1657  0.2239
 6026TIP3   OH239636   3.758   2.185   0.161  0.3653  0.1752 -0.0136
 6026TIP3    H139637   3.783   2.149   0.246 -2.0381 -1.7312 -0.0153
 6026TIP3    H239638   3.672   2.224   0.176  0.6528  1.3564 -1.2311
 6027TIP3   OH239639   5.441   5.745   8.237  0.4510 -0.0711  0.1041
 6027TIP3    H139640   5.434   5.836   8.266  0.5261  0.2929 -0.9741
 6027TIP3    H239641   5.398   5.744   8.152 -0.3518 -1.2549  0.5098
 6028TIP3   OH239642   5.474   1.398   8.851  0.1350 -0.3371  0.5811
 6028TIP3    H139643   5.416   1.324   8.869  0.7919 -1.0326 -0.0769
 6028TIP3    H239644   5.552   1.381   8.903  0.4967 -0.3867  0.0318
 6029TIP3   OH239645   0.885   2.074   0.914  0.6503  0.0992  0.4318
 6029TIP3    H139646   0.834   1.994   0.906  0.8413 -0.0652  0.8317
 6029TIP3    H239647   0.967   2.055   0.868  0.9628 -0.1711  1.0812
 6030TIP3   OH239648   1.119   1.355   0.657 -0.6252  0.0353 -0.5445
 6030TIP3    H139649   1.190   1.360   0.721  0.5494 -0.4005 -1.7680
 6030TIP3    H239650   1.064   1.282   0.687 -0.2610  0.0191  0.1068
 6031TIP3   OH239651   1.915   1.138   2.389 -0.0894  0.2541 -0.4195
 6031TIP3    H139652   1.994   1.133   2.443 -0.5535 -0.4222  0.2201
 6031TIP3    H239653   1.927   1.216   2.336  0.4710  0.8261  0.5250
 6032TIP3   OH239654   0.030   6.160   1.270  0.0592 -0.3174  0.3950
 6032TIP3    H139655   0.112   6.142   1.316  0.6974  0.5036 -0.3969
 6032TIP3    H239656   0.025   6.092   1.203  0.7801  0.4294 -0.4275
 6033TIP3   OH239657   2.444   3.365   2.164  0.2358 -0.2157  0.1258
 6033TIP3    H139658   2.460   3.380   2.257  0.0817 -0.9410  0.2807
 6033TIP3    H239659   2.348   3.365   2.156  0.2486  0.7445 -0.2004
 6034TIP3   OH239660   0.517   5.612   1.166 -0.4138 -0.1428 -0.3587
 6034TIP3    H139661   0.536   5.546   1.100 -1.1413  1.0966 -1.8730
 6034TIP3    H239662   0.536   5.569   1.250  0.3355 -1.8206 -1.3494
 6035TIP3   OH239663   4.617   1.007   7.785  0.4511 -0.0122 -0.3453
 6035TIP3    H139664   4.649   1.023   7.874 -3.2520  2.2416  0.8286
 6035TIP3    H239665   4.579   0.919   7.789 -1.7343  0.9074  1.1518
 6036TIP3   OH239666   0.197   6.121   3.161  0.5934  0.2185  0.4265
 6036TIP3    H139667   0.192   6.028   3.139 -2.1498  0.1148  1.0769
 6036TIP3    H239668   0.158   6.165   3.086 -0.5501  0.5919  1.2142
 6037TIP3   OH239669   0.025   5.446   7.575 -0.1379 -0.6327  0.5849
 6037TIP3    H139670   0.016   5.533   7.537  0.4747 -1.3198 -1.1993
 6037TIP3    H239671   0.115   5.419   7.555  0.1866 -1.0948  2.4327
 6038TIP3   OH239672   1.361   3.155   1.107 -0.0536  0.1075 -0.0891
 6038TIP3    H139673   1.270   3.137   1.128 -0.4666  2.1104  0.0114
 6038TIP3    H239674   1.360   3.241   1.064  1.9410  1.0681  1.5738
 6039TIP3   OH239675   4.476   3.339   2.285 -0.0021 -0.2233 -0.7785
 6039TIP3    H139676   4.472   3.321   2.191  0.3269 -0.4001 -0.7610
 6039TIP3    H239677   4.419   3.274   2.325  1.2382 -1.3092 -0.7093
 6040TIP3   OH239678   3.150   0.495   7.468 -0.4939 -0.0974 -0.6566
 6040TIP3    H139679   3.114   0.461   7.386 -1.7507  0.3848 -0.3323
 6040TIP3    H239680   3.080   0.550   7.504 -0.0338 -0.4335  0.8263
 6041TIP3   OH239681   4.037   4.303   0.313  0.5182  0.2346  0.2178
 6041TIP3    H139682   4.028   4.376   0.374  2.2968 -0.5554  1.5321
 6041TIP3    H239683   3.966   4.314   0.250 -1.1075  1.3563  2.1553
 6042TIP3   OH239684   0.623   6.566   2.092  0.5003 -0.3453  0.1583
 6042TIP3    H139685   0.587   6.603   2.012 -0.7887 -2.1351 -0.1660
 6042TIP3    H239686   0.561   6.497   2.116  1.4171 -0.5582  2.1128
 6043TIP3   OH239687   2.825   3.161   1.671  0.4021  0.5340 -0.2573
 6043TIP3    H139688   2.877   3.165   1.751  0.6193 -2.1325 -0.1823
 6043TIP3    H239689   2.740   3.198   1.695  1.2062  1.9576  0.5036
 6044TIP3   OH239690   2.960   3.575   2.272  0.0881  0.1364  0.2043
 6044TIP3    H139691   3.007   3.499   2.237 -1.0152 -0.2078 -0.5987
 6044TIP3    H239692   2.982   3.646   2.211  1.4202  0.5778  1.1684
 6045TIP3   OH239693   4.383   5.963   1.806 -0.3053 -0.9328  0.4817
 6045TIP3    H139694   4.287   5.965   1.798 -0.4594  1.1872  2.0372
 6045TIP3    H239695   4.414   5.957   1.715 -1.8845 -1.7593 -0.0456
 6046TIP3   OH239696   3.970   5.989   3.396 -0.0953 -0.2700 -0.3040
 6046TIP3    H139697   3.967   5.912   3.339 -2.8514 -0.3988 -0.1221
 6046TIP3    H239698   3.911   5.968   3.468  1.8734  0.6428  1.7158
 6047TIP3   OH239699   0.727   5.101   8.517  0.3028 -0.0101 -0.7607
 6047TIP3    H139700   0.816   5.070   8.530  0.0911 -0.8210 -1.2047
 6047TIP3    H239701   0.724   5.185   8.563  1.3967  0.2081 -1.0745
 6048TIP3   OH239702   2.436   2.340   3.102 -0.5853 -0.1156 -0.1469
 6048TIP3    H139703   2.439   2.283   3.025 -0.5087 -0.0370 -0.2033
 6048TIP3    H239704   2.524   2.334   3.139 -0.3455  0.5437 -0.5798
 6049TIP3   OH239705   2.815   3.186   2.004 -0.0365 -0.1114 -0.2898
 6049TIP3    H139706   2.790   3.169   2.094  1.8216  2.3638  0.7975
 6049TIP3    H239707   2.752   3.251   1.973 -2.5893 -3.1048 -1.9639
 6050TIP3   OH239708   0.207   4.397   0.956  0.2236  0.1079  0.3565
 6050TIP3    H139709   0.173   4.353   1.034  0.4563  0.1555  0.4851
 6050TIP3    H239710   0.237   4.326   0.899 -2.5824 -0.1534 -0.9820
 6051TIP3   OH239711   0.766   5.214   7.781 -0.0965  0.0758  0.0074
 6051TIP3    H139712   0.794   5.293   7.734 -1.8276  1.6715  1.5482
 6051TIP3    H239713   0.814   5.217   7.863 -0.2797 -0.4074  0.1327
 6052TIP3   OH239714   3.054   5.381   8.691 -0.0453 -0.2108 -0.0765
 6052TIP3    H139715   3.025   5.425   8.771 -0.7219  0.2587 -0.5631
 6052TIP3    H239716   3.072   5.291   8.718 -0.0545 -0.0011  0.6468
 6053TIP3   OH239717   3.169   6.615   7.846 -0.6490 -0.1748  0.2711
 6053TIP3    H139718   3.096   6.597   7.906 -0.5995 -1.6919 -0.0745
 6053TIP3    H239719   3.237   6.553   7.874  0.5547  1.2755  0.6485
 6054TIP3   OH239720   0.681   3.502   2.828 -0.3326 -0.9114  0.2460
 6054TIP3    H139721   0.678   3.563   2.754  0.7233 -2.7014 -1.3648
 6054TIP3    H239722   0.590   3.496   2.858 -0.2934  2.6285  1.5765
 6055TIP3   OH239723   1.378   3.014   2.064 -0.2692 -0.4607  0.8556
 6055TIP3    H139724   1.295   2.982   2.100  0.8261 -3.1993  1.1422
 6055TIP3    H239725   1.442   3.000   2.133  0.6979  0.3321  0.1470
 6056TIP3   OH239726   4.581   5.483   8.311  0.0907  0.4058 -0.3316
 6056TIP3    H139727   4.498   5.447   8.342 -0.3182  0.0968 -1.7207
 6056TIP3    H239728   4.568   5.497   8.217  1.7542 -0.0929 -0.6756
 6057TIP3   OH239729   5.025   2.317   1.298  0.5329 -0.6002 -0.7863
 6057TIP3    H139730   5.086   2.287   1.366  0.7686  0.1927 -0.6421
 6057TIP3    H239731   5.032   2.251   1.229 -0.8264 -2.2769  0.5490
 6058TIP3   OH239732   2.802   2.347   8.192  0.3219  0.8511  0.1397
 6058TIP3    H139733   2.710   2.351   8.216  0.5310  1.1387  0.9069
 6058TIP3    H239734   2.828   2.256   8.211  0.2655  0.8397  0.1609
 6059TIP3   OH239735   5.665   2.344   3.449  0.4011  0.3074 -0.3014
 6059TIP3    H139736   5.728   2.406   3.413 -0.8598  1.1036 -1.2420
 6059TIP3    H239737   5.698   2.325   3.537  0.6141  2.6711  0.2027
 6060TIP3   OH239738   5.636   5.813   2.153 -0.4339  0.0854  0.1192
 6060TIP3    H139739   5.603   5.894   2.193 -2.4092  0.7207 -2.4833
 6060TIP3    H239740   5.570   5.747   2.176  0.2123 -0.3674  0.7036
 6061TIP3   OH239741   5.533   5.974   7.991 -0.4215 -0.1903  0.4854
 6061TIP3    H139742   5.497   5.909   7.930 -1.7656  0.0404  1.0001
 6061TIP3    H239743   5.627   5.955   7.994 -0.0632  0.5514 -2.5876
 6062TIP3   OH239744   1.312   0.664   8.705 -0.2822  0.1034  0.9526
 6062TIP3    H139745   1.405   0.659   8.730 -0.0538  3.0826  0.9525
 6062TIP3    H239746   1.307   0.609   8.626  1.3524 -0.4947  1.2066
 6063TIP3   OH239747   2.236   3.680   8.386 -0.6496  0.0799 -0.0248
 6063TIP3    H139748   2.249   3.762   8.339 -0.5820 -1.0464 -2.1363
 6063TIP3    H239749   2.165   3.637   8.338 -0.8527 -0.9847  1.1803
 6064TIP3   OH239750   2.493   0.284   2.104  0.5245 -0.1876 -0.4059
 6064TIP3    H139751   2.491   0.275   2.199  0.2479 -0.3804 -0.4329
 6064TIP3    H239752   2.438   0.214   2.071  0.3115  0.1139 -0.6949
 6065TIP3   OH239753   6.440   4.138   0.813  0.4401  0.1330 -1.3036
 6065TIP3    H139754   6.411   4.215   0.764 -0.3554  0.9728  0.4173
 6065TIP3    H239755   6.407   4.064   0.763  0.6474  0.9066 -2.6424
 6066TIP3   OH239756   0.571   3.849   1.174  0.0984 -0.5545  0.0890
 6066TIP3    H139757   0.568   3.930   1.224  0.4603 -0.2074 -0.4546
 6066TIP3    H239758   0.479   3.825   1.162 -0.1452  1.1684 -1.9865
 6067TIP3   OH239759   6.144   5.097   0.882 -0.1124  0.0045 -0.2663
 6067TIP3    H139760   6.159   5.152   0.959 -2.9152  0.0421  0.3682
 6067TIP3    H239761   6.107   5.016   0.918  0.4543 -0.7991 -1.4537
 6068TIP3   OH239762   5.953   3.946   3.101 -0.4250 -0.2250 -0.0183
 6068TIP3    H139763   6.033   3.899   3.125 -0.4082 -0.6395 -0.8620
 6068TIP3    H239764   5.919   3.978   3.184  1.2130  0.9187  0.2728
 6069TIP3   OH239765   3.688   5.838   3.159  0.0522 -0.0451  0.7975
 6069TIP3    H139766   3.670   5.880   3.243  0.2412 -1.9944  1.8746
 6069TIP3    H239767   3.779   5.810   3.164 -0.2060 -1.0211  0.3386
 6070TIP3   OH239768   2.884   5.830   8.494  0.1140  0.2074  0.3932
 6070TIP3    H139769   2.880   5.850   8.401 -1.9211 -3.0004 -0.3789
 6070TIP3    H239770   2.810   5.876   8.533 -0.5607 -0.4609 -0.0838
 6071TIP3   OH239771   3.770   4.120   2.264 -0.0857 -0.1088 -0.1206
 6071TIP3    H139772   3.697   4.104   2.204  0.2183  1.8124 -1.0863
 6071TIP3    H239773   3.744   4.077   2.345 -2.1936  0.3100 -0.5157
 6072TIP3   OH239774   5.691   2.940   8.331 -0.1098 -0.0125  0.3701
 6072TIP3    H139775   5.759   2.877   8.309 -1.3411 -1.1899 -0.2516
 6072TIP3    H239776   5.620   2.921   8.269 -1.2934  0.6529  1.4695
 6073TIP3   OH239777   4.238   6.155   7.325  0.5974  0.5947 -0.0529
 6073TIP3    H139778   4.295   6.229   7.302  2.2987 -0.3314  0.9896
 6073TIP3    H239779   4.169   6.195   7.378  1.5763  1.4515  0.6421
 6074TIP3   OH239780   1.619   3.393   1.914 -0.2510  0.2457  0.1263
 6074TIP3    H139781   1.601   3.479   1.877  0.1536  1.1233  1.8854
 6074TIP3    H239782   1.533   3.358   1.937 -0.3522  0.6740  0.4231
 6075TIP3   OH239783   0.035   1.763   0.026 -0.0999  0.2866 -0.1774
 6075TIP3    H139784   0.113   1.818   0.018 -1.3398  2.3944  1.1693
 6075TIP3    H239785  -0.003   1.762  -0.062  1.0397 -0.1521 -0.6756
 6076TIP3   OH239786   5.338   5.441   2.719  1.0399  0.8223  0.4601
 6076TIP3    H139787   5.428   5.421   2.694  0.3932 -1.9096  0.0460
 6076TIP3    H239788   5.305   5.494   2.646  1.6838  0.0492 -0.4090
 6077TIP3   OH239789   2.231   2.908   7.106 -0.0651 -0.3154  0.6560
 6077TIP3    H139790   2.262   2.905   7.015 -1.6000 -0.2164  0.1007
 6077TIP3    H239791   2.284   2.843   7.151  1.9148  0.8104  0.1027
 6078TIP3   OH239792   4.388   0.866   0.778 -0.5725  0.0886 -0.4619
 6078TIP3    H139793   4.465   0.812   0.759 -1.6974 -1.4439 -0.8491
 6078TIP3    H239794   4.415   0.955   0.755  1.6041 -0.1357  0.9267
 6079TIP3   OH239795   5.679   3.139   2.036  0.2499 -0.0777  0.2679
 6079TIP3    H139796   5.624   3.155   2.113 -0.5534  0.0411 -0.3184
 6079TIP3    H239797   5.712   3.050   2.048 -1.5851 -0.8725 -0.2641
 6080TIP3   OH239798   6.014   6.646   3.426 -0.1204  0.3209 -0.2464
 6080TIP3    H139799   6.062   6.594   3.362  0.7376 -0.5995  1.0731
 6080TIP3    H239800   6.079   6.705   3.463  0.2399 -1.2997  1.9356
 6081TIP3   OH239801   5.105   4.680   0.210 -0.1572 -0.2476 -0.3255
 6081TIP3    H139802   5.030   4.706   0.264 -1.1146 -1.0674 -1.2252
 6081TIP3    H239803   5.066   4.652   0.128  1.1000 -1.3070 -0.5766
 6082TIP3   OH239804   1.700   0.797   8.394  0.1436 -0.1689  0.0026
 6082TIP3    H139805   1.711   0.702   8.398 -0.1453 -0.2237 -0.4267
 6082TIP3    H239806   1.736   0.829   8.477  0.6406 -0.6143 -0.0337
 6083TIP3   OH239807   0.056   4.267   2.903 -0.6106  0.2513 -0.7144
 6083TIP3    H139808   0.052   4.213   2.982 -1.3700  1.1346 -0.1286
 6083TIP3    H239809   0.148   4.265   2.877 -0.6085 -1.2181 -0.6405
 6084TIP3   OH239810   0.381   1.331   0.664 -0.0356 -0.0215 -0.3616
 6084TIP3    H139811   0.311   1.350   0.602 -0.6370  0.6015  0.4879
 6084TIP3    H239812   0.415   1.246   0.636 -3.1021 -1.8367  0.9391
 6085TIP3   OH239813   6.035   2.604   8.644 -0.0632  0.3004 -0.5389
 6085TIP3    H139814   6.114   2.554   8.625 -1.2348 -0.9402 -2.4931
 6085TIP3    H239815   5.973   2.540   8.677 -0.0510  1.4171  1.9022
 6086TIP3   OH239816   5.733   4.607   2.014  0.5577 -0.4440  1.1219
 6086TIP3    H139817   5.780   4.560   2.083  0.0406 -1.8915  0.5123
 6086TIP3    H239818   5.665   4.547   1.985  0.6786  0.1722 -0.5630
 6087TIP3   OH239819   4.857   3.387   0.020 -0.0165 -0.0380  0.2331
 6087TIP3    H139820   4.786   3.326   0.037 -0.1878  0.0629 -0.1158
 6087TIP3    H239821   4.881   3.421   0.106  0.5719 -1.1390  0.5210
 6088TIP3   OH239822   4.021   6.408   8.867 -0.0325  0.6384  0.4771
 6088TIP3    H139823   3.951   6.439   8.925 -1.5755 -1.3648 -0.1944
 6088TIP3    H239824   4.095   6.391   8.925 -1.0581  0.0929  1.6736
 6089TIP3   OH239825   2.143   1.108   2.563  0.1653 -0.0010  0.2449
 6089TIP3    H139826   2.165   1.155   2.643 -0.6767  0.0111  0.4803
 6089TIP3    H239827   2.126   1.018   2.593  1.6431 -0.4537 -0.1804
 6090TIP3   OH239828   3.858   0.284   7.313 -0.1655 -0.2238  0.2394
 6090TIP3    H139829   3.770   0.308   7.284 -0.7089 -0.0785  1.9034
 6090TIP3    H239830   3.846   0.249   7.401  1.4937  0.2317  0.6882
 6091TIP3   OH239831   1.525   1.951   1.873 -0.7200 -0.5607 -0.3851
 6091TIP3    H139832   1.459   1.883   1.859 -1.3380 -0.1276  0.3484
 6091TIP3    H239833   1.606   1.912   1.842 -1.1585 -1.4434 -0.4613
 6092TIP3   OH239834   1.374   0.365   2.508  0.1460 -0.9058  0.0758
 6092TIP3    H139835   1.456   0.394   2.548  0.1857 -1.1007  0.1340
 6092TIP3    H239836   1.309   0.429   2.538  0.0678 -1.3576  0.9029
 6093TIP3   OH239837   1.630   6.338   8.719  0.2342  0.4470 -0.0302
 6093TIP3    H139838   1.630   6.256   8.767  1.6590 -0.2856 -1.1955
 6093TIP3    H239839   1.572   6.322   8.644 -0.9789  1.1582  0.7277
 6094TIP3   OH239840   6.216   5.274   0.258  0.2038  0.0887 -0.5857
 6094TIP3    H139841   6.189   5.312   0.174  0.1801 -0.2055 -0.7107
 6094TIP3    H239842   6.136   5.236   0.295  0.2040  0.2625 -0.4059
 6095TIP3   OH239843   4.627   1.501   1.789 -0.4964  0.0798 -0.4242
 6095TIP3    H139844   4.595   1.591   1.785 -0.0749  0.3288  1.2327
 6095TIP3    H239845   4.548   1.448   1.803 -0.4908  0.4900  1.4550
 6096TIP3   OH239846   6.519   1.811   1.598  0.6239 -0.4115 -0.0105
 6096TIP3    H139847   6.461   1.735   1.591 -1.9330  1.4231 -0.1345
 6096TIP3    H239848   6.500   1.847   1.684  1.9064  0.0407  0.1001
 6097TIP3   OH239849   4.505   4.038   2.329 -0.2243 -0.1860 -0.1388
 6097TIP3    H139850   4.428   3.981   2.331  0.4874 -1.3502 -2.2361
 6097TIP3    H239851   4.520   4.053   2.236  1.0264  1.5231  0.3052
 6098TIP3   OH239852   0.464   1.969   0.628 -0.4297  0.1479 -0.7568
 6098TIP3    H139853   0.405   2.014   0.567 -1.7813 -0.4286  0.0661
 6098TIP3    H239854   0.423   1.981   0.714  0.4525 -0.6109 -0.2056
 6099TIP3   OH239855   0.784   0.966   2.342  0.1527 -0.0753 -0.3545
 6099TIP3    H139856   0.695   0.945   2.369 -0.6764  1.7543 -1.4695
 6099TIP3    H239857   0.792   0.930   2.254  0.8497 -1.0416  0.0961
 6100TIP3   OH239858   2.267   2.779   8.276 -0.0622 -0.1254 -0.3149
 6100TIP3    H139859   2.193   2.840   8.282  0.8173  0.8041  2.2501
 6100TIP3    H239860   2.340   2.833   8.247  0.6317  0.0084  1.5903
 6101TIP3   OH239861   5.243   3.692   8.215  0.5809  0.7256 -0.8218
 6101TIP3    H139862   5.307   3.690   8.144  0.9694 -0.4343 -0.4519
 6101TIP3    H239863   5.197   3.609   8.208  0.3956  0.7509  0.0866
 6102TIP3   OH239864   2.852   4.414   2.868 -0.0144 -0.0956  0.2473
 6102TIP3    H139865   2.807   4.401   2.952 -2.6643  0.9541 -0.9111
 6102TIP3    H239866   2.918   4.481   2.886 -1.2919  0.9374  1.3046
 6103TIP3   OH239867   0.474   3.406   1.225  0.5791  0.7016 -0.0310
 6103TIP3    H139868   0.389   3.446   1.239  0.3688  0.4004 -0.4468
 6103TIP3    H239869   0.517   3.410   1.311 -0.2128  0.0035  0.4035
 6104TIP3   OH239870   5.417   0.434   3.219  0.2299 -0.7465 -0.5374
 6104TIP3    H139871   5.369   0.483   3.152  1.0433  0.7968 -0.0358
 6104TIP3    H239872   5.377   0.347   3.218 -1.9829  0.2017 -0.7604
 6105TIP3   OH239873   5.168   4.152   8.127  0.4989  0.2090 -0.0579
 6105TIP3    H139874   5.240   4.208   8.098  0.0063  1.3727  0.8444
 6105TIP3    H239875   5.107   4.213   8.169 -0.9922 -0.7457 -0.7560
 6106TIP3   OH239876   5.432   4.631   2.908  0.1403 -0.1257 -0.4230
 6106TIP3    H139877   5.355   4.676   2.874 -0.3921 -1.1508 -0.6208
 6106TIP3    H239878   5.426   4.543   2.872  0.7166 -0.6076  0.6076
 6107TIP3   OH239879   0.046   4.324   0.312  0.2786 -0.0642 -0.0259
 6107TIP3    H139880   0.048   4.399   0.373  0.7373  1.1225 -1.4396
 6107TIP3    H239881   0.017   4.361   0.229 -1.8436 -1.9479 -0.2154
 6108TIP3   OH239882   2.359   2.340   8.466 -0.4282  0.3665  0.5381
 6108TIP3    H139883   2.401   2.315   8.548 -0.1287 -0.3205  0.1850
 6108TIP3    H239884   2.366   2.435   8.464  0.9332  0.2867  0.5921
 6109TIP3   OH239885   6.501   0.797   8.105 -0.4575  0.4158 -0.3649
 6109TIP3    H139886   6.532   0.866   8.046 -0.0947  0.2080 -0.4218
 6109TIP3    H239887   6.469   0.729   8.046  0.5523 -0.0901 -0.3426
 6110TIP3   OH239888   5.029   4.025   1.598 -0.1764 -0.4702 -0.4529
 6110TIP3    H139889   4.940   3.998   1.578  0.6134 -2.5169 -1.5197
 6110TIP3    H239890   5.029   4.041   1.692 -1.4753 -1.2164 -0.3038
 6111TIP3   OH239891   4.630   0.808   2.304  0.4122 -0.2774 -0.4420
 6111TIP3    H139892   4.596   0.839   2.220 -0.8625 -0.6663 -0.0842
 6111TIP3    H239893   4.685   0.733   2.280 -2.2416 -2.2806 -0.7945
 6112TIP3   OH239894   2.838   5.398   7.333  0.0118 -0.0592 -0.0737
 6112TIP3    H139895   2.763   5.386   7.273 -0.5332  1.9933  0.1273
 6112TIP3    H239896   2.905   5.440   7.279  1.3125 -2.3776 -0.4016
 6113TIP3   OH239897   1.203   4.170   2.799  0.6094 -0.0501 -0.5707
 6113TIP3    H139898   1.170   4.210   2.719  3.4388 -0.5851 -2.1300
 6113TIP3    H239899   1.173   4.228   2.869  0.0900  1.7817 -2.2233
 6114TIP3   OH239900   0.499   4.891   8.603 -0.1987  0.1439 -0.0326
 6114TIP3    H139901   0.505   4.987   8.596  0.2437  0.0516 -1.0639
 6114TIP3    H239902   0.412   4.871   8.569 -0.0702  0.1345 -0.3590
 6115TIP3   OH239903   5.261   0.408   8.775  0.4595  0.3999 -0.3136
 6115TIP3    H139904   5.225   0.495   8.758 -0.2309 -0.0111 -1.0843
 6115TIP3    H239905   5.352   0.413   8.746  0.4173  0.8543 -0.3734
 6116TIP3   OH239906   4.169   5.248   1.564  0.4740  0.1097 -0.1912
 6116TIP3    H139907   4.207   5.309   1.627  1.9884 -0.4659 -0.4843
 6116TIP3    H239908   4.215   5.266   1.482 -2.2392  1.5989 -1.4903
 6117TIP3   OH239909   0.851   6.258   0.744  0.1161 -0.5279  0.4103
 6117TIP3    H139910   0.793   6.328   0.773 -1.3900 -1.7157  0.3715
 6117TIP3    H239911   0.794   6.182   0.734  0.6442 -0.5936 -4.3604
 6118TIP3   OH239912   2.598   1.007   1.097  0.1131 -0.2238  0.2284
 6118TIP3    H139913   2.633   1.095   1.103 -1.4957  0.3781  2.1570
 6118TIP3    H239914   2.668   0.950   1.129  0.4629  0.5821  0.9119
 6119TIP3   OH239915   3.187   1.694   0.395 -0.2156 -0.3852  0.2230
 6119TIP3    H139916   3.240   1.771   0.415  0.6291 -0.5199 -1.3516
 6119TIP3    H239917   3.251   1.622   0.388 -0.9605 -1.1991  1.3948
 6120TIP3   OH239918   0.661   5.078   1.302 -0.3797  0.2978  0.8270
 6120TIP3    H139919   0.641   4.986   1.289  2.7290 -0.4136  0.2312
 6120TIP3    H239920   0.650   5.092   1.396 -0.7982 -0.6887  0.9334
 6121TIP3   OH239921   5.166   0.912   1.531  0.1958 -0.4782 -0.4939
 6121TIP3    H139922   5.114   0.855   1.588 -1.6676  1.2443 -0.3549
 6121TIP3    H239923   5.235   0.945   1.589 -1.9584  1.6421  1.0754
 6122TIP3   OH239924   2.950   6.452   1.079 -0.1116  0.1744 -0.7707
 6122TIP3    H139925   2.973   6.539   1.047  0.1954  0.8385  1.1698
 6122TIP3    H239926   3.008   6.393   1.031  1.0583  1.2258 -0.6967
 6123TIP3   OH239927   0.107   1.570   3.302 -0.1306 -0.1566 -0.2797
 6123TIP3    H139928   0.150   1.488   3.326  0.2422 -0.3430 -1.4918
 6123TIP3    H239929   0.178   1.634   3.297 -0.2693 -0.0072 -0.3578
 6124TIP3   OH239930   3.812   0.152   2.550  0.3743  0.3285 -0.0444
 6124TIP3    H139931   3.773   0.219   2.494  1.1250  1.7097  1.0378
 6124TIP3    H239932   3.746   0.083   2.554 -1.1560  1.7497  0.1948
 6125TIP3   OH239933   2.056   4.787   1.389  0.0479  0.0967 -0.2343
 6125TIP3    H139934   2.122   4.841   1.433 -0.0500 -0.1844  0.2583
 6125TIP3    H239935   2.101   4.705   1.371 -0.1832 -0.1216  0.1655
 6126TIP3   OH239936   1.214   4.982   8.404  0.1986 -0.0442  0.0158
 6126TIP3    H139937   1.205   4.975   8.309  0.3859  0.2981 -0.0289
 6126TIP3    H239938   1.209   5.076   8.422  1.3973 -0.0053  0.2119
 6127TIP3   OH239939   6.652   5.579   8.859 -0.0316  0.1310 -0.1007
 6127TIP3    H139940   6.729   5.624   8.893  0.5985 -0.4661 -0.6917
 6127TIP3    H239941   6.650   5.495   8.906  0.0468 -0.1144 -0.5245
 6128TIP3   OH239942   0.097   0.286   0.034  0.5912 -0.6763 -0.0882
 6128TIP3    H139943   0.104   0.295   0.130 -1.8024 -3.1890  0.4512
 6128TIP3    H239944   0.184   0.257   0.007  1.4399  0.4793  1.2467
 6129TIP3   OH239945   1.726   3.918   0.711  0.2557 -0.0095 -0.0754
 6129TIP3    H139946   1.770   3.833   0.714  1.5353  0.6662  1.0642
 6129TIP3    H239947   1.673   3.921   0.791 -1.4110 -0.5360 -1.1059
 6130TIP3   OH239948   5.329   6.145   8.597 -0.1298  0.7282  0.3229
 6130TIP3    H139949   5.352   6.186   8.680 -0.9816 -0.8306  1.3680
 6130TIP3    H239950   5.413   6.118   8.559  0.1439 -0.3354  1.6395
 6131TIP3   OH239951   6.417   6.104   0.083  0.5601 -0.8627  0.4804
 6131TIP3    H139952   6.433   6.133   0.173  1.4803  1.2098 -0.2940
 6131TIP3    H239953   6.361   6.173   0.046  0.8868 -1.2555 -0.7782
 6132TIP3   OH239954   0.087   5.514   0.843  0.2855  0.2812  0.6027
 6132TIP3    H139955   0.127   5.599   0.828 -0.1275  0.3992  0.1142
 6132TIP3    H239956   0.150   5.466   0.896  1.4228  0.2031 -0.7543
 6133TIP3   OH239957   4.706   0.059   0.546  0.3332 -0.2694  0.0446
 6133TIP3    H139958   4.775   0.041   0.609  0.6916 -0.7696 -0.4743
 6133TIP3    H239959   4.741   0.027   0.462  0.7907  2.4004 -0.8671
 6134TIP3   OH239960   1.801   3.545   0.324 -0.3877  0.3064  0.3767
 6134TIP3    H139961   1.765   3.484   0.388 -1.4336 -0.1039 -0.5644
 6134TIP3    H239962   1.854   3.490   0.266 -2.2178  0.0178 -1.1399
 6135TIP3   OH239963   1.469   0.971   1.234 -0.0869 -0.0367 -0.0189
 6135TIP3    H139964   1.563   0.983   1.249 -0.3555  0.1969  1.6815
 6135TIP3    H239965   1.461   0.881   1.202  0.3986 -1.6096  3.8149
 6136TIP3   OH239966   5.928   3.814   7.884 -0.1114 -0.0413 -0.1272
 6136TIP3    H139967   5.847   3.823   7.833  0.4223 -0.6446 -1.1240
 6136TIP3    H239968   5.901   3.775   7.967 -0.7816 -0.8327 -0.6972
 6137TIP3   OH239969   0.727   6.701   8.543  0.0526 -0.0736 -0.0212
 6137TIP3    H139970   0.643   6.709   8.588  1.2642 -0.2087  2.4334
 6137TIP3    H239971   0.759   6.614   8.567  0.2630 -0.6674 -2.2058
 6138TIP3   OH239972   2.988   0.705   2.516 -0.1333 -0.1556  0.4216
 6138TIP3    H139973   3.041   0.627   2.530  0.1108  0.0535  0.6509
 6138TIP3    H239974   2.907   0.671   2.477  0.3567 -0.4247 -0.4028
 6139TIP3   OH239975   2.849   5.003   8.596 -0.3693  0.0808 -0.7199
 6139TIP3    H139976   2.834   5.098   8.602 -0.3864  0.0796 -0.7416
 6139TIP3    H239977   2.803   4.977   8.516 -3.7758 -0.6214  1.2752
 6140TIP3   OH239978   1.743   0.087   1.818  0.4224 -0.6105 -0.1789
 6140TIP3    H139979   1.800   0.024   1.772  0.1727 -0.2292 -1.0283
 6140TIP3    H239980   1.804   0.144   1.865  0.7372 -0.4410 -0.7775
 6141TIP3   OH239981   6.723   4.926   7.965 -0.1506  0.2400  0.3576
 6141TIP3    H139982   6.701   4.913   7.873 -0.2853 -1.1522  0.5617
 6141TIP3    H239983   6.755   4.840   7.994  0.5511  0.8405  1.4278
 6142TIP3   OH239984   3.832   4.004   1.093 -0.2706  0.1740  0.4309
 6142TIP3    H139985   3.830   3.908   1.092  1.1737  0.1072  1.4887
 6142TIP3    H239986   3.922   4.026   1.115 -0.6994  1.7797  0.6903
 6143TIP3   OH239987   3.379   4.208   1.708  0.1885  0.0530 -0.0703
 6143TIP3    H139988   3.427   4.215   1.626 -1.5650  0.4740 -1.1137
 6143TIP3    H239989   3.406   4.123   1.745 -0.0246 -0.7961 -1.7832
 6144TIP3   OH239990   0.047   0.394   0.284 -0.1096  0.9540 -0.5118
 6144TIP3    H139991   0.023   0.472   0.234 -0.2166  1.4458  0.2929
 6144TIP3    H239992   0.094   0.427   0.360 -1.9056  0.4103  0.9187
 6145TIP3   OH239993   2.200   2.330   1.468  0.3721 -0.2093 -0.2126
 6145TIP3    H139994   2.190   2.393   1.397 -1.3671 -0.2584 -0.0508
 6145TIP3    H239995   2.113   2.291   1.479  1.1189 -1.8050  0.4752
 6146TIP3   OH239996   5.949   0.320   8.652 -0.3307  0.0149  0.4150
 6146TIP3    H139997   6.037   0.356   8.648  0.0464 -1.0200 -2.1237
 6146TIP3    H239998   5.892   0.394   8.630  0.1235  0.0520 -0.6606
 6147TIP3   OH239999   5.624   3.518   3.069 -0.0098 -0.2778 -0.3968
 6147TIP3    H140000   5.668   3.441   3.035  1.1007 -0.4748  1.3436
 6147TIP3    H240001   5.686   3.555   3.133 -1.4727  0.6984  0.5333
 6148TIP3   OH240002   1.883   1.822   2.619  0.5270 -0.0386 -0.1047
 6148TIP3    H140003   1.851   1.745   2.667 -0.6433  0.8988  0.6899
 6148TIP3    H240004   1.970   1.838   2.654  0.8602 -1.1042 -0.4144
 6149TIP3   OH240005   2.291   1.156   2.162 -0.6774 -0.0918 -0.1550
 6149TIP3    H140006   2.293   1.082   2.102  2.3243 -0.3356  0.0916
 6149TIP3    H240007   2.323   1.121   2.245 -2.5039  0.7713  0.9963
 6150TIP3   OH240008   6.490   2.921   2.788 -0.0491  0.8765 -1.0100
 6150TIP3    H140009   6.542   2.842   2.800 -0.4009  0.7788 -0.0510
 6150TIP3    H240010   6.402   2.897   2.815 -0.1028  1.6634 -0.4232
 6151TIP3   OH240011   4.325   3.202   8.564 -0.0058  0.4001  0.4466
 6151TIP3    H140012   4.257   3.262   8.534 -0.2422  0.6171  1.3867
 6151TIP3    H240013   4.362   3.166   8.483 -1.0608  0.4637 -0.0878
 6152TIP3   OH240014   2.693   1.469   3.033 -0.0161 -0.0182 -0.4224
 6152TIP3    H140015   2.649   1.455   3.117 -0.3566  0.3243 -0.5435
 6152TIP3    H240016   2.685   1.563   3.017  0.0118 -0.0923 -0.8620
 6153TIP3   OH240017   2.693   0.960   2.085 -0.2686 -0.0186 -0.2413
 6153TIP3    H140018   2.745   0.917   2.154  1.3599 -0.2959 -1.5805
 6153TIP3    H240019   2.602   0.938   2.107  0.2003 -0.1935  1.7410
 6154TIP3   OH240020   4.714   2.761   8.702  0.2686  0.4401  0.5705
 6154TIP3    H140021   4.668   2.835   8.662 -0.3051 -0.8127 -1.2196
 6154TIP3    H240022   4.673   2.751   8.788 -1.7794  0.3721 -0.3451
 6155TIP3   OH240023   3.506   0.903   8.239 -0.6889 -0.2579  0.2473
 6155TIP3    H140024   3.524   0.902   8.145 -2.2008  1.9606 -0.1530
 6155TIP3    H240025   3.539   0.987   8.269 -1.0653 -0.5369  1.5098
 6156TIP3   OH240026   1.903   5.725   2.087  0.3102  0.0536  0.0328
 6156TIP3    H140027   1.917   5.688   2.174 -1.7792 -2.8692 -0.7510
 6156TIP3    H240028   1.991   5.744   2.055  1.2938 -1.3408  1.7221
 6157TIP3   OH240029   2.982   1.614   1.041 -0.0805 -0.1625  0.5567
 6157TIP3    H140030   3.011   1.593   0.952  0.8226 -1.0839  1.0471
 6157TIP3    H240031   2.960   1.707   1.038 -1.0199 -0.3997 -0.8770
 6158TIP3   OH240032   1.960   5.833   8.444 -0.1589 -0.1084  0.4256
 6158TIP3    H140033   1.913   5.799   8.368  1.8223  0.6143 -1.2014
 6158TIP3    H240034   2.006   5.757   8.480 -1.4044 -0.5323  1.2030
 6159TIP3   OH240035   2.980   3.851   1.747 -0.8138  0.8534 -0.4694
 6159TIP3    H140036   2.954   3.768   1.708  0.7336 -0.2831  0.7947
 6159TIP3    H240037   3.042   3.889   1.685  0.8151 -0.4295  0.3136
 6160TIP3   OH240038   5.042   3.114   8.282  0.0309 -0.1629  0.2222
 6160TIP3    H140039   5.077   3.026   8.270 -2.4053 -1.1566 -0.0936
 6160TIP3    H240040   5.074   3.163   8.206  1.5219 -0.6878  0.4675
 6161TIP3   OH240041   1.428   1.828   1.525  0.1549  0.9426  0.3222
 6161TIP3    H140042   1.394   1.812   1.613 -0.2364 -1.3869 -0.2014
 6161TIP3    H240043   1.471   1.914   1.532 -1.4772  1.7019  2.2814
 6162TIP3   OH240044   0.463   1.091   1.801 -0.6886  0.3856 -0.2399
 6162TIP3    H140045   0.465   1.008   1.849  0.3542  0.2961 -0.4246
 6162TIP3    H240046   0.478   1.158   1.867 -0.6556  0.3637 -0.2252
 6163TIP3   OH240047   5.112   3.637   1.843 -0.2137 -0.3437 -0.2189
 6163TIP3    H140048   5.041   3.590   1.887 -2.0309  0.3375 -2.2806
 6163TIP3    H240049   5.185   3.575   1.843 -2.2085 -2.9198 -2.0265
 6164TIP3   OH240050   6.287   5.746   0.576  0.3077  0.1015  0.1370
 6164TIP3    H140051   6.248   5.751   0.664 -0.4944 -0.1330 -0.1990
 6164TIP3    H240052   6.268   5.832   0.537 -0.8843 -0.4001 -0.4330
 6165TIP3   OH240053   0.183   4.143   0.831 -0.1526 -0.0786  0.7168
 6165TIP3    H140054   0.211   4.054   0.854  0.5884 -0.7073 -2.2139
 6165TIP3    H240055   0.090   4.135   0.812  0.1409 -0.5072 -0.6159
 6166TIP3   OH240056   3.779   2.447   0.559 -0.0989  0.2776  0.5342
 6166TIP3    H140057   3.869   2.415   0.561 -0.2974 -0.4352 -0.7559
 6166TIP3    H240058   3.787   2.542   0.569  0.8299  0.2671 -0.0250
 6167TIP3   OH240059   1.643   4.443   8.540 -0.2949 -0.1766 -0.4101
 6167TIP3    H140060   1.682   4.396   8.613  2.1380  1.4763 -0.5279
 6167TIP3    H240061   1.589   4.511   8.581  2.1905  1.6694  0.0041
 6168TIP3   OH240062   4.446   2.008   3.311 -0.2324  0.3328 -0.1241
 6168TIP3    H140063   4.457   1.952   3.388 -1.0435  1.3902  0.7870
 6168TIP3    H240064   4.371   1.970   3.264 -1.6267  1.3658  1.1834
 6169TIP3   OH240065   5.574   1.247   2.949 -0.6039 -0.5253 -0.4400
 6169TIP3    H140066   5.510   1.242   3.019  1.4335  0.2652  1.5899
 6169TIP3    H240067   5.591   1.341   2.938 -1.7300 -0.5082 -2.9159
 6170TIP3   OH240068   1.759   1.836   8.612 -0.0410  0.0998 -0.1332
 6170TIP3    H140069   1.797   1.789   8.538  2.3056  0.8790  0.5017
 6170TIP3    H240070   1.812   1.809   8.687 -0.0455  2.0432  0.6268
 6171TIP3   OH240071   1.070   5.604   0.983 -0.4164 -0.0934  0.1847
 6171TIP3    H140072   1.018   5.526   0.965 -0.0356 -0.2855 -0.1068
 6171TIP3    H240073   1.131   5.610   0.909 -0.4954  0.5274  0.1585
 6172TIP3   OH240074   1.272   0.873   7.713  0.1327 -0.2865 -0.2074
 6172TIP3    H140075   1.279   0.849   7.621 -2.2800  0.4304 -0.6437
 6172TIP3    H240076   1.248   0.791   7.757 -0.2482 -0.3115 -0.4575
 6173TIP3   OH240077   4.000   4.920   3.091 -0.7898 -0.1218  0.4974
 6173TIP3    H140078   3.909   4.948   3.097 -0.8132 -0.3689  1.3969
 6173TIP3    H240079   4.048   5.000   3.068 -1.3151 -0.1500 -0.7776
 6174TIP3   OH240080   3.851   5.340   1.768 -0.3749  0.6178  0.4680
 6174TIP3    H140081   3.880   5.419   1.722 -0.5617 -0.2238 -1.1413
 6174TIP3    H240082   3.755   5.348   1.770 -0.4405  0.1073 -0.3260
 6175TIP3   OH240083   1.024   6.176   2.629  0.0182  0.5551 -0.0750
 6175TIP3    H140084   1.119   6.182   2.643 -0.2961 -0.3146  3.1850
 6175TIP3    H240085   0.986   6.206   2.711 -2.6490  2.1542 -1.7365
 6176TIP3   OH240086   4.084   1.177   8.462  0.2454  0.3984 -0.3574
 6176TIP3    H140087   4.142   1.106   8.488  0.6237  1.4333  1.8955
 6176TIP3    H240088   4.111   1.199   8.373  0.7842 -1.5575 -0.7278
 6177TIP3   OH240089   3.023   1.775   2.297  0.0037  0.1117  0.1228
 6177TIP3    H140090   3.030   1.703   2.359 -1.5973  0.2382  0.4748
 6177TIP3    H240091   3.048   1.853   2.347  2.6130 -0.2449 -0.4899
 6178TIP3   OH240092   5.073   5.586   8.090 -0.2655 -0.3420 -0.4065
 6178TIP3    H140093   5.056   5.628   8.174 -1.1254  1.5371 -1.4530
 6178TIP3    H240094   5.169   5.582   8.084 -0.0843 -3.1378  1.8095
 6179TIP3   OH240095   1.641   2.924   2.608  0.1494 -0.8026  0.0793
 6179TIP3    H140096   1.619   3.012   2.636  2.4265  0.3993 -1.6054
 6179TIP3    H240097   1.663   2.877   2.688 -3.0464 -0.5690  1.2447
 6180TIP3   OH240098   5.936   5.493   0.753 -0.0525  0.5139 -0.1272
 6180TIP3    H140099   5.898   5.571   0.710  0.7271  0.5239 -0.8313
 6180TIP3    H240100   5.972   5.442   0.680  1.0488  0.3838  0.4896
 6181TIP3   OH240101   3.923   4.603   0.968 -0.8281 -0.1720  0.1283
 6181TIP3    H140102   3.830   4.582   0.969 -0.5030 -1.8394 -0.8053
 6181TIP3    H240103   3.934   4.661   0.893 -0.8485 -1.5750 -1.0112
 6182TIP3   OH240104   1.427   3.569   3.028 -0.1786 -0.2373  0.6009
 6182TIP3    H140105   1.406   3.477   3.011  1.1111 -0.1310 -2.2525
 6182TIP3    H240106   1.453   3.572   3.120 -1.9231 -2.3460  1.2420
 6183TIP3   OH240107   4.152   5.173   3.035 -0.0435 -0.1208 -0.3166
 6183TIP3    H140108   4.108   5.186   2.952 -1.1498  0.8955  0.4030
 6183TIP3    H240109   4.154   5.259   3.076  2.9983 -0.0109 -0.4527
 6184TIP3   OH240110   1.307   2.701   1.135  0.3780  0.1224  0.1415
 6184TIP3    H140111   1.254   2.780   1.130  0.5385  0.2426  0.3544
 6184TIP3    H240112   1.395   2.732   1.152  0.6169 -0.0480 -0.7562
 6185TIP3   OH240113   2.758   1.709   1.310 -0.4123 -0.5376  0.2448
 6185TIP3    H140114   2.774   1.749   1.396 -0.6639 -0.0431  0.0705
 6185TIP3    H240115   2.720   1.780   1.258  0.7464 -0.5207 -0.6187
 6186TIP3   OH240116   1.548   3.381   7.394  0.0752 -0.2208 -0.1582
 6186TIP3    H140117   1.637   3.406   7.417 -0.4432 -0.0168  1.7635
 6186TIP3    H240118   1.530   3.427   7.312  0.1342  3.5975  1.7894
 6187TIP3   OH240119   4.143   1.123   0.157  0.2586 -0.0535  0.2287
 6187TIP3    H140120   4.127   1.180   0.081 -0.0063 -1.5569 -0.8800
 6187TIP3    H240121   4.057   1.107   0.194  0.2588 -0.2726  0.1348
 6188TIP3   OH240122   4.736   5.246   8.348  0.1427  0.0347 -0.2570
 6188TIP3    H140123   4.687   5.321   8.317  1.1646  0.0570 -1.9361
 6188TIP3    H240124   4.678   5.171   8.333 -0.9254  0.4539  1.5352
 6189TIP3   OH240125   1.090   6.577   8.707 -0.3983  0.0586  0.2637
 6189TIP3    H140126   1.175   6.619   8.717 -1.1372  1.8606 -0.6154
 6189TIP3    H240127   1.077   6.529   8.789  0.8672  0.8532  0.9593
 6190TIP3   OH240128   0.287   1.819   1.361 -0.0257  0.1419 -0.1195
 6190TIP3    H140129   0.201   1.812   1.320 -0.0399  0.0011 -0.0662
 6190TIP3    H240130   0.341   1.865   1.297 -0.8924  2.8880  0.9648
 6191TIP3   OH240131   0.829   6.688   0.607 -0.4949  0.3982 -0.8760
 6191TIP3    H140132   0.803   6.616   0.665  2.8612  0.0195  0.3667
 6191TIP3    H240133   0.851   6.644   0.524  0.3317  0.1195 -0.5214
 6192TIP3   OH240134   5.991   0.924   3.592 -0.3562  0.1482 -0.2633
 6192TIP3    H140135   5.905   0.886   3.607 -0.0227 -0.2580  0.6611
 6192TIP3    H240136   5.976   0.992   3.526 -1.4300  0.2767  0.1012
 6193TIP3   OH240137   4.296   4.162   1.461 -0.1204  0.7066 -0.2332
 6193TIP3    H140138   4.219   4.213   1.436  0.5668  0.6140 -2.9206
 6193TIP3    H240139   4.283   4.077   1.418  1.0781  0.4081 -0.0482
 6194TIP3   OH240140   3.347   4.628   1.047  0.0736 -0.2712  0.3450
 6194TIP3    H140141   3.325   4.717   1.018 -1.9744 -1.0298 -0.6068
 6194TIP3    H240142   3.309   4.622   1.135  0.1060 -0.2291  0.3617
 6195TIP3   OH240143   0.464   6.161   0.782  0.5558 -0.8671  0.3053
 6195TIP3    H140144   0.478   6.156   0.876 -0.6677 -0.8175  0.4993
 6195TIP3    H240145   0.372   6.137   0.769 -0.3378  2.4184 -0.5121
 6196TIP3   OH240146   3.740   5.241   0.524 -0.0974 -0.4635 -0.2707
 6196TIP3    H140147   3.697   5.313   0.571 -0.7508 -1.3400  0.5182
 6196TIP3    H240148   3.831   5.243   0.555 -0.1505 -0.0766 -0.1342
 6197TIP3   OH240149   2.440   0.177   1.678  0.6610  0.3276 -0.6802
 6197TIP3    H140150   2.395   0.191   1.761 -0.7397  2.3408 -1.7041
 6197TIP3    H240151   2.533   0.173   1.701  0.2445 -0.1407  1.0670
 6198TIP3   OH240152   3.341   0.291   1.716  0.7207  0.6426  0.1218
 6198TIP3    H140153   3.364   0.218   1.773  0.2442 -0.1334 -0.6439
 6198TIP3    H240154   3.292   0.250   1.644  1.4789  1.5565 -0.9448
 6199TIP3   OH240155   5.633   4.190   0.092 -0.4124 -0.0521 -0.5182
 6199TIP3    H140156   5.541   4.163   0.099 -0.6027  0.7649  0.3392
 6199TIP3    H240157   5.631   4.263   0.030 -0.7219  1.5467  1.3073
 6200TIP3   OH240158   6.588   0.013   2.093 -0.0751 -0.8491 -0.1712
 6200TIP3    H140159   6.666   0.068   2.096 -0.9164  0.4572 -1.1734
 6200TIP3    H240160   6.577  -0.018   2.183  1.5048 -0.9596  0.0141
 6201TIP3   OH240161   4.733   4.873   1.085  0.3604 -0.1865 -0.0369
 6201TIP3    H140162   4.701   4.835   1.167  2.1769 -1.3504  0.1847
 6201TIP3    H240163   4.712   4.808   1.019  4.7784 -2.6182  0.5432
 6202TIP3   OH240164   6.365   2.484   0.341  0.6339 -0.0800  0.7445
 6202TIP3    H140165   6.400   2.437   0.265  0.6449 -0.2861  0.8791
 6202TIP3    H240166   6.338   2.569   0.305  3.9497  1.2751  1.1293
 6203TIP3   OH240167   0.987   2.883   0.605 -0.7169  0.8731  0.2756
 6203TIP3    H140168   1.016   2.951   0.544  1.7404  0.4266  0.8547
 6203TIP3    H240169   1.009   2.801   0.561 -0.7841  0.5058  0.9147
 6204TIP3   OH240170   0.042   1.147   2.161  0.1367 -0.0183 -0.5804
 6204TIP3    H140171   0.108   1.125   2.227 -0.6846  0.3833  0.3968
 6204TIP3    H240172   0.005   1.063   2.135 -0.6127 -0.0948  0.6348
 6205TIP3   OH240173   3.827   0.261   3.045 -0.3995 -0.3557 -0.1070
 6205TIP3    H140174   3.866   0.246   2.959 -1.3251 -0.7751 -0.4652
 6205TIP3    H240175   3.806   0.354   3.047 -0.8689 -0.4489 -0.5496
 6206TIP3   OH240176   5.051   4.165   0.014 -0.8342  0.7501 -0.7877
 6206TIP3    H140177   5.030   4.087  -0.036  2.5029 -1.8745  1.4859
 6206TIP3    H240178   5.117   4.210  -0.038  0.0264 -0.0629 -0.4285
 6207TIP3   OH240179   5.237   4.315   8.765  0.2310  0.3090 -0.4593
 6207TIP3    H140180   5.282   4.374   8.705 -0.4323  2.9994  1.5002
 6207TIP3    H240181   5.306   4.285   8.824  0.2273  0.8557 -0.1711
 6208TIP3   OH240182   0.246   3.865   0.938  0.2434 -0.0783  0.0247
 6208TIP3    H140183   0.164   3.900   0.972  0.2133 -0.1481  0.0236
 6208TIP3    H240184   0.272   3.799   1.002 -0.2718 -0.8447 -0.5417
 6209TIP3   OH240185   3.718   0.703   8.138 -0.4732  0.2322  0.0413
 6209TIP3    H140186   3.722   0.740   8.050 -0.0868  1.0522  0.3963
 6209TIP3    H240187   3.711   0.609   8.124 -2.7514  0.4816 -0.9090
 6210TIP3   OH240188   4.042   6.499   2.936  0.2701  0.0903  0.4264
 6210TIP3    H140189   3.993   6.445   2.875  0.7990 -0.3649  0.4012
 6210TIP3    H240190   4.116   6.445   2.963 -0.0016  0.2347  1.5484
 6211TIP3   OH240191   1.063   5.035   7.050  0.0749  0.0484 -0.0021
 6211TIP3    H140192   1.146   4.996   7.021  0.2493  2.1012 -2.5904
 6211TIP3    H240193   1.010   4.959   7.076  2.5179 -1.3624  1.3393
 6212TIP3   OH240194   6.471   0.759   2.511 -0.2731  0.1370  1.0340
 6212TIP3    H140195   6.552   0.746   2.560 -0.0918 -0.5572  0.5653
 6212TIP3    H240196   6.415   0.687   2.540 -0.2710 -0.1048  0.4416
 6213TIP3   OH240197   3.707   0.202   8.327 -0.3098 -0.4251  0.1228
 6213TIP3    H140198   3.683   0.277   8.274 -0.7192 -0.9189 -0.4009
 6213TIP3    H240199   3.799   0.185   8.306 -0.7238 -1.1935 -1.1562
 6214TIP3   OH240200   0.965   1.667   2.226 -0.1881 -0.7186  1.1133
 6214TIP3    H140201   0.988   1.586   2.270  1.4355 -0.0912  1.4679
 6214TIP3    H240202   0.987   1.736   2.289  0.9771  0.1308 -0.1835
 6215TIP3   OH240203   5.777   4.752   1.225 -0.0002 -0.3191  0.3277
 6215TIP3    H140204   5.748   4.662   1.237 -0.7182  0.0028  1.1308
 6215TIP3    H240205   5.716   4.804   1.278 -0.9814  0.8477 -1.8395
 6216TIP3   OH240206   5.566   0.980   1.846  0.4381 -0.4244  0.1676
 6216TIP3    H140207   5.595   0.898   1.808 -1.9210 -1.2605  0.0407
 6216TIP3    H240208   5.560   0.963   1.940 -1.8019 -1.0330 -0.0396
 6217TIP3   OH240209   1.158   5.523   1.281  0.2661 -0.2500 -0.9213
 6217TIP3    H140210   1.156   5.428   1.266  0.4167 -0.3069 -0.5992
 6217TIP3    H240211   1.066   5.550   1.278  0.2277 -0.3990 -1.0717
 6218TIP3   OH240212   6.488   6.587   8.861  0.2320 -0.2881  0.2827
 6218TIP3    H140213   6.540   6.563   8.784 -1.0897 -0.0461 -0.7193
 6218TIP3    H240214   6.502   6.681   8.872  1.5089 -0.5517  1.2176
 6219TIP3   OH240215   4.976   2.166   2.719  0.3318 -0.5522 -0.0901
 6219TIP3    H140216   5.018   2.151   2.803  2.5898 -2.1503 -1.3724
 6219TIP3    H240217   5.007   2.252   2.691  0.8771 -0.7049  0.0315
 6220TIP3   OH240218   0.474   2.777   7.987  0.2288  0.1194  0.3517
 6220TIP3    H140219   0.468   2.690   8.026 -0.1835  1.0685  2.5418
 6220TIP3    H240220   0.451   2.837   8.058  1.2199  2.0647 -0.8860
 6221TIP3   OH240221   6.369   6.398   3.240  0.5183 -0.8119  0.1518
 6221TIP3    H140222   6.300   6.452   3.202  1.6530 -1.1989 -2.7215
 6221TIP3    H240223   6.448   6.452   3.233  0.8365 -0.9964  1.8799
 6222TIP3   OH240224   0.432   5.422   3.142  0.0081  0.1202  0.3033
 6222TIP3    H140225   0.439   5.517   3.151 -1.4458  0.3078 -0.2212
 6222TIP3    H240226   0.432   5.390   3.232  2.6113  0.3866  0.4688
 6223TIP3   OH240227   5.150   2.918   1.398 -0.3795 -0.3791  0.2421
 6223TIP3    H140228   5.156   2.887   1.488 -0.4005  0.6966  0.6229
 6223TIP3    H240229   5.125   2.840   1.348 -0.1673 -1.0358  1.1226
 6224TIP3   OH240230   3.085   4.457   2.358  0.2499  0.2099  1.0683
 6224TIP3    H140231   3.062   4.366   2.373  0.1813  0.1142  0.3897
 6224TIP3    H240232   3.133   4.483   2.437  0.0442 -0.3327  1.3760
 6225TIP3   OH240233   2.470   1.520   0.717 -0.1866  0.3888  0.1942
 6225TIP3    H140234   2.562   1.542   0.730 -0.0435  1.1857 -1.8574
 6225TIP3    H240235   2.422   1.590   0.760  0.1780  0.4820  0.4547
 6226TIP3   OH240236   2.511   6.334   8.530  0.2371  0.1012 -0.2002
 6226TIP3    H140237   2.454   6.304   8.600  0.2531  0.2538 -0.1218
 6226TIP3    H240238   2.547   6.417   8.562  0.4370  0.0480 -0.2840
 6227TIP3   OH240239   1.475   2.944   3.303  0.0140 -0.9643  0.3092
 6227TIP3    H140240   1.521   2.940   3.387  1.0440  2.0248  0.0025
 6227TIP3    H240241   1.391   2.984   3.324  1.5912  3.1652 -0.3551
 6228TIP3   OH240242   2.293   4.398   2.769 -0.7440  0.6397  0.4655
 6228TIP3    H140243   2.260   4.326   2.823  0.2323 -0.2434 -0.0919
 6228TIP3    H240244   2.228   4.407   2.699 -0.3382 -0.4284 -0.0682
 6229TIP3   OH240245   4.777   2.264   1.067 -0.0826  0.5986  0.2158
 6229TIP3    H140246   4.709   2.316   1.023 -0.3909  1.3514  1.5458
 6229TIP3    H240247   4.748   2.256   1.157 -0.3262 -2.4021 -0.0135
 6230TIP3   OH240248   0.710   4.073   0.596  0.0224  0.3697  0.1759
 6230TIP3    H140249   0.650   4.059   0.522  1.0292 -1.1659 -0.3789
 6230TIP3    H240250   0.682   4.010   0.662 -0.8484  1.7114  1.1483
 6231TIP3   OH240251   0.739   4.366   0.582 -0.3090 -0.3486  0.6584
 6231TIP3    H140252   0.720   4.273   0.592 -1.3797  0.0292  3.0392
 6231TIP3    H240253   0.807   4.384   0.648  0.5421  0.3992 -0.3924
 6232TIP3   OH240254   0.963   6.162   8.705  0.3023 -0.0168 -0.1279
 6232TIP3    H140255   1.054   6.187   8.689  0.5251  0.2742  1.4073
 6232TIP3    H240256   0.953   6.169   8.800 -0.2803 -3.6297  0.1949
 6233TIP3   OH240257   3.103   0.285   2.652 -0.3773  0.2162  0.7592
 6233TIP3    H140258   3.076   0.317   2.738  1.2139 -0.3583  1.5230
 6233TIP3    H240259   3.073   0.194   2.649 -0.6757  0.3202  0.5920
 6234TIP3   OH240260   3.661   2.912   0.147  0.1342  0.4734  0.9104
 6234TIP3    H140261   3.565   2.905   0.142  0.1358  1.0700 -0.2995
 6234TIP3    H240262   3.685   2.968   0.073  1.4362  0.2275  1.1209
 6235TIP3   OH240263   3.338   1.362   3.250 -0.2107 -0.2251  0.4699
 6235TIP3    H140264   3.286   1.411   3.187 -0.6319 -1.2994 -0.0374
 6235TIP3    H240265   3.275   1.332   3.315 -0.6030 -2.9702 -1.0361
 6236TIP3   OH240266   5.740   0.915   0.347  0.0975  0.0253 -0.3627
 6236TIP3    H140267   5.816   0.875   0.389 -0.2555 -0.4128 -0.1275
 6236TIP3    H240268   5.750   1.009   0.362  0.8517  0.0147 -0.7716
 6237TIP3   OH240269   6.629   3.387   2.588 -0.4192 -0.1600 -0.2147
 6237TIP3    H140270   6.623   3.341   2.672  1.1581 -0.3082 -0.1636
 6237TIP3    H240271   6.651   3.320   2.524  2.6612  0.5107 -0.0193
 6238TIP3   OH240272   1.555   3.104   0.404  0.2987 -0.1143 -0.2328
 6238TIP3    H140273   1.545   3.050   0.326 -0.4297 -1.3181  0.6503
 6238TIP3    H240274   1.492   3.176   0.392 -1.1861 -1.3133  0.0519
 6239TIP3   OH240275   6.604   5.327   7.492 -0.7969 -0.7798 -0.2020
 6239TIP3    H140276   6.676   5.375   7.532 -1.3166  1.4906 -1.8076
 6239TIP3    H240277   6.527   5.352   7.542 -1.4766  2.2014 -2.4753
 6240TIP3   OH240278   6.237   4.187   7.643 -0.0134  0.0252  0.1093
 6240TIP3    H140279   6.206   4.160   7.556 -1.9340  1.7057  0.1879
 6240TIP3    H240280   6.329   4.208   7.630  0.2434 -1.5938 -1.0542
 6241TIP3   OH240281   1.513   2.887   3.011  0.0109  0.2295 -0.8322
 6241TIP3    H140282   1.465   2.962   2.975 -0.3174  0.8358  0.8115
 6241TIP3    H240283   1.504   2.895   3.106  1.2678 -1.0490 -0.5656
 6242TIP3   OH240284   3.576   3.571   2.349  0.2146 -0.1841 -0.0116
 6242TIP3    H140285   3.496   3.540   2.306 -0.1952  0.1211  0.5133
 6242TIP3    H240286   3.551   3.655   2.388  0.6125 -0.3799  0.6850
 6243TIP3   OH240287   0.255   0.169   8.689 -0.8102  0.3144 -0.6346
 6243TIP3    H140288   0.204   0.118   8.753 -0.0728 -1.4408 -1.3736
 6243TIP3    H240289   0.247   0.119   8.608  1.8600  0.1092 -0.8394
 6244TIP3   OH240290   0.294   3.266   8.206 -0.3544 -0.1084 -0.2244
 6244TIP3    H140291   0.339   3.276   8.122 -0.7281  1.4880 -0.2729
 6244TIP3    H240292   0.206   3.237   8.183 -0.8463  1.4826 -0.5355
 6245TIP3   OH240293   5.948   2.869   1.411 -0.1047  0.1743  0.4026
 6245TIP3    H140294   5.953   2.809   1.336 -2.4654 -2.4649  2.1446
 6245TIP3    H240295   6.010   2.834   1.475 -1.0650 -0.1096  1.2068
 6246TIP3   OH240296   1.811   4.891   7.983  0.4512 -0.0022  0.3706
 6246TIP3    H140297   1.785   4.944   8.058 -1.0044  1.2743 -0.9852
 6246TIP3    H240298   1.847   4.811   8.022  0.2518  0.8590  2.4244
 6247TIP3   OH240299   4.614   2.270   0.633 -0.3694 -0.0448 -0.6187
 6247TIP3    H140300   4.698   2.299   0.670 -1.1387 -0.8991  2.0509
 6247TIP3    H240301   4.576   2.349   0.595 -0.1124  1.3400  1.7956
 6248TIP3   OH240302   0.345   4.256   8.871 -0.4950  0.1441  0.0903
 6248TIP3    H140303   0.335   4.301   8.786 -1.9993  0.3695  0.3553
 6248TIP3    H240304   0.391   4.320   8.926 -0.0070  0.2149 -0.3930
 6249TIP3   OH240305   1.606   4.926   1.510  0.5930 -0.3070 -0.1107
 6249TIP3    H140306   1.529   4.896   1.558 -1.5086  2.9662 -1.1195
 6249TIP3    H240307   1.674   4.934   1.577 -0.8606 -0.2904  1.4378
 6250TIP3   OH240308   3.183   0.902   0.361 -0.2113 -0.0762 -0.1824
 6250TIP3    H140309   3.133   0.967   0.312  0.1646 -0.1401 -0.6544
 6250TIP3    H240310   3.116   0.844   0.398 -0.4944 -0.2252 -0.9058
 6251TIP3   OH240311   4.078   3.324   2.094 -0.6812 -0.1858 -0.4473
 6251TIP3    H140312   4.128   3.372   2.028  1.3205 -0.3938  0.8278
 6251TIP3    H240313   4.045   3.392   2.153  0.3324 -0.1805  0.1470
 6252TIP3   OH240314   4.105   1.645   2.732  0.4415 -0.0717  0.4763
 6252TIP3    H140315   4.164   1.707   2.777  0.9691  0.0314 -0.3368
 6252TIP3    H240316   4.149   1.561   2.739  0.5390 -0.0493  0.1201
 6253TIP3   OH240317   3.620   3.607   1.780 -0.8452 -0.3275  0.1771
 6253TIP3    H140318   3.708   3.610   1.742 -0.8788  1.2978  0.1387
 6253TIP3    H240319   3.562   3.593   1.706 -0.6674 -0.7331  0.1120
 6254TIP3   OH240320   2.396   5.166   8.350  0.6573 -0.6054  0.2956
 6254TIP3    H140321   2.407   5.104   8.422  3.0492  0.3365  0.8431
 6254TIP3    H240322   2.432   5.248   8.384 -0.8034  0.6468 -1.0223
 6255TIP3   OH240323   3.503   2.487   2.311  0.0219  0.2602 -0.1422
 6255TIP3    H140324   3.506   2.581   2.294  0.2941  0.7324  2.2139
 6255TIP3    H240325   3.411   2.469   2.329  0.1218  0.3042  0.4416
 6256TIP3   OH240326   4.989   0.933   2.261  0.1844  0.2575  0.2336
 6256TIP3    H140327   4.926   0.926   2.190  0.5518  0.8893 -0.1707
 6256TIP3    H240328   5.033   0.849   2.263 -1.8109 -0.8401  1.6449
 6257TIP3   OH240329   4.095   2.678   2.724 -0.5687 -0.2244 -0.1419
 6257TIP3    H140330   4.161   2.627   2.770  0.2416  1.0640  0.1559
 6257TIP3    H240331   4.128   2.768   2.725 -0.8300 -0.0252 -2.6486
 6258TIP3   OH240332   5.105   2.464   2.359  0.2644 -0.0240  0.1486
 6258TIP3    H140333   5.022   2.491   2.399 -0.3131  1.3076 -1.8015
 6258TIP3    H240334   5.172   2.502   2.415 -0.5165  2.2283 -0.3479
 6259TIP3   OH240335   4.531   3.163   2.902  0.3225  0.0306  0.3631
 6259TIP3    H140336   4.606   3.220   2.887  0.1453 -0.2624 -2.0271
 6259TIP3    H240337   4.462   3.222   2.931  0.3603  0.9928 -1.3241
 6260TIP3   OH240338   6.749   4.882   1.433  0.3538 -0.4643  0.1397
 6260TIP3    H140339   6.776   4.888   1.525  0.0146 -1.3044  0.3090
 6260TIP3    H240340   6.660   4.848   1.437 -0.8135  2.2512 -0.3969
 6261TIP3   OH240341   4.374   3.165   1.155  0.4735 -0.6695  0.2840
 6261TIP3    H140342   4.333   3.229   1.097  1.5516  1.8763  2.1727
 6261TIP3    H240343   4.429   3.112   1.097 -1.2584 -0.6469 -1.4869
 6262TIP3   OH240344   5.314   1.627   2.006  0.2963  0.0934 -0.0350
 6262TIP3    H140345   5.271   1.678   1.937 -1.1779 -1.2309 -0.1586
 6262TIP3    H240346   5.276   1.660   2.088  1.1293  0.8163  0.0711
 6263TIP3   OH240347   3.498   2.748   2.298 -0.2851 -0.6761  0.6112
 6263TIP3    H140348   3.571   2.776   2.353 -1.0729  0.3279  1.1864
 6263TIP3    H240349   3.472   2.828   2.251 -2.0565 -0.5778  1.6608
 6264TIP3   OH240350   2.749   5.213   8.201  0.2925 -0.2820  0.0596
 6264TIP3    H140351   2.810   5.189   8.132  0.0867 -2.1098  0.4804
 6264TIP3    H240352   2.755   5.142   8.265  0.1382  1.1320  1.7193
 6265TIP3   OH240353   3.857   6.488   0.174  0.0357  0.4855  0.4806
 6265TIP3    H140354   3.776   6.529   0.205 -0.2278 -1.1398  2.1266
 6265TIP3    H240355   3.918   6.497   0.248  1.2590  1.3585 -0.5981
 6266TIP3   OH240356   5.433   2.408   3.262 -0.1107  0.0233  0.0986
 6266TIP3    H140357   5.412   2.319   3.235  0.6235  0.0187 -0.4921
 6266TIP3    H240358   5.506   2.398   3.323 -0.7704  0.1446  0.9242
 6267TIP3   OH240359   4.656   3.499   0.240  0.1430 -0.3975 -0.1126
 6267TIP3    H140360   4.701   3.495   0.325  0.3749 -1.4395 -0.2680
 6267TIP3    H240361   4.633   3.591   0.229  0.6345 -0.1528  0.8127
 6268TIP3   OH240362   2.250   0.945   3.411 -0.3356 -0.3654 -0.2044
 6268TIP3    H140363   2.197   0.888   3.355  0.0823 -2.0184  0.9917
 6268TIP3    H240364   2.340   0.918   3.393  0.0349  1.2428 -0.9612
 6269TIP3   OH240365   3.976   3.106   3.064 -0.0609 -0.4838  0.4452
 6269TIP3    H140366   4.038   3.168   3.027 -1.6630  0.6694 -0.4070
 6269TIP3    H240367   3.936   3.063   2.988  0.4680 -2.0677  1.0018
 6270TIP3   OH240368   1.692   2.745   8.688 -0.2330  0.3783  0.0620
 6270TIP3    H140369   1.758   2.700   8.740 -1.9986 -1.0275  1.2076
 6270TIP3    H240370   1.657   2.813   8.747 -0.7042  0.2508 -0.0627
 6271TIP3   OH240371   1.634   0.151   2.162  0.0152  0.0002 -0.3072
 6271TIP3    H140372   1.597   0.228   2.118 -0.4798 -0.7238 -1.1812
 6271TIP3    H240373   1.660   0.184   2.248 -0.0644  1.1794 -0.7079
 6272TIP3   OH240374   5.415   6.594   1.922 -0.4255  0.5130  0.0251
 6272TIP3    H140375   5.390   6.666   1.865 -1.0006 -0.0011 -0.3831
 6272TIP3    H240376   5.397   6.626   2.011  0.2112  1.2097 -0.0857
 6273TIP3   OH240377   1.854   2.999   2.419 -0.3025  0.6247 -0.1265
 6273TIP3    H140378   1.886   2.913   2.394 -0.6103  0.8096 -1.2082
 6273TIP3    H240379   1.807   2.985   2.502  1.2474  0.0977  0.6919
 6274TIP3   OH240380   3.258   6.370   8.448  0.8352 -0.0891  0.0234
 6274TIP3    H140381   3.219   6.295   8.402  0.0353  0.9678 -1.0840
 6274TIP3    H240382   3.201   6.384   8.524 -0.6991  1.1176 -1.3018
 6275TIP3   OH240383   6.346   2.080   1.809  0.2542 -0.1176  0.9693
 6275TIP3    H140384   6.427   2.032   1.826  1.7573  1.6968 -0.6308
 6275TIP3    H240385   6.310   2.039   1.731  1.4096  1.0897 -0.2537
 6276TIP3   OH240386   0.732   3.398   2.385 -0.3327  0.1029 -0.2299
 6276TIP3    H140387   0.649   3.430   2.420 -0.4436  0.0611 -0.4529
 6276TIP3    H240388   0.759   3.329   2.445 -0.0710  0.6426  0.2799
 6277TIP3   OH240389   6.386   3.151   8.368 -0.3657 -0.0030  0.2549
 6277TIP3    H140390   6.347   3.082   8.422 -1.3768 -0.5244 -1.0866
 6277TIP3    H240391   6.341   3.231   8.396  1.6659  0.4325  2.6901
 6278TIP3   OH240392   3.474   4.627   0.473  0.1858  0.0088  0.2576
 6278TIP3    H140393   3.406   4.584   0.421  0.9354 -0.1701 -0.5997
 6278TIP3    H240394   3.430   4.654   0.553 -1.0470  0.4412 -0.5411
 6279TIP3   OH240395   2.351   2.894   1.065 -0.1620  0.3387 -0.0476
 6279TIP3    H140396   2.361   2.807   1.027 -0.6299 -1.0571  2.7543
 6279TIP3    H240397   2.383   2.953   0.997  3.2930 -2.1919 -0.9292
 6280TIP3   OH240398   1.320   3.079   0.702  0.1159 -0.0357  0.5657
 6280TIP3    H140399   1.298   3.064   0.794 -3.5311  1.6414  0.1653
 6280TIP3    H240400   1.293   3.169   0.686  2.3582  0.3091 -1.7616
 6281TIP3   OH240401   3.054   1.397   8.853  0.1304  0.0147  0.1484
 6281TIP3    H140402   2.963   1.374   8.834  0.8664 -2.4310 -0.9091
 6281TIP3    H240403   3.049   1.456   8.928 -2.3341  0.5293 -0.3317
 6282TIP3   OH240404   4.779   0.479   1.392 -0.0731  0.2581 -0.0919
 6282TIP3    H140405   4.766   0.387   1.414 -0.3287  0.3681  0.2289
 6282TIP3    H240406   4.870   0.484   1.363 -0.3595 -0.2911 -1.1448
 6283TIP3   OH240407   3.044   3.566   0.609  0.0749  0.2178  0.5185
 6283TIP3    H140408   3.028   3.657   0.585 -1.0943 -0.0218  0.3076
 6283TIP3    H240409   3.027   3.516   0.529  0.9787 -0.1697  0.5566
 6284TIP3   OH240410   3.027   6.467   0.509  0.3907 -0.8244  0.3534
 6284TIP3    H140411   3.082   6.432   0.578  0.4179  0.3302  0.9517
 6284TIP3    H240412   3.041   6.562   0.513  0.3799 -0.7211 -1.2229
 6285TIP3   OH240413   3.461   3.344   8.178 -0.0408  0.1882 -0.3166
 6285TIP3    H140414   3.395   3.339   8.247 -0.2386 -0.9941 -0.5757
 6285TIP3    H240415   3.465   3.256   8.142  1.5863  0.2676 -0.4036
 6286TIP3   OH240416   2.903   1.246   1.768  0.2836 -0.0567  0.3469
 6286TIP3    H140417   2.996   1.268   1.764  0.2866 -0.0202  0.6085
 6286TIP3    H240418   2.858   1.330   1.756  0.2995  0.3422  2.6087
 6287TIP3   OH240419   4.680   5.455   8.816  0.0139  0.5278 -0.1329
 6287TIP3    H140420   4.744   5.449   8.887  0.2952  0.2883 -0.3998
 6287TIP3    H240421   4.704   5.384   8.757 -0.3007  0.6417 -0.4004
 6288TIP3   OH240422   4.135   0.539   3.009  0.2130 -0.9663  0.5003
 6288TIP3    H140423   4.217   0.566   3.052  1.5981 -2.6649 -0.9040
 6288TIP3    H240424   4.086   0.495   3.078  0.6223 -0.2559  1.2755
 6289TIP3   OH240425   6.306   6.361   8.872  0.0701 -0.1861  0.1256
 6289TIP3    H140426   6.223   6.346   8.917  0.6082 -0.5026  1.0471
 6289TIP3    H240427   6.314   6.456   8.867  0.2050 -0.1333  1.1127
 6290TIP3   OH240428   4.071   3.598   2.227  0.6827 -0.4582  0.2483
 6290TIP3    H140429   3.980   3.607   2.197  0.7187  1.2526  0.5690
 6290TIP3    H240430   4.062   3.568   2.318  0.4880 -1.2928 -0.0303
 6291TIP3   OH240431   6.323   5.619   7.735 -0.0911 -0.1424  0.0466
 6291TIP3    H140432   6.323   5.660   7.822  0.2401  2.0842 -0.9305
 6291TIP3    H240433   6.237   5.576   7.729 -1.0836  1.6386  0.6451
 6292TIP3   OH240434   2.377   5.462   1.338 -0.5409  0.2954 -0.6471
 6292TIP3    H140435   2.317   5.497   1.272  0.2589  0.6457 -1.2080
 6292TIP3    H240436   2.464   5.476   1.300 -0.1000 -0.0289  0.2339
 6293TIP3   OH240437   0.914   5.776   8.240 -0.0164 -0.2811 -0.5535
 6293TIP3    H140438   0.823   5.748   8.240 -0.7389  1.8635  0.1169
 6293TIP3    H240439   0.913   5.862   8.196  1.1572  1.1298  1.9600
 6294TIP3   OH240440   2.770   6.649   1.448  0.2735 -0.3000  0.0411
 6294TIP3    H140441   2.683   6.611   1.454 -0.0976  0.6915  1.3752
 6294TIP3    H240442   2.815   6.619   1.528  1.2343 -0.9244 -0.6952
 6295TIP3   OH240443   2.913   0.220   1.346  0.0096 -0.1076  0.0088
 6295TIP3    H140444   2.959   0.144   1.310 -0.8659  0.3400 -2.2165
 6295TIP3    H240445   2.825   0.187   1.367  0.0041  0.0212  0.1892
 6296TIP3   OH240446   4.384   2.109   8.754 -0.0129 -0.2682  0.0395
 6296TIP3    H140447   4.315   2.112   8.688  0.0511 -0.3130 -0.0285
 6296TIP3    H240448   4.465   2.111   8.704  0.0609 -2.4624  0.0098
 6297TIP3   OH240449   2.529   4.877   8.204  0.3377 -0.2120 -0.3350
 6297TIP3    H140450   2.510   4.789   8.171  1.4571 -0.4533 -0.3849
 6297TIP3    H240451   2.458   4.932   8.169  0.3080 -0.8636 -1.3407
 6298TIP3   OH240452   0.873   0.328   0.443  0.6769 -0.4359  0.0216
 6298TIP3    H140453   0.844   0.342   0.533  1.4311 -0.9304  0.3498
 6298TIP3    H240454   0.864   0.414   0.402  1.5535  0.1037  0.9317
 6299TIP3   OH240455   0.938   0.059   2.371  0.0385 -0.2685  0.4147
 6299TIP3    H140456   0.868   0.116   2.338  0.4814 -0.9711 -1.9427
 6299TIP3    H240457   0.905   0.027   2.455 -1.8223  0.5439  0.0461
 6300TIP3   OH240458   3.182   0.531   0.703  0.3094  0.4452  0.0263
 6300TIP3    H140459   3.218   0.451   0.666 -1.1252 -0.6258  0.8111
 6300TIP3    H240460   3.111   0.501   0.760 -0.2831  2.2828  0.3342
 6301TIP3   OH240461   1.708   2.647   0.331  0.0009  0.1420 -0.4798
 6301TIP3    H140462   1.762   2.573   0.307  0.4938  0.8569 -1.6863
 6301TIP3    H240463   1.758   2.724   0.303 -0.7093  0.9153  0.2861
 6302TIP3   OH240464   5.762   3.501   0.965  0.5131  0.4045 -0.2186
 6302TIP3    H140465   5.696   3.502   0.896  0.7183  0.8284 -0.4092
 6302TIP3    H240466   5.844   3.479   0.921  0.5082 -0.1267  0.0190
 6303TIP3   OH240467   5.366   5.713   0.204 -0.1122 -0.1674  0.4288
 6303TIP3    H140468   5.316   5.703   0.285 -1.1903 -1.1435 -0.3205
 6303TIP3    H240469   5.368   5.808   0.189  0.7956  0.0945  1.9810
 6304TIP3   OH240470   1.155   4.201   0.795  0.4803  0.2761  0.4403
 6304TIP3    H140471   1.246   4.221   0.774  0.4056 -1.6665 -2.2359
 6304TIP3    H240472   1.157   4.112   0.830 -0.2510  0.9012  2.2160
 6305TIP3   OH240473   2.292   1.767   8.611 -0.1885 -0.5507 -0.0774
 6305TIP3    H140474   2.381   1.730   8.611  0.9748  1.8799 -2.9139
 6305TIP3    H240475   2.235   1.690   8.610  1.8847 -2.2122  0.2696
 6306TIP3   OH240476   4.743   1.209   2.754 -0.1949  0.1083  0.1861
 6306TIP3    H140477   4.791   1.270   2.699  0.0864 -0.5339 -0.2860
 6306TIP3    H240478   4.699   1.265   2.819 -0.0294  0.8154 -0.2997
 6307TIP3   OH240479   0.973   5.648   2.240 -0.2802  0.0399 -0.5832
 6307TIP3    H140480   0.907   5.714   2.264 -0.0972 -0.0653  0.2333
 6307TIP3    H240481   0.931   5.597   2.171  0.1197  1.8957 -2.2728
 6308TIP3   OH240482   4.407   5.518   8.785 -0.6606 -0.0943  0.1969
 6308TIP3    H140483   4.432   5.611   8.789 -1.1750  0.0160  1.6231
 6308TIP3    H240484   4.487   5.472   8.810 -1.0091  0.1112  1.8101
 6309TIP3   OH240485   1.019   5.788   8.579  0.2182 -0.0233  0.0324
 6309TIP3    H140486   0.976   5.703   8.576  1.2551 -0.5388 -1.1698
 6309TIP3    H240487   1.096   5.774   8.636  0.1125  0.2538  0.2475
 6310TIP3   OH240488   5.790   6.500   1.068 -0.3117  0.2304  0.4476
 6310TIP3    H140489   5.748   6.420   1.098 -0.2050 -0.0787 -0.2205
 6310TIP3    H240490   5.882   6.476   1.057 -0.0834  0.7135  1.2139
 6311TIP3   OH240491   3.819   5.283   2.075  0.1842  0.3934  0.1464
 6311TIP3    H140492   3.785   5.197   2.101  0.5467  0.1603 -0.1558
 6311TIP3    H240493   3.791   5.293   1.984  0.7302  0.3007 -0.0319
 6312TIP3   OH240494   4.176   0.084   0.411 -0.7536  0.0242  0.3518
 6312TIP3    H140495   4.194   0.143   0.337 -1.3624 -2.0660 -1.5736
 6312TIP3    H240496   4.262   0.055   0.440 -0.5268 -1.3467 -1.5079
 6313TIP3   OH240497   1.155   5.938   8.367  0.2799 -0.4168 -0.0632
 6313TIP3    H140498   1.144   5.950   8.462 -1.8970  1.9504 -0.5256
 6313TIP3    H240499   1.096   5.866   8.345  0.7333 -0.9223  0.3048
 6314TIP3   OH240500   0.764   2.653   8.251 -0.6564 -0.4381  0.0745
 6314TIP3    H140501   0.828   2.703   8.200 -1.1416 -0.0756 -0.1919
 6314TIP3    H240502   0.753   2.572   8.202  0.9266 -1.2993  1.0662
 6315TIP3   OH240503   0.799   1.854   0.752 -0.7035  0.8202 -0.6250
 6315TIP3    H140504   0.895   1.849   0.757 -0.7368 -2.1666 -1.2289
 6315TIP3    H240505   0.782   1.914   0.679  0.6554  2.1516  0.1080
 6316TIP3   OH240506   0.683   4.159   2.477  0.4399  0.0868 -0.3164
 6316TIP3    H140507   0.643   4.242   2.451  1.8224  0.6448 -0.7974
 6316TIP3    H240508   0.667   4.101   2.402 -2.0463 -0.6919  0.7182
 6317TIP3   OH240509   5.467   0.860   3.276  0.1723 -0.2263 -0.5128
 6317TIP3    H140510   5.489   0.769   3.257  0.0821 -0.5335  0.7844
 6317TIP3    H240511   5.418   0.857   3.358 -0.2024  0.9516 -0.6691
 6318TIP3   OH240512   3.887   5.045   7.407 -0.3518  0.1488 -0.0758
 6318TIP3    H140513   3.937   5.017   7.331 -2.1604 -1.0329 -0.8815
 6318TIP3    H240514   3.875   5.139   7.394  0.2463  0.1505 -0.6935
 6319TIP3   OH240515   3.719   5.716   0.500 -0.4823  0.6531  0.3372
 6319TIP3    H140516   3.703   5.782   0.433  1.0252  0.5190 -0.1819
 6319TIP3    H240517   3.791   5.664   0.466 -1.1443 -0.8136  1.0812
 6320TIP3   OH240518   4.168   2.977   1.138  0.1593 -0.3092 -0.4317
 6320TIP3    H140519   4.186   2.883   1.146 -0.4743 -0.4987 -1.1843
 6320TIP3    H240520   4.248   3.019   1.172  0.2138 -1.1046  0.4650
 6321TIP3   OH240521   6.542   3.071   1.341  0.1599 -0.1341 -0.3631
 6321TIP3    H140522   6.622   3.042   1.384  0.2579  0.9040  0.1803
 6321TIP3    H240523   6.570   3.097   1.253  0.8352  2.1603  0.4638
 6322TIP3   OH240524   6.347   6.178   8.653 -0.5196 -0.3138 -0.4005
 6322TIP3    H140525   6.356   6.241   8.725  1.4938 -0.0077 -0.8388
 6322TIP3    H240526   6.355   6.231   8.574  0.7216 -1.0344 -0.7822
 6323TIP3   OH240527   2.872   4.148   8.808  0.5554  0.3712  0.2396
 6323TIP3    H140528   2.915   4.102   8.880 -0.4353  1.1369  1.3530
 6323TIP3    H240529   2.923   4.228   8.796  1.1510 -0.0937 -0.4223
 6324TIP3   OH240530   4.348   5.246   0.509 -0.0673 -0.3715 -0.4163
 6324TIP3    H140531   4.391   5.217   0.590 -0.6971 -0.1965 -0.0091
 6324TIP3    H240532   4.364   5.340   0.506 -1.0914 -0.1638  0.1655
 6325TIP3   OH240533   3.401   1.540   0.471  0.0665  0.3250 -0.0326
 6325TIP3    H140534   3.461   1.572   0.539  1.2427 -0.2124 -0.7845
 6325TIP3    H240535   3.411   1.445   0.474 -1.3449  0.1575  0.3305
 6326TIP3   OH240536   4.725   3.845   2.524 -0.2350  0.5144 -0.0106
 6326TIP3    H140537   4.767   3.797   2.596 -0.9730 -0.9193 -0.4941
 6326TIP3    H240538   4.659   3.899   2.567 -0.3467  0.0281  0.4412
 6327TIP3   OH240539   3.293   1.005   2.268  0.0766  0.3393 -0.3956
 6327TIP3    H140540   3.372   1.058   2.258  0.1841  0.2662  0.0361
 6327TIP3    H240541   3.247   1.044   2.342  0.6729 -0.7952  0.5991
 6328TIP3   OH240542   6.562   4.375   1.385  0.0433  0.1601 -0.6360
 6328TIP3    H140543   6.503   4.362   1.458  0.7475 -0.6885 -0.1945
 6328TIP3    H240544   6.650   4.366   1.423  0.4123 -0.7557 -1.6463
 6329TIP3   OH240545   5.070   2.199   2.376 -0.7313  0.2049 -0.0931
 6329TIP3    H140546   4.986   2.161   2.350 -0.5395  0.1179 -0.5905
 6329TIP3    H240547   5.054   2.294   2.378 -1.5807  0.0929  2.4324
 6330TIP3   OH240548   5.575   2.808   7.900  0.2034 -0.0877 -0.1041
 6330TIP3    H140549   5.647   2.852   7.854  1.1780  0.9488  2.2610
 6330TIP3    H240550   5.597   2.715   7.895  1.8280  0.2136  0.6532
 6331TIP3   OH240551   2.143   5.063   0.188 -0.2024  0.4051 -0.2161
 6331TIP3    H140552   2.065   5.053   0.242  1.4115 -2.3422  1.8141
 6331TIP3    H240553   2.215   5.075   0.250  1.5657 -1.6289 -1.7093
 6332TIP3   OH240554   4.931   4.754   8.802  0.0074 -0.4718 -0.3317
 6332TIP3    H140555   4.961   4.663   8.795  1.1209 -0.2131  0.7200
 6332TIP3    H240556   4.876   4.755   8.880 -1.0355 -0.4725 -1.0336
 6333TIP3   OH240557   3.152   2.244   0.079  0.1329  0.5024 -0.8159
 6333TIP3    H140558   3.171   2.300   0.154 -1.8998  2.1795 -1.4613
 6333TIP3    H240559   3.059   2.258   0.061  0.4719 -0.0689 -3.4391
 6334TIP3   OH240560   4.133   1.303   7.103 -0.3534 -0.3246  0.0991
 6334TIP3    H140561   4.226   1.327   7.107 -0.2330 -0.9691  1.7608
 6334TIP3    H240562   4.133   1.215   7.066 -0.3740 -0.0114 -0.6602
 6335TIP3   OH240563   3.412   0.926   2.776  0.1543 -0.1132 -0.8990
 6335TIP3    H140564   3.442   0.862   2.711 -0.5653 -0.1443 -1.2067
 6335TIP3    H240565   3.381   0.873   2.850 -0.6227 -0.1321 -1.2329
 6336TIP3   OH240566   0.892   2.188   1.375 -0.0314 -0.2389  0.0441
 6336TIP3    H140567   0.908   2.218   1.286  0.9946  1.5486  0.7729
 6336TIP3    H240568   0.826   2.120   1.367 -1.0125  0.8866 -1.9281
 6337TIP3   OH240569   1.469   6.543   2.107  0.3056 -0.6155 -0.1707
 6337TIP3    H140570   1.483   6.595   2.028 -1.6206  0.6301  0.2457
 6337TIP3    H240571   1.499   6.455   2.084  2.6695  0.3826 -1.2475
 6338TIP3   OH240572   2.739   2.896   2.671 -0.1386 -0.2608  0.1091
 6338TIP3    H140573   2.821   2.930   2.706 -0.8564  0.8984  0.7314
 6338TIP3    H240574   2.685   2.879   2.747 -0.7270 -0.3442 -0.3170
 6339TIP3   OH240575   5.742   1.024   3.272 -0.1293 -0.0338 -0.3138
 6339TIP3    H140576   5.756   0.963   3.200  0.9490  1.1252 -1.1397
 6339TIP3    H240577   5.649   1.016   3.294 -0.1746 -1.3549 -0.9470
 6340TIP3   OH240578   0.596   4.538   0.963  0.0184  0.0372 -0.5273
 6340TIP3    H140579   0.534   4.488   1.017 -1.0965  1.8121 -0.0725
 6340TIP3    H240580   0.650   4.471   0.920 -0.5073 -1.5046  1.0681
 6341TIP3   OH240581   1.960   0.035   8.506  0.4859 -0.8118  0.0844
 6341TIP3    H140582   1.989   0.093   8.576 -1.0087 -0.2864  0.2894
 6341TIP3    H240583   2.042   0.001   8.468  1.3244 -0.5048  1.5522
 6342TIP3   OH240584   5.846   1.252   3.511  0.4398 -0.2752  0.5013
 6342TIP3    H140585   5.807   1.308   3.444 -0.7596 -0.0555  1.3426
 6342TIP3    H240586   5.903   1.192   3.463  0.8492  0.9086 -0.5370
 6343TIP3   OH240587   4.258   3.255   0.612 -0.3024 -0.5541 -0.3975
 6343TIP3    H140588   4.320   3.324   0.635 -0.7304 -0.2555 -0.1283
 6343TIP3    H240589   4.241   3.269   0.518 -0.7955  0.0481 -0.2287
 6344TIP3   OH240590   2.321   2.432   0.487 -0.5395 -0.7916  0.6450
 6344TIP3    H140591   2.276   2.479   0.557 -0.2033 -0.8151  0.8833
 6344TIP3    H240592   2.336   2.345   0.523 -1.1004 -1.0667  0.2298
 6345TIP3   OH240593   6.090   4.255   8.398  0.0079 -0.2236  0.5473
 6345TIP3    H140594   6.124   4.173   8.363  1.3461  1.2076 -1.7991
 6345TIP3    H240595   6.008   4.270   8.351  1.4987  1.3960 -1.7597
 6346TIP3   OH240596   4.395   3.579   8.557 -0.1926 -0.1659  0.0858
 6346TIP3    H140597   4.337   3.552   8.628  0.3901  2.4045  1.6706
 6346TIP3    H240598   4.481   3.589   8.598 -0.2014  3.2164 -0.3763
 6347TIP3   OH240599   6.309   3.885   0.207  0.1357 -0.4241  0.2703
 6347TIP3    H140600   6.332   3.963   0.157 -0.0710 -0.3378  0.3092
 6347TIP3    H240601   6.232   3.910   0.258  0.3705 -0.4954  0.6684
 6348TIP3   OH240602   0.685   4.666   2.276  0.7451  0.4652  0.1048
 6348TIP3    H140603   0.670   4.727   2.348 -0.0206 -0.1525  0.4871
 6348TIP3    H240604   0.719   4.587   2.319  1.4252  0.5073 -0.3484
 6349TIP3   OH240605   1.574   4.995   2.332 -0.3786  0.4596 -0.2845
 6349TIP3    H140606   1.554   5.054   2.259 -0.9611 -1.1270 -1.4652
 6349TIP3    H240607   1.503   4.931   2.331  0.0967 -0.1300  1.1149
 6350TIP3   OH240608   4.449   5.428   2.392  0.1145 -0.3671  0.1103
 6350TIP3    H140609   4.481   5.455   2.478  2.4137 -0.0319 -0.7731
 6350TIP3    H240610   4.516   5.459   2.331 -2.1028  0.6506 -1.9861
 6351TIP3   OH240611   3.790   6.103   3.585  1.0220 -0.2348 -0.2175
 6351TIP3    H140612   3.740   6.069   3.660  1.0207  1.4268  0.5892
 6351TIP3    H240613   3.739   6.075   3.509  0.2745 -0.8077  0.4647
 6352TIP3   OH240614   6.608   6.144   7.875 -0.8594 -0.1916 -0.2992
 6352TIP3    H140615   6.646   6.228   7.849 -0.7400  0.8484  2.7519
 6352TIP3    H240616   6.520   6.166   7.906 -1.5409 -1.5410 -1.1642
 6353TIP3   OH240617   0.321   5.573   1.929 -0.0793 -0.3962 -0.2356
 6353TIP3    H140618   0.295   5.481   1.940  1.5032 -0.9077 -0.4711
 6353TIP3    H240619   0.252   5.611   1.876 -1.2222 -1.2069  0.6015
 6354TIP3   OH240620   6.524   0.507   0.054 -0.5272 -0.3795 -0.5401
 6354TIP3    H140621   6.507   0.600   0.036 -1.3208  0.0650  2.0786
 6354TIP3    H240622   6.443   0.475   0.092  0.9873 -1.0009  2.4633
 6355TIP3   OH240623   6.082   2.984   0.241 -0.5378 -0.3684 -0.1529
 6355TIP3    H140624   6.149   2.929   0.280 -0.4846 -1.8869 -2.1835
 6355TIP3    H240625   6.130   3.055   0.199 -0.3748 -0.2526  0.2319
 6356TIP3   OH240626   5.095   2.441   0.023  0.1854  0.0304  0.2049
 6356TIP3    H140627   5.158   2.389  -0.026 -0.2618  0.9190 -1.3991
 6356TIP3    H240628   5.130   2.530   0.020 -0.9454  0.4784 -0.4126
 6357TIP3   OH240629   3.509   2.285   7.449 -0.9072  0.1030  0.0834
 6357TIP3    H140630   3.427   2.298   7.402 -0.6065 -0.6029 -0.6756
 6357TIP3    H240631   3.570   2.254   7.382 -0.2406 -0.1312  0.7824
 6358TIP3   OH240632   5.919   1.918   8.043 -0.1599  0.1671  0.7074
 6358TIP3    H140633   6.011   1.891   8.035 -0.6107 -1.4032  0.4904
 6358TIP3    H240634   5.888   1.921   7.952 -0.0151  1.9593  0.6795
 6359TIP3   OH240635   6.548   0.415   2.889 -0.0494 -0.2035  0.1445
 6359TIP3    H140636   6.618   0.425   2.953 -3.7057  3.2719  4.3032
 6359TIP3    H240637   6.535   0.320   2.882  2.5251 -0.8143  2.1291
 6360TIP3   OH240638   5.865   6.127   7.784 -0.9318 -0.3127 -0.2717
 6360TIP3    H140639   5.947   6.157   7.746  0.5591 -2.5458  0.9290
 6360TIP3    H240640   5.811   6.205   7.790  0.8722  1.1314 -1.6332
 6361TIP3   OH240641   2.546   1.641   8.624  0.3666  1.0164 -0.6845
 6361TIP3    H140642   2.547   1.548   8.645 -1.0122  1.0054 -0.6355
 6361TIP3    H240643   2.553   1.644   8.528 -1.1957  0.7850 -0.8260
 6362TIP3   OH240644   0.515   5.291   8.317  0.4662  0.5983 -0.0817
 6362TIP3    H140645   0.427   5.269   8.349  1.6045  0.4409  3.4038
 6362TIP3    H240646   0.570   5.217   8.346  1.6308  0.0537 -3.3032
 6363TIP3   OH240647   1.778   1.307   1.825 -0.2272  0.2836 -0.2558
 6363TIP3    H140648   1.777   1.305   1.729 -0.1751  1.7378 -0.3108
 6363TIP3    H240649   1.865   1.341   1.848 -0.7179  1.2319  0.2542
 6364TIP3   OH240650   6.506   5.939   0.968 -0.5979 -0.5984 -0.2702
 6364TIP3    H140651   6.455   5.894   1.034  0.0202  0.3352  0.8841
 6364TIP3    H240652   6.502   6.032   0.993 -2.2433  0.1490 -2.8136
 6365TIP3   OH240653   6.538   2.513   8.297  0.0887  0.1497  0.1220
 6365TIP3    H140654   6.605   2.476   8.239  0.0543  0.8538 -0.3859
 6365TIP3    H240655   6.547   2.607   8.286 -0.0117  0.2884  1.1785
 6366TIP3   OH240656   4.906   0.307   7.854  0.7680  0.7261  0.0318
 6366TIP3    H140657   4.864   0.346   7.778  1.2592  0.6630 -0.2770
 6366TIP3    H240658   4.837   0.256   7.896  0.4118  1.0195 -0.1924
 6367TIP3   OH240659   4.016   6.190   1.405  0.4423  0.1628 -0.1094
 6367TIP3    H140660   4.065   6.271   1.419  0.2501  0.2098  0.2944
 6367TIP3    H240661   3.982   6.198   1.316  2.3501 -0.5024 -0.9461
 6368TIP3   OH240662   2.846   1.966   8.534  0.2484  0.7148 -0.2619
 6368TIP3    H140663   2.867   2.059   8.523  0.9605  0.4710 -1.1350
 6368TIP3    H240664   2.930   1.925   8.556 -0.2576  0.4226  1.2733
 6369TIP3   OH240665   3.129   2.995   2.367  0.3348  0.3776 -0.3490
 6369TIP3    H140666   3.190   3.068   2.356 -0.2025  1.1927  1.6211
 6369TIP3    H240667   3.066   3.026   2.432 -0.8363 -1.2861 -0.6338
 6370TIP3   OH240668   3.735   5.146   8.714 -0.4119  0.0017  0.5246
 6370TIP3    H140669   3.769   5.236   8.708 -0.4774  0.0363  0.6761
 6370TIP3    H240670   3.807   5.095   8.749 -0.3943  0.0054  0.4941
 6371TIP3   OH240671   6.469   0.572   0.558 -0.5428 -0.1945 -0.0627
 6371TIP3    H140672   6.432   0.635   0.496 -2.6009  0.0263  1.3091
 6371TIP3    H240673   6.402   0.505   0.568 -0.2020 -0.3184  1.7577
 6372TIP3   OH240674   2.221   5.992   7.657  0.1203 -0.2729  0.5639
 6372TIP3    H140675   2.276   6.058   7.699  0.6564 -0.2654 -0.1466
 6372TIP3    H240676   2.177   5.948   7.730 -2.9188  3.0632  1.0393
 6373TIP3   OH240677   5.837   5.312   1.359 -0.2923 -0.0550  0.2751
 6373TIP3    H140678   5.774   5.248   1.392 -1.5803  0.0745 -1.7843
 6373TIP3    H240679   5.791   5.357   1.288  1.6378  1.0375 -0.3579
 6374TIP3   OH240680   6.204   4.283   0.215 -0.3455 -0.5615  0.4263
 6374TIP3    H140681   6.211   4.378   0.222 -0.6889 -0.4983 -0.0271
 6374TIP3    H240682   6.272   4.259   0.152  0.3951 -0.7313  1.2756
 6375TIP3   OH240683   5.116   2.059   3.165  0.2180 -0.3470  0.4658
 6375TIP3    H140684   5.187   2.044   3.228  0.5225 -0.5634  0.0713
 6375TIP3    H240685   5.100   2.154   3.170 -0.8286 -0.5788  2.0141
 6376TIP3   OH240686   5.182   1.976   8.273  0.4419 -0.3709  0.2178
 6376TIP3    H140687   5.145   1.994   8.359 -0.7533 -0.8408 -0.1797
 6376TIP3    H240688   5.169   1.882   8.261 -2.5922  0.1595 -1.8545
 6377TIP3   OH240689   0.644   0.964   7.239  0.6129 -0.1635  0.5843
 6377TIP3    H140690   0.709   0.988   7.305  1.5971 -1.6923  0.2427
 6377TIP3    H240691   0.650   1.034   7.174  0.3271  0.8506  1.6221
 6378TIP3   OH240692   1.293   5.332   0.923  0.5939 -0.3814 -0.4836
 6378TIP3    H140693   1.253   5.274   0.859  3.7061  0.1635 -3.2023
 6378TIP3    H240694   1.312   5.277   0.999 -1.7111 -1.4464 -0.6192
 6379TIP3   OH240695   5.099   2.341   3.102 -1.0683 -0.2458  0.3460
 6379TIP3    H140696   5.057   2.383   3.177 -1.5988 -0.9272  0.4420
 6379TIP3    H240697   5.180   2.391   3.088 -1.9075  1.0941  0.1493
 6380TIP3   OH240698   0.367   0.117   0.387  0.1323  0.0933  0.4373
 6380TIP3    H140699   0.347   0.169   0.465  1.4847  1.4263 -0.0683
 6380TIP3    H240700   0.454   0.081   0.404  0.6824  0.8529 -0.6802
 6381TIP3   OH240701   6.287   5.067   0.640 -0.4691 -0.4676 -0.9099
 6381TIP3    H140702   6.344   5.143   0.646 -0.5766 -0.4767  0.6138
 6381TIP3    H240703   6.213   5.087   0.697 -1.2822 -1.0544 -1.7363
 6382TIP3   OH240704   4.104   5.260   0.310 -0.4963 -0.2636  0.1382
 6382TIP3    H140705   4.107   5.350   0.342 -1.2460 -0.7836  1.8008
 6382TIP3    H240706   4.166   5.213   0.366  0.5281 -0.6486 -1.2706
 6383TIP3   OH240707   3.837   6.624   8.034  0.2928  0.6689 -0.6311
 6383TIP3    H140708   3.877   6.705   8.000  0.8142  0.3376 -0.8155
 6383TIP3    H240709   3.901   6.556   8.014  1.3570  0.6439  2.3474
 6384TIP3   OH240710   6.580   4.754   2.426 -0.0524 -0.1035 -0.0321
 6384TIP3    H140711   6.650   4.778   2.366 -0.4889  1.1125 -0.0884
 6384TIP3    H240712   6.598   4.663   2.450  3.5079  1.0757  2.6150
 6385TIP3   OH240713   6.504   0.308   0.944 -0.4957 -0.2290  0.0481
 6385TIP3    H140714   6.548   0.355   1.015 -1.4517 -0.0034  0.5042
 6385TIP3    H240715   6.477   0.377   0.883 -0.5287 -0.3293 -0.0508
 6386TIP3   OH240716   6.748   1.397   0.374  0.3960  0.1755  0.5876
 6386TIP3    H140717   6.716   1.315   0.335  0.3810  0.6585 -0.4603
 6386TIP3    H240718   6.672   1.434   0.419 -0.0800  0.4474 -0.4027
 6387TIP3   OH240719   4.875   2.503   8.325 -0.0497 -0.0630 -0.1208
 6387TIP3    H140720   4.822   2.481   8.249 -0.7786 -0.3855  0.4687
 6387TIP3    H240721   4.952   2.548   8.289 -0.7655  0.4943 -0.9738
 6388TIP3   OH240722   5.991   1.618   8.721  0.1402  0.3105  0.0776
 6388TIP3    H140723   6.056   1.638   8.788  0.9649 -2.5334  0.2866
 6388TIP3    H240724   5.938   1.548   8.761  0.2072 -0.9624 -1.9242
 6389TIP3   OH240725   6.461   6.220   1.528 -0.0017  0.2512 -0.1505
 6389TIP3    H140726   6.434   6.288   1.466  1.9583  1.3343  0.0794
 6389TIP3    H240727   6.541   6.256   1.568  1.2269 -2.2718 -0.1575
 6390TIP3   OH240728   1.591   1.587   1.606 -0.1030 -0.0242  0.3498
 6390TIP3    H140729   1.562   1.611   1.694 -2.0671 -1.5822  0.2091
 6390TIP3    H240730   1.538   1.641   1.547 -0.4467 -0.6067  0.1151
 6391TIP3   OH240731   4.992   4.123   0.978 -0.4513  0.0156 -0.9737
 6391TIP3    H140732   5.062   4.063   0.952  1.6028  1.3369  1.1069
 6391TIP3    H240733   5.009   4.202   0.928 -0.1873  0.4733 -0.1768
 6392TIP3   OH240734   2.828   2.271   1.797  0.1522  0.0298  0.5771
 6392TIP3    H140735   2.907   2.279   1.744  0.2554  0.0176  0.7283
 6392TIP3    H240736   2.812   2.359   1.831  1.9614 -0.5271  3.2057
 6393TIP3   OH240737   0.132   5.751   8.058  0.6169 -0.3758  0.0155
 6393TIP3    H140738   0.051   5.758   8.109  1.4913 -3.7309  2.2075
 6393TIP3    H240739   0.104   5.706   7.978 -0.1808  1.7001 -0.9364
 6394TIP3   OH240740   1.212   3.925   1.933  0.2957 -0.6339 -0.2256
 6394TIP3    H140741   1.191   3.962   2.019  0.0070 -1.9464  0.2869
 6394TIP3    H240742   1.186   3.833   1.939 -1.6455 -0.3128 -2.3912
 6395TIP3   OH240743   6.386   1.766   8.726  0.7603 -0.7063  0.9054
 6395TIP3    H140744   6.444   1.828   8.771  0.7019 -0.6381  0.8875
 6395TIP3    H240745   6.332   1.821   8.669  0.6956 -0.7726  0.9030
 6396TIP3   OH240746   1.648   6.801   7.952 -0.2818  0.5417  0.2878
 6396TIP3    H140747   1.737   6.807   7.917 -0.3793 -0.2717 -0.1412
 6396TIP3    H240748   1.592   6.803   7.874 -0.5057 -1.2495  0.3452
 6397TIP3   OH240749   4.712   3.279   1.541 -0.3912  0.2321  0.0450
 6397TIP3    H140750   4.649   3.210   1.519  1.2497 -1.0395 -0.9446
 6397TIP3    H240751   4.747   3.307   1.456  3.1545 -1.8872  0.5959
 6398TIP3   OH240752   2.532   4.401   3.044  0.6669  0.0129  0.4126
 6398TIP3    H140753   2.523   4.490   3.007  0.6973 -0.1769 -0.0645
 6398TIP3    H240754   2.620   4.399   3.081  1.7914 -0.7085 -2.0840
 6399TIP3   OH240755   0.135   5.721   8.825  0.0038  0.5626 -0.6767
 6399TIP3    H140756   0.134   5.683   8.737 -1.5795 -1.4632  0.1389
 6399TIP3    H240757   0.063   5.784   8.826  0.3274  0.9389 -0.9629
 6400TIP3   OH240758   0.271   1.802   1.974  0.0998  0.0056  0.3596
 6400TIP3    H140759   0.278   1.721   2.026 -0.9203  0.2643  0.9359
 6400TIP3    H240760   0.320   1.783   1.894  1.2059 -0.6191  1.1481
 6401TIP3   OH240761   1.400   5.569   7.830  0.0567 -0.0451 -0.4753
 6401TIP3    H140762   1.383   5.550   7.922  0.1269  0.7057 -0.2986
 6401TIP3    H240763   1.324   5.534   7.783  0.2609 -0.8909 -0.1960
 6402TIP3   OH240764   1.203   4.693   0.024  0.2225  0.1245  0.9061
 6402TIP3    H140765   1.135   4.631   0.052 -0.4860  0.2427 -0.4782
 6402TIP3    H240766   1.283   4.640   0.018 -0.1871 -0.4648  0.5801
 6403TIP3   OH240767   1.553   1.442   8.774 -0.8949 -0.0768 -0.3373
 6403TIP3    H140768   1.571   1.535   8.788  2.7173 -1.0226  3.1187
 6403TIP3    H240769   1.578   1.427   8.682  1.5274  1.8913 -0.1163
 6404TIP3   OH240770   3.389   3.039   8.450  1.0573  0.3348 -0.4484
 6404TIP3    H140771   3.350   3.125   8.432  0.3953  0.1546  0.1065
 6404TIP3    H240772   3.317   2.987   8.485  1.7111 -0.1141  0.2508
 6405TIP3   OH240773   2.923   1.410   1.218  0.3917 -0.1087  0.3044
 6405TIP3    H140774   2.980   1.415   1.294  0.0833  1.1172  0.4775
 6405TIP3    H240775   2.911   1.501   1.190  0.2891 -0.5143 -1.0564
 6406TIP3   OH240776   3.098   3.267   8.178  0.7417 -0.7022 -1.0838
 6406TIP3    H140777   3.137   3.230   8.099 -1.0336 -1.5523 -1.6188
 6406TIP3    H240778   3.006   3.282   8.154  0.2780 -0.5406  0.6828
 6407TIP3   OH240779   4.704   1.004   3.593 -0.0285 -0.2031 -0.6301
 6407TIP3    H140780   4.637   0.965   3.536 -0.0767  0.2987 -0.9191
 6407TIP3    H240781   4.689   1.098   3.586  0.9890 -0.0654 -1.0396
 6408TIP3   OH240782   3.294   4.293   8.495  0.1692  0.0303 -0.3020
 6408TIP3    H140783   3.228   4.236   8.456  1.3558 -0.1453 -2.1756
 6408TIP3    H240784   3.322   4.350   8.423  3.8911 -1.6328 -0.3946
 6409TIP3   OH240785   5.529   3.709   8.390  0.0980  0.1207 -0.4322
 6409TIP3    H140786   5.477   3.649   8.445  0.8229  0.2022  0.3566
 6409TIP3    H240787   5.551   3.657   8.313  1.0056 -0.7617  0.3983
 6410TIP3   OH240788   6.608   6.285   1.178  0.8709  0.9124 -0.2209
 6410TIP3    H140789   6.640   6.312   1.092  0.5790  0.6427 -0.4147
 6410TIP3    H240790   6.681   6.238   1.217  0.6033 -0.0348 -0.8143
 6411TIP3   OH240791   2.602   1.665   1.626  0.1962 -0.2217 -0.0200
 6411TIP3    H140792   2.626   1.623   1.544  0.2969  1.5216 -0.9216
 6411TIP3    H240793   2.582   1.756   1.602  1.2272  0.6065  2.0281
 6412TIP3   OH240794   6.107   0.515   8.430 -0.3855 -0.4300 -0.0508
 6412TIP3    H140795   6.166   0.491   8.502  0.2615 -1.1807 -0.7992
 6412TIP3    H240796   6.164   0.557   8.366 -0.7786 -0.5870 -0.5075
 6413TIP3   OH240797   0.462   4.436   0.598  0.3279  0.1950 -0.1369
 6413TIP3    H140798   0.555   4.417   0.611  0.2440  1.3520  2.9052
 6413TIP3    H240799   0.447   4.518   0.646 -1.7420  1.5784 -2.8443
 6414TIP3   OH240800   2.864   5.408   0.774 -0.1189  0.0583  0.4758
 6414TIP3    H140801   2.827   5.496   0.768  2.9616  1.4884  0.3866
 6414TIP3    H240802   2.873   5.393   0.868  1.2992  0.8285  0.4996
 6415TIP3   OH240803   5.182   4.035   8.574 -0.1878  0.5710 -0.2193
 6415TIP3    H140804   5.243   4.107   8.559  1.6607 -0.3467  2.2561
 6415TIP3    H240805   5.205   3.970   8.508  0.8603  0.6489  0.0508
 6416TIP3   OH240806   6.572   2.773   8.185 -0.0611 -0.2833 -0.3252
 6416TIP3    H140807   6.573   2.794   8.279 -1.2389 -1.1274 -0.1053
 6416TIP3    H240808   6.597   2.854   8.142 -0.8684  0.5180  0.6675
 6417TIP3   OH240809   4.808   5.005   2.408 -0.5372  0.2307  0.0130
 6417TIP3    H140810   4.890   4.981   2.365 -1.8191  0.0203 -2.4695
 6417TIP3    H240811   4.787   4.929   2.463  2.1225  1.2854  2.8124
 6418TIP3   OH240812   0.897   5.027   7.496 -0.2506  0.3291 -0.2925
 6418TIP3    H140813   0.907   5.088   7.423  0.3376  1.0309  0.3554
 6418TIP3    H240814   0.808   5.042   7.529 -0.2637  0.5191 -0.4174
 6419TIP3   OH240815   3.087   2.873   1.275  0.1484  0.2111  0.1612
 6419TIP3    H140816   3.001   2.887   1.235  1.0863  1.9251 -1.3864
 6419TIP3    H240817   3.083   2.922   1.357  0.1864  1.7587 -0.7224
 6420TIP3   OH240818   4.091   2.951   2.694 -0.5286 -0.1575  0.7008
 6420TIP3    H140819   4.115   3.010   2.766  0.2853  0.2986  0.0667
 6420TIP3    H240820   4.085   3.008   2.618 -0.5908 -0.7678  0.2481
 6421TIP3   OH240821   5.864   4.022   3.351 -0.2497 -0.2884 -0.4918
 6421TIP3    H140822   5.774   4.053   3.343 -1.0528 -2.0559  0.9595
 6421TIP3    H240823   5.888   4.040   3.442  0.2158 -1.4405 -0.3699
 6422TIP3   OH240824   2.365   4.414   1.087 -0.1327 -0.3387  0.0013
 6422TIP3    H140825   2.422   4.482   1.053  0.0197 -0.9663 -1.0443
 6422TIP3    H240826   2.277   4.453   1.085 -0.1385 -0.3693 -1.1951
 6423TIP3   OH240827   4.199   5.281   8.629 -0.1089 -0.5390  0.2201
 6423TIP3    H140828   4.286   5.246   8.648 -0.2840 -0.6651  0.8356
 6423TIP3    H240829   4.151   5.272   8.712 -1.1610 -1.8018 -0.4947
 6424TIP3   OH240830   3.972   0.692   7.859  0.9147  0.3226  0.6910
 6424TIP3    H140831   3.936   0.696   7.770 -0.1889  0.7539  1.1347
 6424TIP3    H240832   4.009   0.604   7.866  2.0142  0.6599 -0.5581
 6425TIP3   OH240833   3.808   4.320   0.606  0.4680 -0.1070 -0.0059
 6425TIP3    H140834   3.895   4.357   0.593 -0.3338  1.2553 -1.9729
 6425TIP3    H240835   3.802   4.250   0.541 -0.0445  0.0690 -0.1500
 6426TIP3   OH240836   4.531   2.433   1.997 -0.5148  0.2602  0.5178
 6426TIP3    H140837   4.578   2.507   2.035 -0.5408  0.0908  0.8872
 6426TIP3    H240838   4.585   2.404   1.924  0.7555 -0.9098  1.8673
 6427TIP3   OH240839   4.906   3.525   1.979 -0.5993  0.2415 -0.1884
 6427TIP3    H140840   4.926   3.436   2.008 -0.7365  0.1672 -0.3220
 6427TIP3    H240841   4.909   3.578   2.059  0.0970  0.2225 -0.1957
 6428TIP3   OH240842   2.989   0.331   8.084 -0.2867 -0.2425 -0.2085
 6428TIP3    H140843   2.928   0.387   8.035 -0.6347  0.3726  0.8992
 6428TIP3    H240844   2.932   0.270   8.130  0.0369 -0.7716 -0.5073
 6429TIP3   OH240845   2.988   1.108   0.354 -0.1204  0.0327  0.9399
 6429TIP3    H140846   2.914   1.133   0.298  0.5039 -1.1555 -0.4779
 6429TIP3    H240847   3.034   1.191   0.371 -0.6268  0.4902  0.1395
 6430TIP3   OH240848   5.651   5.128   0.286 -0.4561 -0.4660  0.4098
 6430TIP3    H140849   5.717   5.193   0.310  1.3378 -2.5327  1.4057
 6430TIP3    H240850   5.581   5.141   0.350  0.4652 -0.3410  1.4317
 6431TIP3   OH240851   3.719   6.330   1.033  0.2744 -0.1365 -0.3125
 6431TIP3    H140852   3.658   6.268   0.992  1.3191 -0.7045 -1.0698
 6431TIP3    H240853   3.770   6.364   0.960  1.5499 -0.4490  0.4017
 6432TIP3   OH240854   4.660   0.425   2.165 -0.0707 -0.7509  0.6471
 6432TIP3    H140855   4.737   0.466   2.203  0.2151 -0.7363  0.0592
 6432TIP3    H240856   4.590   0.441   2.229 -0.7456  3.3084 -0.8074
 6433TIP3   OH240857   0.685   4.589   1.998  0.6341  0.7192  0.2813
 6433TIP3    H140858   0.681   4.617   2.089  0.2824  0.2216  0.4218
 6433TIP3    H240859   0.742   4.512   1.999 -0.5110 -0.1562  0.3152
 6434TIP3   OH240860   2.911   2.189   0.951 -0.2053 -0.0680 -0.3995
 6434TIP3    H140861   2.856   2.244   1.006 -0.0894 -2.1404  1.9779
 6434TIP3    H240862   2.851   2.154   0.885 -0.5504  1.7462 -1.1051
 6435TIP3   OH240863   1.000   4.107   7.317 -0.2012 -0.0561  0.2527
 6435TIP3    H140864   0.926   4.144   7.364  1.1701  0.1740  2.3340
 6435TIP3    H240865   1.064   4.179   7.310 -0.2521 -0.1328 -1.8460
 6436TIP3   OH240866   3.280   3.976   3.192 -0.0585  0.1644 -0.2420
 6436TIP3    H140867   3.330   3.920   3.251 -0.6518  0.5707  0.6860
 6436TIP3    H240868   3.345   4.021   3.138  0.4129 -1.5796 -1.1765
 6437TIP3   OH240869   4.896   0.480   2.514 -0.6141 -0.2997 -0.0060
 6437TIP3    H140870   4.834   0.429   2.567 -0.0809 -1.4728 -0.4693
 6437TIP3    H240871   4.922   0.552   2.571 -2.1551  0.0463  0.3094
 6438TIP3   OH240872   3.222   4.846   7.952 -0.6331  0.1045 -0.1149
 6438TIP3    H140873   3.220   4.849   7.857  0.9999 -0.2291 -0.1822
 6438TIP3    H240874   3.152   4.785   7.976 -0.2251 -0.7923 -1.1593
 6439TIP3   OH240875   5.926   3.648   2.718 -0.4694 -0.1203 -0.1521
 6439TIP3    H140876   5.963   3.723   2.764 -1.0375 -0.3931  0.7836
 6439TIP3    H240877   5.832   3.665   2.717 -0.5141 -0.3791 -0.7568
 6440TIP3   OH240878   4.121   4.609   0.324  0.2847 -0.1411  0.9332
 6440TIP3    H140879   4.033   4.612   0.361 -1.9100 -0.9638 -3.5666
 6440TIP3    H240880   4.143   4.700   0.305 -2.0415 -0.1492 -2.5799
 6441TIP3   OH240881   5.208   4.662   1.099  0.5303 -0.4639 -0.1967
 6441TIP3    H140882   5.229   4.680   1.008  0.8727  0.9362  0.1250
 6441TIP3    H240883   5.276   4.707   1.149 -1.7973  2.2344  0.8248
 6442TIP3   OH240884   5.777   2.400   2.701 -0.2709 -0.1195 -0.5021
 6442TIP3    H140885   5.729   2.483   2.711 -2.6451 -1.3761 -0.7769
 6442TIP3    H240886   5.808   2.379   2.789 -0.0161  0.8432 -0.3523
 6443TIP3   OH240887   4.005   3.281   0.888  0.4066  0.0306  0.1411
 6443TIP3    H140888   4.079   3.285   0.827 -0.1987  0.4418 -0.5855
 6443TIP3    H240889   3.955   3.360   0.871 -0.1843 -0.2213  0.6499
 6444TIP3   OH240890   1.230   0.214   0.528  0.5867 -0.3875  0.1800
 6444TIP3    H140891   1.295   0.198   0.460 -0.2241  0.1821 -0.7535
 6444TIP3    H240892   1.196   0.301   0.508 -1.6955 -1.3552 -0.3995
 6445TIP3   OH240893   3.998   5.152   0.617 -0.0976 -0.0043 -0.2070
 6445TIP3    H140894   4.066   5.193   0.671  1.7790 -1.1328 -1.5845
 6445TIP3    H240895   4.046   5.109   0.546 -2.4114  1.8023 -3.1373
 6446TIP3   OH240896   6.326   3.489   0.905 -0.2600 -0.5558  0.0915
 6446TIP3    H140897   6.305   3.397   0.919  1.3207 -1.2603 -1.6578
 6446TIP3    H240898   6.403   3.505   0.958  1.0325 -1.0332 -1.5541
 6447TIP3   OH240899   2.915   5.734   1.506 -0.7083  0.4554 -0.1366
 6447TIP3    H140900   2.879   5.724   1.594  1.5164  0.3258  0.8441
 6447TIP3    H240901   2.927   5.828   1.495  1.1098  0.3768  0.6986
 6448TIP3   OH240902   4.383   6.509   8.728  0.3740  0.6180 -0.4040
 6448TIP3    H140903   4.459   6.565   8.712 -0.5056  1.6385 -1.1543
 6448TIP3    H240904   4.308   6.565   8.709 -0.6220  0.0284  1.5147
 6449TIP3   OH240905   5.380   5.447   0.160 -0.2757  0.0347  0.0368
 6449TIP3    H140906   5.370   5.399   0.243 -0.4617  0.7970  0.4624
 6449TIP3    H240907   5.394   5.538   0.187 -0.9910  0.3952 -0.7974
 6450TIP3   OH240908   4.976   2.659   0.806  0.5899  0.6038 -0.0683
 6450TIP3    H140909   4.883   2.640   0.793 -0.0646  3.0395  0.5929
 6450TIP3    H240910   5.005   2.594   0.871 -0.7680  0.1170  0.0829
 6451TIP3   OH240911   0.369   4.069   0.307  0.7314  0.8740  0.0109
 6451TIP3    H140912   0.278   4.049   0.328  0.5131  0.8102 -0.9341
 6451TIP3    H240913   0.368   4.159   0.274  0.6105  0.1536 -2.1433
 6452TIP3   OH240914   6.190   4.362   1.350 -0.3054 -0.0343  0.0678
 6452TIP3    H140915   6.194   4.267   1.359 -1.7320 -0.2405 -0.9840
 6452TIP3    H240916   6.203   4.396   1.438  2.5197 -1.0738  0.1245
 6453TIP3   OH240917   1.730   3.352   1.644 -0.2730 -0.1473 -0.0689
 6453TIP3    H140918   1.690   3.267   1.623 -0.5276 -0.1997  0.6095
 6453TIP3    H240919   1.701   3.371   1.733 -0.4360  0.7822 -0.3092
 6454TIP3   OH240920   0.492   2.902   1.105 -0.2075  0.1790 -0.1111
 6454TIP3    H140921   0.457   2.830   1.158  1.7827 -0.1690  0.8131
 6454TIP3    H240922   0.580   2.874   1.082  0.8797  2.5654  0.8270
 6455TIP3   OH240923   2.600   5.656   8.329  0.1019 -0.0509  0.2957
 6455TIP3    H140924   2.524   5.674   8.384 -0.3855  1.5831 -0.8459
 6455TIP3    H240925   2.583   5.703   8.248  2.5154  0.7317  0.1637
 6456TIP3   OH240926   6.388   3.767   2.090  0.1977 -0.5321 -0.2718
 6456TIP3    H140927   6.429   3.708   2.153  0.6283  0.4438  0.3890
 6456TIP3    H240928   6.404   3.855   2.125  1.0370  0.0952 -2.0676
 6457TIP3   OH240929   1.679   2.640   8.429  0.2204  0.2733  0.2420
 6457TIP3    H140930   1.706   2.674   8.514 -0.9474 -0.7315  1.0464
 6457TIP3    H240931   1.616   2.704   8.396 -1.2505 -0.5531  1.3218
 6458TIP3   OH240932   6.556   4.218   2.590 -0.1216  0.4702 -0.5999
 6458TIP3    H140933   6.622   4.282   2.564  1.0201 -0.3963  0.0742
 6458TIP3    H240934   6.484   4.270   2.624  0.8628  1.3934  0.1133
 6459TIP3   OH240935   5.330   1.943   0.134 -0.8815 -0.3278 -0.3826
 6459TIP3    H140936   5.317   1.913   0.224 -1.4138 -0.7138 -0.5855
 6459TIP3    H240937   5.241   1.961   0.102 -0.5723  2.7939  0.1682
 6460TIP3   OH240938   0.696   0.418   2.056 -0.7573  0.4895 -0.0461
 6460TIP3    H140939   0.718   0.509   2.036  1.0562 -0.2219 -1.5760
 6460TIP3    H240940   0.756   0.367   2.003 -0.7621 -1.6234  1.8485
 6461TIP3   OH240941   3.363   2.643   0.611  0.4833 -0.1011  0.0332
 6461TIP3    H140942   3.425   2.638   0.683 -0.4976  0.4017  0.9446
 6461TIP3    H240943   3.291   2.586   0.637  1.3060 -2.1062 -1.8166
 6462TIP3   OH240944   2.583   0.851   0.848  0.0964 -0.1567 -0.8299
 6462TIP3    H140945   2.584   0.924   0.909 -3.5350 -0.0206 -0.6738
 6462TIP3    H240946   2.656   0.867   0.788  1.7272  1.4734  1.4335
 6463TIP3   OH240947   2.057   0.847   2.585 -0.0856 -0.2688 -0.3398
 6463TIP3    H140948   2.110   0.779   2.627 -2.1931 -1.0324  1.2756
 6463TIP3    H240949   2.031   0.809   2.501  3.0669  0.7439 -1.9525
 6464TIP3   OH240950   5.184   5.104   0.475 -0.5506 -0.3948  0.3964
 6464TIP3    H140951   5.180   5.070   0.386 -2.0601 -1.2164  0.7508
 6464TIP3    H240952   5.118   5.055   0.523  0.5156 -0.2661  2.0928
 6465TIP3   OH240953   4.138   2.433   1.595  0.1715  0.3746 -0.2540
 6465TIP3    H140954   4.076   2.413   1.665 -0.7356  0.7919 -0.9269
 6465TIP3    H240955   4.091   2.493   1.537  0.2758 -1.3004 -2.1656
 6466TIP3   OH240956   3.551   6.169   1.679  0.1768 -0.7029  0.0766
 6466TIP3    H140957   3.612   6.182   1.606 -1.2608  1.3332 -0.8692
 6466TIP3    H240958   3.537   6.074   1.682  1.3497 -0.9640 -1.3695
 6467TIP3   OH240959   4.267   0.446   2.790  0.5250 -0.1972  0.6763
 6467TIP3    H140960   4.197   0.449   2.854 -1.1838 -2.3129 -0.9275
 6467TIP3    H240961   4.268   0.533   2.751  0.2490  0.4907  2.1433
 6468TIP3   OH240962   2.036   0.878   0.291  0.4152  0.2376 -0.0330
 6468TIP3    H140963   2.036   0.886   0.386 -0.3463 -1.0041  0.0875
 6468TIP3    H240964   1.988   0.797   0.273  1.3084 -0.0220 -1.4354
 6469TIP3   OH240965   4.771   6.656   2.170 -0.0563 -0.1605 -0.1460
 6469TIP3    H140966   4.713   6.599   2.220  1.2922 -1.5612 -0.1153
 6469TIP3    H240967   4.738   6.744   2.186 -0.9791 -0.7555  1.4297
 6470TIP3   OH240968   0.603   0.914   8.569 -0.1152  0.0726  1.2040
 6470TIP3    H140969   0.623   0.915   8.475 -0.2243 -0.6752  1.1689
 6470TIP3    H240970   0.597   0.821   8.591 -1.8551  0.2534  1.5787
 6471TIP3   OH240971   2.428   3.575   2.913  0.7273 -0.1322 -0.1914
 6471TIP3    H140972   2.491   3.515   2.953 -0.4562 -0.9986  0.4327
 6471TIP3    H240973   2.440   3.658   2.960  0.7010 -0.5874  0.6381
 6472TIP3   OH240974   1.832   0.378   8.249 -0.2121  0.6969  0.2528
 6472TIP3    H140975   1.757   0.328   8.281  0.4094 -1.0900 -0.9534
 6472TIP3    H240976   1.821   0.382   8.154  0.4301  1.7720  0.2041
 6473TIP3   OH240977   5.537   4.534   8.174 -0.1209 -0.7331  0.0541
 6473TIP3    H140978   5.544   4.484   8.093 -0.4133  0.0139 -0.4378
 6473TIP3    H240979   5.445   4.527   8.199 -0.3257  0.1809 -0.4235
 6474TIP3   OH240980   1.353   6.231   1.190 -0.1301  0.8143 -0.1050
 6474TIP3    H140981   1.284   6.181   1.145 -0.1843  0.4841  0.3396
 6474TIP3    H240982   1.435   6.198   1.152 -0.0853 -0.6155  1.1379
 6475TIP3   OH240983   6.636   3.048   8.325 -0.4171 -0.2254  0.5288
 6475TIP3    H140984   6.570   3.111   8.354  0.3360  0.7586  0.1491
 6475TIP3    H240985   6.652   3.070   8.233  1.5010  0.5465  0.9959
 6476TIP3   OH240986   4.223   5.717   2.567 -0.3483  0.1675  0.9026
 6476TIP3    H140987   4.269   5.641   2.605 -1.6756  0.1269  2.5156
 6476TIP3    H240988   4.292   5.782   2.555  0.4003 -0.4088  1.8729
 6477TIP3   OH240989   6.238   5.063   0.043 -0.1408  0.4376 -0.4367
 6477TIP3    H140990   6.323   5.039   0.079  0.3125 -0.2560 -1.9028
 6477TIP3    H240991   6.215   4.992  -0.017 -1.7713  0.6080 -0.0799
 6478TIP3   OH240992   2.585   4.023   0.530 -0.1031  0.1799 -0.6012
 6478TIP3    H140993   2.576   3.975   0.612  0.4791  2.0954  0.6249
 6478TIP3    H240994   2.508   4.080   0.527 -2.3453 -2.6284 -3.4235
 6479TIP3   OH240995   3.454   2.381   1.933  0.1764  0.2403 -0.1672
 6479TIP3    H140996   3.419   2.469   1.950  0.3514 -0.1210  2.5699
 6479TIP3    H240997   3.384   2.336   1.886 -1.1679  0.9437  1.0908
 6480TIP3   OH240998   0.179   6.122   7.739  0.2929  0.0967  0.7620
 6480TIP3    H140999   0.244   6.086   7.800  0.4114 -0.3082  0.4022
 6480TIP3    H241000   0.220   6.112   7.653  0.3357  1.1188  0.6581
 6481TIP3   OH241001   0.633   2.634   1.036 -0.3552 -0.2153 -0.3792
 6481TIP3    H141002   0.680   2.616   0.955 -0.5038 -1.0205 -0.2946
 6481TIP3    H241003   0.695   2.610   1.105 -0.9008 -1.3770 -0.2668
 6482TIP3   OH241004   1.871   6.196   1.152  0.1423  0.0048  0.1180
 6482TIP3    H141005   1.881   6.276   1.204  1.6040 -0.4846  0.6561
 6482TIP3    H241006   1.895   6.126   1.213 -1.4594 -0.8924 -0.2391
 6483TIP3   OH241007   4.740   2.007   8.447  0.3404 -0.0418  0.4421
 6483TIP3    H141008   4.802   2.080   8.457  1.9178 -1.3418  0.6160
 6483TIP3    H241009   4.659   2.048   8.416  0.5973  2.0016  2.2584
 6484TIP3   OH241010   2.668   6.562   2.974  0.1277  0.1583  0.1264
 6484TIP3    H141011   2.750   6.591   2.934  0.0200  0.0021 -0.2174
 6484TIP3    H241012   2.603   6.626   2.942 -0.1593 -0.5822 -0.8362
 6485TIP3   OH241013   2.949   4.398   8.829  0.0864  0.1562 -0.3204
 6485TIP3    H141014   2.998   4.416   8.909  0.3648  1.1299 -0.6930
 6485TIP3    H241015   2.916   4.483   8.802 -2.3367 -0.5295  0.2226
 6486TIP3   OH241016   2.377   5.867   7.097 -0.1233 -0.4423 -0.3503
 6486TIP3    H141017   2.355   5.807   7.026 -1.8766 -2.0092  1.4035
 6486TIP3    H241018   2.460   5.833   7.132 -0.0276 -0.5550 -0.6789
 6487TIP3   OH241019   1.678   0.960   0.328 -0.6626 -0.1571  0.0325
 6487TIP3    H141020   1.655   0.898   0.397  1.1429  0.4048  1.2144
 6487TIP3    H241021   1.672   0.910   0.247 -0.6523 -1.4581  0.8154
 6488TIP3   OH241022   4.334   0.481   7.959  0.4439 -0.2165 -0.3475
 6488TIP3    H141023   4.281   0.459   8.036  0.5518  0.9910  0.0857
 6488TIP3    H241024   4.270   0.501   7.891  0.3443 -1.5372 -0.6757
 6489TIP3   OH241025   6.650   2.584   2.586 -0.3864 -0.5660 -0.2989
 6489TIP3    H141026   6.700   2.629   2.654 -1.5287 -0.6647  0.6362
 6489TIP3    H241027   6.692   2.498   2.578  0.4837 -0.1239 -0.5713
 6490TIP3   OH241028   6.046   4.355   0.652  0.0654 -0.1914  0.4789
 6490TIP3    H141029   5.989   4.414   0.701 -3.0252 -1.4517 -1.3814
 6490TIP3    H241030   6.105   4.413   0.604  0.7111  1.1387  2.7128
 6491TIP3   OH241031   3.510   0.218   3.187 -0.0897  0.1175  0.3887
 6491TIP3    H141032   3.556   0.264   3.257 -0.5573 -0.2958  0.9738
 6491TIP3    H241033   3.512   0.126   3.213  1.5763 -0.3418 -1.1897
 6492TIP3   OH241034   3.927   3.207   1.664 -0.1112  0.2713 -0.2455
 6492TIP3    H141035   3.873   3.158   1.726 -1.2424 -0.4722 -1.7540
 6492TIP3    H241036   3.897   3.179   1.578  1.5058  1.1645 -1.1601
 6493TIP3   OH241037   5.581   1.246   1.855 -0.2184 -0.1714 -0.0156
 6493TIP3    H141038   5.556   1.259   1.946 -1.9046 -0.0501 -0.4688
 6493TIP3    H241039   5.593   1.152   1.846  0.1869 -0.1600  0.3822
 6494TIP3   OH241040   1.923   2.684   1.077  0.3273  0.1201 -0.4005
 6494TIP3    H141041   1.890   2.640   1.154  0.2236 -0.3318 -0.7005
 6494TIP3    H241042   2.018   2.689   1.091  0.2023  1.0120  0.2479
 6495TIP3   OH241043   6.238   4.017   2.619  0.2669  0.0113 -0.0156
 6495TIP3    H141044   6.227   3.929   2.653 -2.0125 -0.0930 -0.8304
 6495TIP3    H241045   6.331   4.037   2.632  0.6689 -2.1834  0.8831
 6496TIP3   OH241046   2.005   6.454   0.643 -0.0541  0.0986  0.0493
 6496TIP3    H141047   1.990   6.514   0.570 -3.2828 -0.2235  0.3380
 6496TIP3    H241048   2.056   6.505   0.706  0.1582  1.3877 -1.1122
 6497TIP3   OH241049   1.817   2.240   8.288  0.4264 -0.0315 -0.1318
 6497TIP3    H141050   1.824   2.262   8.381 -0.9952  1.6132 -0.3595
 6497TIP3    H241051   1.770   2.314   8.249 -0.0352 -1.2080 -1.9551
 6498TIP3   OH241052   4.052   2.066   2.232  0.1198  0.3476 -0.9033
 6498TIP3    H141053   4.047   1.988   2.287  0.9588  1.2696  0.5691
 6498TIP3    H241054   3.962   2.099   2.229  0.1262  0.5190  0.3053
 6499TIP3   OH241055   6.341   1.643   0.674 -0.0332 -0.4409 -0.6681
 6499TIP3    H141056   6.311   1.567   0.724  0.6906 -1.0546 -1.1345
 6499TIP3    H241057   6.278   1.712   0.694 -1.0604 -1.3448 -0.7084
 6500TIP3   OH241058   0.438   3.358   3.786 -0.3648 -0.1114  0.3118
 6500TIP3    H141059   0.410   3.269   3.764 -0.1973 -0.0489 -0.1723
 6500TIP3    H241060   0.521   3.369   3.739  0.0657 -0.0129  1.0781
 6501TIP3   OH241061   1.123   5.195   8.740  0.3592  0.1623 -0.4822
 6501TIP3    H141062   1.162   5.115   8.775 -0.8585  0.0348  0.7008
 6501TIP3    H241063   1.057   5.165   8.678  0.3222  0.2614 -0.4921
 6502TIP3   OH241064   4.268   1.028   0.526  0.1365  0.1603  0.5488
 6502TIP3    H141065   4.336   1.068   0.471 -0.4397 -0.1504 -0.4248
 6502TIP3    H241066   4.289   0.935   0.526 -0.1477  0.0953  0.4373
 6503TIP3   OH241067   4.574   1.134   3.310 -0.2675 -0.4181  0.0276
 6503TIP3    H141068   4.577   1.041   3.332 -0.7582 -0.4884 -0.1928
 6503TIP3    H241069   4.576   1.178   3.395  1.9327 -0.5471  0.0952
 6504TIP3   OH241070   1.018   4.512   8.632  0.4101  0.1029 -0.0144
 6504TIP3    H141071   0.970   4.488   8.552 -0.0920  1.3604 -0.1014
 6504TIP3    H241072   0.963   4.479   8.703 -0.3203  1.0265 -0.1323
 6505TIP3   OH241073   5.536   3.326   1.858  0.4950  0.1825 -0.7366
 6505TIP3    H141074   5.553   3.399   1.918 -0.8778 -0.2432  0.2027
 6505TIP3    H241075   5.556   3.248   1.908 -0.4383 -0.1710 -0.9018
 6506TIP3   OH241076   2.351   6.655   2.310  0.8104 -0.2165 -0.7184
 6506TIP3    H141077   2.399   6.692   2.385  0.9829  0.0462 -0.9570
 6506TIP3    H241078   2.274   6.710   2.301 -1.9537 -3.1243  2.3897
 6507TIP3   OH241079   3.193   0.565   1.691 -0.5292  0.0286  0.0642
 6507TIP3    H141080   3.254   0.499   1.724 -0.4136 -0.1837 -0.5746
 6507TIP3    H241081   3.174   0.538   1.601  0.8116  1.7636 -0.7929
 6508TIP3   OH241082   2.176   2.478   7.466 -0.1940  0.4239 -0.2288
 6508TIP3    H141083   2.115   2.551   7.479 -0.1918  0.3888 -0.0249
 6508TIP3    H241084   2.138   2.406   7.516 -0.3068  0.2227 -0.5970
 6509TIP3   OH241085   3.300   3.903   0.153 -0.2149  0.5640  0.1495
 6509TIP3    H141086   3.273   3.878   0.241  0.4792  0.2614  0.2797
 6509TIP3    H241087   3.243   3.853   0.095 -0.5081  0.5786  0.4198
 6510TIP3   OH241088   0.920   2.293   1.899 -0.4165 -0.0491  0.4881
 6510TIP3    H141089   0.946   2.214   1.946  3.5037  1.3419  0.9632
 6510TIP3    H241090   0.915   2.361   1.966  1.1212  1.0745 -0.4605
 6511TIP3   OH241091   2.987   2.008   2.144 -0.2730 -0.1849  0.1014
 6511TIP3    H141092   2.999   1.923   2.188 -0.5078  0.6700  1.9020
 6511TIP3    H241093   3.076   2.035   2.121 -0.1532 -0.7044 -0.0618
 6512TIP3   OH241094   0.400   3.610   8.790  0.1821  0.4108  0.5856
 6512TIP3    H141095   0.489   3.584   8.815  0.1640 -0.5133 -0.2405
 6512TIP3    H241096   0.405   3.705   8.779  1.3715  0.2393 -0.5712
 6513TIP3   OH241097   6.250   1.300   0.056  0.1935  0.1630 -0.3756
 6513TIP3    H141098   6.290   1.213   0.053  0.6282  0.3223  0.4516
 6513TIP3    H241099   6.238   1.317   0.149 -0.0200  0.9308 -0.5405
 6514TIP3   OH241100   6.026   4.918   8.610 -0.0977  0.2624  0.5084
 6514TIP3    H141101   5.931   4.917   8.596 -0.1276  0.2260  0.7124
 6514TIP3    H241102   6.038   4.877   8.695  0.1493 -0.3209  0.1992
 6515TIP3   OH241103   1.660   1.266   7.597 -0.0056 -0.1034 -0.0499
 6515TIP3    H141104   1.705   1.186   7.622  0.5120  0.4386  0.8107
 6515TIP3    H241105   1.689   1.331   7.662 -1.4983  0.4282  0.1171
 6516TIP3   OH241106   2.062   4.576   3.047  0.0503 -0.5066 -0.1839
 6516TIP3    H141107   2.126   4.645   3.030 -0.1545 -0.0891  0.7097
 6516TIP3    H241108   2.049   4.535   2.961 -0.1038  0.7920 -0.8164
 6517TIP3   OH241109   0.437   4.613   8.448 -0.1106  0.0070 -0.2371
 6517TIP3    H141110   0.486   4.534   8.428  0.2240 -0.4682  2.1448
 6517TIP3    H241111   0.355   4.604   8.399  0.5700 -1.0406 -1.2200
 6518TIP3   OH241112   2.035   1.970   7.840  0.3596  0.1631  0.1259
 6518TIP3    H141113   2.046   1.885   7.797 -1.1972  0.3656 -0.7491
 6518TIP3    H241114   2.107   2.024   7.806 -1.6965  0.8429 -3.7035
 6519TIP3   OH241115   4.811   3.910   1.482  0.3344 -0.5915  0.0199
 6519TIP3    H141116   4.813   3.914   1.386  1.1012  0.6173  0.0666
 6519TIP3    H241117   4.737   3.966   1.507  2.2285  2.0468  0.1954
 6520TIP3   OH241118   5.319   2.456   8.084 -0.3500 -0.2004 -0.4870
 6520TIP3    H141119   5.347   2.398   8.156  0.8703  0.1857 -0.6226
 6520TIP3    H241120   5.395   2.459   8.026 -1.8628 -1.8988 -2.7570
 6521TIP3   OH241121   2.020   4.335   7.182 -0.9000 -0.8166 -0.1987
 6521TIP3    H141122   2.033   4.425   7.153 -0.3059 -0.7648  0.2175
 6521TIP3    H241123   2.108   4.297   7.184 -1.3236 -2.2708 -3.0913
 6522TIP3   OH241124   3.862   3.512   3.040 -0.6134  0.2329  0.1586
 6522TIP3    H141125   3.939   3.459   3.018 -1.8485 -1.3276 -0.6273
 6522TIP3    H241126   3.878   3.540   3.130  0.3683 -1.0485  0.4192
 6523TIP3   OH241127   4.424   0.361   3.051 -0.7556  0.5863 -0.3098
 6523TIP3    H141128   4.501   0.348   3.107 -0.7233  0.9699 -0.2577
 6523TIP3    H241129   4.450   0.324   2.967 -1.0384 -0.5659  0.1006
 6524TIP3   OH241130   1.006   2.715   2.730 -0.3769  0.0260  0.3117
 6524TIP3    H141131   1.004   2.749   2.820  0.8060  0.1147  0.3230
 6524TIP3    H241132   0.956   2.779   2.679 -1.2694 -0.1572  0.9440
 6525TIP3   OH241133   1.342   0.838   1.829  0.7735  0.4850 -0.1569
 6525TIP3    H141134   1.329   0.927   1.863 -0.7645  0.4284 -0.5182
 6525TIP3    H241135   1.339   0.782   1.907  0.9713  0.6793 -0.0085
 6526TIP3   OH241136   6.668   5.289   2.010 -0.4046  0.4783 -0.1044
 6526TIP3    H141137   6.644   5.197   2.002 -2.5705  1.0991 -1.7238
 6526TIP3    H241138   6.691   5.316   1.921  1.9204  1.1387  0.6218
 6527TIP3   OH241139   3.568   0.315   7.259  0.1123 -0.1794  0.1515
 6527TIP3    H141140   3.527   0.266   7.330 -1.7535  2.9993  1.4852
 6527TIP3    H241141   3.513   0.297   7.183 -1.0920  0.5134  0.8373
 6528TIP3   OH241142   6.709   0.667   0.585 -0.1566 -0.1170  0.1057
 6528TIP3    H141143   6.769   0.594   0.601  0.5391  0.3650 -0.2460
 6528TIP3    H241144   6.623   0.626   0.576  0.2999 -0.9585 -0.6327
 6529TIP3   OH241145   6.720   0.908   0.693  0.0040  0.8423 -0.3227
 6529TIP3    H141146   6.801   0.892   0.741  0.7147  3.0474 -0.6731
 6529TIP3    H241147   6.706   0.828   0.642  0.9524 -0.2792  1.1168
 6530TIP3   OH241148   2.173   5.467   1.577  0.2419  0.3532  0.2276
 6530TIP3    H141149   2.245   5.490   1.518  0.0878 -1.1111 -0.5627
 6530TIP3    H241150   2.100   5.447   1.520  0.2640 -1.6979  0.8353
 6531TIP3   OH241151   5.941   1.099   2.808 -0.0006  0.3065 -0.3908
 6531TIP3    H141152   5.869   1.162   2.813 -0.9514 -0.6118 -1.8596
 6531TIP3    H241153   5.902   1.015   2.830  0.7293 -0.1397 -0.7637
 6532TIP3   OH241154   3.327   2.870   8.088 -0.3087 -0.4815 -0.2316
 6532TIP3    H141155   3.312   2.907   8.175 -0.1633  1.9728 -1.1529
 6532TIP3    H241156   3.251   2.814   8.072  0.3274 -2.0668  1.9495
 6533TIP3   OH241157   6.780   1.861   0.284 -0.0241 -0.4474  0.1468
 6533TIP3    H141158   6.826   1.817   0.355 -0.9130  0.3863  1.2971
 6533TIP3    H241159   6.807   1.815   0.205  1.4860 -1.0035  0.9482
 6534TIP3   OH241160   2.143   2.852   0.725 -0.0074  0.0948 -0.8659
 6534TIP3    H141161   2.140   2.948   0.734 -1.2916 -0.0063  0.0096
 6534TIP3    H241162   2.056   2.828   0.694  0.2001 -0.8223 -0.7506
 6535TIP3   OH241163   5.641   1.514   2.903 -0.0303  0.3609  0.5773
 6535TIP3    H141164   5.719   1.521   2.957 -0.3655  3.3976  0.8354
 6535TIP3    H241165   5.652   1.582   2.836 -2.7635  1.4500  1.1146
 6536TIP3   OH241166   2.095   2.540   0.658  0.7866  0.0213 -0.0481
 6536TIP3    H141167   2.132   2.523   0.745  0.1024  0.8163  0.3971
 6536TIP3    H241168   2.109   2.633   0.643 -0.0304  0.1033 -0.3510
 6537TIP3   OH241169   1.052   3.807   7.734  0.1949 -0.1393  0.1088
 6537TIP3    H141170   0.979   3.863   7.760  0.6020  0.3859  0.1281
 6537TIP3    H241171   1.130   3.861   7.747  0.5892 -0.6908  0.0781
 6538TIP3   OH241172   3.685   3.245   0.879 -0.1115  0.3760 -0.5692
 6538TIP3    H141173   3.663   3.190   0.803 -1.1215  2.5118 -1.9226
 6538TIP3    H241174   3.779   3.235   0.889 -0.0939 -0.6923 -1.4886
 6539TIP3   OH241175   1.774   3.384   7.840  0.0666 -0.1547  0.1754
 6539TIP3    H141176   1.760   3.472   7.804  0.9513 -0.4548 -0.9182
 6539TIP3    H241177   1.716   3.381   7.917 -2.0173  0.4190 -1.3001
 6540TIP3   OH241178   1.230   1.900   8.884  0.0566 -0.0627 -0.5829
 6540TIP3    H141179   1.160   1.836   8.899  0.3652 -0.7436 -1.8705
 6540TIP3    H241180   1.212   1.971   8.946 -1.2641 -0.6264 -0.2905
 6541TIP3   OH241181   0.701   4.792   7.410 -0.6812 -0.5625  0.0986
 6541TIP3    H141182   0.661   4.705   7.408  0.4598 -1.0980 -0.0241
 6541TIP3    H241183   0.627   4.852   7.402 -1.3311 -1.5392 -2.2683
 6542TIP3   OH241184   1.485   2.103   8.336 -0.3925 -0.1902 -0.1559
 6542TIP3    H141185   1.515   2.177   8.387 -1.6678  0.8474 -0.8531
 6542TIP3    H241186   1.544   2.031   8.360  1.3919  1.2360 -0.0832
 6543TIP3   OH241187   1.442   0.432   8.307 -0.5343 -0.0430  0.1466
 6543TIP3    H141188   1.486   0.357   8.266  3.2136  2.7003 -1.3776
 6543TIP3    H241189   1.465   0.423   8.400  1.5361  0.0931 -0.2867
 6544TIP3   OH241190   0.655   2.789   0.107 -0.0505  0.0483  0.1200
 6544TIP3    H141191   0.663   2.880   0.136 -0.8935  0.4658 -0.8823
 6544TIP3    H241192   0.737   2.771   0.061  0.8047 -0.2449  1.7218
 6545TIP3   OH241193   0.448   6.667   3.600  0.1086  0.8208  0.2226
 6545TIP3    H141194   0.502   6.624   3.666  0.3148 -0.4558 -0.7476
 6545TIP3    H241195   0.358   6.643   3.623  0.0289  1.7738  0.9978
 6546TIP3   OH241196   5.473   6.695   8.760 -0.0650 -0.5454  0.1363
 6546TIP3    H141197   5.410   6.705   8.831 -0.8550 -1.8415 -0.3512
 6546TIP3    H241198   5.526   6.619   8.786  1.6481  0.8119  0.7741
 6547TIP3   OH241199   2.131   2.811   1.778  0.5801 -0.5514  0.1726
 6547TIP3    H141200   2.184   2.732   1.765 -0.2516 -1.0114 -0.5689
 6547TIP3    H241201   2.042   2.778   1.792  0.0589  0.2684 -0.9984
 6548TIP3   OH241202   0.690   2.290   1.727  0.1449 -0.5524  0.5905
 6548TIP3    H141203   0.660   2.380   1.714  1.5728 -0.2552 -0.9169
 6548TIP3    H241204   0.759   2.296   1.793  2.0402 -0.1059 -1.3394
 6549TIP3   OH241205   3.024   0.385   8.841  0.1301 -0.0370 -0.4046
 6549TIP3    H141206   3.109   0.418   8.814  0.7469 -0.1684  1.2813
 6549TIP3    H241207   2.982   0.458   8.887  0.6388 -0.8620  1.4835
 6550TIP3   OH241208   4.365   5.465   2.737 -0.3868 -0.3750 -0.3100
 6550TIP3    H141209   4.317   5.384   2.718 -0.3876 -0.2266 -0.9576
 6550TIP3    H241210   4.455   5.447   2.711  0.0468 -0.8205  1.3685
 6551TIP3   OH241211   2.964   0.687   7.546 -0.5291  0.1626 -0.0001
 6551TIP3    H141212   2.910   0.667   7.623  1.0354  1.0856  1.3874
 6551TIP3    H241213   2.940   0.777   7.523 -1.1439 -0.1803 -0.7575
 6552TIP3   OH241214   2.449   0.375   8.625  0.2408  0.4134 -0.0784
 6552TIP3    H141215   2.393   0.412   8.694  1.2608  1.4272  0.2356
 6552TIP3    H241216   2.416   0.412   8.544 -1.2552 -1.1356 -0.2339
 6553TIP3   OH241217   6.171   2.146   2.034 -0.2084 -0.1256  0.2353
 6553TIP3    H141218   6.186   2.241   2.041  0.3386 -0.3190  3.9523
 6553TIP3    H241219   6.241   2.114   1.978  0.9724  1.4340  0.7616
 6554TIP3   OH241220   0.529   2.696   2.692  0.6800  0.4252  0.0926
 6554TIP3    H141221   0.498   2.702   2.602  1.5707  1.2095 -0.1717
 6554TIP3    H241222   0.457   2.653   2.739 -0.4648  1.4746 -0.6534
 6555TIP3   OH241223   3.800   6.084   8.282  0.2504 -0.3438 -0.1392
 6555TIP3    H141224   3.711   6.113   8.300  0.1319 -0.6548 -0.2340
 6555TIP3    H241225   3.800   5.990   8.300 -0.0310 -0.8112 -2.3481
 6556TIP3   OH241226   3.460   0.883   0.358  0.1366 -0.4374  0.2066
 6556TIP3    H141227   3.376   0.883   0.405 -0.0664 -3.5901  0.0282
 6556TIP3    H241228   3.459   0.965   0.309 -3.3113 -0.7689 -0.5660
 6557TIP3   OH241229   4.806   2.762   2.575 -0.6769 -0.4233 -0.3381
 6557TIP3    H141230   4.881   2.725   2.623  0.2894  1.5123 -0.2401
 6557TIP3    H241231   4.730   2.718   2.612  0.3015 -1.3286  0.6744
 6558TIP3   OH241232   1.198   6.496   3.130  0.2802 -0.0809 -0.1366
 6558TIP3    H141233   1.153   6.419   3.164  1.9157 -1.8643 -1.7486
 6558TIP3    H241234   1.216   6.549   3.208 -0.4503 -1.5622  1.1104
 6559TIP3   OH241235   6.081   1.876   1.992  0.2726  0.1058 -0.0214
 6559TIP3    H141236   6.122   1.955   2.028  2.4604 -1.0735  0.2457
 6559TIP3    H241237   6.029   1.841   2.065 -0.9572  1.4002 -0.2319
 6560TIP3   OH241238   4.312   6.638   1.889 -0.4794  0.0902  0.2117
 6560TIP3    H141239   4.321   6.590   1.807 -0.8184  0.4359 -0.0238
 6560TIP3    H241240   4.234   6.601   1.930 -0.1958 -0.2259  0.4807
 6561TIP3   OH241241   4.908   2.290   0.209 -0.4162  0.4389  0.0608
 6561TIP3    H141242   4.974   2.333   0.156  1.7351  0.4422  2.5458
 6561TIP3    H241243   4.845   2.359   0.230  1.0742  1.5542  1.0636
 6562TIP3   OH241244   0.557   6.256   2.652  0.1901  0.4146 -0.3467
 6562TIP3    H141245   0.637   6.205   2.661  0.8012  1.2045 -1.1689
 6562TIP3    H241246   0.504   6.231   2.728  1.6320  0.6436  0.7751
 6563TIP3   OH241247   1.598   4.908   0.256 -0.2049 -0.2679 -0.6332
 6563TIP3    H141248   1.649   4.958   0.192 -0.4855  0.7355 -0.0921
 6563TIP3    H241249   1.643   4.922   0.339 -1.3504  0.6631 -0.1419
 6564TIP3   OH241250   6.273   1.296   0.356 -0.1263  0.1322 -0.0339
 6564TIP3    H141251   6.321   1.379   0.356 -0.5998  0.4155  0.0973
 6564TIP3    H241252   6.321   1.240   0.417  1.3777 -0.4123 -1.6619
 6565TIP3   OH241253   1.475   4.611   7.402  0.0123 -0.9844  0.7197
 6565TIP3    H141254   1.486   4.682   7.339  2.4497 -1.4369  0.5433
 6565TIP3    H241255   1.551   4.555   7.388 -2.2027 -4.1458  0.2625
 6566TIP3   OH241256   4.696   0.643   1.595  0.0483 -0.1705  0.1855
 6566TIP3    H141257   4.606   0.633   1.565  0.1126 -1.1894  0.3058
 6566TIP3    H241258   4.740   0.563   1.566  1.0027  0.4656 -0.1765
 6567TIP3   OH241259   6.727   0.952   1.792  0.4546 -0.0082  0.0685
 6567TIP3    H141260   6.656   0.970   1.854 -0.1074  0.2547 -0.6347
 6567TIP3    H241261   6.690   0.887   1.732  1.2425 -0.8131  0.4313
 6568TIP3   OH241262   0.623   4.543   7.344 -0.2921  0.2768 -0.6591
 6568TIP3    H141263   0.697   4.490   7.314  0.6598  0.4588  1.2061
 6568TIP3    H241264   0.577   4.568   7.264  1.4527 -0.1461 -1.8548
 6569TIP3   OH241265   1.989   5.951   2.331  0.2946  0.4346  0.1216
 6569TIP3    H141266   1.969   6.039   2.362 -0.9038  0.0793  0.4136
 6569TIP3    H241267   1.903   5.912   2.313  0.8595 -0.2713 -1.1341
 6570TIP3   OH241268   3.456   2.045   2.238  1.1249 -0.1558 -0.5482
 6570TIP3    H141269   3.395   2.109   2.274 -0.3419 -2.2476  0.9138
 6570TIP3    H241270   3.431   2.037   2.146  1.6884  1.6899 -0.8979
 6571TIP3   OH241271   5.870   1.633   2.310 -0.3844  0.1803  0.3836
 6571TIP3    H141272   5.776   1.643   2.323 -0.0364  2.1272  1.8187
 6571TIP3    H241273   5.882   1.540   2.289 -2.5365 -0.2361  0.8099
 6572TIP3   OH241274   0.205   4.722   1.525 -0.4561  0.0508 -0.2209
 6572TIP3    H141275   0.221   4.817   1.525 -1.6833  0.3102  1.7037
 6572TIP3    H241276   0.138   4.709   1.592 -1.6118 -1.9928 -1.6712
 6573TIP3   OH241277   1.603   0.787   2.676  0.3714  0.4916  0.2234
 6573TIP3    H141278   1.570   0.721   2.737  1.5610  0.8619  1.3245
 6573TIP3    H241279   1.675   0.830   2.724  1.3020  0.8472 -1.4097
 6574TIP3   OH241280   1.115   4.956   7.796 -0.8286  0.0613  0.8326
 6574TIP3    H141281   1.130   4.997   7.711 -1.0240  0.8346  1.1573
 6574TIP3    H241282   1.149   5.020   7.859 -0.3405 -0.6699  1.3198
 6575TIP3   OH241283   1.279   4.529   1.057  0.5434  0.0274  0.1144
 6575TIP3    H141284   1.202   4.512   1.111  0.1098  0.2267 -0.4309
 6575TIP3    H241285   1.328   4.447   1.058  1.6160  0.6169  2.4886
 6576TIP3   OH241286   0.390   5.793   0.698 -0.3825 -0.2969  0.1780
 6576TIP3    H141287   0.445   5.772   0.773 -0.9326 -0.9705  0.4005
 6576TIP3    H241288   0.450   5.829   0.633  0.7104 -2.9921 -0.4186
 6577TIP3   OH241289   3.430   2.160   8.620  0.0051  0.2059  0.2811
 6577TIP3    H141290   3.418   2.113   8.537 -1.2187  0.3769  0.3393
 6577TIP3    H241291   3.510   2.123   8.657  0.7105  0.2960 -1.0850
 6578TIP3   OH241292   6.567   1.244   2.149  0.0586 -0.8471 -0.1689
 6578TIP3    H141293   6.553   1.318   2.208 -0.2962 -0.5388 -0.6362
 6578TIP3    H241294   6.637   1.194   2.190 -0.6765 -1.0407  0.9057
 6579TIP3   OH241295   5.190   2.691   1.272 -0.3556  0.2557 -0.4282
 6579TIP3    H141296   5.229   2.697   1.184  1.7329  1.0689  0.4770
 6579TIP3    H241297   5.239   2.621   1.314  2.6187  3.3296  1.7934
 6580TIP3   OH241298   2.182   4.143   1.313  0.0473 -0.2231 -0.3416
 6580TIP3    H141299   2.184   4.110   1.403  1.0944  0.4120 -0.1132
 6580TIP3    H241300   2.260   4.105   1.272  0.0778  0.2353 -0.7102
 6581TIP3   OH241301   5.269   4.995   0.172 -0.4439  0.0533 -0.5241
 6581TIP3    H141302   5.194   4.996   0.112 -0.5487  2.7526 -0.5012
 6581TIP3    H241303   5.342   5.026   0.120 -0.2194  1.0741  0.3599
 6582TIP3   OH241304   4.433   1.378   7.148  0.0776 -0.0405 -0.0759
 6582TIP3    H141305   4.494   1.433   7.099 -0.8809  1.3147  0.2189
 6582TIP3    H241306   4.490   1.322   7.202  1.1936 -1.8677 -2.9134
 6583TIP3   OH241307   4.604   1.428   7.653  0.0957 -0.0015 -0.3637
 6583TIP3    H141308   4.681   1.480   7.629  0.3049  0.0720  0.4421
 6583TIP3    H241309   4.570   1.471   7.732 -1.1839  0.3891 -1.0931
 6584TIP3   OH241310   5.792   5.965   0.042  0.7962  0.5480 -0.6619
 6584TIP3    H141311   5.819   6.036   0.100 -0.0303 -0.9771  1.7618
 6584TIP3    H241312   5.845   5.891   0.069 -0.6063 -0.5732 -0.8661
 6585TIP3   OH241313   5.504   6.438   1.501  0.2005 -0.7238  0.3342
 6585TIP3    H141314   5.419   6.473   1.474  1.0653  0.7699 -0.5952
 6585TIP3    H241315   5.515   6.468   1.591 -1.4059 -3.2274  1.4388
 6586TIP3   OH241316   2.159   6.503   1.667  0.5230 -0.3088  0.0374
 6586TIP3    H141317   2.126   6.421   1.705  1.2269  0.2496  1.9339
 6586TIP3    H241318   2.253   6.502   1.686  0.4616  1.1410  0.5143
 6587TIP3   OH241319   4.611   6.784   3.451  0.4550  0.1155 -0.1882
 6587TIP3    H141320   4.617   6.728   3.373 -0.2999  0.5900 -0.5937
 6587TIP3    H241321   4.530   6.833   3.439  0.1151 -0.1008  1.0990
 6588TIP3   OH241322   0.789   4.123   1.260 -0.6505 -1.0115  0.2054
 6588TIP3    H141323   0.772   4.063   1.333 -0.8873 -0.6378  0.4640
 6588TIP3    H241324   0.822   4.067   1.190 -2.5128 -1.7410 -0.1604
 6589TIP3   OH241325   3.009   2.720   2.163 -0.2482  0.4909  0.0802
 6589TIP3    H141326   3.022   2.806   2.124 -1.6410 -0.2038 -2.1273
 6589TIP3    H241327   3.014   2.659   2.090 -1.6296 -1.0691  1.1851
 6590TIP3   OH241328   1.336   5.399   3.160 -0.2966  0.2665  0.1208
 6590TIP3    H141329   1.244   5.393   3.186 -0.3512  0.4463 -0.0265
 6590TIP3    H241330   1.342   5.482   3.112 -0.0040  0.3828  0.3519
 6591TIP3   OH241331   3.000   0.645   0.073 -0.1867  0.1743 -0.2069
 6591TIP3    H141332   2.986   0.644   0.168  0.9800  1.3626  0.0069
 6591TIP3    H241333   2.916   0.674   0.037 -0.4494  0.3308  0.5137
 6592TIP3   OH241334   6.056   3.969   0.327  0.2046  0.1097 -0.1810
 6592TIP3    H141335   6.032   3.886   0.368 -0.8618  0.0524 -0.8882
 6592TIP3    H241336   5.973   4.009   0.303  0.7224  1.1774 -0.2770
 6593TIP3   OH241337   0.751   3.213   0.631  0.3569  0.2409  0.2556
 6593TIP3    H141338   0.686   3.181   0.567 -0.8688 -0.1650  1.6515
 6593TIP3    H241339   0.726   3.304   0.647  0.1095  0.0741  0.8219
 6594TIP3   OH241340   1.618   5.397   0.869 -0.6178 -0.0119 -0.0189
 6594TIP3    H141341   1.578   5.474   0.910 -0.2594  0.4196 -0.4641
 6594TIP3    H241342   1.559   5.325   0.890 -1.9197  0.6869 -1.1210
 6595TIP3   OH241343   1.722   4.266   8.730  0.0540 -0.0968  0.2661
 6595TIP3    H141344   1.728   4.173   8.707 -0.1531  0.0074 -0.2085
 6595TIP3    H241345   1.781   4.276   8.804  0.4045 -0.5224  0.0459
 6596TIP3   OH241346   4.410   5.784   7.771 -0.2608  0.3874 -0.0957
 6596TIP3    H141347   4.433   5.789   7.678 -0.5053  0.1198 -0.1720
 6596TIP3    H241348   4.400   5.876   7.797  1.6502  0.5681  0.1475
 6597TIP3   OH241349   6.119   3.096   3.470 -0.2379  0.8997 -0.4903
 6597TIP3    H141350   6.057   3.074   3.401  0.4622 -0.6379 -0.6747
 6597TIP3    H241351   6.175   3.019   3.477  0.7671  1.6980  0.6359
 6598TIP3   OH241352   3.136   3.923   1.241  0.1712  0.2126 -0.2786
 6598TIP3    H141353   3.155   3.968   1.158 -0.2747 -1.8065 -1.5729
 6598TIP3    H241354   3.155   3.831   1.222 -0.2435 -0.3505  1.8007
 6599TIP3   OH241355   1.634   0.447   2.593  0.0208  0.2588 -0.9760
 6599TIP3    H141356   1.622   0.408   2.679  0.8971  0.2626 -0.8501
 6599TIP3    H241357   1.715   0.498   2.600  1.1665 -1.2693 -2.3322
 6600TIP3   OH241358   6.235   2.517   8.372  0.3675 -0.2522  0.8156
 6600TIP3    H141359   6.303   2.474   8.320 -0.4365 -1.6071  0.8299
 6600TIP3    H241360   6.250   2.485   8.461 -0.3579 -0.6586  0.7935
 6601TIP3   OH241361   1.970   1.810   8.058  0.2005 -0.3159 -0.5824
 6601TIP3    H141362   1.897   1.757   8.028 -0.8876  0.3104  0.8537
 6601TIP3    H241363   1.971   1.886   8.000  1.4054 -1.5346 -2.2772
 6602TIP3   OH241364   5.446   4.280   1.421 -0.0261 -0.1498  0.5153
 6602TIP3    H141365   5.487   4.225   1.354  0.1379  1.8185 -1.0798
 6602TIP3    H241366   5.384   4.222   1.465 -0.4690 -1.4164 -1.6500
 6603TIP3   OH241367   5.386   4.639   0.029  0.0549  0.7222  0.2827
 6603TIP3    H141368   5.308   4.692   0.046 -0.8026  0.3474 -2.1917
 6603TIP3    H241369   5.444   4.698  -0.020 -0.9116 -0.4925 -2.5146
 6604TIP3   OH241370   6.667   5.481   7.980 -0.1340 -0.9091 -0.2456
 6604TIP3    H141371   6.750   5.447   7.946 -0.2817 -0.7831 -0.7409
 6604TIP3    H241372   6.607   5.407   7.973 -0.2940 -0.7387 -0.7393
 6605TIP3   OH241373   2.525   2.748   0.368  0.4113  0.0026  0.7910
 6605TIP3    H141374   2.545   2.808   0.296 -0.5182 -1.3637 -0.6864
 6605TIP3    H241375   2.485   2.803   0.435  0.2876  1.1485 -0.1884
 6606TIP3   OH241376   5.457   5.530   1.775  0.1562  0.1956  0.5169
 6606TIP3    H141377   5.533   5.542   1.832  0.8829  1.8457 -0.7157
 6606TIP3    H241378   5.484   5.565   1.690 -1.6637 -0.0829 -0.2430
 6607TIP3   OH241379   1.680   6.076   8.457 -0.8208  0.4946 -0.3009
 6607TIP3    H141380   1.728   6.008   8.504  0.6231  1.7150  0.0945
 6607TIP3    H241381   1.598   6.085   8.504  0.2582  1.1321  1.5625
 6608TIP3   OH241382   6.177   3.819   8.646 -0.5023  0.0968 -0.6023
 6608TIP3    H141383   6.102   3.862   8.606 -1.3656 -1.7364 -1.0663
 6608TIP3    H241384   6.215   3.885   8.704 -1.3176  1.6811 -1.7845
 6609TIP3   OH241385   3.935   4.658   2.963 -0.7181  0.3276  0.4423
 6609TIP3    H141386   3.908   4.641   3.054  0.9368 -1.2298  0.6968
 6609TIP3    H241387   3.982   4.741   2.967 -1.1096  0.5355  0.8955
 6610TIP3   OH241388   1.684   0.177   0.174  0.3659  0.0277 -0.0448
 6610TIP3    H141389   1.606   0.134   0.138  0.9015  0.4208 -1.7650
 6610TIP3    H241390   1.654   0.264   0.199  0.3618  0.4028 -1.2902
 6611TIP3   OH241391   4.274   5.562   7.886  0.1180 -0.3047 -0.7916
 6611TIP3    H141392   4.326   5.616   7.826  0.1470  0.7497  0.1533
 6611TIP3    H241393   4.186   5.565   7.850  0.1304  0.3449 -0.7882
 6612TIP3   OH241394   3.211   3.190   0.560  0.0555  0.5305 -0.2135
 6612TIP3    H141395   3.122   3.223   0.574  0.7775  2.6824 -0.3262
 6612TIP3    H241396   3.238   3.157   0.645 -0.0747  1.9443  0.4043
 6613TIP3   OH241397   1.598   4.571   0.704 -0.0968 -0.0510  0.0220
 6613TIP3    H141398   1.546   4.503   0.746 -0.5541 -0.1277 -0.6657
 6613TIP3    H241399   1.684   4.530   0.691  0.0008 -0.0819  0.7207
 6614TIP3   OH241400   6.241   5.147   2.195  0.0938  0.1278 -0.2505
 6614TIP3    H141401   6.231   5.125   2.103  2.1400  0.9614 -0.7150
 6614TIP3    H241402   6.305   5.217   2.197 -1.9073  2.0902  1.6207
 6615TIP3   OH241403   0.328   3.702   8.409  0.1011 -0.7875  0.1520
 6615TIP3    H141404   0.372   3.652   8.340  0.0357 -0.7237  0.0637
 6615TIP3    H241405   0.235   3.697   8.387  0.2414  1.4960 -1.3049
 6616TIP3   OH241406   0.463   5.867   1.887 -0.3826 -0.0793 -0.1485
 6616TIP3    H141407   0.514   5.805   1.834 -0.4770 -0.3643  0.0941
 6616TIP3    H241408   0.493   5.853   1.977  0.3373  0.9458 -0.2100
 6617TIP3   OH241409   3.906   0.224   8.143  0.4574  0.0896  0.6877
 6617TIP3    H141410   3.895   0.312   8.179 -0.2371  0.1954  0.2373
 6617TIP3    H241411   3.846   0.221   8.068  2.1645  0.0315 -0.7472
 6618TIP3   OH241412   0.107   6.009   0.120 -0.2136 -0.2767 -0.3743
 6618TIP3    H141413   0.039   6.009   0.052 -0.0812  1.3819 -0.5432
 6618TIP3    H241414   0.081   6.079   0.180  0.3835 -0.8430  0.5640
 6619TIP3   OH241415   3.320   1.805   2.147 -0.1140 -0.4103  0.3660
 6619TIP3    H141416   3.226   1.792   2.139 -0.3931  1.1496  0.9211
 6619TIP3    H241417   3.347   1.835   2.060  0.5326 -4.1375 -0.9214
 6620TIP3   OH241418   2.668   2.412   1.330 -0.7115 -0.1052  0.4764
 6620TIP3    H141419   2.688   2.377   1.243 -1.2102 -0.6616  0.5763
 6620TIP3    H241420   2.604   2.350   1.366  0.2187 -0.4200  1.6350
 6621TIP3   OH241421   2.285   2.084   0.838  0.0408 -0.2277  0.1674
 6621TIP3    H141422   2.329   2.013   0.884 -0.0069  0.1502  0.8222
 6621TIP3    H241423   2.212   2.108   0.896 -0.6225 -0.4060 -0.5879
 6622TIP3   OH241424   0.742   1.049   2.846  0.4508  0.0386  0.1596
 6622TIP3    H141425   0.799   1.125   2.835  0.1164  0.2765  0.0934
 6622TIP3    H241426   0.697   1.064   2.929 -0.9080  0.7559 -0.6814
 6623TIP3   OH241427   6.165   0.058   8.761  0.0986 -0.5063  0.2404
 6623TIP3    H141428   6.250   0.081   8.801 -0.0964  1.0141 -0.1717
 6623TIP3    H241429   6.188   0.029   8.673  0.1263  0.8118 -0.1989
 6624TIP3   OH241430   0.993   3.782   3.351  0.3939 -0.0309  0.1314
 6624TIP3    H141431   1.056   3.804   3.282  0.1345 -0.6168 -0.3027
 6624TIP3    H241432   0.935   3.858   3.356  0.4486  0.0395 -0.2638
 6625TIP3   OH241433   3.762   2.533   7.715 -0.9659  0.1694 -0.0960
 6625TIP3    H141434   3.692   2.477   7.750 -1.0135 -0.0690 -0.5621
 6625TIP3    H241435   3.727   2.622   7.722 -1.0680  0.1017  0.2451
 6626TIP3   OH241436   4.941   1.129   1.956 -0.8851 -0.4638 -0.4598
 6626TIP3    H141437   4.868   1.150   2.014  0.0606  1.2087  0.2002
 6626TIP3    H241438   4.908   1.148   1.868 -2.8998 -4.5769 -0.8284
 6627TIP3   OH241439   5.505   3.982   2.666 -0.2417  0.3446 -0.2876
 6627TIP3    H141440   5.472   3.895   2.687  2.0123 -0.4598  0.2586
 6627TIP3    H241441   5.476   4.037   2.739 -1.8314  0.1328 -0.7256
 6628TIP3   OH241442   3.467   0.074   0.299 -0.9770  0.7924  0.5612
 6628TIP3    H141443   3.539   0.072   0.362  0.6199 -0.1100 -1.1994
 6628TIP3    H241444   3.424  -0.011   0.308  0.1572  0.0808 -0.5239
 6629TIP3   OH241445   2.197   2.187   8.346 -0.0442 -0.0595 -0.1764
 6629TIP3    H141446   2.250   2.241   8.405 -0.0239 -0.0737 -0.1818
 6629TIP3    H241447   2.244   2.191   8.262 -0.2870  0.2830 -0.2949
 6630TIP3   OH241448   3.388   0.366   7.938  0.0368  0.4212 -0.0583
 6630TIP3    H141449   3.307   0.331   7.899 -0.4828  2.4100 -0.8929
 6630TIP3    H241450   3.455   0.301   7.917 -0.7816  0.1053 -1.9192
 6631TIP3   OH241451   2.401   3.487   2.439  0.7040 -0.5452 -0.4515
 6631TIP3    H141452   2.497   3.485   2.444  0.7318 -0.2473 -0.8006
 6631TIP3    H241453   2.377   3.577   2.458  0.5722 -0.3462 -1.4608
 6632TIP3   OH241454   0.469   2.131   8.430  0.2333  0.0452  0.5520
 6632TIP3    H141455   0.396   2.193   8.437  0.7275  1.1549 -2.5383
 6632TIP3    H241456   0.431   2.054   8.386  0.9603  0.8952 -1.6925
 6633TIP3   OH241457   1.948   2.324   7.769 -0.1375  0.2848  0.0260
 6633TIP3    H141458   1.958   2.282   7.684 -1.9676 -0.1324 -0.0213
 6633TIP3    H241459   1.896   2.262   7.820 -0.6102  1.3384  0.8463
 6634TIP3   OH241460   1.862   1.635   0.447 -0.5317 -0.7480  0.2984
 6634TIP3    H141461   1.817   1.570   0.500  0.5166 -2.4024 -0.7344
 6634TIP3    H241462   1.836   1.615   0.357  1.2427 -0.9750 -0.2116
 6635TIP3   OH241463   2.582   6.418   1.332 -0.8540  0.2715 -0.2757
 6635TIP3    H141464   2.548   6.352   1.272 -0.1677 -0.2209 -0.1427
 6635TIP3    H241465   2.532   6.497   1.312 -1.3948 -0.1775 -0.7306
 6636TIP3   OH241466   1.032   1.130   8.249  0.1339 -0.1024 -0.7350
 6636TIP3    H141467   1.052   1.075   8.173  1.4346 -0.9090  0.1650
 6636TIP3    H241468   1.117   1.148   8.289 -0.5385  0.1958  0.6089
 6637TIP3   OH241469   4.958   2.949   2.438 -0.0072  0.0038 -0.1059
 6637TIP3    H141470   4.951   3.034   2.481  0.1516 -0.7015  1.3596
 6637TIP3    H241471   4.902   2.890   2.490 -1.3918 -0.4784 -2.0050
 6638TIP3   OH241472   2.834   4.186   1.997  0.0400 -0.0570  0.3293
 6638TIP3    H141473   2.744   4.174   2.028  0.4352  1.4036  2.2450
 6638TIP3    H241474   2.867   4.097   1.983 -1.8313 -0.6185 -0.9786
 6639TIP3   OH241475   5.582   3.422   0.774  0.2258 -0.0591 -0.2709
 6639TIP3    H141476   5.536   3.487   0.721  0.6665  1.1226  0.7481
 6639TIP3    H241477   5.513   3.366   0.810 -0.2161  0.3081 -0.5533
 6640TIP3   OH241478   4.211   2.666   0.314 -0.6699 -0.0662 -0.1713
 6640TIP3    H141479   4.188   2.574   0.329  0.6399 -0.1938  1.2350
 6640TIP3    H241480   4.254   2.667   0.228 -0.8603 -0.7197 -0.2774
 6641TIP3   OH241481   1.557   4.616   1.843 -0.1694 -0.0442  0.8956
 6641TIP3    H141482   1.634   4.644   1.892  0.0125  0.2052  0.4774
 6641TIP3    H241483   1.579   4.635   1.752 -0.7485  0.0809  0.7791
 6642TIP3   OH241484   2.778   6.357   2.015 -0.2476  0.1955 -0.4796
 6642TIP3    H141485   2.837   6.293   2.055  1.0106  0.6813 -1.4905
 6642TIP3    H241486   2.826   6.389   1.938 -0.3822  3.0938  0.5307
 6643TIP3   OH241487   1.014   6.636   2.989 -0.3096  0.0555  0.4303
 6643TIP3    H141488   1.078   6.578   3.031 -1.9387 -0.2522  2.6430
 6643TIP3    H241489   0.961   6.670   3.061 -1.1178  2.2048 -1.0962
 6644TIP3   OH241490   5.352   6.101   1.620 -0.6891 -0.7396  0.3702
 6644TIP3    H141491   5.349   6.176   1.680 -0.7933 -0.5827  0.1704
 6644TIP3    H241492   5.346   6.024   1.678 -0.3330 -0.6008  0.5916
 6645TIP3   OH241493   4.749   4.308   7.462 -0.5738 -0.1067 -0.5375
 6645TIP3    H141494   4.674   4.319   7.519 -0.3449  0.6642 -0.3704
 6645TIP3    H241495   4.814   4.262   7.515 -0.6580 -0.1172 -0.4451
 6646TIP3   OH241496   5.031   4.766   7.311  0.4490 -0.0713 -0.0468
 6646TIP3    H141497   5.105   4.827   7.307 -1.0181  1.8156 -0.0938
 6646TIP3    H241498   5.043   4.708   7.236 -0.2188  2.8521 -2.6427
 6647TIP3   OH241499   0.616   3.264   3.156 -0.0528  0.3106 -0.0387
 6647TIP3    H141500   0.577   3.251   3.242 -0.1632  2.1732  0.2224
 6647TIP3    H241501   0.648   3.354   3.157 -1.2395  0.8372 -2.3881
 6648TIP3   OH241502   2.775   2.844   0.222  0.4410  0.2459 -0.0408
 6648TIP3    H141503   2.769   2.804   0.309  0.2791  0.2707 -0.0419
 6648TIP3    H241504   2.785   2.937   0.239 -0.0074  0.2973 -0.0593
 6649TIP3   OH241505   4.958   3.552   8.637  0.1128 -0.4305  0.4327
 6649TIP3    H141506   4.987   3.532   8.726 -0.8356 -1.3687  0.5483
 6649TIP3    H241507   4.906   3.476   8.611 -0.5969  0.3509 -0.4890
 6650TIP3   OH241508   4.769   1.174   7.521  0.2599  0.2496 -0.4153
 6650TIP3    H141509   4.818   1.115   7.465  0.6795  2.7585 -2.9498
 6650TIP3    H241510   4.806   1.261   7.502 -1.2374  1.5354  2.0171
 6651TIP3   OH241511   4.169   1.390   2.797  0.6616 -0.1660 -0.5647
 6651TIP3    H141512   4.231   1.325   2.831  2.0923  1.3123 -0.2464
 6651TIP3    H241513   4.131   1.348   2.720  1.1504 -1.5771 -0.0781
 6652TIP3   OH241514   5.251   3.326   8.885 -0.0155 -0.5504  0.0116
 6652TIP3    H141515   5.208   3.408   8.909 -1.9226 -1.4298 -0.2012
 6652TIP3    H241516   5.198   3.291   8.813  1.5177 -1.3492 -0.7787
 6653TIP3   OH241517   3.815   4.216   7.287  0.4877  0.1525 -0.0913
 6653TIP3    H141518   3.754   4.280   7.324  1.0508 -0.2308  1.6026
 6653TIP3    H241519   3.842   4.255   7.204  0.0453  1.6389  0.4131
 6654TIP3   OH241520   1.678   5.173   1.386  0.3365  0.5356 -0.3632
 6654TIP3    H141521   1.689   5.086   1.425 -1.9266  0.8166  1.0774
 6654TIP3    H241522   1.729   5.169   1.305  0.6537 -1.9707 -0.1380
 6655TIP3   OH241523   6.677   5.562   1.076 -0.3743 -0.6163 -0.4844
 6655TIP3    H141524   6.752   5.564   1.017 -0.4728 -0.3194 -0.6002
 6655TIP3    H241525   6.607   5.607   1.028 -0.3628 -0.0995 -0.0239
 6656TIP3   OH241526   3.511   2.286   2.645  0.1996 -0.4924 -0.3056
 6656TIP3    H141527   3.463   2.353   2.692  0.2078 -0.4828 -0.3110
 6656TIP3    H241528   3.598   2.287   2.685  0.7061  0.6188 -1.3623
 6657TIP3   OH241529   3.825   0.686   1.139  0.4876  0.5885 -0.4928
 6657TIP3    H141530   3.911   0.692   1.181  0.3209 -0.6309  0.0508
 6657TIP3    H241531   3.828   0.605   1.089  0.7678  2.1062 -3.1278
 6658TIP3   OH241532   1.431   4.009   0.685  0.6396 -0.5917  0.2889
 6658TIP3    H141533   1.506   4.001   0.627  1.1267  0.2934  0.7692
 6658TIP3    H241534   1.432   4.101   0.713 -0.1008 -0.7841  0.9882
 6659TIP3   OH241535   2.774   5.528   7.101 -0.3903  0.3344  0.4966
 6659TIP3    H141536   2.840   5.583   7.060 -0.1732 -0.2095  0.1066
 6659TIP3    H241537   2.709   5.513   7.033 -0.9743  0.9416  0.9039
 6660TIP3   OH241538   0.743   1.921   2.309 -0.3575 -0.5302 -0.3274
 6660TIP3    H141539   0.663   1.972   2.299  0.3921  0.6632 -0.4636
 6660TIP3    H241540   0.764   1.891   2.221  1.6320  2.8205 -1.1894
 6661TIP3   OH241541   4.114   4.129   7.137  0.6112 -0.4385  0.1316
 6661TIP3    H141542   4.195   4.143   7.187  0.1700  0.8047  0.5425
 6661TIP3    H241543   4.089   4.217   7.107 -1.6847 -0.4428  1.7568
 6662TIP3   OH241544   4.157   1.166   2.199 -0.5129 -0.1475  0.6248
 6662TIP3    H141545   4.193   1.193   2.284  0.0356 -0.0664  0.3644
 6662TIP3    H241546   4.114   1.245   2.166 -1.8369 -0.5069  1.3928
 6663TIP3   OH241547   3.819   3.290   1.213 -0.1723 -0.3899  0.4653
 6663TIP3    H141548   3.853   3.201   1.216 -1.0996 -0.8630 -1.7543
 6663TIP3    H241549   3.726   3.281   1.234 -0.5208 -0.1325 -0.8934
 6664TIP3   OH241550   3.136   0.026   2.771  0.5604 -0.2115  0.1030
 6664TIP3    H141551   3.209   0.059   2.823 -0.0408  0.3688  0.6033
 6664TIP3    H241552   3.174  -0.041   2.715  1.7133  0.9111 -0.5063
 6665TIP3   OH241553   6.392   5.586   2.305  0.4403 -0.1934  0.3217
 6665TIP3    H141554   6.335   5.648   2.259  0.5065 -0.0888  0.3804
 6665TIP3    H241555   6.334   5.545   2.370  0.2914 -0.5093 -0.0092
 6666TIP3   OH241556   5.349   5.887   1.273 -0.2731 -0.3245  0.4265
 6666TIP3    H141557   5.427   5.913   1.223 -0.2645 -0.2197  0.4943
 6666TIP3    H241558   5.376   5.895   1.364  0.2583 -2.1677  0.4601
 6667TIP3   OH241559   3.658   4.889   0.901 -0.0894 -0.0676  0.1069
 6667TIP3    H141560   3.702   4.839   0.970 -0.0509  0.7987  0.7255
 6667TIP3    H241561   3.584   4.835   0.875 -1.4429  0.5610  2.4161
 6668TIP3   OH241562   5.096   6.340   8.175 -0.2297  0.5356 -0.3363
 6668TIP3    H141563   5.026   6.357   8.112  0.0654  0.2900 -0.7413
 6668TIP3    H241564   5.168   6.306   8.121 -0.4469 -0.9911  0.3070
 6669TIP3   OH241565   5.176   1.613   0.041  0.5375 -0.6473  0.0570
 6669TIP3    H141566   5.142   1.526   0.019  0.1251 -0.7952  1.2132
 6669TIP3    H241567   5.227   1.599   0.120  0.5794  0.1416  0.1717
 6670TIP3   OH241568   1.581   4.955   1.848  0.7916  0.1478  0.6065
 6670TIP3    H141569   1.671   4.953   1.882 -0.4054  1.6848  4.3556
 6670TIP3    H241570   1.576   5.036   1.798  2.1353 -1.3782 -2.3308
 6671TIP3   OH241571   3.436   1.388   8.454 -0.3345  0.4700  0.7968
 6671TIP3    H141572   3.383   1.461   8.484 -0.1529  1.3359 -0.8796
 6671TIP3    H241573   3.526   1.420   8.460 -0.2372  0.2956  0.2984
 6672TIP3   OH241574   2.242   1.083   0.438  0.3556 -0.1816  0.4395
 6672TIP3    H141575   2.189   1.163   0.442 -0.4809 -0.7105  0.1703
 6672TIP3    H241576   2.233   1.044   0.525 -1.3381 -1.2774 -0.1697
 6673TIP3   OH241577   4.189   1.201   1.616  0.0762  0.0982 -0.7820
 6673TIP3    H141578   4.165   1.116   1.653 -1.5386  0.1647 -1.5727
 6673TIP3    H241579   4.121   1.261   1.648  1.0498  1.0485 -0.4383
 6674TIP3   OH241580   3.418   6.409   1.353  0.0161 -0.4113 -0.7931
 6674TIP3    H141581   3.514   6.412   1.354  0.0647  0.8406  2.2139
 6674TIP3    H241582   3.392   6.496   1.325 -0.2058 -0.4291 -0.6485
 6675TIP3   OH241583   2.208   1.915   0.208  0.1481 -0.0389  0.6312
 6675TIP3    H141584   2.243   1.937   0.295 -0.2131  2.3448  0.2318
 6675TIP3    H241585   2.249   1.978   0.149  2.6564 -3.3811 -1.5576
 6676TIP3   OH241586   0.116   5.812   0.495 -0.2127  0.0872  0.3141
 6676TIP3    H141587   0.152   5.723   0.493  0.9312  0.4201  2.8663
 6676TIP3    H241588   0.187   5.868   0.465 -0.4958  0.2728 -0.0249
 6677TIP3   OH241589   4.878   3.703   7.481  0.0016  0.1664 -0.2769
 6677TIP3    H141590   4.809   3.661   7.431 -0.7289 -1.4163  1.9169
 6677TIP3    H241591   4.832   3.764   7.539  0.5410 -0.1613  0.5084
 6678TIP3   OH241592   5.489   2.993   8.692 -0.3323 -0.3029 -0.2706
 6678TIP3    H141593   5.410   2.983   8.746 -1.3497  1.0252 -1.4369
 6678TIP3    H241594   5.530   2.907   8.694 -3.1338 -1.8400 -1.5948
 6679TIP3   OH241595   1.166   0.357   2.975  0.2650  0.6367 -0.2898
 6679TIP3    H141596   1.174   0.274   3.022  0.1509  0.6301 -0.2819
 6679TIP3    H241597   1.251   0.370   2.933  0.0624  0.1795 -0.8507
 6680TIP3   OH241598   3.011   4.275   2.637 -0.2538 -0.0036  0.1773
 6680TIP3    H141599   3.028   4.210   2.569 -1.3057 -0.6653  0.5264
 6680TIP3    H241600   3.094   4.282   2.685 -0.4205 -1.8960  0.8134
 6681TIP3   OH241601   1.345   5.886   0.837 -0.2203  0.2032 -0.6080
 6681TIP3    H141602   1.261   5.930   0.846 -0.8428 -0.9902 -0.3833
 6681TIP3    H241603   1.326   5.793   0.852  0.4506 -0.6702 -4.2447
 6682TIP3   OH241604   1.159   6.636   2.264  0.0281  0.2349 -0.2303
 6682TIP3    H141605   1.230   6.605   2.208  0.3608  1.0962 -0.3088
 6682TIP3    H241606   1.168   6.731   2.264 -3.1429  0.7157 -2.9805
 6683TIP3   OH241607   3.054   5.037   0.752 -0.0895 -0.2541 -0.2613
 6683TIP3    H141608   3.123   5.102   0.751  1.2988 -1.6568 -0.9547
 6683TIP3    H241609   2.973   5.087   0.742  0.8920  1.3639 -0.4256
 6684TIP3   OH241610   6.180   6.797   8.479 -0.3220  0.0603 -0.4545
 6684TIP3    H141611   6.262   6.754   8.503 -1.1213 -0.8695  0.7483
 6684TIP3    H241612   6.204   6.856   8.408  1.1658 -1.0597 -0.9411
 6685TIP3   OH241613   4.382   0.121   8.316 -0.2243 -0.1562  0.5154
 6685TIP3    H141614   4.462   0.088   8.356  1.2119 -0.5114 -2.3440
 6685TIP3    H241615   4.319   0.050   8.327  0.1446 -0.2924  1.9092
 6686TIP3   OH241616   0.897   1.905   8.481  0.0921  0.0263  0.2011
 6686TIP3    H141617   0.874   1.965   8.552  0.4901  0.6239 -0.1572
 6686TIP3    H241618   0.888   1.818   8.519  1.5555  0.3512  1.4051
 6687TIP3   OH241619   1.710   6.154   0.043 -0.4761 -0.3533  0.0287
 6687TIP3    H141620   1.777   6.221   0.028 -0.8196  0.7533  2.7764
 6687TIP3    H241621   1.759   6.073   0.055  0.0558 -0.3374 -1.7619
 6688TIP3   OH241622   1.318   0.672   1.604 -0.2958 -0.0131 -0.0129
 6688TIP3    H141623   1.329   0.584   1.639  2.8433  0.0906 -0.4465
 6688TIP3    H241624   1.331   0.730   1.679  3.2271  0.1209 -0.5758
 6689TIP3   OH241625   4.887   2.103   3.011  0.7366 -0.0543 -0.4610
 6689TIP3    H141626   4.949   2.084   3.081  0.4640 -1.0873 -0.4847
 6689TIP3    H241627   4.811   2.049   3.031  1.2708 -1.6259 -2.3918
 6690TIP3   OH241628   1.007   6.640   8.476  0.4808 -0.0237  0.3275
 6690TIP3    H141629   1.027   6.600   8.560 -0.7873 -0.5923  0.3882
 6690TIP3    H241630   0.932   6.697   8.493  2.2698  2.4918  0.2434
 6691TIP3   OH241631   4.660   4.752   2.205 -0.2756  0.0303  0.1972
 6691TIP3    H141632   4.726   4.729   2.140 -0.0811 -2.1806  1.0794
 6691TIP3    H241633   4.592   4.686   2.195 -1.7089  1.4231  0.2767
 6692TIP3   OH241634   2.813   3.872   8.534 -0.2029 -0.0937 -0.5538
 6692TIP3    H141635   2.855   3.788   8.517  0.1309  0.4443 -2.7191
 6692TIP3    H241636   2.763   3.890   8.455  0.3319  2.0857 -0.4518
 6693TIP3   OH241637   2.193   5.504   1.898 -0.0175 -0.8742 -0.7816
 6693TIP3    H141638   2.202   5.508   1.803  1.6148 -3.3805 -0.7977
 6693TIP3    H241639   2.114   5.451   1.912 -0.2686 -0.4893 -0.6988
 6694TIP3   OH241640   4.971   2.580   7.929 -0.4987 -0.0318 -0.4024
 6694TIP3    H141641   4.876   2.575   7.916 -0.4678 -1.7445 -0.0946
 6694TIP3    H241642   4.994   2.502   7.978  0.9109  1.0215  0.7257
 6695TIP3   OH241643   5.670   3.367   1.196 -0.0176  0.3249 -0.2260
 6695TIP3    H141644   5.716   3.394   1.116  1.4919  1.2290  0.8848
 6695TIP3    H241645   5.621   3.445   1.223 -1.1885 -0.2363 -0.7061
 6696TIP3   OH241646   6.217   2.975   8.527  0.3198 -0.6995 -0.3184
 6696TIP3    H141647   6.130   2.988   8.564  0.8778  0.0956  0.7881
 6696TIP3    H241648   6.210   2.894   8.477 -1.6756  0.5352 -2.2421
 6697TIP3   OH241649   1.296   0.512   3.671 -0.3564  0.3444  0.2492
 6697TIP3    H141650   1.265   0.434   3.716  1.5273 -1.8546 -2.0098
 6697TIP3    H241651   1.365   0.547   3.729 -0.3251 -0.4163  0.6806
 6698TIP3   OH241652   1.086   4.156   8.606 -0.5677 -0.2636  0.7009
 6698TIP3    H141653   1.115   4.069   8.634  0.7422 -1.1781 -2.9049
 6698TIP3    H241654   1.154   4.216   8.638 -0.7414 -0.7550  2.0198
 6699TIP3   OH241655   2.030   3.279   8.339  0.4647  0.7146  0.5575
 6699TIP3    H141656   2.033   3.255   8.432  0.8135 -2.4264 -0.1528
 6699TIP3    H241657   1.941   3.258   8.311  0.4934  1.2199  0.0639
 6700TIP3   OH241658   5.884   6.173   2.274 -0.2797  0.6577 -0.8464
 6700TIP3    H141659   5.811   6.235   2.268 -0.7378  0.1993 -0.2125
 6700TIP3    H241660   5.960   6.227   2.291 -0.5980  1.0863 -0.7728
 6701TIP3   OH241661   3.124   1.631   6.761  0.3802 -0.0458  0.4701
 6701TIP3    H141662   3.118   1.566   6.832  2.1745 -2.6643 -1.5676
 6701TIP3    H241663   3.042   1.622   6.713  0.0803  0.1428  0.9447
 6702TIP3   OH241664   0.613   5.804   8.157 -0.3640 -0.2974  0.7885
 6702TIP3    H141665   0.533   5.756   8.135 -1.9565  2.1964  0.8299
 6702TIP3    H241666   0.593   5.847   8.240  0.5011  1.4433  0.1308
 6703TIP3   OH241667   0.603   4.535   1.299  0.3160 -0.1818 -0.2900
 6703TIP3    H141668   0.588   4.452   1.252 -1.5744 -1.7053  2.6818
 6703TIP3    H241669   0.531   4.591   1.272  0.1534 -0.4468 -0.4128
 6704TIP3   OH241670   4.380   0.400   8.284 -0.1001  0.6454 -0.1237
 6704TIP3    H141671   4.349   0.310   8.275 -0.0678  0.6645 -0.4599
 6704TIP3    H241672   4.475   0.393   8.288  0.1851  0.8573 -3.5176
 6705TIP3   OH241673   1.868   1.157   8.204  0.0165 -0.2884  0.1507
 6705TIP3    H141674   1.957   1.178   8.230  0.4802 -2.2173  0.2674
 6705TIP3    H241675   1.841   1.086   8.263 -2.7023  2.1100  2.0988
 6706TIP3   OH241676   3.017   3.609   1.552  0.0864 -0.8522  0.0208
 6706TIP3    H141677   2.999   3.590   1.459 -0.0614  0.1491 -0.1647
 6706TIP3    H241678   2.939   3.577   1.598  0.0668 -1.1605 -0.2230
 6707TIP3   OH241679   4.043   2.087   0.164 -0.0777  0.2740  0.1795
 6707TIP3    H141680   3.968   2.122   0.212 -0.5784 -0.5309 -0.0111
 6707TIP3    H241681   4.076   2.016   0.219  0.9657  1.0331  0.5874
 6708TIP3   OH241682   1.222   0.949   0.636  0.3437 -0.0162  0.4469
 6708TIP3    H141683   1.161   0.953   0.563 -1.0244  1.3877  1.5965
 6708TIP3    H241684   1.186   1.010   0.701  3.3183  1.3858  0.9492
 6709TIP3   OH241685   0.740   5.095   2.090 -0.1061 -0.0055  0.7119
 6709TIP3    H141686   0.768   5.133   2.007 -1.0049 -1.1773 -0.1529
 6709TIP3    H241687   0.792   5.016   2.100 -0.1848 -0.0078  1.1286
 6710TIP3   OH241688   4.306   1.600   2.444  0.0177 -0.0958 -0.0217
 6710TIP3    H141689   4.322   1.686   2.482 -2.3860 -0.0122  0.9621
 6710TIP3    H241690   4.372   1.543   2.484 -0.6708  0.5741  2.1890
 6711TIP3   OH241691   5.509   6.165   2.919  0.1638 -0.0727 -0.3719
 6711TIP3    H141692   5.486   6.166   3.012  1.4002  0.4446 -0.0402
 6711TIP3    H241693   5.558   6.247   2.906  0.3096 -0.3131 -1.3935
 6712TIP3   OH241694   2.637   5.446   0.417  0.2514  0.1118  0.4336
 6712TIP3    H141695   2.720   5.398   0.425 -0.7944 -1.5953  2.1021
 6712TIP3    H241696   2.609   5.432   0.327  1.3595 -0.0155  0.0970
 6713TIP3   OH241697   2.487   0.621   2.720 -0.4012 -0.6345 -0.0717
 6713TIP3    H141698   2.453   0.681   2.654  0.5110 -1.2781 -1.1607
 6713TIP3    H241699   2.582   0.623   2.708 -0.1431 -0.2662  1.6826
 6714TIP3   OH241700   6.467   3.924   8.542  0.0685 -0.0209 -0.2663
 6714TIP3    H141701   6.532   3.978   8.497 -0.2776  0.5563 -0.0941
 6714TIP3    H241702   6.482   3.940   8.635 -1.0565  1.0532 -0.2327
 6715TIP3   OH241703   1.277   1.866   0.373  0.5610  0.1264 -0.1973
 6715TIP3    H141704   1.193   1.873   0.417 -0.7060 -2.2794 -1.9783
 6715TIP3    H241705   1.284   1.947   0.321  0.1374  1.0477  1.1290
 6716TIP3   OH241706   0.967   0.113   7.334 -0.2257  0.0036 -0.0572
 6716TIP3    H141707   0.901   0.067   7.282  0.4733  0.0785 -1.0346
 6716TIP3    H241708   0.920   0.184   7.377 -1.0751 -0.8693  0.4815
 6717TIP3   OH241709   4.839   4.402   1.782  0.1305  0.2714  0.2024
 6717TIP3    H141710   4.927   4.430   1.806  0.0554 -0.0337  0.8444
 6717TIP3    H241711   4.793   4.391   1.865  0.1386 -1.7058  0.0076
 6718TIP3   OH241712   6.708   3.556   2.331 -0.3153 -0.8698 -0.0221
 6718TIP3    H141713   6.782   3.604   2.295 -0.7157 -0.8226 -0.8017
 6718TIP3    H241714   6.741   3.519   2.413 -0.3273  1.6485  1.2001
 6719TIP3   OH241715   0.452   2.476   0.153 -0.4690 -0.2435 -0.4292
 6719TIP3    H141716   0.469   2.395   0.103  2.6354  0.2476 -0.3698
 6719TIP3    H241717   0.527   2.532   0.133 -2.2606  2.4682 -0.0252
 6720TIP3   OH241718   2.890   3.981   1.348 -0.6723  0.0621 -0.0386
 6720TIP3    H141719   2.980   3.960   1.323 -0.4334  0.0313  0.7952
 6720TIP3    H241720   2.860   4.042   1.281  0.1803  0.5442  0.0010
 6721TIP3   OH241721   4.453   4.689   8.497 -0.4900 -0.5977 -0.4746
 6721TIP3    H141722   4.435   4.668   8.405  1.3515 -0.7128 -0.8412
 6721TIP3    H241723   4.479   4.781   8.496  0.6195 -0.8890 -0.2623
 6722TIP3   OH241724   5.076   0.488   1.318 -0.2996  0.3828  0.1409
 6722TIP3    H141725   5.168   0.484   1.344 -0.1459  1.5477 -0.1568
 6722TIP3    H241726   5.059   0.404   1.276  1.3705  1.0229 -2.0576
 6723TIP3   OH241727   3.682   0.271   7.600  0.4522 -0.1541  0.5639
 6723TIP3    H141728   3.645   0.339   7.544  0.6121 -0.4511  0.0864
 6723TIP3    H241729   3.753   0.314   7.646  0.6385 -0.0282  0.1667
 6724TIP3   OH241730   2.672   0.421   2.446 -0.3923 -0.4361  0.0146
 6724TIP3    H141731   2.702   0.507   2.418  0.0867 -0.7452 -0.4493
 6724TIP3    H241732   2.721   0.360   2.391 -0.7973 -1.0006  0.2722
 6725TIP3   OH241733   1.221   6.682   0.325  0.2975  0.2242 -0.0193
 6725TIP3    H141734   1.243   6.650   0.413 -0.1415  1.4963  0.5762
 6725TIP3    H241735   1.171   6.762   0.341  2.3007  1.8399 -1.4330
 6726TIP3   OH241736   3.114   5.413   0.640 -0.5724  0.2791  0.2487
 6726TIP3    H141737   3.177   5.455   0.700  0.5096 -0.6385 -0.2097
 6726TIP3    H241738   3.043   5.385   0.697  1.2662 -2.2372  1.5062
 6727TIP3   OH241739   3.888   3.186   0.156  0.6429  0.3487  0.5652
 6727TIP3    H141740   3.898   3.142   0.072  1.2548  1.3184  0.1073
 6727TIP3    H241741   3.795   3.206   0.162  0.4179 -0.6915  0.6268
 6728TIP3   OH241742   5.115   0.473   8.094 -0.3787  0.0624  0.2088
 6728TIP3    H141743   5.023   0.480   8.118 -0.3428  0.1570  0.3229
 6728TIP3    H241744   5.116   0.482   7.999 -0.7630 -2.7327 -0.1227
 6729TIP3   OH241745   6.503   1.111   1.635 -0.6207  0.1041  0.6585
 6729TIP3    H141746   6.518   1.205   1.642 -2.4465  0.3946  1.3846
 6729TIP3    H241747   6.513   1.078   1.724  1.5164 -0.6919  0.1740
 6730TIP3   OH241748   3.898   1.534   8.837  0.2690 -0.5873  0.4842
 6730TIP3    H141749   3.933   1.462   8.785  0.5854 -0.0988  0.0128
 6730TIP3    H241750   3.938   1.523   8.924  0.1582 -1.0908  0.4747
 6731TIP3   OH241751   5.210   6.076   2.308  0.2501 -0.1209  0.3666
 6731TIP3    H141752   5.148   6.059   2.237  0.5823 -0.0845  0.0611
 6731TIP3    H241753   5.161   6.129   2.370  0.1025  0.2803 -0.0812
 6732TIP3   OH241754   5.807   3.815   1.629 -0.1463 -0.1610  0.0731
 6732TIP3    H141755   5.845   3.865   1.702 -1.0727  0.4669  0.1443
 6732TIP3    H241756   5.729   3.865   1.603 -0.2408 -0.7627 -0.8728
 6733TIP3   OH241757   4.278   0.399   2.215 -0.7539 -0.0842 -0.2472
 6733TIP3    H141758   4.358   0.404   2.268 -0.2161 -1.2580 -0.9020
 6733TIP3    H241759   4.298   0.451   2.137 -0.5978 -0.4010 -0.4242
 6734TIP3   OH241760   3.164   6.240   0.983  1.2032  0.5473  0.6988
 6734TIP3    H141761   3.257   6.244   1.005  0.9727 -0.3776  1.9770
 6734TIP3    H241762   3.156   6.164   0.927  1.2540  0.7844  0.3687
 6735TIP3   OH241763   2.377   2.618   8.470 -0.3106 -0.1413 -0.1958
 6735TIP3    H141764   2.350   2.684   8.407 -0.5099  0.4721  0.5167
 6735TIP3    H241765   2.471   2.606   8.453 -0.5173 -0.5562 -1.1099
 6736TIP3   OH241766   3.111   0.099   1.845  0.3180  0.3157  0.3625
 6736TIP3    H141767   3.110   0.070   1.754  2.3099 -1.9981  0.9730
 6736TIP3    H241768   3.069   0.028   1.894 -0.5387  1.4300  1.3028
 6737TIP3   OH241769   6.520   4.603   0.694  0.5811 -0.3237 -0.0746
 6737TIP3    H141770   6.487   4.514   0.694  0.3988 -0.2766  1.0211
 6737TIP3    H241771   6.576   4.608   0.772  1.7558  0.1083 -0.9205
 6738TIP3   OH241772   3.099   1.357   0.424  0.6861 -0.1939  0.5925
 6738TIP3    H141773   3.189   1.338   0.451  0.9690 -2.4232 -1.4678
 6738TIP3    H241774   3.104   1.364   0.328 -1.6874 -3.7756 -0.0247
 6739TIP3   OH241775   4.763   6.272   0.086 -0.3500 -0.0794  0.1817
 6739TIP3    H141776   4.758   6.210   0.158 -1.4963 -0.6149 -0.3319
 6739TIP3    H241777   4.762   6.218   0.007  0.0579  0.5340 -0.2583
 6740TIP3   OH241778   0.995   1.271   1.762 -0.5763  0.2294 -0.1895
 6740TIP3    H141779   1.067   1.211   1.746  2.2363  2.4216  2.9317
 6740TIP3    H241780   0.976   1.263   1.855 -1.2210  2.8794  0.0003
 6741TIP3   OH241781   0.126   2.180   1.372  0.5048 -0.2677  0.1191
 6741TIP3    H141782   0.215   2.150   1.389  0.4651 -1.3080 -1.3370
 6741TIP3    H241783   0.131   2.222   1.287 -0.3217  0.0144  0.2020
 6742TIP3   OH241784   4.379   0.514   0.731  0.3945  0.1530  0.5067
 6742TIP3    H141785   4.314   0.576   0.763 -1.9172 -1.6239 -0.4256
 6742TIP3    H241786   4.336   0.470   0.657  2.7138 -1.0580 -0.2355
 6743TIP3   OH241787   3.653   6.080   1.252 -0.2335  0.3212 -0.4983
 6743TIP3    H141788   3.739   6.065   1.213 -0.2266  0.2736 -0.4645
 6743TIP3    H241789   3.671   6.118   1.338 -0.2138 -0.7032 -0.0333
 6744TIP3   OH241790   0.853   5.783   0.472  0.1551 -0.0857  0.9517
 6744TIP3    H141791   0.924   5.762   0.412 -0.7760 -2.9171  0.6742
 6744TIP3    H241792   0.881   5.864   0.515  2.3923  0.2044 -0.8473
 6745TIP3   OH241793   2.352   2.805   2.680  0.4336 -0.2138  0.2898
 6745TIP3    H141794   2.347   2.839   2.591  2.0359 -1.3313 -0.2848
 6745TIP3    H241795   2.336   2.880   2.736 -2.5847  0.1560 -0.8935
 6746TIP3   OH241796   0.281   6.637   0.909  0.2170 -0.0313 -0.2688
 6746TIP3    H141797   0.302   6.725   0.941  0.1245 -0.5014  1.1734
 6746TIP3    H241798   0.190   6.643   0.881  0.0453  0.2275  0.3179
 6747TIP3   OH241799   2.078   1.515   7.848 -0.3960  0.2291 -0.1668
 6747TIP3    H141800   2.036   1.431   7.864  1.8223 -0.4547  3.0063
 6747TIP3    H241801   2.065   1.564   7.929  1.2515  1.5962 -0.6610
 6748TIP3   OH241802   4.058   0.738   8.529 -0.0224  0.2488 -0.1248
 6748TIP3    H141803   3.966   0.714   8.539 -0.0200  0.7622  1.2826
 6748TIP3    H241804   4.097   0.722   8.614  0.6960  2.0939 -0.0567
 6749TIP3   OH241805   1.849   3.238   0.207  0.4130 -0.4006 -0.0348
 6749TIP3    H141806   1.867   3.164   0.149  0.3676 -0.2740 -0.2097
 6749TIP3    H241807   1.910   3.306   0.180  0.6015 -0.4464  0.2679
 6750TIP3   OH241808   6.324   1.445   1.279  0.3842 -0.0237  0.2067
 6750TIP3    H141809   6.340   1.351   1.267  0.6626  0.1342 -0.7106
 6750TIP3    H241810   6.327   1.481   1.191  5.1615  1.6827  0.8186
 6751TIP3   OH241811   0.137   4.164   8.387 -0.3056  0.0964  0.3143
 6751TIP3    H141812   0.058   4.218   8.384 -0.1606  0.3218  0.5213
 6751TIP3    H241813   0.126   4.101   8.316 -1.0760 -0.4322  0.8927
 6752TIP3   OH241814   4.001   2.736   7.766  0.0985 -0.0283  0.0108
 6752TIP3    H141815   4.046   2.677   7.705  1.9693  0.4152  0.8975
 6752TIP3    H241816   3.937   2.782   7.712  1.8602  0.5233 -1.7092
 6753TIP3   OH241817   2.362   0.385   1.892  0.2032  0.3043 -0.2352
 6753TIP3    H141818   2.406   0.344   1.967  2.0528 -1.6970 -2.2781
 6753TIP3    H241819   2.419   0.457   1.867  0.4714 -0.0653 -0.7064
 6754TIP3   OH241820   6.020   0.478   0.717 -0.2247 -0.4771 -0.0440
 6754TIP3    H141821   6.042   0.427   0.796  0.5904 -0.0616  0.0045
 6754TIP3    H241822   5.976   0.415   0.660 -0.2349 -0.9516  0.4765
 6755TIP3   OH241823   1.724   0.986   1.331  0.0642 -0.1910 -0.1814
 6755TIP3    H141824   1.781   1.016   1.401 -0.5980 -1.1460  0.7913
 6755TIP3    H241825   1.784   0.956   1.262  0.7546 -1.1319  0.8006
 6756TIP3   OH241826   4.689   6.671   0.939  0.3483 -0.7503  0.2834
 6756TIP3    H141827   4.705   6.765   0.948  0.5877 -0.7294 -0.3225
 6756TIP3    H241828   4.607   6.665   0.890  1.1137 -0.8470 -1.0146
 6757TIP3   OH241829   5.236   2.764   3.532 -0.5903 -0.1143 -0.1454
 6757TIP3    H141830   5.226   2.765   3.437 -1.6864 -1.0386 -0.0647
 6757TIP3    H241831   5.151   2.734   3.564  0.4028 -1.8555  1.0141
 6758TIP3   OH241832   5.812   0.785   1.142 -0.1664  0.0643  0.1129
 6758TIP3    H141833   5.737   0.782   1.202 -0.2560  0.2038  0.0093
 6758TIP3    H241834   5.868   0.853   1.179  0.0825 -0.2946  0.3926
 6759TIP3   OH241835   4.613   5.216   7.896  0.0399 -0.3379 -0.6452
 6759TIP3    H141836   4.564   5.255   7.969  1.1253 -1.5883  0.8092
 6759TIP3    H241837   4.615   5.285   7.830 -1.3975  0.6679  0.2863
 6760TIP3   OH241838   0.014   6.121   0.826  0.2334 -0.2791  0.1729
 6760TIP3    H141839   0.097   6.089   0.790  1.0061  0.9005  0.8264
 6760TIP3    H241840  -0.033   6.155   0.751 -0.2079 -2.0380 -0.3934
 6761TIP3   OH241841   6.467   4.266   0.384 -0.1471 -0.5461 -0.1416
 6761TIP3    H141842   6.375   4.293   0.379 -0.2524 -0.6217  1.1610
 6761TIP3    H241843   6.464   4.173   0.404  0.2259 -0.8620 -1.4769
 6762TIP3   OH241844   4.589   0.243   8.870 -0.3382 -0.1691 -0.1628
 6762TIP3    H141845   4.670   0.239   8.921 -1.2137  1.5509  1.4886
 6762TIP3    H241846   4.605   0.185   8.795  2.5604  0.4301 -0.1371
 6763TIP3   OH241847   0.967   0.846   7.720  0.7400 -0.5046  0.2714
 6763TIP3    H141848   1.035   0.896   7.765  0.7136 -0.1162 -0.1183
 6763TIP3    H241849   0.961   0.765   7.770 -0.0825  0.3735  1.6562
 6764TIP3   OH241850   5.302   0.317   2.844 -0.2280 -0.1187 -0.1295
 6764TIP3    H141851   5.260   0.307   2.929 -1.7984  0.8708 -0.7221
 6764TIP3    H241852   5.342   0.404   2.847 -2.9313  1.3188 -1.3439
 6765TIP3   OH241853   2.707   4.495   8.491 -0.1063  0.3292 -0.2138
 6765TIP3    H141854   2.796   4.510   8.458  0.1805  2.2994  1.2411
 6765TIP3    H241855   2.714   4.413   8.540  1.5681  1.5271  1.7495
 6766TIP3   OH241856   1.924   4.722   2.717 -0.0987  0.3993 -0.2973
 6766TIP3    H141857   1.941   4.767   2.799  2.2682  2.5861 -1.8164
 6766TIP3    H241858   1.929   4.629   2.739  2.1543  0.8951  1.7835
 6767TIP3   OH241859   6.223   3.806   3.138  0.2661  0.2778  0.4216
 6767TIP3    H141860   6.261   3.731   3.092  3.3180  1.4066  0.8249
 6767TIP3    H241861   6.287   3.877   3.126 -2.5183  2.9343 -0.0861
 6768TIP3   OH241862   1.764   2.824   2.137 -0.6864  0.0276  0.3582
 6768TIP3    H141863   1.843   2.788   2.176 -1.3379  0.1250  1.8473
 6768TIP3    H241864   1.716   2.862   2.211 -1.1550  1.8115 -0.7987
 6769TIP3   OH241865   1.430   6.768   8.422 -0.5309 -0.1075 -0.0906
 6769TIP3    H141866   1.388   6.690   8.386  0.0961 -0.1190 -0.8112
 6769TIP3    H241867   1.521   6.762   8.394 -0.4924  0.9215 -0.2196
 6770TIP3   OH241868   1.521   6.416   8.438  0.1635  0.1199  0.3085
 6770TIP3    H141869   1.497   6.366   8.360  1.7888 -0.0628 -0.1099
 6770TIP3    H241870   1.443   6.467   8.459 -0.8835 -1.1196 -0.4095
 6771TIP3   OH241871   4.875   0.150   8.300  0.1355 -0.2636  0.2489
 6771TIP3    H141872   4.912   0.079   8.352  0.6692 -2.0072 -2.2988
 6771TIP3    H241873   4.951   0.194   8.262 -0.0998  2.7122  2.8413
 6772TIP3   OH241874   3.741   1.083   3.241 -0.4614  0.0651 -0.1537
 6772TIP3    H141875   3.830   1.109   3.261 -0.5573 -0.6310  1.3175
 6772TIP3    H241876   3.732   0.996   3.281 -1.7007 -0.0044 -0.5412
 6773TIP3   OH241877   2.156   1.544   3.068 -0.0595  0.2980 -0.0982
 6773TIP3    H141878   2.124   1.555   3.158  0.3742  0.5088  0.0353
 6773TIP3    H241879   2.200   1.626   3.048  1.1729 -0.2949  0.0563
 6774TIP3   OH241880   0.616   1.168   0.033 -0.5220  0.0404 -0.7084
 6774TIP3    H141881   0.646   1.131  -0.050  0.1879  0.8995 -0.8482
 6774TIP3    H241882   0.677   1.239   0.052  0.3254 -1.1401  1.3607
 6775TIP3   OH241883   4.533   4.514   2.211 -0.2750 -0.0749 -0.2626
 6775TIP3    H141884   4.551   4.433   2.259 -1.9644  0.4334  1.3562
 6775TIP3    H241885   4.444   4.503   2.179 -0.2284  0.8216 -0.7257
 6776TIP3   OH241886   1.450   2.048   2.250 -0.0508 -0.2466 -0.4102
 6776TIP3    H141887   1.529   2.009   2.214 -1.0200 -2.8744  0.0468
 6776TIP3    H241888   1.436   2.002   2.333 -1.5027  0.8792  0.0252
 6777TIP3   OH241889   0.941   3.419   0.587 -0.0576 -0.0811 -0.0430
 6777TIP3    H141890   0.884   3.342   0.581 -0.0403 -0.0635 -0.4401
 6777TIP3    H241891   0.905   3.469   0.660  0.4208 -0.8679  0.7660
 6778TIP3   OH241892   0.698   2.254   2.996  0.1654 -0.1745 -1.0942
 6778TIP3    H141893   0.684   2.298   3.080 -0.5989 -1.2213 -0.6636
 6778TIP3    H241894   0.792   2.265   2.979  0.2677  0.3258 -0.2722
 6779TIP3   OH241895   6.214   3.021   3.067  0.4509  0.0272  0.1275
 6779TIP3    H141896   6.209   2.956   3.137 -1.4326  1.2937  1.2312
 6779TIP3    H241897   6.306   3.049   3.068  0.7483 -0.8788  1.2193
 6780TIP3   OH241898   2.149   1.341   2.376  0.1377 -0.0120  0.0522
 6780TIP3    H141899   2.194   1.297   2.305 -0.9903 -0.2777 -0.5282
 6780TIP3    H241900   2.114   1.421   2.336  0.7171  0.5673  0.6753
 6781TIP3   OH241901   6.537   0.383   8.344 -0.0582 -0.1628 -0.6222
 6781TIP3    H141902   6.565   0.474   8.338  0.7829 -0.4578 -1.5443
 6781TIP3    H241903   6.617   0.335   8.366 -0.7351 -0.5556  1.0686
 6782TIP3   OH241904   4.199   4.620   7.928 -0.0442  0.0508 -0.1456
 6782TIP3    H141905   4.239   4.669   7.999  0.9565 -0.1625 -0.5490
 6782TIP3    H241906   4.245   4.536   7.927  1.0734  0.6241 -2.0391
 6783TIP3   OH241907   5.843   0.561   2.956 -0.1641 -0.1446  0.0543
 6783TIP3    H141908   5.891   0.489   2.914 -0.4176  0.2283 -0.9131
 6783TIP3    H241909   5.825   0.529   3.044  0.3826 -0.9662 -0.1121
 6784TIP3   OH241910   0.147   6.620   3.592 -0.2537 -0.1011 -0.3647
 6784TIP3    H141911   0.094   6.691   3.626  0.9040  1.1722 -1.1201
 6784TIP3    H241912   0.104   6.540   3.623 -1.3207  0.9271  0.8733
 6785TIP3   OH241913   3.500   6.498   7.222 -0.1175 -0.2406 -0.0806
 6785TIP3    H141914   3.585   6.456   7.217 -0.5940 -1.1812 -0.4767
 6785TIP3    H241915   3.437   6.426   7.222 -1.0716  0.4782 -2.9059
 6786TIP3   OH241916   5.435   3.260   0.962  0.1494  0.4083  0.1004
 6786TIP3    H141917   5.491   3.285   1.036  0.9372 -1.5477  0.2226
 6786TIP3    H241918   5.457   3.169   0.945 -1.9146  0.0296 -0.8734
 6787TIP3   OH241919   0.164   5.225   7.364  0.1374 -0.3467 -0.0769
 6787TIP3    H141920   0.251   5.185   7.359 -0.0213 -0.5535 -1.6305
 6787TIP3    H241921   0.180   5.319   7.356  0.1854 -0.4167 -0.7989
 6788TIP3   OH241922   1.703   2.307   0.782 -0.0010 -0.1217 -0.3085
 6788TIP3    H141923   1.709   2.364   0.705 -0.9155  0.4919  0.0637
 6788TIP3    H241924   1.786   2.320   0.827 -0.4082  1.3774  0.0667
 6789TIP3   OH241925   2.098   5.153   8.696 -0.1833  0.2795 -0.3248
 6789TIP3    H141926   2.141   5.084   8.645 -1.2357  0.0120 -0.8642
 6789TIP3    H241927   2.102   5.230   8.640 -0.6477  0.1833 -0.4930
 6790TIP3   OH241928   4.171   6.667   8.659  0.7594  0.1013 -0.2919
 6790TIP3    H141929   4.140   6.617   8.735  0.5010 -0.2281 -0.6087
 6790TIP3    H241930   4.205   6.749   8.696  2.4375 -0.8469  0.3788
 6791TIP3   OH241931   1.768   4.664   7.391 -0.1037  0.7633  0.1064
 6791TIP3    H141932   1.726   4.665   7.477  0.4344  0.4729  0.3782
 6791TIP3    H241933   1.828   4.738   7.392  1.5797 -0.5465  0.8522
 6792TIP3   OH241934   0.768   0.846   7.525 -0.2097  0.4124 -0.3845
 6792TIP3    H141935   0.789   0.920   7.467  1.0088 -0.9719 -1.8155
 6792TIP3    H241936   0.826   0.858   7.600 -0.0066  0.9109 -0.6125
 6793TIP3   OH241937   3.462   4.443   0.854  0.1991 -0.7467  0.2043
 6793TIP3    H141938   3.551   4.467   0.830  0.3377 -1.0534  0.3985
 6793TIP3    H241939   3.435   4.508   0.918 -0.4660  0.5601 -1.3284
 6794TIP3   OH241940   4.281   0.649   8.240 -0.4914  0.2195  0.1888
 6794TIP3    H141941   4.188   0.642   8.259 -0.6080  1.9583  0.4526
 6794TIP3    H241942   4.319   0.567   8.270 -2.0289 -0.8120 -0.5777
 6795TIP3   OH241943   5.999   6.291   0.370 -0.3209 -0.4037  0.0437
 6795TIP3    H141944   6.039   6.376   0.387  0.8895 -0.7824 -0.7814
 6795TIP3    H241945   5.993   6.250   0.456  0.4735 -0.0667  0.2719
 6796TIP3   OH241946   1.193   4.865   8.106 -0.5261 -0.7578 -0.2966
 6796TIP3    H141947   1.224   4.800   8.043 -1.6678 -1.1100 -0.5111
 6796TIP3    H241948   1.099   4.849   8.114 -0.7928  0.6927 -0.1402
 6797TIP3   OH241949   1.170   4.197   8.311  0.5106  0.7642  0.1831
 6797TIP3    H141950   1.186   4.177   8.403 -0.5428 -0.3761  0.1422
 6797TIP3    H241951   1.084   4.239   8.310  0.2351  0.1995 -0.3399
 6798TIP3   OH241952   2.610   4.678   7.729 -0.1990 -0.4939 -0.1779
 6798TIP3    H141953   2.669   4.750   7.750  0.2293 -1.3272  1.6907
 6798TIP3    H241954   2.533   4.721   7.690  1.1150  0.6977 -1.5616
 6799TIP3   OH241955   3.481   1.454   2.706  0.4915 -0.3871 -0.2355
 6799TIP3    H141956   3.481   1.366   2.744 -0.0981  0.0415  0.8070
 6799TIP3    H241957   3.458   1.511   2.780  0.2618  0.5699 -1.0362
 6800TIP3   OH241958   2.313   4.338   0.013  0.1344  0.2376 -0.0459
 6800TIP3    H141959   2.343   4.413  -0.039  0.3260 -0.8718 -1.6291
 6800TIP3    H241960   2.393   4.293   0.040  0.0203  0.5572  0.8469
 6801TIP3   OH241961   3.424   0.930   1.721  0.1751 -0.8303  0.1899
 6801TIP3    H141962   3.360   0.948   1.652  2.6067  2.8226 -1.3939
 6801TIP3    H241963   3.385   0.968   1.800 -0.4771 -0.5296 -0.2698
 6802TIP3   OH241964   1.857   0.139   1.291 -0.1772 -0.5797  0.5304
 6802TIP3    H141965   1.867   0.113   1.199 -2.3883  0.8027 -0.1794
 6802TIP3    H241966   1.873   0.233   1.291  2.8398 -0.9720  2.1891
 6803TIP3   OH241967   1.936   1.965   0.319 -0.2292  0.2977 -0.2519
 6803TIP3    H141968   1.903   2.019   0.248  0.1461 -0.0030 -0.6595
 6803TIP3    H241969   2.018   1.928   0.285 -0.1469  0.0001  0.2617
 6804TIP3   OH241970   0.354   4.782   7.936 -0.1572  0.4484 -0.5342
 6804TIP3    H141971   0.432   4.754   7.983  0.7951 -0.8043 -2.7197
 6804TIP3    H241972   0.338   4.871   7.967  0.4376 -0.2302  1.9959
 6805TIP3   OH241973   0.803   0.644   1.630 -0.1244 -0.4840  0.0283
 6805TIP3    H141974   0.847   0.730   1.629  0.2343 -0.6365 -2.2828
 6805TIP3    H241975   0.731   0.655   1.692 -1.7194  2.3839 -2.0791
 6806TIP3   OH241976   0.301   3.408   3.223  0.0563  0.0198 -0.2252
 6806TIP3    H141977   0.276   3.355   3.299  1.2361  0.2139  0.3264
 6806TIP3    H241978   0.384   3.449   3.249  1.0176 -0.7036 -1.9894
 6807TIP3   OH241979   1.454   2.923   0.948 -0.6195 -0.5259  0.2988
 6807TIP3    H141980   1.417   2.999   0.991 -0.2175 -0.7303  1.0146
 6807TIP3    H241981   1.506   2.880   1.015 -0.9440 -1.5044 -0.0584
 6808TIP3   OH241982   5.868   2.194   7.545  0.6112 -0.4228 -0.0422
 6808TIP3    H141983   5.963   2.178   7.544  0.7353  0.2958 -0.1863
 6808TIP3    H241984   5.830   2.107   7.533  1.2263 -0.8777  1.1044
 6809TIP3   OH241985   0.082   5.672   2.524  0.0086  0.5649  0.0084
 6809TIP3    H141986   0.136   5.618   2.466 -0.9131 -0.9850  0.5240
 6809TIP3    H241987   0.005   5.693   2.471 -0.6602 -0.5333  0.5310
 6810TIP3   OH241988   4.356   0.656   1.646 -0.4387  0.0725  0.0794
 6810TIP3    H141989   4.290   0.591   1.670 -1.8089  0.3338 -2.4980
 6810TIP3    H241990   4.315   0.705   1.574  2.3836  0.6014 -1.2955
 6811TIP3   OH241991   1.094   2.639   8.692 -0.0666 -0.1724 -0.1110
 6811TIP3    H141992   1.063   2.658   8.603  0.4475 -2.1119 -0.7440
 6811TIP3    H241993   1.190   2.644   8.685 -0.0243  2.1097  0.9696
 6812TIP3   OH241994   0.363   5.699   7.497  0.2718  0.1610  0.0573
 6812TIP3    H141995   0.457   5.718   7.496  0.4025 -0.4792 -0.8651
 6812TIP3    H241996   0.330   5.739   7.417 -0.9265  3.5061  2.0336
 6813TIP3   OH241997   1.415   0.378   2.903  0.0738  0.1297  0.1198
 6813TIP3    H141998   1.449   0.300   2.860  0.4630 -0.4745  1.5047
 6813TIP3    H241999   1.488   0.441   2.899  0.0676  0.1228 -0.1814
 6814TIP3   OH242000   3.671   2.049   8.168 -0.1798  0.3688  0.1409
 6814TIP3    H142001   3.763   2.054   8.140  0.1758  1.2101  1.3831
 6814TIP3    H242002   3.621   2.067   8.089  0.7089 -0.3024 -0.6035
 6815TIP3   OH242003   0.417   2.717   2.160  0.2775 -0.0363 -0.2818
 6815TIP3    H142004   0.365   2.644   2.127  1.7087 -0.7281 -1.1085
 6815TIP3    H242005   0.399   2.788   2.098  1.5206 -0.7697 -1.5527
 6816TIP3   OH242006   2.339   5.208   7.606  0.4786  0.1523 -0.4952
 6816TIP3    H142007   2.391   5.247   7.535 -2.0853  1.9458 -1.5409
 6816TIP3    H242008   2.251   5.201   7.570 -0.2787 -1.7870  1.5428
 6817TIP3   OH242009   4.046   2.059   3.249 -0.3201 -0.5097 -1.0010
 6817TIP3    H142010   4.085   1.976   3.223  0.2929 -0.2236 -1.0289
 6817TIP3    H242011   4.120   2.110   3.283 -1.0495 -0.8387  1.2546
 6818TIP3   OH242012   1.546   2.081   1.510 -0.2243 -0.0793  0.1716
 6818TIP3    H142013   1.476   2.136   1.476 -1.3963 -0.5109  1.7729
 6818TIP3    H242014   1.566   2.118   1.596 -0.4536 -1.6117  0.9166
 6819TIP3   OH242015   3.537   4.222   1.477  0.5482  0.3012 -0.4247
 6819TIP3    H142016   3.510   4.202   1.387 -0.9901  0.8612 -0.1148
 6819TIP3    H242017   3.623   4.181   1.486 -0.4590 -2.1865 -1.2879
 6820TIP3   OH242018   4.854   5.216   7.066 -0.1275  0.3952  0.5857
 6820TIP3    H142019   4.801   5.216   7.146 -0.1843 -1.4488  0.6030
 6820TIP3    H242020   4.933   5.166   7.089 -1.4105 -2.7859 -1.1793
 6821TIP3   OH242021   4.009   0.520   2.648  0.3438 -0.1960 -0.5096
 6821TIP3    H142022   4.091   0.549   2.690  0.3589  0.5837 -1.0531
 6821TIP3    H242023   4.029   0.519   2.555 -0.8166  1.9939 -0.8568
 6822TIP3   OH242024   0.232   5.304   2.381  0.6900  0.4656  0.3306
 6822TIP3    H142025   0.189   5.333   2.301 -2.7941 -0.6033  1.6358
 6822TIP3    H242026   0.299   5.370   2.398  1.3589  0.8958 -3.2019
 6823TIP3   OH242027   1.392   6.222   8.256  0.0211 -0.3541  0.1328
 6823TIP3    H142028   1.297   6.231   8.254  0.0826  0.2220 -1.2121
 6823TIP3    H242029   1.407   6.144   8.309 -1.2564 -1.1042 -0.5509
 6824TIP3   OH242030   0.099   4.057   0.349 -0.2067  0.7791 -0.2214
 6824TIP3    H142031   0.057   4.143   0.342 -1.4833  0.4548  2.2265
 6824TIP3    H242032   0.051   4.013   0.419  1.0285 -1.5953 -0.7607
 6825TIP3   OH242033   0.925   5.081   1.576 -0.0222  0.2819  0.9643
 6825TIP3    H142034   0.931   5.002   1.522 -1.9460 -0.0066  1.0946
 6825TIP3    H242035   1.015   5.100   1.601  0.4089 -3.1345  2.6886
 6826TIP3   OH242036   3.632   3.299   7.331 -0.3980 -0.5047 -0.0195
 6826TIP3    H142037   3.558   3.293   7.271 -1.2795 -0.0517  0.9779
 6826TIP3    H242038   3.679   3.378   7.304 -1.0191 -0.0771  0.1273
 6827TIP3   OH242039   4.309   3.804   2.343  0.2973 -0.2035  0.1875
 6827TIP3    H142040   4.356   3.784   2.262  1.9181 -0.6668  1.1814
 6827TIP3    H242041   4.278   3.719   2.375  0.0237 -0.0754  0.2696
 6828TIP3   OH242042   4.254   4.614   2.442  0.0828  0.1814  0.1901
 6828TIP3    H142043   4.245   4.708   2.427 -0.6633 -0.0957 -1.2315
 6828TIP3    H242044   4.345   4.594   2.419 -0.3540  0.2039 -1.6810
 6829TIP3   OH242045   0.424   5.636   1.545  0.0673  0.2005 -0.1477
 6829TIP3    H142046   0.455   5.575   1.477  1.0802 -0.8205  1.1922
 6829TIP3    H242047   0.502   5.656   1.597 -0.1459  3.0110 -0.7710
 6830TIP3   OH242048   3.347   5.155   8.868  0.0127 -0.1158 -0.2856
 6830TIP3    H142049   3.360   5.115   8.953  1.4442  1.2891  0.2081
 6830TIP3    H242050   3.329   5.247   8.887  0.5423  0.2609 -1.4845
 6831TIP3   OH242051   3.949   2.936   2.316 -0.4482 -0.0672  0.2363
 6831TIP3    H142052   3.953   2.887   2.234 -1.5067  1.1365 -0.5719
 6831TIP3    H242053   3.875   2.897   2.363  0.5090 -1.1413  0.9231
 6832TIP3   OH242054   2.501   5.942   0.511  0.4617 -0.2807  0.0981
 6832TIP3    H142055   2.493   6.034   0.486  1.4165 -0.2535 -0.1129
 6832TIP3    H242056   2.481   5.893   0.430  0.0390 -0.2687  0.1895
 6833TIP3   OH242057   3.671   5.090   1.331 -0.3365  0.4095  0.2318
 6833TIP3    H142058   3.625   5.070   1.249  1.1676  0.6860 -0.7252
 6833TIP3    H242059   3.637   5.027   1.394  0.4358 -1.6911 -1.3201
 6834TIP3   OH242060   1.767   3.041   8.499 -0.6350 -0.0062 -0.0451
 6834TIP3    H142061   1.782   2.994   8.417 -3.2110 -0.9870 -0.0446
 6834TIP3    H242062   1.837   3.012   8.557  1.6022  1.1443 -1.9954
 6835TIP3   OH242063   6.264   1.426   8.481  0.5698  1.0871 -0.3836
 6835TIP3    H142064   6.203   1.468   8.421  0.8095  2.3532  0.2325
 6835TIP3    H242065   6.346   1.475   8.470  0.4411  1.7815  1.4265
 6836TIP3   OH242066   5.310   6.450   2.699  0.2050 -0.5232  0.0207
 6836TIP3    H142067   5.371   6.502   2.647 -1.9684  0.6213 -1.5782
 6836TIP3    H242068   5.279   6.509   2.767  0.6109 -0.9892  0.6192
 6837TIP3   OH242069   5.482   3.568   1.180 -0.1628 -0.3875  0.0829
 6837TIP3    H142070   5.477   3.619   1.099 -1.5428  0.1940  0.4907
 6837TIP3    H242071   5.430   3.619   1.243  0.2787 -1.1922  1.1284
 6838TIP3   OH242072   0.937   4.052   2.541 -0.3109  0.8187 -0.5749
 6838TIP3    H142073   0.861   4.105   2.565  0.8681  1.8653  1.0348
 6838TIP3    H242074   0.957   4.001   2.620  0.4516  0.3095 -1.0829
 6839TIP3   OH242075   5.826   3.559   2.339  0.4988 -0.9922 -0.3545
 6839TIP3    H142076   5.885   3.626   2.305 -2.4166  2.2198  0.2354
 6839TIP3    H242077   5.820   3.579   2.433 -4.4315  1.8542 -0.8871
 6840TIP3   OH242078   0.030   3.063   8.507 -0.4231  0.4328  0.0478
 6840TIP3    H142079  -0.035   3.050   8.439  0.1945 -0.0202 -0.4752
 6840TIP3    H242080  -0.020   3.083   8.586 -1.3668 -2.3004  0.2512
 6841TIP3   OH242081   3.486   0.543   7.699 -0.2940 -0.2350  0.1671
 6841TIP3    H142082   3.501   0.518   7.608  1.1660  2.4485 -0.4551
 6841TIP3    H242083   3.458   0.463   7.743 -0.1754 -1.7938 -2.4474
 6842TIP3   OH242084   3.374   1.823   1.584 -0.1734  0.0886 -0.1472
 6842TIP3    H142085   3.282   1.804   1.562  0.4265 -0.5059 -2.4265
 6842TIP3    H242086   3.412   1.738   1.607 -0.2147  0.3618  0.9756
 6843TIP3   OH242087   2.818   2.916   3.046 -0.5195  0.1367  0.4999
 6843TIP3    H142088   2.753   2.897   3.114 -1.7378 -0.5433 -0.7870
 6843TIP3    H242089   2.768   2.963   2.978  0.9344  1.9259  0.5884
 6844TIP3   OH242090   1.472   3.917   2.409 -0.5624  0.0252  0.0595
 6844TIP3    H142091   1.465   3.986   2.343 -0.5135 -1.1503 -1.2294
 6844TIP3    H242092   1.555   3.874   2.391  0.7472  1.2910  2.5857
 6845TIP3   OH242093   0.941   1.690   1.268 -0.1558 -0.8844  0.2340
 6845TIP3    H142094   0.887   1.718   1.342  1.2816  0.3631  0.8771
 6845TIP3    H242095   1.026   1.669   1.308  0.6851 -0.0804 -1.0605
 6846TIP3   OH242096   3.253   0.250   8.168 -0.2705  0.1911 -0.1381
 6846TIP3    H142097   3.308   0.294   8.103 -0.2655  1.0599  0.4435
 6846TIP3    H242098   3.164   0.279   8.147 -0.6487 -1.6778 -1.4598
 6847TIP3   OH242099   5.676   4.002   0.624  0.0473  0.3375  0.3358
 6847TIP3    H142100   5.716   3.920   0.653 -0.9618  0.3283  1.8179
 6847TIP3    H242101   5.741   4.069   0.644  1.3772 -0.1664 -1.9764
 6848TIP3   OH242102   0.815   3.083   3.062  0.0336  0.3431 -0.1015
 6848TIP3    H142103   0.737   3.126   3.096  0.0427 -0.0949  0.4929
 6848TIP3    H242104   0.846   3.029   3.134  1.9016  1.8436  0.3183
 6849TIP3   OH242105   2.515   0.583   8.838 -0.1653 -0.0703 -0.2566
 6849TIP3    H142106   2.434   0.532   8.842 -1.0792  1.3862  0.8326
 6849TIP3    H242107   2.517   0.617   8.749 -1.6151  1.1656  0.1486
 6850TIP3   OH242108   4.469   5.232   8.573  0.2797  0.1501  0.3123
 6850TIP3    H142109   4.429   5.311   8.536 -1.0556 -0.7062 -0.1628
 6850TIP3    H242110   4.556   5.260   8.602 -0.8615  2.2578  1.9868
 6851TIP3   OH242111   0.946   1.891   1.648  0.1338  0.0552  0.2196
 6851TIP3    H142112   1.007   1.904   1.721  0.5207 -0.0308 -0.0872
 6851TIP3    H242113   0.996   1.914   1.570 -0.6872  1.5043  0.0784
 6852TIP3   OH242114   0.523   5.025   7.802  0.2192  0.3049 -0.2014
 6852TIP3    H142115   0.437   5.065   7.787  0.5042  0.4490 -1.6433
 6852TIP3    H242116   0.566   5.082   7.865 -0.5933  0.4385  0.2515
 6853TIP3   OH242117   2.838   4.234   0.776 -0.2133  0.1646  0.3550
 6853TIP3    H142118   2.751   4.248   0.812  0.5038  0.4865  2.0586
 6853TIP3    H242119   2.853   4.311   0.721 -0.5032  0.7517  1.0841
 6854TIP3   OH242120   4.786   0.403   1.706 -0.2844 -0.1446  0.1831
 6854TIP3    H142121   4.785   0.352   1.787  0.1235  0.2205  0.4234
 6854TIP3    H242122   4.870   0.381   1.666  0.4094  1.1797  0.8443
 6855TIP3   OH242123   0.604   0.790   0.340  0.1031 -0.1845 -0.3191
 6855TIP3    H142124   0.652   0.710   0.364 -0.9861 -0.7904 -0.0699
 6855TIP3    H242125   0.635   0.811   0.252  1.4904 -0.0235  0.1847
 6856TIP3   OH242126   3.403   2.328   8.215 -0.3773  0.1337 -0.1073
 6856TIP3    H142127   3.331   2.286   8.261 -1.0561  0.1018 -1.1571
 6856TIP3    H242128   3.426   2.268   8.144  0.3641  0.3657 -0.0808
 6857TIP3   OH242129   6.222   4.232   3.329  0.3258 -0.0935 -0.2230
 6857TIP3    H142130   6.142   4.219   3.278 -0.9810 -1.8736  2.0630
 6857TIP3    H242131   6.283   4.167   3.295  0.2078  0.1022 -0.8294
 6858TIP3   OH242132   0.999   6.412   1.091 -0.5729  0.9743  0.0772
 6858TIP3    H142133   0.946   6.378   1.018  1.3969  0.3759 -1.1461
 6858TIP3    H242134   0.993   6.344   1.158 -0.2594  0.2570 -0.5994
 6859TIP3   OH242135   1.766   0.407   8.700 -0.1574 -0.3687 -0.2900
 6859TIP3    H142136   1.835   0.377   8.760  0.1976 -0.9685 -0.9813
 6859TIP3    H242137   1.811   0.424   8.618 -0.1285  3.2676  0.3340
 6860TIP3   OH242138   2.653   4.201   1.388 -0.6533  0.2272  0.1901
 6860TIP3    H142139   2.582   4.222   1.449 -0.5139  0.6767  0.2008
 6860TIP3    H242140   2.733   4.214   1.439 -0.5635 -1.8048  0.6826
 6861TIP3   OH242141   5.201   6.277   7.900 -0.3063  0.5278 -0.2798
 6861TIP3    H142142   5.155   6.260   7.818 -1.6461  1.0292  0.3438
 6861TIP3    H242143   5.274   6.335   7.876  0.1001 -0.3763 -1.3008
 6862TIP3   OH242144   2.190   5.575   6.981 -0.2928  0.0152 -0.0240
 6862TIP3    H142145   2.098   5.549   6.978 -0.2897  0.1138 -1.4166
 6862TIP3    H242146   2.194   5.657   6.931  0.4645  0.3215  0.5097
 6863TIP3   OH242147   5.318   1.212   0.664  0.2317  0.1798  0.1232
 6863TIP3    H142148   5.356   1.135   0.622  1.0200  0.3648  0.4660
 6863TIP3    H242149   5.256   1.247   0.600  0.9706  0.1148 -0.6451
 6864TIP3   OH242150   0.752   1.270   3.407 -0.0474 -0.1278  0.0420
 6864TIP3    H142151   0.663   1.252   3.437  0.2601 -1.8315  0.0531
 6864TIP3    H242152   0.808   1.241   3.479  0.5549  0.1181 -0.3193
 6865TIP3   OH242153   3.905   0.183   8.775 -0.1063  0.5630 -0.3108
 6865TIP3    H142154   3.866   0.126   8.841 -1.7450  2.5370  0.5518
 6865TIP3    H242155   3.874   0.148   8.691  0.4706 -0.8771  0.0537
 6866TIP3   OH242156   0.571   3.840   1.871 -0.6598  0.1430  0.2234
 6866TIP3    H142157   0.515   3.915   1.848  0.1108  0.5402 -0.4217
 6866TIP3    H242158   0.596   3.857   1.962 -0.7149  0.5269  0.1721
 6867TIP3   OH242159   0.877   5.434   7.418  0.1563 -0.1063 -0.3856
 6867TIP3    H142160   0.834   5.399   7.340  1.2256 -2.2915 -0.0604
 6867TIP3    H242161   0.970   5.432   7.397  0.4729 -0.9541  1.0325
 6868TIP3   OH242162   4.270   0.449   0.464 -0.9291 -0.2567  0.0987
 6868TIP3    H142163   4.223   0.412   0.389 -0.0631 -0.3440 -0.4153
 6868TIP3    H242164   4.359   0.413   0.457  0.4399  2.9447 -1.2915
 6869TIP3   OH242165   2.712   0.079   3.543  0.1887 -0.0467  0.2802
 6869TIP3    H142166   2.657   0.038   3.609  0.8211  0.9104  1.4460
 6869TIP3    H242167   2.798   0.038   3.555  0.3139  0.1561  0.0782
 6870TIP3   OH242168   5.100   5.567   8.563  0.8943 -0.2921  0.1145
 6870TIP3    H142169   5.106   5.501   8.632 -0.0583  0.4642  0.9524
 6870TIP3    H242170   5.042   5.529   8.497  0.2307 -0.2427  0.6621
 6871TIP3   OH242171   0.828   4.240   8.510 -0.2395  0.1641 -0.4910
 6871TIP3    H142172   0.919   4.244   8.536  0.1415 -1.4885 -1.4095
 6871TIP3    H242173   0.784   4.193   8.580  0.3629 -2.3139 -1.6831
 6872TIP3   OH242174   2.242   1.560   2.768 -0.0832  0.3349  0.7636
 6872TIP3    H142175   2.220   1.640   2.816  1.5736  0.1834  1.8458
 6872TIP3    H242176   2.159   1.512   2.764 -0.6120  1.0612  2.1641
 6873TIP3   OH242177   5.683   5.052   7.613  0.6057 -0.4926  0.3516
 6873TIP3    H142178   5.607   5.008   7.575  1.7763 -1.8547 -0.5424
 6873TIP3    H242179   5.671   5.144   7.591 -0.7664 -0.6843  0.2218
 6874TIP3   OH242180   5.945   1.681   7.592  0.7212 -0.2612  0.3344
 6874TIP3    H142181   5.911   1.626   7.522 -0.0233 -1.7740  1.8028
 6874TIP3    H242182   6.018   1.631   7.629  0.6453  0.1712  1.0972
 6875TIP3   OH242183   2.381   5.349   7.840 -0.1624  0.0605  0.2321
 6875TIP3    H142184   2.298   5.395   7.838 -0.0682  0.2741  1.1908
 6875TIP3    H242185   2.375   5.286   7.767 -0.4198  1.3222 -0.8738
 6876TIP3   OH242186   6.210   0.761   3.563 -0.3200  0.3602 -0.0824
 6876TIP3    H142187   6.192   0.670   3.538 -0.8944  1.2530 -3.3996
 6876TIP3    H242188   6.124   0.803   3.561  0.1052  1.2519  0.0793
 6877TIP3   OH242189   5.590   6.451   0.268  0.2403 -0.1805  0.7684
 6877TIP3    H142190   5.660   6.491   0.319  0.9049 -1.4062  0.8477
 6877TIP3    H242191   5.610   6.474   0.177 -1.4091  2.7322  1.0174
 6878TIP3   OH242192   4.428   2.051   1.667 -0.5455 -0.0508  0.2680
 6878TIP3    H142193   4.421   2.137   1.624 -1.9043  0.2450  1.0068
 6878TIP3    H242194   4.435   2.071   1.760 -0.7238 -0.7425  0.4374
 6879TIP3   OH242195   2.767   2.088   0.123  0.4274 -0.4172 -0.4583
 6879TIP3    H142196   2.727   2.015   0.076 -0.6240 -1.0343  1.3223
 6879TIP3    H242197   2.770   2.060   0.214 -1.4484  2.3104  0.5702
 6880TIP3   OH242198   5.343   2.622   1.647  0.8475 -0.2668 -0.0571
 6880TIP3    H142199   5.248   2.616   1.645  0.6993  1.2078  0.8412
 6880TIP3    H242200   5.373   2.543   1.603 -0.7764 -1.3035  0.5926
 6881TIP3   OH242201   4.270   4.834   8.712  0.2205 -0.0112  0.3931
 6881TIP3    H142202   4.241   4.921   8.738  1.7524  0.7861 -0.4275
 6881TIP3    H242203   4.359   4.847   8.678 -0.2244 -1.5813 -1.5704
 6882TIP3   OH242204   4.314   0.600   8.638 -0.4090  0.0072 -0.3169
 6882TIP3    H142205   4.293   0.685   8.677 -0.0604  1.0596 -2.2878
 6882TIP3    H242206   4.409   0.598   8.632 -0.1874 -1.7077  2.0655
 6883TIP3   OH242207   5.233   6.523   8.700 -0.1114  0.4924  0.2468
 6883TIP3    H142208   5.268   6.438   8.725 -1.6002  0.0326  0.9083
 6883TIP3    H242209   5.156   6.534   8.756 -1.4419  1.1035 -1.6057
 6884TIP3   OH242210   3.747   5.461   0.342 -0.4570 -0.2367  0.0356
 6884TIP3    H142211   3.732   5.376   0.381 -0.5094 -0.8644 -1.2808
 6884TIP3    H242212   3.660   5.491   0.315 -0.4406  0.2452  0.5010
 6885TIP3   OH242213   0.717   6.679   0.302  0.1262  0.1678 -0.4465
 6885TIP3    H142214   0.731   6.766   0.339 -0.1671 -0.5620  1.4833
 6885TIP3    H242215   0.797   6.661   0.251  1.3498  0.5294  1.2858
 6886TIP3   OH242216   5.978   4.832   2.801 -0.2726  0.3413  0.6062
 6886TIP3    H142217   6.001   4.807   2.891  0.7785  0.7322  0.4620
 6886TIP3    H242218   5.941   4.920   2.810  1.2233  1.0099  0.5179
 6887TIP3   OH242219   5.539   3.968   8.374  0.6157 -0.5383 -0.3135
 6887TIP3    H142220   5.447   3.993   8.385  0.8411 -0.2003  1.0959
 6887TIP3    H242221   5.540   3.873   8.390  0.6503 -0.3619  0.8452
 6888TIP3   OH242222   4.081   4.332   1.005 -0.3435  0.2027  0.0942
 6888TIP3    H142223   4.106   4.424   0.995  0.1244 -0.0233 -0.8871
 6888TIP3    H242224   4.133   4.285   0.940 -0.2034 -0.8304  0.9301
 6889TIP3   OH242225   0.882   3.855   2.359  0.1891 -0.1507  0.0294
 6889TIP3    H142226   0.796   3.867   2.319  0.5554  1.3843 -0.3438
 6889TIP3    H242227   0.894   3.932   2.414  0.6136 -1.1930  1.4544
 6890TIP3   OH242228   4.991   1.420   0.358 -0.1352 -0.2862  0.3365
 6890TIP3    H142229   4.994   1.509   0.391  0.9247 -0.1494 -0.0928
 6890TIP3    H242230   4.951   1.427   0.271 -1.9492 -0.5170  1.0904
 6891TIP3   OH242231   2.661   0.625   2.134  0.4951 -0.3815 -0.4376
 6891TIP3    H142232   2.693   0.651   2.048  0.4224 -0.1933 -0.4089
 6891TIP3    H242233   2.566   0.619   2.124  0.5806 -1.5848 -0.6950
 6892TIP3   OH242234   1.433   5.235   0.221  0.1139 -0.2679  0.1348
 6892TIP3    H142235   1.490   5.210   0.149  1.8857  0.2593  1.2830
 6892TIP3    H242236   1.375   5.160   0.234  0.3525 -0.7121 -1.2231
 6893TIP3   OH242237   1.705   5.218   0.398 -0.7339  0.0825 -0.2800
 6893TIP3    H142238   1.614   5.243   0.384 -1.7025 -2.3226  1.1507
 6893TIP3    H242239   1.732   5.268   0.475 -1.7966 -1.1760  0.9675
 6894TIP3   OH242240   0.603   6.788   3.132 -0.3839 -0.1746  0.2101
 6894TIP3    H142241   0.579   6.866   3.182  0.8925  0.9005 -0.7716
 6894TIP3    H242242   0.523   6.765   3.083 -1.4441 -0.8555  2.1605
 6895TIP3   OH242243   2.328   0.503   7.852 -0.3262 -0.4632  0.2219
 6895TIP3    H142244   2.269   0.444   7.899  0.3348 -0.7723  0.6880
 6895TIP3    H242245   2.274   0.543   7.784 -1.3146  0.0081  1.2562
 6896TIP3   OH242246   2.003   2.330   1.258  0.2529  0.0605  0.4120
 6896TIP3    H142247   1.933   2.395   1.263  0.0643 -0.0660 -0.3753
 6896TIP3    H242248   1.997   2.282   1.340 -0.3637  0.2804  0.5006
 6897TIP3   OH242249   4.624   1.509   2.458 -0.0150 -0.0883 -0.3004
 6897TIP3    H142250   4.704   1.457   2.460 -1.2459 -2.0996 -0.6493
 6897TIP3    H242251   4.636   1.569   2.384  1.8517  0.8907  0.7259
 6898TIP3   OH242252   6.464   5.091   2.951 -0.6202  0.2665 -0.2334
 6898TIP3    H142253   6.415   5.148   3.010  0.4176 -0.1182  1.0692
 6898TIP3    H242254   6.555   5.097   2.982 -0.3895 -1.6200 -0.3900
 6899TIP3   OH242255   5.682   1.828   2.093 -0.5781 -0.0441 -0.2704
 6899TIP3    H142256   5.600   1.782   2.112  0.3379 -1.7205 -0.2613
 6899TIP3    H242257   5.663   1.877   2.013 -1.5533 -0.5031 -0.3391
 6900TIP3   OH242258   6.790   4.481   0.819  0.6103  0.2889  0.6026
 6900TIP3    H142259   6.879   4.454   0.841  1.0291  1.9729  1.1018
 6900TIP3    H242260   6.734   4.422   0.871  1.3762 -1.1576 -0.1472
 6901TIP3   OH242261   3.614   3.052   2.602 -0.3148  0.2326  0.0690
 6901TIP3    H142262   3.610   3.016   2.690  0.2503 -0.1576 -0.0576
 6901TIP3    H242263   3.584   3.142   2.611  1.4312  0.7719  0.9858
 6902TIP3   OH242264   5.473   1.108   8.494  0.2302 -0.1551  0.0353
 6902TIP3    H142265   5.412   1.106   8.568  1.3383 -0.5967  0.9771
 6902TIP3    H242266   5.533   1.180   8.515  1.0152 -0.7760 -0.0438
 6903TIP3   OH242267   6.609   1.945   1.386  0.2430 -0.4647  0.4065
 6903TIP3    H142268   6.610   1.896   1.468  2.4045 -0.3106  0.5212
 6903TIP3    H242269   6.632   2.034   1.411  1.3082 -0.4999 -0.3877
 6904TIP3   OH242270   4.637   5.028   8.754  0.2372  0.5109  0.7111
 6904TIP3    H142271   4.681   5.112   8.741  0.8051  0.1684  0.3586
 6904TIP3    H242272   4.618   5.025   8.848  0.9939  0.6547  0.8747
 6905TIP3   OH242273   0.253   6.378   1.485  0.1553 -0.2941  0.1321
 6905TIP3    H142274   0.184   6.411   1.428 -0.8999  2.8008  2.8462
 6905TIP3    H242275   0.222   6.290   1.511 -0.9379 -0.4170 -1.4506
 6906TIP3   OH242276   4.135   6.169   3.200 -0.0340 -0.0220 -0.5042
 6906TIP3    H142277   4.218   6.188   3.242 -1.1900  0.8780  1.5136
 6906TIP3    H242278   4.143   6.078   3.172  1.4722 -0.0799  0.0326
 6907TIP3   OH242279   5.007   6.176   2.110 -0.0074  0.4237 -0.2582
 6907TIP3    H142280   4.978   6.261   2.144 -0.4792  0.0587  0.2697
 6907TIP3    H242281   5.090   6.195   2.066  0.3031  1.0213  0.5617
 6908TIP3   OH242282   1.950   6.629   0.066 -0.3153  0.0516  0.5138
 6908TIP3    H142283   2.036   6.632   0.106  0.3867 -1.2937 -0.8058
 6908TIP3    H242284   1.967   6.635  -0.028 -1.3412 -3.3590 -0.0179
 6909TIP3   OH242285   2.677   3.528   8.456 -0.3826 -0.2532  0.5370
 6909TIP3    H142286   2.622   3.567   8.523  0.8457  0.3389  1.2342
 6909TIP3    H242287   2.761   3.512   8.500  0.7763  1.0310 -1.0913
 6910TIP3   OH242288   4.653   0.316   8.283 -0.2828 -0.3450 -0.4444
 6910TIP3    H142289   4.660   0.335   8.190  0.8853 -0.7032 -0.4404
 6910TIP3    H242290   4.708   0.239   8.296 -0.1217 -0.0669  0.6105
 6911TIP3   OH242291   0.771   2.327   0.169  0.1936  0.0307 -0.0935
 6911TIP3    H142292   0.760   2.339   0.264 -0.0141 -0.2705 -0.0796
 6911TIP3    H242293   0.730   2.404   0.131 -1.7726 -0.9286 -0.0333
 6912TIP3   OH242294   3.048   4.966   1.146 -0.1499 -0.7482 -0.1410
 6912TIP3    H142295   3.003   4.886   1.175 -0.5030 -0.3490  0.4314
 6912TIP3    H242296   3.013   5.035   1.202  1.3847 -0.4578  0.5166
 6913TIP3   OH242297   2.677   1.858   8.180  0.4987 -0.7081  0.1134
 6913TIP3    H142298   2.714   1.771   8.163  0.3011 -0.7851  0.0798
 6913TIP3    H242299   2.683   1.904   8.097  0.7925 -0.6198  0.1821
 6914TIP3   OH242300   1.802   0.417   1.950  0.0649 -0.4562 -0.0107
 6914TIP3    H142301   1.711   0.397   1.973  0.1099 -3.1171 -1.6947
 6914TIP3    H242302   1.809   0.512   1.959 -3.2217 -0.0003 -0.9103
 6915TIP3   OH242303   3.009   6.143   1.208  0.3233  0.4996  0.0370
 6915TIP3    H142304   3.019   6.207   1.137 -2.3348  1.4196  0.3591
 6915TIP3    H242305   2.965   6.192   1.278 -2.6595 -1.7805 -0.0497
 6916TIP3   OH242306   2.407   3.013   0.398 -0.3878  0.0313 -0.1033
 6916TIP3    H142307   2.497   3.044   0.400  0.1880 -1.2971  3.8823
 6916TIP3    H242308   2.355   3.088   0.427 -0.1077 -0.1236  0.8348
 6917TIP3   OH242309   2.385   4.560   8.741 -0.0055  0.4094 -0.4054
 6917TIP3    H142310   2.444   4.618   8.694  0.9132 -0.4382 -0.3256
 6917TIP3    H242311   2.341   4.616   8.805  0.3856  1.1303 -0.7652
 6918TIP3   OH242312   3.172   5.638   1.311  0.3733 -0.2342  0.0546
 6918TIP3    H142313   3.131   5.570   1.257  0.4761 -1.8871  1.9363
 6918TIP3    H242314   3.101   5.669   1.368  0.3415  1.2618 -0.7434
 6919TIP3   OH242315   1.474   5.369   2.413 -0.0953  0.4962  0.2990
 6919TIP3    H142316   1.461   5.311   2.339  4.0808  0.0091 -0.3150
 6919TIP3    H242317   1.453   5.456   2.380 -1.6196 -0.0910 -0.3288
 6920TIP3   OH242318   0.066   4.734   1.213 -0.5543  0.0477 -0.0947
 6920TIP3    H142319   0.011   4.661   1.184 -1.1683  0.5192 -0.1448
 6920TIP3    H242320   0.023   4.766   1.293  0.2552 -0.2572  0.4747
 6921TIP3   OH242321   2.079   4.933   2.296  0.1643  0.5626 -0.4501
 6921TIP3    H142322   2.110   4.925   2.386 -0.7623  1.2382 -0.0571
 6921TIP3    H242323   2.128   5.007   2.260  1.2599 -0.3269 -0.8330
 6922TIP3   OH242324   5.089   3.431   1.119  0.4967  0.1640  0.3094
 6922TIP3    H142325   5.121   3.442   1.029 -0.9948 -0.8776 -0.3728
 6922TIP3    H242326   5.087   3.520   1.154  0.1721  0.6968 -1.0156
 6923TIP3   OH242327   3.419   5.849   7.868 -0.5807  0.7067 -0.4998
 6923TIP3    H142328   3.360   5.781   7.835 -0.2965 -0.6620  1.6295
 6923TIP3    H242329   3.506   5.810   7.863 -0.4917  0.5764  1.3985
 6924TIP3   OH242330   2.437   0.621   0.811 -0.1057  0.3751 -0.2734
 6924TIP3    H142331   2.347   0.653   0.803 -0.5485 -0.3406  1.3371
 6924TIP3    H242332   2.489   0.699   0.828 -0.7287  0.5908  0.7233
 6925TIP3   OH242333   1.978   1.500   7.562  0.1689  0.0807  0.1488
 6925TIP3    H142334   1.955   1.421   7.513 -0.8109  0.1261  0.5287
 6925TIP3    H242335   1.958   1.480   7.653  0.8422  0.4311  0.3880
 6926TIP3   OH242336   1.463   0.013   0.100  0.3215 -0.3469 -0.1481
 6926TIP3    H142337   1.501  -0.043   0.033 -0.5394  0.1093 -1.0383
 6926TIP3    H242338   1.373  -0.018   0.110  0.2045  0.0956  0.2262
 6927TIP3   OH242339   3.581   2.719   7.840  0.1094 -0.0350 -0.9811
 6927TIP3    H142340   3.599   2.713   7.934 -1.5820 -0.0064 -0.6217
 6927TIP3    H242341   3.619   2.803   7.814  0.2657  0.1321 -0.2421
 6928TIP3   OH242342   4.221   2.727   8.128 -0.2152 -0.4613  0.0753
 6928TIP3    H142343   4.242   2.659   8.063  1.4775 -0.6322  0.7471
 6928TIP3    H242344   4.287   2.715   8.196 -0.1849  1.5451  0.4409
 6929TIP3   OH242345   3.101   1.548   0.203 -0.3514  0.1172  0.8936
 6929TIP3    H142346   3.094   1.609   0.277 -1.3843  0.8601  0.2206
 6929TIP3    H242347   3.181   1.574   0.158 -0.2671  0.3483  1.1725
 6930TIP3   OH242348   5.721   1.978   7.536  0.2015 -0.6714 -0.0171
 6930TIP3    H142349   5.635   1.941   7.555 -0.4769 -0.0084 -1.5996
 6930TIP3    H242350   5.748   1.937   7.454  0.1860  1.0262 -0.9243
 6931TIP3   OH242351   0.616   5.415   0.984  0.2854 -0.1881 -0.3091
 6931TIP3    H142352   0.585   5.327   0.963 -0.7488 -0.8916  3.4163
 6931TIP3    H242353   0.692   5.400   1.041  0.0838  1.2978  0.3923
 6932TIP3   OH242354   0.844   6.019   8.146 -0.4363  0.0929 -0.2619
 6932TIP3    H142355   0.835   6.064   8.062  2.1772  1.3489  0.0273
 6932TIP3    H242356   0.767   6.046   8.196 -2.2444 -0.9485 -2.2781
 6933TIP3   OH242357   6.325   2.032   3.537  0.0436 -0.7093 -0.2715
 6933TIP3    H142358   6.409   2.071   3.514 -0.9189  0.3481 -2.2805
 6933TIP3    H242359   6.301   1.980   3.461 -1.5979 -0.1297 -0.1947
 6934TIP3   OH242360   5.962   3.328   2.122  0.2316 -0.0418 -0.0350
 6934TIP3    H142361   5.881   3.304   2.077 -0.9548 -0.4526  2.1752
 6934TIP3    H242362   5.970   3.264   2.193  0.3941  2.2002  2.1049
 6935TIP3   OH242363   5.382   3.530   3.169  0.0277 -0.1250  0.0829
 6935TIP3    H142364   5.474   3.556   3.162  0.8422 -1.3667  3.9432
 6935TIP3    H242365   5.385   3.434   3.174 -1.7172 -0.3169 -1.3660
 6936TIP3   OH242366   6.394   3.300   7.505  0.3273  0.5923  0.2553
 6936TIP3    H142367   6.415   3.391   7.527  0.5005  0.8308 -0.8665
 6936TIP3    H242368   6.479   3.258   7.494  0.2819  0.9173 -1.6790
 6937TIP3   OH242369   3.363   2.964   0.084 -0.2208 -0.4888  0.2761
 6937TIP3    H142370   3.294   2.902   0.062  0.1370 -1.2316  1.1828
 6937TIP3    H242371   3.320   3.027   0.142 -0.6904  0.3871 -0.9769
 6938TIP3   OH242372   6.715   3.766   8.282  0.2044 -0.3023 -0.1218
 6938TIP3    H142373   6.685   3.709   8.211 -0.7993  0.8247 -0.6316
 6938TIP3    H242374   6.709   3.711   8.360 -0.1329 -1.0917 -0.6839
 6939TIP3   OH242375   0.914   5.340   0.294 -0.4573 -0.2203  0.2463
 6939TIP3    H142376   1.010   5.345   0.289 -0.3486 -0.1079  1.9452
 6939TIP3    H242377   0.897   5.284   0.370 -1.7288  1.7158  1.4571
 6940TIP3   OH242378   6.420   4.396   1.143  0.2486 -0.0398  0.2772
 6940TIP3    H142379   6.468   4.372   1.222 -0.5029 -1.0965  0.4461
 6940TIP3    H242380   6.328   4.387   1.168 -0.0435  1.4943 -0.1648
 6941TIP3   OH242381   6.473   1.181   8.510  0.3530 -0.4515  0.6655
 6941TIP3    H142382   6.546   1.242   8.502 -2.0626  2.3962 -2.7459
 6941TIP3    H242383   6.504   1.100   8.469  2.6890 -0.6630  2.6717
 6942TIP3   OH242384   2.785   0.618   0.920  0.1420  0.2071  0.2209
 6942TIP3    H142385   2.706   0.669   0.937  0.3874  0.6914 -0.0601
 6942TIP3    H242386   2.805   0.635   0.828 -0.2493 -1.0715 -0.1333
 6943TIP3   OH242387   1.428   3.466   0.581 -0.2306  0.2614 -0.0299
 6943TIP3    H142388   1.342   3.445   0.618 -0.9122  1.4888 -0.8424
 6943TIP3    H242389   1.464   3.534   0.638 -0.6275  1.0692 -0.7104
 6944TIP3   OH242390   4.251   3.516   8.788  0.4683 -0.2487 -0.1733
 6944TIP3    H142391   4.308   3.442   8.808  1.5379  0.7784  0.6857
 6944TIP3    H242392   4.171   3.499   8.839  1.4691  0.1374  1.5960
 6945TIP3   OH242393   6.193   3.289   8.576 -0.2930  0.5145  0.3066
 6945TIP3    H142394   6.156   3.376   8.559  0.2710  0.5166 -1.0964
 6945TIP3    H242395   6.126   3.228   8.546 -0.3847  0.4727  0.5941
 6946TIP3   OH242396   5.342   3.015   1.855 -0.1175 -0.0148 -0.2124
 6946TIP3    H142397   5.379   3.069   1.785 -0.0864 -1.6518 -1.5039
 6946TIP3    H242398   5.401   2.940   1.861 -0.4567 -0.1948  1.1880
 6947TIP3   OH242399   3.031   1.151   2.760  0.5039  0.1910  0.2770
 6947TIP3    H142400   2.963   1.183   2.821 -0.3145 -0.9340 -0.0177
 6947TIP3    H242401   3.108   1.138   2.815  0.5115  1.4785  0.6244
 6948TIP3   OH242402   5.054   5.849   8.584  0.5476 -0.2469 -0.1368
 6948TIP3    H142403   5.063   5.754   8.590 -3.6782 -0.8914 -1.2165
 6948TIP3    H242404   5.042   5.867   8.491  0.7608  1.3030  0.1056
 6949TIP3   OH242405   5.548   0.358   0.891  0.1883  0.2382 -0.8988
 6949TIP3    H142406   5.599   0.435   0.867 -0.0909  0.1015 -1.9854
 6949TIP3    H242407   5.552   0.302   0.814 -1.5105  0.1790 -0.9711
 6950TIP3   OH242408   6.250   3.097   7.678  0.1600 -0.1851 -0.3215
 6950TIP3    H142409   6.176   3.043   7.651  1.2450 -1.6135 -0.5614
 6950TIP3    H242410   6.251   3.170   7.616 -0.1777 -0.9247 -1.2085
 6951TIP3   OH242411   4.452   1.624   8.594  0.6008 -0.2301  0.1445
 6951TIP3    H142412   4.500   1.643   8.674  1.5908 -0.2763 -0.4190
 6951TIP3    H242413   4.518   1.629   8.525  0.2653 -2.4972 -0.4135
 6952TIP3   OH242414   5.095   5.126   1.200 -0.3194  0.1692 -0.5164
 6952TIP3    H142415   5.060   5.155   1.115 -2.7467 -0.5581  0.1733
 6952TIP3    H242416   5.049   5.180   1.264 -1.0336 -1.5665  0.4945
 6953TIP3   OH242417   5.683   6.324   1.977 -0.0253  0.1777 -0.6353
 6953TIP3    H142418   5.658   6.257   2.040  1.8595 -0.1196 -0.1393
 6953TIP3    H242419   5.665   6.407   2.021  0.0087 -0.0226 -0.2460
 6954TIP3   OH242420   2.993   3.141   0.205  0.0960  0.4850  0.0669
 6954TIP3    H142421   3.075   3.097   0.228  0.2920  0.2429 -1.0188
 6954TIP3    H242422   2.933   3.120   0.277  0.8863  0.4100  0.7185
 6955TIP3   OH242423   0.572   0.490   8.879 -0.2218  0.1473 -0.1818
 6955TIP3    H142424   0.640   0.458   8.820  1.1699 -1.1208  1.9355
 6955TIP3    H242425   0.533   0.410   8.916 -0.6733  0.8651  0.9654
 6956TIP3   OH242426   3.213   5.960   1.160  0.5993 -0.4992 -0.1702
 6956TIP3    H142427   3.290   6.013   1.182  0.7140 -0.8061  0.1804
 6956TIP3    H242428   3.141   6.023   1.154  0.7402 -0.2974  0.2144
 6957TIP3   OH242429   1.228   4.196   7.942 -0.0104 -0.1405  0.1980
 6957TIP3    H142430   1.153   4.234   7.896 -0.0138  0.9340  1.0719
 6957TIP3    H242431   1.305   4.236   7.900  0.0987 -1.1068 -0.5773
 6958TIP3   OH242432   3.434   1.405   8.143 -0.1155 -0.5058 -0.8769
 6958TIP3    H142433   3.391   1.478   8.098 -1.7840 -0.4806  0.6883
 6958TIP3    H242434   3.384   1.392   8.223  1.4412 -2.0017 -0.0745
 6959TIP3   OH242435   1.767   2.623   0.862  0.0419  0.4720  0.4358
 6959TIP3    H142436   1.714   2.560   0.912 -0.8410  0.3052 -0.6571
 6959TIP3    H242437   1.825   2.662   0.926 -0.0638 -0.7716  1.3235
 6960TIP3   OH242438   5.933   1.825   2.593  0.2012  0.0511 -0.1254
 6960TIP3    H142439   5.878   1.875   2.533  1.7861  0.9623 -0.8843
 6960TIP3    H242440   5.982   1.892   2.642  0.6436 -0.7306  0.5220
 6961TIP3   OH242441   6.193   4.417   1.761  0.5223  0.3577  0.4776
 6961TIP3    H142442   6.145   4.412   1.844 -0.0612  0.4565  0.1529
 6961TIP3    H242443   6.164   4.498   1.721  1.1155  0.5165  0.3584
 6962TIP3   OH242444   3.343   5.948   3.064 -0.2994  0.2386  0.6753
 6962TIP3    H142445   3.387   5.865   3.047 -0.2240  0.0128  1.8642
 6962TIP3    H242446   3.352   5.961   3.159 -1.0260  1.1953  0.6320
 6963TIP3   OH242447   2.093   0.679   1.384  0.2924 -0.0516 -0.3153
 6963TIP3    H142448   2.121   0.641   1.301 -1.1380  0.7871 -1.2219
 6963TIP3    H242449   2.011   0.635   1.405  0.7997 -0.4916  0.8419
 6964TIP3   OH242450   4.763   4.050   1.740  0.0146  0.3617 -0.5054
 6964TIP3    H142451   4.815   3.971   1.757 -1.3524 -0.1574  1.6368
 6964TIP3    H242452   4.768   4.100   1.821 -2.1718  0.6367 -0.4784
 6965TIP3   OH242453   0.498   4.323   1.117  0.1488 -0.2969 -0.6198
 6965TIP3    H142454   0.432   4.271   1.163 -0.4021 -0.5811 -1.7039
 6965TIP3    H242455   0.547   4.260   1.065  0.0267  0.1551 -1.2985
 6966TIP3   OH242456   6.570   1.375   1.087  0.4258  0.2746 -0.6068
 6966TIP3    H142457   6.522   1.456   1.103 -0.2020 -0.3738  1.0057
 6966TIP3    H242458   6.638   1.373   1.154  0.6912 -0.3383 -0.8811
 6967TIP3   OH242459   5.625   1.046   1.143  0.0914 -0.0520  0.0103
 6967TIP3    H142460   5.545   1.092   1.169  0.3405  0.7175 -0.5491
 6967TIP3    H242461   5.601   0.998   1.064  1.1877  3.6682 -2.8913
 6968TIP3   OH242462   5.502   1.266   2.109 -0.1413 -0.4688  0.4216
 6968TIP3    H142463   5.449   1.234   2.182  1.9678 -0.9157  1.8882
 6968TIP3    H242464   5.569   1.321   2.152 -0.8508  2.1342 -1.5541
 6969TIP3   OH242465   0.442   3.528   2.080  0.7645  0.4343  0.6153
 6969TIP3    H142466   0.362   3.479   2.099  0.8585 -0.3367 -0.8352
 6969TIP3    H242467   0.415   3.595   2.017  1.2125  0.2896  0.2601
 6970TIP3   OH242468   4.998   5.527   1.352  0.2597 -0.5082 -0.6562
 6970TIP3    H142469   4.908   5.501   1.335  0.4241 -0.9532 -0.8603
 6970TIP3    H242470   5.044   5.445   1.370  0.9825 -0.4836 -2.1878
 6971TIP3   OH242471   2.949   6.348   2.457  0.1815 -0.0438 -0.7099
 6971TIP3    H142472   2.893   6.336   2.381  0.3141  0.7760 -0.9475
 6971TIP3    H242473   2.913   6.289   2.523 -0.9038  0.3942 -0.8928
 6972TIP3   OH242474   1.083   3.193   0.350 -0.0169 -0.4049 -0.5901
 6972TIP3    H142475   1.115   3.283   0.343 -1.7688  0.5505  2.0916
 6972TIP3    H242476   0.988   3.203   0.357 -0.2704 -2.5161 -0.5185
 6973TIP3   OH242477   2.388   2.206   1.804 -0.1251  0.1437 -0.3377
 6973TIP3    H142478   2.373   2.161   1.887  3.0956 -0.3184  0.1134
 6973TIP3    H242479   2.355   2.295   1.819 -1.3913 -0.4638  0.7207
 6974TIP3   OH242480   5.097   3.460   8.203  0.5975  0.3032 -0.0648
 6974TIP3    H142481   5.022   3.443   8.261  0.4521  0.5025 -0.1941
 6974TIP3    H242482   5.108   3.378   8.155 -1.0131  0.9688 -1.7170
 6975TIP3   OH242483   6.215   0.358   0.494  0.3254 -0.0925 -0.0704
 6975TIP3    H142484   6.187   0.340   0.404 -0.1858  0.2840  0.0095
 6975TIP3    H242485   6.134   0.366   0.544  0.4942  1.8816  0.0025
 6976TIP3   OH242486   3.035   5.955   2.199 -0.1049  0.0570 -0.2069
 6976TIP3    H142487   3.074   5.878   2.155  0.8465  0.6133 -0.3695
 6976TIP3    H242488   2.944   5.930   2.212  0.7419 -2.2371  2.2661
 6977TIP3   OH242489   5.601   5.619   2.870 -0.2391  0.1539  0.4348
 6977TIP3    H142490   5.600   5.540   2.816  1.4527  0.8661 -0.7578
 6977TIP3    H242491   5.530   5.607   2.933 -0.9196 -1.6714 -0.6068
 6978TIP3   OH242492   5.200   1.495   8.347  0.4382  0.4937 -0.6506
 6978TIP3    H142493   5.280   1.448   8.371  0.1503  0.1338 -0.3850
 6978TIP3    H242494   5.129   1.439   8.378  0.0884  1.4027  0.2574
 6979TIP3   OH242495   2.474   0.531   1.061 -0.2074  0.0137  0.7093
 6979TIP3    H142496   2.462   0.554   0.969 -0.8973 -2.1734  0.2046
 6979TIP3    H242497   2.568   0.518   1.071 -0.1463  0.1297  0.2989
 6980TIP3   OH242498   3.988   6.268   3.436 -0.0495 -0.0524  0.3908
 6980TIP3    H142499   4.025   6.199   3.382  0.9322 -0.7920  1.9170
 6980TIP3    H242500   3.942   6.222   3.506 -2.2766  0.8678 -0.3736
 6981TIP3   OH242501   0.305   6.543   0.143  0.2072 -0.1071 -0.2598
 6981TIP3    H142502   0.210   6.542   0.134  0.3404  0.5976 -2.6399
 6981TIP3    H242503   0.337   6.495   0.066  1.7722 -0.8515  0.8056
 6982TIP3   OH242504   1.208   1.393   1.332  0.0751 -0.3334  0.1050
 6982TIP3    H142505   1.303   1.386   1.341 -0.0310 -1.4140  0.5361
 6982TIP3    H242506   1.192   1.486   1.315  1.1995 -0.1344  0.0684
 6983TIP3   OH242507   5.270   1.525   8.658  0.2105  0.4999 -0.2610
 6983TIP3    H142508   5.291   1.432   8.663  3.1566  1.0986  0.1802
 6983TIP3    H242509   5.249   1.551   8.748 -3.4391 -0.2012 -0.7693
 6984TIP3   OH242510   3.200   2.787   8.533 -0.3831 -0.3678 -0.4398
 6984TIP3    H142511   3.189   2.710   8.590  0.8016  0.5862  1.1856
 6984TIP3    H242512   3.283   2.771   8.488  1.1265  0.8895  1.6606
 6985TIP3   OH242513   6.558   0.217   1.740 -0.2981 -0.6099 -0.1105
 6985TIP3    H142514   6.550   0.133   1.786  0.0061  0.2443  1.5809
 6985TIP3    H242515   6.475   0.262   1.758 -0.8982 -0.8942 -1.8706
 6986TIP3   OH242516   0.335   0.565   7.347 -0.6378  0.2553 -0.0768
 6986TIP3    H142517   0.272   0.634   7.329  0.1520  1.6819  2.1432
 6986TIP3    H242518   0.420   0.609   7.347  0.0771 -1.0630 -0.2335
 6987TIP3   OH242519   4.131   0.607   1.827  0.4339  0.1485  0.0369
 6987TIP3    H142520   4.073   0.544   1.869 -0.7595  1.4311  0.3728
 6987TIP3    H242521   4.080   0.687   1.822  1.1704  0.5535 -2.2321
 6988TIP3   OH242522   1.872   5.665   0.032 -0.2402  0.8921 -0.1143
 6988TIP3    H142523   1.846   5.577   0.005  0.4972  0.8873 -0.8415
 6988TIP3    H242524   1.876   5.661   0.127 -1.1357  0.4076 -0.0865
 6989TIP3   OH242525   4.188   0.138   7.409 -0.4507 -0.0624 -0.1887
 6989TIP3    H142526   4.177   0.179   7.323  1.4009 -0.0882 -0.4889
 6989TIP3    H242527   4.258   0.074   7.396 -1.2861 -1.2558  0.9691
 6990TIP3   OH242528   2.655   3.155   8.517 -0.6281 -0.1393  0.5218
 6990TIP3    H142529   2.730   3.135   8.461 -1.3984 -4.6545  0.7460
 6990TIP3    H242530   2.693   3.172   8.603  0.2444  0.4728  0.0228
 6991TIP3   OH242531   2.605   4.056   8.163  0.2120 -0.6930 -0.3252
 6991TIP3    H142532   2.527   4.025   8.116 -0.7713  0.5091  0.4513
 6991TIP3    H242533   2.678   4.026   8.110 -0.8436  1.3141 -3.1522
 6992TIP3   OH242534   0.006   5.409   7.138  0.3159 -0.8019 -0.5266
 6992TIP3    H142535  -0.062   5.366   7.189  0.5359  0.1036  0.5577
 6992TIP3    H242536   0.083   5.411   7.195  0.2655  1.1495 -0.4556
 6993TIP3   OH242537   5.749   4.321   1.518  0.1823 -0.0103 -0.0427
 6993TIP3    H142538   5.809   4.287   1.585  1.0816 -1.8044 -1.6285
 6993TIP3    H242539   5.662   4.300   1.550  0.4214  1.4737  1.7111
 6994TIP3   OH242540   1.450   3.393   1.466 -0.0440  0.3662  0.3915
 6994TIP3    H142541   1.525   3.390   1.407 -1.2670  0.3990 -1.2215
 6994TIP3    H242542   1.374   3.383   1.409 -1.2523 -0.4446  2.0583
 6995TIP3   OH242543   3.730   1.876   2.374  0.6339 -0.2274 -0.1656
 6995TIP3    H142544   3.713   1.904   2.464  2.3939  1.5021 -0.3058
 6995TIP3    H242545   3.809   1.823   2.380 -0.0558 -1.3318 -0.5402
 6996TIP3   OH242546   5.925   0.362   2.754  0.4096  0.4920  0.1719
 6996TIP3    H142547   5.865   0.297   2.793 -0.2127  1.2019  0.4131
 6996TIP3    H242548   6.010   0.318   2.754  0.3310  0.2581  1.8624
 6997TIP3   OH242549   0.050   6.543   0.108  0.0314 -0.4852 -0.5723
 6997TIP3    H142550   0.002   6.626   0.105  0.6087 -0.0714  0.7647
 6997TIP3    H242551  -0.012   6.478   0.074 -0.6634  0.3837 -1.0009
 6998TIP3   OH242552   1.650   5.625   2.946  0.1194 -0.6393  0.6854
 6998TIP3    H142553   1.686   5.685   3.011 -1.6784  0.6732  0.5132
 6998TIP3    H242554   1.726   5.601   2.892  0.7556  2.2188  0.1615
 6999TIP3   OH242555   2.030   3.260   0.810 -0.0797  0.2591 -0.2224
 6999TIP3    H142556   2.123   3.274   0.823 -0.1382  1.6901 -1.0903
 6999TIP3    H242557   2.004   3.328   0.748 -1.4406 -0.9423 -1.0361
 7000TIP3   OH242558   3.082   3.930   3.396 -0.6074 -1.3734 -0.8057
 7000TIP3    H142559   3.152   3.963   3.339  0.1274 -0.7455  0.4181
 7000TIP3    H242560   3.117   3.848   3.432 -0.2064 -0.7608  0.2721
 7001TIP3   OH242561   0.436   1.778   8.710  0.1870 -0.3457 -0.3584
 7001TIP3    H142562   0.497   1.825   8.653 -1.8701  1.0947 -1.5472
 7001TIP3    H242563   0.450   1.686   8.690 -0.3620  0.1054 -3.2146
 7002TIP3   OH242564   2.313   4.927   8.878  0.0948  0.3120  0.0468
 7002TIP3    H142565   2.262   4.965   8.949  0.3880  1.6844 -0.4323
 7002TIP3    H242566   2.250   4.878   8.825 -1.0701  3.0272 -1.2697
 7003TIP3   OH242567   2.986   4.020   0.128 -0.2717  0.3093  0.2523
 7003TIP3    H142568   2.963   3.959   0.198 -1.0522  1.0948  0.7191
 7003TIP3    H242569   3.050   4.079   0.167  1.5872 -1.0482 -0.6378
 7004TIP3   OH242570   1.871   4.810   8.769  0.0284 -0.1352  0.2259
 7004TIP3    H142571   1.902   4.759   8.694  0.5316  0.3408  0.0962
 7004TIP3    H242572   1.816   4.879   8.730 -1.2643 -1.0070  0.4616
 7005TIP3   OH242573   3.522   3.337   1.918  0.6580  0.2071  0.2458
 7005TIP3    H142574   3.576   3.412   1.891  0.0184  1.0186  1.1245
 7005TIP3    H242575   3.544   3.268   1.856  0.0743  1.6159 -1.6125
 7006TIP3   OH242576   3.765   4.059   2.919 -0.1443 -0.3792  0.1605
 7006TIP3    H142577   3.815   3.978   2.918  1.2880  0.4424 -1.8291
 7006TIP3    H242578   3.793   4.106   2.840 -1.0046  1.9898  1.1535
 7007TIP3   OH242579   0.248   5.951   2.052 -0.1305 -0.2278  0.3551
 7007TIP3    H142580   0.231   5.868   2.097 -0.2601  0.7786  2.2845
 7007TIP3    H242581   0.289   5.926   1.970 -1.2107 -2.2499  0.3636
 7008TIP3   OH242582   0.604   0.110   8.171  0.0221 -1.0288  0.1339
 7008TIP3    H142583   0.613   0.120   8.266  1.3853 -0.6042 -0.0125
 7008TIP3    H242584   0.633   0.020   8.154 -1.1511 -1.4320  0.2123
 7009TIP3   OH242585   2.803   2.828   1.186 -0.0554  0.3928  0.5640
 7009TIP3    H142586   2.803   2.861   1.276 -2.3923  0.0186  0.7747
 7009TIP3    H242587   2.712   2.803   1.170  0.1407  1.1628 -2.1951
 7010TIP3   OH242588   6.283   0.472   2.914 -0.2832  0.2694  0.0599
 7010TIP3    H142589   6.281   0.384   2.951  1.4504  0.0742 -0.2285
 7010TIP3    H242590   6.376   0.494   2.909 -0.6926  2.4931  0.9801
 7011TIP3   OH242591   3.147   5.252   0.201  0.4499 -0.3164  0.1409
 7011TIP3    H142592   3.166   5.338   0.163  1.2997 -0.6841 -0.2803
 7011TIP3    H242593   3.218   5.237   0.264  0.5823 -0.9176 -0.1412
 7012TIP3   OH242594   1.313   2.375   0.087 -0.2122 -0.1028  0.3201
 7012TIP3    H142595   1.230   2.421   0.101  0.2717  1.2847 -1.0142
 7012TIP3    H242596   1.377   2.425   0.137  0.2713  0.5432 -0.9057
 7013TIP3   OH242597   2.488   4.655   0.175 -0.2337 -0.2424  0.4891
 7013TIP3    H142598   2.471   4.726   0.237  0.6259  0.6233 -0.2354
 7013TIP3    H242599   2.401   4.623   0.152 -0.6713  0.8848  0.4944
 7014TIP3   OH242600   4.045   0.216   1.962 -0.2440  0.2022  0.0359
 7014TIP3    H142601   4.062   0.233   2.054 -2.1308  1.3764  0.2113
 7014TIP3    H242602   3.988   0.288   1.934  1.6700  0.8839 -2.5191
 7015TIP3   OH242603   1.722   5.039   8.218 -0.0320 -0.1388 -0.1567
 7015TIP3    H142604   1.633   5.008   8.233 -0.3038 -1.3551 -3.4833
 7015TIP3    H242605   1.711   5.131   8.193 -0.5061 -0.4987 -1.3586
 7016TIP3   OH242606   4.493   6.037   7.601 -0.0273 -0.5541  0.3556
 7016TIP3    H142607   4.403   6.069   7.610 -0.1682 -1.0427  0.7229
 7016TIP3    H242608   4.499   6.008   7.510 -0.2202 -0.4476  0.3091
 7017TIP3   OH242609   0.839   2.623   1.229  0.1592 -0.4796  0.7603
 7017TIP3    H142610   0.870   2.704   1.269  0.5908 -0.7405  0.9701
 7017TIP3    H242611   0.905   2.558   1.253  0.4794 -0.6281 -0.4654
 7018TIP3   OH242612   1.403   0.972   2.342 -0.0505 -0.2514 -0.8715
 7018TIP3    H142613   1.431   1.029   2.414  0.4922  1.6274 -2.4894
 7018TIP3    H242614   1.456   0.893   2.352 -0.6111 -0.4186  1.2598
 7019TIP3   OH242615   2.262   0.997   8.073  0.4766  0.3845 -0.0044
 7019TIP3    H142616   2.232   1.002   7.982  0.6138 -2.1985 -0.2485
 7019TIP3    H242617   2.224   1.075   8.115 -3.6832 -0.7726 -1.1422
 7020TIP3   OH242618   6.405   5.749   1.542  0.4644 -0.3774  0.0089
 7020TIP3    H142619   6.353   5.829   1.538  1.0168  0.0434  0.7918
 7020TIP3    H242620   6.426   5.728   1.451  0.0112  0.1644 -0.2226
 7021TIP3   OH242621   1.208   1.727   8.110 -0.1586 -0.5721  0.2178
 7021TIP3    H142622   1.119   1.730   8.074  0.6898 -2.4503 -2.3097
 7021TIP3    H242623   1.263   1.765   8.041  1.5084 -4.0021 -0.5678
 7022TIP3   OH242624   0.364   3.094   0.138 -0.5470  0.9084  0.2614
 7022TIP3    H142625   0.304   3.056   0.074  0.0420  1.6812 -0.7949
 7022TIP3    H242626   0.403   3.169   0.092  0.2212  1.2193  1.3807
 7023TIP3   OH242627   0.619   4.292   2.211 -0.3081 -0.0735  0.1919
 7023TIP3    H142628   0.656   4.279   2.124 -0.9421 -2.1071  0.1756
 7023TIP3    H242629   0.531   4.256   2.205 -0.1791 -0.7357  1.8061
 7024TIP3   OH242630   1.077   1.764   1.039 -0.3826  0.2160 -0.0239
 7024TIP3    H142631   1.141   1.695   1.056  0.0645  0.7067  0.3020
 7024TIP3    H242632   1.013   1.755   1.110 -0.9368 -0.5630 -0.6025
 7025TIP3   OH242633   4.358   6.776   3.138  0.1853  0.3130  0.1225
 7025TIP3    H142634   4.288   6.713   3.151  1.4395 -0.9130  1.2602
 7025TIP3    H242635   4.437   6.733   3.171  1.4136  1.8231 -0.6434
 7026TIP3   OH242636   3.112   5.674   2.813  0.3431 -0.4430 -0.5568
 7026TIP3    H142637   3.116   5.579   2.829  2.6159 -0.4476 -0.9174
 7026TIP3    H242638   3.050   5.706   2.879  1.3578 -1.8715  1.1910
 7027TIP3   OH242639   4.696   4.800   2.590  0.0122 -0.3613 -0.0279
 7027TIP3    H142640   4.761   4.731   2.601 -0.0726 -0.8065 -1.8722
 7027TIP3    H242641   4.621   4.755   2.550 -0.9681  0.3634  0.9533
 7028TIP3   OH242642   2.608   0.034   3.215  0.4031 -0.2547 -0.0845
 7028TIP3    H142643   2.521   0.017   3.177  0.1129 -1.7744  1.1678
 7028TIP3    H242644   2.667   0.034   3.140 -0.4224 -1.1411 -0.7720
 7029TIP3   OH242645   5.098   4.076   1.871  0.1441 -0.5282 -0.1288
 7029TIP3    H142646   5.044   4.034   1.938  0.2790 -1.0018 -0.3068
 7029TIP3    H242647   5.087   4.170   1.886  0.3506 -0.6216  0.7023
 7030TIP3   OH242648   2.698   2.772   2.069  0.2347 -0.0806  0.1805
 7030TIP3    H142649   2.658   2.699   2.115  0.7940  0.7151  2.0382
 7030TIP3    H242650   2.737   2.826   2.139 -0.2739  2.0461 -1.0826
 7031TIP3   OH242651   5.696   5.316   1.936 -0.7215  0.5614  0.0819
 7031TIP3    H142652   5.678   5.388   1.875 -2.0396 -1.1278 -1.6337
 7031TIP3    H242653   5.792   5.314   1.942 -0.6464  2.6855  0.5315
 7032TIP3   OH242654   0.685   5.629   7.946  0.0954 -0.0270  0.6415
 7032TIP3    H142655   0.775   5.596   7.956  0.5576  0.5919 -1.0746
 7032TIP3    H242656   0.686   5.715   7.988  0.0711 -0.3585  1.3361
 7033TIP3   OH242657   5.472   4.961   8.532 -0.3531  0.0901 -0.1276
 7033TIP3    H142658   5.483   5.055   8.520  0.1328  0.2670  1.4357
 7033TIP3    H242659   5.382   4.951   8.564 -0.4072  0.0151 -0.3001
 7034TIP3   OH242660   3.864   0.979   8.246 -0.3380  0.0264  0.6784
 7034TIP3    H142661   3.791   1.001   8.188  0.3326  0.8552  0.1173
 7034TIP3    H242662   3.935   0.953   8.187  0.5004  1.3154  1.0744
 7035TIP3   OH242663   2.797   5.091   0.406 -0.3658 -0.1240  0.4869
 7035TIP3    H142664   2.878   5.053   0.373 -0.7279 -0.1342 -0.4009
 7035TIP3    H242665   2.738   5.092   0.331 -0.4036  2.1323  0.4905
 7036TIP3   OH242666   0.995   6.769   7.561 -0.8533 -0.5980 -0.4199
 7036TIP3    H142667   0.987   6.840   7.497 -1.0286 -0.4695 -0.2541
 7036TIP3    H242668   1.003   6.813   7.645 -2.8863 -0.7823 -0.0827
 7037TIP3   OH242669   3.824   2.111   7.851  0.4634  0.1113  0.1313
 7037TIP3    H142670   3.835   2.201   7.882 -2.5837  0.6022  0.1124
 7037TIP3    H242671   3.851   2.113   7.760  3.0942  0.2633  0.8347
 7038TIP3   OH242672   2.303   0.323   1.488 -0.5364  0.1666  0.2922
 7038TIP3    H142673   2.366   0.278   1.545  0.7552 -1.1554 -2.0219
 7038TIP3    H242674   2.330   0.415   1.491  1.7113 -0.3877 -0.7669
 7039TIP3   OH242675   3.766   2.045   3.256  0.3553 -0.1809  0.0473
 7039TIP3    H142676   3.859   2.037   3.281  0.3724  0.6347  0.2756
 7039TIP3    H242677   3.768   2.059   3.161  0.4100 -0.9897 -0.0839
 7040TIP3   OH242678   6.252   2.743   1.992  0.7997  0.9179 -0.6560
 7040TIP3    H142679   6.177   2.733   2.052 -0.8195 -0.5739 -2.7646
 7040TIP3    H242680   6.234   2.825   1.946 -0.3882 -0.1420 -2.1691
 7041TIP3   OH242681   1.852   1.356   2.140 -0.4865  0.4254  0.4686
 7041TIP3    H142682   1.824   1.299   2.069  2.1771 -0.9401  0.3983
 7041TIP3    H242683   1.780   1.418   2.151 -2.8790 -2.0143 -0.4586
 7042TIP3   OH242684   0.783   3.626   7.419  0.0133  0.1879 -0.0400
 7042TIP3    H142685   0.839   3.687   7.373 -1.1658  0.5404 -1.0672
 7042TIP3    H242686   0.840   3.584   7.483  1.0550  1.6713  0.0443
 7043TIP3   OH242687   3.251   0.548   2.257  0.2170 -0.1307  0.2380
 7043TIP3    H142688   3.212   0.615   2.201 -1.6209 -1.1732  0.1984
 7043TIP3    H242689   3.179   0.518   2.313  1.5680 -0.3954  1.9309
 7044TIP3   OH242690   5.410   3.952   8.748 -0.6815 -0.0307  0.1957
 7044TIP3    H142691   5.353   4.013   8.702  0.2128  0.4087 -0.3367
 7044TIP3    H242692   5.499   3.981   8.728 -0.1397 -2.6924 -1.7519
 7045TIP3   OH242693   4.710   2.970   2.227  0.3638 -0.5802  0.4086
 7045TIP3    H142694   4.624   2.992   2.190  0.9303 -0.6814 -1.0332
 7045TIP3    H242695   4.691   2.946   2.317 -0.7951  1.8267  0.8892
 7046TIP3   OH242696   5.344   5.762   2.084 -0.0697 -0.0273 -0.3246
 7046TIP3    H142697   5.272   5.774   2.146  0.8674  1.8289  0.4857
 7046TIP3    H242698   5.377   5.674   2.101  0.4853  0.5921  2.2062
 7047TIP3   OH242699   0.352   3.692   2.395  0.1975  0.4819 -0.0157
 7047TIP3    H142700   0.315   3.731   2.316  0.1712  0.2633 -0.1110
 7047TIP3    H242701   0.395   3.765   2.440 -0.1906  0.7032  0.0033
 7048TIP3   OH242702   1.186   0.075   3.356 -0.9178 -0.7368  0.0179
 7048TIP3    H142703   1.122   0.111   3.417 -0.9565 -1.6656  0.5422
 7048TIP3    H242704   1.172  -0.019   3.359  0.7445 -1.0103  0.4922
 7049TIP3   OH242705   4.649   1.386   2.186 -0.4993  0.7740 -0.0929
 7049TIP3    H142706   4.711   1.430   2.244  2.4017 -0.3687 -2.1336
 7049TIP3    H242707   4.699   1.365   2.107 -3.1222 -1.4728 -1.3475
 7050TIP3   OH242708   5.418   4.359   0.551  0.3923  0.3727  0.4810
 7050TIP3    H142709   5.371   4.427   0.503 -1.3966 -0.4553  1.0138
 7050TIP3    H242710   5.433   4.398   0.638 -2.4130 -0.5398  1.4791
 7051TIP3   OH242711   4.280   3.578   7.724  0.0806  0.5497 -0.4702
 7051TIP3    H142712   4.186   3.557   7.728  0.2641 -0.3775  3.2723
 7051TIP3    H242713   4.284   3.671   7.748  0.1280  0.5433 -0.4544
 7052TIP3   OH242714   5.683   6.159   0.570  0.3403 -0.6475  0.0836
 7052TIP3    H142715   5.647   6.217   0.637  0.2643  2.0594 -2.1640
 7052TIP3    H242716   5.777   6.177   0.571  0.0090  1.7458 -2.4812
 7053TIP3   OH242717   0.382   3.803   3.371 -0.1225  0.4795  0.2410
 7053TIP3    H142718   0.338   3.753   3.302 -1.1054  2.2779 -0.5056
 7053TIP3    H242719   0.318   3.809   3.441 -0.1822  1.0551  0.1419
 7054TIP3   OH242720   5.564   6.029   2.528 -0.6928 -0.4438 -0.1088
 7054TIP3    H142721   5.593   6.114   2.560  0.1509 -0.0672 -1.7553
 7054TIP3    H242722   5.575   5.970   2.603  1.0181  0.4059  0.3618
 7055LIG      O42723   5.923   0.780   7.289 -0.3918  0.1202 -0.4960
 7055LIG      N42724   6.118   0.846   7.695  0.3200 -0.0046  0.1568
 7055LIG     C142725   6.120   0.661   7.229 -0.4499 -0.3807  0.8691
 7055LIG     C242726   6.024   0.703   7.343 -0.5055 -0.0757 -0.6941
 7055LIG     C342727   6.057   0.570   7.118  0.4690  0.8302 -0.7791
 7055LIG     C442728   6.183   0.778   7.148  0.1919 -0.5471  0.2373
 7055LIG     C542729   6.109   0.785   7.451  0.3447 -0.1000  0.3206
 7055LIG     C642730   6.154   0.522   7.006 -0.3659 -1.0560 -0.3981
 7055LIG     C742731   6.278   0.738   7.032 -0.8159  0.2995 -0.4922
 7055LIG     C842732   6.216   0.639   6.937  0.1638  0.3776 -0.5780
 7055LIG     C942733   6.033   0.821   7.577  0.9861 -0.4031 -0.3818
 7055LIG    C1042734   5.970   0.563   7.408  0.1664 -0.0910  0.2716
 7055LIG    C1142735   6.224   0.941   7.676 -0.4729 -0.3172 -0.5228
 7055LIG    C1242736   6.044   0.886   7.815  0.2241 -0.2343 -0.1629
 7055LIG    C1342737   6.153   1.080   7.663 -1.6207  0.1441 -0.6928
 7055LIG    C1442738   5.983   1.030   7.817 -0.0214 -0.1981 -0.1969
 7055LIG    C1542739   6.087   1.132   7.790 -0.1382  0.0110  0.5309
 7055LIG    C1642740   6.055   0.469   7.463  0.2117 -0.3016  0.0101
 7055LIG    C1742741   5.828   0.540   7.406  0.0736 -0.2760 -0.0389
 7055LIG    C1842742   6.003   0.355   7.524  0.6037  0.6498 -0.1295
 7055LIG    C1942743   5.781   0.426   7.466  0.2437  0.9518 -0.4695
 7055LIG    C2042744   5.869   0.334   7.524  0.2869  0.8550 -0.2004
 7055LIG     H142745   6.200   0.602   7.278  1.1924 -0.1796 -1.4063
 7055LIG     H242746   5.972   0.620   7.067  0.8035  0.5290 -1.6414
 7055LIG     H342747   6.002   0.485   7.166  0.2558  0.4604 -1.6566
 7055LIG     H442748   6.237   0.855   7.207  2.2697 -0.1949 -1.9686
 7055LIG     H542749   6.103   0.847   7.114  0.8360  0.8436  1.4055
 7055LIG     H642750   6.152   0.879   7.412 -1.4270  0.1045 -1.2928
 7055LIG     H742751   6.189   0.714   7.481 -0.9590 -1.8674 -0.2404
 7055LIG     H842752   6.105   0.451   6.937 -1.7290  0.3767 -0.9578
 7055LIG     H942753   6.229   0.462   7.061 -0.7338 -1.6379 -0.5200
 7055LIG    H1042754   6.362   0.679   7.074 -1.0175  0.5394  0.2632
 7055LIG    H1142755   6.324   0.833   6.998  0.3643  0.0529  0.3566
 7055LIG    H1242756   6.133   0.684   6.879 -0.2365  0.7584  0.2612
 7055LIG    H1342757   6.289   0.607   6.860  0.6804 -1.8668  0.7597
 7055LIG    H1442758   5.968   0.910   7.562 -0.8572 -0.8198  3.8052
 7055LIG    H1542759   5.964   0.740   7.608 -2.2455  1.4769 -2.1920
 7055LIG    H1642760   6.290   0.910   7.591  0.3946  0.0001  0.0143
 7055LIG    H1742761   6.286   0.939   7.768  0.2980 -1.2207 -1.0368
 7055LIG    H1842762   6.103   0.869   7.907  0.0548 -0.1580 -0.0389
 7055LIG    H1942763   5.956   0.818   7.819 -0.4387  0.4275 -2.1587
 7055LIG    H2042764   5.870   0.731   7.226 -0.8913  2.2712 -1.8623
 7055LIG    H2142765   6.097   1.073   7.567  2.1336  0.0796 -3.0832
 7055LIG    H2242766   6.241   1.146   7.650  0.4252 -2.1921  0.5009
 7055LIG    H2342767   5.954   1.041   7.924  2.1106 -2.2971  0.6913
 7055LIG    H2442768   5.900   1.031   7.744  0.7863 -0.7072 -1.1478
 7055LIG    H2542769   6.046   1.236   7.790  0.6021  0.3415 -1.7069
 7055LIG    H2642770   6.167   1.120   7.866  0.0315  1.2819  0.5810
 7055LIG    H2742771   6.163   0.475   7.459  0.5042 -3.3719  0.8273
 7055LIG    H2842772   5.750   0.602   7.366 -1.6432 -3.4331 -1.9315
 7055LIG    H2942773   6.078   0.282   7.552  0.3787 -0.4338 -2.1354
 7055LIG    H3042774   5.675   0.408   7.473  0.0794  2.2435  0.6750
 7055LIG    H3142775   5.823   0.252   7.577 -0.9789  0.9556 -1.1010
   6.80159   6.80159   8.88606
